Built with Packmol
22239
    1LIG      O    1   2.227   2.220   0.013
    1LIG      C    2   2.292   2.270   0.135
    1LIG     C1    3   2.221   2.217   0.266
    1LIG     O1    4   2.285   2.267   0.390
    1LIG     C2    5   2.220   2.218   0.513
    1LIG     C3    6   2.291   2.273   0.641
    1LIG     O2    7   2.227   2.225   0.764
    1LIG     C4    8   2.290   2.275   0.888
    1LIG     C5    9   2.218   2.220   1.016
    1LIG     O3   10   2.281   2.270   1.140
    1LIG     C6   11   2.216   2.221   1.263
    1LIG     C7   12   2.288   2.277   1.391
    1LIG     O4   13   2.224   2.229   1.515
    1LIG     C8   14   2.288   2.279   1.638
    1LIG     C9   15   2.215   2.223   1.765
    1LIG     O5   16   2.279   2.273   1.888
    1LIG    C10   17   2.215   2.224   2.012
    1LIG    C11   18   2.287   2.280   2.140
    1LIG     O6   19   2.223   2.231   2.263
    1LIG    C12   20   2.286   2.280   2.387
    1LIG    C13   21   2.213   2.225   2.514
    1LIG     O7   22   2.277   2.274   2.637
    1LIG    C14   23   2.213   2.225   2.761
    1LIG    C15   24   2.285   2.280   2.890
    1LIG     O8   25   2.221   2.231   3.014
    1LIG    C16   26   2.285   2.281   3.137
    1LIG    C17   27   2.214   2.226   3.265
    1LIG     O9   28   2.277   2.275   3.389
    1LIG    C18   29   2.212   2.226   3.512
    1LIG    C19   30   2.284   2.281   3.639
    1LIG    O10   31   2.221   2.232   3.763
    1LIG    C20   32   2.285   2.282   3.886
    1LIG    C21   33   2.212   2.226   4.013
    1LIG    O11   34   2.276   2.275   4.137
    1LIG    C22   35   2.212   2.226   4.260
    1LIG    C23   36   2.284   2.282   4.388
    1LIG    O12   37   2.220   2.233   4.511
    1LIG    C24   38   2.284   2.282   4.635
    1LIG    C25   39   2.212   2.227   4.764
    1LIG    O13   40   2.275   2.276   4.888
    1LIG    C26   41   2.211   2.227   5.010
    1LIG    C27   42   2.283   2.282   5.138
    1LIG    O14   43   2.219   2.233   5.261
    1LIG    C28   44   2.284   2.282   5.385
    1LIG    C29   45   2.212   2.226   5.514
    1LIG    O15   46   2.276   2.275   5.637
    1LIG    C30   47   2.212   2.226   5.760
    1LIG    C31   48   2.284   2.281   5.887
    1LIG    O16   49   2.220   2.232   6.010
    1LIG    C32   50   2.284   2.281   6.134
    1LIG    C33   51   2.212   2.226   6.262
    1LIG    O17   52   2.276   2.275   6.386
    1LIG    C34   53   2.212   2.225   6.509
    1LIG    C35   54   2.284   2.280   6.637
    1LIG    O18   55   2.220   2.231   6.761
    1LIG    C36   56   2.284   2.280   6.884
    1LIG    C37   57   2.213   2.225   7.012
    1LIG    O19   58   2.277   2.274   7.136
    1LIG    C38   59   2.213   2.224   7.259
    1LIG    C39   60   2.284   2.279   7.387
    1LIG    O20   61   2.221   2.230   7.511
    1LIG    C40   62   2.285   2.279   7.634
    1LIG    C41   63   2.214   2.224   7.762
    1LIG    O21   64   2.277   2.273   7.886
    1LIG    C42   65   2.213   2.223   8.009
    1LIG    C43   66   2.285   2.278   8.136
    1LIG    O22   67   2.222   2.229   8.260
    1LIG    C44   68   2.286   2.278   8.383
    1LIG    C45   69   2.214   2.222   8.511
    1LIG    O23   70   2.278   2.271   8.635
    1LIG    C46   71   2.214   2.222   8.758
    1LIG    C47   72   2.287   2.278   8.886
    1LIG    O24   73   2.223   2.228   9.009
    1LIG    C48   74   2.286   2.277   9.133
    1LIG    C49   75   2.214   2.221   9.260
    1LIG    O25   76   2.278   2.270   9.383
    1LIG    C50   77   2.215   2.221   9.507
    1LIG    C51   78   2.287   2.277   9.635
    1LIG    O26   79   2.224   2.227   9.758
    1LIG    C52   80   2.287   2.276   9.882
    1LIG    C53   81   2.215   2.219  10.009
    1LIG    O27   82   2.279   2.269  10.132
    1LIG    C54   83   2.216   2.219  10.256
    1LIG    C55   84   2.288   2.275  10.385
    1LIG    O28   85   2.224   2.225  10.508
    1LIG    C56   86   2.288   2.274  10.632
    1LIG    C57   87   2.217   2.218  10.761
    1LIG    O29   88   2.281   2.267  10.885
    1LIG    C58   89   2.217   2.217  11.008
    1LIG    C59   90   2.288   2.272  11.137
    1LIG      H   91   2.289   2.380   0.133
    1LIG     H1   92   2.397   2.239   0.134
    1LIG     H2   93   2.224   2.108   0.266
    1LIG     H3   94   2.116   2.248   0.265
    1LIG     H4   95   2.223   2.108   0.515
    1LIG     H5   96   2.115   2.249   0.514
    1LIG     H6   97   2.289   2.383   0.639
    1LIG     H7   98   2.397   2.242   0.640
    1LIG     H8   99   2.288   2.384   0.889
    1LIG     H9  100   2.395   2.244   0.890
    1LIG    H10  101   2.221   2.111   1.015
    1LIG    H11  102   2.113   2.251   1.014
    1LIG    H12  103   2.219   2.112   1.265
    1LIG    H13  104   2.111   2.252   1.264
    1LIG    H14  105   2.285   2.387   1.389
    1LIG    H15  106   2.393   2.246   1.390
    1LIG    H16  107   2.285   2.388   1.639
    1LIG    H17  108   2.393   2.248   1.640
    1LIG    H18  109   2.218   2.114   1.764
    1LIG    H19  110   2.110   2.254   1.763
    1LIG    H20  111   2.217   2.114   2.014
    1LIG    H21  112   2.109   2.255   2.014
    1LIG    H22  113   2.284   2.389   2.138
    1LIG    H23  114   2.392   2.249   2.138
    1LIG    H24  115   2.283   2.389   2.388
    1LIG    H25  116   2.391   2.249   2.389
    1LIG    H26  117   2.216   2.115   2.513
    1LIG    H27  118   2.108   2.256   2.513
    1LIG    H28  119   2.216   2.115   2.763
    1LIG    H29  120   2.108   2.256   2.763
    1LIG    H30  121   2.282   2.390   2.888
    1LIG    H31  122   2.390   2.249   2.889
    1LIG    H32  123   2.282   2.391   3.138
    1LIG    H33  124   2.390   2.250   3.138
    1LIG    H34  125   2.216   2.117   3.264
    1LIG    H35  126   2.108   2.257   3.263
    1LIG    H36  127   2.215   2.116   3.513
    1LIG    H37  128   2.107   2.257   3.513
    1LIG    H38  129   2.281   2.391   3.637
    1LIG    H39  130   2.389   2.250   3.638
    1LIG    H40  131   2.282   2.391   3.888
    1LIG    H41  132   2.390   2.251   3.888
    1LIG    H42  133   2.215   2.117   4.012
    1LIG    H43  134   2.107   2.257   4.012
    1LIG    H44  135   2.215   2.117   4.262
    1LIG    H45  136   2.107   2.257   4.262
    1LIG    H46  137   2.281   2.392   4.386
    1LIG    H47  138   2.390   2.251   4.387
    1LIG    H48  139   2.281   2.391   4.637
    1LIG    H49  140   2.389   2.251   4.637
    1LIG    H50  141   2.215   2.117   4.762
    1LIG    H51  142   2.107   2.258   4.762
    1LIG    H52  143   2.214   2.117   5.012
    1LIG    H53  144   2.106   2.258   5.012
    1LIG    H54  145   2.280   2.392   5.137
    1LIG    H55  146   2.388   2.251   5.136
    1LIG    H56  147   2.281   2.391   5.387
    1LIG    H57  148   2.389   2.251   5.386
    1LIG    H58  149   2.215   2.117   5.512
    1LIG    H59  150   2.107   2.257   5.512
    1LIG    H60  151   2.215   2.116   5.761
    1LIG    H61  152   2.107   2.257   5.762
    1LIG    H62  153   2.281   2.391   5.886
    1LIG    H63  154   2.389   2.250   5.886
    1LIG    H64  155   2.281   2.390   6.136
    1LIG    H65  156   2.389   2.250   6.135
    1LIG    H66  157   2.215   2.116   6.261
    1LIG    H67  158   2.107   2.257   6.261
    1LIG    H68  159   2.215   2.116   6.510
    1LIG    H69  160   2.107   2.256   6.510
    1LIG    H70  161   2.281   2.390   6.636
    1LIG    H71  162   2.389   2.250   6.636
    1LIG    H72  163   2.281   2.390   6.885
    1LIG    H73  164   2.390   2.250   6.885
    1LIG    H74  165   2.216   2.116   7.011
    1LIG    H75  166   2.108   2.256   7.011
    1LIG    H76  167   2.216   2.115   7.260
    1LIG    H77  168   2.108   2.255   7.260
    1LIG    H78  169   2.281   2.388   7.386
    1LIG    H79  170   2.390   2.248   7.386
    1LIG    H80  171   2.282   2.389   7.635
    1LIG    H81  172   2.390   2.249   7.635
    1LIG    H82  173   2.217   2.114   7.761
    1LIG    H83  174   2.108   2.254   7.761
    1LIG    H84  175   2.217   2.113   8.010
    1LIG    H85  176   2.108   2.253   8.010
    1LIG    H86  177   2.282   2.388   8.135
    1LIG    H87  178   2.391   2.248   8.134
    1LIG    H88  179   2.283   2.388   8.385
    1LIG    H89  180   2.391   2.248   8.385
    1LIG    H90  181   2.217   2.113   8.509
    1LIG    H91  182   2.109   2.253   8.510
    1LIG    H92  183   2.218   2.112   8.760
    1LIG    H93  184   2.109   2.252   8.760
    1LIG    H94  185   2.283   2.387   8.884
    1LIG    H95  186   2.392   2.247   8.884
    1LIG    H96  187   2.283   2.386   9.135
    1LIG    H97  188   2.391   2.246   9.134
    1LIG    H98  189   2.218   2.111   9.258
    1LIG    H99  190   2.109   2.251   9.259
    1LIG   H100  191   2.218   2.111   9.509
    1LIG   H101  192   2.110   2.251   9.509
    1LIG   H102  193   2.284   2.386   9.633
    1LIG   H103  194   2.392   2.246   9.633
    1LIG   H104  195   2.284   2.385   9.884
    1LIG   H105  196   2.392   2.245   9.883
    1LIG   H106  197   2.219   2.110  10.007
    1LIG   H107  198   2.110   2.250  10.008
    1LIG   H108  199   2.220   2.110  10.257
    1LIG   H109  200   2.111   2.250  10.258
    1LIG   H110  201   2.284   2.384  10.384
    1LIG   H111  202   2.393   2.244  10.383
    1LIG   H112  203   2.285   2.384  10.634
    1LIG   H113  204   2.394   2.244  10.633
    1LIG   H114  205   2.221   2.109  10.759
    1LIG   H115  206   2.112   2.249  10.760
    1LIG   H116  207   2.221   2.107  11.008
    1LIG   H117  208   2.112   2.249  11.009
    1LIG   H118  209   2.393   2.242  11.136
    1LIG   H119  210   2.241   2.235  11.233
    1MOL     C1  211   2.803   2.247   5.598
    1MOL     H1  212   2.892   2.307   5.619
    1MOL     O1  213   2.777   2.174   5.716
    1MOL     C2  214   2.656   2.095   5.710
    1MOL     H2  215   2.571   2.159   5.685
    1MOL     C3  216   2.632   2.039   5.851
    1MOL     H3  217   2.728   2.036   5.904
    1MOL     H4  218   2.592   1.937   5.846
    1MOL     O2  219   2.543   2.121   5.926
    1MOL     H5  220   2.456   2.077   5.925
    1MOL     C4  221   2.825   2.151   5.480
    1MOL     H6  222   2.914   2.091   5.501
    1MOL     O3  223   2.850   2.219   5.358
    1MOL     H7  224   2.796   2.301   5.357
    1MOL     C5  225   2.704   2.059   5.467
    1MOL     H8  226   2.617   2.120   5.438
    1MOL     O4  227   2.726   1.958   5.368
    1MOL     H9  228   2.761   2.004   5.290
    1MOL     C6  229   2.670   1.990   5.598
    1MOL    H10  230   2.747   1.916   5.623
    1MOL     O5  231   2.544   1.925   5.576
    1MOL     C7  232   2.524   1.791   5.616
    1MOL    H11  233   2.619   1.743   5.641
    1MOL     O6  234   2.445   1.783   5.733
    1MOL     C8  235   2.316   1.847   5.722
    1MOL    H12  236   2.330   1.953   5.694
    1MOL     C9  237   2.253   1.843   5.859
    1MOL    H13  238   2.269   1.744   5.903
    1MOL    H14  239   2.145   1.861   5.851
    1MOL     O7  240   2.315   1.944   5.940
    1MOL    H15  241   2.292   1.929   6.033
    1MOL    C10  242   2.454   1.721   5.499
    1MOL    H16  243   2.443   1.615   5.525
    1MOL     O8  244   2.527   1.726   5.379
    1MOL    H17  245   2.573   1.813   5.373
    1MOL    C11  246   2.314   1.781   5.481
    1MOL    H18  247   2.325   1.885   5.450
    1MOL     O9  248   2.241   1.708   5.382
    1MOL    H19  249   2.302   1.698   5.307
    1MOL    C12  250   2.233   1.779   5.611
    1MOL    H20  251   2.210   1.676   5.639
    1MOL    O10  252   2.114   1.853   5.587
    1MOL    C13  253   1.986   1.793   5.606
    1MOL    H21  254   1.998   1.686   5.627
    1MOL    O11  255   1.920   1.847   5.718
    1MOL    C14  256   1.894   1.988   5.713
    1MOL    H22  257   1.990   2.042   5.714
    1MOL    C15  258   1.817   2.025   5.839
    1MOL    H23  259   1.813   2.135   5.845
    1MOL    H24  260   1.873   1.987   5.926
    1MOL    O12  261   1.687   1.969   5.832
    1MOL    H25  262   1.633   2.011   5.900
    1MOL    C16  263   1.904   1.817   5.479
    1MOL    H26  264   1.806   1.770   5.494
    1MOL    O13  265   1.959   1.759   5.363
    1MOL    H27  266   2.057   1.762   5.367
    1MOL    C17  267   1.884   1.967   5.461
    1MOL    H28  268   1.982   2.014   5.447
    1MOL    O14  269   1.801   1.994   5.348
    1MOL    H29  270   1.834   1.937   5.277
    1MOL    C18  271   1.818   2.028   5.584
    1MOL    H30  272   1.714   1.994   5.591
    1MOL    O15  273   1.824   2.170   5.569
    1MOL    C19  274   1.708   2.249   5.584
    1MOL    H31  275   1.619   2.186   5.598
    1MOL    O16  276   1.716   2.330   5.700
    1MOL    C20  277   1.831   2.417   5.704
    1MOL    H32  278   1.922   2.356   5.706
    1MOL    C21  279   1.824   2.496   5.834
    1MOL    H33  280   1.921   2.545   5.849
    1MOL    H34  281   1.807   2.425   5.916
    1MOL    O17  282   1.718   2.591   5.826
    1MOL    H35  283   1.726   2.650   5.902
    1MOL    C22  284   1.696   2.337   5.459
    1MOL    H36  285   1.607   2.399   5.469
    1MOL    O18  286   1.681   2.263   5.339
    1MOL    H37  287   1.738   2.184   5.342
    1MOL    C23  288   1.819   2.428   5.451
    1MOL    H38  289   1.908   2.365   5.437
    1MOL    O19  290   1.808   2.520   5.343
    1MOL    H39  291   1.779   2.468   5.267
    1MOL    C24  292   1.838   2.508   5.580
    1MOL    H40  293   1.761   2.585   5.586
    1MOL    O20  294   1.968   2.567   5.570
    1MOL    C25  295   1.990   2.700   5.611
    1MOL    H41  296   1.895   2.748   5.638
    1MOL    O21  297   2.071   2.706   5.726
    1MOL    C26  298   2.200   2.641   5.711
    1MOL    H42  299   2.182   2.537   5.682
    1MOL    C27  300   2.271   2.643   5.847
    1MOL    H43  301   2.328   2.551   5.860
    1MOL    H44  302   2.193   2.644   5.924
    1MOL    O22  303   2.354   2.756   5.868
    1MOL    H45  304   2.445   2.726   5.850
    1MOL    C28  305   2.057   2.772   5.493
    1MOL    H46  306   2.069   2.878   5.518
    1MOL    O23  307   1.980   2.768   5.374
    1MOL    H47  308   1.942   2.678   5.364
    1MOL    C29  309   2.196   2.711   5.470
    1MOL    H48  310   2.184   2.607   5.437
    1MOL    O24  311   2.268   2.785   5.371
    1MOL    H49  312   2.205   2.798   5.297
    1MOL    C30  313   2.277   2.712   5.598
    1MOL    H50  314   2.299   2.815   5.629
    1MOL    O25  315   2.399   2.643   5.569
    1MOL    C31  316   2.522   2.702   5.603
    1MOL    H51  317   2.509   2.808   5.628
    1MOL    O26  318   2.579   2.642   5.719
    1MOL    C32  319   2.600   2.499   5.709
    1MOL    H52  320   2.504   2.450   5.688
    1MOL    C33  321   2.650   2.451   5.846
    1MOL    H53  322   2.705   2.534   5.892
    1MOL    H54  323   2.720   2.368   5.832
    1MOL    O27  324   2.543   2.414   5.931
    1MOL    H55  325   2.538   2.316   5.931
    1MOL    C34  326   2.616   2.684   5.483
    1MOL    H56  327   2.711   2.735   5.506
    1MOL    O28  328   2.566   2.743   5.365
    1MOL    H57  329   2.468   2.735   5.364
    1MOL    C35  330   2.644   2.535   5.463
    1MOL    H58  331   2.549   2.487   5.436
    1MOL    O29  332   2.740   2.514   5.360
    1MOL    H59  333   2.712   2.570   5.286
    1MOL    C36  334   2.694   2.469   5.591
    1MOL    H60  335   2.797   2.503   5.612
    1MOL    O30  336   2.695   2.329   5.562
    2SOL     OW  337   0.230   0.628   0.113
    2SOL    HW1  338   0.137   0.626   0.150
    2SOL    HW2  339   0.231   0.589   0.021
    3SOL     OW  340   0.225   0.275   0.996
    3SOL    HW1  341   0.260   0.258   1.088
    3SOL    HW2  342   0.137   0.230   0.984
    4SOL     OW  343   0.019   0.368   0.647
    4SOL    HW1  344  -0.063   0.411   0.686
    4SOL    HW2  345  -0.009   0.295   0.584
    5SOL     OW  346   0.569   1.275   1.165
    5SOL    HW1  347   0.476   1.268   1.128
    5SOL    HW2  348   0.580   1.364   1.209
    6SOL     OW  349   1.555   1.511   0.703
    6SOL    HW1  350   1.498   1.495   0.784
    6SOL    HW2  351   1.496   1.521   0.623
    7SOL     OW  352   1.135   0.703   0.717
    7SOL    HW1  353   1.192   0.781   0.692
    7SOL    HW2  354   1.075   0.729   0.793
    8SOL     OW  355   1.755   0.607   0.231
    8SOL    HW1  356   1.743   0.594   0.132
    8SOL    HW2  357   1.725   0.526   0.280
    9SOL     OW  358   0.768   1.144   1.023
    9SOL    HW1  359   0.690   1.161   1.083
    9SOL    HW2  360   0.802   1.231   0.987
   10SOL     OW  361   0.850   0.798   1.823
   10SOL    HW1  362   0.846   0.874   1.888
   10SOL    HW2  363   0.872   0.834   1.732
   11SOL     OW  364   0.685   1.012   0.665
   11SOL    HW1  365   0.754   0.996   0.735
   11SOL    HW2  366   0.612   1.069   0.703
   12SOL     OW  367   0.686   1.161   1.803
   12SOL    HW1  368   0.746   1.240   1.817
   12SOL    HW2  369   0.600   1.192   1.762
   13SOL     OW  370   0.335   1.435   1.061
   13SOL    HW1  371   0.257   1.404   1.008
   13SOL    HW2  372   0.393   1.493   1.004
   14SOL     OW  373   1.460   1.505   1.339
   14SOL    HW1  374   1.484   1.599   1.365
   14SOL    HW2  375   1.444   1.451   1.421
   15SOL     OW  376   0.438   0.392   1.499
   15SOL    HW1  377   0.520   0.336   1.508
   15SOL    HW2  378   0.357   0.334   1.503
   16SOL     OW  379   1.603   0.447   0.737
   16SOL    HW1  380   1.529   0.493   0.687
   16SOL    HW2  381   1.654   0.515   0.790
   17SOL     OW  382   0.231   1.713   0.483
   17SOL    HW1  383   0.265   1.790   0.537
   17SOL    HW2  384   0.275   1.713   0.393
   18SOL     OW  385   1.127   1.341   1.690
   18SOL    HW1  386   1.174   1.341   1.778
   18SOL    HW2  387   1.079   1.254   1.679
   19SOL     OW  388   0.230   1.434   0.538
   19SOL    HW1  389   0.204   1.530   0.538
   19SOL    HW2  390   0.159   1.380   0.583
   20SOL     OW  391   0.240   1.091   0.886
   20SOL    HW1  392   0.254   1.007   0.938
   20SOL    HW2  393   0.185   1.155   0.941
   21SOL     OW  394   0.620   1.786   1.439
   21SOL    HW1  395   0.528   1.769   1.474
   21SOL    HW2  396   0.648   1.878   1.465
   22SOL     OW  397   0.606   0.964   0.123
   22SOL    HW1  398   0.613   1.048   0.069
   22SOL    HW2  399   0.652   0.977   0.211
   23SOL     OW  400   1.594   0.114   1.480
   23SOL    HW1  401   1.576   0.181   1.408
   23SOL    HW2  402   1.591   0.160   1.569
   24SOL     OW  403   0.122   0.643   0.563
   24SOL    HW1  404   0.077   0.555   0.580
   24SOL    HW2  405   0.121   0.697   0.647
   25SOL     OW  406   1.842   1.767   0.359
   25SOL    HW1  407   1.896   1.738   0.439
   25SOL    HW2  408   1.872   1.857   0.330
   26SOL     OW  409   0.027   1.596   0.117
   26SOL    HW1  410   0.008   1.500   0.138
   26SOL    HW2  411  -0.006   1.654   0.192
   27SOL     OW  412   1.689   0.922   0.612
   27SOL    HW1  413   1.784   0.893   0.620
   27SOL    HW2  414   1.681   0.987   0.537
   28SOL     OW  415   1.641   1.108   0.432
   28SOL    HW1  416   1.727   1.110   0.380
   28SOL    HW2  417   1.655   1.155   0.520
   29SOL     OW  418   0.113   0.737   1.597
   29SOL    HW1  419   0.201   0.724   1.642
   29SOL    HW2  420   0.100   0.834   1.575
   30SOL     OW  421   0.613   1.365   0.726
   30SOL    HW1  422   0.564   1.278   0.735
   30SOL    HW2  423   0.590   1.408   0.639
   31SOL     OW  424   1.293   1.228   1.423
   31SOL    HW1  425   1.330   1.155   1.365
   31SOL    HW2  426   1.345   1.233   1.508
   32SOL     OW  427   0.809   0.004   0.502
   32SOL    HW1  428   0.849   0.095   0.493
   32SOL    HW2  429   0.709   0.012   0.508
   33SOL     OW  430   0.197   0.976   1.264
   33SOL    HW1  431   0.286   0.931   1.250
   33SOL    HW2  432   0.124   0.911   1.245
   34SOL     OW  433   1.525   0.999   0.190
   34SOL    HW1  434   1.462   0.923   0.203
   34SOL    HW2  435   1.573   1.017   0.276
   35SOL     OW  436   1.187   1.792   1.616
   35SOL    HW1  437   1.211   1.852   1.540
   35SOL    HW2  438   1.194   1.697   1.586
   36SOL     OW  439   0.317   0.251   1.801
   36SOL    HW1  440   0.388   0.322   1.807
   36SOL    HW2  441   0.229   0.290   1.829
   37SOL     OW  442   1.466   1.417   0.953
   37SOL    HW1  443   1.407   1.423   1.033
   37SOL    HW2  444   1.451   1.329   0.907
   38SOL     OW  445   1.667   1.714   0.572
   38SOL    HW1  446   1.626   1.691   0.484
   38SOL    HW2  447   1.649   1.640   0.637
   39SOL     OW  448   0.598   0.729   0.270
   39SOL    HW1  449   0.622   0.798   0.202
   39SOL    HW2  450   0.520   0.762   0.324
   40SOL     OW  451   1.281   0.345   0.944
   40SOL    HW1  452   1.195   0.295   0.931
   40SOL    HW2  453   1.343   0.291   1.000
   41SOL     OW  454   1.576   1.662   0.307
   41SOL    HW1  455   1.665   1.708   0.310
   41SOL    HW2  456   1.555   1.638   0.212
   42SOL     OW  457   0.807   0.605   1.465
   42SOL    HW1  458   0.760   0.602   1.554
   42SOL    HW2  459   0.756   0.550   1.399
   43SOL     OW  460   1.394   0.469   1.674
   43SOL    HW1  461   1.374   0.512   1.762
   43SOL    HW2  462   1.472   0.407   1.683
   44SOL     OW  463   0.973   0.890   1.572
   44SOL    HW1  464   1.019   0.806   1.543
   44SOL    HW2  465   0.917   0.924   1.497
   45SOL     OW  466   0.991   0.410   1.242
   45SOL    HW1  467   0.914   0.444   1.296
   45SOL    HW2  468   0.957   0.359   1.163
   46SOL     OW  469   1.041   0.701   0.429
   46SOL    HW1  470   1.067   0.697   0.525
   46SOL    HW2  471   0.956   0.650   0.415
   47SOL     OW  472   0.076   0.811   0.789
   47SOL    HW1  473   0.175   0.799   0.798
   47SOL    HW2  474   0.052   0.906   0.810
   48SOL     OW  475   0.130   1.821   1.571
   48SOL    HW1  476   0.120   1.806   1.670
   48SOL    HW2  477   0.044   1.857   1.535
   49SOL     OW  478   0.865   0.348   0.195
   49SOL    HW1  479   0.924   0.411   0.146
   49SOL    HW2  480   0.884   0.254   0.166
   50SOL     OW  481   1.719   0.585   1.831
   50SOL    HW1  482   1.693   0.674   1.795
   50SOL    HW2  483   1.717   0.517   1.758
   51SOL     OW  484   1.362   1.144   0.545
   51SOL    HW1  485   1.445   1.115   0.497
   51SOL    HW2  486   1.313   1.211   0.489
   52SOL     OW  487   0.550   0.196   0.885
   52SOL    HW1  488   0.545   0.191   0.985
   52SOL    HW2  489   0.552   0.292   0.856
   53SOL     OW  490   1.008   1.456   0.477
   53SOL    HW1  491   0.962   1.528   0.425
   53SOL    HW2  492   1.004   1.476   0.575
   54SOL     OW  493   0.351   1.801   0.853
   54SOL    HW1  494   0.401   1.715   0.859
   54SOL    HW2  495   0.416   1.878   0.850
   55SOL     OW  496   1.795   1.066   0.873
   55SOL    HW1  497   1.733   1.051   0.797
   55SOL    HW2  498   1.743   1.077   0.958
   56SOL     OW  499   1.227   1.550   1.506
   56SOL    HW1  500   1.233   1.473   1.570
   56SOL    HW2  501   1.175   1.524   1.426
   57SOL     OW  502   0.321   0.943   0.242
   57SOL    HW1  503   0.403   0.982   0.200
   57SOL    HW2  504   0.294   0.861   0.193
   58SOL     OW  505   1.458   0.735   0.728
   58SOL    HW1  506   1.453   0.670   0.803
   58SOL    HW2  507   1.538   0.794   0.741
   59SOL     OW  508   0.461   1.266   1.727
   59SOL    HW1  509   0.411   1.267   1.641
   59SOL    HW2  510   0.398   1.248   1.803
   60SOL     OW  511   1.111   1.776   0.237
   60SOL    HW1  512   1.051   1.714   0.287
   60SOL    HW2  513   1.142   1.732   0.152
   61SOL     OW  514   0.202   0.285   1.498
   61SOL    HW1  515   0.122   0.345   1.485
   61SOL    HW2  516   0.192   0.236   1.584
   62SOL     OW  517   1.632   1.377   0.081
   62SOL    HW1  518   1.600   1.471   0.071
   62SOL    HW2  519   1.556   1.314   0.069
   63SOL     OW  520   0.464   1.743   0.323
   63SOL    HW1  521   0.497   1.782   0.409
   63SOL    HW2  522   0.540   1.736   0.258
   64SOL     OW  523   1.400   0.107   0.426
   64SOL    HW1  524   1.376   0.070   0.336
   64SOL    HW2  525   1.499   0.123   0.430
   65SOL     OW  526   0.249   1.785   1.241
   65SOL    HW1  527   0.306   1.720   1.291
   65SOL    HW2  528   0.233   1.752   1.148
   66SOL     OW  529   0.940   1.698   0.904
   66SOL    HW1  530   1.020   1.641   0.925
   66SOL    HW2  531   0.891   1.658   0.827
   67SOL     OW  532   0.382   0.700   0.480
   67SOL    HW1  533   0.427   0.610   0.477
   67SOL    HW2  534   0.288   0.689   0.513
   68SOL     OW  535   1.547   0.222   1.729
   68SOL    HW1  536   1.542   0.259   1.821
   68SOL    HW2  537   1.475   0.153   1.717
   69SOL     OW  538   0.614   0.122   0.117
   69SOL    HW1  539   0.712   0.100   0.124
   69SOL    HW2  540   0.583   0.105   0.024
   70SOL     OW  541   0.781   0.264   1.749
   70SOL    HW1  542   0.848   0.203   1.792
   70SOL    HW2  543   0.708   0.283   1.814
   71SOL     OW  544   0.888   1.514   1.195
   71SOL    HW1  545   0.865   1.489   1.101
   71SOL    HW2  546   0.949   1.445   1.234
   72SOL     OW  547   1.351   0.590   1.433
   72SOL    HW1  548   1.379   0.547   1.518
   72SOL    HW2  549   1.376   0.686   1.434
   73SOL     OW  550   0.803   1.402   0.924
   73SOL    HW1  551   0.893   1.416   0.882
   73SOL    HW2  552   0.732   1.404   0.853
   74SOL     OW  553   0.922   0.503   0.899
   74SOL    HW1  554   0.897   0.494   0.803
   74SOL    HW2  555   0.970   0.421   0.930
   75SOL     OW  556   0.539   0.064   0.512
   75SOL    HW1  557   0.458   0.065   0.570
   75SOL    HW2  558   0.542   0.147   0.457
   76SOL     OW  559   1.434   1.188   0.041
   76SOL    HW1  560   1.466   1.112   0.098
   76SOL    HW2  561   1.342   1.215   0.071
   77SOL     OW  562   0.297   0.035   0.171
   77SOL    HW1  563   0.346   0.119   0.150
   77SOL    HW2  564   0.359  -0.030   0.216
   78SOL     OW  565   0.935   0.236   0.480
   78SOL    HW1  566   0.887   0.277   0.402
   78SOL    HW2  567   1.034   0.234   0.461
   79SOL     OW  568   1.076   0.683   1.464
   79SOL    HW1  569   0.996   0.622   1.467
   79SOL    HW2  570   1.157   0.630   1.440
   80SOL     OW  571   1.227   1.570   0.793
   80SOL    HW1  572   1.248   1.644   0.728
   80SOL    HW2  573   1.295   1.570   0.866
   81SOL     OW  574   0.459   1.152   0.741
   81SOL    HW1  575   0.388   1.125   0.806
   81SOL    HW2  576   0.433   1.124   0.648
   82SOL     OW  577   1.271   1.797   0.591
   82SOL    HW1  578   1.315   1.861   0.527
   82SOL    HW2  579   1.221   1.849   0.661
   83SOL     OW  580   1.032   0.549   0.016
   83SOL    HW1  581   0.991   0.631  -0.023
   83SOL    HW2  582   1.096   0.575   0.089
   84SOL     OW  583   0.078   0.556   1.386
   84SOL    HW1  584   0.170   0.555   1.345
   84SOL    HW2  585   0.072   0.630   1.453
   85SOL     OW  586   0.561   0.222   1.147
   85SOL    HW1  587   0.599   0.138   1.184
   85SOL    HW2  588   0.473   0.241   1.191
   86SOL     OW  589   0.866   0.454   0.642
   86SOL    HW1  590   0.834   0.526   0.580
   86SOL    HW2  591   0.890   0.373   0.589
   87SOL     OW  592   1.017   0.039   0.753
   87SOL    HW1  593   0.945   0.044   0.684
   87SOL    HW2  594   0.993  -0.030   0.822
   88SOL     OW  595   1.429   1.173   0.867
   88SOL    HW1  596   1.374   1.089   0.860
   88SOL    HW2  597   1.455   1.202   0.775
   89SOL     OW  598   1.466   0.590   0.992
   89SOL    HW1  599   1.436   0.495   0.999
   89SOL    HW2  600   1.539   0.606   1.058
   90SOL     OW  601   1.857   0.833   0.377
   90SOL    HW1  602   1.899   0.769   0.441
   90SOL    HW2  603   1.819   0.782   0.299
   91SOL     OW  604   0.488   1.385   0.174
   91SOL    HW1  605   0.401   1.370   0.221
   91SOL    HW2  606   0.471   1.411   0.079
   92SOL     OW  607   1.664   1.280   0.657
   92SOL    HW1  608   1.763   1.288   0.671
   92SOL    HW2  609   1.619   1.364   0.688
   93SOL     OW  610   1.390   0.575   0.078
   93SOL    HW1  611   1.336   0.554   0.159
   93SOL    HW2  612   1.481   0.534   0.087
   94SOL     OW  613   0.527   0.256   0.328
   94SOL    HW1  614   0.554   0.197   0.253
   94SOL    HW2  615   0.527   0.351   0.297
   95SOL     OW  616   1.754   1.223   1.588
   95SOL    HW1  617   1.845   1.184   1.575
   95SOL    HW2  618   1.762   1.319   1.612
   96SOL     OW  619   1.064   1.347   1.340
   96SOL    HW1  620   0.984   1.324   1.395
   96SOL    HW2  621   1.147   1.321   1.389
   97SOL     OW  622   1.592   1.629   1.625
   97SOL    HW1  623   1.619   1.663   1.535
   97SOL    HW2  624   1.671   1.591   1.671
   98SOL     OW  625   1.111   1.195   1.100
   98SOL    HW1  626   1.071   1.239   1.181
   98SOL    HW2  627   1.070   1.232   1.017
   99SOL     OW  628   1.638   1.099   1.079
   99SOL    HW1  629   1.643   1.180   1.138
   99SOL    HW2  630   1.552   1.101   1.028
  100SOL     OW  631   0.915   0.089   1.402
  100SOL    HW1  632   0.940   0.069   1.307
  100SOL    HW2  633   0.987   0.145   1.444
  101SOL     OW  634   0.980   1.116   1.719
  101SOL    HW1  635   0.881   1.122   1.729
  101SOL    HW2  636   1.003   1.036   1.663
  102SOL     OW  637   0.705   1.050   0.368
  102SOL    HW1  638   0.691   1.057   0.467
  102SOL    HW2  639   0.789   0.999   0.350
  103SOL     OW  640   0.410   0.813   1.251
  103SOL    HW1  641   0.496   0.825   1.301
  103SOL    HW2  642   0.368   0.726   1.278
  104SOL     OW  643   1.274   0.386   1.262
  104SOL    HW1  644   1.295   0.460   1.326
  104SOL    HW2  645   1.185   0.403   1.219
  105SOL     OW  646   0.064   1.564   1.331
  105SOL    HW1  647   0.018   1.646   1.297
  105SOL    HW2  648   0.162   1.583   1.340
  106SOL     OW  649   0.367   1.100   0.501
  106SOL    HW1  650   0.360   1.183   0.445
  106SOL    HW2  651   0.371   1.020   0.441
  107SOL     OW  652   0.566   0.537   0.865
  107SOL    HW1  653   0.578   0.603   0.791
  107SOL    HW2  654   0.612   0.571   0.948
  108SOL     OW  655   1.252   1.348   0.388
  108SOL    HW1  656   1.302   1.425   0.428
  108SOL    HW2  657   1.157   1.350   0.420
  109SOL     OW  658   1.272   1.445   1.142
  109SOL    HW1  659   1.319   1.458   1.229
  109SOL    HW2  660   1.206   1.371   1.151
  110SOL     OW  661   1.582   0.639   0.472
  110SOL    HW1  662   1.551   0.700   0.545
  110SOL    HW2  663   1.632   0.691   0.403
  111SOL     OW  664   0.354   1.510   1.329
  111SOL    HW1  665   0.333   1.466   1.242
  111SOL    HW2  666   0.451   1.536   1.332
  112SOL     OW  667   0.402   0.751   1.598
  112SOL    HW1  668   0.470   0.806   1.551
  112SOL    HW2  669   0.442   0.663   1.625
  113SOL     OW  670   1.587   0.779   1.670
  113SOL    HW1  671   1.495   0.817   1.665
  113SOL    HW2  672   1.647   0.826   1.605
  114SOL     OW  673   1.013   0.105   1.770
  114SOL    HW1  674   1.019   0.190   1.718
  114SOL    HW2  675   1.045   0.029   1.713
  115SOL     OW  676   0.504   0.050   1.740
  115SOL    HW1  677   0.462  -0.007   1.670
  115SOL    HW2  678   0.438   0.119   1.772
  116SOL     OW  679   0.573   0.870   1.029
  116SOL    HW1  680   0.617   0.959   1.020
  116SOL    HW2  681   0.510   0.870   1.106
  117SOL     OW  682   1.360   0.862   1.045
  117SOL    HW1  683   1.285   0.862   0.979
  117SOL    HW2  684   1.397   0.770   1.054
  118SOL     OW  685   1.209   0.525   0.275
  118SOL    HW1  686   1.222   0.441   0.329
  118SOL    HW2  687   1.180   0.599   0.335
  119SOL     OW  688   0.307   0.213   1.231
  119SOL    HW1  689   0.284   0.250   1.321
  119SOL    HW2  690   0.277   0.118   1.225
  120SOL     OW  691   0.037   1.310   1.282
  120SOL    HW1  692   0.090   1.261   1.350
  120SOL    HW2  693   0.059   1.408   1.287
  121SOL     OW  694   0.732   0.634   1.064
  121SOL    HW1  695   0.791   0.608   0.988
  121SOL    HW2  696   0.704   0.730   1.053
  122SOL     OW  697   1.728   0.935   1.854
  122SOL    HW1  698   1.682   0.928   1.765
  122SOL    HW2  699   1.666   0.979   1.920
  123SOL     OW  700   0.307   0.063   0.618
  123SOL    HW1  701   0.296   0.157   0.651
  123SOL    HW2  702   0.302   0.000   0.695
  124SOL     OW  703   1.622   0.367   0.374
  124SOL    HW1  704   1.624   0.291   0.438
  124SOL    HW2  705   1.574   0.444   0.414
  125SOL     OW  706   1.023   0.766   0.966
  125SOL    HW1  707   1.038   0.787   1.062
  125SOL    HW2  708   0.993   0.671   0.957
  126SOL     OW  709   0.980   1.573   1.700
  126SOL    HW1  710   0.960   1.617   1.612
  126SOL    HW2  711   1.019   1.482   1.684
  127SOL     OW  712   1.859   1.518   1.605
  127SOL    HW1  713   1.873   1.545   1.510
  127SOL    HW2  714   1.942   1.540   1.658
  128SOL     OW  715   0.350   0.898   1.804
  128SOL    HW1  716   0.426   0.942   1.852
  128SOL    HW2  717   0.385   0.851   1.722
  129SOL     OW  718   1.540   0.274   0.125
  129SOL    HW1  719   1.479   0.199   0.148
  129SOL    HW2  720   1.562   0.326   0.208
  130SOL     OW  721   1.303   0.838   0.042
  130SOL    HW1  722   1.337   0.745   0.057
  130SOL    HW2  723   1.321   0.865  -0.053
  131SOL     OW  724   1.068   1.333   0.849
  131SOL    HW1  725   1.075   1.249   0.794
  131SOL    HW2  726   1.130   1.402   0.813
  132SOL     OW  727   0.319   0.810   0.949
  132SOL    HW1  728   0.412   0.846   0.954
  132SOL    HW2  729   0.313   0.725   1.001
  133SOL     OW  730   0.339   0.509   1.006
  133SOL    HW1  731   0.287   0.426   0.989
  133SOL    HW2  732   0.416   0.514   0.942
  134SOL     OW  733   1.138   0.380   1.678
  134SOL    HW1  734   1.093   0.443   1.742
  134SOL    HW2  735   1.231   0.411   1.661
  135SOL     OW  736   1.160   0.207   1.477
  135SOL    HW1  737   1.160   0.271   1.554
  135SOL    HW2  738   1.188   0.255   1.394
  136SOL     OW  739   0.008   1.326   0.200
  136SOL    HW1  740  -0.085   1.347   0.169
  136SOL    HW2  741   0.018   1.227   0.213
  137SOL     OW  742   0.088   1.801   0.927
  137SOL    HW1  743   0.046   1.715   0.900
  137SOL    HW2  744   0.182   1.804   0.893
  138SOL     OW  745   0.504   1.568   0.910
  138SOL    HW1  746   0.570   1.642   0.919
  138SOL    HW2  747   0.548   1.489   0.868
  139SOL     OW  748   1.002   0.796   1.238
  139SOL    HW1  749   1.043   0.764   1.324
  139SOL    HW2  750   0.906   0.769   1.235
  140SOL     OW  751   0.040   0.544   1.114
  140SOL    HW1  752   0.125   0.511   1.073
  140SOL    HW2  753   0.053   0.559   1.212
  141SOL     OW  754   0.189   0.520   1.722
  141SOL    HW1  755   0.248   0.480   1.652
  141SOL    HW2  756   0.131   0.591   1.681
  142SOL     OW  757   1.369   0.950   1.660
  142SOL    HW1  758   1.408   1.039   1.680
  142SOL    HW2  759   1.379   0.930   1.563
  143SOL     OW  760   0.815   0.572   0.325
  143SOL    HW1  761   0.822   0.483   0.279
  143SOL    HW2  762   0.721   0.606   0.317
  144SOL     OW  763   1.657   0.604   1.206
  144SOL    HW1  764   1.619   0.535   1.268
  144SOL    HW2  765   1.739   0.568   1.162
  145SOL     OW  766   0.252   1.564   1.744
  145SOL    HW1  767   0.222   1.621   1.820
  145SOL    HW2  768   0.245   1.467   1.770
  146SOL     OW  769   0.671   0.464   1.269
  146SOL    HW1  770   0.637   0.375   1.239
  146SOL    HW2  771   0.697   0.518   1.189
  147SOL     OW  772   0.930   1.678   1.465
  147SOL    HW1  773   0.906   1.660   1.370
  147SOL    HW2  774   0.960   1.772   1.475
  148SOL     OW  775   0.473   0.500   0.191
  148SOL    HW1  776   0.534   0.580   0.195
  148SOL    HW2  777   0.378   0.531   0.198
  149SOL     OW  778   0.159   1.137   1.466
  149SOL    HW1  779   0.181   1.076   1.542
  149SOL    HW2  780   0.169   1.088   1.380
  150SOL     OW  781   1.347   1.059   1.234
  150SOL    HW1  782   1.371   0.996   1.160
  150SOL    HW2  783   1.257   1.099   1.216
  151SOL     OW  784   1.302   0.855   0.309
  151SOL    HW1  785   1.216   0.824   0.351
  151SOL    HW2  786   1.298   0.841   0.210
  152SOL     OW  787   1.759   1.747   1.154
  152SOL    HW1  788   1.820   1.777   1.081
  152SOL    HW2  789   1.721   1.658   1.132
  153SOL     OW  790   1.252   1.731   1.128
  153SOL    HW1  791   1.336   1.736   1.074
  153SOL    HW2  792   1.229   1.635   1.146
  154SOL     OW  793   0.083   1.258   1.022
  154SOL    HW1  794   0.078   1.257   1.122
  154SOL    HW2  795   0.000   1.217   0.984
  155SOL     OW  796   0.688   1.662   1.716
  155SOL    HW1  797   0.632   1.743   1.725
  155SOL    HW2  798   0.740   1.666   1.630
  156SOL     OW  799   0.903   0.086   0.133
  156SOL    HW1  800   0.954   0.087   0.047
  156SOL    HW2  801   0.959   0.044   0.204
  157SOL     OW  802   1.726   0.135   0.523
  157SOL    HW1  803   1.799   0.118   0.456
  157SOL    HW2  804   1.695   0.048   0.561
  158SOL     OW  805   1.388   1.573   0.477
  158SOL    HW1  806   1.455   1.585   0.403
  158SOL    HW2  807   1.348   1.662   0.500
  159SOL     OW  808   0.130   1.794   1.851
  159SOL    HW1  809   0.089   1.720   1.904
  159SOL    HW2  810   0.194   1.845   1.909
  160SOL     OW  811   1.280   0.927   0.672
  160SOL    HW1  812   1.340   0.846   0.674
  160SOL    HW2  813   1.320   0.996   0.612
  161SOL     OW  814   0.830   1.273   1.422
  161SOL    HW1  815   0.825   1.306   1.517
  161SOL    HW2  816   0.744   1.292   1.376
  162SOL     OW  817   0.672   1.616   0.154
  162SOL    HW1  818   0.681   1.626   0.055
  162SOL    HW2  819   0.632   1.527   0.175
  163SOL     OW  820   1.650   1.720   1.394
  163SOL    HW1  821   1.703   1.730   1.310
  163SOL    HW2  822   1.623   1.810   1.428
  164SOL     OW  823   1.841   0.175   0.963
  164SOL    HW1  824   1.880   0.090   0.927
  164SOL    HW2  825   1.743   0.177   0.944
  165SOL     OW  826   0.263   0.326   0.720
  165SOL    HW1  827   0.184   0.377   0.686
  165SOL    HW2  828   0.254   0.311   0.818
  166SOL     OW  829   1.194   1.612   0.031
  166SOL    HW1  830   1.200   1.519   0.068
  166SOL    HW2  831   1.135   1.612  -0.049
  167SOL     OW  832   0.822   1.002   1.372
  167SOL    HW1  833   0.862   1.001   1.280
  167SOL    HW2  834   0.832   1.094   1.412
  168SOL     OW  835   0.916   0.910   0.291
  168SOL    HW1  836   0.979   0.948   0.223
  168SOL    HW2  837   0.956   0.827   0.330
  169SOL     OW  838   1.504   1.607   0.044
  169SOL    HW1  839   1.412   1.644   0.051
  169SOL    HW2  840   1.542   1.627  -0.046
  170SOL     OW  841   0.372   1.288   1.490
  170SOL    HW1  842   0.359   1.381   1.456
  170SOL    HW2  843   0.288   1.236   1.477
  171SOL     OW  844   1.614   1.292   1.289
  171SOL    HW1  845   1.674   1.295   1.369
  171SOL    HW2  846   1.539   1.356   1.302
  172SOL     OW  847   1.039   1.098   0.696
  172SOL    HW1  848   0.969   1.051   0.750
  172SOL    HW2  849   1.098   1.030   0.653
  173SOL     OW  850   1.014   0.236   0.971
  173SOL    HW1  851   1.006   0.200   0.878
  173SOL    HW2  852   1.012   0.160   1.036
  174SOL     OW  853   0.590   1.487   0.491
  174SOL    HW1  854   0.632   1.429   0.421
  174SOL    HW2  855   0.546   1.566   0.447
  175SOL     OW  856   1.709   0.385   1.381
  175SOL    HW1  857   1.782   0.454   1.385
  175SOL    HW2  858   1.737   0.310   1.322
  176SOL     OW  859   0.255   1.348   0.290
  176SOL    HW1  860   0.159   1.349   0.263
  176SOL    HW2  861   0.267   1.401   0.374
  177SOL     OW  862   0.105   1.013   1.726
  177SOL    HW1  863   0.028   0.980   1.780
  177SOL    HW2  864   0.190   0.983   1.768
  178SOL     OW  865   0.672   0.203   1.489
  178SOL    HW1  866   0.762   0.187   1.449
  178SOL    HW2  867   0.680   0.208   1.588
  179SOL     OW  868   0.075   0.345   0.033
  179SOL    HW1  869  -0.017   0.317   0.004
  179SOL    HW2  870   0.106   0.422  -0.023
  180SOL     OW  871   1.440   0.856   1.398
  180SOL    HW1  872   1.383   0.908   1.335
  180SOL    HW2  873   1.536   0.868   1.374
  181SOL     OW  874   0.072   0.166   0.318
  181SOL    HW1  875   0.055   0.249   0.264
  181SOL    HW2  876   0.162   0.129   0.296
  182SOL     OW  877   1.183   1.335   0.119
  182SOL    HW1  878   1.084   1.324   0.121
  182SOL    HW2  879   1.217   1.350   0.212
  183SOL     OW  880   0.613   0.842   1.431
  183SOL    HW1  881   0.669   0.923   1.414
  183SOL    HW2  882   0.672   0.762   1.434
  184SOL     OW  883   1.493   1.767   0.959
  184SOL    HW1  884   1.526   1.831   0.890
  184SOL    HW2  885   1.559   1.761   1.034
  185SOL     OW  886   0.716   0.565   1.708
  185SOL    HW1  887   0.735   0.630   1.782
  185SOL    HW2  888   0.776   0.485   1.717
  186SOL     OW  889   1.450   1.220   1.633
  186SOL    HW1  890   1.441   1.210   1.732
  186SOL    HW2  891   1.546   1.213   1.607
  187SOL     OW  892   0.390   1.741   1.560
  187SOL    HW1  893   0.299   1.782   1.558
  187SOL    HW2  894   0.383   1.647   1.592
  188SOL     OW  895   1.674   0.883   1.254
  188SOL    HW1  896   1.647   0.794   1.217
  188SOL    HW2  897   1.675   0.951   1.181
  189SOL     OW  898   1.225   0.325   0.449
  189SOL    HW1  899   1.290   0.251   0.438
  189SOL    HW2  900   1.245   0.375   0.533
  190SOL     OW  901   0.594   0.745   0.652
  190SOL    HW1  902   0.644   0.830   0.633
  190SOL    HW2  903   0.506   0.747   0.604
  191SOL     OW  904   1.777   0.342   1.642
  191SOL    HW1  905   1.760   0.373   1.548
  191SOL    HW2  906   1.693   0.305   1.680
  192SOL     OW  907   1.730   0.934   1.517
  192SOL    HW1  908   1.768   1.025   1.532
  192SOL    HW2  909   1.722   0.917   1.418
  193SOL     OW  910   0.859   1.374   0.016
  193SOL    HW1  911   0.813   1.389   0.104
  193SOL    HW2  912   0.903   1.459  -0.014
  194SOL     OW  913   0.661   1.790   0.953
  194SOL    HW1  914   0.615   1.878   0.940
  194SOL    HW2  915   0.760   1.802   0.946
  195SOL     OW  916   0.859   0.956   0.861
  195SOL    HW1  917   0.913   0.887   0.909
  195SOL    HW2  918   0.827   1.025   0.927
  196SOL     OW  919   1.083   0.984   0.087
  196SOL    HW1  920   1.060   1.037   0.005
  196SOL    HW2  921   1.164   0.928   0.068
  197SOL     OW  922   1.861   1.569   0.851
  197SOL    HW1  923   1.790   1.557   0.781
  197SOL    HW2  924   1.862   1.490   0.911
  198SOL     OW  925   0.221   1.314   1.844
  198SOL    HW1  926   0.156   1.241   1.823
  198SOL    HW2  927   0.225   1.328   1.942
  199SOL     OW  928   0.079   1.240   0.653
  199SOL    HW1  929   0.078   1.193   0.741
  199SOL    HW2  930   0.161   1.212   0.602
  200SOL     OW  931   0.672   1.391   1.624
  200SOL    HW1  932   0.594   1.341   1.662
  200SOL    HW2  933   0.669   1.486   1.655
  201SOL     OW  934   1.824   0.192   1.227
  201SOL    HW1  935   1.820   0.102   1.271
  201SOL    HW2  936   1.827   0.181   1.128
  202SOL     OW  937   0.428   0.424   0.520
  202SOL    HW1  938   0.458   0.352   0.458
  202SOL    HW2  939   0.389   0.384   0.603
  203SOL     OW  940   1.705   1.487   1.104
  203SOL    HW1  941   1.612   1.462   1.077
  203SOL    HW2  942   1.731   1.437   1.186
  204SOL     OW  943   0.317   0.547   1.280
  204SOL    HW1  944   0.355   0.488   1.352
  204SOL    HW2  945   0.357   0.521   1.192
  205SOL     OW  946   0.812   1.586   0.687
  205SOL    HW1  947   0.844   1.596   0.593
  205SOL    HW2  948   0.733   1.524   0.689
  206SOL     OW  949   1.424   0.214   1.112
  206SOL    HW1  950   1.476   0.149   1.167
  206SOL    HW2  951   1.375   0.277   1.173
  207SOL     OW  952   1.001   0.034   1.154
  207SOL    HW1  953   0.938  -0.038   1.123
  207SOL    HW2  954   1.094  -0.002   1.154
  208SOL     OW  955   0.770   1.330   0.301
  208SOL    HW1  956   0.724   1.243   0.318
  208SOL    HW2  957   0.861   1.327   0.342
  209SOL     OW  958   0.618   1.567   1.284
  209SOL    HW1  959   0.613   1.649   1.341
  209SOL    HW2  960   0.707   1.564   1.239
  210SOL     OW  961   1.352   0.052   0.168
  210SOL    HW1  962   1.387   0.011   0.084
  210SOL    HW2  963   1.262   0.014   0.188
  211SOL     OW  964   1.300   0.453   0.691
  211SOL    HW1  965   1.241   0.533   0.695
  211SOL    HW2  966   1.315   0.418   0.784
  212SOL     OW  967   1.593   0.221   0.882
  212SOL    HW1  968   1.509   0.220   0.936
  212SOL    HW2  969   1.595   0.304   0.826
  213SOL     OW  970   0.039   1.077   0.300
  213SOL    HW1  971   0.138   1.066   0.291
  213SOL    HW2  972  -0.001   0.991   0.332
  214SOL     OW  973   0.875   1.646   0.337
  214SOL    HW1  974   0.798   1.611   0.283
  214SOL    HW2  975   0.843   1.717   0.399
  215SOL     OW  976   0.230   0.628   1.975
  215SOL    HW1  977   0.137   0.626   2.012
  215SOL    HW2  978   0.231   0.589   1.883
  216SOL     OW  979   0.225   0.275   2.858
  216SOL    HW1  980   0.260   0.258   2.950
  216SOL    HW2  981   0.137   0.230   2.846
  217SOL     OW  982   0.019   0.368   2.509
  217SOL    HW1  983  -0.063   0.411   2.548
  217SOL    HW2  984  -0.009   0.295   2.446
  218SOL     OW  985   0.569   1.275   3.027
  218SOL    HW1  986   0.476   1.268   2.990
  218SOL    HW2  987   0.580   1.364   3.071
  219SOL     OW  988   1.555   1.511   2.565
  219SOL    HW1  989   1.498   1.495   2.646
  219SOL    HW2  990   1.496   1.521   2.485
  220SOL     OW  991   1.135   0.703   2.579
  220SOL    HW1  992   1.192   0.781   2.554
  220SOL    HW2  993   1.075   0.729   2.655
  221SOL     OW  994   1.755   0.607   2.093
  221SOL    HW1  995   1.743   0.594   1.994
  221SOL    HW2  996   1.725   0.526   2.142
  222SOL     OW  997   0.768   1.144   2.885
  222SOL    HW1  998   0.690   1.161   2.945
  222SOL    HW2  999   0.802   1.231   2.849
  223SOL     OW 1000   0.850   0.798   3.685
  223SOL    HW1 1001   0.846   0.874   3.750
  223SOL    HW2 1002   0.872   0.834   3.594
  224SOL     OW 1003   0.685   1.012   2.527
  224SOL    HW1 1004   0.754   0.996   2.597
  224SOL    HW2 1005   0.612   1.069   2.565
  225SOL     OW 1006   0.686   1.161   3.665
  225SOL    HW1 1007   0.746   1.240   3.679
  225SOL    HW2 1008   0.600   1.192   3.624
  226SOL     OW 1009   0.335   1.435   2.923
  226SOL    HW1 1010   0.257   1.404   2.870
  226SOL    HW2 1011   0.393   1.493   2.866
  227SOL     OW 1012   1.460   1.505   3.201
  227SOL    HW1 1013   1.484   1.599   3.227
  227SOL    HW2 1014   1.444   1.451   3.283
  228SOL     OW 1015   0.438   0.392   3.361
  228SOL    HW1 1016   0.520   0.336   3.370
  228SOL    HW2 1017   0.357   0.334   3.365
  229SOL     OW 1018   1.603   0.447   2.599
  229SOL    HW1 1019   1.529   0.493   2.549
  229SOL    HW2 1020   1.654   0.515   2.652
  230SOL     OW 1021   0.231   1.713   2.345
  230SOL    HW1 1022   0.265   1.790   2.399
  230SOL    HW2 1023   0.275   1.713   2.255
  231SOL     OW 1024   1.127   1.341   3.552
  231SOL    HW1 1025   1.174   1.341   3.640
  231SOL    HW2 1026   1.079   1.254   3.541
  232SOL     OW 1027   0.230   1.434   2.400
  232SOL    HW1 1028   0.204   1.530   2.400
  232SOL    HW2 1029   0.159   1.380   2.445
  233SOL     OW 1030   0.240   1.091   2.748
  233SOL    HW1 1031   0.254   1.007   2.800
  233SOL    HW2 1032   0.185   1.155   2.803
  234SOL     OW 1033   0.620   1.786   3.301
  234SOL    HW1 1034   0.528   1.769   3.336
  234SOL    HW2 1035   0.648   1.878   3.327
  235SOL     OW 1036   0.606   0.964   1.985
  235SOL    HW1 1037   0.613   1.048   1.931
  235SOL    HW2 1038   0.652   0.977   2.073
  236SOL     OW 1039   1.594   0.114   3.342
  236SOL    HW1 1040   1.576   0.181   3.270
  236SOL    HW2 1041   1.591   0.160   3.431
  237SOL     OW 1042   0.122   0.643   2.425
  237SOL    HW1 1043   0.077   0.555   2.442
  237SOL    HW2 1044   0.121   0.697   2.509
  238SOL     OW 1045   1.842   1.767   2.221
  238SOL    HW1 1046   1.896   1.738   2.301
  238SOL    HW2 1047   1.872   1.857   2.192
  239SOL     OW 1048   0.027   1.596   1.979
  239SOL    HW1 1049   0.008   1.500   2.000
  239SOL    HW2 1050  -0.006   1.654   2.054
  240SOL     OW 1051   1.689   0.922   2.474
  240SOL    HW1 1052   1.784   0.893   2.482
  240SOL    HW2 1053   1.681   0.987   2.399
  241SOL     OW 1054   1.641   1.108   2.294
  241SOL    HW1 1055   1.727   1.110   2.242
  241SOL    HW2 1056   1.655   1.155   2.382
  242SOL     OW 1057   0.113   0.737   3.459
  242SOL    HW1 1058   0.201   0.724   3.504
  242SOL    HW2 1059   0.100   0.834   3.437
  243SOL     OW 1060   0.613   1.365   2.588
  243SOL    HW1 1061   0.564   1.278   2.597
  243SOL    HW2 1062   0.590   1.408   2.501
  244SOL     OW 1063   1.293   1.228   3.285
  244SOL    HW1 1064   1.330   1.155   3.227
  244SOL    HW2 1065   1.345   1.233   3.370
  245SOL     OW 1066   0.809   0.004   2.364
  245SOL    HW1 1067   0.849   0.095   2.355
  245SOL    HW2 1068   0.709   0.012   2.370
  246SOL     OW 1069   0.197   0.976   3.126
  246SOL    HW1 1070   0.286   0.931   3.112
  246SOL    HW2 1071   0.124   0.911   3.107
  247SOL     OW 1072   1.525   0.999   2.052
  247SOL    HW1 1073   1.462   0.923   2.065
  247SOL    HW2 1074   1.573   1.017   2.138
  248SOL     OW 1075   1.187   1.792   3.478
  248SOL    HW1 1076   1.211   1.852   3.402
  248SOL    HW2 1077   1.194   1.697   3.448
  249SOL     OW 1078   0.317   0.251   3.663
  249SOL    HW1 1079   0.388   0.322   3.669
  249SOL    HW2 1080   0.229   0.290   3.691
  250SOL     OW 1081   1.466   1.417   2.815
  250SOL    HW1 1082   1.407   1.423   2.895
  250SOL    HW2 1083   1.451   1.329   2.769
  251SOL     OW 1084   1.667   1.714   2.434
  251SOL    HW1 1085   1.626   1.691   2.346
  251SOL    HW2 1086   1.649   1.640   2.499
  252SOL     OW 1087   0.598   0.729   2.132
  252SOL    HW1 1088   0.622   0.798   2.064
  252SOL    HW2 1089   0.520   0.762   2.186
  253SOL     OW 1090   1.281   0.345   2.806
  253SOL    HW1 1091   1.195   0.295   2.793
  253SOL    HW2 1092   1.343   0.291   2.862
  254SOL     OW 1093   1.576   1.662   2.169
  254SOL    HW1 1094   1.665   1.708   2.172
  254SOL    HW2 1095   1.555   1.638   2.074
  255SOL     OW 1096   0.807   0.605   3.327
  255SOL    HW1 1097   0.760   0.602   3.416
  255SOL    HW2 1098   0.756   0.550   3.261
  256SOL     OW 1099   1.394   0.469   3.536
  256SOL    HW1 1100   1.374   0.512   3.624
  256SOL    HW2 1101   1.472   0.407   3.545
  257SOL     OW 1102   0.973   0.890   3.434
  257SOL    HW1 1103   1.019   0.806   3.405
  257SOL    HW2 1104   0.917   0.924   3.359
  258SOL     OW 1105   0.991   0.410   3.104
  258SOL    HW1 1106   0.914   0.444   3.158
  258SOL    HW2 1107   0.957   0.359   3.025
  259SOL     OW 1108   1.041   0.701   2.291
  259SOL    HW1 1109   1.067   0.697   2.387
  259SOL    HW2 1110   0.956   0.650   2.277
  260SOL     OW 1111   0.076   0.811   2.651
  260SOL    HW1 1112   0.175   0.799   2.660
  260SOL    HW2 1113   0.052   0.906   2.672
  261SOL     OW 1114   0.130   1.821   3.433
  261SOL    HW1 1115   0.120   1.806   3.532
  261SOL    HW2 1116   0.044   1.857   3.397
  262SOL     OW 1117   0.865   0.348   2.057
  262SOL    HW1 1118   0.924   0.411   2.008
  262SOL    HW2 1119   0.884   0.254   2.028
  263SOL     OW 1120   1.719   0.585   3.693
  263SOL    HW1 1121   1.693   0.674   3.657
  263SOL    HW2 1122   1.717   0.517   3.620
  264SOL     OW 1123   1.362   1.144   2.407
  264SOL    HW1 1124   1.445   1.115   2.359
  264SOL    HW2 1125   1.313   1.211   2.351
  265SOL     OW 1126   0.550   0.196   2.747
  265SOL    HW1 1127   0.545   0.191   2.847
  265SOL    HW2 1128   0.552   0.292   2.718
  266SOL     OW 1129   1.008   1.456   2.339
  266SOL    HW1 1130   0.962   1.528   2.287
  266SOL    HW2 1131   1.004   1.476   2.437
  267SOL     OW 1132   0.351   1.801   2.715
  267SOL    HW1 1133   0.401   1.715   2.721
  267SOL    HW2 1134   0.416   1.878   2.712
  268SOL     OW 1135   1.795   1.066   2.735
  268SOL    HW1 1136   1.733   1.051   2.659
  268SOL    HW2 1137   1.743   1.077   2.820
  269SOL     OW 1138   1.227   1.550   3.368
  269SOL    HW1 1139   1.233   1.473   3.432
  269SOL    HW2 1140   1.175   1.524   3.288
  270SOL     OW 1141   0.321   0.943   2.104
  270SOL    HW1 1142   0.403   0.982   2.062
  270SOL    HW2 1143   0.294   0.861   2.055
  271SOL     OW 1144   1.458   0.735   2.590
  271SOL    HW1 1145   1.453   0.670   2.665
  271SOL    HW2 1146   1.538   0.794   2.603
  272SOL     OW 1147   0.461   1.266   3.589
  272SOL    HW1 1148   0.411   1.267   3.503
  272SOL    HW2 1149   0.398   1.248   3.665
  273SOL     OW 1150   1.111   1.776   2.099
  273SOL    HW1 1151   1.051   1.714   2.149
  273SOL    HW2 1152   1.142   1.732   2.014
  274SOL     OW 1153   0.202   0.285   3.360
  274SOL    HW1 1154   0.122   0.345   3.347
  274SOL    HW2 1155   0.192   0.236   3.446
  275SOL     OW 1156   1.632   1.377   1.943
  275SOL    HW1 1157   1.600   1.471   1.933
  275SOL    HW2 1158   1.556   1.314   1.931
  276SOL     OW 1159   0.464   1.743   2.185
  276SOL    HW1 1160   0.497   1.782   2.271
  276SOL    HW2 1161   0.540   1.736   2.120
  277SOL     OW 1162   1.400   0.107   2.288
  277SOL    HW1 1163   1.376   0.070   2.198
  277SOL    HW2 1164   1.499   0.123   2.292
  278SOL     OW 1165   0.249   1.785   3.103
  278SOL    HW1 1166   0.306   1.720   3.153
  278SOL    HW2 1167   0.233   1.752   3.010
  279SOL     OW 1168   0.940   1.698   2.766
  279SOL    HW1 1169   1.020   1.641   2.787
  279SOL    HW2 1170   0.891   1.658   2.689
  280SOL     OW 1171   0.382   0.700   2.342
  280SOL    HW1 1172   0.427   0.610   2.339
  280SOL    HW2 1173   0.288   0.689   2.375
  281SOL     OW 1174   1.547   0.222   3.591
  281SOL    HW1 1175   1.542   0.259   3.683
  281SOL    HW2 1176   1.475   0.153   3.579
  282SOL     OW 1177   0.614   0.122   1.979
  282SOL    HW1 1178   0.712   0.100   1.986
  282SOL    HW2 1179   0.583   0.105   1.886
  283SOL     OW 1180   0.781   0.264   3.611
  283SOL    HW1 1181   0.848   0.203   3.654
  283SOL    HW2 1182   0.708   0.283   3.676
  284SOL     OW 1183   0.888   1.514   3.057
  284SOL    HW1 1184   0.865   1.489   2.963
  284SOL    HW2 1185   0.949   1.445   3.096
  285SOL     OW 1186   1.351   0.590   3.295
  285SOL    HW1 1187   1.379   0.547   3.380
  285SOL    HW2 1188   1.376   0.686   3.296
  286SOL     OW 1189   0.803   1.402   2.786
  286SOL    HW1 1190   0.893   1.416   2.744
  286SOL    HW2 1191   0.732   1.404   2.715
  287SOL     OW 1192   0.922   0.503   2.761
  287SOL    HW1 1193   0.897   0.494   2.665
  287SOL    HW2 1194   0.970   0.421   2.792
  288SOL     OW 1195   0.539   0.064   2.374
  288SOL    HW1 1196   0.458   0.065   2.432
  288SOL    HW2 1197   0.542   0.147   2.319
  289SOL     OW 1198   1.434   1.188   1.903
  289SOL    HW1 1199   1.466   1.112   1.960
  289SOL    HW2 1200   1.342   1.215   1.933
  290SOL     OW 1201   0.297   0.035   2.033
  290SOL    HW1 1202   0.346   0.119   2.012
  290SOL    HW2 1203   0.359  -0.030   2.078
  291SOL     OW 1204   0.935   0.236   2.342
  291SOL    HW1 1205   0.887   0.277   2.264
  291SOL    HW2 1206   1.034   0.234   2.323
  292SOL     OW 1207   1.076   0.683   3.326
  292SOL    HW1 1208   0.996   0.622   3.329
  292SOL    HW2 1209   1.157   0.630   3.302
  293SOL     OW 1210   1.227   1.570   2.655
  293SOL    HW1 1211   1.248   1.644   2.590
  293SOL    HW2 1212   1.295   1.570   2.728
  294SOL     OW 1213   0.459   1.152   2.603
  294SOL    HW1 1214   0.388   1.125   2.668
  294SOL    HW2 1215   0.433   1.124   2.510
  295SOL     OW 1216   1.271   1.797   2.453
  295SOL    HW1 1217   1.315   1.861   2.389
  295SOL    HW2 1218   1.221   1.849   2.523
  296SOL     OW 1219   1.032   0.549   1.878
  296SOL    HW1 1220   0.991   0.631   1.839
  296SOL    HW2 1221   1.096   0.575   1.951
  297SOL     OW 1222   0.078   0.556   3.248
  297SOL    HW1 1223   0.170   0.555   3.207
  297SOL    HW2 1224   0.072   0.630   3.315
  298SOL     OW 1225   0.561   0.222   3.009
  298SOL    HW1 1226   0.599   0.138   3.046
  298SOL    HW2 1227   0.473   0.241   3.053
  299SOL     OW 1228   0.866   0.454   2.504
  299SOL    HW1 1229   0.834   0.526   2.442
  299SOL    HW2 1230   0.890   0.373   2.451
  300SOL     OW 1231   1.017   0.039   2.615
  300SOL    HW1 1232   0.945   0.044   2.546
  300SOL    HW2 1233   0.993  -0.030   2.684
  301SOL     OW 1234   1.429   1.173   2.729
  301SOL    HW1 1235   1.374   1.089   2.722
  301SOL    HW2 1236   1.455   1.202   2.637
  302SOL     OW 1237   1.466   0.590   2.854
  302SOL    HW1 1238   1.436   0.495   2.861
  302SOL    HW2 1239   1.539   0.606   2.920
  303SOL     OW 1240   1.857   0.833   2.239
  303SOL    HW1 1241   1.899   0.769   2.303
  303SOL    HW2 1242   1.819   0.782   2.161
  304SOL     OW 1243   0.488   1.385   2.036
  304SOL    HW1 1244   0.401   1.370   2.083
  304SOL    HW2 1245   0.471   1.411   1.941
  305SOL     OW 1246   1.664   1.280   2.519
  305SOL    HW1 1247   1.763   1.288   2.533
  305SOL    HW2 1248   1.619   1.364   2.550
  306SOL     OW 1249   1.390   0.575   1.940
  306SOL    HW1 1250   1.336   0.554   2.021
  306SOL    HW2 1251   1.481   0.534   1.949
  307SOL     OW 1252   0.527   0.256   2.190
  307SOL    HW1 1253   0.554   0.197   2.115
  307SOL    HW2 1254   0.527   0.351   2.159
  308SOL     OW 1255   1.754   1.223   3.450
  308SOL    HW1 1256   1.845   1.184   3.437
  308SOL    HW2 1257   1.762   1.319   3.474
  309SOL     OW 1258   1.064   1.347   3.202
  309SOL    HW1 1259   0.984   1.324   3.257
  309SOL    HW2 1260   1.147   1.321   3.251
  310SOL     OW 1261   1.592   1.629   3.487
  310SOL    HW1 1262   1.619   1.663   3.397
  310SOL    HW2 1263   1.671   1.591   3.533
  311SOL     OW 1264   1.111   1.195   2.962
  311SOL    HW1 1265   1.071   1.239   3.043
  311SOL    HW2 1266   1.070   1.232   2.879
  312SOL     OW 1267   1.638   1.099   2.941
  312SOL    HW1 1268   1.643   1.180   3.000
  312SOL    HW2 1269   1.552   1.101   2.890
  313SOL     OW 1270   0.915   0.089   3.264
  313SOL    HW1 1271   0.940   0.069   3.169
  313SOL    HW2 1272   0.987   0.145   3.306
  314SOL     OW 1273   0.980   1.116   3.581
  314SOL    HW1 1274   0.881   1.122   3.591
  314SOL    HW2 1275   1.003   1.036   3.525
  315SOL     OW 1276   0.705   1.050   2.230
  315SOL    HW1 1277   0.691   1.057   2.329
  315SOL    HW2 1278   0.789   0.999   2.212
  316SOL     OW 1279   0.410   0.813   3.113
  316SOL    HW1 1280   0.496   0.825   3.163
  316SOL    HW2 1281   0.368   0.726   3.140
  317SOL     OW 1282   1.274   0.386   3.124
  317SOL    HW1 1283   1.295   0.460   3.188
  317SOL    HW2 1284   1.185   0.403   3.081
  318SOL     OW 1285   0.064   1.564   3.193
  318SOL    HW1 1286   0.018   1.646   3.159
  318SOL    HW2 1287   0.162   1.583   3.202
  319SOL     OW 1288   0.367   1.100   2.363
  319SOL    HW1 1289   0.360   1.183   2.307
  319SOL    HW2 1290   0.371   1.020   2.303
  320SOL     OW 1291   0.566   0.537   2.727
  320SOL    HW1 1292   0.578   0.603   2.653
  320SOL    HW2 1293   0.612   0.571   2.810
  321SOL     OW 1294   1.252   1.348   2.250
  321SOL    HW1 1295   1.302   1.425   2.290
  321SOL    HW2 1296   1.157   1.350   2.282
  322SOL     OW 1297   1.272   1.445   3.004
  322SOL    HW1 1298   1.319   1.458   3.091
  322SOL    HW2 1299   1.206   1.371   3.013
  323SOL     OW 1300   1.582   0.639   2.334
  323SOL    HW1 1301   1.551   0.700   2.407
  323SOL    HW2 1302   1.632   0.691   2.265
  324SOL     OW 1303   0.354   1.510   3.191
  324SOL    HW1 1304   0.333   1.466   3.104
  324SOL    HW2 1305   0.451   1.536   3.194
  325SOL     OW 1306   0.402   0.751   3.460
  325SOL    HW1 1307   0.470   0.806   3.413
  325SOL    HW2 1308   0.442   0.663   3.487
  326SOL     OW 1309   1.587   0.779   3.532
  326SOL    HW1 1310   1.495   0.817   3.527
  326SOL    HW2 1311   1.647   0.826   3.467
  327SOL     OW 1312   1.013   0.105   3.632
  327SOL    HW1 1313   1.019   0.190   3.580
  327SOL    HW2 1314   1.045   0.029   3.575
  328SOL     OW 1315   0.504   0.050   3.602
  328SOL    HW1 1316   0.462  -0.007   3.532
  328SOL    HW2 1317   0.438   0.119   3.634
  329SOL     OW 1318   0.573   0.870   2.891
  329SOL    HW1 1319   0.617   0.959   2.882
  329SOL    HW2 1320   0.510   0.870   2.968
  330SOL     OW 1321   1.360   0.862   2.907
  330SOL    HW1 1322   1.285   0.862   2.841
  330SOL    HW2 1323   1.397   0.770   2.916
  331SOL     OW 1324   1.209   0.525   2.137
  331SOL    HW1 1325   1.222   0.441   2.191
  331SOL    HW2 1326   1.180   0.599   2.197
  332SOL     OW 1327   0.307   0.213   3.093
  332SOL    HW1 1328   0.284   0.250   3.183
  332SOL    HW2 1329   0.277   0.118   3.087
  333SOL     OW 1330   0.037   1.310   3.144
  333SOL    HW1 1331   0.090   1.261   3.212
  333SOL    HW2 1332   0.059   1.408   3.149
  334SOL     OW 1333   0.732   0.634   2.926
  334SOL    HW1 1334   0.791   0.608   2.850
  334SOL    HW2 1335   0.704   0.730   2.915
  335SOL     OW 1336   1.728   0.935   3.716
  335SOL    HW1 1337   1.682   0.928   3.627
  335SOL    HW2 1338   1.666   0.979   3.782
  336SOL     OW 1339   0.307   0.063   2.480
  336SOL    HW1 1340   0.296   0.157   2.513
  336SOL    HW2 1341   0.302   0.000   2.557
  337SOL     OW 1342   1.622   0.367   2.236
  337SOL    HW1 1343   1.624   0.291   2.300
  337SOL    HW2 1344   1.574   0.444   2.276
  338SOL     OW 1345   1.023   0.766   2.828
  338SOL    HW1 1346   1.038   0.787   2.924
  338SOL    HW2 1347   0.993   0.671   2.819
  339SOL     OW 1348   0.980   1.573   3.562
  339SOL    HW1 1349   0.960   1.617   3.474
  339SOL    HW2 1350   1.019   1.482   3.546
  340SOL     OW 1351   1.859   1.518   3.467
  340SOL    HW1 1352   1.873   1.545   3.372
  340SOL    HW2 1353   1.942   1.540   3.520
  341SOL     OW 1354   0.350   0.898   3.666
  341SOL    HW1 1355   0.426   0.942   3.714
  341SOL    HW2 1356   0.385   0.851   3.584
  342SOL     OW 1357   1.540   0.274   1.987
  342SOL    HW1 1358   1.479   0.199   2.010
  342SOL    HW2 1359   1.562   0.326   2.070
  343SOL     OW 1360   1.303   0.838   1.904
  343SOL    HW1 1361   1.337   0.745   1.919
  343SOL    HW2 1362   1.321   0.865   1.809
  344SOL     OW 1363   1.068   1.333   2.711
  344SOL    HW1 1364   1.075   1.249   2.656
  344SOL    HW2 1365   1.130   1.402   2.675
  345SOL     OW 1366   0.319   0.810   2.811
  345SOL    HW1 1367   0.412   0.846   2.816
  345SOL    HW2 1368   0.313   0.725   2.863
  346SOL     OW 1369   0.339   0.509   2.868
  346SOL    HW1 1370   0.287   0.426   2.851
  346SOL    HW2 1371   0.416   0.514   2.804
  347SOL     OW 1372   1.138   0.380   3.540
  347SOL    HW1 1373   1.093   0.443   3.604
  347SOL    HW2 1374   1.231   0.411   3.523
  348SOL     OW 1375   1.160   0.207   3.339
  348SOL    HW1 1376   1.160   0.271   3.416
  348SOL    HW2 1377   1.188   0.255   3.256
  349SOL     OW 1378   0.008   1.326   2.062
  349SOL    HW1 1379  -0.085   1.347   2.031
  349SOL    HW2 1380   0.018   1.227   2.075
  350SOL     OW 1381   0.088   1.801   2.789
  350SOL    HW1 1382   0.046   1.715   2.762
  350SOL    HW2 1383   0.182   1.804   2.755
  351SOL     OW 1384   0.504   1.568   2.772
  351SOL    HW1 1385   0.570   1.642   2.781
  351SOL    HW2 1386   0.548   1.489   2.730
  352SOL     OW 1387   1.002   0.796   3.100
  352SOL    HW1 1388   1.043   0.764   3.186
  352SOL    HW2 1389   0.906   0.769   3.097
  353SOL     OW 1390   0.040   0.544   2.976
  353SOL    HW1 1391   0.125   0.511   2.935
  353SOL    HW2 1392   0.053   0.559   3.074
  354SOL     OW 1393   0.189   0.520   3.584
  354SOL    HW1 1394   0.248   0.480   3.514
  354SOL    HW2 1395   0.131   0.591   3.543
  355SOL     OW 1396   1.369   0.950   3.522
  355SOL    HW1 1397   1.408   1.039   3.542
  355SOL    HW2 1398   1.379   0.930   3.425
  356SOL     OW 1399   0.815   0.572   2.187
  356SOL    HW1 1400   0.822   0.483   2.141
  356SOL    HW2 1401   0.721   0.606   2.179
  357SOL     OW 1402   1.657   0.604   3.068
  357SOL    HW1 1403   1.619   0.535   3.130
  357SOL    HW2 1404   1.739   0.568   3.024
  358SOL     OW 1405   0.252   1.564   3.606
  358SOL    HW1 1406   0.222   1.621   3.682
  358SOL    HW2 1407   0.245   1.467   3.632
  359SOL     OW 1408   0.671   0.464   3.131
  359SOL    HW1 1409   0.637   0.375   3.101
  359SOL    HW2 1410   0.697   0.518   3.051
  360SOL     OW 1411   0.930   1.678   3.327
  360SOL    HW1 1412   0.906   1.660   3.232
  360SOL    HW2 1413   0.960   1.772   3.337
  361SOL     OW 1414   0.473   0.500   2.053
  361SOL    HW1 1415   0.534   0.580   2.057
  361SOL    HW2 1416   0.378   0.531   2.060
  362SOL     OW 1417   0.159   1.137   3.328
  362SOL    HW1 1418   0.181   1.076   3.404
  362SOL    HW2 1419   0.169   1.088   3.242
  363SOL     OW 1420   1.347   1.059   3.096
  363SOL    HW1 1421   1.371   0.996   3.022
  363SOL    HW2 1422   1.257   1.099   3.078
  364SOL     OW 1423   1.302   0.855   2.171
  364SOL    HW1 1424   1.216   0.824   2.213
  364SOL    HW2 1425   1.298   0.841   2.072
  365SOL     OW 1426   1.759   1.747   3.016
  365SOL    HW1 1427   1.820   1.777   2.943
  365SOL    HW2 1428   1.721   1.658   2.994
  366SOL     OW 1429   1.252   1.731   2.990
  366SOL    HW1 1430   1.336   1.736   2.936
  366SOL    HW2 1431   1.229   1.635   3.008
  367SOL     OW 1432   0.083   1.258   2.884
  367SOL    HW1 1433   0.078   1.257   2.984
  367SOL    HW2 1434   0.000   1.217   2.846
  368SOL     OW 1435   0.688   1.662   3.578
  368SOL    HW1 1436   0.632   1.743   3.587
  368SOL    HW2 1437   0.740   1.666   3.492
  369SOL     OW 1438   1.726   0.135   2.385
  369SOL    HW1 1439   1.799   0.118   2.318
  369SOL    HW2 1440   1.695   0.048   2.423
  370SOL     OW 1441   1.388   1.573   2.339
  370SOL    HW1 1442   1.455   1.585   2.265
  370SOL    HW2 1443   1.348   1.662   2.362
  371SOL     OW 1444   0.130   1.794   3.713
  371SOL    HW1 1445   0.089   1.720   3.766
  371SOL    HW2 1446   0.194   1.845   3.771
  372SOL     OW 1447   1.280   0.927   2.534
  372SOL    HW1 1448   1.340   0.846   2.536
  372SOL    HW2 1449   1.320   0.996   2.474
  373SOL     OW 1450   0.830   1.273   3.284
  373SOL    HW1 1451   0.825   1.306   3.379
  373SOL    HW2 1452   0.744   1.292   3.238
  374SOL     OW 1453   0.672   1.616   2.016
  374SOL    HW1 1454   0.681   1.626   1.917
  374SOL    HW2 1455   0.632   1.527   2.037
  375SOL     OW 1456   1.650   1.720   3.256
  375SOL    HW1 1457   1.703   1.730   3.172
  375SOL    HW2 1458   1.623   1.810   3.290
  376SOL     OW 1459   1.841   0.175   2.825
  376SOL    HW1 1460   1.880   0.090   2.789
  376SOL    HW2 1461   1.743   0.177   2.806
  377SOL     OW 1462   0.263   0.326   2.582
  377SOL    HW1 1463   0.184   0.377   2.548
  377SOL    HW2 1464   0.254   0.311   2.680
  378SOL     OW 1465   1.194   1.612   1.893
  378SOL    HW1 1466   1.200   1.519   1.930
  378SOL    HW2 1467   1.135   1.612   1.813
  379SOL     OW 1468   0.822   1.002   3.234
  379SOL    HW1 1469   0.862   1.001   3.142
  379SOL    HW2 1470   0.832   1.094   3.274
  380SOL     OW 1471   0.916   0.910   2.153
  380SOL    HW1 1472   0.979   0.948   2.085
  380SOL    HW2 1473   0.956   0.827   2.192
  381SOL     OW 1474   1.504   1.607   1.906
  381SOL    HW1 1475   1.412   1.644   1.913
  381SOL    HW2 1476   1.542   1.627   1.816
  382SOL     OW 1477   0.372   1.288   3.352
  382SOL    HW1 1478   0.359   1.381   3.318
  382SOL    HW2 1479   0.288   1.236   3.339
  383SOL     OW 1480   1.614   1.292   3.151
  383SOL    HW1 1481   1.674   1.295   3.231
  383SOL    HW2 1482   1.539   1.356   3.164
  384SOL     OW 1483   1.039   1.098   2.558
  384SOL    HW1 1484   0.969   1.051   2.612
  384SOL    HW2 1485   1.098   1.030   2.515
  385SOL     OW 1486   1.014   0.236   2.833
  385SOL    HW1 1487   1.006   0.200   2.740
  385SOL    HW2 1488   1.012   0.160   2.898
  386SOL     OW 1489   0.590   1.487   2.353
  386SOL    HW1 1490   0.632   1.429   2.283
  386SOL    HW2 1491   0.546   1.566   2.309
  387SOL     OW 1492   1.709   0.385   3.243
  387SOL    HW1 1493   1.782   0.454   3.247
  387SOL    HW2 1494   1.737   0.310   3.184
  388SOL     OW 1495   0.255   1.348   2.152
  388SOL    HW1 1496   0.159   1.349   2.125
  388SOL    HW2 1497   0.267   1.401   2.236
  389SOL     OW 1498   0.105   1.013   3.588
  389SOL    HW1 1499   0.028   0.980   3.642
  389SOL    HW2 1500   0.190   0.983   3.630
  390SOL     OW 1501   0.672   0.203   3.351
  390SOL    HW1 1502   0.762   0.187   3.311
  390SOL    HW2 1503   0.680   0.208   3.450
  391SOL     OW 1504   0.075   0.345   1.895
  391SOL    HW1 1505  -0.017   0.317   1.866
  391SOL    HW2 1506   0.106   0.422   1.839
  392SOL     OW 1507   1.440   0.856   3.260
  392SOL    HW1 1508   1.383   0.908   3.197
  392SOL    HW2 1509   1.536   0.868   3.236
  393SOL     OW 1510   0.072   0.166   2.180
  393SOL    HW1 1511   0.055   0.249   2.126
  393SOL    HW2 1512   0.162   0.129   2.158
  394SOL     OW 1513   1.183   1.335   1.981
  394SOL    HW1 1514   1.084   1.324   1.983
  394SOL    HW2 1515   1.217   1.350   2.074
  395SOL     OW 1516   0.613   0.842   3.293
  395SOL    HW1 1517   0.669   0.923   3.276
  395SOL    HW2 1518   0.672   0.762   3.296
  396SOL     OW 1519   1.493   1.767   2.821
  396SOL    HW1 1520   1.526   1.831   2.752
  396SOL    HW2 1521   1.559   1.761   2.896
  397SOL     OW 1522   0.716   0.565   3.570
  397SOL    HW1 1523   0.735   0.630   3.644
  397SOL    HW2 1524   0.776   0.485   3.579
  398SOL     OW 1525   1.450   1.220   3.495
  398SOL    HW1 1526   1.441   1.210   3.594
  398SOL    HW2 1527   1.546   1.213   3.469
  399SOL     OW 1528   0.390   1.741   3.422
  399SOL    HW1 1529   0.299   1.782   3.420
  399SOL    HW2 1530   0.383   1.647   3.454
  400SOL     OW 1531   1.674   0.883   3.116
  400SOL    HW1 1532   1.647   0.794   3.079
  400SOL    HW2 1533   1.675   0.951   3.043
  401SOL     OW 1534   1.225   0.325   2.311
  401SOL    HW1 1535   1.290   0.251   2.300
  401SOL    HW2 1536   1.245   0.375   2.395
  402SOL     OW 1537   0.594   0.745   2.514
  402SOL    HW1 1538   0.644   0.830   2.495
  402SOL    HW2 1539   0.506   0.747   2.466
  403SOL     OW 1540   1.777   0.342   3.504
  403SOL    HW1 1541   1.760   0.373   3.410
  403SOL    HW2 1542   1.693   0.305   3.542
  404SOL     OW 1543   1.730   0.934   3.379
  404SOL    HW1 1544   1.768   1.025   3.394
  404SOL    HW2 1545   1.722   0.917   3.280
  405SOL     OW 1546   0.859   1.374   1.878
  405SOL    HW1 1547   0.813   1.389   1.966
  405SOL    HW2 1548   0.903   1.459   1.848
  406SOL     OW 1549   0.661   1.790   2.815
  406SOL    HW1 1550   0.615   1.878   2.802
  406SOL    HW2 1551   0.760   1.802   2.808
  407SOL     OW 1552   0.859   0.956   2.723
  407SOL    HW1 1553   0.913   0.887   2.771
  407SOL    HW2 1554   0.827   1.025   2.789
  408SOL     OW 1555   1.083   0.984   1.949
  408SOL    HW1 1556   1.060   1.037   1.867
  408SOL    HW2 1557   1.164   0.928   1.930
  409SOL     OW 1558   1.861   1.569   2.713
  409SOL    HW1 1559   1.790   1.557   2.643
  409SOL    HW2 1560   1.862   1.490   2.773
  410SOL     OW 1561   0.221   1.314   3.706
  410SOL    HW1 1562   0.156   1.241   3.685
  410SOL    HW2 1563   0.225   1.328   3.804
  411SOL     OW 1564   0.079   1.240   2.515
  411SOL    HW1 1565   0.078   1.193   2.603
  411SOL    HW2 1566   0.161   1.212   2.464
  412SOL     OW 1567   0.672   1.391   3.486
  412SOL    HW1 1568   0.594   1.341   3.524
  412SOL    HW2 1569   0.669   1.486   3.517
  413SOL     OW 1570   1.824   0.192   3.089
  413SOL    HW1 1571   1.820   0.102   3.133
  413SOL    HW2 1572   1.827   0.181   2.990
  414SOL     OW 1573   0.428   0.424   2.382
  414SOL    HW1 1574   0.458   0.352   2.320
  414SOL    HW2 1575   0.389   0.384   2.465
  415SOL     OW 1576   1.705   1.487   2.966
  415SOL    HW1 1577   1.612   1.462   2.939
  415SOL    HW2 1578   1.731   1.437   3.048
  416SOL     OW 1579   0.317   0.547   3.142
  416SOL    HW1 1580   0.355   0.488   3.214
  416SOL    HW2 1581   0.357   0.521   3.054
  417SOL     OW 1582   0.812   1.586   2.549
  417SOL    HW1 1583   0.844   1.596   2.455
  417SOL    HW2 1584   0.733   1.524   2.551
  418SOL     OW 1585   1.424   0.214   2.974
  418SOL    HW1 1586   1.476   0.149   3.029
  418SOL    HW2 1587   1.375   0.277   3.035
  419SOL     OW 1588   1.001   0.034   3.016
  419SOL    HW1 1589   0.938  -0.038   2.985
  419SOL    HW2 1590   1.094  -0.002   3.016
  420SOL     OW 1591   0.770   1.330   2.163
  420SOL    HW1 1592   0.724   1.243   2.180
  420SOL    HW2 1593   0.861   1.327   2.204
  421SOL     OW 1594   0.618   1.567   3.146
  421SOL    HW1 1595   0.613   1.649   3.203
  421SOL    HW2 1596   0.707   1.564   3.101
  422SOL     OW 1597   1.352   0.052   2.030
  422SOL    HW1 1598   1.387   0.011   1.946
  422SOL    HW2 1599   1.262   0.014   2.050
  423SOL     OW 1600   1.300   0.453   2.553
  423SOL    HW1 1601   1.241   0.533   2.557
  423SOL    HW2 1602   1.315   0.418   2.646
  424SOL     OW 1603   1.593   0.221   2.744
  424SOL    HW1 1604   1.509   0.220   2.798
  424SOL    HW2 1605   1.595   0.304   2.688
  425SOL     OW 1606   0.039   1.077   2.162
  425SOL    HW1 1607   0.138   1.066   2.153
  425SOL    HW2 1608  -0.001   0.991   2.194
  426SOL     OW 1609   0.875   1.646   2.199
  426SOL    HW1 1610   0.798   1.611   2.145
  426SOL    HW2 1611   0.843   1.717   2.261
  427SOL     OW 1612   0.230   0.628   3.837
  427SOL    HW1 1613   0.137   0.626   3.874
  427SOL    HW2 1614   0.231   0.589   3.745
  428SOL     OW 1615   0.225   0.275   4.720
  428SOL    HW1 1616   0.260   0.258   4.812
  428SOL    HW2 1617   0.137   0.230   4.708
  429SOL     OW 1618   0.019   0.368   4.371
  429SOL    HW1 1619  -0.063   0.411   4.410
  429SOL    HW2 1620  -0.009   0.295   4.308
  430SOL     OW 1621   0.569   1.275   4.889
  430SOL    HW1 1622   0.476   1.268   4.852
  430SOL    HW2 1623   0.580   1.364   4.933
  431SOL     OW 1624   1.555   1.511   4.427
  431SOL    HW1 1625   1.498   1.495   4.508
  431SOL    HW2 1626   1.496   1.521   4.347
  432SOL     OW 1627   1.135   0.703   4.441
  432SOL    HW1 1628   1.192   0.781   4.416
  432SOL    HW2 1629   1.075   0.729   4.517
  433SOL     OW 1630   1.755   0.607   3.955
  433SOL    HW1 1631   1.743   0.594   3.856
  433SOL    HW2 1632   1.725   0.526   4.004
  434SOL     OW 1633   0.768   1.144   4.747
  434SOL    HW1 1634   0.690   1.161   4.807
  434SOL    HW2 1635   0.802   1.231   4.711
  435SOL     OW 1636   0.850   0.798   5.547
  435SOL    HW1 1637   0.846   0.874   5.612
  435SOL    HW2 1638   0.872   0.834   5.456
  436SOL     OW 1639   0.685   1.012   4.389
  436SOL    HW1 1640   0.754   0.996   4.459
  436SOL    HW2 1641   0.612   1.069   4.427
  437SOL     OW 1642   0.686   1.161   5.527
  437SOL    HW1 1643   0.746   1.240   5.541
  437SOL    HW2 1644   0.600   1.192   5.486
  438SOL     OW 1645   0.335   1.435   4.785
  438SOL    HW1 1646   0.257   1.404   4.732
  438SOL    HW2 1647   0.393   1.493   4.728
  439SOL     OW 1648   1.460   1.505   5.063
  439SOL    HW1 1649   1.484   1.599   5.089
  439SOL    HW2 1650   1.444   1.451   5.145
  440SOL     OW 1651   0.438   0.392   5.223
  440SOL    HW1 1652   0.520   0.336   5.232
  440SOL    HW2 1653   0.357   0.334   5.227
  441SOL     OW 1654   1.603   0.447   4.461
  441SOL    HW1 1655   1.529   0.493   4.411
  441SOL    HW2 1656   1.654   0.515   4.514
  442SOL     OW 1657   0.231   1.713   4.207
  442SOL    HW1 1658   0.265   1.790   4.261
  442SOL    HW2 1659   0.275   1.713   4.117
  443SOL     OW 1660   1.127   1.341   5.414
  443SOL    HW1 1661   1.174   1.341   5.502
  443SOL    HW2 1662   1.079   1.254   5.403
  444SOL     OW 1663   0.230   1.434   4.262
  444SOL    HW1 1664   0.204   1.530   4.262
  444SOL    HW2 1665   0.159   1.380   4.307
  445SOL     OW 1666   0.240   1.091   4.610
  445SOL    HW1 1667   0.254   1.007   4.662
  445SOL    HW2 1668   0.185   1.155   4.665
  446SOL     OW 1669   0.620   1.786   5.163
  446SOL    HW1 1670   0.528   1.769   5.198
  446SOL    HW2 1671   0.648   1.878   5.189
  447SOL     OW 1672   0.606   0.964   3.847
  447SOL    HW1 1673   0.613   1.048   3.793
  447SOL    HW2 1674   0.652   0.977   3.935
  448SOL     OW 1675   1.594   0.114   5.204
  448SOL    HW1 1676   1.576   0.181   5.132
  448SOL    HW2 1677   1.591   0.160   5.293
  449SOL     OW 1678   0.122   0.643   4.287
  449SOL    HW1 1679   0.077   0.555   4.304
  449SOL    HW2 1680   0.121   0.697   4.371
  450SOL     OW 1681   1.842   1.767   4.083
  450SOL    HW1 1682   1.896   1.738   4.163
  450SOL    HW2 1683   1.872   1.857   4.054
  451SOL     OW 1684   0.027   1.596   3.841
  451SOL    HW1 1685   0.008   1.500   3.862
  451SOL    HW2 1686  -0.006   1.654   3.916
  452SOL     OW 1687   1.689   0.922   4.336
  452SOL    HW1 1688   1.784   0.893   4.344
  452SOL    HW2 1689   1.681   0.987   4.261
  453SOL     OW 1690   1.641   1.108   4.156
  453SOL    HW1 1691   1.727   1.110   4.104
  453SOL    HW2 1692   1.655   1.155   4.244
  454SOL     OW 1693   0.113   0.737   5.321
  454SOL    HW1 1694   0.201   0.724   5.366
  454SOL    HW2 1695   0.100   0.834   5.299
  455SOL     OW 1696   0.613   1.365   4.450
  455SOL    HW1 1697   0.564   1.278   4.459
  455SOL    HW2 1698   0.590   1.408   4.363
  456SOL     OW 1699   1.293   1.228   5.147
  456SOL    HW1 1700   1.330   1.155   5.089
  456SOL    HW2 1701   1.345   1.233   5.232
  457SOL     OW 1702   0.809   0.004   4.226
  457SOL    HW1 1703   0.849   0.095   4.217
  457SOL    HW2 1704   0.709   0.012   4.232
  458SOL     OW 1705   0.197   0.976   4.988
  458SOL    HW1 1706   0.286   0.931   4.974
  458SOL    HW2 1707   0.124   0.911   4.969
  459SOL     OW 1708   1.525   0.999   3.914
  459SOL    HW1 1709   1.462   0.923   3.927
  459SOL    HW2 1710   1.573   1.017   4.000
  460SOL     OW 1711   1.187   1.792   5.340
  460SOL    HW1 1712   1.211   1.852   5.264
  460SOL    HW2 1713   1.194   1.697   5.310
  461SOL     OW 1714   0.317   0.251   5.525
  461SOL    HW1 1715   0.388   0.322   5.531
  461SOL    HW2 1716   0.229   0.290   5.553
  462SOL     OW 1717   1.466   1.417   4.677
  462SOL    HW1 1718   1.407   1.423   4.757
  462SOL    HW2 1719   1.451   1.329   4.631
  463SOL     OW 1720   1.667   1.714   4.296
  463SOL    HW1 1721   1.626   1.691   4.208
  463SOL    HW2 1722   1.649   1.640   4.361
  464SOL     OW 1723   0.598   0.729   3.994
  464SOL    HW1 1724   0.622   0.798   3.926
  464SOL    HW2 1725   0.520   0.762   4.048
  465SOL     OW 1726   1.281   0.345   4.668
  465SOL    HW1 1727   1.195   0.295   4.655
  465SOL    HW2 1728   1.343   0.291   4.724
  466SOL     OW 1729   1.576   1.662   4.031
  466SOL    HW1 1730   1.665   1.708   4.034
  466SOL    HW2 1731   1.555   1.638   3.936
  467SOL     OW 1732   0.807   0.605   5.189
  467SOL    HW1 1733   0.760   0.602   5.278
  467SOL    HW2 1734   0.756   0.550   5.123
  468SOL     OW 1735   1.394   0.469   5.398
  468SOL    HW1 1736   1.374   0.512   5.486
  468SOL    HW2 1737   1.472   0.407   5.407
  469SOL     OW 1738   0.973   0.890   5.296
  469SOL    HW1 1739   1.019   0.806   5.267
  469SOL    HW2 1740   0.917   0.924   5.221
  470SOL     OW 1741   0.991   0.410   4.966
  470SOL    HW1 1742   0.914   0.444   5.020
  470SOL    HW2 1743   0.957   0.359   4.887
  471SOL     OW 1744   1.041   0.701   4.153
  471SOL    HW1 1745   1.067   0.697   4.249
  471SOL    HW2 1746   0.956   0.650   4.139
  472SOL     OW 1747   0.076   0.811   4.513
  472SOL    HW1 1748   0.175   0.799   4.522
  472SOL    HW2 1749   0.052   0.906   4.534
  473SOL     OW 1750   0.130   1.821   5.295
  473SOL    HW1 1751   0.120   1.806   5.394
  473SOL    HW2 1752   0.044   1.857   5.259
  474SOL     OW 1753   0.865   0.348   3.919
  474SOL    HW1 1754   0.924   0.411   3.870
  474SOL    HW2 1755   0.884   0.254   3.890
  475SOL     OW 1756   1.719   0.585   5.555
  475SOL    HW1 1757   1.693   0.674   5.519
  475SOL    HW2 1758   1.717   0.517   5.482
  476SOL     OW 1759   1.362   1.144   4.269
  476SOL    HW1 1760   1.445   1.115   4.221
  476SOL    HW2 1761   1.313   1.211   4.213
  477SOL     OW 1762   0.550   0.196   4.609
  477SOL    HW1 1763   0.545   0.191   4.709
  477SOL    HW2 1764   0.552   0.292   4.580
  478SOL     OW 1765   1.008   1.456   4.201
  478SOL    HW1 1766   0.962   1.528   4.149
  478SOL    HW2 1767   1.004   1.476   4.299
  479SOL     OW 1768   0.351   1.801   4.577
  479SOL    HW1 1769   0.401   1.715   4.583
  479SOL    HW2 1770   0.416   1.878   4.574
  480SOL     OW 1771   1.795   1.066   4.597
  480SOL    HW1 1772   1.733   1.051   4.521
  480SOL    HW2 1773   1.743   1.077   4.682
  481SOL     OW 1774   1.227   1.550   5.230
  481SOL    HW1 1775   1.233   1.473   5.294
  481SOL    HW2 1776   1.175   1.524   5.150
  482SOL     OW 1777   0.321   0.943   3.966
  482SOL    HW1 1778   0.403   0.982   3.924
  482SOL    HW2 1779   0.294   0.861   3.917
  483SOL     OW 1780   1.458   0.735   4.452
  483SOL    HW1 1781   1.453   0.670   4.527
  483SOL    HW2 1782   1.538   0.794   4.465
  484SOL     OW 1783   0.461   1.266   5.451
  484SOL    HW1 1784   0.411   1.267   5.365
  484SOL    HW2 1785   0.398   1.248   5.527
  485SOL     OW 1786   1.111   1.776   3.961
  485SOL    HW1 1787   1.051   1.714   4.011
  485SOL    HW2 1788   1.142   1.732   3.876
  486SOL     OW 1789   0.202   0.285   5.222
  486SOL    HW1 1790   0.122   0.345   5.209
  486SOL    HW2 1791   0.192   0.236   5.308
  487SOL     OW 1792   1.632   1.377   3.805
  487SOL    HW1 1793   1.600   1.471   3.795
  487SOL    HW2 1794   1.556   1.314   3.793
  488SOL     OW 1795   0.464   1.743   4.047
  488SOL    HW1 1796   0.497   1.782   4.133
  488SOL    HW2 1797   0.540   1.736   3.982
  489SOL     OW 1798   1.400   0.107   4.150
  489SOL    HW1 1799   1.376   0.070   4.060
  489SOL    HW2 1800   1.499   0.123   4.154
  490SOL     OW 1801   0.249   1.785   4.965
  490SOL    HW1 1802   0.306   1.720   5.015
  490SOL    HW2 1803   0.233   1.752   4.872
  491SOL     OW 1804   0.940   1.698   4.628
  491SOL    HW1 1805   1.020   1.641   4.649
  491SOL    HW2 1806   0.891   1.658   4.551
  492SOL     OW 1807   0.382   0.700   4.204
  492SOL    HW1 1808   0.427   0.610   4.201
  492SOL    HW2 1809   0.288   0.689   4.237
  493SOL     OW 1810   1.547   0.222   5.453
  493SOL    HW1 1811   1.542   0.259   5.545
  493SOL    HW2 1812   1.475   0.153   5.441
  494SOL     OW 1813   0.614   0.122   3.841
  494SOL    HW1 1814   0.712   0.100   3.848
  494SOL    HW2 1815   0.583   0.105   3.748
  495SOL     OW 1816   0.781   0.264   5.473
  495SOL    HW1 1817   0.848   0.203   5.516
  495SOL    HW2 1818   0.708   0.283   5.538
  496SOL     OW 1819   0.888   1.514   4.919
  496SOL    HW1 1820   0.865   1.489   4.825
  496SOL    HW2 1821   0.949   1.445   4.958
  497SOL     OW 1822   1.351   0.590   5.157
  497SOL    HW1 1823   1.379   0.547   5.242
  497SOL    HW2 1824   1.376   0.686   5.158
  498SOL     OW 1825   0.803   1.402   4.648
  498SOL    HW1 1826   0.893   1.416   4.606
  498SOL    HW2 1827   0.732   1.404   4.577
  499SOL     OW 1828   0.922   0.503   4.623
  499SOL    HW1 1829   0.897   0.494   4.527
  499SOL    HW2 1830   0.970   0.421   4.654
  500SOL     OW 1831   0.539   0.064   4.236
  500SOL    HW1 1832   0.458   0.065   4.294
  500SOL    HW2 1833   0.542   0.147   4.181
  501SOL     OW 1834   1.434   1.188   3.765
  501SOL    HW1 1835   1.466   1.112   3.822
  501SOL    HW2 1836   1.342   1.215   3.795
  502SOL     OW 1837   0.297   0.035   3.895
  502SOL    HW1 1838   0.346   0.119   3.874
  502SOL    HW2 1839   0.359  -0.030   3.940
  503SOL     OW 1840   0.935   0.236   4.204
  503SOL    HW1 1841   0.887   0.277   4.126
  503SOL    HW2 1842   1.034   0.234   4.185
  504SOL     OW 1843   1.076   0.683   5.188
  504SOL    HW1 1844   0.996   0.622   5.191
  504SOL    HW2 1845   1.157   0.630   5.164
  505SOL     OW 1846   1.227   1.570   4.517
  505SOL    HW1 1847   1.248   1.644   4.452
  505SOL    HW2 1848   1.295   1.570   4.590
  506SOL     OW 1849   0.459   1.152   4.465
  506SOL    HW1 1850   0.388   1.125   4.530
  506SOL    HW2 1851   0.433   1.124   4.372
  507SOL     OW 1852   1.271   1.797   4.315
  507SOL    HW1 1853   1.315   1.861   4.251
  507SOL    HW2 1854   1.221   1.849   4.385
  508SOL     OW 1855   1.032   0.549   3.740
  508SOL    HW1 1856   0.991   0.631   3.701
  508SOL    HW2 1857   1.096   0.575   3.813
  509SOL     OW 1858   0.078   0.556   5.110
  509SOL    HW1 1859   0.170   0.555   5.069
  509SOL    HW2 1860   0.072   0.630   5.177
  510SOL     OW 1861   0.561   0.222   4.871
  510SOL    HW1 1862   0.599   0.138   4.908
  510SOL    HW2 1863   0.473   0.241   4.915
  511SOL     OW 1864   0.866   0.454   4.366
  511SOL    HW1 1865   0.834   0.526   4.304
  511SOL    HW2 1866   0.890   0.373   4.313
  512SOL     OW 1867   1.017   0.039   4.477
  512SOL    HW1 1868   0.945   0.044   4.408
  512SOL    HW2 1869   0.993  -0.030   4.546
  513SOL     OW 1870   1.429   1.173   4.591
  513SOL    HW1 1871   1.374   1.089   4.584
  513SOL    HW2 1872   1.455   1.202   4.499
  514SOL     OW 1873   1.466   0.590   4.716
  514SOL    HW1 1874   1.436   0.495   4.723
  514SOL    HW2 1875   1.539   0.606   4.782
  515SOL     OW 1876   1.857   0.833   4.101
  515SOL    HW1 1877   1.899   0.769   4.165
  515SOL    HW2 1878   1.819   0.782   4.023
  516SOL     OW 1879   0.488   1.385   3.898
  516SOL    HW1 1880   0.401   1.370   3.945
  516SOL    HW2 1881   0.471   1.411   3.803
  517SOL     OW 1882   1.664   1.280   4.381
  517SOL    HW1 1883   1.763   1.288   4.395
  517SOL    HW2 1884   1.619   1.364   4.412
  518SOL     OW 1885   1.390   0.575   3.802
  518SOL    HW1 1886   1.336   0.554   3.883
  518SOL    HW2 1887   1.481   0.534   3.811
  519SOL     OW 1888   0.527   0.256   4.052
  519SOL    HW1 1889   0.554   0.197   3.977
  519SOL    HW2 1890   0.527   0.351   4.021
  520SOL     OW 1891   1.754   1.223   5.312
  520SOL    HW1 1892   1.845   1.184   5.299
  520SOL    HW2 1893   1.762   1.319   5.336
  521SOL     OW 1894   1.064   1.347   5.064
  521SOL    HW1 1895   0.984   1.324   5.119
  521SOL    HW2 1896   1.147   1.321   5.113
  522SOL     OW 1897   1.592   1.629   5.349
  522SOL    HW1 1898   1.619   1.663   5.259
  522SOL    HW2 1899   1.671   1.591   5.395
  523SOL     OW 1900   1.111   1.195   4.824
  523SOL    HW1 1901   1.071   1.239   4.905
  523SOL    HW2 1902   1.070   1.232   4.741
  524SOL     OW 1903   1.638   1.099   4.803
  524SOL    HW1 1904   1.643   1.180   4.862
  524SOL    HW2 1905   1.552   1.101   4.752
  525SOL     OW 1906   0.915   0.089   5.126
  525SOL    HW1 1907   0.940   0.069   5.031
  525SOL    HW2 1908   0.987   0.145   5.168
  526SOL     OW 1909   0.980   1.116   5.443
  526SOL    HW1 1910   0.881   1.122   5.453
  526SOL    HW2 1911   1.003   1.036   5.387
  527SOL     OW 1912   0.705   1.050   4.092
  527SOL    HW1 1913   0.691   1.057   4.191
  527SOL    HW2 1914   0.789   0.999   4.074
  528SOL     OW 1915   0.410   0.813   4.975
  528SOL    HW1 1916   0.496   0.825   5.025
  528SOL    HW2 1917   0.368   0.726   5.002
  529SOL     OW 1918   1.274   0.386   4.986
  529SOL    HW1 1919   1.295   0.460   5.050
  529SOL    HW2 1920   1.185   0.403   4.943
  530SOL     OW 1921   0.064   1.564   5.055
  530SOL    HW1 1922   0.018   1.646   5.021
  530SOL    HW2 1923   0.162   1.583   5.064
  531SOL     OW 1924   0.367   1.100   4.225
  531SOL    HW1 1925   0.360   1.183   4.169
  531SOL    HW2 1926   0.371   1.020   4.165
  532SOL     OW 1927   0.566   0.537   4.589
  532SOL    HW1 1928   0.578   0.603   4.515
  532SOL    HW2 1929   0.612   0.571   4.672
  533SOL     OW 1930   1.252   1.348   4.112
  533SOL    HW1 1931   1.302   1.425   4.152
  533SOL    HW2 1932   1.157   1.350   4.144
  534SOL     OW 1933   1.272   1.445   4.866
  534SOL    HW1 1934   1.319   1.458   4.953
  534SOL    HW2 1935   1.206   1.371   4.875
  535SOL     OW 1936   1.582   0.639   4.196
  535SOL    HW1 1937   1.551   0.700   4.269
  535SOL    HW2 1938   1.632   0.691   4.127
  536SOL     OW 1939   0.354   1.510   5.053
  536SOL    HW1 1940   0.333   1.466   4.966
  536SOL    HW2 1941   0.451   1.536   5.056
  537SOL     OW 1942   0.402   0.751   5.322
  537SOL    HW1 1943   0.470   0.806   5.275
  537SOL    HW2 1944   0.442   0.663   5.349
  538SOL     OW 1945   1.587   0.779   5.394
  538SOL    HW1 1946   1.495   0.817   5.389
  538SOL    HW2 1947   1.647   0.826   5.329
  539SOL     OW 1948   1.013   0.105   5.494
  539SOL    HW1 1949   1.019   0.190   5.442
  539SOL    HW2 1950   1.045   0.029   5.437
  540SOL     OW 1951   0.504   0.050   5.464
  540SOL    HW1 1952   0.462  -0.007   5.394
  540SOL    HW2 1953   0.438   0.119   5.496
  541SOL     OW 1954   0.573   0.870   4.753
  541SOL    HW1 1955   0.617   0.959   4.744
  541SOL    HW2 1956   0.510   0.870   4.830
  542SOL     OW 1957   1.360   0.862   4.769
  542SOL    HW1 1958   1.285   0.862   4.703
  542SOL    HW2 1959   1.397   0.770   4.778
  543SOL     OW 1960   1.209   0.525   3.999
  543SOL    HW1 1961   1.222   0.441   4.053
  543SOL    HW2 1962   1.180   0.599   4.059
  544SOL     OW 1963   0.307   0.213   4.955
  544SOL    HW1 1964   0.284   0.250   5.045
  544SOL    HW2 1965   0.277   0.118   4.949
  545SOL     OW 1966   0.037   1.310   5.006
  545SOL    HW1 1967   0.090   1.261   5.074
  545SOL    HW2 1968   0.059   1.408   5.011
  546SOL     OW 1969   0.732   0.634   4.788
  546SOL    HW1 1970   0.791   0.608   4.712
  546SOL    HW2 1971   0.704   0.730   4.777
  547SOL     OW 1972   1.728   0.935   5.578
  547SOL    HW1 1973   1.682   0.928   5.489
  547SOL    HW2 1974   1.666   0.979   5.644
  548SOL     OW 1975   0.307   0.063   4.342
  548SOL    HW1 1976   0.296   0.157   4.375
  548SOL    HW2 1977   0.302   0.000   4.419
  549SOL     OW 1978   1.622   0.367   4.098
  549SOL    HW1 1979   1.624   0.291   4.162
  549SOL    HW2 1980   1.574   0.444   4.138
  550SOL     OW 1981   1.023   0.766   4.690
  550SOL    HW1 1982   1.038   0.787   4.786
  550SOL    HW2 1983   0.993   0.671   4.681
  551SOL     OW 1984   0.980   1.573   5.424
  551SOL    HW1 1985   0.960   1.617   5.336
  551SOL    HW2 1986   1.019   1.482   5.408
  552SOL     OW 1987   1.859   1.518   5.329
  552SOL    HW1 1988   1.873   1.545   5.234
  552SOL    HW2 1989   1.942   1.540   5.382
  553SOL     OW 1990   0.350   0.898   5.528
  553SOL    HW1 1991   0.426   0.942   5.576
  553SOL    HW2 1992   0.385   0.851   5.446
  554SOL     OW 1993   1.540   0.274   3.849
  554SOL    HW1 1994   1.479   0.199   3.872
  554SOL    HW2 1995   1.562   0.326   3.932
  555SOL     OW 1996   1.303   0.838   3.766
  555SOL    HW1 1997   1.337   0.745   3.781
  555SOL    HW2 1998   1.321   0.865   3.671
  556SOL     OW 1999   1.068   1.333   4.573
  556SOL    HW1 2000   1.075   1.249   4.518
  556SOL    HW2 2001   1.130   1.402   4.537
  557SOL     OW 2002   0.319   0.810   4.673
  557SOL    HW1 2003   0.412   0.846   4.678
  557SOL    HW2 2004   0.313   0.725   4.725
  558SOL     OW 2005   0.339   0.509   4.730
  558SOL    HW1 2006   0.287   0.426   4.713
  558SOL    HW2 2007   0.416   0.514   4.666
  559SOL     OW 2008   1.138   0.380   5.402
  559SOL    HW1 2009   1.093   0.443   5.466
  559SOL    HW2 2010   1.231   0.411   5.385
  560SOL     OW 2011   1.160   0.207   5.201
  560SOL    HW1 2012   1.160   0.271   5.278
  560SOL    HW2 2013   1.188   0.255   5.118
  561SOL     OW 2014   0.008   1.326   3.924
  561SOL    HW1 2015  -0.085   1.347   3.893
  561SOL    HW2 2016   0.018   1.227   3.937
  562SOL     OW 2017   0.088   1.801   4.651
  562SOL    HW1 2018   0.046   1.715   4.624
  562SOL    HW2 2019   0.182   1.804   4.617
  563SOL     OW 2020   0.504   1.568   4.634
  563SOL    HW1 2021   0.570   1.642   4.643
  563SOL    HW2 2022   0.548   1.489   4.592
  564SOL     OW 2023   1.002   0.796   4.962
  564SOL    HW1 2024   1.043   0.764   5.048
  564SOL    HW2 2025   0.906   0.769   4.959
  565SOL     OW 2026   0.040   0.544   4.838
  565SOL    HW1 2027   0.125   0.511   4.797
  565SOL    HW2 2028   0.053   0.559   4.936
  566SOL     OW 2029   0.189   0.520   5.446
  566SOL    HW1 2030   0.248   0.480   5.376
  566SOL    HW2 2031   0.131   0.591   5.405
  567SOL     OW 2032   1.369   0.950   5.384
  567SOL    HW1 2033   1.408   1.039   5.404
  567SOL    HW2 2034   1.379   0.930   5.287
  568SOL     OW 2035   0.815   0.572   4.049
  568SOL    HW1 2036   0.822   0.483   4.003
  568SOL    HW2 2037   0.721   0.606   4.041
  569SOL     OW 2038   1.657   0.604   4.930
  569SOL    HW1 2039   1.619   0.535   4.992
  569SOL    HW2 2040   1.739   0.568   4.886
  570SOL     OW 2041   0.252   1.564   5.468
  570SOL    HW1 2042   0.222   1.621   5.544
  570SOL    HW2 2043   0.245   1.467   5.494
  571SOL     OW 2044   0.671   0.464   4.993
  571SOL    HW1 2045   0.637   0.375   4.963
  571SOL    HW2 2046   0.697   0.518   4.913
  572SOL     OW 2047   0.930   1.678   5.189
  572SOL    HW1 2048   0.906   1.660   5.094
  572SOL    HW2 2049   0.960   1.772   5.199
  573SOL     OW 2050   0.473   0.500   3.915
  573SOL    HW1 2051   0.534   0.580   3.919
  573SOL    HW2 2052   0.378   0.531   3.922
  574SOL     OW 2053   0.159   1.137   5.190
  574SOL    HW1 2054   0.181   1.076   5.266
  574SOL    HW2 2055   0.169   1.088   5.104
  575SOL     OW 2056   1.347   1.059   4.958
  575SOL    HW1 2057   1.371   0.996   4.884
  575SOL    HW2 2058   1.257   1.099   4.940
  576SOL     OW 2059   1.302   0.855   4.033
  576SOL    HW1 2060   1.216   0.824   4.075
  576SOL    HW2 2061   1.298   0.841   3.934
  577SOL     OW 2062   1.759   1.747   4.878
  577SOL    HW1 2063   1.820   1.777   4.805
  577SOL    HW2 2064   1.721   1.658   4.856
  578SOL     OW 2065   1.252   1.731   4.852
  578SOL    HW1 2066   1.336   1.736   4.798
  578SOL    HW2 2067   1.229   1.635   4.870
  579SOL     OW 2068   0.083   1.258   4.746
  579SOL    HW1 2069   0.078   1.257   4.846
  579SOL    HW2 2070   0.000   1.217   4.708
  580SOL     OW 2071   0.688   1.662   5.440
  580SOL    HW1 2072   0.632   1.743   5.449
  580SOL    HW2 2073   0.740   1.666   5.354
  581SOL     OW 2074   1.726   0.135   4.247
  581SOL    HW1 2075   1.799   0.118   4.180
  581SOL    HW2 2076   1.695   0.048   4.285
  582SOL     OW 2077   1.388   1.573   4.201
  582SOL    HW1 2078   1.455   1.585   4.127
  582SOL    HW2 2079   1.348   1.662   4.224
  583SOL     OW 2080   0.130   1.794   5.575
  583SOL    HW1 2081   0.089   1.720   5.628
  583SOL    HW2 2082   0.194   1.845   5.633
  584SOL     OW 2083   1.280   0.927   4.396
  584SOL    HW1 2084   1.340   0.846   4.398
  584SOL    HW2 2085   1.320   0.996   4.336
  585SOL     OW 2086   0.830   1.273   5.146
  585SOL    HW1 2087   0.825   1.306   5.241
  585SOL    HW2 2088   0.744   1.292   5.100
  586SOL     OW 2089   0.672   1.616   3.878
  586SOL    HW1 2090   0.681   1.626   3.779
  586SOL    HW2 2091   0.632   1.527   3.899
  587SOL     OW 2092   1.650   1.720   5.118
  587SOL    HW1 2093   1.703   1.730   5.034
  587SOL    HW2 2094   1.623   1.810   5.152
  588SOL     OW 2095   1.841   0.175   4.687
  588SOL    HW1 2096   1.880   0.090   4.651
  588SOL    HW2 2097   1.743   0.177   4.668
  589SOL     OW 2098   0.263   0.326   4.444
  589SOL    HW1 2099   0.184   0.377   4.410
  589SOL    HW2 2100   0.254   0.311   4.542
  590SOL     OW 2101   1.194   1.612   3.755
  590SOL    HW1 2102   1.200   1.519   3.792
  590SOL    HW2 2103   1.135   1.612   3.675
  591SOL     OW 2104   0.822   1.002   5.096
  591SOL    HW1 2105   0.862   1.001   5.004
  591SOL    HW2 2106   0.832   1.094   5.136
  592SOL     OW 2107   0.916   0.910   4.015
  592SOL    HW1 2108   0.979   0.948   3.947
  592SOL    HW2 2109   0.956   0.827   4.054
  593SOL     OW 2110   1.504   1.607   3.768
  593SOL    HW1 2111   1.412   1.644   3.775
  593SOL    HW2 2112   1.542   1.627   3.678
  594SOL     OW 2113   0.372   1.288   5.214
  594SOL    HW1 2114   0.359   1.381   5.180
  594SOL    HW2 2115   0.288   1.236   5.201
  595SOL     OW 2116   1.614   1.292   5.013
  595SOL    HW1 2117   1.674   1.295   5.093
  595SOL    HW2 2118   1.539   1.356   5.026
  596SOL     OW 2119   1.039   1.098   4.420
  596SOL    HW1 2120   0.969   1.051   4.474
  596SOL    HW2 2121   1.098   1.030   4.377
  597SOL     OW 2122   1.014   0.236   4.695
  597SOL    HW1 2123   1.006   0.200   4.602
  597SOL    HW2 2124   1.012   0.160   4.760
  598SOL     OW 2125   0.590   1.487   4.215
  598SOL    HW1 2126   0.632   1.429   4.145
  598SOL    HW2 2127   0.546   1.566   4.171
  599SOL     OW 2128   1.709   0.385   5.105
  599SOL    HW1 2129   1.782   0.454   5.109
  599SOL    HW2 2130   1.737   0.310   5.046
  600SOL     OW 2131   0.255   1.348   4.014
  600SOL    HW1 2132   0.159   1.349   3.987
  600SOL    HW2 2133   0.267   1.401   4.098
  601SOL     OW 2134   0.105   1.013   5.450
  601SOL    HW1 2135   0.028   0.980   5.504
  601SOL    HW2 2136   0.190   0.983   5.492
  602SOL     OW 2137   0.672   0.203   5.213
  602SOL    HW1 2138   0.762   0.187   5.173
  602SOL    HW2 2139   0.680   0.208   5.312
  603SOL     OW 2140   0.075   0.345   3.757
  603SOL    HW1 2141  -0.017   0.317   3.728
  603SOL    HW2 2142   0.106   0.422   3.701
  604SOL     OW 2143   1.440   0.856   5.122
  604SOL    HW1 2144   1.383   0.908   5.059
  604SOL    HW2 2145   1.536   0.868   5.098
  605SOL     OW 2146   0.072   0.166   4.042
  605SOL    HW1 2147   0.055   0.249   3.988
  605SOL    HW2 2148   0.162   0.129   4.020
  606SOL     OW 2149   1.183   1.335   3.843
  606SOL    HW1 2150   1.084   1.324   3.845
  606SOL    HW2 2151   1.217   1.350   3.936
  607SOL     OW 2152   0.613   0.842   5.155
  607SOL    HW1 2153   0.669   0.923   5.138
  607SOL    HW2 2154   0.672   0.762   5.158
  608SOL     OW 2155   1.493   1.767   4.683
  608SOL    HW1 2156   1.526   1.831   4.614
  608SOL    HW2 2157   1.559   1.761   4.758
  609SOL     OW 2158   0.716   0.565   5.432
  609SOL    HW1 2159   0.735   0.630   5.506
  609SOL    HW2 2160   0.776   0.485   5.441
  610SOL     OW 2161   1.450   1.220   5.357
  610SOL    HW1 2162   1.441   1.210   5.456
  610SOL    HW2 2163   1.546   1.213   5.331
  611SOL     OW 2164   0.390   1.741   5.284
  611SOL    HW1 2165   0.299   1.782   5.282
  611SOL    HW2 2166   0.383   1.647   5.316
  612SOL     OW 2167   1.674   0.883   4.978
  612SOL    HW1 2168   1.647   0.794   4.941
  612SOL    HW2 2169   1.675   0.951   4.905
  613SOL     OW 2170   1.225   0.325   4.173
  613SOL    HW1 2171   1.290   0.251   4.162
  613SOL    HW2 2172   1.245   0.375   4.257
  614SOL     OW 2173   0.594   0.745   4.376
  614SOL    HW1 2174   0.644   0.830   4.357
  614SOL    HW2 2175   0.506   0.747   4.328
  615SOL     OW 2176   1.777   0.342   5.366
  615SOL    HW1 2177   1.760   0.373   5.272
  615SOL    HW2 2178   1.693   0.305   5.404
  616SOL     OW 2179   1.730   0.934   5.241
  616SOL    HW1 2180   1.768   1.025   5.256
  616SOL    HW2 2181   1.722   0.917   5.142
  617SOL     OW 2182   0.859   1.374   3.740
  617SOL    HW1 2183   0.813   1.389   3.828
  617SOL    HW2 2184   0.903   1.459   3.710
  618SOL     OW 2185   0.661   1.790   4.677
  618SOL    HW1 2186   0.615   1.878   4.664
  618SOL    HW2 2187   0.760   1.802   4.670
  619SOL     OW 2188   0.859   0.956   4.585
  619SOL    HW1 2189   0.913   0.887   4.633
  619SOL    HW2 2190   0.827   1.025   4.651
  620SOL     OW 2191   1.083   0.984   3.811
  620SOL    HW1 2192   1.060   1.037   3.729
  620SOL    HW2 2193   1.164   0.928   3.792
  621SOL     OW 2194   1.861   1.569   4.575
  621SOL    HW1 2195   1.790   1.557   4.505
  621SOL    HW2 2196   1.862   1.490   4.635
  622SOL     OW 2197   0.221   1.314   5.568
  622SOL    HW1 2198   0.156   1.241   5.547
  622SOL    HW2 2199   0.225   1.328   5.666
  623SOL     OW 2200   0.079   1.240   4.377
  623SOL    HW1 2201   0.078   1.193   4.465
  623SOL    HW2 2202   0.161   1.212   4.326
  624SOL     OW 2203   0.672   1.391   5.348
  624SOL    HW1 2204   0.594   1.341   5.386
  624SOL    HW2 2205   0.669   1.486   5.379
  625SOL     OW 2206   1.824   0.192   4.951
  625SOL    HW1 2207   1.820   0.102   4.995
  625SOL    HW2 2208   1.827   0.181   4.852
  626SOL     OW 2209   0.428   0.424   4.244
  626SOL    HW1 2210   0.458   0.352   4.182
  626SOL    HW2 2211   0.389   0.384   4.327
  627SOL     OW 2212   1.705   1.487   4.828
  627SOL    HW1 2213   1.612   1.462   4.801
  627SOL    HW2 2214   1.731   1.437   4.910
  628SOL     OW 2215   0.317   0.547   5.004
  628SOL    HW1 2216   0.355   0.488   5.076
  628SOL    HW2 2217   0.357   0.521   4.916
  629SOL     OW 2218   0.812   1.586   4.411
  629SOL    HW1 2219   0.844   1.596   4.317
  629SOL    HW2 2220   0.733   1.524   4.413
  630SOL     OW 2221   1.424   0.214   4.836
  630SOL    HW1 2222   1.476   0.149   4.891
  630SOL    HW2 2223   1.375   0.277   4.897
  631SOL     OW 2224   1.001   0.034   4.878
  631SOL    HW1 2225   0.938  -0.038   4.847
  631SOL    HW2 2226   1.094  -0.002   4.878
  632SOL     OW 2227   0.770   1.330   4.025
  632SOL    HW1 2228   0.724   1.243   4.042
  632SOL    HW2 2229   0.861   1.327   4.066
  633SOL     OW 2230   0.618   1.567   5.008
  633SOL    HW1 2231   0.613   1.649   5.065
  633SOL    HW2 2232   0.707   1.564   4.963
  634SOL     OW 2233   1.352   0.052   3.892
  634SOL    HW1 2234   1.387   0.011   3.808
  634SOL    HW2 2235   1.262   0.014   3.912
  635SOL     OW 2236   1.300   0.453   4.415
  635SOL    HW1 2237   1.241   0.533   4.419
  635SOL    HW2 2238   1.315   0.418   4.508
  636SOL     OW 2239   1.593   0.221   4.606
  636SOL    HW1 2240   1.509   0.220   4.660
  636SOL    HW2 2241   1.595   0.304   4.550
  637SOL     OW 2242   0.039   1.077   4.024
  637SOL    HW1 2243   0.138   1.066   4.015
  637SOL    HW2 2244  -0.001   0.991   4.056
  638SOL     OW 2245   0.875   1.646   4.061
  638SOL    HW1 2246   0.798   1.611   4.007
  638SOL    HW2 2247   0.843   1.717   4.123
  639SOL     OW 2248   0.230   0.628   5.699
  639SOL    HW1 2249   0.137   0.626   5.736
  639SOL    HW2 2250   0.231   0.589   5.607
  640SOL     OW 2251   0.225   0.275   6.582
  640SOL    HW1 2252   0.260   0.258   6.674
  640SOL    HW2 2253   0.137   0.230   6.570
  641SOL     OW 2254   0.019   0.368   6.233
  641SOL    HW1 2255  -0.063   0.411   6.272
  641SOL    HW2 2256  -0.009   0.295   6.170
  642SOL     OW 2257   0.569   1.275   6.751
  642SOL    HW1 2258   0.476   1.268   6.714
  642SOL    HW2 2259   0.580   1.364   6.795
  643SOL     OW 2260   1.555   1.511   6.289
  643SOL    HW1 2261   1.498   1.495   6.370
  643SOL    HW2 2262   1.496   1.521   6.209
  644SOL     OW 2263   1.135   0.703   6.303
  644SOL    HW1 2264   1.192   0.781   6.278
  644SOL    HW2 2265   1.075   0.729   6.379
  645SOL     OW 2266   1.755   0.607   5.817
  645SOL    HW1 2267   1.743   0.594   5.718
  645SOL    HW2 2268   1.725   0.526   5.866
  646SOL     OW 2269   0.768   1.144   6.609
  646SOL    HW1 2270   0.690   1.161   6.669
  646SOL    HW2 2271   0.802   1.231   6.573
  647SOL     OW 2272   0.850   0.798   7.409
  647SOL    HW1 2273   0.846   0.874   7.474
  647SOL    HW2 2274   0.872   0.834   7.318
  648SOL     OW 2275   0.685   1.012   6.251
  648SOL    HW1 2276   0.754   0.996   6.321
  648SOL    HW2 2277   0.612   1.069   6.289
  649SOL     OW 2278   0.686   1.161   7.389
  649SOL    HW1 2279   0.746   1.240   7.403
  649SOL    HW2 2280   0.600   1.192   7.348
  650SOL     OW 2281   0.335   1.435   6.647
  650SOL    HW1 2282   0.257   1.404   6.594
  650SOL    HW2 2283   0.393   1.493   6.590
  651SOL     OW 2284   1.460   1.505   6.925
  651SOL    HW1 2285   1.484   1.599   6.951
  651SOL    HW2 2286   1.444   1.451   7.007
  652SOL     OW 2287   0.438   0.392   7.085
  652SOL    HW1 2288   0.520   0.336   7.094
  652SOL    HW2 2289   0.357   0.334   7.089
  653SOL     OW 2290   1.603   0.447   6.323
  653SOL    HW1 2291   1.529   0.493   6.273
  653SOL    HW2 2292   1.654   0.515   6.376
  654SOL     OW 2293   0.231   1.713   6.069
  654SOL    HW1 2294   0.265   1.790   6.123
  654SOL    HW2 2295   0.275   1.713   5.979
  655SOL     OW 2296   1.127   1.341   7.276
  655SOL    HW1 2297   1.174   1.341   7.364
  655SOL    HW2 2298   1.079   1.254   7.265
  656SOL     OW 2299   0.230   1.434   6.124
  656SOL    HW1 2300   0.204   1.530   6.124
  656SOL    HW2 2301   0.159   1.380   6.169
  657SOL     OW 2302   0.240   1.091   6.472
  657SOL    HW1 2303   0.254   1.007   6.524
  657SOL    HW2 2304   0.185   1.155   6.527
  658SOL     OW 2305   0.620   1.786   7.025
  658SOL    HW1 2306   0.528   1.769   7.060
  658SOL    HW2 2307   0.648   1.878   7.051
  659SOL     OW 2308   0.606   0.964   5.709
  659SOL    HW1 2309   0.613   1.048   5.655
  659SOL    HW2 2310   0.652   0.977   5.797
  660SOL     OW 2311   1.594   0.114   7.066
  660SOL    HW1 2312   1.576   0.181   6.994
  660SOL    HW2 2313   1.591   0.160   7.155
  661SOL     OW 2314   0.122   0.643   6.149
  661SOL    HW1 2315   0.077   0.555   6.166
  661SOL    HW2 2316   0.121   0.697   6.233
  662SOL     OW 2317   0.027   1.596   5.703
  662SOL    HW1 2318   0.008   1.500   5.724
  662SOL    HW2 2319  -0.006   1.654   5.778
  663SOL     OW 2320   1.689   0.922   6.198
  663SOL    HW1 2321   1.784   0.893   6.206
  663SOL    HW2 2322   1.681   0.987   6.123
  664SOL     OW 2323   1.641   1.108   6.018
  664SOL    HW1 2324   1.727   1.110   5.966
  664SOL    HW2 2325   1.655   1.155   6.106
  665SOL     OW 2326   0.113   0.737   7.183
  665SOL    HW1 2327   0.201   0.724   7.228
  665SOL    HW2 2328   0.100   0.834   7.161
  666SOL     OW 2329   0.613   1.365   6.312
  666SOL    HW1 2330   0.564   1.278   6.321
  666SOL    HW2 2331   0.590   1.408   6.225
  667SOL     OW 2332   1.293   1.228   7.009
  667SOL    HW1 2333   1.330   1.155   6.951
  667SOL    HW2 2334   1.345   1.233   7.094
  668SOL     OW 2335   0.809   0.004   6.088
  668SOL    HW1 2336   0.849   0.095   6.079
  668SOL    HW2 2337   0.709   0.012   6.094
  669SOL     OW 2338   0.197   0.976   6.850
  669SOL    HW1 2339   0.286   0.931   6.836
  669SOL    HW2 2340   0.124   0.911   6.831
  670SOL     OW 2341   1.525   0.999   5.776
  670SOL    HW1 2342   1.462   0.923   5.789
  670SOL    HW2 2343   1.573   1.017   5.862
  671SOL     OW 2344   1.187   1.792   7.202
  671SOL    HW1 2345   1.211   1.852   7.126
  671SOL    HW2 2346   1.194   1.697   7.172
  672SOL     OW 2347   0.317   0.251   7.387
  672SOL    HW1 2348   0.388   0.322   7.393
  672SOL    HW2 2349   0.229   0.290   7.415
  673SOL     OW 2350   1.466   1.417   6.539
  673SOL    HW1 2351   1.407   1.423   6.619
  673SOL    HW2 2352   1.451   1.329   6.493
  674SOL     OW 2353   1.667   1.714   6.158
  674SOL    HW1 2354   1.626   1.691   6.070
  674SOL    HW2 2355   1.649   1.640   6.223
  675SOL     OW 2356   0.598   0.729   5.856
  675SOL    HW1 2357   0.622   0.798   5.788
  675SOL    HW2 2358   0.520   0.762   5.910
  676SOL     OW 2359   1.281   0.345   6.530
  676SOL    HW1 2360   1.195   0.295   6.517
  676SOL    HW2 2361   1.343   0.291   6.586
  677SOL     OW 2362   1.576   1.662   5.893
  677SOL    HW1 2363   1.665   1.708   5.896
  677SOL    HW2 2364   1.555   1.638   5.798
  678SOL     OW 2365   0.807   0.605   7.051
  678SOL    HW1 2366   0.760   0.602   7.140
  678SOL    HW2 2367   0.756   0.550   6.985
  679SOL     OW 2368   1.394   0.469   7.260
  679SOL    HW1 2369   1.374   0.512   7.348
  679SOL    HW2 2370   1.472   0.407   7.269
  680SOL     OW 2371   0.973   0.890   7.158
  680SOL    HW1 2372   1.019   0.806   7.129
  680SOL    HW2 2373   0.917   0.924   7.083
  681SOL     OW 2374   0.991   0.410   6.828
  681SOL    HW1 2375   0.914   0.444   6.882
  681SOL    HW2 2376   0.957   0.359   6.749
  682SOL     OW 2377   1.041   0.701   6.015
  682SOL    HW1 2378   1.067   0.697   6.111
  682SOL    HW2 2379   0.956   0.650   6.001
  683SOL     OW 2380   0.076   0.811   6.375
  683SOL    HW1 2381   0.175   0.799   6.384
  683SOL    HW2 2382   0.052   0.906   6.396
  684SOL     OW 2383   0.130   1.821   7.157
  684SOL    HW1 2384   0.120   1.806   7.256
  684SOL    HW2 2385   0.044   1.857   7.121
  685SOL     OW 2386   0.865   0.348   5.781
  685SOL    HW1 2387   0.924   0.411   5.732
  685SOL    HW2 2388   0.884   0.254   5.752
  686SOL     OW 2389   1.719   0.585   7.417
  686SOL    HW1 2390   1.693   0.674   7.381
  686SOL    HW2 2391   1.717   0.517   7.344
  687SOL     OW 2392   1.362   1.144   6.131
  687SOL    HW1 2393   1.445   1.115   6.083
  687SOL    HW2 2394   1.313   1.211   6.075
  688SOL     OW 2395   0.550   0.196   6.471
  688SOL    HW1 2396   0.545   0.191   6.571
  688SOL    HW2 2397   0.552   0.292   6.442
  689SOL     OW 2398   1.008   1.456   6.063
  689SOL    HW1 2399   0.962   1.528   6.011
  689SOL    HW2 2400   1.004   1.476   6.161
  690SOL     OW 2401   0.351   1.801   6.439
  690SOL    HW1 2402   0.401   1.715   6.445
  690SOL    HW2 2403   0.416   1.878   6.436
  691SOL     OW 2404   1.795   1.066   6.459
  691SOL    HW1 2405   1.733   1.051   6.383
  691SOL    HW2 2406   1.743   1.077   6.544
  692SOL     OW 2407   1.227   1.550   7.092
  692SOL    HW1 2408   1.233   1.473   7.156
  692SOL    HW2 2409   1.175   1.524   7.012
  693SOL     OW 2410   0.321   0.943   5.828
  693SOL    HW1 2411   0.403   0.982   5.786
  693SOL    HW2 2412   0.294   0.861   5.779
  694SOL     OW 2413   1.458   0.735   6.314
  694SOL    HW1 2414   1.453   0.670   6.389
  694SOL    HW2 2415   1.538   0.794   6.327
  695SOL     OW 2416   0.461   1.266   7.313
  695SOL    HW1 2417   0.411   1.267   7.227
  695SOL    HW2 2418   0.398   1.248   7.389
  696SOL     OW 2419   1.111   1.776   5.823
  696SOL    HW1 2420   1.051   1.714   5.873
  696SOL    HW2 2421   1.142   1.732   5.738
  697SOL     OW 2422   0.202   0.285   7.084
  697SOL    HW1 2423   0.122   0.345   7.071
  697SOL    HW2 2424   0.192   0.236   7.170
  698SOL     OW 2425   1.632   1.377   5.667
  698SOL    HW1 2426   1.600   1.471   5.657
  698SOL    HW2 2427   1.556   1.314   5.655
  699SOL     OW 2428   0.464   1.743   5.909
  699SOL    HW1 2429   0.497   1.782   5.995
  699SOL    HW2 2430   0.540   1.736   5.844
  700SOL     OW 2431   1.400   0.107   6.012
  700SOL    HW1 2432   1.376   0.070   5.922
  700SOL    HW2 2433   1.499   0.123   6.016
  701SOL     OW 2434   0.249   1.785   6.827
  701SOL    HW1 2435   0.306   1.720   6.877
  701SOL    HW2 2436   0.233   1.752   6.734
  702SOL     OW 2437   0.940   1.698   6.490
  702SOL    HW1 2438   1.020   1.641   6.511
  702SOL    HW2 2439   0.891   1.658   6.413
  703SOL     OW 2440   0.382   0.700   6.066
  703SOL    HW1 2441   0.427   0.610   6.063
  703SOL    HW2 2442   0.288   0.689   6.099
  704SOL     OW 2443   1.547   0.222   7.315
  704SOL    HW1 2444   1.542   0.259   7.407
  704SOL    HW2 2445   1.475   0.153   7.303
  705SOL     OW 2446   0.614   0.122   5.703
  705SOL    HW1 2447   0.712   0.100   5.710
  705SOL    HW2 2448   0.583   0.105   5.610
  706SOL     OW 2449   0.781   0.264   7.335
  706SOL    HW1 2450   0.848   0.203   7.378
  706SOL    HW2 2451   0.708   0.283   7.400
  707SOL     OW 2452   0.888   1.514   6.781
  707SOL    HW1 2453   0.865   1.489   6.687
  707SOL    HW2 2454   0.949   1.445   6.820
  708SOL     OW 2455   1.351   0.590   7.019
  708SOL    HW1 2456   1.379   0.547   7.104
  708SOL    HW2 2457   1.376   0.686   7.020
  709SOL     OW 2458   0.803   1.402   6.510
  709SOL    HW1 2459   0.893   1.416   6.468
  709SOL    HW2 2460   0.732   1.404   6.439
  710SOL     OW 2461   0.922   0.503   6.485
  710SOL    HW1 2462   0.897   0.494   6.389
  710SOL    HW2 2463   0.970   0.421   6.516
  711SOL     OW 2464   0.539   0.064   6.098
  711SOL    HW1 2465   0.458   0.065   6.156
  711SOL    HW2 2466   0.542   0.147   6.043
  712SOL     OW 2467   1.434   1.188   5.627
  712SOL    HW1 2468   1.466   1.112   5.684
  712SOL    HW2 2469   1.342   1.215   5.657
  713SOL     OW 2470   0.297   0.035   5.757
  713SOL    HW1 2471   0.346   0.119   5.736
  713SOL    HW2 2472   0.359  -0.030   5.802
  714SOL     OW 2473   0.935   0.236   6.066
  714SOL    HW1 2474   0.887   0.277   5.988
  714SOL    HW2 2475   1.034   0.234   6.047
  715SOL     OW 2476   1.076   0.683   7.050
  715SOL    HW1 2477   0.996   0.622   7.053
  715SOL    HW2 2478   1.157   0.630   7.026
  716SOL     OW 2479   1.227   1.570   6.379
  716SOL    HW1 2480   1.248   1.644   6.314
  716SOL    HW2 2481   1.295   1.570   6.452
  717SOL     OW 2482   0.459   1.152   6.327
  717SOL    HW1 2483   0.388   1.125   6.392
  717SOL    HW2 2484   0.433   1.124   6.234
  718SOL     OW 2485   1.271   1.797   6.177
  718SOL    HW1 2486   1.315   1.861   6.113
  718SOL    HW2 2487   1.221   1.849   6.247
  719SOL     OW 2488   1.032   0.549   5.602
  719SOL    HW1 2489   0.991   0.631   5.563
  719SOL    HW2 2490   1.096   0.575   5.675
  720SOL     OW 2491   0.078   0.556   6.972
  720SOL    HW1 2492   0.170   0.555   6.931
  720SOL    HW2 2493   0.072   0.630   7.039
  721SOL     OW 2494   0.561   0.222   6.733
  721SOL    HW1 2495   0.599   0.138   6.770
  721SOL    HW2 2496   0.473   0.241   6.777
  722SOL     OW 2497   0.866   0.454   6.228
  722SOL    HW1 2498   0.834   0.526   6.166
  722SOL    HW2 2499   0.890   0.373   6.175
  723SOL     OW 2500   1.017   0.039   6.339
  723SOL    HW1 2501   0.945   0.044   6.270
  723SOL    HW2 2502   0.993  -0.030   6.408
  724SOL     OW 2503   1.429   1.173   6.453
  724SOL    HW1 2504   1.374   1.089   6.446
  724SOL    HW2 2505   1.455   1.202   6.361
  725SOL     OW 2506   1.466   0.590   6.578
  725SOL    HW1 2507   1.436   0.495   6.585
  725SOL    HW2 2508   1.539   0.606   6.644
  726SOL     OW 2509   1.857   0.833   5.963
  726SOL    HW1 2510   1.899   0.769   6.027
  726SOL    HW2 2511   1.819   0.782   5.885
  727SOL     OW 2512   0.488   1.385   5.760
  727SOL    HW1 2513   0.401   1.370   5.807
  727SOL    HW2 2514   0.471   1.411   5.665
  728SOL     OW 2515   1.664   1.280   6.243
  728SOL    HW1 2516   1.763   1.288   6.257
  728SOL    HW2 2517   1.619   1.364   6.274
  729SOL     OW 2518   1.390   0.575   5.664
  729SOL    HW1 2519   1.336   0.554   5.745
  729SOL    HW2 2520   1.481   0.534   5.673
  730SOL     OW 2521   0.527   0.256   5.914
  730SOL    HW1 2522   0.554   0.197   5.839
  730SOL    HW2 2523   0.527   0.351   5.883
  731SOL     OW 2524   1.754   1.223   7.174
  731SOL    HW1 2525   1.845   1.184   7.161
  731SOL    HW2 2526   1.762   1.319   7.198
  732SOL     OW 2527   1.064   1.347   6.926
  732SOL    HW1 2528   0.984   1.324   6.981
  732SOL    HW2 2529   1.147   1.321   6.975
  733SOL     OW 2530   1.592   1.629   7.211
  733SOL    HW1 2531   1.619   1.663   7.121
  733SOL    HW2 2532   1.671   1.591   7.257
  734SOL     OW 2533   1.111   1.195   6.686
  734SOL    HW1 2534   1.071   1.239   6.767
  734SOL    HW2 2535   1.070   1.232   6.603
  735SOL     OW 2536   1.638   1.099   6.665
  735SOL    HW1 2537   1.643   1.180   6.724
  735SOL    HW2 2538   1.552   1.101   6.614
  736SOL     OW 2539   0.915   0.089   6.988
  736SOL    HW1 2540   0.940   0.069   6.893
  736SOL    HW2 2541   0.987   0.145   7.030
  737SOL     OW 2542   0.980   1.116   7.305
  737SOL    HW1 2543   0.881   1.122   7.315
  737SOL    HW2 2544   1.003   1.036   7.249
  738SOL     OW 2545   0.705   1.050   5.954
  738SOL    HW1 2546   0.691   1.057   6.053
  738SOL    HW2 2547   0.789   0.999   5.936
  739SOL     OW 2548   0.410   0.813   6.837
  739SOL    HW1 2549   0.496   0.825   6.887
  739SOL    HW2 2550   0.368   0.726   6.864
  740SOL     OW 2551   1.274   0.386   6.848
  740SOL    HW1 2552   1.295   0.460   6.912
  740SOL    HW2 2553   1.185   0.403   6.805
  741SOL     OW 2554   0.064   1.564   6.917
  741SOL    HW1 2555   0.018   1.646   6.883
  741SOL    HW2 2556   0.162   1.583   6.926
  742SOL     OW 2557   0.367   1.100   6.087
  742SOL    HW1 2558   0.360   1.183   6.031
  742SOL    HW2 2559   0.371   1.020   6.027
  743SOL     OW 2560   0.566   0.537   6.451
  743SOL    HW1 2561   0.578   0.603   6.377
  743SOL    HW2 2562   0.612   0.571   6.534
  744SOL     OW 2563   1.252   1.348   5.974
  744SOL    HW1 2564   1.302   1.425   6.014
  744SOL    HW2 2565   1.157   1.350   6.006
  745SOL     OW 2566   1.272   1.445   6.728
  745SOL    HW1 2567   1.319   1.458   6.815
  745SOL    HW2 2568   1.206   1.371   6.737
  746SOL     OW 2569   1.582   0.639   6.058
  746SOL    HW1 2570   1.551   0.700   6.131
  746SOL    HW2 2571   1.632   0.691   5.989
  747SOL     OW 2572   0.354   1.510   6.915
  747SOL    HW1 2573   0.333   1.466   6.828
  747SOL    HW2 2574   0.451   1.536   6.918
  748SOL     OW 2575   0.402   0.751   7.184
  748SOL    HW1 2576   0.470   0.806   7.137
  748SOL    HW2 2577   0.442   0.663   7.211
  749SOL     OW 2578   1.587   0.779   7.256
  749SOL    HW1 2579   1.495   0.817   7.251
  749SOL    HW2 2580   1.647   0.826   7.191
  750SOL     OW 2581   1.013   0.105   7.356
  750SOL    HW1 2582   1.019   0.190   7.304
  750SOL    HW2 2583   1.045   0.029   7.299
  751SOL     OW 2584   0.504   0.050   7.326
  751SOL    HW1 2585   0.462  -0.007   7.256
  751SOL    HW2 2586   0.438   0.119   7.358
  752SOL     OW 2587   0.573   0.870   6.615
  752SOL    HW1 2588   0.617   0.959   6.606
  752SOL    HW2 2589   0.510   0.870   6.692
  753SOL     OW 2590   1.360   0.862   6.631
  753SOL    HW1 2591   1.285   0.862   6.565
  753SOL    HW2 2592   1.397   0.770   6.640
  754SOL     OW 2593   1.209   0.525   5.861
  754SOL    HW1 2594   1.222   0.441   5.915
  754SOL    HW2 2595   1.180   0.599   5.921
  755SOL     OW 2596   0.307   0.213   6.817
  755SOL    HW1 2597   0.284   0.250   6.907
  755SOL    HW2 2598   0.277   0.118   6.811
  756SOL     OW 2599   0.037   1.310   6.868
  756SOL    HW1 2600   0.090   1.261   6.936
  756SOL    HW2 2601   0.059   1.408   6.873
  757SOL     OW 2602   0.732   0.634   6.650
  757SOL    HW1 2603   0.791   0.608   6.574
  757SOL    HW2 2604   0.704   0.730   6.639
  758SOL     OW 2605   1.728   0.935   7.440
  758SOL    HW1 2606   1.682   0.928   7.351
  758SOL    HW2 2607   1.666   0.979   7.506
  759SOL     OW 2608   0.307   0.063   6.204
  759SOL    HW1 2609   0.296   0.157   6.237
  759SOL    HW2 2610   0.302   0.000   6.281
  760SOL     OW 2611   1.622   0.367   5.960
  760SOL    HW1 2612   1.624   0.291   6.024
  760SOL    HW2 2613   1.574   0.444   6.000
  761SOL     OW 2614   1.023   0.766   6.552
  761SOL    HW1 2615   1.038   0.787   6.648
  761SOL    HW2 2616   0.993   0.671   6.543
  762SOL     OW 2617   0.980   1.573   7.286
  762SOL    HW1 2618   0.960   1.617   7.198
  762SOL    HW2 2619   1.019   1.482   7.270
  763SOL     OW 2620   1.859   1.518   7.191
  763SOL    HW1 2621   1.873   1.545   7.096
  763SOL    HW2 2622   1.942   1.540   7.244
  764SOL     OW 2623   0.350   0.898   7.390
  764SOL    HW1 2624   0.426   0.942   7.438
  764SOL    HW2 2625   0.385   0.851   7.308
  765SOL     OW 2626   1.540   0.274   5.711
  765SOL    HW1 2627   1.479   0.199   5.734
  765SOL    HW2 2628   1.562   0.326   5.794
  766SOL     OW 2629   1.303   0.838   5.628
  766SOL    HW1 2630   1.337   0.745   5.643
  766SOL    HW2 2631   1.321   0.865   5.533
  767SOL     OW 2632   1.068   1.333   6.435
  767SOL    HW1 2633   1.075   1.249   6.380
  767SOL    HW2 2634   1.130   1.402   6.399
  768SOL     OW 2635   0.319   0.810   6.535
  768SOL    HW1 2636   0.412   0.846   6.540
  768SOL    HW2 2637   0.313   0.725   6.587
  769SOL     OW 2638   0.339   0.509   6.592
  769SOL    HW1 2639   0.287   0.426   6.575
  769SOL    HW2 2640   0.416   0.514   6.528
  770SOL     OW 2641   1.138   0.380   7.264
  770SOL    HW1 2642   1.093   0.443   7.328
  770SOL    HW2 2643   1.231   0.411   7.247
  771SOL     OW 2644   1.160   0.207   7.063
  771SOL    HW1 2645   1.160   0.271   7.140
  771SOL    HW2 2646   1.188   0.255   6.980
  772SOL     OW 2647   0.008   1.326   5.786
  772SOL    HW1 2648  -0.085   1.347   5.755
  772SOL    HW2 2649   0.018   1.227   5.799
  773SOL     OW 2650   0.088   1.801   6.513
  773SOL    HW1 2651   0.046   1.715   6.486
  773SOL    HW2 2652   0.182   1.804   6.479
  774SOL     OW 2653   0.504   1.568   6.496
  774SOL    HW1 2654   0.570   1.642   6.505
  774SOL    HW2 2655   0.548   1.489   6.454
  775SOL     OW 2656   1.002   0.796   6.824
  775SOL    HW1 2657   1.043   0.764   6.910
  775SOL    HW2 2658   0.906   0.769   6.821
  776SOL     OW 2659   0.040   0.544   6.700
  776SOL    HW1 2660   0.125   0.511   6.659
  776SOL    HW2 2661   0.053   0.559   6.798
  777SOL     OW 2662   0.189   0.520   7.308
  777SOL    HW1 2663   0.248   0.480   7.238
  777SOL    HW2 2664   0.131   0.591   7.267
  778SOL     OW 2665   1.369   0.950   7.246
  778SOL    HW1 2666   1.408   1.039   7.266
  778SOL    HW2 2667   1.379   0.930   7.149
  779SOL     OW 2668   0.815   0.572   5.911
  779SOL    HW1 2669   0.822   0.483   5.865
  779SOL    HW2 2670   0.721   0.606   5.903
  780SOL     OW 2671   1.657   0.604   6.792
  780SOL    HW1 2672   1.619   0.535   6.854
  780SOL    HW2 2673   1.739   0.568   6.748
  781SOL     OW 2674   0.252   1.564   7.330
  781SOL    HW1 2675   0.222   1.621   7.406
  781SOL    HW2 2676   0.245   1.467   7.356
  782SOL     OW 2677   0.671   0.464   6.855
  782SOL    HW1 2678   0.637   0.375   6.825
  782SOL    HW2 2679   0.697   0.518   6.775
  783SOL     OW 2680   0.930   1.678   7.051
  783SOL    HW1 2681   0.906   1.660   6.956
  783SOL    HW2 2682   0.960   1.772   7.061
  784SOL     OW 2683   0.473   0.500   5.777
  784SOL    HW1 2684   0.534   0.580   5.781
  784SOL    HW2 2685   0.378   0.531   5.784
  785SOL     OW 2686   0.159   1.137   7.052
  785SOL    HW1 2687   0.181   1.076   7.128
  785SOL    HW2 2688   0.169   1.088   6.966
  786SOL     OW 2689   1.347   1.059   6.820
  786SOL    HW1 2690   1.371   0.996   6.746
  786SOL    HW2 2691   1.257   1.099   6.802
  787SOL     OW 2692   1.302   0.855   5.895
  787SOL    HW1 2693   1.216   0.824   5.937
  787SOL    HW2 2694   1.298   0.841   5.796
  788SOL     OW 2695   1.759   1.747   6.740
  788SOL    HW1 2696   1.820   1.777   6.667
  788SOL    HW2 2697   1.721   1.658   6.718
  789SOL     OW 2698   1.252   1.731   6.714
  789SOL    HW1 2699   1.336   1.736   6.660
  789SOL    HW2 2700   1.229   1.635   6.732
  790SOL     OW 2701   0.083   1.258   6.608
  790SOL    HW1 2702   0.078   1.257   6.708
  790SOL    HW2 2703   0.000   1.217   6.570
  791SOL     OW 2704   0.688   1.662   7.302
  791SOL    HW1 2705   0.632   1.743   7.311
  791SOL    HW2 2706   0.740   1.666   7.216
  792SOL     OW 2707   1.726   0.135   6.109
  792SOL    HW1 2708   1.799   0.118   6.042
  792SOL    HW2 2709   1.695   0.048   6.147
  793SOL     OW 2710   1.388   1.573   6.063
  793SOL    HW1 2711   1.455   1.585   5.989
  793SOL    HW2 2712   1.348   1.662   6.086
  794SOL     OW 2713   0.130   1.794   7.437
  794SOL    HW1 2714   0.089   1.720   7.490
  794SOL    HW2 2715   0.194   1.845   7.495
  795SOL     OW 2716   1.280   0.927   6.258
  795SOL    HW1 2717   1.340   0.846   6.260
  795SOL    HW2 2718   1.320   0.996   6.198
  796SOL     OW 2719   0.830   1.273   7.008
  796SOL    HW1 2720   0.825   1.306   7.103
  796SOL    HW2 2721   0.744   1.292   6.962
  797SOL     OW 2722   0.672   1.616   5.740
  797SOL    HW1 2723   0.681   1.626   5.641
  797SOL    HW2 2724   0.632   1.527   5.761
  798SOL     OW 2725   1.650   1.720   6.980
  798SOL    HW1 2726   1.703   1.730   6.896
  798SOL    HW2 2727   1.623   1.810   7.014
  799SOL     OW 2728   1.841   0.175   6.549
  799SOL    HW1 2729   1.880   0.090   6.513
  799SOL    HW2 2730   1.743   0.177   6.530
  800SOL     OW 2731   0.263   0.326   6.306
  800SOL    HW1 2732   0.184   0.377   6.272
  800SOL    HW2 2733   0.254   0.311   6.404
  801SOL     OW 2734   1.194   1.612   5.617
  801SOL    HW1 2735   1.200   1.519   5.654
  801SOL    HW2 2736   1.135   1.612   5.537
  802SOL     OW 2737   0.822   1.002   6.958
  802SOL    HW1 2738   0.862   1.001   6.866
  802SOL    HW2 2739   0.832   1.094   6.998
  803SOL     OW 2740   0.916   0.910   5.877
  803SOL    HW1 2741   0.979   0.948   5.809
  803SOL    HW2 2742   0.956   0.827   5.916
  804SOL     OW 2743   1.504   1.607   5.630
  804SOL    HW1 2744   1.412   1.644   5.637
  804SOL    HW2 2745   1.542   1.627   5.540
  805SOL     OW 2746   0.372   1.288   7.076
  805SOL    HW1 2747   0.359   1.381   7.042
  805SOL    HW2 2748   0.288   1.236   7.063
  806SOL     OW 2749   1.614   1.292   6.875
  806SOL    HW1 2750   1.674   1.295   6.955
  806SOL    HW2 2751   1.539   1.356   6.888
  807SOL     OW 2752   1.039   1.098   6.282
  807SOL    HW1 2753   0.969   1.051   6.336
  807SOL    HW2 2754   1.098   1.030   6.239
  808SOL     OW 2755   1.014   0.236   6.557
  808SOL    HW1 2756   1.006   0.200   6.464
  808SOL    HW2 2757   1.012   0.160   6.622
  809SOL     OW 2758   0.590   1.487   6.077
  809SOL    HW1 2759   0.632   1.429   6.007
  809SOL    HW2 2760   0.546   1.566   6.033
  810SOL     OW 2761   1.709   0.385   6.967
  810SOL    HW1 2762   1.782   0.454   6.971
  810SOL    HW2 2763   1.737   0.310   6.908
  811SOL     OW 2764   0.255   1.348   5.876
  811SOL    HW1 2765   0.159   1.349   5.849
  811SOL    HW2 2766   0.267   1.401   5.960
  812SOL     OW 2767   0.105   1.013   7.312
  812SOL    HW1 2768   0.028   0.980   7.366
  812SOL    HW2 2769   0.190   0.983   7.354
  813SOL     OW 2770   0.672   0.203   7.075
  813SOL    HW1 2771   0.762   0.187   7.035
  813SOL    HW2 2772   0.680   0.208   7.174
  814SOL     OW 2773   0.075   0.345   5.619
  814SOL    HW1 2774  -0.017   0.317   5.590
  814SOL    HW2 2775   0.106   0.422   5.563
  815SOL     OW 2776   1.440   0.856   6.984
  815SOL    HW1 2777   1.383   0.908   6.921
  815SOL    HW2 2778   1.536   0.868   6.960
  816SOL     OW 2779   0.072   0.166   5.904
  816SOL    HW1 2780   0.055   0.249   5.850
  816SOL    HW2 2781   0.162   0.129   5.882
  817SOL     OW 2782   1.183   1.335   5.705
  817SOL    HW1 2783   1.084   1.324   5.707
  817SOL    HW2 2784   1.217   1.350   5.798
  818SOL     OW 2785   0.613   0.842   7.017
  818SOL    HW1 2786   0.669   0.923   7.000
  818SOL    HW2 2787   0.672   0.762   7.020
  819SOL     OW 2788   1.493   1.767   6.545
  819SOL    HW1 2789   1.526   1.831   6.476
  819SOL    HW2 2790   1.559   1.761   6.620
  820SOL     OW 2791   0.716   0.565   7.294
  820SOL    HW1 2792   0.735   0.630   7.368
  820SOL    HW2 2793   0.776   0.485   7.303
  821SOL     OW 2794   1.450   1.220   7.219
  821SOL    HW1 2795   1.441   1.210   7.318
  821SOL    HW2 2796   1.546   1.213   7.193
  822SOL     OW 2797   0.390   1.741   7.146
  822SOL    HW1 2798   0.299   1.782   7.144
  822SOL    HW2 2799   0.383   1.647   7.178
  823SOL     OW 2800   1.674   0.883   6.840
  823SOL    HW1 2801   1.647   0.794   6.803
  823SOL    HW2 2802   1.675   0.951   6.767
  824SOL     OW 2803   1.225   0.325   6.035
  824SOL    HW1 2804   1.290   0.251   6.024
  824SOL    HW2 2805   1.245   0.375   6.119
  825SOL     OW 2806   0.594   0.745   6.238
  825SOL    HW1 2807   0.644   0.830   6.219
  825SOL    HW2 2808   0.506   0.747   6.190
  826SOL     OW 2809   1.777   0.342   7.228
  826SOL    HW1 2810   1.760   0.373   7.134
  826SOL    HW2 2811   1.693   0.305   7.266
  827SOL     OW 2812   1.730   0.934   7.103
  827SOL    HW1 2813   1.768   1.025   7.118
  827SOL    HW2 2814   1.722   0.917   7.004
  828SOL     OW 2815   0.859   1.374   5.602
  828SOL    HW1 2816   0.813   1.389   5.690
  828SOL    HW2 2817   0.903   1.459   5.572
  829SOL     OW 2818   0.661   1.790   6.539
  829SOL    HW1 2819   0.615   1.878   6.526
  829SOL    HW2 2820   0.760   1.802   6.532
  830SOL     OW 2821   0.859   0.956   6.447
  830SOL    HW1 2822   0.913   0.887   6.495
  830SOL    HW2 2823   0.827   1.025   6.513
  831SOL     OW 2824   1.083   0.984   5.673
  831SOL    HW1 2825   1.060   1.037   5.591
  831SOL    HW2 2826   1.164   0.928   5.654
  832SOL     OW 2827   1.861   1.569   6.437
  832SOL    HW1 2828   1.790   1.557   6.367
  832SOL    HW2 2829   1.862   1.490   6.497
  833SOL     OW 2830   0.221   1.314   7.430
  833SOL    HW1 2831   0.156   1.241   7.409
  833SOL    HW2 2832   0.225   1.328   7.528
  834SOL     OW 2833   0.079   1.240   6.239
  834SOL    HW1 2834   0.078   1.193   6.327
  834SOL    HW2 2835   0.161   1.212   6.188
  835SOL     OW 2836   0.672   1.391   7.210
  835SOL    HW1 2837   0.594   1.341   7.248
  835SOL    HW2 2838   0.669   1.486   7.241
  836SOL     OW 2839   1.824   0.192   6.813
  836SOL    HW1 2840   1.820   0.102   6.857
  836SOL    HW2 2841   1.827   0.181   6.714
  837SOL     OW 2842   0.428   0.424   6.106
  837SOL    HW1 2843   0.458   0.352   6.044
  837SOL    HW2 2844   0.389   0.384   6.189
  838SOL     OW 2845   1.705   1.487   6.690
  838SOL    HW1 2846   1.612   1.462   6.663
  838SOL    HW2 2847   1.731   1.437   6.772
  839SOL     OW 2848   0.317   0.547   6.866
  839SOL    HW1 2849   0.355   0.488   6.938
  839SOL    HW2 2850   0.357   0.521   6.778
  840SOL     OW 2851   0.812   1.586   6.273
  840SOL    HW1 2852   0.844   1.596   6.179
  840SOL    HW2 2853   0.733   1.524   6.275
  841SOL     OW 2854   1.424   0.214   6.698
  841SOL    HW1 2855   1.476   0.149   6.753
  841SOL    HW2 2856   1.375   0.277   6.759
  842SOL     OW 2857   1.001   0.034   6.740
  842SOL    HW1 2858   0.938  -0.038   6.709
  842SOL    HW2 2859   1.094  -0.002   6.740
  843SOL     OW 2860   0.770   1.330   5.887
  843SOL    HW1 2861   0.724   1.243   5.904
  843SOL    HW2 2862   0.861   1.327   5.928
  844SOL     OW 2863   0.618   1.567   6.870
  844SOL    HW1 2864   0.613   1.649   6.927
  844SOL    HW2 2865   0.707   1.564   6.825
  845SOL     OW 2866   1.352   0.052   5.754
  845SOL    HW1 2867   1.387   0.011   5.670
  845SOL    HW2 2868   1.262   0.014   5.774
  846SOL     OW 2869   1.300   0.453   6.277
  846SOL    HW1 2870   1.241   0.533   6.281
  846SOL    HW2 2871   1.315   0.418   6.370
  847SOL     OW 2872   1.593   0.221   6.468
  847SOL    HW1 2873   1.509   0.220   6.522
  847SOL    HW2 2874   1.595   0.304   6.412
  848SOL     OW 2875   0.039   1.077   5.886
  848SOL    HW1 2876   0.138   1.066   5.877
  848SOL    HW2 2877  -0.001   0.991   5.918
  849SOL     OW 2878   0.875   1.646   5.923
  849SOL    HW1 2879   0.798   1.611   5.869
  849SOL    HW2 2880   0.843   1.717   5.985
  850SOL     OW 2881   0.230   0.628   7.561
  850SOL    HW1 2882   0.137   0.626   7.598
  850SOL    HW2 2883   0.231   0.589   7.469
  851SOL     OW 2884   0.225   0.275   8.444
  851SOL    HW1 2885   0.260   0.258   8.536
  851SOL    HW2 2886   0.137   0.230   8.432
  852SOL     OW 2887   0.019   0.368   8.095
  852SOL    HW1 2888  -0.063   0.411   8.134
  852SOL    HW2 2889  -0.009   0.295   8.032
  853SOL     OW 2890   0.569   1.275   8.613
  853SOL    HW1 2891   0.476   1.268   8.576
  853SOL    HW2 2892   0.580   1.364   8.657
  854SOL     OW 2893   1.555   1.511   8.151
  854SOL    HW1 2894   1.498   1.495   8.232
  854SOL    HW2 2895   1.496   1.521   8.071
  855SOL     OW 2896   1.135   0.703   8.165
  855SOL    HW1 2897   1.192   0.781   8.140
  855SOL    HW2 2898   1.075   0.729   8.241
  856SOL     OW 2899   1.755   0.607   7.679
  856SOL    HW1 2900   1.743   0.594   7.580
  856SOL    HW2 2901   1.725   0.526   7.728
  857SOL     OW 2902   0.768   1.144   8.471
  857SOL    HW1 2903   0.690   1.161   8.531
  857SOL    HW2 2904   0.802   1.231   8.435
  858SOL     OW 2905   0.850   0.798   9.271
  858SOL    HW1 2906   0.846   0.874   9.336
  858SOL    HW2 2907   0.872   0.834   9.180
  859SOL     OW 2908   0.685   1.012   8.113
  859SOL    HW1 2909   0.754   0.996   8.183
  859SOL    HW2 2910   0.612   1.069   8.151
  860SOL     OW 2911   0.686   1.161   9.251
  860SOL    HW1 2912   0.746   1.240   9.265
  860SOL    HW2 2913   0.600   1.192   9.210
  861SOL     OW 2914   0.335   1.435   8.509
  861SOL    HW1 2915   0.257   1.404   8.456
  861SOL    HW2 2916   0.393   1.493   8.452
  862SOL     OW 2917   1.460   1.505   8.787
  862SOL    HW1 2918   1.484   1.599   8.813
  862SOL    HW2 2919   1.444   1.451   8.869
  863SOL     OW 2920   0.438   0.392   8.947
  863SOL    HW1 2921   0.520   0.336   8.956
  863SOL    HW2 2922   0.357   0.334   8.951
  864SOL     OW 2923   1.603   0.447   8.185
  864SOL    HW1 2924   1.529   0.493   8.135
  864SOL    HW2 2925   1.654   0.515   8.238
  865SOL     OW 2926   0.231   1.713   7.931
  865SOL    HW1 2927   0.265   1.790   7.985
  865SOL    HW2 2928   0.275   1.713   7.841
  866SOL     OW 2929   1.127   1.341   9.138
  866SOL    HW1 2930   1.174   1.341   9.226
  866SOL    HW2 2931   1.079   1.254   9.127
  867SOL     OW 2932   0.230   1.434   7.986
  867SOL    HW1 2933   0.204   1.530   7.986
  867SOL    HW2 2934   0.159   1.380   8.031
  868SOL     OW 2935   0.240   1.091   8.334
  868SOL    HW1 2936   0.254   1.007   8.386
  868SOL    HW2 2937   0.185   1.155   8.389
  869SOL     OW 2938   0.620   1.786   8.887
  869SOL    HW1 2939   0.528   1.769   8.922
  869SOL    HW2 2940   0.648   1.878   8.913
  870SOL     OW 2941   0.606   0.964   7.571
  870SOL    HW1 2942   0.613   1.048   7.517
  870SOL    HW2 2943   0.652   0.977   7.659
  871SOL     OW 2944   1.594   0.114   8.928
  871SOL    HW1 2945   1.576   0.181   8.856
  871SOL    HW2 2946   1.591   0.160   9.017
  872SOL     OW 2947   0.122   0.643   8.011
  872SOL    HW1 2948   0.077   0.555   8.028
  872SOL    HW2 2949   0.121   0.697   8.095
  873SOL     OW 2950   1.842   1.767   7.807
  873SOL    HW1 2951   1.896   1.738   7.887
  873SOL    HW2 2952   1.872   1.857   7.778
  874SOL     OW 2953   0.027   1.596   7.565
  874SOL    HW1 2954   0.008   1.500   7.586
  874SOL    HW2 2955  -0.006   1.654   7.640
  875SOL     OW 2956   1.689   0.922   8.060
  875SOL    HW1 2957   1.784   0.893   8.068
  875SOL    HW2 2958   1.681   0.987   7.985
  876SOL     OW 2959   1.641   1.108   7.880
  876SOL    HW1 2960   1.727   1.110   7.828
  876SOL    HW2 2961   1.655   1.155   7.968
  877SOL     OW 2962   0.113   0.737   9.045
  877SOL    HW1 2963   0.201   0.724   9.090
  877SOL    HW2 2964   0.100   0.834   9.023
  878SOL     OW 2965   0.613   1.365   8.174
  878SOL    HW1 2966   0.564   1.278   8.183
  878SOL    HW2 2967   0.590   1.408   8.087
  879SOL     OW 2968   1.293   1.228   8.871
  879SOL    HW1 2969   1.330   1.155   8.813
  879SOL    HW2 2970   1.345   1.233   8.956
  880SOL     OW 2971   0.809   0.004   7.950
  880SOL    HW1 2972   0.849   0.095   7.941
  880SOL    HW2 2973   0.709   0.012   7.956
  881SOL     OW 2974   0.197   0.976   8.712
  881SOL    HW1 2975   0.286   0.931   8.698
  881SOL    HW2 2976   0.124   0.911   8.693
  882SOL     OW 2977   1.525   0.999   7.638
  882SOL    HW1 2978   1.462   0.923   7.651
  882SOL    HW2 2979   1.573   1.017   7.724
  883SOL     OW 2980   1.187   1.792   9.064
  883SOL    HW1 2981   1.211   1.852   8.988
  883SOL    HW2 2982   1.194   1.697   9.034
  884SOL     OW 2983   0.317   0.251   9.249
  884SOL    HW1 2984   0.388   0.322   9.255
  884SOL    HW2 2985   0.229   0.290   9.277
  885SOL     OW 2986   1.466   1.417   8.401
  885SOL    HW1 2987   1.407   1.423   8.481
  885SOL    HW2 2988   1.451   1.329   8.355
  886SOL     OW 2989   1.667   1.714   8.020
  886SOL    HW1 2990   1.626   1.691   7.932
  886SOL    HW2 2991   1.649   1.640   8.085
  887SOL     OW 2992   0.598   0.729   7.718
  887SOL    HW1 2993   0.622   0.798   7.650
  887SOL    HW2 2994   0.520   0.762   7.772
  888SOL     OW 2995   1.281   0.345   8.392
  888SOL    HW1 2996   1.195   0.295   8.379
  888SOL    HW2 2997   1.343   0.291   8.448
  889SOL     OW 2998   1.576   1.662   7.755
  889SOL    HW1 2999   1.665   1.708   7.758
  889SOL    HW2 3000   1.555   1.638   7.660
  890SOL     OW 3001   0.807   0.605   8.913
  890SOL    HW1 3002   0.760   0.602   9.002
  890SOL    HW2 3003   0.756   0.550   8.847
  891SOL     OW 3004   1.394   0.469   9.122
  891SOL    HW1 3005   1.374   0.512   9.210
  891SOL    HW2 3006   1.472   0.407   9.131
  892SOL     OW 3007   0.973   0.890   9.020
  892SOL    HW1 3008   1.019   0.806   8.991
  892SOL    HW2 3009   0.917   0.924   8.945
  893SOL     OW 3010   0.991   0.410   8.690
  893SOL    HW1 3011   0.914   0.444   8.744
  893SOL    HW2 3012   0.957   0.359   8.611
  894SOL     OW 3013   1.041   0.701   7.877
  894SOL    HW1 3014   1.067   0.697   7.973
  894SOL    HW2 3015   0.956   0.650   7.863
  895SOL     OW 3016   0.076   0.811   8.237
  895SOL    HW1 3017   0.175   0.799   8.246
  895SOL    HW2 3018   0.052   0.906   8.258
  896SOL     OW 3019   0.130   1.821   9.019
  896SOL    HW1 3020   0.120   1.806   9.118
  896SOL    HW2 3021   0.044   1.857   8.983
  897SOL     OW 3022   0.865   0.348   7.643
  897SOL    HW1 3023   0.924   0.411   7.594
  897SOL    HW2 3024   0.884   0.254   7.614
  898SOL     OW 3025   1.719   0.585   9.279
  898SOL    HW1 3026   1.693   0.674   9.243
  898SOL    HW2 3027   1.717   0.517   9.206
  899SOL     OW 3028   1.362   1.144   7.993
  899SOL    HW1 3029   1.445   1.115   7.945
  899SOL    HW2 3030   1.313   1.211   7.937
  900SOL     OW 3031   0.550   0.196   8.333
  900SOL    HW1 3032   0.545   0.191   8.433
  900SOL    HW2 3033   0.552   0.292   8.304
  901SOL     OW 3034   1.008   1.456   7.925
  901SOL    HW1 3035   0.962   1.528   7.873
  901SOL    HW2 3036   1.004   1.476   8.023
  902SOL     OW 3037   0.351   1.801   8.301
  902SOL    HW1 3038   0.401   1.715   8.307
  902SOL    HW2 3039   0.416   1.878   8.298
  903SOL     OW 3040   1.795   1.066   8.321
  903SOL    HW1 3041   1.733   1.051   8.245
  903SOL    HW2 3042   1.743   1.077   8.406
  904SOL     OW 3043   1.227   1.550   8.954
  904SOL    HW1 3044   1.233   1.473   9.018
  904SOL    HW2 3045   1.175   1.524   8.874
  905SOL     OW 3046   0.321   0.943   7.690
  905SOL    HW1 3047   0.403   0.982   7.648
  905SOL    HW2 3048   0.294   0.861   7.641
  906SOL     OW 3049   1.458   0.735   8.176
  906SOL    HW1 3050   1.453   0.670   8.251
  906SOL    HW2 3051   1.538   0.794   8.189
  907SOL     OW 3052   0.461   1.266   9.175
  907SOL    HW1 3053   0.411   1.267   9.089
  907SOL    HW2 3054   0.398   1.248   9.251
  908SOL     OW 3055   1.111   1.776   7.685
  908SOL    HW1 3056   1.051   1.714   7.735
  908SOL    HW2 3057   1.142   1.732   7.600
  909SOL     OW 3058   0.202   0.285   8.946
  909SOL    HW1 3059   0.122   0.345   8.933
  909SOL    HW2 3060   0.192   0.236   9.032
  910SOL     OW 3061   1.632   1.377   7.529
  910SOL    HW1 3062   1.600   1.471   7.519
  910SOL    HW2 3063   1.556   1.314   7.517
  911SOL     OW 3064   0.464   1.743   7.771
  911SOL    HW1 3065   0.497   1.782   7.857
  911SOL    HW2 3066   0.540   1.736   7.706
  912SOL     OW 3067   1.400   0.107   7.874
  912SOL    HW1 3068   1.376   0.070   7.784
  912SOL    HW2 3069   1.499   0.123   7.878
  913SOL     OW 3070   0.249   1.785   8.689
  913SOL    HW1 3071   0.306   1.720   8.739
  913SOL    HW2 3072   0.233   1.752   8.596
  914SOL     OW 3073   0.940   1.698   8.352
  914SOL    HW1 3074   1.020   1.641   8.373
  914SOL    HW2 3075   0.891   1.658   8.275
  915SOL     OW 3076   0.382   0.700   7.928
  915SOL    HW1 3077   0.427   0.610   7.925
  915SOL    HW2 3078   0.288   0.689   7.961
  916SOL     OW 3079   1.547   0.222   9.177
  916SOL    HW1 3080   1.542   0.259   9.269
  916SOL    HW2 3081   1.475   0.153   9.165
  917SOL     OW 3082   0.614   0.122   7.565
  917SOL    HW1 3083   0.712   0.100   7.572
  917SOL    HW2 3084   0.583   0.105   7.472
  918SOL     OW 3085   0.781   0.264   9.197
  918SOL    HW1 3086   0.848   0.203   9.240
  918SOL    HW2 3087   0.708   0.283   9.262
  919SOL     OW 3088   0.888   1.514   8.643
  919SOL    HW1 3089   0.865   1.489   8.549
  919SOL    HW2 3090   0.949   1.445   8.682
  920SOL     OW 3091   1.351   0.590   8.881
  920SOL    HW1 3092   1.379   0.547   8.966
  920SOL    HW2 3093   1.376   0.686   8.882
  921SOL     OW 3094   0.803   1.402   8.372
  921SOL    HW1 3095   0.893   1.416   8.330
  921SOL    HW2 3096   0.732   1.404   8.301
  922SOL     OW 3097   0.922   0.503   8.347
  922SOL    HW1 3098   0.897   0.494   8.251
  922SOL    HW2 3099   0.970   0.421   8.378
  923SOL     OW 3100   0.539   0.064   7.960
  923SOL    HW1 3101   0.458   0.065   8.018
  923SOL    HW2 3102   0.542   0.147   7.905
  924SOL     OW 3103   1.434   1.188   7.489
  924SOL    HW1 3104   1.466   1.112   7.546
  924SOL    HW2 3105   1.342   1.215   7.519
  925SOL     OW 3106   0.297   0.035   7.619
  925SOL    HW1 3107   0.346   0.119   7.598
  925SOL    HW2 3108   0.359  -0.030   7.664
  926SOL     OW 3109   0.935   0.236   7.928
  926SOL    HW1 3110   0.887   0.277   7.850
  926SOL    HW2 3111   1.034   0.234   7.909
  927SOL     OW 3112   1.076   0.683   8.912
  927SOL    HW1 3113   0.996   0.622   8.915
  927SOL    HW2 3114   1.157   0.630   8.888
  928SOL     OW 3115   1.227   1.570   8.241
  928SOL    HW1 3116   1.248   1.644   8.176
  928SOL    HW2 3117   1.295   1.570   8.314
  929SOL     OW 3118   0.459   1.152   8.189
  929SOL    HW1 3119   0.388   1.125   8.254
  929SOL    HW2 3120   0.433   1.124   8.096
  930SOL     OW 3121   1.271   1.797   8.039
  930SOL    HW1 3122   1.315   1.861   7.975
  930SOL    HW2 3123   1.221   1.849   8.109
  931SOL     OW 3124   1.032   0.549   7.464
  931SOL    HW1 3125   0.991   0.631   7.425
  931SOL    HW2 3126   1.096   0.575   7.537
  932SOL     OW 3127   0.078   0.556   8.834
  932SOL    HW1 3128   0.170   0.555   8.793
  932SOL    HW2 3129   0.072   0.630   8.901
  933SOL     OW 3130   0.561   0.222   8.595
  933SOL    HW1 3131   0.599   0.138   8.632
  933SOL    HW2 3132   0.473   0.241   8.639
  934SOL     OW 3133   0.866   0.454   8.090
  934SOL    HW1 3134   0.834   0.526   8.028
  934SOL    HW2 3135   0.890   0.373   8.037
  935SOL     OW 3136   1.017   0.039   8.201
  935SOL    HW1 3137   0.945   0.044   8.132
  935SOL    HW2 3138   0.993  -0.030   8.270
  936SOL     OW 3139   1.429   1.173   8.315
  936SOL    HW1 3140   1.374   1.089   8.308
  936SOL    HW2 3141   1.455   1.202   8.223
  937SOL     OW 3142   1.466   0.590   8.440
  937SOL    HW1 3143   1.436   0.495   8.447
  937SOL    HW2 3144   1.539   0.606   8.506
  938SOL     OW 3145   1.857   0.833   7.825
  938SOL    HW1 3146   1.899   0.769   7.889
  938SOL    HW2 3147   1.819   0.782   7.747
  939SOL     OW 3148   0.488   1.385   7.622
  939SOL    HW1 3149   0.401   1.370   7.669
  939SOL    HW2 3150   0.471   1.411   7.527
  940SOL     OW 3151   1.664   1.280   8.105
  940SOL    HW1 3152   1.763   1.288   8.119
  940SOL    HW2 3153   1.619   1.364   8.136
  941SOL     OW 3154   1.390   0.575   7.526
  941SOL    HW1 3155   1.336   0.554   7.607
  941SOL    HW2 3156   1.481   0.534   7.535
  942SOL     OW 3157   0.527   0.256   7.776
  942SOL    HW1 3158   0.554   0.197   7.701
  942SOL    HW2 3159   0.527   0.351   7.745
  943SOL     OW 3160   1.754   1.223   9.036
  943SOL    HW1 3161   1.845   1.184   9.023
  943SOL    HW2 3162   1.762   1.319   9.060
  944SOL     OW 3163   1.064   1.347   8.788
  944SOL    HW1 3164   0.984   1.324   8.843
  944SOL    HW2 3165   1.147   1.321   8.837
  945SOL     OW 3166   1.592   1.629   9.073
  945SOL    HW1 3167   1.619   1.663   8.983
  945SOL    HW2 3168   1.671   1.591   9.119
  946SOL     OW 3169   1.111   1.195   8.548
  946SOL    HW1 3170   1.071   1.239   8.629
  946SOL    HW2 3171   1.070   1.232   8.465
  947SOL     OW 3172   1.638   1.099   8.527
  947SOL    HW1 3173   1.643   1.180   8.586
  947SOL    HW2 3174   1.552   1.101   8.476
  948SOL     OW 3175   0.915   0.089   8.850
  948SOL    HW1 3176   0.940   0.069   8.755
  948SOL    HW2 3177   0.987   0.145   8.892
  949SOL     OW 3178   0.980   1.116   9.167
  949SOL    HW1 3179   0.881   1.122   9.177
  949SOL    HW2 3180   1.003   1.036   9.111
  950SOL     OW 3181   0.705   1.050   7.816
  950SOL    HW1 3182   0.691   1.057   7.915
  950SOL    HW2 3183   0.789   0.999   7.798
  951SOL     OW 3184   0.410   0.813   8.699
  951SOL    HW1 3185   0.496   0.825   8.749
  951SOL    HW2 3186   0.368   0.726   8.726
  952SOL     OW 3187   1.274   0.386   8.710
  952SOL    HW1 3188   1.295   0.460   8.774
  952SOL    HW2 3189   1.185   0.403   8.667
  953SOL     OW 3190   0.064   1.564   8.779
  953SOL    HW1 3191   0.018   1.646   8.745
  953SOL    HW2 3192   0.162   1.583   8.788
  954SOL     OW 3193   0.367   1.100   7.949
  954SOL    HW1 3194   0.360   1.183   7.893
  954SOL    HW2 3195   0.371   1.020   7.889
  955SOL     OW 3196   0.566   0.537   8.313
  955SOL    HW1 3197   0.578   0.603   8.239
  955SOL    HW2 3198   0.612   0.571   8.396
  956SOL     OW 3199   1.252   1.348   7.836
  956SOL    HW1 3200   1.302   1.425   7.876
  956SOL    HW2 3201   1.157   1.350   7.868
  957SOL     OW 3202   1.272   1.445   8.590
  957SOL    HW1 3203   1.319   1.458   8.677
  957SOL    HW2 3204   1.206   1.371   8.599
  958SOL     OW 3205   1.582   0.639   7.920
  958SOL    HW1 3206   1.551   0.700   7.993
  958SOL    HW2 3207   1.632   0.691   7.851
  959SOL     OW 3208   0.354   1.510   8.777
  959SOL    HW1 3209   0.333   1.466   8.690
  959SOL    HW2 3210   0.451   1.536   8.780
  960SOL     OW 3211   0.402   0.751   9.046
  960SOL    HW1 3212   0.470   0.806   8.999
  960SOL    HW2 3213   0.442   0.663   9.073
  961SOL     OW 3214   1.587   0.779   9.118
  961SOL    HW1 3215   1.495   0.817   9.113
  961SOL    HW2 3216   1.647   0.826   9.053
  962SOL     OW 3217   1.013   0.105   9.218
  962SOL    HW1 3218   1.019   0.190   9.166
  962SOL    HW2 3219   1.045   0.029   9.161
  963SOL     OW 3220   0.504   0.050   9.188
  963SOL    HW1 3221   0.462  -0.007   9.118
  963SOL    HW2 3222   0.438   0.119   9.220
  964SOL     OW 3223   0.573   0.870   8.477
  964SOL    HW1 3224   0.617   0.959   8.468
  964SOL    HW2 3225   0.510   0.870   8.554
  965SOL     OW 3226   1.360   0.862   8.493
  965SOL    HW1 3227   1.285   0.862   8.427
  965SOL    HW2 3228   1.397   0.770   8.502
  966SOL     OW 3229   1.209   0.525   7.723
  966SOL    HW1 3230   1.222   0.441   7.777
  966SOL    HW2 3231   1.180   0.599   7.783
  967SOL     OW 3232   0.307   0.213   8.679
  967SOL    HW1 3233   0.284   0.250   8.769
  967SOL    HW2 3234   0.277   0.118   8.673
  968SOL     OW 3235   0.037   1.310   8.730
  968SOL    HW1 3236   0.090   1.261   8.798
  968SOL    HW2 3237   0.059   1.408   8.735
  969SOL     OW 3238   0.732   0.634   8.512
  969SOL    HW1 3239   0.791   0.608   8.436
  969SOL    HW2 3240   0.704   0.730   8.501
  970SOL     OW 3241   1.728   0.935   9.302
  970SOL    HW1 3242   1.682   0.928   9.213
  970SOL    HW2 3243   1.666   0.979   9.368
  971SOL     OW 3244   0.307   0.063   8.066
  971SOL    HW1 3245   0.296   0.157   8.099
  971SOL    HW2 3246   0.302   0.000   8.143
  972SOL     OW 3247   1.622   0.367   7.822
  972SOL    HW1 3248   1.624   0.291   7.886
  972SOL    HW2 3249   1.574   0.444   7.862
  973SOL     OW 3250   1.023   0.766   8.414
  973SOL    HW1 3251   1.038   0.787   8.510
  973SOL    HW2 3252   0.993   0.671   8.405
  974SOL     OW 3253   0.980   1.573   9.148
  974SOL    HW1 3254   0.960   1.617   9.060
  974SOL    HW2 3255   1.019   1.482   9.132
  975SOL     OW 3256   1.859   1.518   9.053
  975SOL    HW1 3257   1.873   1.545   8.958
  975SOL    HW2 3258   1.942   1.540   9.106
  976SOL     OW 3259   0.350   0.898   9.252
  976SOL    HW1 3260   0.426   0.942   9.300
  976SOL    HW2 3261   0.385   0.851   9.170
  977SOL     OW 3262   1.540   0.274   7.573
  977SOL    HW1 3263   1.479   0.199   7.596
  977SOL    HW2 3264   1.562   0.326   7.656
  978SOL     OW 3265   1.303   0.838   7.490
  978SOL    HW1 3266   1.337   0.745   7.505
  978SOL    HW2 3267   1.321   0.865   7.395
  979SOL     OW 3268   1.068   1.333   8.297
  979SOL    HW1 3269   1.075   1.249   8.242
  979SOL    HW2 3270   1.130   1.402   8.261
  980SOL     OW 3271   0.319   0.810   8.397
  980SOL    HW1 3272   0.412   0.846   8.402
  980SOL    HW2 3273   0.313   0.725   8.449
  981SOL     OW 3274   0.339   0.509   8.454
  981SOL    HW1 3275   0.287   0.426   8.437
  981SOL    HW2 3276   0.416   0.514   8.390
  982SOL     OW 3277   1.138   0.380   9.126
  982SOL    HW1 3278   1.093   0.443   9.190
  982SOL    HW2 3279   1.231   0.411   9.109
  983SOL     OW 3280   1.160   0.207   8.925
  983SOL    HW1 3281   1.160   0.271   9.002
  983SOL    HW2 3282   1.188   0.255   8.842
  984SOL     OW 3283   0.008   1.326   7.648
  984SOL    HW1 3284  -0.085   1.347   7.617
  984SOL    HW2 3285   0.018   1.227   7.661
  985SOL     OW 3286   0.088   1.801   8.375
  985SOL    HW1 3287   0.046   1.715   8.348
  985SOL    HW2 3288   0.182   1.804   8.341
  986SOL     OW 3289   0.504   1.568   8.358
  986SOL    HW1 3290   0.570   1.642   8.367
  986SOL    HW2 3291   0.548   1.489   8.316
  987SOL     OW 3292   1.002   0.796   8.686
  987SOL    HW1 3293   1.043   0.764   8.772
  987SOL    HW2 3294   0.906   0.769   8.683
  988SOL     OW 3295   0.040   0.544   8.562
  988SOL    HW1 3296   0.125   0.511   8.521
  988SOL    HW2 3297   0.053   0.559   8.660
  989SOL     OW 3298   0.189   0.520   9.170
  989SOL    HW1 3299   0.248   0.480   9.100
  989SOL    HW2 3300   0.131   0.591   9.129
  990SOL     OW 3301   1.369   0.950   9.108
  990SOL    HW1 3302   1.408   1.039   9.128
  990SOL    HW2 3303   1.379   0.930   9.011
  991SOL     OW 3304   0.815   0.572   7.773
  991SOL    HW1 3305   0.822   0.483   7.727
  991SOL    HW2 3306   0.721   0.606   7.765
  992SOL     OW 3307   1.657   0.604   8.654
  992SOL    HW1 3308   1.619   0.535   8.716
  992SOL    HW2 3309   1.739   0.568   8.610
  993SOL     OW 3310   0.252   1.564   9.192
  993SOL    HW1 3311   0.222   1.621   9.268
  993SOL    HW2 3312   0.245   1.467   9.218
  994SOL     OW 3313   0.671   0.464   8.717
  994SOL    HW1 3314   0.637   0.375   8.687
  994SOL    HW2 3315   0.697   0.518   8.637
  995SOL     OW 3316   0.930   1.678   8.913
  995SOL    HW1 3317   0.906   1.660   8.818
  995SOL    HW2 3318   0.960   1.772   8.923
  996SOL     OW 3319   0.473   0.500   7.639
  996SOL    HW1 3320   0.534   0.580   7.643
  996SOL    HW2 3321   0.378   0.531   7.646
  997SOL     OW 3322   0.159   1.137   8.914
  997SOL    HW1 3323   0.181   1.076   8.990
  997SOL    HW2 3324   0.169   1.088   8.828
  998SOL     OW 3325   1.347   1.059   8.682
  998SOL    HW1 3326   1.371   0.996   8.608
  998SOL    HW2 3327   1.257   1.099   8.664
  999SOL     OW 3328   1.302   0.855   7.757
  999SOL    HW1 3329   1.216   0.824   7.799
  999SOL    HW2 3330   1.298   0.841   7.658
 1000SOL     OW 3331   1.759   1.747   8.602
 1000SOL    HW1 3332   1.820   1.777   8.529
 1000SOL    HW2 3333   1.721   1.658   8.580
 1001SOL     OW 3334   1.252   1.731   8.576
 1001SOL    HW1 3335   1.336   1.736   8.522
 1001SOL    HW2 3336   1.229   1.635   8.594
 1002SOL     OW 3337   0.083   1.258   8.470
 1002SOL    HW1 3338   0.078   1.257   8.570
 1002SOL    HW2 3339   0.000   1.217   8.432
 1003SOL     OW 3340   0.688   1.662   9.164
 1003SOL    HW1 3341   0.632   1.743   9.173
 1003SOL    HW2 3342   0.740   1.666   9.078
 1004SOL     OW 3343   1.726   0.135   7.971
 1004SOL    HW1 3344   1.799   0.118   7.904
 1004SOL    HW2 3345   1.695   0.048   8.009
 1005SOL     OW 3346   1.388   1.573   7.925
 1005SOL    HW1 3347   1.455   1.585   7.851
 1005SOL    HW2 3348   1.348   1.662   7.948
 1006SOL     OW 3349   0.130   1.794   9.299
 1006SOL    HW1 3350   0.089   1.720   9.352
 1006SOL    HW2 3351   0.194   1.845   9.357
 1007SOL     OW 3352   1.280   0.927   8.120
 1007SOL    HW1 3353   1.340   0.846   8.122
 1007SOL    HW2 3354   1.320   0.996   8.060
 1008SOL     OW 3355   0.830   1.273   8.870
 1008SOL    HW1 3356   0.825   1.306   8.965
 1008SOL    HW2 3357   0.744   1.292   8.824
 1009SOL     OW 3358   0.672   1.616   7.602
 1009SOL    HW1 3359   0.681   1.626   7.503
 1009SOL    HW2 3360   0.632   1.527   7.623
 1010SOL     OW 3361   1.650   1.720   8.842
 1010SOL    HW1 3362   1.703   1.730   8.758
 1010SOL    HW2 3363   1.623   1.810   8.876
 1011SOL     OW 3364   1.841   0.175   8.411
 1011SOL    HW1 3365   1.880   0.090   8.375
 1011SOL    HW2 3366   1.743   0.177   8.392
 1012SOL     OW 3367   0.263   0.326   8.168
 1012SOL    HW1 3368   0.184   0.377   8.134
 1012SOL    HW2 3369   0.254   0.311   8.266
 1013SOL     OW 3370   1.194   1.612   7.479
 1013SOL    HW1 3371   1.200   1.519   7.516
 1013SOL    HW2 3372   1.135   1.612   7.399
 1014SOL     OW 3373   0.822   1.002   8.820
 1014SOL    HW1 3374   0.862   1.001   8.728
 1014SOL    HW2 3375   0.832   1.094   8.860
 1015SOL     OW 3376   0.916   0.910   7.739
 1015SOL    HW1 3377   0.979   0.948   7.671
 1015SOL    HW2 3378   0.956   0.827   7.778
 1016SOL     OW 3379   1.504   1.607   7.492
 1016SOL    HW1 3380   1.412   1.644   7.499
 1016SOL    HW2 3381   1.542   1.627   7.402
 1017SOL     OW 3382   0.372   1.288   8.938
 1017SOL    HW1 3383   0.359   1.381   8.904
 1017SOL    HW2 3384   0.288   1.236   8.925
 1018SOL     OW 3385   1.614   1.292   8.737
 1018SOL    HW1 3386   1.674   1.295   8.817
 1018SOL    HW2 3387   1.539   1.356   8.750
 1019SOL     OW 3388   1.039   1.098   8.144
 1019SOL    HW1 3389   0.969   1.051   8.198
 1019SOL    HW2 3390   1.098   1.030   8.101
 1020SOL     OW 3391   1.014   0.236   8.419
 1020SOL    HW1 3392   1.006   0.200   8.326
 1020SOL    HW2 3393   1.012   0.160   8.484
 1021SOL     OW 3394   0.590   1.487   7.939
 1021SOL    HW1 3395   0.632   1.429   7.869
 1021SOL    HW2 3396   0.546   1.566   7.895
 1022SOL     OW 3397   1.709   0.385   8.829
 1022SOL    HW1 3398   1.782   0.454   8.833
 1022SOL    HW2 3399   1.737   0.310   8.770
 1023SOL     OW 3400   0.255   1.348   7.738
 1023SOL    HW1 3401   0.159   1.349   7.711
 1023SOL    HW2 3402   0.267   1.401   7.822
 1024SOL     OW 3403   0.105   1.013   9.174
 1024SOL    HW1 3404   0.028   0.980   9.228
 1024SOL    HW2 3405   0.190   0.983   9.216
 1025SOL     OW 3406   0.672   0.203   8.937
 1025SOL    HW1 3407   0.762   0.187   8.897
 1025SOL    HW2 3408   0.680   0.208   9.036
 1026SOL     OW 3409   0.075   0.345   7.481
 1026SOL    HW1 3410  -0.017   0.317   7.452
 1026SOL    HW2 3411   0.106   0.422   7.425
 1027SOL     OW 3412   1.440   0.856   8.846
 1027SOL    HW1 3413   1.383   0.908   8.783
 1027SOL    HW2 3414   1.536   0.868   8.822
 1028SOL     OW 3415   0.072   0.166   7.766
 1028SOL    HW1 3416   0.055   0.249   7.712
 1028SOL    HW2 3417   0.162   0.129   7.744
 1029SOL     OW 3418   1.183   1.335   7.567
 1029SOL    HW1 3419   1.084   1.324   7.569
 1029SOL    HW2 3420   1.217   1.350   7.660
 1030SOL     OW 3421   0.613   0.842   8.879
 1030SOL    HW1 3422   0.669   0.923   8.862
 1030SOL    HW2 3423   0.672   0.762   8.882
 1031SOL     OW 3424   1.493   1.767   8.407
 1031SOL    HW1 3425   1.526   1.831   8.338
 1031SOL    HW2 3426   1.559   1.761   8.482
 1032SOL     OW 3427   0.716   0.565   9.156
 1032SOL    HW1 3428   0.735   0.630   9.230
 1032SOL    HW2 3429   0.776   0.485   9.165
 1033SOL     OW 3430   1.450   1.220   9.081
 1033SOL    HW1 3431   1.441   1.210   9.180
 1033SOL    HW2 3432   1.546   1.213   9.055
 1034SOL     OW 3433   0.390   1.741   9.008
 1034SOL    HW1 3434   0.299   1.782   9.006
 1034SOL    HW2 3435   0.383   1.647   9.040
 1035SOL     OW 3436   1.674   0.883   8.702
 1035SOL    HW1 3437   1.647   0.794   8.665
 1035SOL    HW2 3438   1.675   0.951   8.629
 1036SOL     OW 3439   1.225   0.325   7.897
 1036SOL    HW1 3440   1.290   0.251   7.886
 1036SOL    HW2 3441   1.245   0.375   7.981
 1037SOL     OW 3442   0.594   0.745   8.100
 1037SOL    HW1 3443   0.644   0.830   8.081
 1037SOL    HW2 3444   0.506   0.747   8.052
 1038SOL     OW 3445   1.777   0.342   9.090
 1038SOL    HW1 3446   1.760   0.373   8.996
 1038SOL    HW2 3447   1.693   0.305   9.128
 1039SOL     OW 3448   1.730   0.934   8.965
 1039SOL    HW1 3449   1.768   1.025   8.980
 1039SOL    HW2 3450   1.722   0.917   8.866
 1040SOL     OW 3451   0.859   1.374   7.464
 1040SOL    HW1 3452   0.813   1.389   7.552
 1040SOL    HW2 3453   0.903   1.459   7.434
 1041SOL     OW 3454   0.661   1.790   8.401
 1041SOL    HW1 3455   0.615   1.878   8.388
 1041SOL    HW2 3456   0.760   1.802   8.394
 1042SOL     OW 3457   0.859   0.956   8.309
 1042SOL    HW1 3458   0.913   0.887   8.357
 1042SOL    HW2 3459   0.827   1.025   8.375
 1043SOL     OW 3460   1.083   0.984   7.535
 1043SOL    HW1 3461   1.060   1.037   7.453
 1043SOL    HW2 3462   1.164   0.928   7.516
 1044SOL     OW 3463   1.861   1.569   8.299
 1044SOL    HW1 3464   1.790   1.557   8.229
 1044SOL    HW2 3465   1.862   1.490   8.359
 1045SOL     OW 3466   0.221   1.314   9.292
 1045SOL    HW1 3467   0.156   1.241   9.271
 1045SOL    HW2 3468   0.225   1.328   9.390
 1046SOL     OW 3469   0.079   1.240   8.101
 1046SOL    HW1 3470   0.078   1.193   8.189
 1046SOL    HW2 3471   0.161   1.212   8.050
 1047SOL     OW 3472   0.672   1.391   9.072
 1047SOL    HW1 3473   0.594   1.341   9.110
 1047SOL    HW2 3474   0.669   1.486   9.103
 1048SOL     OW 3475   1.824   0.192   8.675
 1048SOL    HW1 3476   1.820   0.102   8.719
 1048SOL    HW2 3477   1.827   0.181   8.576
 1049SOL     OW 3478   0.428   0.424   7.968
 1049SOL    HW1 3479   0.458   0.352   7.906
 1049SOL    HW2 3480   0.389   0.384   8.051
 1050SOL     OW 3481   1.705   1.487   8.552
 1050SOL    HW1 3482   1.612   1.462   8.525
 1050SOL    HW2 3483   1.731   1.437   8.634
 1051SOL     OW 3484   0.317   0.547   8.728
 1051SOL    HW1 3485   0.355   0.488   8.800
 1051SOL    HW2 3486   0.357   0.521   8.640
 1052SOL     OW 3487   0.812   1.586   8.135
 1052SOL    HW1 3488   0.844   1.596   8.041
 1052SOL    HW2 3489   0.733   1.524   8.137
 1053SOL     OW 3490   1.424   0.214   8.560
 1053SOL    HW1 3491   1.476   0.149   8.615
 1053SOL    HW2 3492   1.375   0.277   8.621
 1054SOL     OW 3493   1.001   0.034   8.602
 1054SOL    HW1 3494   0.938  -0.038   8.571
 1054SOL    HW2 3495   1.094  -0.002   8.602
 1055SOL     OW 3496   0.770   1.330   7.749
 1055SOL    HW1 3497   0.724   1.243   7.766
 1055SOL    HW2 3498   0.861   1.327   7.790
 1056SOL     OW 3499   0.618   1.567   8.732
 1056SOL    HW1 3500   0.613   1.649   8.789
 1056SOL    HW2 3501   0.707   1.564   8.687
 1057SOL     OW 3502   1.352   0.052   7.616
 1057SOL    HW1 3503   1.387   0.011   7.532
 1057SOL    HW2 3504   1.262   0.014   7.636
 1058SOL     OW 3505   1.300   0.453   8.139
 1058SOL    HW1 3506   1.241   0.533   8.143
 1058SOL    HW2 3507   1.315   0.418   8.232
 1059SOL     OW 3508   1.593   0.221   8.330
 1059SOL    HW1 3509   1.509   0.220   8.384
 1059SOL    HW2 3510   1.595   0.304   8.274
 1060SOL     OW 3511   0.039   1.077   7.748
 1060SOL    HW1 3512   0.138   1.066   7.739
 1060SOL    HW2 3513  -0.001   0.991   7.780
 1061SOL     OW 3514   0.875   1.646   7.785
 1061SOL    HW1 3515   0.798   1.611   7.731
 1061SOL    HW2 3516   0.843   1.717   7.847
 1062SOL     OW 3517   0.230   0.628   9.423
 1062SOL    HW1 3518   0.137   0.626   9.460
 1062SOL    HW2 3519   0.231   0.589   9.331
 1063SOL     OW 3520   0.225   0.275  10.306
 1063SOL    HW1 3521   0.260   0.258  10.398
 1063SOL    HW2 3522   0.137   0.230  10.294
 1064SOL     OW 3523   0.019   0.368   9.957
 1064SOL    HW1 3524  -0.063   0.411   9.996
 1064SOL    HW2 3525  -0.009   0.295   9.894
 1065SOL     OW 3526   0.569   1.275  10.475
 1065SOL    HW1 3527   0.476   1.268  10.438
 1065SOL    HW2 3528   0.580   1.364  10.519
 1066SOL     OW 3529   1.555   1.511  10.013
 1066SOL    HW1 3530   1.498   1.495  10.094
 1066SOL    HW2 3531   1.496   1.521   9.933
 1067SOL     OW 3532   1.135   0.703  10.027
 1067SOL    HW1 3533   1.192   0.781  10.002
 1067SOL    HW2 3534   1.075   0.729  10.103
 1068SOL     OW 3535   1.755   0.607   9.541
 1068SOL    HW1 3536   1.743   0.594   9.442
 1068SOL    HW2 3537   1.725   0.526   9.590
 1069SOL     OW 3538   0.768   1.144  10.333
 1069SOL    HW1 3539   0.690   1.161  10.393
 1069SOL    HW2 3540   0.802   1.231  10.297
 1070SOL     OW 3541   0.850   0.798  11.133
 1070SOL    HW1 3542   0.846   0.874  11.198
 1070SOL    HW2 3543   0.872   0.834  11.042
 1071SOL     OW 3544   0.685   1.012   9.975
 1071SOL    HW1 3545   0.754   0.996  10.045
 1071SOL    HW2 3546   0.612   1.069  10.013
 1072SOL     OW 3547   0.686   1.161  11.113
 1072SOL    HW1 3548   0.746   1.240  11.127
 1072SOL    HW2 3549   0.600   1.192  11.072
 1073SOL     OW 3550   0.335   1.435  10.371
 1073SOL    HW1 3551   0.257   1.404  10.318
 1073SOL    HW2 3552   0.393   1.493  10.314
 1074SOL     OW 3553   1.460   1.505  10.649
 1074SOL    HW1 3554   1.484   1.599  10.675
 1074SOL    HW2 3555   1.444   1.451  10.731
 1075SOL     OW 3556   0.438   0.392  10.809
 1075SOL    HW1 3557   0.520   0.336  10.818
 1075SOL    HW2 3558   0.357   0.334  10.813
 1076SOL     OW 3559   1.603   0.447  10.047
 1076SOL    HW1 3560   1.529   0.493   9.997
 1076SOL    HW2 3561   1.654   0.515  10.100
 1077SOL     OW 3562   0.231   1.713   9.793
 1077SOL    HW1 3563   0.265   1.790   9.847
 1077SOL    HW2 3564   0.275   1.713   9.703
 1078SOL     OW 3565   1.127   1.341  11.000
 1078SOL    HW1 3566   1.174   1.341  11.088
 1078SOL    HW2 3567   1.079   1.254  10.989
 1079SOL     OW 3568   0.230   1.434   9.848
 1079SOL    HW1 3569   0.204   1.530   9.848
 1079SOL    HW2 3570   0.159   1.380   9.893
 1080SOL     OW 3571   0.240   1.091  10.196
 1080SOL    HW1 3572   0.254   1.007  10.248
 1080SOL    HW2 3573   0.185   1.155  10.251
 1081SOL     OW 3574   0.620   1.786  10.749
 1081SOL    HW1 3575   0.528   1.769  10.784
 1081SOL    HW2 3576   0.648   1.878  10.775
 1082SOL     OW 3577   0.606   0.964   9.433
 1082SOL    HW1 3578   0.613   1.048   9.379
 1082SOL    HW2 3579   0.652   0.977   9.521
 1083SOL     OW 3580   1.594   0.114  10.790
 1083SOL    HW1 3581   1.576   0.181  10.718
 1083SOL    HW2 3582   1.591   0.160  10.879
 1084SOL     OW 3583   0.122   0.643   9.873
 1084SOL    HW1 3584   0.077   0.555   9.890
 1084SOL    HW2 3585   0.121   0.697   9.957
 1085SOL     OW 3586   1.842   1.767   9.669
 1085SOL    HW1 3587   1.896   1.738   9.749
 1085SOL    HW2 3588   1.872   1.857   9.640
 1086SOL     OW 3589   0.027   1.596   9.427
 1086SOL    HW1 3590   0.008   1.500   9.448
 1086SOL    HW2 3591  -0.006   1.654   9.502
 1087SOL     OW 3592   1.689   0.922   9.922
 1087SOL    HW1 3593   1.784   0.893   9.930
 1087SOL    HW2 3594   1.681   0.987   9.847
 1088SOL     OW 3595   1.641   1.108   9.742
 1088SOL    HW1 3596   1.727   1.110   9.690
 1088SOL    HW2 3597   1.655   1.155   9.830
 1089SOL     OW 3598   0.113   0.737  10.907
 1089SOL    HW1 3599   0.201   0.724  10.952
 1089SOL    HW2 3600   0.100   0.834  10.885
 1090SOL     OW 3601   0.613   1.365  10.036
 1090SOL    HW1 3602   0.564   1.278  10.045
 1090SOL    HW2 3603   0.590   1.408   9.949
 1091SOL     OW 3604   1.293   1.228  10.733
 1091SOL    HW1 3605   1.330   1.155  10.675
 1091SOL    HW2 3606   1.345   1.233  10.818
 1092SOL     OW 3607   0.809   0.004   9.812
 1092SOL    HW1 3608   0.849   0.095   9.803
 1092SOL    HW2 3609   0.709   0.012   9.818
 1093SOL     OW 3610   0.197   0.976  10.574
 1093SOL    HW1 3611   0.286   0.931  10.560
 1093SOL    HW2 3612   0.124   0.911  10.555
 1094SOL     OW 3613   1.525   0.999   9.500
 1094SOL    HW1 3614   1.462   0.923   9.513
 1094SOL    HW2 3615   1.573   1.017   9.586
 1095SOL     OW 3616   1.187   1.792  10.926
 1095SOL    HW1 3617   1.211   1.852  10.850
 1095SOL    HW2 3618   1.194   1.697  10.896
 1096SOL     OW 3619   0.317   0.251  11.111
 1096SOL    HW1 3620   0.388   0.322  11.117
 1096SOL    HW2 3621   0.229   0.290  11.139
 1097SOL     OW 3622   1.466   1.417  10.263
 1097SOL    HW1 3623   1.407   1.423  10.343
 1097SOL    HW2 3624   1.451   1.329  10.217
 1098SOL     OW 3625   1.667   1.714   9.882
 1098SOL    HW1 3626   1.626   1.691   9.794
 1098SOL    HW2 3627   1.649   1.640   9.947
 1099SOL     OW 3628   0.598   0.729   9.580
 1099SOL    HW1 3629   0.622   0.798   9.512
 1099SOL    HW2 3630   0.520   0.762   9.634
 1100SOL     OW 3631   1.281   0.345  10.254
 1100SOL    HW1 3632   1.195   0.295  10.241
 1100SOL    HW2 3633   1.343   0.291  10.310
 1101SOL     OW 3634   1.576   1.662   9.617
 1101SOL    HW1 3635   1.665   1.708   9.620
 1101SOL    HW2 3636   1.555   1.638   9.522
 1102SOL     OW 3637   0.807   0.605  10.775
 1102SOL    HW1 3638   0.760   0.602  10.864
 1102SOL    HW2 3639   0.756   0.550  10.709
 1103SOL     OW 3640   1.394   0.469  10.984
 1103SOL    HW1 3641   1.374   0.512  11.072
 1103SOL    HW2 3642   1.472   0.407  10.993
 1104SOL     OW 3643   0.973   0.890  10.882
 1104SOL    HW1 3644   1.019   0.806  10.853
 1104SOL    HW2 3645   0.917   0.924  10.807
 1105SOL     OW 3646   0.991   0.410  10.552
 1105SOL    HW1 3647   0.914   0.444  10.606
 1105SOL    HW2 3648   0.957   0.359  10.473
 1106SOL     OW 3649   1.041   0.701   9.739
 1106SOL    HW1 3650   1.067   0.697   9.835
 1106SOL    HW2 3651   0.956   0.650   9.725
 1107SOL     OW 3652   0.076   0.811  10.099
 1107SOL    HW1 3653   0.175   0.799  10.108
 1107SOL    HW2 3654   0.052   0.906  10.120
 1108SOL     OW 3655   0.130   1.821  10.881
 1108SOL    HW1 3656   0.120   1.806  10.980
 1108SOL    HW2 3657   0.044   1.857  10.845
 1109SOL     OW 3658   0.865   0.348   9.505
 1109SOL    HW1 3659   0.924   0.411   9.456
 1109SOL    HW2 3660   0.884   0.254   9.476
 1110SOL     OW 3661   1.719   0.585  11.141
 1110SOL    HW1 3662   1.693   0.674  11.105
 1110SOL    HW2 3663   1.717   0.517  11.068
 1111SOL     OW 3664   1.362   1.144   9.855
 1111SOL    HW1 3665   1.445   1.115   9.807
 1111SOL    HW2 3666   1.313   1.211   9.799
 1112SOL     OW 3667   0.550   0.196  10.195
 1112SOL    HW1 3668   0.545   0.191  10.295
 1112SOL    HW2 3669   0.552   0.292  10.166
 1113SOL     OW 3670   1.008   1.456   9.787
 1113SOL    HW1 3671   0.962   1.528   9.735
 1113SOL    HW2 3672   1.004   1.476   9.885
 1114SOL     OW 3673   0.351   1.801  10.163
 1114SOL    HW1 3674   0.401   1.715  10.169
 1114SOL    HW2 3675   0.416   1.878  10.160
 1115SOL     OW 3676   1.795   1.066  10.183
 1115SOL    HW1 3677   1.733   1.051  10.107
 1115SOL    HW2 3678   1.743   1.077  10.268
 1116SOL     OW 3679   1.227   1.550  10.816
 1116SOL    HW1 3680   1.233   1.473  10.880
 1116SOL    HW2 3681   1.175   1.524  10.736
 1117SOL     OW 3682   0.321   0.943   9.552
 1117SOL    HW1 3683   0.403   0.982   9.510
 1117SOL    HW2 3684   0.294   0.861   9.503
 1118SOL     OW 3685   1.458   0.735  10.038
 1118SOL    HW1 3686   1.453   0.670  10.113
 1118SOL    HW2 3687   1.538   0.794  10.051
 1119SOL     OW 3688   0.461   1.266  11.037
 1119SOL    HW1 3689   0.411   1.267  10.951
 1119SOL    HW2 3690   0.398   1.248  11.113
 1120SOL     OW 3691   1.111   1.776   9.547
 1120SOL    HW1 3692   1.051   1.714   9.597
 1120SOL    HW2 3693   1.142   1.732   9.462
 1121SOL     OW 3694   0.202   0.285  10.808
 1121SOL    HW1 3695   0.122   0.345  10.795
 1121SOL    HW2 3696   0.192   0.236  10.894
 1122SOL     OW 3697   1.632   1.377   9.391
 1122SOL    HW1 3698   1.600   1.471   9.381
 1122SOL    HW2 3699   1.556   1.314   9.379
 1123SOL     OW 3700   0.464   1.743   9.633
 1123SOL    HW1 3701   0.497   1.782   9.719
 1123SOL    HW2 3702   0.540   1.736   9.568
 1124SOL     OW 3703   1.400   0.107   9.736
 1124SOL    HW1 3704   1.376   0.070   9.646
 1124SOL    HW2 3705   1.499   0.123   9.740
 1125SOL     OW 3706   0.249   1.785  10.551
 1125SOL    HW1 3707   0.306   1.720  10.601
 1125SOL    HW2 3708   0.233   1.752  10.458
 1126SOL     OW 3709   0.940   1.698  10.214
 1126SOL    HW1 3710   1.020   1.641  10.235
 1126SOL    HW2 3711   0.891   1.658  10.137
 1127SOL     OW 3712   0.382   0.700   9.790
 1127SOL    HW1 3713   0.427   0.610   9.787
 1127SOL    HW2 3714   0.288   0.689   9.823
 1128SOL     OW 3715   1.547   0.222  11.039
 1128SOL    HW1 3716   1.542   0.259  11.131
 1128SOL    HW2 3717   1.475   0.153  11.027
 1129SOL     OW 3718   0.614   0.122   9.427
 1129SOL    HW1 3719   0.712   0.100   9.434
 1129SOL    HW2 3720   0.583   0.105   9.334
 1130SOL     OW 3721   0.781   0.264  11.059
 1130SOL    HW1 3722   0.848   0.203  11.102
 1130SOL    HW2 3723   0.708   0.283  11.124
 1131SOL     OW 3724   0.888   1.514  10.505
 1131SOL    HW1 3725   0.865   1.489  10.411
 1131SOL    HW2 3726   0.949   1.445  10.544
 1132SOL     OW 3727   1.351   0.590  10.743
 1132SOL    HW1 3728   1.379   0.547  10.828
 1132SOL    HW2 3729   1.376   0.686  10.744
 1133SOL     OW 3730   0.803   1.402  10.234
 1133SOL    HW1 3731   0.893   1.416  10.192
 1133SOL    HW2 3732   0.732   1.404  10.163
 1134SOL     OW 3733   0.922   0.503  10.209
 1134SOL    HW1 3734   0.897   0.494  10.113
 1134SOL    HW2 3735   0.970   0.421  10.240
 1135SOL     OW 3736   0.539   0.064   9.822
 1135SOL    HW1 3737   0.458   0.065   9.880
 1135SOL    HW2 3738   0.542   0.147   9.767
 1136SOL     OW 3739   1.434   1.188   9.351
 1136SOL    HW1 3740   1.466   1.112   9.408
 1136SOL    HW2 3741   1.342   1.215   9.381
 1137SOL     OW 3742   0.297   0.035   9.481
 1137SOL    HW1 3743   0.346   0.119   9.460
 1137SOL    HW2 3744   0.359  -0.030   9.526
 1138SOL     OW 3745   0.935   0.236   9.790
 1138SOL    HW1 3746   0.887   0.277   9.712
 1138SOL    HW2 3747   1.034   0.234   9.771
 1139SOL     OW 3748   1.076   0.683  10.774
 1139SOL    HW1 3749   0.996   0.622  10.777
 1139SOL    HW2 3750   1.157   0.630  10.750
 1140SOL     OW 3751   1.227   1.570  10.103
 1140SOL    HW1 3752   1.248   1.644  10.038
 1140SOL    HW2 3753   1.295   1.570  10.176
 1141SOL     OW 3754   0.459   1.152  10.051
 1141SOL    HW1 3755   0.388   1.125  10.116
 1141SOL    HW2 3756   0.433   1.124   9.958
 1142SOL     OW 3757   1.271   1.797   9.901
 1142SOL    HW1 3758   1.315   1.861   9.837
 1142SOL    HW2 3759   1.221   1.849   9.971
 1143SOL     OW 3760   1.032   0.549   9.326
 1143SOL    HW1 3761   0.991   0.631   9.287
 1143SOL    HW2 3762   1.096   0.575   9.399
 1144SOL     OW 3763   0.078   0.556  10.696
 1144SOL    HW1 3764   0.170   0.555  10.655
 1144SOL    HW2 3765   0.072   0.630  10.763
 1145SOL     OW 3766   0.561   0.222  10.457
 1145SOL    HW1 3767   0.599   0.138  10.494
 1145SOL    HW2 3768   0.473   0.241  10.501
 1146SOL     OW 3769   0.866   0.454   9.952
 1146SOL    HW1 3770   0.834   0.526   9.890
 1146SOL    HW2 3771   0.890   0.373   9.899
 1147SOL     OW 3772   1.017   0.039  10.063
 1147SOL    HW1 3773   0.945   0.044   9.994
 1147SOL    HW2 3774   0.993  -0.030  10.132
 1148SOL     OW 3775   1.429   1.173  10.177
 1148SOL    HW1 3776   1.374   1.089  10.170
 1148SOL    HW2 3777   1.455   1.202  10.085
 1149SOL     OW 3778   1.466   0.590  10.302
 1149SOL    HW1 3779   1.436   0.495  10.309
 1149SOL    HW2 3780   1.539   0.606  10.368
 1150SOL     OW 3781   1.857   0.833   9.687
 1150SOL    HW1 3782   1.899   0.769   9.751
 1150SOL    HW2 3783   1.819   0.782   9.609
 1151SOL     OW 3784   0.488   1.385   9.484
 1151SOL    HW1 3785   0.401   1.370   9.531
 1151SOL    HW2 3786   0.471   1.411   9.389
 1152SOL     OW 3787   1.664   1.280   9.967
 1152SOL    HW1 3788   1.763   1.288   9.981
 1152SOL    HW2 3789   1.619   1.364   9.998
 1153SOL     OW 3790   1.390   0.575   9.388
 1153SOL    HW1 3791   1.336   0.554   9.469
 1153SOL    HW2 3792   1.481   0.534   9.397
 1154SOL     OW 3793   0.527   0.256   9.638
 1154SOL    HW1 3794   0.554   0.197   9.563
 1154SOL    HW2 3795   0.527   0.351   9.607
 1155SOL     OW 3796   1.754   1.223  10.898
 1155SOL    HW1 3797   1.845   1.184  10.885
 1155SOL    HW2 3798   1.762   1.319  10.922
 1156SOL     OW 3799   1.064   1.347  10.650
 1156SOL    HW1 3800   0.984   1.324  10.705
 1156SOL    HW2 3801   1.147   1.321  10.699
 1157SOL     OW 3802   1.592   1.629  10.935
 1157SOL    HW1 3803   1.619   1.663  10.845
 1157SOL    HW2 3804   1.671   1.591  10.981
 1158SOL     OW 3805   1.111   1.195  10.410
 1158SOL    HW1 3806   1.071   1.239  10.491
 1158SOL    HW2 3807   1.070   1.232  10.327
 1159SOL     OW 3808   1.638   1.099  10.389
 1159SOL    HW1 3809   1.643   1.180  10.448
 1159SOL    HW2 3810   1.552   1.101  10.338
 1160SOL     OW 3811   0.915   0.089  10.712
 1160SOL    HW1 3812   0.940   0.069  10.617
 1160SOL    HW2 3813   0.987   0.145  10.754
 1161SOL     OW 3814   0.980   1.116  11.029
 1161SOL    HW1 3815   0.881   1.122  11.039
 1161SOL    HW2 3816   1.003   1.036  10.973
 1162SOL     OW 3817   0.705   1.050   9.678
 1162SOL    HW1 3818   0.691   1.057   9.777
 1162SOL    HW2 3819   0.789   0.999   9.660
 1163SOL     OW 3820   0.410   0.813  10.561
 1163SOL    HW1 3821   0.496   0.825  10.611
 1163SOL    HW2 3822   0.368   0.726  10.588
 1164SOL     OW 3823   1.274   0.386  10.572
 1164SOL    HW1 3824   1.295   0.460  10.636
 1164SOL    HW2 3825   1.185   0.403  10.529
 1165SOL     OW 3826   0.064   1.564  10.641
 1165SOL    HW1 3827   0.018   1.646  10.607
 1165SOL    HW2 3828   0.162   1.583  10.650
 1166SOL     OW 3829   0.367   1.100   9.811
 1166SOL    HW1 3830   0.360   1.183   9.755
 1166SOL    HW2 3831   0.371   1.020   9.751
 1167SOL     OW 3832   0.566   0.537  10.175
 1167SOL    HW1 3833   0.578   0.603  10.101
 1167SOL    HW2 3834   0.612   0.571  10.258
 1168SOL     OW 3835   1.252   1.348   9.698
 1168SOL    HW1 3836   1.302   1.425   9.738
 1168SOL    HW2 3837   1.157   1.350   9.730
 1169SOL     OW 3838   1.272   1.445  10.452
 1169SOL    HW1 3839   1.319   1.458  10.539
 1169SOL    HW2 3840   1.206   1.371  10.461
 1170SOL     OW 3841   1.582   0.639   9.782
 1170SOL    HW1 3842   1.551   0.700   9.855
 1170SOL    HW2 3843   1.632   0.691   9.713
 1171SOL     OW 3844   0.354   1.510  10.639
 1171SOL    HW1 3845   0.333   1.466  10.552
 1171SOL    HW2 3846   0.451   1.536  10.642
 1172SOL     OW 3847   0.402   0.751  10.908
 1172SOL    HW1 3848   0.470   0.806  10.861
 1172SOL    HW2 3849   0.442   0.663  10.935
 1173SOL     OW 3850   1.587   0.779  10.980
 1173SOL    HW1 3851   1.495   0.817  10.975
 1173SOL    HW2 3852   1.647   0.826  10.915
 1174SOL     OW 3853   1.013   0.105  11.080
 1174SOL    HW1 3854   1.019   0.190  11.028
 1174SOL    HW2 3855   1.045   0.029  11.023
 1175SOL     OW 3856   0.504   0.050  11.050
 1175SOL    HW1 3857   0.462  -0.007  10.980
 1175SOL    HW2 3858   0.438   0.119  11.082
 1176SOL     OW 3859   0.573   0.870  10.339
 1176SOL    HW1 3860   0.617   0.959  10.330
 1176SOL    HW2 3861   0.510   0.870  10.416
 1177SOL     OW 3862   1.360   0.862  10.355
 1177SOL    HW1 3863   1.285   0.862  10.289
 1177SOL    HW2 3864   1.397   0.770  10.364
 1178SOL     OW 3865   1.209   0.525   9.585
 1178SOL    HW1 3866   1.222   0.441   9.639
 1178SOL    HW2 3867   1.180   0.599   9.645
 1179SOL     OW 3868   0.307   0.213  10.541
 1179SOL    HW1 3869   0.284   0.250  10.631
 1179SOL    HW2 3870   0.277   0.118  10.535
 1180SOL     OW 3871   0.037   1.310  10.592
 1180SOL    HW1 3872   0.090   1.261  10.660
 1180SOL    HW2 3873   0.059   1.408  10.597
 1181SOL     OW 3874   0.732   0.634  10.374
 1181SOL    HW1 3875   0.791   0.608  10.298
 1181SOL    HW2 3876   0.704   0.730  10.363
 1182SOL     OW 3877   1.728   0.935  11.164
 1182SOL    HW1 3878   1.682   0.928  11.075
 1182SOL    HW2 3879   1.666   0.979  11.230
 1183SOL     OW 3880   0.307   0.063   9.928
 1183SOL    HW1 3881   0.296   0.157   9.961
 1183SOL    HW2 3882   0.302   0.000  10.005
 1184SOL     OW 3883   1.622   0.367   9.684
 1184SOL    HW1 3884   1.624   0.291   9.748
 1184SOL    HW2 3885   1.574   0.444   9.724
 1185SOL     OW 3886   1.023   0.766  10.276
 1185SOL    HW1 3887   1.038   0.787  10.372
 1185SOL    HW2 3888   0.993   0.671  10.267
 1186SOL     OW 3889   0.980   1.573  11.010
 1186SOL    HW1 3890   0.960   1.617  10.922
 1186SOL    HW2 3891   1.019   1.482  10.994
 1187SOL     OW 3892   1.859   1.518  10.915
 1187SOL    HW1 3893   1.873   1.545  10.820
 1187SOL    HW2 3894   1.942   1.540  10.968
 1188SOL     OW 3895   0.350   0.898  11.114
 1188SOL    HW1 3896   0.426   0.942  11.162
 1188SOL    HW2 3897   0.385   0.851  11.032
 1189SOL     OW 3898   1.540   0.274   9.435
 1189SOL    HW1 3899   1.479   0.199   9.458
 1189SOL    HW2 3900   1.562   0.326   9.518
 1190SOL     OW 3901   1.303   0.838   9.352
 1190SOL    HW1 3902   1.337   0.745   9.367
 1190SOL    HW2 3903   1.321   0.865   9.257
 1191SOL     OW 3904   1.068   1.333  10.159
 1191SOL    HW1 3905   1.075   1.249  10.104
 1191SOL    HW2 3906   1.130   1.402  10.123
 1192SOL     OW 3907   0.319   0.810  10.259
 1192SOL    HW1 3908   0.412   0.846  10.264
 1192SOL    HW2 3909   0.313   0.725  10.311
 1193SOL     OW 3910   0.339   0.509  10.316
 1193SOL    HW1 3911   0.287   0.426  10.299
 1193SOL    HW2 3912   0.416   0.514  10.252
 1194SOL     OW 3913   1.138   0.380  10.988
 1194SOL    HW1 3914   1.093   0.443  11.052
 1194SOL    HW2 3915   1.231   0.411  10.971
 1195SOL     OW 3916   1.160   0.207  10.787
 1195SOL    HW1 3917   1.160   0.271  10.864
 1195SOL    HW2 3918   1.188   0.255  10.704
 1196SOL     OW 3919   0.008   1.326   9.510
 1196SOL    HW1 3920  -0.085   1.347   9.479
 1196SOL    HW2 3921   0.018   1.227   9.523
 1197SOL     OW 3922   0.088   1.801  10.237
 1197SOL    HW1 3923   0.046   1.715  10.210
 1197SOL    HW2 3924   0.182   1.804  10.203
 1198SOL     OW 3925   0.504   1.568  10.220
 1198SOL    HW1 3926   0.570   1.642  10.229
 1198SOL    HW2 3927   0.548   1.489  10.178
 1199SOL     OW 3928   1.002   0.796  10.548
 1199SOL    HW1 3929   1.043   0.764  10.634
 1199SOL    HW2 3930   0.906   0.769  10.545
 1200SOL     OW 3931   0.040   0.544  10.424
 1200SOL    HW1 3932   0.125   0.511  10.383
 1200SOL    HW2 3933   0.053   0.559  10.522
 1201SOL     OW 3934   0.189   0.520  11.032
 1201SOL    HW1 3935   0.248   0.480  10.962
 1201SOL    HW2 3936   0.131   0.591  10.991
 1202SOL     OW 3937   1.369   0.950  10.970
 1202SOL    HW1 3938   1.408   1.039  10.990
 1202SOL    HW2 3939   1.379   0.930  10.873
 1203SOL     OW 3940   0.815   0.572   9.635
 1203SOL    HW1 3941   0.822   0.483   9.589
 1203SOL    HW2 3942   0.721   0.606   9.627
 1204SOL     OW 3943   1.657   0.604  10.516
 1204SOL    HW1 3944   1.619   0.535  10.578
 1204SOL    HW2 3945   1.739   0.568  10.472
 1205SOL     OW 3946   0.252   1.564  11.054
 1205SOL    HW1 3947   0.222   1.621  11.130
 1205SOL    HW2 3948   0.245   1.467  11.080
 1206SOL     OW 3949   0.671   0.464  10.579
 1206SOL    HW1 3950   0.637   0.375  10.549
 1206SOL    HW2 3951   0.697   0.518  10.499
 1207SOL     OW 3952   0.930   1.678  10.775
 1207SOL    HW1 3953   0.906   1.660  10.680
 1207SOL    HW2 3954   0.960   1.772  10.785
 1208SOL     OW 3955   0.473   0.500   9.501
 1208SOL    HW1 3956   0.534   0.580   9.505
 1208SOL    HW2 3957   0.378   0.531   9.508
 1209SOL     OW 3958   0.159   1.137  10.776
 1209SOL    HW1 3959   0.181   1.076  10.852
 1209SOL    HW2 3960   0.169   1.088  10.690
 1210SOL     OW 3961   1.347   1.059  10.544
 1210SOL    HW1 3962   1.371   0.996  10.470
 1210SOL    HW2 3963   1.257   1.099  10.526
 1211SOL     OW 3964   1.302   0.855   9.619
 1211SOL    HW1 3965   1.216   0.824   9.661
 1211SOL    HW2 3966   1.298   0.841   9.520
 1212SOL     OW 3967   1.759   1.747  10.464
 1212SOL    HW1 3968   1.820   1.777  10.391
 1212SOL    HW2 3969   1.721   1.658  10.442
 1213SOL     OW 3970   1.252   1.731  10.438
 1213SOL    HW1 3971   1.336   1.736  10.384
 1213SOL    HW2 3972   1.229   1.635  10.456
 1214SOL     OW 3973   0.083   1.258  10.332
 1214SOL    HW1 3974   0.078   1.257  10.432
 1214SOL    HW2 3975   0.000   1.217  10.294
 1215SOL     OW 3976   0.688   1.662  11.026
 1215SOL    HW1 3977   0.632   1.743  11.035
 1215SOL    HW2 3978   0.740   1.666  10.940
 1216SOL     OW 3979   1.726   0.135   9.833
 1216SOL    HW1 3980   1.799   0.118   9.766
 1216SOL    HW2 3981   1.695   0.048   9.871
 1217SOL     OW 3982   1.388   1.573   9.787
 1217SOL    HW1 3983   1.455   1.585   9.713
 1217SOL    HW2 3984   1.348   1.662   9.810
 1218SOL     OW 3985   0.130   1.794  11.161
 1218SOL    HW1 3986   0.089   1.720  11.214
 1218SOL    HW2 3987   0.194   1.845  11.219
 1219SOL     OW 3988   1.280   0.927   9.982
 1219SOL    HW1 3989   1.340   0.846   9.984
 1219SOL    HW2 3990   1.320   0.996   9.922
 1220SOL     OW 3991   0.830   1.273  10.732
 1220SOL    HW1 3992   0.825   1.306  10.827
 1220SOL    HW2 3993   0.744   1.292  10.686
 1221SOL     OW 3994   0.672   1.616   9.464
 1221SOL    HW1 3995   0.681   1.626   9.365
 1221SOL    HW2 3996   0.632   1.527   9.485
 1222SOL     OW 3997   1.650   1.720  10.704
 1222SOL    HW1 3998   1.703   1.730  10.620
 1222SOL    HW2 3999   1.623   1.810  10.738
 1223SOL     OW 4000   1.841   0.175  10.273
 1223SOL    HW1 4001   1.880   0.090  10.237
 1223SOL    HW2 4002   1.743   0.177  10.254
 1224SOL     OW 4003   0.263   0.326  10.030
 1224SOL    HW1 4004   0.184   0.377   9.996
 1224SOL    HW2 4005   0.254   0.311  10.128
 1225SOL     OW 4006   1.194   1.612   9.341
 1225SOL    HW1 4007   1.200   1.519   9.378
 1225SOL    HW2 4008   1.135   1.612   9.261
 1226SOL     OW 4009   0.822   1.002  10.682
 1226SOL    HW1 4010   0.862   1.001  10.590
 1226SOL    HW2 4011   0.832   1.094  10.722
 1227SOL     OW 4012   0.916   0.910   9.601
 1227SOL    HW1 4013   0.979   0.948   9.533
 1227SOL    HW2 4014   0.956   0.827   9.640
 1228SOL     OW 4015   1.504   1.607   9.354
 1228SOL    HW1 4016   1.412   1.644   9.361
 1228SOL    HW2 4017   1.542   1.627   9.264
 1229SOL     OW 4018   0.372   1.288  10.800
 1229SOL    HW1 4019   0.359   1.381  10.766
 1229SOL    HW2 4020   0.288   1.236  10.787
 1230SOL     OW 4021   1.614   1.292  10.599
 1230SOL    HW1 4022   1.674   1.295  10.679
 1230SOL    HW2 4023   1.539   1.356  10.612
 1231SOL     OW 4024   1.039   1.098  10.006
 1231SOL    HW1 4025   0.969   1.051  10.060
 1231SOL    HW2 4026   1.098   1.030   9.963
 1232SOL     OW 4027   1.014   0.236  10.281
 1232SOL    HW1 4028   1.006   0.200  10.188
 1232SOL    HW2 4029   1.012   0.160  10.346
 1233SOL     OW 4030   0.590   1.487   9.801
 1233SOL    HW1 4031   0.632   1.429   9.731
 1233SOL    HW2 4032   0.546   1.566   9.757
 1234SOL     OW 4033   1.709   0.385  10.691
 1234SOL    HW1 4034   1.782   0.454  10.695
 1234SOL    HW2 4035   1.737   0.310  10.632
 1235SOL     OW 4036   0.255   1.348   9.600
 1235SOL    HW1 4037   0.159   1.349   9.573
 1235SOL    HW2 4038   0.267   1.401   9.684
 1236SOL     OW 4039   0.105   1.013  11.036
 1236SOL    HW1 4040   0.028   0.980  11.090
 1236SOL    HW2 4041   0.190   0.983  11.078
 1237SOL     OW 4042   0.672   0.203  10.799
 1237SOL    HW1 4043   0.762   0.187  10.759
 1237SOL    HW2 4044   0.680   0.208  10.898
 1238SOL     OW 4045   0.075   0.345   9.343
 1238SOL    HW1 4046  -0.017   0.317   9.314
 1238SOL    HW2 4047   0.106   0.422   9.287
 1239SOL     OW 4048   1.440   0.856  10.708
 1239SOL    HW1 4049   1.383   0.908  10.645
 1239SOL    HW2 4050   1.536   0.868  10.684
 1240SOL     OW 4051   0.072   0.166   9.628
 1240SOL    HW1 4052   0.055   0.249   9.574
 1240SOL    HW2 4053   0.162   0.129   9.606
 1241SOL     OW 4054   1.183   1.335   9.429
 1241SOL    HW1 4055   1.084   1.324   9.431
 1241SOL    HW2 4056   1.217   1.350   9.522
 1242SOL     OW 4057   0.613   0.842  10.741
 1242SOL    HW1 4058   0.669   0.923  10.724
 1242SOL    HW2 4059   0.672   0.762  10.744
 1243SOL     OW 4060   1.493   1.767  10.269
 1243SOL    HW1 4061   1.526   1.831  10.200
 1243SOL    HW2 4062   1.559   1.761  10.344
 1244SOL     OW 4063   0.716   0.565  11.018
 1244SOL    HW1 4064   0.735   0.630  11.092
 1244SOL    HW2 4065   0.776   0.485  11.027
 1245SOL     OW 4066   1.450   1.220  10.943
 1245SOL    HW1 4067   1.441   1.210  11.042
 1245SOL    HW2 4068   1.546   1.213  10.917
 1246SOL     OW 4069   0.390   1.741  10.870
 1246SOL    HW1 4070   0.299   1.782  10.868
 1246SOL    HW2 4071   0.383   1.647  10.902
 1247SOL     OW 4072   1.674   0.883  10.564
 1247SOL    HW1 4073   1.647   0.794  10.527
 1247SOL    HW2 4074   1.675   0.951  10.491
 1248SOL     OW 4075   1.225   0.325   9.759
 1248SOL    HW1 4076   1.290   0.251   9.748
 1248SOL    HW2 4077   1.245   0.375   9.843
 1249SOL     OW 4078   0.594   0.745   9.962
 1249SOL    HW1 4079   0.644   0.830   9.943
 1249SOL    HW2 4080   0.506   0.747   9.914
 1250SOL     OW 4081   1.777   0.342  10.952
 1250SOL    HW1 4082   1.760   0.373  10.858
 1250SOL    HW2 4083   1.693   0.305  10.990
 1251SOL     OW 4084   1.730   0.934  10.827
 1251SOL    HW1 4085   1.768   1.025  10.842
 1251SOL    HW2 4086   1.722   0.917  10.728
 1252SOL     OW 4087   0.859   1.374   9.326
 1252SOL    HW1 4088   0.813   1.389   9.414
 1252SOL    HW2 4089   0.903   1.459   9.296
 1253SOL     OW 4090   0.661   1.790  10.263
 1253SOL    HW1 4091   0.615   1.878  10.250
 1253SOL    HW2 4092   0.760   1.802  10.256
 1254SOL     OW 4093   0.859   0.956  10.171
 1254SOL    HW1 4094   0.913   0.887  10.219
 1254SOL    HW2 4095   0.827   1.025  10.237
 1255SOL     OW 4096   1.083   0.984   9.397
 1255SOL    HW1 4097   1.060   1.037   9.315
 1255SOL    HW2 4098   1.164   0.928   9.378
 1256SOL     OW 4099   1.861   1.569  10.161
 1256SOL    HW1 4100   1.790   1.557  10.091
 1256SOL    HW2 4101   1.862   1.490  10.221
 1257SOL     OW 4102   0.221   1.314  11.154
 1257SOL    HW1 4103   0.156   1.241  11.133
 1257SOL    HW2 4104   0.225   1.328  11.252
 1258SOL     OW 4105   0.079   1.240   9.963
 1258SOL    HW1 4106   0.078   1.193  10.051
 1258SOL    HW2 4107   0.161   1.212   9.912
 1259SOL     OW 4108   0.672   1.391  10.934
 1259SOL    HW1 4109   0.594   1.341  10.972
 1259SOL    HW2 4110   0.669   1.486  10.965
 1260SOL     OW 4111   1.824   0.192  10.537
 1260SOL    HW1 4112   1.820   0.102  10.581
 1260SOL    HW2 4113   1.827   0.181  10.438
 1261SOL     OW 4114   0.428   0.424   9.830
 1261SOL    HW1 4115   0.458   0.352   9.768
 1261SOL    HW2 4116   0.389   0.384   9.913
 1262SOL     OW 4117   1.705   1.487  10.414
 1262SOL    HW1 4118   1.612   1.462  10.387
 1262SOL    HW2 4119   1.731   1.437  10.496
 1263SOL     OW 4120   0.317   0.547  10.590
 1263SOL    HW1 4121   0.355   0.488  10.662
 1263SOL    HW2 4122   0.357   0.521  10.502
 1264SOL     OW 4123   0.812   1.586   9.997
 1264SOL    HW1 4124   0.844   1.596   9.903
 1264SOL    HW2 4125   0.733   1.524   9.999
 1265SOL     OW 4126   1.424   0.214  10.422
 1265SOL    HW1 4127   1.476   0.149  10.477
 1265SOL    HW2 4128   1.375   0.277  10.483
 1266SOL     OW 4129   1.001   0.034  10.464
 1266SOL    HW1 4130   0.938  -0.038  10.433
 1266SOL    HW2 4131   1.094  -0.002  10.464
 1267SOL     OW 4132   0.770   1.330   9.611
 1267SOL    HW1 4133   0.724   1.243   9.628
 1267SOL    HW2 4134   0.861   1.327   9.652
 1268SOL     OW 4135   0.618   1.567  10.594
 1268SOL    HW1 4136   0.613   1.649  10.651
 1268SOL    HW2 4137   0.707   1.564  10.549
 1269SOL     OW 4138   1.352   0.052   9.478
 1269SOL    HW1 4139   1.387   0.011   9.394
 1269SOL    HW2 4140   1.262   0.014   9.498
 1270SOL     OW 4141   1.300   0.453  10.001
 1270SOL    HW1 4142   1.241   0.533  10.005
 1270SOL    HW2 4143   1.315   0.418  10.094
 1271SOL     OW 4144   1.593   0.221  10.192
 1271SOL    HW1 4145   1.509   0.220  10.246
 1271SOL    HW2 4146   1.595   0.304  10.136
 1272SOL     OW 4147   0.039   1.077   9.610
 1272SOL    HW1 4148   0.138   1.066   9.601
 1272SOL    HW2 4149  -0.001   0.991   9.642
 1273SOL     OW 4150   0.875   1.646   9.647
 1273SOL    HW1 4151   0.798   1.611   9.593
 1273SOL    HW2 4152   0.843   1.717   9.709
 1274SOL     OW 4153   0.230   2.490   0.113
 1274SOL    HW1 4154   0.137   2.488   0.150
 1274SOL    HW2 4155   0.231   2.451   0.021
 1275SOL     OW 4156   0.225   2.137   0.996
 1275SOL    HW1 4157   0.260   2.120   1.088
 1275SOL    HW2 4158   0.137   2.092   0.984
 1276SOL     OW 4159   0.019   2.230   0.647
 1276SOL    HW1 4160  -0.063   2.273   0.686
 1276SOL    HW2 4161  -0.009   2.157   0.584
 1277SOL     OW 4162   0.569   3.137   1.165
 1277SOL    HW1 4163   0.476   3.130   1.128
 1277SOL    HW2 4164   0.580   3.226   1.209
 1278SOL     OW 4165   1.555   3.373   0.703
 1278SOL    HW1 4166   1.498   3.357   0.784
 1278SOL    HW2 4167   1.496   3.383   0.623
 1279SOL     OW 4168   1.135   2.565   0.717
 1279SOL    HW1 4169   1.192   2.643   0.692
 1279SOL    HW2 4170   1.075   2.591   0.793
 1280SOL     OW 4171   1.755   2.469   0.231
 1280SOL    HW1 4172   1.743   2.456   0.132
 1280SOL    HW2 4173   1.725   2.388   0.280
 1281SOL     OW 4174   0.768   3.006   1.023
 1281SOL    HW1 4175   0.690   3.023   1.083
 1281SOL    HW2 4176   0.802   3.093   0.987
 1282SOL     OW 4177   0.850   2.660   1.823
 1282SOL    HW1 4178   0.846   2.736   1.888
 1282SOL    HW2 4179   0.872   2.696   1.732
 1283SOL     OW 4180   0.685   2.874   0.665
 1283SOL    HW1 4181   0.754   2.858   0.735
 1283SOL    HW2 4182   0.612   2.931   0.703
 1284SOL     OW 4183   0.686   3.023   1.803
 1284SOL    HW1 4184   0.746   3.102   1.817
 1284SOL    HW2 4185   0.600   3.054   1.762
 1285SOL     OW 4186   0.335   3.297   1.061
 1285SOL    HW1 4187   0.257   3.266   1.008
 1285SOL    HW2 4188   0.393   3.355   1.004
 1286SOL     OW 4189   1.460   3.367   1.339
 1286SOL    HW1 4190   1.484   3.461   1.365
 1286SOL    HW2 4191   1.444   3.313   1.421
 1287SOL     OW 4192   0.438   2.254   1.499
 1287SOL    HW1 4193   0.520   2.198   1.508
 1287SOL    HW2 4194   0.357   2.196   1.503
 1288SOL     OW 4195   1.603   2.309   0.737
 1288SOL    HW1 4196   1.529   2.355   0.687
 1288SOL    HW2 4197   1.654   2.377   0.790
 1289SOL     OW 4198   0.231   3.575   0.483
 1289SOL    HW1 4199   0.265   3.652   0.537
 1289SOL    HW2 4200   0.275   3.575   0.393
 1290SOL     OW 4201   1.127   3.203   1.690
 1290SOL    HW1 4202   1.174   3.203   1.778
 1290SOL    HW2 4203   1.079   3.116   1.679
 1291SOL     OW 4204   0.230   3.296   0.538
 1291SOL    HW1 4205   0.204   3.392   0.538
 1291SOL    HW2 4206   0.159   3.242   0.583
 1292SOL     OW 4207   0.240   2.953   0.886
 1292SOL    HW1 4208   0.254   2.869   0.938
 1292SOL    HW2 4209   0.185   3.017   0.941
 1293SOL     OW 4210   0.620   3.648   1.439
 1293SOL    HW1 4211   0.528   3.631   1.474
 1293SOL    HW2 4212   0.648   3.740   1.465
 1294SOL     OW 4213   0.606   2.826   0.123
 1294SOL    HW1 4214   0.613   2.910   0.069
 1294SOL    HW2 4215   0.652   2.839   0.211
 1295SOL     OW 4216   1.594   1.976   1.480
 1295SOL    HW1 4217   1.576   2.043   1.408
 1295SOL    HW2 4218   1.591   2.022   1.569
 1296SOL     OW 4219   0.122   2.505   0.563
 1296SOL    HW1 4220   0.077   2.417   0.580
 1296SOL    HW2 4221   0.121   2.559   0.647
 1297SOL     OW 4222   1.842   3.629   0.359
 1297SOL    HW1 4223   1.896   3.600   0.439
 1297SOL    HW2 4224   1.872   3.719   0.330
 1298SOL     OW 4225   0.027   3.458   0.117
 1298SOL    HW1 4226   0.008   3.362   0.138
 1298SOL    HW2 4227  -0.006   3.516   0.192
 1299SOL     OW 4228   1.689   2.784   0.612
 1299SOL    HW1 4229   1.784   2.755   0.620
 1299SOL    HW2 4230   1.681   2.849   0.537
 1300SOL     OW 4231   1.641   2.970   0.432
 1300SOL    HW1 4232   1.727   2.972   0.380
 1300SOL    HW2 4233   1.655   3.017   0.520
 1301SOL     OW 4234   0.113   2.599   1.597
 1301SOL    HW1 4235   0.201   2.586   1.642
 1301SOL    HW2 4236   0.100   2.696   1.575
 1302SOL     OW 4237   0.613   3.227   0.726
 1302SOL    HW1 4238   0.564   3.140   0.735
 1302SOL    HW2 4239   0.590   3.270   0.639
 1303SOL     OW 4240   1.293   3.090   1.423
 1303SOL    HW1 4241   1.330   3.017   1.365
 1303SOL    HW2 4242   1.345   3.095   1.508
 1304SOL     OW 4243   0.809   1.866   0.502
 1304SOL    HW1 4244   0.849   1.957   0.493
 1304SOL    HW2 4245   0.709   1.874   0.508
 1305SOL     OW 4246   0.197   2.838   1.264
 1305SOL    HW1 4247   0.286   2.793   1.250
 1305SOL    HW2 4248   0.124   2.773   1.245
 1306SOL     OW 4249   1.525   2.861   0.190
 1306SOL    HW1 4250   1.462   2.785   0.203
 1306SOL    HW2 4251   1.573   2.879   0.276
 1307SOL     OW 4252   1.187   3.654   1.616
 1307SOL    HW1 4253   1.211   3.714   1.540
 1307SOL    HW2 4254   1.194   3.559   1.586
 1308SOL     OW 4255   0.317   2.113   1.801
 1308SOL    HW1 4256   0.388   2.184   1.807
 1308SOL    HW2 4257   0.229   2.152   1.829
 1309SOL     OW 4258   1.466   3.279   0.953
 1309SOL    HW1 4259   1.407   3.285   1.033
 1309SOL    HW2 4260   1.451   3.191   0.907
 1310SOL     OW 4261   1.667   3.576   0.572
 1310SOL    HW1 4262   1.626   3.553   0.484
 1310SOL    HW2 4263   1.649   3.502   0.637
 1311SOL     OW 4264   0.598   2.591   0.270
 1311SOL    HW1 4265   0.622   2.660   0.202
 1311SOL    HW2 4266   0.520   2.624   0.324
 1312SOL     OW 4267   1.281   2.207   0.944
 1312SOL    HW1 4268   1.195   2.157   0.931
 1312SOL    HW2 4269   1.343   2.153   1.000
 1313SOL     OW 4270   1.576   3.524   0.307
 1313SOL    HW1 4271   1.665   3.570   0.310
 1313SOL    HW2 4272   1.555   3.500   0.212
 1314SOL     OW 4273   0.807   2.467   1.465
 1314SOL    HW1 4274   0.760   2.464   1.554
 1314SOL    HW2 4275   0.756   2.412   1.399
 1315SOL     OW 4276   1.394   2.331   1.674
 1315SOL    HW1 4277   1.374   2.374   1.762
 1315SOL    HW2 4278   1.472   2.269   1.683
 1316SOL     OW 4279   0.973   2.752   1.572
 1316SOL    HW1 4280   1.019   2.668   1.543
 1316SOL    HW2 4281   0.917   2.786   1.497
 1317SOL     OW 4282   0.991   2.272   1.242
 1317SOL    HW1 4283   0.914   2.306   1.296
 1317SOL    HW2 4284   0.957   2.221   1.163
 1318SOL     OW 4285   1.041   2.563   0.429
 1318SOL    HW1 4286   1.067   2.559   0.525
 1318SOL    HW2 4287   0.956   2.512   0.415
 1319SOL     OW 4288   0.076   2.673   0.789
 1319SOL    HW1 4289   0.175   2.661   0.798
 1319SOL    HW2 4290   0.052   2.768   0.810
 1320SOL     OW 4291   0.130   3.683   1.571
 1320SOL    HW1 4292   0.120   3.668   1.670
 1320SOL    HW2 4293   0.044   3.719   1.535
 1321SOL     OW 4294   0.865   2.210   0.195
 1321SOL    HW1 4295   0.924   2.273   0.146
 1321SOL    HW2 4296   0.884   2.116   0.166
 1322SOL     OW 4297   1.719   2.447   1.831
 1322SOL    HW1 4298   1.693   2.536   1.795
 1322SOL    HW2 4299   1.717   2.379   1.758
 1323SOL     OW 4300   1.362   3.006   0.545
 1323SOL    HW1 4301   1.445   2.977   0.497
 1323SOL    HW2 4302   1.313   3.073   0.489
 1324SOL     OW 4303   0.550   2.058   0.885
 1324SOL    HW1 4304   0.545   2.053   0.985
 1324SOL    HW2 4305   0.552   2.154   0.856
 1325SOL     OW 4306   1.008   3.318   0.477
 1325SOL    HW1 4307   0.962   3.390   0.425
 1325SOL    HW2 4308   1.004   3.338   0.575
 1326SOL     OW 4309   0.351   3.663   0.853
 1326SOL    HW1 4310   0.401   3.577   0.859
 1326SOL    HW2 4311   0.416   3.740   0.850
 1327SOL     OW 4312   1.795   2.928   0.873
 1327SOL    HW1 4313   1.733   2.913   0.797
 1327SOL    HW2 4314   1.743   2.939   0.958
 1328SOL     OW 4315   1.227   3.412   1.506
 1328SOL    HW1 4316   1.233   3.335   1.570
 1328SOL    HW2 4317   1.175   3.386   1.426
 1329SOL     OW 4318   0.321   2.805   0.242
 1329SOL    HW1 4319   0.403   2.844   0.200
 1329SOL    HW2 4320   0.294   2.723   0.193
 1330SOL     OW 4321   1.458   2.597   0.728
 1330SOL    HW1 4322   1.453   2.532   0.803
 1330SOL    HW2 4323   1.538   2.656   0.741
 1331SOL     OW 4324   0.461   3.128   1.727
 1331SOL    HW1 4325   0.411   3.129   1.641
 1331SOL    HW2 4326   0.398   3.110   1.803
 1332SOL     OW 4327   1.111   3.638   0.237
 1332SOL    HW1 4328   1.051   3.576   0.287
 1332SOL    HW2 4329   1.142   3.594   0.152
 1333SOL     OW 4330   0.202   2.147   1.498
 1333SOL    HW1 4331   0.122   2.207   1.485
 1333SOL    HW2 4332   0.192   2.098   1.584
 1334SOL     OW 4333   1.632   3.239   0.081
 1334SOL    HW1 4334   1.600   3.333   0.071
 1334SOL    HW2 4335   1.556   3.176   0.069
 1335SOL     OW 4336   0.464   3.605   0.323
 1335SOL    HW1 4337   0.497   3.644   0.409
 1335SOL    HW2 4338   0.540   3.598   0.258
 1336SOL     OW 4339   1.400   1.969   0.426
 1336SOL    HW1 4340   1.376   1.932   0.336
 1336SOL    HW2 4341   1.499   1.985   0.430
 1337SOL     OW 4342   0.249   3.647   1.241
 1337SOL    HW1 4343   0.306   3.582   1.291
 1337SOL    HW2 4344   0.233   3.614   1.148
 1338SOL     OW 4345   0.940   3.560   0.904
 1338SOL    HW1 4346   1.020   3.503   0.925
 1338SOL    HW2 4347   0.891   3.520   0.827
 1339SOL     OW 4348   0.382   2.562   0.480
 1339SOL    HW1 4349   0.427   2.472   0.477
 1339SOL    HW2 4350   0.288   2.551   0.513
 1340SOL     OW 4351   1.547   2.084   1.729
 1340SOL    HW1 4352   1.542   2.121   1.821
 1340SOL    HW2 4353   1.475   2.015   1.717
 1341SOL     OW 4354   0.614   1.984   0.117
 1341SOL    HW1 4355   0.712   1.962   0.124
 1341SOL    HW2 4356   0.583   1.967   0.024
 1342SOL     OW 4357   0.781   2.126   1.749
 1342SOL    HW1 4358   0.848   2.065   1.792
 1342SOL    HW2 4359   0.708   2.145   1.814
 1343SOL     OW 4360   0.888   3.376   1.195
 1343SOL    HW1 4361   0.865   3.351   1.101
 1343SOL    HW2 4362   0.949   3.307   1.234
 1344SOL     OW 4363   1.351   2.452   1.433
 1344SOL    HW1 4364   1.379   2.409   1.518
 1344SOL    HW2 4365   1.376   2.548   1.434
 1345SOL     OW 4366   0.803   3.264   0.924
 1345SOL    HW1 4367   0.893   3.278   0.882
 1345SOL    HW2 4368   0.732   3.266   0.853
 1346SOL     OW 4369   0.922   2.365   0.899
 1346SOL    HW1 4370   0.897   2.356   0.803
 1346SOL    HW2 4371   0.970   2.283   0.930
 1347SOL     OW 4372   0.539   1.926   0.512
 1347SOL    HW1 4373   0.458   1.927   0.570
 1347SOL    HW2 4374   0.542   2.009   0.457
 1348SOL     OW 4375   1.434   3.050   0.041
 1348SOL    HW1 4376   1.466   2.974   0.098
 1348SOL    HW2 4377   1.342   3.077   0.071
 1349SOL     OW 4378   0.297   1.897   0.171
 1349SOL    HW1 4379   0.346   1.981   0.150
 1349SOL    HW2 4380   0.359   1.832   0.216
 1350SOL     OW 4381   0.935   2.098   0.480
 1350SOL    HW1 4382   0.887   2.139   0.402
 1350SOL    HW2 4383   1.034   2.096   0.461
 1351SOL     OW 4384   1.076   2.545   1.464
 1351SOL    HW1 4385   0.996   2.484   1.467
 1351SOL    HW2 4386   1.157   2.492   1.440
 1352SOL     OW 4387   1.227   3.432   0.793
 1352SOL    HW1 4388   1.248   3.506   0.728
 1352SOL    HW2 4389   1.295   3.432   0.866
 1353SOL     OW 4390   0.459   3.014   0.741
 1353SOL    HW1 4391   0.388   2.987   0.806
 1353SOL    HW2 4392   0.433   2.986   0.648
 1354SOL     OW 4393   1.271   3.659   0.591
 1354SOL    HW1 4394   1.315   3.723   0.527
 1354SOL    HW2 4395   1.221   3.711   0.661
 1355SOL     OW 4396   1.032   2.411   0.016
 1355SOL    HW1 4397   0.991   2.493  -0.023
 1355SOL    HW2 4398   1.096   2.437   0.089
 1356SOL     OW 4399   0.078   2.418   1.386
 1356SOL    HW1 4400   0.170   2.417   1.345
 1356SOL    HW2 4401   0.072   2.492   1.453
 1357SOL     OW 4402   0.561   2.084   1.147
 1357SOL    HW1 4403   0.599   2.000   1.184
 1357SOL    HW2 4404   0.473   2.103   1.191
 1358SOL     OW 4405   0.866   2.316   0.642
 1358SOL    HW1 4406   0.834   2.388   0.580
 1358SOL    HW2 4407   0.890   2.235   0.589
 1359SOL     OW 4408   1.017   1.901   0.753
 1359SOL    HW1 4409   0.945   1.906   0.684
 1359SOL    HW2 4410   0.993   1.832   0.822
 1360SOL     OW 4411   1.429   3.035   0.867
 1360SOL    HW1 4412   1.374   2.951   0.860
 1360SOL    HW2 4413   1.455   3.064   0.775
 1361SOL     OW 4414   1.466   2.452   0.992
 1361SOL    HW1 4415   1.436   2.357   0.999
 1361SOL    HW2 4416   1.539   2.468   1.058
 1362SOL     OW 4417   1.857   2.695   0.377
 1362SOL    HW1 4418   1.899   2.631   0.441
 1362SOL    HW2 4419   1.819   2.644   0.299
 1363SOL     OW 4420   0.488   3.247   0.174
 1363SOL    HW1 4421   0.401   3.232   0.221
 1363SOL    HW2 4422   0.471   3.273   0.079
 1364SOL     OW 4423   1.664   3.142   0.657
 1364SOL    HW1 4424   1.763   3.150   0.671
 1364SOL    HW2 4425   1.619   3.226   0.688
 1365SOL     OW 4426   1.390   2.437   0.078
 1365SOL    HW1 4427   1.336   2.416   0.159
 1365SOL    HW2 4428   1.481   2.396   0.087
 1366SOL     OW 4429   0.527   2.118   0.328
 1366SOL    HW1 4430   0.554   2.059   0.253
 1366SOL    HW2 4431   0.527   2.213   0.297
 1367SOL     OW 4432   1.754   3.085   1.588
 1367SOL    HW1 4433   1.845   3.046   1.575
 1367SOL    HW2 4434   1.762   3.181   1.612
 1368SOL     OW 4435   1.064   3.209   1.340
 1368SOL    HW1 4436   0.984   3.186   1.395
 1368SOL    HW2 4437   1.147   3.183   1.389
 1369SOL     OW 4438   1.592   3.491   1.625
 1369SOL    HW1 4439   1.619   3.525   1.535
 1369SOL    HW2 4440   1.671   3.453   1.671
 1370SOL     OW 4441   1.111   3.057   1.100
 1370SOL    HW1 4442   1.071   3.101   1.181
 1370SOL    HW2 4443   1.070   3.094   1.017
 1371SOL     OW 4444   1.638   2.961   1.079
 1371SOL    HW1 4445   1.643   3.042   1.138
 1371SOL    HW2 4446   1.552   2.963   1.028
 1372SOL     OW 4447   0.915   1.951   1.402
 1372SOL    HW1 4448   0.940   1.931   1.307
 1372SOL    HW2 4449   0.987   2.007   1.444
 1373SOL     OW 4450   0.980   2.978   1.719
 1373SOL    HW1 4451   0.881   2.984   1.729
 1373SOL    HW2 4452   1.003   2.898   1.663
 1374SOL     OW 4453   0.705   2.912   0.368
 1374SOL    HW1 4454   0.691   2.919   0.467
 1374SOL    HW2 4455   0.789   2.861   0.350
 1375SOL     OW 4456   0.410   2.675   1.251
 1375SOL    HW1 4457   0.496   2.687   1.301
 1375SOL    HW2 4458   0.368   2.588   1.278
 1376SOL     OW 4459   1.274   2.248   1.262
 1376SOL    HW1 4460   1.295   2.322   1.326
 1376SOL    HW2 4461   1.185   2.265   1.219
 1377SOL     OW 4462   0.064   3.426   1.331
 1377SOL    HW1 4463   0.018   3.508   1.297
 1377SOL    HW2 4464   0.162   3.445   1.340
 1378SOL     OW 4465   0.367   2.962   0.501
 1378SOL    HW1 4466   0.360   3.045   0.445
 1378SOL    HW2 4467   0.371   2.882   0.441
 1379SOL     OW 4468   0.566   2.399   0.865
 1379SOL    HW1 4469   0.578   2.465   0.791
 1379SOL    HW2 4470   0.612   2.433   0.948
 1380SOL     OW 4471   1.252   3.210   0.388
 1380SOL    HW1 4472   1.302   3.287   0.428
 1380SOL    HW2 4473   1.157   3.212   0.420
 1381SOL     OW 4474   1.272   3.307   1.142
 1381SOL    HW1 4475   1.319   3.320   1.229
 1381SOL    HW2 4476   1.206   3.233   1.151
 1382SOL     OW 4477   1.582   2.501   0.472
 1382SOL    HW1 4478   1.551   2.562   0.545
 1382SOL    HW2 4479   1.632   2.553   0.403
 1383SOL     OW 4480   0.354   3.372   1.329
 1383SOL    HW1 4481   0.333   3.328   1.242
 1383SOL    HW2 4482   0.451   3.398   1.332
 1384SOL     OW 4483   0.402   2.613   1.598
 1384SOL    HW1 4484   0.470   2.668   1.551
 1384SOL    HW2 4485   0.442   2.525   1.625
 1385SOL     OW 4486   1.587   2.641   1.670
 1385SOL    HW1 4487   1.495   2.679   1.665
 1385SOL    HW2 4488   1.647   2.688   1.605
 1386SOL     OW 4489   1.013   1.967   1.770
 1386SOL    HW1 4490   1.019   2.052   1.718
 1386SOL    HW2 4491   1.045   1.891   1.713
 1387SOL     OW 4492   0.504   1.912   1.740
 1387SOL    HW1 4493   0.462   1.855   1.670
 1387SOL    HW2 4494   0.438   1.981   1.772
 1388SOL     OW 4495   0.573   2.732   1.029
 1388SOL    HW1 4496   0.617   2.821   1.020
 1388SOL    HW2 4497   0.510   2.732   1.106
 1389SOL     OW 4498   1.360   2.724   1.045
 1389SOL    HW1 4499   1.285   2.724   0.979
 1389SOL    HW2 4500   1.397   2.632   1.054
 1390SOL     OW 4501   1.209   2.387   0.275
 1390SOL    HW1 4502   1.222   2.303   0.329
 1390SOL    HW2 4503   1.180   2.461   0.335
 1391SOL     OW 4504   0.307   2.075   1.231
 1391SOL    HW1 4505   0.284   2.112   1.321
 1391SOL    HW2 4506   0.277   1.980   1.225
 1392SOL     OW 4507   0.037   3.172   1.282
 1392SOL    HW1 4508   0.090   3.123   1.350
 1392SOL    HW2 4509   0.059   3.270   1.287
 1393SOL     OW 4510   0.732   2.496   1.064
 1393SOL    HW1 4511   0.791   2.470   0.988
 1393SOL    HW2 4512   0.704   2.592   1.053
 1394SOL     OW 4513   1.728   2.797   1.854
 1394SOL    HW1 4514   1.682   2.790   1.765
 1394SOL    HW2 4515   1.666   2.841   1.920
 1395SOL     OW 4516   0.307   1.925   0.618
 1395SOL    HW1 4517   0.296   2.019   0.651
 1395SOL    HW2 4518   0.302   1.862   0.695
 1396SOL     OW 4519   1.622   2.229   0.374
 1396SOL    HW1 4520   1.624   2.153   0.438
 1396SOL    HW2 4521   1.574   2.306   0.414
 1397SOL     OW 4522   1.023   2.628   0.966
 1397SOL    HW1 4523   1.038   2.649   1.062
 1397SOL    HW2 4524   0.993   2.533   0.957
 1398SOL     OW 4525   0.980   3.435   1.700
 1398SOL    HW1 4526   0.960   3.479   1.612
 1398SOL    HW2 4527   1.019   3.344   1.684
 1399SOL     OW 4528   1.859   3.380   1.605
 1399SOL    HW1 4529   1.873   3.407   1.510
 1399SOL    HW2 4530   1.942   3.402   1.658
 1400SOL     OW 4531   0.350   2.760   1.804
 1400SOL    HW1 4532   0.426   2.804   1.852
 1400SOL    HW2 4533   0.385   2.713   1.722
 1401SOL     OW 4534   1.540   2.136   0.125
 1401SOL    HW1 4535   1.479   2.061   0.148
 1401SOL    HW2 4536   1.562   2.188   0.208
 1402SOL     OW 4537   1.303   2.700   0.042
 1402SOL    HW1 4538   1.337   2.607   0.057
 1402SOL    HW2 4539   1.321   2.727  -0.053
 1403SOL     OW 4540   1.068   3.195   0.849
 1403SOL    HW1 4541   1.075   3.111   0.794
 1403SOL    HW2 4542   1.130   3.264   0.813
 1404SOL     OW 4543   0.319   2.672   0.949
 1404SOL    HW1 4544   0.412   2.708   0.954
 1404SOL    HW2 4545   0.313   2.587   1.001
 1405SOL     OW 4546   0.339   2.371   1.006
 1405SOL    HW1 4547   0.287   2.288   0.989
 1405SOL    HW2 4548   0.416   2.376   0.942
 1406SOL     OW 4549   1.138   2.242   1.678
 1406SOL    HW1 4550   1.093   2.305   1.742
 1406SOL    HW2 4551   1.231   2.273   1.661
 1407SOL     OW 4552   1.160   2.069   1.477
 1407SOL    HW1 4553   1.160   2.133   1.554
 1407SOL    HW2 4554   1.188   2.117   1.394
 1408SOL     OW 4555   0.008   3.188   0.200
 1408SOL    HW1 4556  -0.085   3.209   0.169
 1408SOL    HW2 4557   0.018   3.089   0.213
 1409SOL     OW 4558   0.088   3.663   0.927
 1409SOL    HW1 4559   0.046   3.577   0.900
 1409SOL    HW2 4560   0.182   3.666   0.893
 1410SOL     OW 4561   0.504   3.430   0.910
 1410SOL    HW1 4562   0.570   3.504   0.919
 1410SOL    HW2 4563   0.548   3.351   0.868
 1411SOL     OW 4564   1.002   2.658   1.238
 1411SOL    HW1 4565   1.043   2.626   1.324
 1411SOL    HW2 4566   0.906   2.631   1.235
 1412SOL     OW 4567   0.040   2.406   1.114
 1412SOL    HW1 4568   0.125   2.373   1.073
 1412SOL    HW2 4569   0.053   2.421   1.212
 1413SOL     OW 4570   0.189   2.382   1.722
 1413SOL    HW1 4571   0.248   2.342   1.652
 1413SOL    HW2 4572   0.131   2.453   1.681
 1414SOL     OW 4573   1.369   2.812   1.660
 1414SOL    HW1 4574   1.408   2.901   1.680
 1414SOL    HW2 4575   1.379   2.792   1.563
 1415SOL     OW 4576   0.815   2.434   0.325
 1415SOL    HW1 4577   0.822   2.345   0.279
 1415SOL    HW2 4578   0.721   2.468   0.317
 1416SOL     OW 4579   1.657   2.466   1.206
 1416SOL    HW1 4580   1.619   2.397   1.268
 1416SOL    HW2 4581   1.739   2.430   1.162
 1417SOL     OW 4582   0.252   3.426   1.744
 1417SOL    HW1 4583   0.222   3.483   1.820
 1417SOL    HW2 4584   0.245   3.329   1.770
 1418SOL     OW 4585   0.671   2.326   1.269
 1418SOL    HW1 4586   0.637   2.237   1.239
 1418SOL    HW2 4587   0.697   2.380   1.189
 1419SOL     OW 4588   0.930   3.540   1.465
 1419SOL    HW1 4589   0.906   3.522   1.370
 1419SOL    HW2 4590   0.960   3.634   1.475
 1420SOL     OW 4591   0.473   2.362   0.191
 1420SOL    HW1 4592   0.534   2.442   0.195
 1420SOL    HW2 4593   0.378   2.393   0.198
 1421SOL     OW 4594   0.159   2.999   1.466
 1421SOL    HW1 4595   0.181   2.938   1.542
 1421SOL    HW2 4596   0.169   2.950   1.380
 1422SOL     OW 4597   1.347   2.921   1.234
 1422SOL    HW1 4598   1.371   2.858   1.160
 1422SOL    HW2 4599   1.257   2.961   1.216
 1423SOL     OW 4600   1.302   2.717   0.309
 1423SOL    HW1 4601   1.216   2.686   0.351
 1423SOL    HW2 4602   1.298   2.703   0.210
 1424SOL     OW 4603   1.759   3.609   1.154
 1424SOL    HW1 4604   1.820   3.639   1.081
 1424SOL    HW2 4605   1.721   3.520   1.132
 1425SOL     OW 4606   1.252   3.593   1.128
 1425SOL    HW1 4607   1.336   3.598   1.074
 1425SOL    HW2 4608   1.229   3.497   1.146
 1426SOL     OW 4609   0.083   3.120   1.022
 1426SOL    HW1 4610   0.078   3.119   1.122
 1426SOL    HW2 4611   0.000   3.079   0.984
 1427SOL     OW 4612   0.688   3.524   1.716
 1427SOL    HW1 4613   0.632   3.605   1.725
 1427SOL    HW2 4614   0.740   3.528   1.630
 1428SOL     OW 4615   0.903   1.948   0.133
 1428SOL    HW1 4616   0.954   1.949   0.047
 1428SOL    HW2 4617   0.959   1.906   0.204
 1429SOL     OW 4618   1.726   1.997   0.523
 1429SOL    HW1 4619   1.799   1.980   0.456
 1429SOL    HW2 4620   1.695   1.910   0.561
 1430SOL     OW 4621   1.388   3.435   0.477
 1430SOL    HW1 4622   1.455   3.447   0.403
 1430SOL    HW2 4623   1.348   3.524   0.500
 1431SOL     OW 4624   0.130   3.656   1.851
 1431SOL    HW1 4625   0.089   3.582   1.904
 1431SOL    HW2 4626   0.194   3.707   1.909
 1432SOL     OW 4627   1.280   2.789   0.672
 1432SOL    HW1 4628   1.340   2.708   0.674
 1432SOL    HW2 4629   1.320   2.858   0.612
 1433SOL     OW 4630   0.830   3.135   1.422
 1433SOL    HW1 4631   0.825   3.168   1.517
 1433SOL    HW2 4632   0.744   3.154   1.376
 1434SOL     OW 4633   0.672   3.478   0.154
 1434SOL    HW1 4634   0.681   3.488   0.055
 1434SOL    HW2 4635   0.632   3.389   0.175
 1435SOL     OW 4636   1.650   3.582   1.394
 1435SOL    HW1 4637   1.703   3.592   1.310
 1435SOL    HW2 4638   1.623   3.672   1.428
 1436SOL     OW 4639   1.841   2.037   0.963
 1436SOL    HW1 4640   1.880   1.952   0.927
 1436SOL    HW2 4641   1.743   2.039   0.944
 1437SOL     OW 4642   0.263   2.188   0.720
 1437SOL    HW1 4643   0.184   2.239   0.686
 1437SOL    HW2 4644   0.254   2.173   0.818
 1438SOL     OW 4645   1.194   3.474   0.031
 1438SOL    HW1 4646   1.200   3.381   0.068
 1438SOL    HW2 4647   1.135   3.474  -0.049
 1439SOL     OW 4648   0.822   2.864   1.372
 1439SOL    HW1 4649   0.862   2.863   1.280
 1439SOL    HW2 4650   0.832   2.956   1.412
 1440SOL     OW 4651   0.916   2.772   0.291
 1440SOL    HW1 4652   0.979   2.810   0.223
 1440SOL    HW2 4653   0.956   2.689   0.330
 1441SOL     OW 4654   1.504   3.469   0.044
 1441SOL    HW1 4655   1.412   3.506   0.051
 1441SOL    HW2 4656   1.542   3.489  -0.046
 1442SOL     OW 4657   0.372   3.150   1.490
 1442SOL    HW1 4658   0.359   3.243   1.456
 1442SOL    HW2 4659   0.288   3.098   1.477
 1443SOL     OW 4660   1.614   3.154   1.289
 1443SOL    HW1 4661   1.674   3.157   1.369
 1443SOL    HW2 4662   1.539   3.218   1.302
 1444SOL     OW 4663   1.039   2.960   0.696
 1444SOL    HW1 4664   0.969   2.913   0.750
 1444SOL    HW2 4665   1.098   2.892   0.653
 1445SOL     OW 4666   1.014   2.098   0.971
 1445SOL    HW1 4667   1.006   2.062   0.878
 1445SOL    HW2 4668   1.012   2.022   1.036
 1446SOL     OW 4669   0.590   3.349   0.491
 1446SOL    HW1 4670   0.632   3.291   0.421
 1446SOL    HW2 4671   0.546   3.428   0.447
 1447SOL     OW 4672   1.709   2.247   1.381
 1447SOL    HW1 4673   1.782   2.316   1.385
 1447SOL    HW2 4674   1.737   2.172   1.322
 1448SOL     OW 4675   0.255   3.210   0.290
 1448SOL    HW1 4676   0.159   3.211   0.263
 1448SOL    HW2 4677   0.267   3.263   0.374
 1449SOL     OW 4678   0.105   2.875   1.726
 1449SOL    HW1 4679   0.028   2.842   1.780
 1449SOL    HW2 4680   0.190   2.845   1.768
 1450SOL     OW 4681   0.672   2.065   1.489
 1450SOL    HW1 4682   0.762   2.049   1.449
 1450SOL    HW2 4683   0.680   2.070   1.588
 1451SOL     OW 4684   0.075   2.207   0.033
 1451SOL    HW1 4685  -0.017   2.179   0.004
 1451SOL    HW2 4686   0.106   2.284  -0.023
 1452SOL     OW 4687   1.440   2.718   1.398
 1452SOL    HW1 4688   1.383   2.770   1.335
 1452SOL    HW2 4689   1.536   2.730   1.374
 1453SOL     OW 4690   0.072   2.028   0.318
 1453SOL    HW1 4691   0.055   2.111   0.264
 1453SOL    HW2 4692   0.162   1.991   0.296
 1454SOL     OW 4693   1.183   3.197   0.119
 1454SOL    HW1 4694   1.084   3.186   0.121
 1454SOL    HW2 4695   1.217   3.212   0.212
 1455SOL     OW 4696   0.613   2.704   1.431
 1455SOL    HW1 4697   0.669   2.785   1.414
 1455SOL    HW2 4698   0.672   2.624   1.434
 1456SOL     OW 4699   1.493   3.629   0.959
 1456SOL    HW1 4700   1.526   3.693   0.890
 1456SOL    HW2 4701   1.559   3.623   1.034
 1457SOL     OW 4702   0.716   2.427   1.708
 1457SOL    HW1 4703   0.735   2.492   1.782
 1457SOL    HW2 4704   0.776   2.347   1.717
 1458SOL     OW 4705   1.450   3.082   1.633
 1458SOL    HW1 4706   1.441   3.072   1.732
 1458SOL    HW2 4707   1.546   3.075   1.607
 1459SOL     OW 4708   0.390   3.603   1.560
 1459SOL    HW1 4709   0.299   3.644   1.558
 1459SOL    HW2 4710   0.383   3.509   1.592
 1460SOL     OW 4711   1.674   2.745   1.254
 1460SOL    HW1 4712   1.647   2.656   1.217
 1460SOL    HW2 4713   1.675   2.813   1.181
 1461SOL     OW 4714   1.225   2.187   0.449
 1461SOL    HW1 4715   1.290   2.113   0.438
 1461SOL    HW2 4716   1.245   2.237   0.533
 1462SOL     OW 4717   0.594   2.607   0.652
 1462SOL    HW1 4718   0.644   2.692   0.633
 1462SOL    HW2 4719   0.506   2.609   0.604
 1463SOL     OW 4720   1.777   2.204   1.642
 1463SOL    HW1 4721   1.760   2.235   1.548
 1463SOL    HW2 4722   1.693   2.167   1.680
 1464SOL     OW 4723   1.730   2.796   1.517
 1464SOL    HW1 4724   1.768   2.887   1.532
 1464SOL    HW2 4725   1.722   2.779   1.418
 1465SOL     OW 4726   0.859   3.236   0.016
 1465SOL    HW1 4727   0.813   3.251   0.104
 1465SOL    HW2 4728   0.903   3.321  -0.014
 1466SOL     OW 4729   0.661   3.652   0.953
 1466SOL    HW1 4730   0.615   3.740   0.940
 1466SOL    HW2 4731   0.760   3.664   0.946
 1467SOL     OW 4732   0.859   2.818   0.861
 1467SOL    HW1 4733   0.913   2.749   0.909
 1467SOL    HW2 4734   0.827   2.887   0.927
 1468SOL     OW 4735   1.083   2.846   0.087
 1468SOL    HW1 4736   1.060   2.899   0.005
 1468SOL    HW2 4737   1.164   2.790   0.068
 1469SOL     OW 4738   1.861   3.431   0.851
 1469SOL    HW1 4739   1.790   3.419   0.781
 1469SOL    HW2 4740   1.862   3.352   0.911
 1470SOL     OW 4741   0.221   3.176   1.844
 1470SOL    HW1 4742   0.156   3.103   1.823
 1470SOL    HW2 4743   0.225   3.190   1.942
 1471SOL     OW 4744   0.079   3.102   0.653
 1471SOL    HW1 4745   0.078   3.055   0.741
 1471SOL    HW2 4746   0.161   3.074   0.602
 1472SOL     OW 4747   0.672   3.253   1.624
 1472SOL    HW1 4748   0.594   3.203   1.662
 1472SOL    HW2 4749   0.669   3.348   1.655
 1473SOL     OW 4750   1.824   2.054   1.227
 1473SOL    HW1 4751   1.820   1.964   1.271
 1473SOL    HW2 4752   1.827   2.043   1.128
 1474SOL     OW 4753   0.428   2.286   0.520
 1474SOL    HW1 4754   0.458   2.214   0.458
 1474SOL    HW2 4755   0.389   2.246   0.603
 1475SOL     OW 4756   1.705   3.349   1.104
 1475SOL    HW1 4757   1.612   3.324   1.077
 1475SOL    HW2 4758   1.731   3.299   1.186
 1476SOL     OW 4759   0.317   2.409   1.280
 1476SOL    HW1 4760   0.355   2.350   1.352
 1476SOL    HW2 4761   0.357   2.383   1.192
 1477SOL     OW 4762   0.812   3.448   0.687
 1477SOL    HW1 4763   0.844   3.458   0.593
 1477SOL    HW2 4764   0.733   3.386   0.689
 1478SOL     OW 4765   1.424   2.076   1.112
 1478SOL    HW1 4766   1.476   2.011   1.167
 1478SOL    HW2 4767   1.375   2.139   1.173
 1479SOL     OW 4768   1.001   1.896   1.154
 1479SOL    HW1 4769   0.938   1.824   1.123
 1479SOL    HW2 4770   1.094   1.860   1.154
 1480SOL     OW 4771   0.770   3.192   0.301
 1480SOL    HW1 4772   0.724   3.105   0.318
 1480SOL    HW2 4773   0.861   3.189   0.342
 1481SOL     OW 4774   0.618   3.429   1.284
 1481SOL    HW1 4775   0.613   3.511   1.341
 1481SOL    HW2 4776   0.707   3.426   1.239
 1482SOL     OW 4777   1.352   1.914   0.168
 1482SOL    HW1 4778   1.387   1.873   0.084
 1482SOL    HW2 4779   1.262   1.876   0.188
 1483SOL     OW 4780   1.300   2.315   0.691
 1483SOL    HW1 4781   1.241   2.395   0.695
 1483SOL    HW2 4782   1.315   2.280   0.784
 1484SOL     OW 4783   1.593   2.083   0.882
 1484SOL    HW1 4784   1.509   2.082   0.936
 1484SOL    HW2 4785   1.595   2.166   0.826
 1485SOL     OW 4786   0.039   2.939   0.300
 1485SOL    HW1 4787   0.138   2.928   0.291
 1485SOL    HW2 4788  -0.001   2.853   0.332
 1486SOL     OW 4789   0.875   3.508   0.337
 1486SOL    HW1 4790   0.798   3.473   0.283
 1486SOL    HW2 4791   0.843   3.579   0.399
 1487SOL     OW 4792   0.230   2.490   1.975
 1487SOL    HW1 4793   0.137   2.488   2.012
 1487SOL    HW2 4794   0.231   2.451   1.883
 1488SOL     OW 4795   0.225   2.137   2.858
 1488SOL    HW1 4796   0.260   2.120   2.950
 1488SOL    HW2 4797   0.137   2.092   2.846
 1489SOL     OW 4798   0.019   2.230   2.509
 1489SOL    HW1 4799  -0.063   2.273   2.548
 1489SOL    HW2 4800  -0.009   2.157   2.446
 1490SOL     OW 4801   0.569   3.137   3.027
 1490SOL    HW1 4802   0.476   3.130   2.990
 1490SOL    HW2 4803   0.580   3.226   3.071
 1491SOL     OW 4804   1.555   3.373   2.565
 1491SOL    HW1 4805   1.498   3.357   2.646
 1491SOL    HW2 4806   1.496   3.383   2.485
 1492SOL     OW 4807   1.135   2.565   2.579
 1492SOL    HW1 4808   1.192   2.643   2.554
 1492SOL    HW2 4809   1.075   2.591   2.655
 1493SOL     OW 4810   1.755   2.469   2.093
 1493SOL    HW1 4811   1.743   2.456   1.994
 1493SOL    HW2 4812   1.725   2.388   2.142
 1494SOL     OW 4813   0.768   3.006   2.885
 1494SOL    HW1 4814   0.690   3.023   2.945
 1494SOL    HW2 4815   0.802   3.093   2.849
 1495SOL     OW 4816   0.850   2.660   3.685
 1495SOL    HW1 4817   0.846   2.736   3.750
 1495SOL    HW2 4818   0.872   2.696   3.594
 1496SOL     OW 4819   0.685   2.874   2.527
 1496SOL    HW1 4820   0.754   2.858   2.597
 1496SOL    HW2 4821   0.612   2.931   2.565
 1497SOL     OW 4822   0.686   3.023   3.665
 1497SOL    HW1 4823   0.746   3.102   3.679
 1497SOL    HW2 4824   0.600   3.054   3.624
 1498SOL     OW 4825   0.335   3.297   2.923
 1498SOL    HW1 4826   0.257   3.266   2.870
 1498SOL    HW2 4827   0.393   3.355   2.866
 1499SOL     OW 4828   1.460   3.367   3.201
 1499SOL    HW1 4829   1.484   3.461   3.227
 1499SOL    HW2 4830   1.444   3.313   3.283
 1500SOL     OW 4831   0.438   2.254   3.361
 1500SOL    HW1 4832   0.520   2.198   3.370
 1500SOL    HW2 4833   0.357   2.196   3.365
 1501SOL     OW 4834   1.603   2.309   2.599
 1501SOL    HW1 4835   1.529   2.355   2.549
 1501SOL    HW2 4836   1.654   2.377   2.652
 1502SOL     OW 4837   0.231   3.575   2.345
 1502SOL    HW1 4838   0.265   3.652   2.399
 1502SOL    HW2 4839   0.275   3.575   2.255
 1503SOL     OW 4840   1.127   3.203   3.552
 1503SOL    HW1 4841   1.174   3.203   3.640
 1503SOL    HW2 4842   1.079   3.116   3.541
 1504SOL     OW 4843   0.230   3.296   2.400
 1504SOL    HW1 4844   0.204   3.392   2.400
 1504SOL    HW2 4845   0.159   3.242   2.445
 1505SOL     OW 4846   0.240   2.953   2.748
 1505SOL    HW1 4847   0.254   2.869   2.800
 1505SOL    HW2 4848   0.185   3.017   2.803
 1506SOL     OW 4849   0.620   3.648   3.301
 1506SOL    HW1 4850   0.528   3.631   3.336
 1506SOL    HW2 4851   0.648   3.740   3.327
 1507SOL     OW 4852   0.606   2.826   1.985
 1507SOL    HW1 4853   0.613   2.910   1.931
 1507SOL    HW2 4854   0.652   2.839   2.073
 1508SOL     OW 4855   1.594   1.976   3.342
 1508SOL    HW1 4856   1.576   2.043   3.270
 1508SOL    HW2 4857   1.591   2.022   3.431
 1509SOL     OW 4858   0.122   2.505   2.425
 1509SOL    HW1 4859   0.077   2.417   2.442
 1509SOL    HW2 4860   0.121   2.559   2.509
 1510SOL     OW 4861   1.842   3.629   2.221
 1510SOL    HW1 4862   1.896   3.600   2.301
 1510SOL    HW2 4863   1.872   3.719   2.192
 1511SOL     OW 4864   0.027   3.458   1.979
 1511SOL    HW1 4865   0.008   3.362   2.000
 1511SOL    HW2 4866  -0.006   3.516   2.054
 1512SOL     OW 4867   1.689   2.784   2.474
 1512SOL    HW1 4868   1.784   2.755   2.482
 1512SOL    HW2 4869   1.681   2.849   2.399
 1513SOL     OW 4870   1.641   2.970   2.294
 1513SOL    HW1 4871   1.727   2.972   2.242
 1513SOL    HW2 4872   1.655   3.017   2.382
 1514SOL     OW 4873   0.113   2.599   3.459
 1514SOL    HW1 4874   0.201   2.586   3.504
 1514SOL    HW2 4875   0.100   2.696   3.437
 1515SOL     OW 4876   0.613   3.227   2.588
 1515SOL    HW1 4877   0.564   3.140   2.597
 1515SOL    HW2 4878   0.590   3.270   2.501
 1516SOL     OW 4879   1.293   3.090   3.285
 1516SOL    HW1 4880   1.330   3.017   3.227
 1516SOL    HW2 4881   1.345   3.095   3.370
 1517SOL     OW 4882   0.809   1.866   2.364
 1517SOL    HW1 4883   0.849   1.957   2.355
 1517SOL    HW2 4884   0.709   1.874   2.370
 1518SOL     OW 4885   0.197   2.838   3.126
 1518SOL    HW1 4886   0.286   2.793   3.112
 1518SOL    HW2 4887   0.124   2.773   3.107
 1519SOL     OW 4888   1.525   2.861   2.052
 1519SOL    HW1 4889   1.462   2.785   2.065
 1519SOL    HW2 4890   1.573   2.879   2.138
 1520SOL     OW 4891   1.187   3.654   3.478
 1520SOL    HW1 4892   1.211   3.714   3.402
 1520SOL    HW2 4893   1.194   3.559   3.448
 1521SOL     OW 4894   0.317   2.113   3.663
 1521SOL    HW1 4895   0.388   2.184   3.669
 1521SOL    HW2 4896   0.229   2.152   3.691
 1522SOL     OW 4897   1.466   3.279   2.815
 1522SOL    HW1 4898   1.407   3.285   2.895
 1522SOL    HW2 4899   1.451   3.191   2.769
 1523SOL     OW 4900   1.667   3.576   2.434
 1523SOL    HW1 4901   1.626   3.553   2.346
 1523SOL    HW2 4902   1.649   3.502   2.499
 1524SOL     OW 4903   0.598   2.591   2.132
 1524SOL    HW1 4904   0.622   2.660   2.064
 1524SOL    HW2 4905   0.520   2.624   2.186
 1525SOL     OW 4906   1.281   2.207   2.806
 1525SOL    HW1 4907   1.195   2.157   2.793
 1525SOL    HW2 4908   1.343   2.153   2.862
 1526SOL     OW 4909   1.576   3.524   2.169
 1526SOL    HW1 4910   1.665   3.570   2.172
 1526SOL    HW2 4911   1.555   3.500   2.074
 1527SOL     OW 4912   0.807   2.467   3.327
 1527SOL    HW1 4913   0.760   2.464   3.416
 1527SOL    HW2 4914   0.756   2.412   3.261
 1528SOL     OW 4915   1.394   2.331   3.536
 1528SOL    HW1 4916   1.374   2.374   3.624
 1528SOL    HW2 4917   1.472   2.269   3.545
 1529SOL     OW 4918   0.973   2.752   3.434
 1529SOL    HW1 4919   1.019   2.668   3.405
 1529SOL    HW2 4920   0.917   2.786   3.359
 1530SOL     OW 4921   0.991   2.272   3.104
 1530SOL    HW1 4922   0.914   2.306   3.158
 1530SOL    HW2 4923   0.957   2.221   3.025
 1531SOL     OW 4924   1.041   2.563   2.291
 1531SOL    HW1 4925   1.067   2.559   2.387
 1531SOL    HW2 4926   0.956   2.512   2.277
 1532SOL     OW 4927   0.076   2.673   2.651
 1532SOL    HW1 4928   0.175   2.661   2.660
 1532SOL    HW2 4929   0.052   2.768   2.672
 1533SOL     OW 4930   0.130   3.683   3.433
 1533SOL    HW1 4931   0.120   3.668   3.532
 1533SOL    HW2 4932   0.044   3.719   3.397
 1534SOL     OW 4933   0.865   2.210   2.057
 1534SOL    HW1 4934   0.924   2.273   2.008
 1534SOL    HW2 4935   0.884   2.116   2.028
 1535SOL     OW 4936   1.719   2.447   3.693
 1535SOL    HW1 4937   1.693   2.536   3.657
 1535SOL    HW2 4938   1.717   2.379   3.620
 1536SOL     OW 4939   1.362   3.006   2.407
 1536SOL    HW1 4940   1.445   2.977   2.359
 1536SOL    HW2 4941   1.313   3.073   2.351
 1537SOL     OW 4942   0.550   2.058   2.747
 1537SOL    HW1 4943   0.545   2.053   2.847
 1537SOL    HW2 4944   0.552   2.154   2.718
 1538SOL     OW 4945   1.008   3.318   2.339
 1538SOL    HW1 4946   0.962   3.390   2.287
 1538SOL    HW2 4947   1.004   3.338   2.437
 1539SOL     OW 4948   0.351   3.663   2.715
 1539SOL    HW1 4949   0.401   3.577   2.721
 1539SOL    HW2 4950   0.416   3.740   2.712
 1540SOL     OW 4951   1.795   2.928   2.735
 1540SOL    HW1 4952   1.733   2.913   2.659
 1540SOL    HW2 4953   1.743   2.939   2.820
 1541SOL     OW 4954   1.227   3.412   3.368
 1541SOL    HW1 4955   1.233   3.335   3.432
 1541SOL    HW2 4956   1.175   3.386   3.288
 1542SOL     OW 4957   0.321   2.805   2.104
 1542SOL    HW1 4958   0.403   2.844   2.062
 1542SOL    HW2 4959   0.294   2.723   2.055
 1543SOL     OW 4960   1.458   2.597   2.590
 1543SOL    HW1 4961   1.453   2.532   2.665
 1543SOL    HW2 4962   1.538   2.656   2.603
 1544SOL     OW 4963   0.461   3.128   3.589
 1544SOL    HW1 4964   0.411   3.129   3.503
 1544SOL    HW2 4965   0.398   3.110   3.665
 1545SOL     OW 4966   1.111   3.638   2.099
 1545SOL    HW1 4967   1.051   3.576   2.149
 1545SOL    HW2 4968   1.142   3.594   2.014
 1546SOL     OW 4969   0.202   2.147   3.360
 1546SOL    HW1 4970   0.122   2.207   3.347
 1546SOL    HW2 4971   0.192   2.098   3.446
 1547SOL     OW 4972   1.632   3.239   1.943
 1547SOL    HW1 4973   1.600   3.333   1.933
 1547SOL    HW2 4974   1.556   3.176   1.931
 1548SOL     OW 4975   0.464   3.605   2.185
 1548SOL    HW1 4976   0.497   3.644   2.271
 1548SOL    HW2 4977   0.540   3.598   2.120
 1549SOL     OW 4978   1.400   1.969   2.288
 1549SOL    HW1 4979   1.376   1.932   2.198
 1549SOL    HW2 4980   1.499   1.985   2.292
 1550SOL     OW 4981   0.249   3.647   3.103
 1550SOL    HW1 4982   0.306   3.582   3.153
 1550SOL    HW2 4983   0.233   3.614   3.010
 1551SOL     OW 4984   0.940   3.560   2.766
 1551SOL    HW1 4985   1.020   3.503   2.787
 1551SOL    HW2 4986   0.891   3.520   2.689
 1552SOL     OW 4987   0.382   2.562   2.342
 1552SOL    HW1 4988   0.427   2.472   2.339
 1552SOL    HW2 4989   0.288   2.551   2.375
 1553SOL     OW 4990   1.547   2.084   3.591
 1553SOL    HW1 4991   1.542   2.121   3.683
 1553SOL    HW2 4992   1.475   2.015   3.579
 1554SOL     OW 4993   0.614   1.984   1.979
 1554SOL    HW1 4994   0.712   1.962   1.986
 1554SOL    HW2 4995   0.583   1.967   1.886
 1555SOL     OW 4996   0.781   2.126   3.611
 1555SOL    HW1 4997   0.848   2.065   3.654
 1555SOL    HW2 4998   0.708   2.145   3.676
 1556SOL     OW 4999   0.888   3.376   3.057
 1556SOL    HW1 5000   0.865   3.351   2.963
 1556SOL    HW2 5001   0.949   3.307   3.096
 1557SOL     OW 5002   1.351   2.452   3.295
 1557SOL    HW1 5003   1.379   2.409   3.380
 1557SOL    HW2 5004   1.376   2.548   3.296
 1558SOL     OW 5005   0.803   3.264   2.786
 1558SOL    HW1 5006   0.893   3.278   2.744
 1558SOL    HW2 5007   0.732   3.266   2.715
 1559SOL     OW 5008   0.922   2.365   2.761
 1559SOL    HW1 5009   0.897   2.356   2.665
 1559SOL    HW2 5010   0.970   2.283   2.792
 1560SOL     OW 5011   0.539   1.926   2.374
 1560SOL    HW1 5012   0.458   1.927   2.432
 1560SOL    HW2 5013   0.542   2.009   2.319
 1561SOL     OW 5014   1.434   3.050   1.903
 1561SOL    HW1 5015   1.466   2.974   1.960
 1561SOL    HW2 5016   1.342   3.077   1.933
 1562SOL     OW 5017   0.297   1.897   2.033
 1562SOL    HW1 5018   0.346   1.981   2.012
 1562SOL    HW2 5019   0.359   1.832   2.078
 1563SOL     OW 5020   0.935   2.098   2.342
 1563SOL    HW1 5021   0.887   2.139   2.264
 1563SOL    HW2 5022   1.034   2.096   2.323
 1564SOL     OW 5023   1.076   2.545   3.326
 1564SOL    HW1 5024   0.996   2.484   3.329
 1564SOL    HW2 5025   1.157   2.492   3.302
 1565SOL     OW 5026   1.227   3.432   2.655
 1565SOL    HW1 5027   1.248   3.506   2.590
 1565SOL    HW2 5028   1.295   3.432   2.728
 1566SOL     OW 5029   0.459   3.014   2.603
 1566SOL    HW1 5030   0.388   2.987   2.668
 1566SOL    HW2 5031   0.433   2.986   2.510
 1567SOL     OW 5032   1.271   3.659   2.453
 1567SOL    HW1 5033   1.315   3.723   2.389
 1567SOL    HW2 5034   1.221   3.711   2.523
 1568SOL     OW 5035   1.032   2.411   1.878
 1568SOL    HW1 5036   0.991   2.493   1.839
 1568SOL    HW2 5037   1.096   2.437   1.951
 1569SOL     OW 5038   0.078   2.418   3.248
 1569SOL    HW1 5039   0.170   2.417   3.207
 1569SOL    HW2 5040   0.072   2.492   3.315
 1570SOL     OW 5041   0.561   2.084   3.009
 1570SOL    HW1 5042   0.599   2.000   3.046
 1570SOL    HW2 5043   0.473   2.103   3.053
 1571SOL     OW 5044   0.866   2.316   2.504
 1571SOL    HW1 5045   0.834   2.388   2.442
 1571SOL    HW2 5046   0.890   2.235   2.451
 1572SOL     OW 5047   1.017   1.901   2.615
 1572SOL    HW1 5048   0.945   1.906   2.546
 1572SOL    HW2 5049   0.993   1.832   2.684
 1573SOL     OW 5050   1.429   3.035   2.729
 1573SOL    HW1 5051   1.374   2.951   2.722
 1573SOL    HW2 5052   1.455   3.064   2.637
 1574SOL     OW 5053   1.466   2.452   2.854
 1574SOL    HW1 5054   1.436   2.357   2.861
 1574SOL    HW2 5055   1.539   2.468   2.920
 1575SOL     OW 5056   1.857   2.695   2.239
 1575SOL    HW1 5057   1.899   2.631   2.303
 1575SOL    HW2 5058   1.819   2.644   2.161
 1576SOL     OW 5059   0.488   3.247   2.036
 1576SOL    HW1 5060   0.401   3.232   2.083
 1576SOL    HW2 5061   0.471   3.273   1.941
 1577SOL     OW 5062   1.664   3.142   2.519
 1577SOL    HW1 5063   1.763   3.150   2.533
 1577SOL    HW2 5064   1.619   3.226   2.550
 1578SOL     OW 5065   1.390   2.437   1.940
 1578SOL    HW1 5066   1.336   2.416   2.021
 1578SOL    HW2 5067   1.481   2.396   1.949
 1579SOL     OW 5068   0.527   2.118   2.190
 1579SOL    HW1 5069   0.554   2.059   2.115
 1579SOL    HW2 5070   0.527   2.213   2.159
 1580SOL     OW 5071   1.754   3.085   3.450
 1580SOL    HW1 5072   1.845   3.046   3.437
 1580SOL    HW2 5073   1.762   3.181   3.474
 1581SOL     OW 5074   1.064   3.209   3.202
 1581SOL    HW1 5075   0.984   3.186   3.257
 1581SOL    HW2 5076   1.147   3.183   3.251
 1582SOL     OW 5077   1.592   3.491   3.487
 1582SOL    HW1 5078   1.619   3.525   3.397
 1582SOL    HW2 5079   1.671   3.453   3.533
 1583SOL     OW 5080   1.111   3.057   2.962
 1583SOL    HW1 5081   1.071   3.101   3.043
 1583SOL    HW2 5082   1.070   3.094   2.879
 1584SOL     OW 5083   1.638   2.961   2.941
 1584SOL    HW1 5084   1.643   3.042   3.000
 1584SOL    HW2 5085   1.552   2.963   2.890
 1585SOL     OW 5086   0.915   1.951   3.264
 1585SOL    HW1 5087   0.940   1.931   3.169
 1585SOL    HW2 5088   0.987   2.007   3.306
 1586SOL     OW 5089   0.980   2.978   3.581
 1586SOL    HW1 5090   0.881   2.984   3.591
 1586SOL    HW2 5091   1.003   2.898   3.525
 1587SOL     OW 5092   0.705   2.912   2.230
 1587SOL    HW1 5093   0.691   2.919   2.329
 1587SOL    HW2 5094   0.789   2.861   2.212
 1588SOL     OW 5095   0.410   2.675   3.113
 1588SOL    HW1 5096   0.496   2.687   3.163
 1588SOL    HW2 5097   0.368   2.588   3.140
 1589SOL     OW 5098   1.274   2.248   3.124
 1589SOL    HW1 5099   1.295   2.322   3.188
 1589SOL    HW2 5100   1.185   2.265   3.081
 1590SOL     OW 5101   0.064   3.426   3.193
 1590SOL    HW1 5102   0.018   3.508   3.159
 1590SOL    HW2 5103   0.162   3.445   3.202
 1591SOL     OW 5104   0.367   2.962   2.363
 1591SOL    HW1 5105   0.360   3.045   2.307
 1591SOL    HW2 5106   0.371   2.882   2.303
 1592SOL     OW 5107   0.566   2.399   2.727
 1592SOL    HW1 5108   0.578   2.465   2.653
 1592SOL    HW2 5109   0.612   2.433   2.810
 1593SOL     OW 5110   1.252   3.210   2.250
 1593SOL    HW1 5111   1.302   3.287   2.290
 1593SOL    HW2 5112   1.157   3.212   2.282
 1594SOL     OW 5113   1.272   3.307   3.004
 1594SOL    HW1 5114   1.319   3.320   3.091
 1594SOL    HW2 5115   1.206   3.233   3.013
 1595SOL     OW 5116   1.582   2.501   2.334
 1595SOL    HW1 5117   1.551   2.562   2.407
 1595SOL    HW2 5118   1.632   2.553   2.265
 1596SOL     OW 5119   0.354   3.372   3.191
 1596SOL    HW1 5120   0.333   3.328   3.104
 1596SOL    HW2 5121   0.451   3.398   3.194
 1597SOL     OW 5122   0.402   2.613   3.460
 1597SOL    HW1 5123   0.470   2.668   3.413
 1597SOL    HW2 5124   0.442   2.525   3.487
 1598SOL     OW 5125   1.587   2.641   3.532
 1598SOL    HW1 5126   1.495   2.679   3.527
 1598SOL    HW2 5127   1.647   2.688   3.467
 1599SOL     OW 5128   1.013   1.967   3.632
 1599SOL    HW1 5129   1.019   2.052   3.580
 1599SOL    HW2 5130   1.045   1.891   3.575
 1600SOL     OW 5131   0.504   1.912   3.602
 1600SOL    HW1 5132   0.462   1.855   3.532
 1600SOL    HW2 5133   0.438   1.981   3.634
 1601SOL     OW 5134   0.573   2.732   2.891
 1601SOL    HW1 5135   0.617   2.821   2.882
 1601SOL    HW2 5136   0.510   2.732   2.968
 1602SOL     OW 5137   1.360   2.724   2.907
 1602SOL    HW1 5138   1.285   2.724   2.841
 1602SOL    HW2 5139   1.397   2.632   2.916
 1603SOL     OW 5140   1.209   2.387   2.137
 1603SOL    HW1 5141   1.222   2.303   2.191
 1603SOL    HW2 5142   1.180   2.461   2.197
 1604SOL     OW 5143   0.307   2.075   3.093
 1604SOL    HW1 5144   0.284   2.112   3.183
 1604SOL    HW2 5145   0.277   1.980   3.087
 1605SOL     OW 5146   0.037   3.172   3.144
 1605SOL    HW1 5147   0.090   3.123   3.212
 1605SOL    HW2 5148   0.059   3.270   3.149
 1606SOL     OW 5149   0.732   2.496   2.926
 1606SOL    HW1 5150   0.791   2.470   2.850
 1606SOL    HW2 5151   0.704   2.592   2.915
 1607SOL     OW 5152   1.728   2.797   3.716
 1607SOL    HW1 5153   1.682   2.790   3.627
 1607SOL    HW2 5154   1.666   2.841   3.782
 1608SOL     OW 5155   0.307   1.925   2.480
 1608SOL    HW1 5156   0.296   2.019   2.513
 1608SOL    HW2 5157   0.302   1.862   2.557
 1609SOL     OW 5158   1.622   2.229   2.236
 1609SOL    HW1 5159   1.624   2.153   2.300
 1609SOL    HW2 5160   1.574   2.306   2.276
 1610SOL     OW 5161   1.023   2.628   2.828
 1610SOL    HW1 5162   1.038   2.649   2.924
 1610SOL    HW2 5163   0.993   2.533   2.819
 1611SOL     OW 5164   0.980   3.435   3.562
 1611SOL    HW1 5165   0.960   3.479   3.474
 1611SOL    HW2 5166   1.019   3.344   3.546
 1612SOL     OW 5167   1.859   3.380   3.467
 1612SOL    HW1 5168   1.873   3.407   3.372
 1612SOL    HW2 5169   1.942   3.402   3.520
 1613SOL     OW 5170   0.350   2.760   3.666
 1613SOL    HW1 5171   0.426   2.804   3.714
 1613SOL    HW2 5172   0.385   2.713   3.584
 1614SOL     OW 5173   1.540   2.136   1.987
 1614SOL    HW1 5174   1.479   2.061   2.010
 1614SOL    HW2 5175   1.562   2.188   2.070
 1615SOL     OW 5176   1.303   2.700   1.904
 1615SOL    HW1 5177   1.337   2.607   1.919
 1615SOL    HW2 5178   1.321   2.727   1.809
 1616SOL     OW 5179   1.068   3.195   2.711
 1616SOL    HW1 5180   1.075   3.111   2.656
 1616SOL    HW2 5181   1.130   3.264   2.675
 1617SOL     OW 5182   0.319   2.672   2.811
 1617SOL    HW1 5183   0.412   2.708   2.816
 1617SOL    HW2 5184   0.313   2.587   2.863
 1618SOL     OW 5185   0.339   2.371   2.868
 1618SOL    HW1 5186   0.287   2.288   2.851
 1618SOL    HW2 5187   0.416   2.376   2.804
 1619SOL     OW 5188   1.138   2.242   3.540
 1619SOL    HW1 5189   1.093   2.305   3.604
 1619SOL    HW2 5190   1.231   2.273   3.523
 1620SOL     OW 5191   1.160   2.069   3.339
 1620SOL    HW1 5192   1.160   2.133   3.416
 1620SOL    HW2 5193   1.188   2.117   3.256
 1621SOL     OW 5194   0.008   3.188   2.062
 1621SOL    HW1 5195  -0.085   3.209   2.031
 1621SOL    HW2 5196   0.018   3.089   2.075
 1622SOL     OW 5197   0.088   3.663   2.789
 1622SOL    HW1 5198   0.046   3.577   2.762
 1622SOL    HW2 5199   0.182   3.666   2.755
 1623SOL     OW 5200   0.504   3.430   2.772
 1623SOL    HW1 5201   0.570   3.504   2.781
 1623SOL    HW2 5202   0.548   3.351   2.730
 1624SOL     OW 5203   1.002   2.658   3.100
 1624SOL    HW1 5204   1.043   2.626   3.186
 1624SOL    HW2 5205   0.906   2.631   3.097
 1625SOL     OW 5206   0.040   2.406   2.976
 1625SOL    HW1 5207   0.125   2.373   2.935
 1625SOL    HW2 5208   0.053   2.421   3.074
 1626SOL     OW 5209   0.189   2.382   3.584
 1626SOL    HW1 5210   0.248   2.342   3.514
 1626SOL    HW2 5211   0.131   2.453   3.543
 1627SOL     OW 5212   1.369   2.812   3.522
 1627SOL    HW1 5213   1.408   2.901   3.542
 1627SOL    HW2 5214   1.379   2.792   3.425
 1628SOL     OW 5215   0.815   2.434   2.187
 1628SOL    HW1 5216   0.822   2.345   2.141
 1628SOL    HW2 5217   0.721   2.468   2.179
 1629SOL     OW 5218   1.657   2.466   3.068
 1629SOL    HW1 5219   1.619   2.397   3.130
 1629SOL    HW2 5220   1.739   2.430   3.024
 1630SOL     OW 5221   0.252   3.426   3.606
 1630SOL    HW1 5222   0.222   3.483   3.682
 1630SOL    HW2 5223   0.245   3.329   3.632
 1631SOL     OW 5224   0.671   2.326   3.131
 1631SOL    HW1 5225   0.637   2.237   3.101
 1631SOL    HW2 5226   0.697   2.380   3.051
 1632SOL     OW 5227   0.930   3.540   3.327
 1632SOL    HW1 5228   0.906   3.522   3.232
 1632SOL    HW2 5229   0.960   3.634   3.337
 1633SOL     OW 5230   0.473   2.362   2.053
 1633SOL    HW1 5231   0.534   2.442   2.057
 1633SOL    HW2 5232   0.378   2.393   2.060
 1634SOL     OW 5233   0.159   2.999   3.328
 1634SOL    HW1 5234   0.181   2.938   3.404
 1634SOL    HW2 5235   0.169   2.950   3.242
 1635SOL     OW 5236   1.347   2.921   3.096
 1635SOL    HW1 5237   1.371   2.858   3.022
 1635SOL    HW2 5238   1.257   2.961   3.078
 1636SOL     OW 5239   1.302   2.717   2.171
 1636SOL    HW1 5240   1.216   2.686   2.213
 1636SOL    HW2 5241   1.298   2.703   2.072
 1637SOL     OW 5242   1.759   3.609   3.016
 1637SOL    HW1 5243   1.820   3.639   2.943
 1637SOL    HW2 5244   1.721   3.520   2.994
 1638SOL     OW 5245   1.252   3.593   2.990
 1638SOL    HW1 5246   1.336   3.598   2.936
 1638SOL    HW2 5247   1.229   3.497   3.008
 1639SOL     OW 5248   0.083   3.120   2.884
 1639SOL    HW1 5249   0.078   3.119   2.984
 1639SOL    HW2 5250   0.000   3.079   2.846
 1640SOL     OW 5251   0.688   3.524   3.578
 1640SOL    HW1 5252   0.632   3.605   3.587
 1640SOL    HW2 5253   0.740   3.528   3.492
 1641SOL     OW 5254   1.726   1.997   2.385
 1641SOL    HW1 5255   1.799   1.980   2.318
 1641SOL    HW2 5256   1.695   1.910   2.423
 1642SOL     OW 5257   1.388   3.435   2.339
 1642SOL    HW1 5258   1.455   3.447   2.265
 1642SOL    HW2 5259   1.348   3.524   2.362
 1643SOL     OW 5260   0.130   3.656   3.713
 1643SOL    HW1 5261   0.089   3.582   3.766
 1643SOL    HW2 5262   0.194   3.707   3.771
 1644SOL     OW 5263   1.280   2.789   2.534
 1644SOL    HW1 5264   1.340   2.708   2.536
 1644SOL    HW2 5265   1.320   2.858   2.474
 1645SOL     OW 5266   0.830   3.135   3.284
 1645SOL    HW1 5267   0.825   3.168   3.379
 1645SOL    HW2 5268   0.744   3.154   3.238
 1646SOL     OW 5269   0.672   3.478   2.016
 1646SOL    HW1 5270   0.681   3.488   1.917
 1646SOL    HW2 5271   0.632   3.389   2.037
 1647SOL     OW 5272   1.650   3.582   3.256
 1647SOL    HW1 5273   1.703   3.592   3.172
 1647SOL    HW2 5274   1.623   3.672   3.290
 1648SOL     OW 5275   1.841   2.037   2.825
 1648SOL    HW1 5276   1.880   1.952   2.789
 1648SOL    HW2 5277   1.743   2.039   2.806
 1649SOL     OW 5278   0.263   2.188   2.582
 1649SOL    HW1 5279   0.184   2.239   2.548
 1649SOL    HW2 5280   0.254   2.173   2.680
 1650SOL     OW 5281   1.194   3.474   1.893
 1650SOL    HW1 5282   1.200   3.381   1.930
 1650SOL    HW2 5283   1.135   3.474   1.813
 1651SOL     OW 5284   0.822   2.864   3.234
 1651SOL    HW1 5285   0.862   2.863   3.142
 1651SOL    HW2 5286   0.832   2.956   3.274
 1652SOL     OW 5287   0.916   2.772   2.153
 1652SOL    HW1 5288   0.979   2.810   2.085
 1652SOL    HW2 5289   0.956   2.689   2.192
 1653SOL     OW 5290   1.504   3.469   1.906
 1653SOL    HW1 5291   1.412   3.506   1.913
 1653SOL    HW2 5292   1.542   3.489   1.816
 1654SOL     OW 5293   0.372   3.150   3.352
 1654SOL    HW1 5294   0.359   3.243   3.318
 1654SOL    HW2 5295   0.288   3.098   3.339
 1655SOL     OW 5296   1.614   3.154   3.151
 1655SOL    HW1 5297   1.674   3.157   3.231
 1655SOL    HW2 5298   1.539   3.218   3.164
 1656SOL     OW 5299   1.039   2.960   2.558
 1656SOL    HW1 5300   0.969   2.913   2.612
 1656SOL    HW2 5301   1.098   2.892   2.515
 1657SOL     OW 5302   1.014   2.098   2.833
 1657SOL    HW1 5303   1.006   2.062   2.740
 1657SOL    HW2 5304   1.012   2.022   2.898
 1658SOL     OW 5305   0.590   3.349   2.353
 1658SOL    HW1 5306   0.632   3.291   2.283
 1658SOL    HW2 5307   0.546   3.428   2.309
 1659SOL     OW 5308   1.709   2.247   3.243
 1659SOL    HW1 5309   1.782   2.316   3.247
 1659SOL    HW2 5310   1.737   2.172   3.184
 1660SOL     OW 5311   0.255   3.210   2.152
 1660SOL    HW1 5312   0.159   3.211   2.125
 1660SOL    HW2 5313   0.267   3.263   2.236
 1661SOL     OW 5314   0.105   2.875   3.588
 1661SOL    HW1 5315   0.028   2.842   3.642
 1661SOL    HW2 5316   0.190   2.845   3.630
 1662SOL     OW 5317   0.672   2.065   3.351
 1662SOL    HW1 5318   0.762   2.049   3.311
 1662SOL    HW2 5319   0.680   2.070   3.450
 1663SOL     OW 5320   0.075   2.207   1.895
 1663SOL    HW1 5321  -0.017   2.179   1.866
 1663SOL    HW2 5322   0.106   2.284   1.839
 1664SOL     OW 5323   1.440   2.718   3.260
 1664SOL    HW1 5324   1.383   2.770   3.197
 1664SOL    HW2 5325   1.536   2.730   3.236
 1665SOL     OW 5326   0.072   2.028   2.180
 1665SOL    HW1 5327   0.055   2.111   2.126
 1665SOL    HW2 5328   0.162   1.991   2.158
 1666SOL     OW 5329   1.183   3.197   1.981
 1666SOL    HW1 5330   1.084   3.186   1.983
 1666SOL    HW2 5331   1.217   3.212   2.074
 1667SOL     OW 5332   0.613   2.704   3.293
 1667SOL    HW1 5333   0.669   2.785   3.276
 1667SOL    HW2 5334   0.672   2.624   3.296
 1668SOL     OW 5335   1.493   3.629   2.821
 1668SOL    HW1 5336   1.526   3.693   2.752
 1668SOL    HW2 5337   1.559   3.623   2.896
 1669SOL     OW 5338   0.716   2.427   3.570
 1669SOL    HW1 5339   0.735   2.492   3.644
 1669SOL    HW2 5340   0.776   2.347   3.579
 1670SOL     OW 5341   1.450   3.082   3.495
 1670SOL    HW1 5342   1.441   3.072   3.594
 1670SOL    HW2 5343   1.546   3.075   3.469
 1671SOL     OW 5344   0.390   3.603   3.422
 1671SOL    HW1 5345   0.299   3.644   3.420
 1671SOL    HW2 5346   0.383   3.509   3.454
 1672SOL     OW 5347   1.674   2.745   3.116
 1672SOL    HW1 5348   1.647   2.656   3.079
 1672SOL    HW2 5349   1.675   2.813   3.043
 1673SOL     OW 5350   1.225   2.187   2.311
 1673SOL    HW1 5351   1.290   2.113   2.300
 1673SOL    HW2 5352   1.245   2.237   2.395
 1674SOL     OW 5353   0.594   2.607   2.514
 1674SOL    HW1 5354   0.644   2.692   2.495
 1674SOL    HW2 5355   0.506   2.609   2.466
 1675SOL     OW 5356   1.777   2.204   3.504
 1675SOL    HW1 5357   1.760   2.235   3.410
 1675SOL    HW2 5358   1.693   2.167   3.542
 1676SOL     OW 5359   1.730   2.796   3.379
 1676SOL    HW1 5360   1.768   2.887   3.394
 1676SOL    HW2 5361   1.722   2.779   3.280
 1677SOL     OW 5362   0.859   3.236   1.878
 1677SOL    HW1 5363   0.813   3.251   1.966
 1677SOL    HW2 5364   0.903   3.321   1.848
 1678SOL     OW 5365   0.661   3.652   2.815
 1678SOL    HW1 5366   0.615   3.740   2.802
 1678SOL    HW2 5367   0.760   3.664   2.808
 1679SOL     OW 5368   0.859   2.818   2.723
 1679SOL    HW1 5369   0.913   2.749   2.771
 1679SOL    HW2 5370   0.827   2.887   2.789
 1680SOL     OW 5371   1.083   2.846   1.949
 1680SOL    HW1 5372   1.060   2.899   1.867
 1680SOL    HW2 5373   1.164   2.790   1.930
 1681SOL     OW 5374   1.861   3.431   2.713
 1681SOL    HW1 5375   1.790   3.419   2.643
 1681SOL    HW2 5376   1.862   3.352   2.773
 1682SOL     OW 5377   0.221   3.176   3.706
 1682SOL    HW1 5378   0.156   3.103   3.685
 1682SOL    HW2 5379   0.225   3.190   3.804
 1683SOL     OW 5380   0.079   3.102   2.515
 1683SOL    HW1 5381   0.078   3.055   2.603
 1683SOL    HW2 5382   0.161   3.074   2.464
 1684SOL     OW 5383   0.672   3.253   3.486
 1684SOL    HW1 5384   0.594   3.203   3.524
 1684SOL    HW2 5385   0.669   3.348   3.517
 1685SOL     OW 5386   1.824   2.054   3.089
 1685SOL    HW1 5387   1.820   1.964   3.133
 1685SOL    HW2 5388   1.827   2.043   2.990
 1686SOL     OW 5389   0.428   2.286   2.382
 1686SOL    HW1 5390   0.458   2.214   2.320
 1686SOL    HW2 5391   0.389   2.246   2.465
 1687SOL     OW 5392   1.705   3.349   2.966
 1687SOL    HW1 5393   1.612   3.324   2.939
 1687SOL    HW2 5394   1.731   3.299   3.048
 1688SOL     OW 5395   0.317   2.409   3.142
 1688SOL    HW1 5396   0.355   2.350   3.214
 1688SOL    HW2 5397   0.357   2.383   3.054
 1689SOL     OW 5398   0.812   3.448   2.549
 1689SOL    HW1 5399   0.844   3.458   2.455
 1689SOL    HW2 5400   0.733   3.386   2.551
 1690SOL     OW 5401   1.424   2.076   2.974
 1690SOL    HW1 5402   1.476   2.011   3.029
 1690SOL    HW2 5403   1.375   2.139   3.035
 1691SOL     OW 5404   1.001   1.896   3.016
 1691SOL    HW1 5405   0.938   1.824   2.985
 1691SOL    HW2 5406   1.094   1.860   3.016
 1692SOL     OW 5407   0.770   3.192   2.163
 1692SOL    HW1 5408   0.724   3.105   2.180
 1692SOL    HW2 5409   0.861   3.189   2.204
 1693SOL     OW 5410   0.618   3.429   3.146
 1693SOL    HW1 5411   0.613   3.511   3.203
 1693SOL    HW2 5412   0.707   3.426   3.101
 1694SOL     OW 5413   1.352   1.914   2.030
 1694SOL    HW1 5414   1.387   1.873   1.946
 1694SOL    HW2 5415   1.262   1.876   2.050
 1695SOL     OW 5416   1.300   2.315   2.553
 1695SOL    HW1 5417   1.241   2.395   2.557
 1695SOL    HW2 5418   1.315   2.280   2.646
 1696SOL     OW 5419   1.593   2.083   2.744
 1696SOL    HW1 5420   1.509   2.082   2.798
 1696SOL    HW2 5421   1.595   2.166   2.688
 1697SOL     OW 5422   0.039   2.939   2.162
 1697SOL    HW1 5423   0.138   2.928   2.153
 1697SOL    HW2 5424  -0.001   2.853   2.194
 1698SOL     OW 5425   0.875   3.508   2.199
 1698SOL    HW1 5426   0.798   3.473   2.145
 1698SOL    HW2 5427   0.843   3.579   2.261
 1699SOL     OW 5428   0.230   2.490   3.837
 1699SOL    HW1 5429   0.137   2.488   3.874
 1699SOL    HW2 5430   0.231   2.451   3.745
 1700SOL     OW 5431   0.225   2.137   4.720
 1700SOL    HW1 5432   0.260   2.120   4.812
 1700SOL    HW2 5433   0.137   2.092   4.708
 1701SOL     OW 5434   0.019   2.230   4.371
 1701SOL    HW1 5435  -0.063   2.273   4.410
 1701SOL    HW2 5436  -0.009   2.157   4.308
 1702SOL     OW 5437   0.569   3.137   4.889
 1702SOL    HW1 5438   0.476   3.130   4.852
 1702SOL    HW2 5439   0.580   3.226   4.933
 1703SOL     OW 5440   1.555   3.373   4.427
 1703SOL    HW1 5441   1.498   3.357   4.508
 1703SOL    HW2 5442   1.496   3.383   4.347
 1704SOL     OW 5443   1.135   2.565   4.441
 1704SOL    HW1 5444   1.192   2.643   4.416
 1704SOL    HW2 5445   1.075   2.591   4.517
 1705SOL     OW 5446   1.755   2.469   3.955
 1705SOL    HW1 5447   1.743   2.456   3.856
 1705SOL    HW2 5448   1.725   2.388   4.004
 1706SOL     OW 5449   0.768   3.006   4.747
 1706SOL    HW1 5450   0.690   3.023   4.807
 1706SOL    HW2 5451   0.802   3.093   4.711
 1707SOL     OW 5452   0.850   2.660   5.547
 1707SOL    HW1 5453   0.846   2.736   5.612
 1707SOL    HW2 5454   0.872   2.696   5.456
 1708SOL     OW 5455   0.685   2.874   4.389
 1708SOL    HW1 5456   0.754   2.858   4.459
 1708SOL    HW2 5457   0.612   2.931   4.427
 1709SOL     OW 5458   0.686   3.023   5.527
 1709SOL    HW1 5459   0.746   3.102   5.541
 1709SOL    HW2 5460   0.600   3.054   5.486
 1710SOL     OW 5461   0.335   3.297   4.785
 1710SOL    HW1 5462   0.257   3.266   4.732
 1710SOL    HW2 5463   0.393   3.355   4.728
 1711SOL     OW 5464   1.460   3.367   5.063
 1711SOL    HW1 5465   1.484   3.461   5.089
 1711SOL    HW2 5466   1.444   3.313   5.145
 1712SOL     OW 5467   0.438   2.254   5.223
 1712SOL    HW1 5468   0.520   2.198   5.232
 1712SOL    HW2 5469   0.357   2.196   5.227
 1713SOL     OW 5470   1.603   2.309   4.461
 1713SOL    HW1 5471   1.529   2.355   4.411
 1713SOL    HW2 5472   1.654   2.377   4.514
 1714SOL     OW 5473   0.231   3.575   4.207
 1714SOL    HW1 5474   0.265   3.652   4.261
 1714SOL    HW2 5475   0.275   3.575   4.117
 1715SOL     OW 5476   1.127   3.203   5.414
 1715SOL    HW1 5477   1.174   3.203   5.502
 1715SOL    HW2 5478   1.079   3.116   5.403
 1716SOL     OW 5479   0.230   3.296   4.262
 1716SOL    HW1 5480   0.204   3.392   4.262
 1716SOL    HW2 5481   0.159   3.242   4.307
 1717SOL     OW 5482   0.240   2.953   4.610
 1717SOL    HW1 5483   0.254   2.869   4.662
 1717SOL    HW2 5484   0.185   3.017   4.665
 1718SOL     OW 5485   0.620   3.648   5.163
 1718SOL    HW1 5486   0.528   3.631   5.198
 1718SOL    HW2 5487   0.648   3.740   5.189
 1719SOL     OW 5488   0.606   2.826   3.847
 1719SOL    HW1 5489   0.613   2.910   3.793
 1719SOL    HW2 5490   0.652   2.839   3.935
 1720SOL     OW 5491   1.594   1.976   5.204
 1720SOL    HW1 5492   1.576   2.043   5.132
 1720SOL    HW2 5493   1.591   2.022   5.293
 1721SOL     OW 5494   0.122   2.505   4.287
 1721SOL    HW1 5495   0.077   2.417   4.304
 1721SOL    HW2 5496   0.121   2.559   4.371
 1722SOL     OW 5497   1.842   3.629   4.083
 1722SOL    HW1 5498   1.896   3.600   4.163
 1722SOL    HW2 5499   1.872   3.719   4.054
 1723SOL     OW 5500   0.027   3.458   3.841
 1723SOL    HW1 5501   0.008   3.362   3.862
 1723SOL    HW2 5502  -0.006   3.516   3.916
 1724SOL     OW 5503   1.689   2.784   4.336
 1724SOL    HW1 5504   1.784   2.755   4.344
 1724SOL    HW2 5505   1.681   2.849   4.261
 1725SOL     OW 5506   1.641   2.970   4.156
 1725SOL    HW1 5507   1.727   2.972   4.104
 1725SOL    HW2 5508   1.655   3.017   4.244
 1726SOL     OW 5509   0.113   2.599   5.321
 1726SOL    HW1 5510   0.201   2.586   5.366
 1726SOL    HW2 5511   0.100   2.696   5.299
 1727SOL     OW 5512   0.613   3.227   4.450
 1727SOL    HW1 5513   0.564   3.140   4.459
 1727SOL    HW2 5514   0.590   3.270   4.363
 1728SOL     OW 5515   1.293   3.090   5.147
 1728SOL    HW1 5516   1.330   3.017   5.089
 1728SOL    HW2 5517   1.345   3.095   5.232
 1729SOL     OW 5518   0.809   1.866   4.226
 1729SOL    HW1 5519   0.849   1.957   4.217
 1729SOL    HW2 5520   0.709   1.874   4.232
 1730SOL     OW 5521   0.197   2.838   4.988
 1730SOL    HW1 5522   0.286   2.793   4.974
 1730SOL    HW2 5523   0.124   2.773   4.969
 1731SOL     OW 5524   1.525   2.861   3.914
 1731SOL    HW1 5525   1.462   2.785   3.927
 1731SOL    HW2 5526   1.573   2.879   4.000
 1732SOL     OW 5527   1.187   3.654   5.340
 1732SOL    HW1 5528   1.211   3.714   5.264
 1732SOL    HW2 5529   1.194   3.559   5.310
 1733SOL     OW 5530   0.317   2.113   5.525
 1733SOL    HW1 5531   0.388   2.184   5.531
 1733SOL    HW2 5532   0.229   2.152   5.553
 1734SOL     OW 5533   1.466   3.279   4.677
 1734SOL    HW1 5534   1.407   3.285   4.757
 1734SOL    HW2 5535   1.451   3.191   4.631
 1735SOL     OW 5536   1.667   3.576   4.296
 1735SOL    HW1 5537   1.626   3.553   4.208
 1735SOL    HW2 5538   1.649   3.502   4.361
 1736SOL     OW 5539   0.598   2.591   3.994
 1736SOL    HW1 5540   0.622   2.660   3.926
 1736SOL    HW2 5541   0.520   2.624   4.048
 1737SOL     OW 5542   1.281   2.207   4.668
 1737SOL    HW1 5543   1.195   2.157   4.655
 1737SOL    HW2 5544   1.343   2.153   4.724
 1738SOL     OW 5545   1.576   3.524   4.031
 1738SOL    HW1 5546   1.665   3.570   4.034
 1738SOL    HW2 5547   1.555   3.500   3.936
 1739SOL     OW 5548   0.807   2.467   5.189
 1739SOL    HW1 5549   0.760   2.464   5.278
 1739SOL    HW2 5550   0.756   2.412   5.123
 1740SOL     OW 5551   1.394   2.331   5.398
 1740SOL    HW1 5552   1.374   2.374   5.486
 1740SOL    HW2 5553   1.472   2.269   5.407
 1741SOL     OW 5554   0.973   2.752   5.296
 1741SOL    HW1 5555   1.019   2.668   5.267
 1741SOL    HW2 5556   0.917   2.786   5.221
 1742SOL     OW 5557   0.991   2.272   4.966
 1742SOL    HW1 5558   0.914   2.306   5.020
 1742SOL    HW2 5559   0.957   2.221   4.887
 1743SOL     OW 5560   1.041   2.563   4.153
 1743SOL    HW1 5561   1.067   2.559   4.249
 1743SOL    HW2 5562   0.956   2.512   4.139
 1744SOL     OW 5563   0.076   2.673   4.513
 1744SOL    HW1 5564   0.175   2.661   4.522
 1744SOL    HW2 5565   0.052   2.768   4.534
 1745SOL     OW 5566   0.130   3.683   5.295
 1745SOL    HW1 5567   0.120   3.668   5.394
 1745SOL    HW2 5568   0.044   3.719   5.259
 1746SOL     OW 5569   0.865   2.210   3.919
 1746SOL    HW1 5570   0.924   2.273   3.870
 1746SOL    HW2 5571   0.884   2.116   3.890
 1747SOL     OW 5572   1.362   3.006   4.269
 1747SOL    HW1 5573   1.445   2.977   4.221
 1747SOL    HW2 5574   1.313   3.073   4.213
 1748SOL     OW 5575   0.550   2.058   4.609
 1748SOL    HW1 5576   0.545   2.053   4.709
 1748SOL    HW2 5577   0.552   2.154   4.580
 1749SOL     OW 5578   1.008   3.318   4.201
 1749SOL    HW1 5579   0.962   3.390   4.149
 1749SOL    HW2 5580   1.004   3.338   4.299
 1750SOL     OW 5581   0.351   3.663   4.577
 1750SOL    HW1 5582   0.401   3.577   4.583
 1750SOL    HW2 5583   0.416   3.740   4.574
 1751SOL     OW 5584   1.795   2.928   4.597
 1751SOL    HW1 5585   1.733   2.913   4.521
 1751SOL    HW2 5586   1.743   2.939   4.682
 1752SOL     OW 5587   1.227   3.412   5.230
 1752SOL    HW1 5588   1.233   3.335   5.294
 1752SOL    HW2 5589   1.175   3.386   5.150
 1753SOL     OW 5590   0.321   2.805   3.966
 1753SOL    HW1 5591   0.403   2.844   3.924
 1753SOL    HW2 5592   0.294   2.723   3.917
 1754SOL     OW 5593   1.458   2.597   4.452
 1754SOL    HW1 5594   1.453   2.532   4.527
 1754SOL    HW2 5595   1.538   2.656   4.465
 1755SOL     OW 5596   0.461   3.128   5.451
 1755SOL    HW1 5597   0.411   3.129   5.365
 1755SOL    HW2 5598   0.398   3.110   5.527
 1756SOL     OW 5599   1.111   3.638   3.961
 1756SOL    HW1 5600   1.051   3.576   4.011
 1756SOL    HW2 5601   1.142   3.594   3.876
 1757SOL     OW 5602   0.202   2.147   5.222
 1757SOL    HW1 5603   0.122   2.207   5.209
 1757SOL    HW2 5604   0.192   2.098   5.308
 1758SOL     OW 5605   1.632   3.239   3.805
 1758SOL    HW1 5606   1.600   3.333   3.795
 1758SOL    HW2 5607   1.556   3.176   3.793
 1759SOL     OW 5608   0.464   3.605   4.047
 1759SOL    HW1 5609   0.497   3.644   4.133
 1759SOL    HW2 5610   0.540   3.598   3.982
 1760SOL     OW 5611   1.400   1.969   4.150
 1760SOL    HW1 5612   1.376   1.932   4.060
 1760SOL    HW2 5613   1.499   1.985   4.154
 1761SOL     OW 5614   0.249   3.647   4.965
 1761SOL    HW1 5615   0.306   3.582   5.015
 1761SOL    HW2 5616   0.233   3.614   4.872
 1762SOL     OW 5617   0.940   3.560   4.628
 1762SOL    HW1 5618   1.020   3.503   4.649
 1762SOL    HW2 5619   0.891   3.520   4.551
 1763SOL     OW 5620   0.382   2.562   4.204
 1763SOL    HW1 5621   0.427   2.472   4.201
 1763SOL    HW2 5622   0.288   2.551   4.237
 1764SOL     OW 5623   0.614   1.984   3.841
 1764SOL    HW1 5624   0.712   1.962   3.848
 1764SOL    HW2 5625   0.583   1.967   3.748
 1765SOL     OW 5626   0.781   2.126   5.473
 1765SOL    HW1 5627   0.848   2.065   5.516
 1765SOL    HW2 5628   0.708   2.145   5.538
 1766SOL     OW 5629   0.888   3.376   4.919
 1766SOL    HW1 5630   0.865   3.351   4.825
 1766SOL    HW2 5631   0.949   3.307   4.958
 1767SOL     OW 5632   1.351   2.452   5.157
 1767SOL    HW1 5633   1.379   2.409   5.242
 1767SOL    HW2 5634   1.376   2.548   5.158
 1768SOL     OW 5635   0.803   3.264   4.648
 1768SOL    HW1 5636   0.893   3.278   4.606
 1768SOL    HW2 5637   0.732   3.266   4.577
 1769SOL     OW 5638   0.922   2.365   4.623
 1769SOL    HW1 5639   0.897   2.356   4.527
 1769SOL    HW2 5640   0.970   2.283   4.654
 1770SOL     OW 5641   0.539   1.926   4.236
 1770SOL    HW1 5642   0.458   1.927   4.294
 1770SOL    HW2 5643   0.542   2.009   4.181
 1771SOL     OW 5644   1.434   3.050   3.765
 1771SOL    HW1 5645   1.466   2.974   3.822
 1771SOL    HW2 5646   1.342   3.077   3.795
 1772SOL     OW 5647   0.297   1.897   3.895
 1772SOL    HW1 5648   0.346   1.981   3.874
 1772SOL    HW2 5649   0.359   1.832   3.940
 1773SOL     OW 5650   0.935   2.098   4.204
 1773SOL    HW1 5651   0.887   2.139   4.126
 1773SOL    HW2 5652   1.034   2.096   4.185
 1774SOL     OW 5653   1.076   2.545   5.188
 1774SOL    HW1 5654   0.996   2.484   5.191
 1774SOL    HW2 5655   1.157   2.492   5.164
 1775SOL     OW 5656   1.227   3.432   4.517
 1775SOL    HW1 5657   1.248   3.506   4.452
 1775SOL    HW2 5658   1.295   3.432   4.590
 1776SOL     OW 5659   0.459   3.014   4.465
 1776SOL    HW1 5660   0.388   2.987   4.530
 1776SOL    HW2 5661   0.433   2.986   4.372
 1777SOL     OW 5662   1.271   3.659   4.315
 1777SOL    HW1 5663   1.315   3.723   4.251
 1777SOL    HW2 5664   1.221   3.711   4.385
 1778SOL     OW 5665   1.032   2.411   3.740
 1778SOL    HW1 5666   0.991   2.493   3.701
 1778SOL    HW2 5667   1.096   2.437   3.813
 1779SOL     OW 5668   0.078   2.418   5.110
 1779SOL    HW1 5669   0.170   2.417   5.069
 1779SOL    HW2 5670   0.072   2.492   5.177
 1780SOL     OW 5671   0.561   2.084   4.871
 1780SOL    HW1 5672   0.599   2.000   4.908
 1780SOL    HW2 5673   0.473   2.103   4.915
 1781SOL     OW 5674   0.866   2.316   4.366
 1781SOL    HW1 5675   0.834   2.388   4.304
 1781SOL    HW2 5676   0.890   2.235   4.313
 1782SOL     OW 5677   1.017   1.901   4.477
 1782SOL    HW1 5678   0.945   1.906   4.408
 1782SOL    HW2 5679   0.993   1.832   4.546
 1783SOL     OW 5680   1.429   3.035   4.591
 1783SOL    HW1 5681   1.374   2.951   4.584
 1783SOL    HW2 5682   1.455   3.064   4.499
 1784SOL     OW 5683   1.466   2.452   4.716
 1784SOL    HW1 5684   1.436   2.357   4.723
 1784SOL    HW2 5685   1.539   2.468   4.782
 1785SOL     OW 5686   1.857   2.695   4.101
 1785SOL    HW1 5687   1.899   2.631   4.165
 1785SOL    HW2 5688   1.819   2.644   4.023
 1786SOL     OW 5689   0.488   3.247   3.898
 1786SOL    HW1 5690   0.401   3.232   3.945
 1786SOL    HW2 5691   0.471   3.273   3.803
 1787SOL     OW 5692   1.664   3.142   4.381
 1787SOL    HW1 5693   1.763   3.150   4.395
 1787SOL    HW2 5694   1.619   3.226   4.412
 1788SOL     OW 5695   1.390   2.437   3.802
 1788SOL    HW1 5696   1.336   2.416   3.883
 1788SOL    HW2 5697   1.481   2.396   3.811
 1789SOL     OW 5698   0.527   2.118   4.052
 1789SOL    HW1 5699   0.554   2.059   3.977
 1789SOL    HW2 5700   0.527   2.213   4.021
 1790SOL     OW 5701   1.754   3.085   5.312
 1790SOL    HW1 5702   1.845   3.046   5.299
 1790SOL    HW2 5703   1.762   3.181   5.336
 1791SOL     OW 5704   1.064   3.209   5.064
 1791SOL    HW1 5705   0.984   3.186   5.119
 1791SOL    HW2 5706   1.147   3.183   5.113
 1792SOL     OW 5707   1.592   3.491   5.349
 1792SOL    HW1 5708   1.619   3.525   5.259
 1792SOL    HW2 5709   1.671   3.453   5.395
 1793SOL     OW 5710   1.111   3.057   4.824
 1793SOL    HW1 5711   1.071   3.101   4.905
 1793SOL    HW2 5712   1.070   3.094   4.741
 1794SOL     OW 5713   1.638   2.961   4.803
 1794SOL    HW1 5714   1.643   3.042   4.862
 1794SOL    HW2 5715   1.552   2.963   4.752
 1795SOL     OW 5716   0.915   1.951   5.126
 1795SOL    HW1 5717   0.940   1.931   5.031
 1795SOL    HW2 5718   0.987   2.007   5.168
 1796SOL     OW 5719   0.980   2.978   5.443
 1796SOL    HW1 5720   0.881   2.984   5.453
 1796SOL    HW2 5721   1.003   2.898   5.387
 1797SOL     OW 5722   0.705   2.912   4.092
 1797SOL    HW1 5723   0.691   2.919   4.191
 1797SOL    HW2 5724   0.789   2.861   4.074
 1798SOL     OW 5725   0.410   2.675   4.975
 1798SOL    HW1 5726   0.496   2.687   5.025
 1798SOL    HW2 5727   0.368   2.588   5.002
 1799SOL     OW 5728   1.274   2.248   4.986
 1799SOL    HW1 5729   1.295   2.322   5.050
 1799SOL    HW2 5730   1.185   2.265   4.943
 1800SOL     OW 5731   0.064   3.426   5.055
 1800SOL    HW1 5732   0.018   3.508   5.021
 1800SOL    HW2 5733   0.162   3.445   5.064
 1801SOL     OW 5734   0.367   2.962   4.225
 1801SOL    HW1 5735   0.360   3.045   4.169
 1801SOL    HW2 5736   0.371   2.882   4.165
 1802SOL     OW 5737   0.566   2.399   4.589
 1802SOL    HW1 5738   0.578   2.465   4.515
 1802SOL    HW2 5739   0.612   2.433   4.672
 1803SOL     OW 5740   1.252   3.210   4.112
 1803SOL    HW1 5741   1.302   3.287   4.152
 1803SOL    HW2 5742   1.157   3.212   4.144
 1804SOL     OW 5743   1.272   3.307   4.866
 1804SOL    HW1 5744   1.319   3.320   4.953
 1804SOL    HW2 5745   1.206   3.233   4.875
 1805SOL     OW 5746   1.582   2.501   4.196
 1805SOL    HW1 5747   1.551   2.562   4.269
 1805SOL    HW2 5748   1.632   2.553   4.127
 1806SOL     OW 5749   0.354   3.372   5.053
 1806SOL    HW1 5750   0.333   3.328   4.966
 1806SOL    HW2 5751   0.451   3.398   5.056
 1807SOL     OW 5752   0.402   2.613   5.322
 1807SOL    HW1 5753   0.470   2.668   5.275
 1807SOL    HW2 5754   0.442   2.525   5.349
 1808SOL     OW 5755   1.587   2.641   5.394
 1808SOL    HW1 5756   1.495   2.679   5.389
 1808SOL    HW2 5757   1.647   2.688   5.329
 1809SOL     OW 5758   1.013   1.967   5.494
 1809SOL    HW1 5759   1.019   2.052   5.442
 1809SOL    HW2 5760   1.045   1.891   5.437
 1810SOL     OW 5761   0.504   1.912   5.464
 1810SOL    HW1 5762   0.462   1.855   5.394
 1810SOL    HW2 5763   0.438   1.981   5.496
 1811SOL     OW 5764   0.573   2.732   4.753
 1811SOL    HW1 5765   0.617   2.821   4.744
 1811SOL    HW2 5766   0.510   2.732   4.830
 1812SOL     OW 5767   1.360   2.724   4.769
 1812SOL    HW1 5768   1.285   2.724   4.703
 1812SOL    HW2 5769   1.397   2.632   4.778
 1813SOL     OW 5770   1.209   2.387   3.999
 1813SOL    HW1 5771   1.222   2.303   4.053
 1813SOL    HW2 5772   1.180   2.461   4.059
 1814SOL     OW 5773   0.307   2.075   4.955
 1814SOL    HW1 5774   0.284   2.112   5.045
 1814SOL    HW2 5775   0.277   1.980   4.949
 1815SOL     OW 5776   0.037   3.172   5.006
 1815SOL    HW1 5777   0.090   3.123   5.074
 1815SOL    HW2 5778   0.059   3.270   5.011
 1816SOL     OW 5779   0.732   2.496   4.788
 1816SOL    HW1 5780   0.791   2.470   4.712
 1816SOL    HW2 5781   0.704   2.592   4.777
 1817SOL     OW 5782   1.728   2.797   5.578
 1817SOL    HW1 5783   1.682   2.790   5.489
 1817SOL    HW2 5784   1.666   2.841   5.644
 1818SOL     OW 5785   0.307   1.925   4.342
 1818SOL    HW1 5786   0.296   2.019   4.375
 1818SOL    HW2 5787   0.302   1.862   4.419
 1819SOL     OW 5788   1.622   2.229   4.098
 1819SOL    HW1 5789   1.624   2.153   4.162
 1819SOL    HW2 5790   1.574   2.306   4.138
 1820SOL     OW 5791   1.023   2.628   4.690
 1820SOL    HW1 5792   1.038   2.649   4.786
 1820SOL    HW2 5793   0.993   2.533   4.681
 1821SOL     OW 5794   0.980   3.435   5.424
 1821SOL    HW1 5795   0.960   3.479   5.336
 1821SOL    HW2 5796   1.019   3.344   5.408
 1822SOL     OW 5797   1.859   3.380   5.329
 1822SOL    HW1 5798   1.873   3.407   5.234
 1822SOL    HW2 5799   1.942   3.402   5.382
 1823SOL     OW 5800   0.350   2.760   5.528
 1823SOL    HW1 5801   0.426   2.804   5.576
 1823SOL    HW2 5802   0.385   2.713   5.446
 1824SOL     OW 5803   1.540   2.136   3.849
 1824SOL    HW1 5804   1.479   2.061   3.872
 1824SOL    HW2 5805   1.562   2.188   3.932
 1825SOL     OW 5806   1.303   2.700   3.766
 1825SOL    HW1 5807   1.337   2.607   3.781
 1825SOL    HW2 5808   1.321   2.727   3.671
 1826SOL     OW 5809   1.068   3.195   4.573
 1826SOL    HW1 5810   1.075   3.111   4.518
 1826SOL    HW2 5811   1.130   3.264   4.537
 1827SOL     OW 5812   0.319   2.672   4.673
 1827SOL    HW1 5813   0.412   2.708   4.678
 1827SOL    HW2 5814   0.313   2.587   4.725
 1828SOL     OW 5815   0.339   2.371   4.730
 1828SOL    HW1 5816   0.287   2.288   4.713
 1828SOL    HW2 5817   0.416   2.376   4.666
 1829SOL     OW 5818   1.138   2.242   5.402
 1829SOL    HW1 5819   1.093   2.305   5.466
 1829SOL    HW2 5820   1.231   2.273   5.385
 1830SOL     OW 5821   1.160   2.069   5.201
 1830SOL    HW1 5822   1.160   2.133   5.278
 1830SOL    HW2 5823   1.188   2.117   5.118
 1831SOL     OW 5824   0.008   3.188   3.924
 1831SOL    HW1 5825  -0.085   3.209   3.893
 1831SOL    HW2 5826   0.018   3.089   3.937
 1832SOL     OW 5827   0.088   3.663   4.651
 1832SOL    HW1 5828   0.046   3.577   4.624
 1832SOL    HW2 5829   0.182   3.666   4.617
 1833SOL     OW 5830   0.504   3.430   4.634
 1833SOL    HW1 5831   0.570   3.504   4.643
 1833SOL    HW2 5832   0.548   3.351   4.592
 1834SOL     OW 5833   1.002   2.658   4.962
 1834SOL    HW1 5834   1.043   2.626   5.048
 1834SOL    HW2 5835   0.906   2.631   4.959
 1835SOL     OW 5836   0.040   2.406   4.838
 1835SOL    HW1 5837   0.125   2.373   4.797
 1835SOL    HW2 5838   0.053   2.421   4.936
 1836SOL     OW 5839   0.189   2.382   5.446
 1836SOL    HW1 5840   0.248   2.342   5.376
 1836SOL    HW2 5841   0.131   2.453   5.405
 1837SOL     OW 5842   1.369   2.812   5.384
 1837SOL    HW1 5843   1.408   2.901   5.404
 1837SOL    HW2 5844   1.379   2.792   5.287
 1838SOL     OW 5845   0.815   2.434   4.049
 1838SOL    HW1 5846   0.822   2.345   4.003
 1838SOL    HW2 5847   0.721   2.468   4.041
 1839SOL     OW 5848   1.657   2.466   4.930
 1839SOL    HW1 5849   1.619   2.397   4.992
 1839SOL    HW2 5850   1.739   2.430   4.886
 1840SOL     OW 5851   0.252   3.426   5.468
 1840SOL    HW1 5852   0.222   3.483   5.544
 1840SOL    HW2 5853   0.245   3.329   5.494
 1841SOL     OW 5854   0.671   2.326   4.993
 1841SOL    HW1 5855   0.637   2.237   4.963
 1841SOL    HW2 5856   0.697   2.380   4.913
 1842SOL     OW 5857   0.930   3.540   5.189
 1842SOL    HW1 5858   0.906   3.522   5.094
 1842SOL    HW2 5859   0.960   3.634   5.199
 1843SOL     OW 5860   0.473   2.362   3.915
 1843SOL    HW1 5861   0.534   2.442   3.919
 1843SOL    HW2 5862   0.378   2.393   3.922
 1844SOL     OW 5863   0.159   2.999   5.190
 1844SOL    HW1 5864   0.181   2.938   5.266
 1844SOL    HW2 5865   0.169   2.950   5.104
 1845SOL     OW 5866   1.347   2.921   4.958
 1845SOL    HW1 5867   1.371   2.858   4.884
 1845SOL    HW2 5868   1.257   2.961   4.940
 1846SOL     OW 5869   1.302   2.717   4.033
 1846SOL    HW1 5870   1.216   2.686   4.075
 1846SOL    HW2 5871   1.298   2.703   3.934
 1847SOL     OW 5872   1.759   3.609   4.878
 1847SOL    HW1 5873   1.820   3.639   4.805
 1847SOL    HW2 5874   1.721   3.520   4.856
 1848SOL     OW 5875   1.252   3.593   4.852
 1848SOL    HW1 5876   1.336   3.598   4.798
 1848SOL    HW2 5877   1.229   3.497   4.870
 1849SOL     OW 5878   0.083   3.120   4.746
 1849SOL    HW1 5879   0.078   3.119   4.846
 1849SOL    HW2 5880   0.000   3.079   4.708
 1850SOL     OW 5881   0.688   3.524   5.440
 1850SOL    HW1 5882   0.632   3.605   5.449
 1850SOL    HW2 5883   0.740   3.528   5.354
 1851SOL     OW 5884   1.726   1.997   4.247
 1851SOL    HW1 5885   1.799   1.980   4.180
 1851SOL    HW2 5886   1.695   1.910   4.285
 1852SOL     OW 5887   1.388   3.435   4.201
 1852SOL    HW1 5888   1.455   3.447   4.127
 1852SOL    HW2 5889   1.348   3.524   4.224
 1853SOL     OW 5890   0.130   3.656   5.575
 1853SOL    HW1 5891   0.089   3.582   5.628
 1853SOL    HW2 5892   0.194   3.707   5.633
 1854SOL     OW 5893   1.280   2.789   4.396
 1854SOL    HW1 5894   1.340   2.708   4.398
 1854SOL    HW2 5895   1.320   2.858   4.336
 1855SOL     OW 5896   0.830   3.135   5.146
 1855SOL    HW1 5897   0.825   3.168   5.241
 1855SOL    HW2 5898   0.744   3.154   5.100
 1856SOL     OW 5899   0.672   3.478   3.878
 1856SOL    HW1 5900   0.681   3.488   3.779
 1856SOL    HW2 5901   0.632   3.389   3.899
 1857SOL     OW 5902   1.650   3.582   5.118
 1857SOL    HW1 5903   1.703   3.592   5.034
 1857SOL    HW2 5904   1.623   3.672   5.152
 1858SOL     OW 5905   1.841   2.037   4.687
 1858SOL    HW1 5906   1.880   1.952   4.651
 1858SOL    HW2 5907   1.743   2.039   4.668
 1859SOL     OW 5908   0.263   2.188   4.444
 1859SOL    HW1 5909   0.184   2.239   4.410
 1859SOL    HW2 5910   0.254   2.173   4.542
 1860SOL     OW 5911   1.194   3.474   3.755
 1860SOL    HW1 5912   1.200   3.381   3.792
 1860SOL    HW2 5913   1.135   3.474   3.675
 1861SOL     OW 5914   0.822   2.864   5.096
 1861SOL    HW1 5915   0.862   2.863   5.004
 1861SOL    HW2 5916   0.832   2.956   5.136
 1862SOL     OW 5917   0.916   2.772   4.015
 1862SOL    HW1 5918   0.979   2.810   3.947
 1862SOL    HW2 5919   0.956   2.689   4.054
 1863SOL     OW 5920   1.504   3.469   3.768
 1863SOL    HW1 5921   1.412   3.506   3.775
 1863SOL    HW2 5922   1.542   3.489   3.678
 1864SOL     OW 5923   0.372   3.150   5.214
 1864SOL    HW1 5924   0.359   3.243   5.180
 1864SOL    HW2 5925   0.288   3.098   5.201
 1865SOL     OW 5926   1.614   3.154   5.013
 1865SOL    HW1 5927   1.674   3.157   5.093
 1865SOL    HW2 5928   1.539   3.218   5.026
 1866SOL     OW 5929   1.039   2.960   4.420
 1866SOL    HW1 5930   0.969   2.913   4.474
 1866SOL    HW2 5931   1.098   2.892   4.377
 1867SOL     OW 5932   1.014   2.098   4.695
 1867SOL    HW1 5933   1.006   2.062   4.602
 1867SOL    HW2 5934   1.012   2.022   4.760
 1868SOL     OW 5935   0.590   3.349   4.215
 1868SOL    HW1 5936   0.632   3.291   4.145
 1868SOL    HW2 5937   0.546   3.428   4.171
 1869SOL     OW 5938   1.709   2.247   5.105
 1869SOL    HW1 5939   1.782   2.316   5.109
 1869SOL    HW2 5940   1.737   2.172   5.046
 1870SOL     OW 5941   0.255   3.210   4.014
 1870SOL    HW1 5942   0.159   3.211   3.987
 1870SOL    HW2 5943   0.267   3.263   4.098
 1871SOL     OW 5944   0.105   2.875   5.450
 1871SOL    HW1 5945   0.028   2.842   5.504
 1871SOL    HW2 5946   0.190   2.845   5.492
 1872SOL     OW 5947   0.672   2.065   5.213
 1872SOL    HW1 5948   0.762   2.049   5.173
 1872SOL    HW2 5949   0.680   2.070   5.312
 1873SOL     OW 5950   0.075   2.207   3.757
 1873SOL    HW1 5951  -0.017   2.179   3.728
 1873SOL    HW2 5952   0.106   2.284   3.701
 1874SOL     OW 5953   1.440   2.718   5.122
 1874SOL    HW1 5954   1.383   2.770   5.059
 1874SOL    HW2 5955   1.536   2.730   5.098
 1875SOL     OW 5956   0.072   2.028   4.042
 1875SOL    HW1 5957   0.055   2.111   3.988
 1875SOL    HW2 5958   0.162   1.991   4.020
 1876SOL     OW 5959   1.183   3.197   3.843
 1876SOL    HW1 5960   1.084   3.186   3.845
 1876SOL    HW2 5961   1.217   3.212   3.936
 1877SOL     OW 5962   0.613   2.704   5.155
 1877SOL    HW1 5963   0.669   2.785   5.138
 1877SOL    HW2 5964   0.672   2.624   5.158
 1878SOL     OW 5965   1.493   3.629   4.683
 1878SOL    HW1 5966   1.526   3.693   4.614
 1878SOL    HW2 5967   1.559   3.623   4.758
 1879SOL     OW 5968   0.716   2.427   5.432
 1879SOL    HW1 5969   0.735   2.492   5.506
 1879SOL    HW2 5970   0.776   2.347   5.441
 1880SOL     OW 5971   1.450   3.082   5.357
 1880SOL    HW1 5972   1.441   3.072   5.456
 1880SOL    HW2 5973   1.546   3.075   5.331
 1881SOL     OW 5974   0.390   3.603   5.284
 1881SOL    HW1 5975   0.299   3.644   5.282
 1881SOL    HW2 5976   0.383   3.509   5.316
 1882SOL     OW 5977   1.674   2.745   4.978
 1882SOL    HW1 5978   1.647   2.656   4.941
 1882SOL    HW2 5979   1.675   2.813   4.905
 1883SOL     OW 5980   1.225   2.187   4.173
 1883SOL    HW1 5981   1.290   2.113   4.162
 1883SOL    HW2 5982   1.245   2.237   4.257
 1884SOL     OW 5983   0.594   2.607   4.376
 1884SOL    HW1 5984   0.644   2.692   4.357
 1884SOL    HW2 5985   0.506   2.609   4.328
 1885SOL     OW 5986   1.730   2.796   5.241
 1885SOL    HW1 5987   1.768   2.887   5.256
 1885SOL    HW2 5988   1.722   2.779   5.142
 1886SOL     OW 5989   0.859   3.236   3.740
 1886SOL    HW1 5990   0.813   3.251   3.828
 1886SOL    HW2 5991   0.903   3.321   3.710
 1887SOL     OW 5992   0.661   3.652   4.677
 1887SOL    HW1 5993   0.615   3.740   4.664
 1887SOL    HW2 5994   0.760   3.664   4.670
 1888SOL     OW 5995   0.859   2.818   4.585
 1888SOL    HW1 5996   0.913   2.749   4.633
 1888SOL    HW2 5997   0.827   2.887   4.651
 1889SOL     OW 5998   1.083   2.846   3.811
 1889SOL    HW1 5999   1.060   2.899   3.729
 1889SOL    HW2 6000   1.164   2.790   3.792
 1890SOL     OW 6001   1.861   3.431   4.575
 1890SOL    HW1 6002   1.790   3.419   4.505
 1890SOL    HW2 6003   1.862   3.352   4.635
 1891SOL     OW 6004   0.221   3.176   5.568
 1891SOL    HW1 6005   0.156   3.103   5.547
 1891SOL    HW2 6006   0.225   3.190   5.666
 1892SOL     OW 6007   0.079   3.102   4.377
 1892SOL    HW1 6008   0.078   3.055   4.465
 1892SOL    HW2 6009   0.161   3.074   4.326
 1893SOL     OW 6010   0.672   3.253   5.348
 1893SOL    HW1 6011   0.594   3.203   5.386
 1893SOL    HW2 6012   0.669   3.348   5.379
 1894SOL     OW 6013   1.824   2.054   4.951
 1894SOL    HW1 6014   1.820   1.964   4.995
 1894SOL    HW2 6015   1.827   2.043   4.852
 1895SOL     OW 6016   0.428   2.286   4.244
 1895SOL    HW1 6017   0.458   2.214   4.182
 1895SOL    HW2 6018   0.389   2.246   4.327
 1896SOL     OW 6019   1.705   3.349   4.828
 1896SOL    HW1 6020   1.612   3.324   4.801
 1896SOL    HW2 6021   1.731   3.299   4.910
 1897SOL     OW 6022   0.317   2.409   5.004
 1897SOL    HW1 6023   0.355   2.350   5.076
 1897SOL    HW2 6024   0.357   2.383   4.916
 1898SOL     OW 6025   0.812   3.448   4.411
 1898SOL    HW1 6026   0.844   3.458   4.317
 1898SOL    HW2 6027   0.733   3.386   4.413
 1899SOL     OW 6028   1.424   2.076   4.836
 1899SOL    HW1 6029   1.476   2.011   4.891
 1899SOL    HW2 6030   1.375   2.139   4.897
 1900SOL     OW 6031   1.001   1.896   4.878
 1900SOL    HW1 6032   0.938   1.824   4.847
 1900SOL    HW2 6033   1.094   1.860   4.878
 1901SOL     OW 6034   0.770   3.192   4.025
 1901SOL    HW1 6035   0.724   3.105   4.042
 1901SOL    HW2 6036   0.861   3.189   4.066
 1902SOL     OW 6037   0.618   3.429   5.008
 1902SOL    HW1 6038   0.613   3.511   5.065
 1902SOL    HW2 6039   0.707   3.426   4.963
 1903SOL     OW 6040   1.352   1.914   3.892
 1903SOL    HW1 6041   1.387   1.873   3.808
 1903SOL    HW2 6042   1.262   1.876   3.912
 1904SOL     OW 6043   1.300   2.315   4.415
 1904SOL    HW1 6044   1.241   2.395   4.419
 1904SOL    HW2 6045   1.315   2.280   4.508
 1905SOL     OW 6046   1.593   2.083   4.606
 1905SOL    HW1 6047   1.509   2.082   4.660
 1905SOL    HW2 6048   1.595   2.166   4.550
 1906SOL     OW 6049   0.039   2.939   4.024
 1906SOL    HW1 6050   0.138   2.928   4.015
 1906SOL    HW2 6051  -0.001   2.853   4.056
 1907SOL     OW 6052   0.875   3.508   4.061
 1907SOL    HW1 6053   0.798   3.473   4.007
 1907SOL    HW2 6054   0.843   3.579   4.123
 1908SOL     OW 6055   0.230   2.490   5.699
 1908SOL    HW1 6056   0.137   2.488   5.736
 1908SOL    HW2 6057   0.231   2.451   5.607
 1909SOL     OW 6058   0.225   2.137   6.582
 1909SOL    HW1 6059   0.260   2.120   6.674
 1909SOL    HW2 6060   0.137   2.092   6.570
 1910SOL     OW 6061   0.019   2.230   6.233
 1910SOL    HW1 6062  -0.063   2.273   6.272
 1910SOL    HW2 6063  -0.009   2.157   6.170
 1911SOL     OW 6064   0.569   3.137   6.751
 1911SOL    HW1 6065   0.476   3.130   6.714
 1911SOL    HW2 6066   0.580   3.226   6.795
 1912SOL     OW 6067   1.555   3.373   6.289
 1912SOL    HW1 6068   1.498   3.357   6.370
 1912SOL    HW2 6069   1.496   3.383   6.209
 1913SOL     OW 6070   1.135   2.565   6.303
 1913SOL    HW1 6071   1.192   2.643   6.278
 1913SOL    HW2 6072   1.075   2.591   6.379
 1914SOL     OW 6073   0.768   3.006   6.609
 1914SOL    HW1 6074   0.690   3.023   6.669
 1914SOL    HW2 6075   0.802   3.093   6.573
 1915SOL     OW 6076   0.850   2.660   7.409
 1915SOL    HW1 6077   0.846   2.736   7.474
 1915SOL    HW2 6078   0.872   2.696   7.318
 1916SOL     OW 6079   0.685   2.874   6.251
 1916SOL    HW1 6080   0.754   2.858   6.321
 1916SOL    HW2 6081   0.612   2.931   6.289
 1917SOL     OW 6082   0.686   3.023   7.389
 1917SOL    HW1 6083   0.746   3.102   7.403
 1917SOL    HW2 6084   0.600   3.054   7.348
 1918SOL     OW 6085   0.335   3.297   6.647
 1918SOL    HW1 6086   0.257   3.266   6.594
 1918SOL    HW2 6087   0.393   3.355   6.590
 1919SOL     OW 6088   1.460   3.367   6.925
 1919SOL    HW1 6089   1.484   3.461   6.951
 1919SOL    HW2 6090   1.444   3.313   7.007
 1920SOL     OW 6091   0.438   2.254   7.085
 1920SOL    HW1 6092   0.520   2.198   7.094
 1920SOL    HW2 6093   0.357   2.196   7.089
 1921SOL     OW 6094   1.603   2.309   6.323
 1921SOL    HW1 6095   1.529   2.355   6.273
 1921SOL    HW2 6096   1.654   2.377   6.376
 1922SOL     OW 6097   0.231   3.575   6.069
 1922SOL    HW1 6098   0.265   3.652   6.123
 1922SOL    HW2 6099   0.275   3.575   5.979
 1923SOL     OW 6100   1.127   3.203   7.276
 1923SOL    HW1 6101   1.174   3.203   7.364
 1923SOL    HW2 6102   1.079   3.116   7.265
 1924SOL     OW 6103   0.230   3.296   6.124
 1924SOL    HW1 6104   0.204   3.392   6.124
 1924SOL    HW2 6105   0.159   3.242   6.169
 1925SOL     OW 6106   0.240   2.953   6.472
 1925SOL    HW1 6107   0.254   2.869   6.524
 1925SOL    HW2 6108   0.185   3.017   6.527
 1926SOL     OW 6109   0.620   3.648   7.025
 1926SOL    HW1 6110   0.528   3.631   7.060
 1926SOL    HW2 6111   0.648   3.740   7.051
 1927SOL     OW 6112   0.606   2.826   5.709
 1927SOL    HW1 6113   0.613   2.910   5.655
 1927SOL    HW2 6114   0.652   2.839   5.797
 1928SOL     OW 6115   1.594   1.976   7.066
 1928SOL    HW1 6116   1.576   2.043   6.994
 1928SOL    HW2 6117   1.591   2.022   7.155
 1929SOL     OW 6118   0.122   2.505   6.149
 1929SOL    HW1 6119   0.077   2.417   6.166
 1929SOL    HW2 6120   0.121   2.559   6.233
 1930SOL     OW 6121   1.842   3.629   5.945
 1930SOL    HW1 6122   1.896   3.600   6.025
 1930SOL    HW2 6123   1.872   3.719   5.916
 1931SOL     OW 6124   0.027   3.458   5.703
 1931SOL    HW1 6125   0.008   3.362   5.724
 1931SOL    HW2 6126  -0.006   3.516   5.778
 1932SOL     OW 6127   1.689   2.784   6.198
 1932SOL    HW1 6128   1.784   2.755   6.206
 1932SOL    HW2 6129   1.681   2.849   6.123
 1933SOL     OW 6130   1.641   2.970   6.018
 1933SOL    HW1 6131   1.727   2.972   5.966
 1933SOL    HW2 6132   1.655   3.017   6.106
 1934SOL     OW 6133   0.113   2.599   7.183
 1934SOL    HW1 6134   0.201   2.586   7.228
 1934SOL    HW2 6135   0.100   2.696   7.161
 1935SOL     OW 6136   0.613   3.227   6.312
 1935SOL    HW1 6137   0.564   3.140   6.321
 1935SOL    HW2 6138   0.590   3.270   6.225
 1936SOL     OW 6139   1.293   3.090   7.009
 1936SOL    HW1 6140   1.330   3.017   6.951
 1936SOL    HW2 6141   1.345   3.095   7.094
 1937SOL     OW 6142   0.809   1.866   6.088
 1937SOL    HW1 6143   0.849   1.957   6.079
 1937SOL    HW2 6144   0.709   1.874   6.094
 1938SOL     OW 6145   0.197   2.838   6.850
 1938SOL    HW1 6146   0.286   2.793   6.836
 1938SOL    HW2 6147   0.124   2.773   6.831
 1939SOL     OW 6148   1.525   2.861   5.776
 1939SOL    HW1 6149   1.462   2.785   5.789
 1939SOL    HW2 6150   1.573   2.879   5.862
 1940SOL     OW 6151   1.187   3.654   7.202
 1940SOL    HW1 6152   1.211   3.714   7.126
 1940SOL    HW2 6153   1.194   3.559   7.172
 1941SOL     OW 6154   0.317   2.113   7.387
 1941SOL    HW1 6155   0.388   2.184   7.393
 1941SOL    HW2 6156   0.229   2.152   7.415
 1942SOL     OW 6157   1.466   3.279   6.539
 1942SOL    HW1 6158   1.407   3.285   6.619
 1942SOL    HW2 6159   1.451   3.191   6.493
 1943SOL     OW 6160   1.667   3.576   6.158
 1943SOL    HW1 6161   1.626   3.553   6.070
 1943SOL    HW2 6162   1.649   3.502   6.223
 1944SOL     OW 6163   0.598   2.591   5.856
 1944SOL    HW1 6164   0.622   2.660   5.788
 1944SOL    HW2 6165   0.520   2.624   5.910
 1945SOL     OW 6166   1.281   2.207   6.530
 1945SOL    HW1 6167   1.195   2.157   6.517
 1945SOL    HW2 6168   1.343   2.153   6.586
 1946SOL     OW 6169   1.576   3.524   5.893
 1946SOL    HW1 6170   1.665   3.570   5.896
 1946SOL    HW2 6171   1.555   3.500   5.798
 1947SOL     OW 6172   0.807   2.467   7.051
 1947SOL    HW1 6173   0.760   2.464   7.140
 1947SOL    HW2 6174   0.756   2.412   6.985
 1948SOL     OW 6175   1.394   2.331   7.260
 1948SOL    HW1 6176   1.374   2.374   7.348
 1948SOL    HW2 6177   1.472   2.269   7.269
 1949SOL     OW 6178   0.973   2.752   7.158
 1949SOL    HW1 6179   1.019   2.668   7.129
 1949SOL    HW2 6180   0.917   2.786   7.083
 1950SOL     OW 6181   0.991   2.272   6.828
 1950SOL    HW1 6182   0.914   2.306   6.882
 1950SOL    HW2 6183   0.957   2.221   6.749
 1951SOL     OW 6184   1.041   2.563   6.015
 1951SOL    HW1 6185   1.067   2.559   6.111
 1951SOL    HW2 6186   0.956   2.512   6.001
 1952SOL     OW 6187   0.076   2.673   6.375
 1952SOL    HW1 6188   0.175   2.661   6.384
 1952SOL    HW2 6189   0.052   2.768   6.396
 1953SOL     OW 6190   0.130   3.683   7.157
 1953SOL    HW1 6191   0.120   3.668   7.256
 1953SOL    HW2 6192   0.044   3.719   7.121
 1954SOL     OW 6193   0.865   2.210   5.781
 1954SOL    HW1 6194   0.924   2.273   5.732
 1954SOL    HW2 6195   0.884   2.116   5.752
 1955SOL     OW 6196   1.719   2.447   7.417
 1955SOL    HW1 6197   1.693   2.536   7.381
 1955SOL    HW2 6198   1.717   2.379   7.344
 1956SOL     OW 6199   1.362   3.006   6.131
 1956SOL    HW1 6200   1.445   2.977   6.083
 1956SOL    HW2 6201   1.313   3.073   6.075
 1957SOL     OW 6202   0.550   2.058   6.471
 1957SOL    HW1 6203   0.545   2.053   6.571
 1957SOL    HW2 6204   0.552   2.154   6.442
 1958SOL     OW 6205   1.008   3.318   6.063
 1958SOL    HW1 6206   0.962   3.390   6.011
 1958SOL    HW2 6207   1.004   3.338   6.161
 1959SOL     OW 6208   0.351   3.663   6.439
 1959SOL    HW1 6209   0.401   3.577   6.445
 1959SOL    HW2 6210   0.416   3.740   6.436
 1960SOL     OW 6211   1.795   2.928   6.459
 1960SOL    HW1 6212   1.733   2.913   6.383
 1960SOL    HW2 6213   1.743   2.939   6.544
 1961SOL     OW 6214   1.227   3.412   7.092
 1961SOL    HW1 6215   1.233   3.335   7.156
 1961SOL    HW2 6216   1.175   3.386   7.012
 1962SOL     OW 6217   0.321   2.805   5.828
 1962SOL    HW1 6218   0.403   2.844   5.786
 1962SOL    HW2 6219   0.294   2.723   5.779
 1963SOL     OW 6220   1.458   2.597   6.314
 1963SOL    HW1 6221   1.453   2.532   6.389
 1963SOL    HW2 6222   1.538   2.656   6.327
 1964SOL     OW 6223   0.461   3.128   7.313
 1964SOL    HW1 6224   0.411   3.129   7.227
 1964SOL    HW2 6225   0.398   3.110   7.389
 1965SOL     OW 6226   1.111   3.638   5.823
 1965SOL    HW1 6227   1.051   3.576   5.873
 1965SOL    HW2 6228   1.142   3.594   5.738
 1966SOL     OW 6229   0.202   2.147   7.084
 1966SOL    HW1 6230   0.122   2.207   7.071
 1966SOL    HW2 6231   0.192   2.098   7.170
 1967SOL     OW 6232   1.632   3.239   5.667
 1967SOL    HW1 6233   1.600   3.333   5.657
 1967SOL    HW2 6234   1.556   3.176   5.655
 1968SOL     OW 6235   0.464   3.605   5.909
 1968SOL    HW1 6236   0.497   3.644   5.995
 1968SOL    HW2 6237   0.540   3.598   5.844
 1969SOL     OW 6238   1.400   1.969   6.012
 1969SOL    HW1 6239   1.376   1.932   5.922
 1969SOL    HW2 6240   1.499   1.985   6.016
 1970SOL     OW 6241   0.249   3.647   6.827
 1970SOL    HW1 6242   0.306   3.582   6.877
 1970SOL    HW2 6243   0.233   3.614   6.734
 1971SOL     OW 6244   0.940   3.560   6.490
 1971SOL    HW1 6245   1.020   3.503   6.511
 1971SOL    HW2 6246   0.891   3.520   6.413
 1972SOL     OW 6247   0.382   2.562   6.066
 1972SOL    HW1 6248   0.427   2.472   6.063
 1972SOL    HW2 6249   0.288   2.551   6.099
 1973SOL     OW 6250   1.547   2.084   7.315
 1973SOL    HW1 6251   1.542   2.121   7.407
 1973SOL    HW2 6252   1.475   2.015   7.303
 1974SOL     OW 6253   0.614   1.984   5.703
 1974SOL    HW1 6254   0.712   1.962   5.710
 1974SOL    HW2 6255   0.583   1.967   5.610
 1975SOL     OW 6256   0.781   2.126   7.335
 1975SOL    HW1 6257   0.848   2.065   7.378
 1975SOL    HW2 6258   0.708   2.145   7.400
 1976SOL     OW 6259   0.888   3.376   6.781
 1976SOL    HW1 6260   0.865   3.351   6.687
 1976SOL    HW2 6261   0.949   3.307   6.820
 1977SOL     OW 6262   1.351   2.452   7.019
 1977SOL    HW1 6263   1.379   2.409   7.104
 1977SOL    HW2 6264   1.376   2.548   7.020
 1978SOL     OW 6265   0.803   3.264   6.510
 1978SOL    HW1 6266   0.893   3.278   6.468
 1978SOL    HW2 6267   0.732   3.266   6.439
 1979SOL     OW 6268   0.922   2.365   6.485
 1979SOL    HW1 6269   0.897   2.356   6.389
 1979SOL    HW2 6270   0.970   2.283   6.516
 1980SOL     OW 6271   0.539   1.926   6.098
 1980SOL    HW1 6272   0.458   1.927   6.156
 1980SOL    HW2 6273   0.542   2.009   6.043
 1981SOL     OW 6274   1.434   3.050   5.627
 1981SOL    HW1 6275   1.466   2.974   5.684
 1981SOL    HW2 6276   1.342   3.077   5.657
 1982SOL     OW 6277   0.297   1.897   5.757
 1982SOL    HW1 6278   0.346   1.981   5.736
 1982SOL    HW2 6279   0.359   1.832   5.802
 1983SOL     OW 6280   0.935   2.098   6.066
 1983SOL    HW1 6281   0.887   2.139   5.988
 1983SOL    HW2 6282   1.034   2.096   6.047
 1984SOL     OW 6283   1.076   2.545   7.050
 1984SOL    HW1 6284   0.996   2.484   7.053
 1984SOL    HW2 6285   1.157   2.492   7.026
 1985SOL     OW 6286   1.227   3.432   6.379
 1985SOL    HW1 6287   1.248   3.506   6.314
 1985SOL    HW2 6288   1.295   3.432   6.452
 1986SOL     OW 6289   0.459   3.014   6.327
 1986SOL    HW1 6290   0.388   2.987   6.392
 1986SOL    HW2 6291   0.433   2.986   6.234
 1987SOL     OW 6292   1.271   3.659   6.177
 1987SOL    HW1 6293   1.315   3.723   6.113
 1987SOL    HW2 6294   1.221   3.711   6.247
 1988SOL     OW 6295   1.032   2.411   5.602
 1988SOL    HW1 6296   0.991   2.493   5.563
 1988SOL    HW2 6297   1.096   2.437   5.675
 1989SOL     OW 6298   0.078   2.418   6.972
 1989SOL    HW1 6299   0.170   2.417   6.931
 1989SOL    HW2 6300   0.072   2.492   7.039
 1990SOL     OW 6301   0.561   2.084   6.733
 1990SOL    HW1 6302   0.599   2.000   6.770
 1990SOL    HW2 6303   0.473   2.103   6.777
 1991SOL     OW 6304   0.866   2.316   6.228
 1991SOL    HW1 6305   0.834   2.388   6.166
 1991SOL    HW2 6306   0.890   2.235   6.175
 1992SOL     OW 6307   1.017   1.901   6.339
 1992SOL    HW1 6308   0.945   1.906   6.270
 1992SOL    HW2 6309   0.993   1.832   6.408
 1993SOL     OW 6310   1.429   3.035   6.453
 1993SOL    HW1 6311   1.374   2.951   6.446
 1993SOL    HW2 6312   1.455   3.064   6.361
 1994SOL     OW 6313   1.466   2.452   6.578
 1994SOL    HW1 6314   1.436   2.357   6.585
 1994SOL    HW2 6315   1.539   2.468   6.644
 1995SOL     OW 6316   0.488   3.247   5.760
 1995SOL    HW1 6317   0.401   3.232   5.807
 1995SOL    HW2 6318   0.471   3.273   5.665
 1996SOL     OW 6319   1.664   3.142   6.243
 1996SOL    HW1 6320   1.763   3.150   6.257
 1996SOL    HW2 6321   1.619   3.226   6.274
 1997SOL     OW 6322   1.390   2.437   5.664
 1997SOL    HW1 6323   1.336   2.416   5.745
 1997SOL    HW2 6324   1.481   2.396   5.673
 1998SOL     OW 6325   0.527   2.118   5.914
 1998SOL    HW1 6326   0.554   2.059   5.839
 1998SOL    HW2 6327   0.527   2.213   5.883
 1999SOL     OW 6328   1.754   3.085   7.174
 1999SOL    HW1 6329   1.845   3.046   7.161
 1999SOL    HW2 6330   1.762   3.181   7.198
 2000SOL     OW 6331   1.064   3.209   6.926
 2000SOL    HW1 6332   0.984   3.186   6.981
 2000SOL    HW2 6333   1.147   3.183   6.975
 2001SOL     OW 6334   1.592   3.491   7.211
 2001SOL    HW1 6335   1.619   3.525   7.121
 2001SOL    HW2 6336   1.671   3.453   7.257
 2002SOL     OW 6337   1.111   3.057   6.686
 2002SOL    HW1 6338   1.071   3.101   6.767
 2002SOL    HW2 6339   1.070   3.094   6.603
 2003SOL     OW 6340   1.638   2.961   6.665
 2003SOL    HW1 6341   1.643   3.042   6.724
 2003SOL    HW2 6342   1.552   2.963   6.614
 2004SOL     OW 6343   0.915   1.951   6.988
 2004SOL    HW1 6344   0.940   1.931   6.893
 2004SOL    HW2 6345   0.987   2.007   7.030
 2005SOL     OW 6346   0.980   2.978   7.305
 2005SOL    HW1 6347   0.881   2.984   7.315
 2005SOL    HW2 6348   1.003   2.898   7.249
 2006SOL     OW 6349   0.705   2.912   5.954
 2006SOL    HW1 6350   0.691   2.919   6.053
 2006SOL    HW2 6351   0.789   2.861   5.936
 2007SOL     OW 6352   0.410   2.675   6.837
 2007SOL    HW1 6353   0.496   2.687   6.887
 2007SOL    HW2 6354   0.368   2.588   6.864
 2008SOL     OW 6355   1.274   2.248   6.848
 2008SOL    HW1 6356   1.295   2.322   6.912
 2008SOL    HW2 6357   1.185   2.265   6.805
 2009SOL     OW 6358   0.064   3.426   6.917
 2009SOL    HW1 6359   0.018   3.508   6.883
 2009SOL    HW2 6360   0.162   3.445   6.926
 2010SOL     OW 6361   0.367   2.962   6.087
 2010SOL    HW1 6362   0.360   3.045   6.031
 2010SOL    HW2 6363   0.371   2.882   6.027
 2011SOL     OW 6364   0.566   2.399   6.451
 2011SOL    HW1 6365   0.578   2.465   6.377
 2011SOL    HW2 6366   0.612   2.433   6.534
 2012SOL     OW 6367   1.252   3.210   5.974
 2012SOL    HW1 6368   1.302   3.287   6.014
 2012SOL    HW2 6369   1.157   3.212   6.006
 2013SOL     OW 6370   1.272   3.307   6.728
 2013SOL    HW1 6371   1.319   3.320   6.815
 2013SOL    HW2 6372   1.206   3.233   6.737
 2014SOL     OW 6373   1.582   2.501   6.058
 2014SOL    HW1 6374   1.551   2.562   6.131
 2014SOL    HW2 6375   1.632   2.553   5.989
 2015SOL     OW 6376   0.354   3.372   6.915
 2015SOL    HW1 6377   0.333   3.328   6.828
 2015SOL    HW2 6378   0.451   3.398   6.918
 2016SOL     OW 6379   0.402   2.613   7.184
 2016SOL    HW1 6380   0.470   2.668   7.137
 2016SOL    HW2 6381   0.442   2.525   7.211
 2017SOL     OW 6382   1.587   2.641   7.256
 2017SOL    HW1 6383   1.495   2.679   7.251
 2017SOL    HW2 6384   1.647   2.688   7.191
 2018SOL     OW 6385   1.013   1.967   7.356
 2018SOL    HW1 6386   1.019   2.052   7.304
 2018SOL    HW2 6387   1.045   1.891   7.299
 2019SOL     OW 6388   0.504   1.912   7.326
 2019SOL    HW1 6389   0.462   1.855   7.256
 2019SOL    HW2 6390   0.438   1.981   7.358
 2020SOL     OW 6391   0.573   2.732   6.615
 2020SOL    HW1 6392   0.617   2.821   6.606
 2020SOL    HW2 6393   0.510   2.732   6.692
 2021SOL     OW 6394   1.360   2.724   6.631
 2021SOL    HW1 6395   1.285   2.724   6.565
 2021SOL    HW2 6396   1.397   2.632   6.640
 2022SOL     OW 6397   1.209   2.387   5.861
 2022SOL    HW1 6398   1.222   2.303   5.915
 2022SOL    HW2 6399   1.180   2.461   5.921
 2023SOL     OW 6400   0.307   2.075   6.817
 2023SOL    HW1 6401   0.284   2.112   6.907
 2023SOL    HW2 6402   0.277   1.980   6.811
 2024SOL     OW 6403   0.037   3.172   6.868
 2024SOL    HW1 6404   0.090   3.123   6.936
 2024SOL    HW2 6405   0.059   3.270   6.873
 2025SOL     OW 6406   0.732   2.496   6.650
 2025SOL    HW1 6407   0.791   2.470   6.574
 2025SOL    HW2 6408   0.704   2.592   6.639
 2026SOL     OW 6409   1.728   2.797   7.440
 2026SOL    HW1 6410   1.682   2.790   7.351
 2026SOL    HW2 6411   1.666   2.841   7.506
 2027SOL     OW 6412   0.307   1.925   6.204
 2027SOL    HW1 6413   0.296   2.019   6.237
 2027SOL    HW2 6414   0.302   1.862   6.281
 2028SOL     OW 6415   1.622   2.229   5.960
 2028SOL    HW1 6416   1.624   2.153   6.024
 2028SOL    HW2 6417   1.574   2.306   6.000
 2029SOL     OW 6418   1.023   2.628   6.552
 2029SOL    HW1 6419   1.038   2.649   6.648
 2029SOL    HW2 6420   0.993   2.533   6.543
 2030SOL     OW 6421   0.980   3.435   7.286
 2030SOL    HW1 6422   0.960   3.479   7.198
 2030SOL    HW2 6423   1.019   3.344   7.270
 2031SOL     OW 6424   1.859   3.380   7.191
 2031SOL    HW1 6425   1.873   3.407   7.096
 2031SOL    HW2 6426   1.942   3.402   7.244
 2032SOL     OW 6427   0.350   2.760   7.390
 2032SOL    HW1 6428   0.426   2.804   7.438
 2032SOL    HW2 6429   0.385   2.713   7.308
 2033SOL     OW 6430   1.303   2.700   5.628
 2033SOL    HW1 6431   1.337   2.607   5.643
 2033SOL    HW2 6432   1.321   2.727   5.533
 2034SOL     OW 6433   1.068   3.195   6.435
 2034SOL    HW1 6434   1.075   3.111   6.380
 2034SOL    HW2 6435   1.130   3.264   6.399
 2035SOL     OW 6436   0.319   2.672   6.535
 2035SOL    HW1 6437   0.412   2.708   6.540
 2035SOL    HW2 6438   0.313   2.587   6.587
 2036SOL     OW 6439   0.339   2.371   6.592
 2036SOL    HW1 6440   0.287   2.288   6.575
 2036SOL    HW2 6441   0.416   2.376   6.528
 2037SOL     OW 6442   1.138   2.242   7.264
 2037SOL    HW1 6443   1.093   2.305   7.328
 2037SOL    HW2 6444   1.231   2.273   7.247
 2038SOL     OW 6445   1.160   2.069   7.063
 2038SOL    HW1 6446   1.160   2.133   7.140
 2038SOL    HW2 6447   1.188   2.117   6.980
 2039SOL     OW 6448   0.008   3.188   5.786
 2039SOL    HW1 6449  -0.085   3.209   5.755
 2039SOL    HW2 6450   0.018   3.089   5.799
 2040SOL     OW 6451   0.088   3.663   6.513
 2040SOL    HW1 6452   0.046   3.577   6.486
 2040SOL    HW2 6453   0.182   3.666   6.479
 2041SOL     OW 6454   0.504   3.430   6.496
 2041SOL    HW1 6455   0.570   3.504   6.505
 2041SOL    HW2 6456   0.548   3.351   6.454
 2042SOL     OW 6457   1.002   2.658   6.824
 2042SOL    HW1 6458   1.043   2.626   6.910
 2042SOL    HW2 6459   0.906   2.631   6.821
 2043SOL     OW 6460   0.040   2.406   6.700
 2043SOL    HW1 6461   0.125   2.373   6.659
 2043SOL    HW2 6462   0.053   2.421   6.798
 2044SOL     OW 6463   0.189   2.382   7.308
 2044SOL    HW1 6464   0.248   2.342   7.238
 2044SOL    HW2 6465   0.131   2.453   7.267
 2045SOL     OW 6466   1.369   2.812   7.246
 2045SOL    HW1 6467   1.408   2.901   7.266
 2045SOL    HW2 6468   1.379   2.792   7.149
 2046SOL     OW 6469   0.815   2.434   5.911
 2046SOL    HW1 6470   0.822   2.345   5.865
 2046SOL    HW2 6471   0.721   2.468   5.903
 2047SOL     OW 6472   1.657   2.466   6.792
 2047SOL    HW1 6473   1.619   2.397   6.854
 2047SOL    HW2 6474   1.739   2.430   6.748
 2048SOL     OW 6475   0.252   3.426   7.330
 2048SOL    HW1 6476   0.222   3.483   7.406
 2048SOL    HW2 6477   0.245   3.329   7.356
 2049SOL     OW 6478   0.671   2.326   6.855
 2049SOL    HW1 6479   0.637   2.237   6.825
 2049SOL    HW2 6480   0.697   2.380   6.775
 2050SOL     OW 6481   0.930   3.540   7.051
 2050SOL    HW1 6482   0.906   3.522   6.956
 2050SOL    HW2 6483   0.960   3.634   7.061
 2051SOL     OW 6484   0.473   2.362   5.777
 2051SOL    HW1 6485   0.534   2.442   5.781
 2051SOL    HW2 6486   0.378   2.393   5.784
 2052SOL     OW 6487   0.159   2.999   7.052
 2052SOL    HW1 6488   0.181   2.938   7.128
 2052SOL    HW2 6489   0.169   2.950   6.966
 2053SOL     OW 6490   1.347   2.921   6.820
 2053SOL    HW1 6491   1.371   2.858   6.746
 2053SOL    HW2 6492   1.257   2.961   6.802
 2054SOL     OW 6493   1.302   2.717   5.895
 2054SOL    HW1 6494   1.216   2.686   5.937
 2054SOL    HW2 6495   1.298   2.703   5.796
 2055SOL     OW 6496   1.759   3.609   6.740
 2055SOL    HW1 6497   1.820   3.639   6.667
 2055SOL    HW2 6498   1.721   3.520   6.718
 2056SOL     OW 6499   1.252   3.593   6.714
 2056SOL    HW1 6500   1.336   3.598   6.660
 2056SOL    HW2 6501   1.229   3.497   6.732
 2057SOL     OW 6502   0.083   3.120   6.608
 2057SOL    HW1 6503   0.078   3.119   6.708
 2057SOL    HW2 6504   0.000   3.079   6.570
 2058SOL     OW 6505   0.688   3.524   7.302
 2058SOL    HW1 6506   0.632   3.605   7.311
 2058SOL    HW2 6507   0.740   3.528   7.216
 2059SOL     OW 6508   1.726   1.997   6.109
 2059SOL    HW1 6509   1.799   1.980   6.042
 2059SOL    HW2 6510   1.695   1.910   6.147
 2060SOL     OW 6511   1.388   3.435   6.063
 2060SOL    HW1 6512   1.455   3.447   5.989
 2060SOL    HW2 6513   1.348   3.524   6.086
 2061SOL     OW 6514   0.130   3.656   7.437
 2061SOL    HW1 6515   0.089   3.582   7.490
 2061SOL    HW2 6516   0.194   3.707   7.495
 2062SOL     OW 6517   1.280   2.789   6.258
 2062SOL    HW1 6518   1.340   2.708   6.260
 2062SOL    HW2 6519   1.320   2.858   6.198
 2063SOL     OW 6520   0.830   3.135   7.008
 2063SOL    HW1 6521   0.825   3.168   7.103
 2063SOL    HW2 6522   0.744   3.154   6.962
 2064SOL     OW 6523   0.672   3.478   5.740
 2064SOL    HW1 6524   0.681   3.488   5.641
 2064SOL    HW2 6525   0.632   3.389   5.761
 2065SOL     OW 6526   1.650   3.582   6.980
 2065SOL    HW1 6527   1.703   3.592   6.896
 2065SOL    HW2 6528   1.623   3.672   7.014
 2066SOL     OW 6529   1.841   2.037   6.549
 2066SOL    HW1 6530   1.880   1.952   6.513
 2066SOL    HW2 6531   1.743   2.039   6.530
 2067SOL     OW 6532   0.263   2.188   6.306
 2067SOL    HW1 6533   0.184   2.239   6.272
 2067SOL    HW2 6534   0.254   2.173   6.404
 2068SOL     OW 6535   1.194   3.474   5.617
 2068SOL    HW1 6536   1.200   3.381   5.654
 2068SOL    HW2 6537   1.135   3.474   5.537
 2069SOL     OW 6538   0.822   2.864   6.958
 2069SOL    HW1 6539   0.862   2.863   6.866
 2069SOL    HW2 6540   0.832   2.956   6.998
 2070SOL     OW 6541   0.916   2.772   5.877
 2070SOL    HW1 6542   0.979   2.810   5.809
 2070SOL    HW2 6543   0.956   2.689   5.916
 2071SOL     OW 6544   1.504   3.469   5.630
 2071SOL    HW1 6545   1.412   3.506   5.637
 2071SOL    HW2 6546   1.542   3.489   5.540
 2072SOL     OW 6547   0.372   3.150   7.076
 2072SOL    HW1 6548   0.359   3.243   7.042
 2072SOL    HW2 6549   0.288   3.098   7.063
 2073SOL     OW 6550   1.614   3.154   6.875
 2073SOL    HW1 6551   1.674   3.157   6.955
 2073SOL    HW2 6552   1.539   3.218   6.888
 2074SOL     OW 6553   1.039   2.960   6.282
 2074SOL    HW1 6554   0.969   2.913   6.336
 2074SOL    HW2 6555   1.098   2.892   6.239
 2075SOL     OW 6556   1.014   2.098   6.557
 2075SOL    HW1 6557   1.006   2.062   6.464
 2075SOL    HW2 6558   1.012   2.022   6.622
 2076SOL     OW 6559   0.590   3.349   6.077
 2076SOL    HW1 6560   0.632   3.291   6.007
 2076SOL    HW2 6561   0.546   3.428   6.033
 2077SOL     OW 6562   1.709   2.247   6.967
 2077SOL    HW1 6563   1.782   2.316   6.971
 2077SOL    HW2 6564   1.737   2.172   6.908
 2078SOL     OW 6565   0.255   3.210   5.876
 2078SOL    HW1 6566   0.159   3.211   5.849
 2078SOL    HW2 6567   0.267   3.263   5.960
 2079SOL     OW 6568   0.105   2.875   7.312
 2079SOL    HW1 6569   0.028   2.842   7.366
 2079SOL    HW2 6570   0.190   2.845   7.354
 2080SOL     OW 6571   0.672   2.065   7.075
 2080SOL    HW1 6572   0.762   2.049   7.035
 2080SOL    HW2 6573   0.680   2.070   7.174
 2081SOL     OW 6574   0.075   2.207   5.619
 2081SOL    HW1 6575  -0.017   2.179   5.590
 2081SOL    HW2 6576   0.106   2.284   5.563
 2082SOL     OW 6577   1.440   2.718   6.984
 2082SOL    HW1 6578   1.383   2.770   6.921
 2082SOL    HW2 6579   1.536   2.730   6.960
 2083SOL     OW 6580   0.072   2.028   5.904
 2083SOL    HW1 6581   0.055   2.111   5.850
 2083SOL    HW2 6582   0.162   1.991   5.882
 2084SOL     OW 6583   1.183   3.197   5.705
 2084SOL    HW1 6584   1.084   3.186   5.707
 2084SOL    HW2 6585   1.217   3.212   5.798
 2085SOL     OW 6586   0.613   2.704   7.017
 2085SOL    HW1 6587   0.669   2.785   7.000
 2085SOL    HW2 6588   0.672   2.624   7.020
 2086SOL     OW 6589   1.493   3.629   6.545
 2086SOL    HW1 6590   1.526   3.693   6.476
 2086SOL    HW2 6591   1.559   3.623   6.620
 2087SOL     OW 6592   0.716   2.427   7.294
 2087SOL    HW1 6593   0.735   2.492   7.368
 2087SOL    HW2 6594   0.776   2.347   7.303
 2088SOL     OW 6595   1.450   3.082   7.219
 2088SOL    HW1 6596   1.441   3.072   7.318
 2088SOL    HW2 6597   1.546   3.075   7.193
 2089SOL     OW 6598   0.390   3.603   7.146
 2089SOL    HW1 6599   0.299   3.644   7.144
 2089SOL    HW2 6600   0.383   3.509   7.178
 2090SOL     OW 6601   1.674   2.745   6.840
 2090SOL    HW1 6602   1.647   2.656   6.803
 2090SOL    HW2 6603   1.675   2.813   6.767
 2091SOL     OW 6604   1.225   2.187   6.035
 2091SOL    HW1 6605   1.290   2.113   6.024
 2091SOL    HW2 6606   1.245   2.237   6.119
 2092SOL     OW 6607   0.594   2.607   6.238
 2092SOL    HW1 6608   0.644   2.692   6.219
 2092SOL    HW2 6609   0.506   2.609   6.190
 2093SOL     OW 6610   1.777   2.204   7.228
 2093SOL    HW1 6611   1.760   2.235   7.134
 2093SOL    HW2 6612   1.693   2.167   7.266
 2094SOL     OW 6613   1.730   2.796   7.103
 2094SOL    HW1 6614   1.768   2.887   7.118
 2094SOL    HW2 6615   1.722   2.779   7.004
 2095SOL     OW 6616   0.859   3.236   5.602
 2095SOL    HW1 6617   0.813   3.251   5.690
 2095SOL    HW2 6618   0.903   3.321   5.572
 2096SOL     OW 6619   0.661   3.652   6.539
 2096SOL    HW1 6620   0.615   3.740   6.526
 2096SOL    HW2 6621   0.760   3.664   6.532
 2097SOL     OW 6622   0.859   2.818   6.447
 2097SOL    HW1 6623   0.913   2.749   6.495
 2097SOL    HW2 6624   0.827   2.887   6.513
 2098SOL     OW 6625   1.083   2.846   5.673
 2098SOL    HW1 6626   1.060   2.899   5.591
 2098SOL    HW2 6627   1.164   2.790   5.654
 2099SOL     OW 6628   1.861   3.431   6.437
 2099SOL    HW1 6629   1.790   3.419   6.367
 2099SOL    HW2 6630   1.862   3.352   6.497
 2100SOL     OW 6631   0.221   3.176   7.430
 2100SOL    HW1 6632   0.156   3.103   7.409
 2100SOL    HW2 6633   0.225   3.190   7.528
 2101SOL     OW 6634   0.079   3.102   6.239
 2101SOL    HW1 6635   0.078   3.055   6.327
 2101SOL    HW2 6636   0.161   3.074   6.188
 2102SOL     OW 6637   0.672   3.253   7.210
 2102SOL    HW1 6638   0.594   3.203   7.248
 2102SOL    HW2 6639   0.669   3.348   7.241
 2103SOL     OW 6640   1.824   2.054   6.813
 2103SOL    HW1 6641   1.820   1.964   6.857
 2103SOL    HW2 6642   1.827   2.043   6.714
 2104SOL     OW 6643   0.428   2.286   6.106
 2104SOL    HW1 6644   0.458   2.214   6.044
 2104SOL    HW2 6645   0.389   2.246   6.189
 2105SOL     OW 6646   1.705   3.349   6.690
 2105SOL    HW1 6647   1.612   3.324   6.663
 2105SOL    HW2 6648   1.731   3.299   6.772
 2106SOL     OW 6649   0.317   2.409   6.866
 2106SOL    HW1 6650   0.355   2.350   6.938
 2106SOL    HW2 6651   0.357   2.383   6.778
 2107SOL     OW 6652   0.812   3.448   6.273
 2107SOL    HW1 6653   0.844   3.458   6.179
 2107SOL    HW2 6654   0.733   3.386   6.275
 2108SOL     OW 6655   1.424   2.076   6.698
 2108SOL    HW1 6656   1.476   2.011   6.753
 2108SOL    HW2 6657   1.375   2.139   6.759
 2109SOL     OW 6658   1.001   1.896   6.740
 2109SOL    HW1 6659   0.938   1.824   6.709
 2109SOL    HW2 6660   1.094   1.860   6.740
 2110SOL     OW 6661   0.770   3.192   5.887
 2110SOL    HW1 6662   0.724   3.105   5.904
 2110SOL    HW2 6663   0.861   3.189   5.928
 2111SOL     OW 6664   0.618   3.429   6.870
 2111SOL    HW1 6665   0.613   3.511   6.927
 2111SOL    HW2 6666   0.707   3.426   6.825
 2112SOL     OW 6667   1.352   1.914   5.754
 2112SOL    HW1 6668   1.387   1.873   5.670
 2112SOL    HW2 6669   1.262   1.876   5.774
 2113SOL     OW 6670   1.300   2.315   6.277
 2113SOL    HW1 6671   1.241   2.395   6.281
 2113SOL    HW2 6672   1.315   2.280   6.370
 2114SOL     OW 6673   1.593   2.083   6.468
 2114SOL    HW1 6674   1.509   2.082   6.522
 2114SOL    HW2 6675   1.595   2.166   6.412
 2115SOL     OW 6676   0.039   2.939   5.886
 2115SOL    HW1 6677   0.138   2.928   5.877
 2115SOL    HW2 6678  -0.001   2.853   5.918
 2116SOL     OW 6679   0.875   3.508   5.923
 2116SOL    HW1 6680   0.798   3.473   5.869
 2116SOL    HW2 6681   0.843   3.579   5.985
 2117SOL     OW 6682   0.230   2.490   7.561
 2117SOL    HW1 6683   0.137   2.488   7.598
 2117SOL    HW2 6684   0.231   2.451   7.469
 2118SOL     OW 6685   0.225   2.137   8.444
 2118SOL    HW1 6686   0.260   2.120   8.536
 2118SOL    HW2 6687   0.137   2.092   8.432
 2119SOL     OW 6688   0.019   2.230   8.095
 2119SOL    HW1 6689  -0.063   2.273   8.134
 2119SOL    HW2 6690  -0.009   2.157   8.032
 2120SOL     OW 6691   0.569   3.137   8.613
 2120SOL    HW1 6692   0.476   3.130   8.576
 2120SOL    HW2 6693   0.580   3.226   8.657
 2121SOL     OW 6694   1.555   3.373   8.151
 2121SOL    HW1 6695   1.498   3.357   8.232
 2121SOL    HW2 6696   1.496   3.383   8.071
 2122SOL     OW 6697   1.135   2.565   8.165
 2122SOL    HW1 6698   1.192   2.643   8.140
 2122SOL    HW2 6699   1.075   2.591   8.241
 2123SOL     OW 6700   1.755   2.469   7.679
 2123SOL    HW1 6701   1.743   2.456   7.580
 2123SOL    HW2 6702   1.725   2.388   7.728
 2124SOL     OW 6703   0.768   3.006   8.471
 2124SOL    HW1 6704   0.690   3.023   8.531
 2124SOL    HW2 6705   0.802   3.093   8.435
 2125SOL     OW 6706   0.850   2.660   9.271
 2125SOL    HW1 6707   0.846   2.736   9.336
 2125SOL    HW2 6708   0.872   2.696   9.180
 2126SOL     OW 6709   0.685   2.874   8.113
 2126SOL    HW1 6710   0.754   2.858   8.183
 2126SOL    HW2 6711   0.612   2.931   8.151
 2127SOL     OW 6712   0.686   3.023   9.251
 2127SOL    HW1 6713   0.746   3.102   9.265
 2127SOL    HW2 6714   0.600   3.054   9.210
 2128SOL     OW 6715   0.335   3.297   8.509
 2128SOL    HW1 6716   0.257   3.266   8.456
 2128SOL    HW2 6717   0.393   3.355   8.452
 2129SOL     OW 6718   1.460   3.367   8.787
 2129SOL    HW1 6719   1.484   3.461   8.813
 2129SOL    HW2 6720   1.444   3.313   8.869
 2130SOL     OW 6721   0.438   2.254   8.947
 2130SOL    HW1 6722   0.520   2.198   8.956
 2130SOL    HW2 6723   0.357   2.196   8.951
 2131SOL     OW 6724   1.603   2.309   8.185
 2131SOL    HW1 6725   1.529   2.355   8.135
 2131SOL    HW2 6726   1.654   2.377   8.238
 2132SOL     OW 6727   0.231   3.575   7.931
 2132SOL    HW1 6728   0.265   3.652   7.985
 2132SOL    HW2 6729   0.275   3.575   7.841
 2133SOL     OW 6730   1.127   3.203   9.138
 2133SOL    HW1 6731   1.174   3.203   9.226
 2133SOL    HW2 6732   1.079   3.116   9.127
 2134SOL     OW 6733   0.230   3.296   7.986
 2134SOL    HW1 6734   0.204   3.392   7.986
 2134SOL    HW2 6735   0.159   3.242   8.031
 2135SOL     OW 6736   0.240   2.953   8.334
 2135SOL    HW1 6737   0.254   2.869   8.386
 2135SOL    HW2 6738   0.185   3.017   8.389
 2136SOL     OW 6739   0.620   3.648   8.887
 2136SOL    HW1 6740   0.528   3.631   8.922
 2136SOL    HW2 6741   0.648   3.740   8.913
 2137SOL     OW 6742   0.606   2.826   7.571
 2137SOL    HW1 6743   0.613   2.910   7.517
 2137SOL    HW2 6744   0.652   2.839   7.659
 2138SOL     OW 6745   1.594   1.976   8.928
 2138SOL    HW1 6746   1.576   2.043   8.856
 2138SOL    HW2 6747   1.591   2.022   9.017
 2139SOL     OW 6748   0.122   2.505   8.011
 2139SOL    HW1 6749   0.077   2.417   8.028
 2139SOL    HW2 6750   0.121   2.559   8.095
 2140SOL     OW 6751   1.842   3.629   7.807
 2140SOL    HW1 6752   1.896   3.600   7.887
 2140SOL    HW2 6753   1.872   3.719   7.778
 2141SOL     OW 6754   0.027   3.458   7.565
 2141SOL    HW1 6755   0.008   3.362   7.586
 2141SOL    HW2 6756  -0.006   3.516   7.640
 2142SOL     OW 6757   1.689   2.784   8.060
 2142SOL    HW1 6758   1.784   2.755   8.068
 2142SOL    HW2 6759   1.681   2.849   7.985
 2143SOL     OW 6760   1.641   2.970   7.880
 2143SOL    HW1 6761   1.727   2.972   7.828
 2143SOL    HW2 6762   1.655   3.017   7.968
 2144SOL     OW 6763   0.113   2.599   9.045
 2144SOL    HW1 6764   0.201   2.586   9.090
 2144SOL    HW2 6765   0.100   2.696   9.023
 2145SOL     OW 6766   0.613   3.227   8.174
 2145SOL    HW1 6767   0.564   3.140   8.183
 2145SOL    HW2 6768   0.590   3.270   8.087
 2146SOL     OW 6769   1.293   3.090   8.871
 2146SOL    HW1 6770   1.330   3.017   8.813
 2146SOL    HW2 6771   1.345   3.095   8.956
 2147SOL     OW 6772   0.809   1.866   7.950
 2147SOL    HW1 6773   0.849   1.957   7.941
 2147SOL    HW2 6774   0.709   1.874   7.956
 2148SOL     OW 6775   0.197   2.838   8.712
 2148SOL    HW1 6776   0.286   2.793   8.698
 2148SOL    HW2 6777   0.124   2.773   8.693
 2149SOL     OW 6778   1.525   2.861   7.638
 2149SOL    HW1 6779   1.462   2.785   7.651
 2149SOL    HW2 6780   1.573   2.879   7.724
 2150SOL     OW 6781   1.187   3.654   9.064
 2150SOL    HW1 6782   1.211   3.714   8.988
 2150SOL    HW2 6783   1.194   3.559   9.034
 2151SOL     OW 6784   0.317   2.113   9.249
 2151SOL    HW1 6785   0.388   2.184   9.255
 2151SOL    HW2 6786   0.229   2.152   9.277
 2152SOL     OW 6787   1.466   3.279   8.401
 2152SOL    HW1 6788   1.407   3.285   8.481
 2152SOL    HW2 6789   1.451   3.191   8.355
 2153SOL     OW 6790   1.667   3.576   8.020
 2153SOL    HW1 6791   1.626   3.553   7.932
 2153SOL    HW2 6792   1.649   3.502   8.085
 2154SOL     OW 6793   0.598   2.591   7.718
 2154SOL    HW1 6794   0.622   2.660   7.650
 2154SOL    HW2 6795   0.520   2.624   7.772
 2155SOL     OW 6796   1.281   2.207   8.392
 2155SOL    HW1 6797   1.195   2.157   8.379
 2155SOL    HW2 6798   1.343   2.153   8.448
 2156SOL     OW 6799   1.576   3.524   7.755
 2156SOL    HW1 6800   1.665   3.570   7.758
 2156SOL    HW2 6801   1.555   3.500   7.660
 2157SOL     OW 6802   0.807   2.467   8.913
 2157SOL    HW1 6803   0.760   2.464   9.002
 2157SOL    HW2 6804   0.756   2.412   8.847
 2158SOL     OW 6805   1.394   2.331   9.122
 2158SOL    HW1 6806   1.374   2.374   9.210
 2158SOL    HW2 6807   1.472   2.269   9.131
 2159SOL     OW 6808   0.973   2.752   9.020
 2159SOL    HW1 6809   1.019   2.668   8.991
 2159SOL    HW2 6810   0.917   2.786   8.945
 2160SOL     OW 6811   0.991   2.272   8.690
 2160SOL    HW1 6812   0.914   2.306   8.744
 2160SOL    HW2 6813   0.957   2.221   8.611
 2161SOL     OW 6814   1.041   2.563   7.877
 2161SOL    HW1 6815   1.067   2.559   7.973
 2161SOL    HW2 6816   0.956   2.512   7.863
 2162SOL     OW 6817   0.076   2.673   8.237
 2162SOL    HW1 6818   0.175   2.661   8.246
 2162SOL    HW2 6819   0.052   2.768   8.258
 2163SOL     OW 6820   0.130   3.683   9.019
 2163SOL    HW1 6821   0.120   3.668   9.118
 2163SOL    HW2 6822   0.044   3.719   8.983
 2164SOL     OW 6823   0.865   2.210   7.643
 2164SOL    HW1 6824   0.924   2.273   7.594
 2164SOL    HW2 6825   0.884   2.116   7.614
 2165SOL     OW 6826   1.719   2.447   9.279
 2165SOL    HW1 6827   1.693   2.536   9.243
 2165SOL    HW2 6828   1.717   2.379   9.206
 2166SOL     OW 6829   1.362   3.006   7.993
 2166SOL    HW1 6830   1.445   2.977   7.945
 2166SOL    HW2 6831   1.313   3.073   7.937
 2167SOL     OW 6832   0.550   2.058   8.333
 2167SOL    HW1 6833   0.545   2.053   8.433
 2167SOL    HW2 6834   0.552   2.154   8.304
 2168SOL     OW 6835   1.008   3.318   7.925
 2168SOL    HW1 6836   0.962   3.390   7.873
 2168SOL    HW2 6837   1.004   3.338   8.023
 2169SOL     OW 6838   0.351   3.663   8.301
 2169SOL    HW1 6839   0.401   3.577   8.307
 2169SOL    HW2 6840   0.416   3.740   8.298
 2170SOL     OW 6841   1.795   2.928   8.321
 2170SOL    HW1 6842   1.733   2.913   8.245
 2170SOL    HW2 6843   1.743   2.939   8.406
 2171SOL     OW 6844   1.227   3.412   8.954
 2171SOL    HW1 6845   1.233   3.335   9.018
 2171SOL    HW2 6846   1.175   3.386   8.874
 2172SOL     OW 6847   0.321   2.805   7.690
 2172SOL    HW1 6848   0.403   2.844   7.648
 2172SOL    HW2 6849   0.294   2.723   7.641
 2173SOL     OW 6850   1.458   2.597   8.176
 2173SOL    HW1 6851   1.453   2.532   8.251
 2173SOL    HW2 6852   1.538   2.656   8.189
 2174SOL     OW 6853   0.461   3.128   9.175
 2174SOL    HW1 6854   0.411   3.129   9.089
 2174SOL    HW2 6855   0.398   3.110   9.251
 2175SOL     OW 6856   1.111   3.638   7.685
 2175SOL    HW1 6857   1.051   3.576   7.735
 2175SOL    HW2 6858   1.142   3.594   7.600
 2176SOL     OW 6859   0.202   2.147   8.946
 2176SOL    HW1 6860   0.122   2.207   8.933
 2176SOL    HW2 6861   0.192   2.098   9.032
 2177SOL     OW 6862   1.632   3.239   7.529
 2177SOL    HW1 6863   1.600   3.333   7.519
 2177SOL    HW2 6864   1.556   3.176   7.517
 2178SOL     OW 6865   0.464   3.605   7.771
 2178SOL    HW1 6866   0.497   3.644   7.857
 2178SOL    HW2 6867   0.540   3.598   7.706
 2179SOL     OW 6868   1.400   1.969   7.874
 2179SOL    HW1 6869   1.376   1.932   7.784
 2179SOL    HW2 6870   1.499   1.985   7.878
 2180SOL     OW 6871   0.249   3.647   8.689
 2180SOL    HW1 6872   0.306   3.582   8.739
 2180SOL    HW2 6873   0.233   3.614   8.596
 2181SOL     OW 6874   0.940   3.560   8.352
 2181SOL    HW1 6875   1.020   3.503   8.373
 2181SOL    HW2 6876   0.891   3.520   8.275
 2182SOL     OW 6877   0.382   2.562   7.928
 2182SOL    HW1 6878   0.427   2.472   7.925
 2182SOL    HW2 6879   0.288   2.551   7.961
 2183SOL     OW 6880   1.547   2.084   9.177
 2183SOL    HW1 6881   1.542   2.121   9.269
 2183SOL    HW2 6882   1.475   2.015   9.165
 2184SOL     OW 6883   0.614   1.984   7.565
 2184SOL    HW1 6884   0.712   1.962   7.572
 2184SOL    HW2 6885   0.583   1.967   7.472
 2185SOL     OW 6886   0.781   2.126   9.197
 2185SOL    HW1 6887   0.848   2.065   9.240
 2185SOL    HW2 6888   0.708   2.145   9.262
 2186SOL     OW 6889   0.888   3.376   8.643
 2186SOL    HW1 6890   0.865   3.351   8.549
 2186SOL    HW2 6891   0.949   3.307   8.682
 2187SOL     OW 6892   1.351   2.452   8.881
 2187SOL    HW1 6893   1.379   2.409   8.966
 2187SOL    HW2 6894   1.376   2.548   8.882
 2188SOL     OW 6895   0.803   3.264   8.372
 2188SOL    HW1 6896   0.893   3.278   8.330
 2188SOL    HW2 6897   0.732   3.266   8.301
 2189SOL     OW 6898   0.922   2.365   8.347
 2189SOL    HW1 6899   0.897   2.356   8.251
 2189SOL    HW2 6900   0.970   2.283   8.378
 2190SOL     OW 6901   0.539   1.926   7.960
 2190SOL    HW1 6902   0.458   1.927   8.018
 2190SOL    HW2 6903   0.542   2.009   7.905
 2191SOL     OW 6904   1.434   3.050   7.489
 2191SOL    HW1 6905   1.466   2.974   7.546
 2191SOL    HW2 6906   1.342   3.077   7.519
 2192SOL     OW 6907   0.297   1.897   7.619
 2192SOL    HW1 6908   0.346   1.981   7.598
 2192SOL    HW2 6909   0.359   1.832   7.664
 2193SOL     OW 6910   0.935   2.098   7.928
 2193SOL    HW1 6911   0.887   2.139   7.850
 2193SOL    HW2 6912   1.034   2.096   7.909
 2194SOL     OW 6913   1.076   2.545   8.912
 2194SOL    HW1 6914   0.996   2.484   8.915
 2194SOL    HW2 6915   1.157   2.492   8.888
 2195SOL     OW 6916   1.227   3.432   8.241
 2195SOL    HW1 6917   1.248   3.506   8.176
 2195SOL    HW2 6918   1.295   3.432   8.314
 2196SOL     OW 6919   0.459   3.014   8.189
 2196SOL    HW1 6920   0.388   2.987   8.254
 2196SOL    HW2 6921   0.433   2.986   8.096
 2197SOL     OW 6922   1.271   3.659   8.039
 2197SOL    HW1 6923   1.315   3.723   7.975
 2197SOL    HW2 6924   1.221   3.711   8.109
 2198SOL     OW 6925   1.032   2.411   7.464
 2198SOL    HW1 6926   0.991   2.493   7.425
 2198SOL    HW2 6927   1.096   2.437   7.537
 2199SOL     OW 6928   0.078   2.418   8.834
 2199SOL    HW1 6929   0.170   2.417   8.793
 2199SOL    HW2 6930   0.072   2.492   8.901
 2200SOL     OW 6931   0.561   2.084   8.595
 2200SOL    HW1 6932   0.599   2.000   8.632
 2200SOL    HW2 6933   0.473   2.103   8.639
 2201SOL     OW 6934   0.866   2.316   8.090
 2201SOL    HW1 6935   0.834   2.388   8.028
 2201SOL    HW2 6936   0.890   2.235   8.037
 2202SOL     OW 6937   1.017   1.901   8.201
 2202SOL    HW1 6938   0.945   1.906   8.132
 2202SOL    HW2 6939   0.993   1.832   8.270
 2203SOL     OW 6940   1.429   3.035   8.315
 2203SOL    HW1 6941   1.374   2.951   8.308
 2203SOL    HW2 6942   1.455   3.064   8.223
 2204SOL     OW 6943   1.466   2.452   8.440
 2204SOL    HW1 6944   1.436   2.357   8.447
 2204SOL    HW2 6945   1.539   2.468   8.506
 2205SOL     OW 6946   1.857   2.695   7.825
 2205SOL    HW1 6947   1.899   2.631   7.889
 2205SOL    HW2 6948   1.819   2.644   7.747
 2206SOL     OW 6949   0.488   3.247   7.622
 2206SOL    HW1 6950   0.401   3.232   7.669
 2206SOL    HW2 6951   0.471   3.273   7.527
 2207SOL     OW 6952   1.664   3.142   8.105
 2207SOL    HW1 6953   1.763   3.150   8.119
 2207SOL    HW2 6954   1.619   3.226   8.136
 2208SOL     OW 6955   1.390   2.437   7.526
 2208SOL    HW1 6956   1.336   2.416   7.607
 2208SOL    HW2 6957   1.481   2.396   7.535
 2209SOL     OW 6958   0.527   2.118   7.776
 2209SOL    HW1 6959   0.554   2.059   7.701
 2209SOL    HW2 6960   0.527   2.213   7.745
 2210SOL     OW 6961   1.754   3.085   9.036
 2210SOL    HW1 6962   1.845   3.046   9.023
 2210SOL    HW2 6963   1.762   3.181   9.060
 2211SOL     OW 6964   1.064   3.209   8.788
 2211SOL    HW1 6965   0.984   3.186   8.843
 2211SOL    HW2 6966   1.147   3.183   8.837
 2212SOL     OW 6967   1.592   3.491   9.073
 2212SOL    HW1 6968   1.619   3.525   8.983
 2212SOL    HW2 6969   1.671   3.453   9.119
 2213SOL     OW 6970   1.111   3.057   8.548
 2213SOL    HW1 6971   1.071   3.101   8.629
 2213SOL    HW2 6972   1.070   3.094   8.465
 2214SOL     OW 6973   1.638   2.961   8.527
 2214SOL    HW1 6974   1.643   3.042   8.586
 2214SOL    HW2 6975   1.552   2.963   8.476
 2215SOL     OW 6976   0.915   1.951   8.850
 2215SOL    HW1 6977   0.940   1.931   8.755
 2215SOL    HW2 6978   0.987   2.007   8.892
 2216SOL     OW 6979   0.980   2.978   9.167
 2216SOL    HW1 6980   0.881   2.984   9.177
 2216SOL    HW2 6981   1.003   2.898   9.111
 2217SOL     OW 6982   0.705   2.912   7.816
 2217SOL    HW1 6983   0.691   2.919   7.915
 2217SOL    HW2 6984   0.789   2.861   7.798
 2218SOL     OW 6985   0.410   2.675   8.699
 2218SOL    HW1 6986   0.496   2.687   8.749
 2218SOL    HW2 6987   0.368   2.588   8.726
 2219SOL     OW 6988   1.274   2.248   8.710
 2219SOL    HW1 6989   1.295   2.322   8.774
 2219SOL    HW2 6990   1.185   2.265   8.667
 2220SOL     OW 6991   0.064   3.426   8.779
 2220SOL    HW1 6992   0.018   3.508   8.745
 2220SOL    HW2 6993   0.162   3.445   8.788
 2221SOL     OW 6994   0.367   2.962   7.949
 2221SOL    HW1 6995   0.360   3.045   7.893
 2221SOL    HW2 6996   0.371   2.882   7.889
 2222SOL     OW 6997   0.566   2.399   8.313
 2222SOL    HW1 6998   0.578   2.465   8.239
 2222SOL    HW2 6999   0.612   2.433   8.396
 2223SOL     OW 7000   1.252   3.210   7.836
 2223SOL    HW1 7001   1.302   3.287   7.876
 2223SOL    HW2 7002   1.157   3.212   7.868
 2224SOL     OW 7003   1.272   3.307   8.590
 2224SOL    HW1 7004   1.319   3.320   8.677
 2224SOL    HW2 7005   1.206   3.233   8.599
 2225SOL     OW 7006   1.582   2.501   7.920
 2225SOL    HW1 7007   1.551   2.562   7.993
 2225SOL    HW2 7008   1.632   2.553   7.851
 2226SOL     OW 7009   0.354   3.372   8.777
 2226SOL    HW1 7010   0.333   3.328   8.690
 2226SOL    HW2 7011   0.451   3.398   8.780
 2227SOL     OW 7012   0.402   2.613   9.046
 2227SOL    HW1 7013   0.470   2.668   8.999
 2227SOL    HW2 7014   0.442   2.525   9.073
 2228SOL     OW 7015   1.587   2.641   9.118
 2228SOL    HW1 7016   1.495   2.679   9.113
 2228SOL    HW2 7017   1.647   2.688   9.053
 2229SOL     OW 7018   1.013   1.967   9.218
 2229SOL    HW1 7019   1.019   2.052   9.166
 2229SOL    HW2 7020   1.045   1.891   9.161
 2230SOL     OW 7021   0.504   1.912   9.188
 2230SOL    HW1 7022   0.462   1.855   9.118
 2230SOL    HW2 7023   0.438   1.981   9.220
 2231SOL     OW 7024   0.573   2.732   8.477
 2231SOL    HW1 7025   0.617   2.821   8.468
 2231SOL    HW2 7026   0.510   2.732   8.554
 2232SOL     OW 7027   1.360   2.724   8.493
 2232SOL    HW1 7028   1.285   2.724   8.427
 2232SOL    HW2 7029   1.397   2.632   8.502
 2233SOL     OW 7030   1.209   2.387   7.723
 2233SOL    HW1 7031   1.222   2.303   7.777
 2233SOL    HW2 7032   1.180   2.461   7.783
 2234SOL     OW 7033   0.307   2.075   8.679
 2234SOL    HW1 7034   0.284   2.112   8.769
 2234SOL    HW2 7035   0.277   1.980   8.673
 2235SOL     OW 7036   0.037   3.172   8.730
 2235SOL    HW1 7037   0.090   3.123   8.798
 2235SOL    HW2 7038   0.059   3.270   8.735
 2236SOL     OW 7039   0.732   2.496   8.512
 2236SOL    HW1 7040   0.791   2.470   8.436
 2236SOL    HW2 7041   0.704   2.592   8.501
 2237SOL     OW 7042   1.728   2.797   9.302
 2237SOL    HW1 7043   1.682   2.790   9.213
 2237SOL    HW2 7044   1.666   2.841   9.368
 2238SOL     OW 7045   0.307   1.925   8.066
 2238SOL    HW1 7046   0.296   2.019   8.099
 2238SOL    HW2 7047   0.302   1.862   8.143
 2239SOL     OW 7048   1.622   2.229   7.822
 2239SOL    HW1 7049   1.624   2.153   7.886
 2239SOL    HW2 7050   1.574   2.306   7.862
 2240SOL     OW 7051   1.023   2.628   8.414
 2240SOL    HW1 7052   1.038   2.649   8.510
 2240SOL    HW2 7053   0.993   2.533   8.405
 2241SOL     OW 7054   0.980   3.435   9.148
 2241SOL    HW1 7055   0.960   3.479   9.060
 2241SOL    HW2 7056   1.019   3.344   9.132
 2242SOL     OW 7057   1.859   3.380   9.053
 2242SOL    HW1 7058   1.873   3.407   8.958
 2242SOL    HW2 7059   1.942   3.402   9.106
 2243SOL     OW 7060   0.350   2.760   9.252
 2243SOL    HW1 7061   0.426   2.804   9.300
 2243SOL    HW2 7062   0.385   2.713   9.170
 2244SOL     OW 7063   1.540   2.136   7.573
 2244SOL    HW1 7064   1.479   2.061   7.596
 2244SOL    HW2 7065   1.562   2.188   7.656
 2245SOL     OW 7066   1.303   2.700   7.490
 2245SOL    HW1 7067   1.337   2.607   7.505
 2245SOL    HW2 7068   1.321   2.727   7.395
 2246SOL     OW 7069   1.068   3.195   8.297
 2246SOL    HW1 7070   1.075   3.111   8.242
 2246SOL    HW2 7071   1.130   3.264   8.261
 2247SOL     OW 7072   0.319   2.672   8.397
 2247SOL    HW1 7073   0.412   2.708   8.402
 2247SOL    HW2 7074   0.313   2.587   8.449
 2248SOL     OW 7075   0.339   2.371   8.454
 2248SOL    HW1 7076   0.287   2.288   8.437
 2248SOL    HW2 7077   0.416   2.376   8.390
 2249SOL     OW 7078   1.138   2.242   9.126
 2249SOL    HW1 7079   1.093   2.305   9.190
 2249SOL    HW2 7080   1.231   2.273   9.109
 2250SOL     OW 7081   1.160   2.069   8.925
 2250SOL    HW1 7082   1.160   2.133   9.002
 2250SOL    HW2 7083   1.188   2.117   8.842
 2251SOL     OW 7084   0.008   3.188   7.648
 2251SOL    HW1 7085  -0.085   3.209   7.617
 2251SOL    HW2 7086   0.018   3.089   7.661
 2252SOL     OW 7087   0.088   3.663   8.375
 2252SOL    HW1 7088   0.046   3.577   8.348
 2252SOL    HW2 7089   0.182   3.666   8.341
 2253SOL     OW 7090   0.504   3.430   8.358
 2253SOL    HW1 7091   0.570   3.504   8.367
 2253SOL    HW2 7092   0.548   3.351   8.316
 2254SOL     OW 7093   1.002   2.658   8.686
 2254SOL    HW1 7094   1.043   2.626   8.772
 2254SOL    HW2 7095   0.906   2.631   8.683
 2255SOL     OW 7096   0.040   2.406   8.562
 2255SOL    HW1 7097   0.125   2.373   8.521
 2255SOL    HW2 7098   0.053   2.421   8.660
 2256SOL     OW 7099   0.189   2.382   9.170
 2256SOL    HW1 7100   0.248   2.342   9.100
 2256SOL    HW2 7101   0.131   2.453   9.129
 2257SOL     OW 7102   1.369   2.812   9.108
 2257SOL    HW1 7103   1.408   2.901   9.128
 2257SOL    HW2 7104   1.379   2.792   9.011
 2258SOL     OW 7105   0.815   2.434   7.773
 2258SOL    HW1 7106   0.822   2.345   7.727
 2258SOL    HW2 7107   0.721   2.468   7.765
 2259SOL     OW 7108   1.657   2.466   8.654
 2259SOL    HW1 7109   1.619   2.397   8.716
 2259SOL    HW2 7110   1.739   2.430   8.610
 2260SOL     OW 7111   0.252   3.426   9.192
 2260SOL    HW1 7112   0.222   3.483   9.268
 2260SOL    HW2 7113   0.245   3.329   9.218
 2261SOL     OW 7114   0.671   2.326   8.717
 2261SOL    HW1 7115   0.637   2.237   8.687
 2261SOL    HW2 7116   0.697   2.380   8.637
 2262SOL     OW 7117   0.930   3.540   8.913
 2262SOL    HW1 7118   0.906   3.522   8.818
 2262SOL    HW2 7119   0.960   3.634   8.923
 2263SOL     OW 7120   0.473   2.362   7.639
 2263SOL    HW1 7121   0.534   2.442   7.643
 2263SOL    HW2 7122   0.378   2.393   7.646
 2264SOL     OW 7123   0.159   2.999   8.914
 2264SOL    HW1 7124   0.181   2.938   8.990
 2264SOL    HW2 7125   0.169   2.950   8.828
 2265SOL     OW 7126   1.347   2.921   8.682
 2265SOL    HW1 7127   1.371   2.858   8.608
 2265SOL    HW2 7128   1.257   2.961   8.664
 2266SOL     OW 7129   1.302   2.717   7.757
 2266SOL    HW1 7130   1.216   2.686   7.799
 2266SOL    HW2 7131   1.298   2.703   7.658
 2267SOL     OW 7132   1.759   3.609   8.602
 2267SOL    HW1 7133   1.820   3.639   8.529
 2267SOL    HW2 7134   1.721   3.520   8.580
 2268SOL     OW 7135   1.252   3.593   8.576
 2268SOL    HW1 7136   1.336   3.598   8.522
 2268SOL    HW2 7137   1.229   3.497   8.594
 2269SOL     OW 7138   0.083   3.120   8.470
 2269SOL    HW1 7139   0.078   3.119   8.570
 2269SOL    HW2 7140   0.000   3.079   8.432
 2270SOL     OW 7141   0.688   3.524   9.164
 2270SOL    HW1 7142   0.632   3.605   9.173
 2270SOL    HW2 7143   0.740   3.528   9.078
 2271SOL     OW 7144   1.726   1.997   7.971
 2271SOL    HW1 7145   1.799   1.980   7.904
 2271SOL    HW2 7146   1.695   1.910   8.009
 2272SOL     OW 7147   1.388   3.435   7.925
 2272SOL    HW1 7148   1.455   3.447   7.851
 2272SOL    HW2 7149   1.348   3.524   7.948
 2273SOL     OW 7150   0.130   3.656   9.299
 2273SOL    HW1 7151   0.089   3.582   9.352
 2273SOL    HW2 7152   0.194   3.707   9.357
 2274SOL     OW 7153   1.280   2.789   8.120
 2274SOL    HW1 7154   1.340   2.708   8.122
 2274SOL    HW2 7155   1.320   2.858   8.060
 2275SOL     OW 7156   0.830   3.135   8.870
 2275SOL    HW1 7157   0.825   3.168   8.965
 2275SOL    HW2 7158   0.744   3.154   8.824
 2276SOL     OW 7159   0.672   3.478   7.602
 2276SOL    HW1 7160   0.681   3.488   7.503
 2276SOL    HW2 7161   0.632   3.389   7.623
 2277SOL     OW 7162   1.650   3.582   8.842
 2277SOL    HW1 7163   1.703   3.592   8.758
 2277SOL    HW2 7164   1.623   3.672   8.876
 2278SOL     OW 7165   1.841   2.037   8.411
 2278SOL    HW1 7166   1.880   1.952   8.375
 2278SOL    HW2 7167   1.743   2.039   8.392
 2279SOL     OW 7168   0.263   2.188   8.168
 2279SOL    HW1 7169   0.184   2.239   8.134
 2279SOL    HW2 7170   0.254   2.173   8.266
 2280SOL     OW 7171   1.194   3.474   7.479
 2280SOL    HW1 7172   1.200   3.381   7.516
 2280SOL    HW2 7173   1.135   3.474   7.399
 2281SOL     OW 7174   0.822   2.864   8.820
 2281SOL    HW1 7175   0.862   2.863   8.728
 2281SOL    HW2 7176   0.832   2.956   8.860
 2282SOL     OW 7177   0.916   2.772   7.739
 2282SOL    HW1 7178   0.979   2.810   7.671
 2282SOL    HW2 7179   0.956   2.689   7.778
 2283SOL     OW 7180   1.504   3.469   7.492
 2283SOL    HW1 7181   1.412   3.506   7.499
 2283SOL    HW2 7182   1.542   3.489   7.402
 2284SOL     OW 7183   0.372   3.150   8.938
 2284SOL    HW1 7184   0.359   3.243   8.904
 2284SOL    HW2 7185   0.288   3.098   8.925
 2285SOL     OW 7186   1.614   3.154   8.737
 2285SOL    HW1 7187   1.674   3.157   8.817
 2285SOL    HW2 7188   1.539   3.218   8.750
 2286SOL     OW 7189   1.039   2.960   8.144
 2286SOL    HW1 7190   0.969   2.913   8.198
 2286SOL    HW2 7191   1.098   2.892   8.101
 2287SOL     OW 7192   1.014   2.098   8.419
 2287SOL    HW1 7193   1.006   2.062   8.326
 2287SOL    HW2 7194   1.012   2.022   8.484
 2288SOL     OW 7195   0.590   3.349   7.939
 2288SOL    HW1 7196   0.632   3.291   7.869
 2288SOL    HW2 7197   0.546   3.428   7.895
 2289SOL     OW 7198   1.709   2.247   8.829
 2289SOL    HW1 7199   1.782   2.316   8.833
 2289SOL    HW2 7200   1.737   2.172   8.770
 2290SOL     OW 7201   0.255   3.210   7.738
 2290SOL    HW1 7202   0.159   3.211   7.711
 2290SOL    HW2 7203   0.267   3.263   7.822
 2291SOL     OW 7204   0.105   2.875   9.174
 2291SOL    HW1 7205   0.028   2.842   9.228
 2291SOL    HW2 7206   0.190   2.845   9.216
 2292SOL     OW 7207   0.672   2.065   8.937
 2292SOL    HW1 7208   0.762   2.049   8.897
 2292SOL    HW2 7209   0.680   2.070   9.036
 2293SOL     OW 7210   0.075   2.207   7.481
 2293SOL    HW1 7211  -0.017   2.179   7.452
 2293SOL    HW2 7212   0.106   2.284   7.425
 2294SOL     OW 7213   1.440   2.718   8.846
 2294SOL    HW1 7214   1.383   2.770   8.783
 2294SOL    HW2 7215   1.536   2.730   8.822
 2295SOL     OW 7216   0.072   2.028   7.766
 2295SOL    HW1 7217   0.055   2.111   7.712
 2295SOL    HW2 7218   0.162   1.991   7.744
 2296SOL     OW 7219   1.183   3.197   7.567
 2296SOL    HW1 7220   1.084   3.186   7.569
 2296SOL    HW2 7221   1.217   3.212   7.660
 2297SOL     OW 7222   0.613   2.704   8.879
 2297SOL    HW1 7223   0.669   2.785   8.862
 2297SOL    HW2 7224   0.672   2.624   8.882
 2298SOL     OW 7225   1.493   3.629   8.407
 2298SOL    HW1 7226   1.526   3.693   8.338
 2298SOL    HW2 7227   1.559   3.623   8.482
 2299SOL     OW 7228   0.716   2.427   9.156
 2299SOL    HW1 7229   0.735   2.492   9.230
 2299SOL    HW2 7230   0.776   2.347   9.165
 2300SOL     OW 7231   1.450   3.082   9.081
 2300SOL    HW1 7232   1.441   3.072   9.180
 2300SOL    HW2 7233   1.546   3.075   9.055
 2301SOL     OW 7234   0.390   3.603   9.008
 2301SOL    HW1 7235   0.299   3.644   9.006
 2301SOL    HW2 7236   0.383   3.509   9.040
 2302SOL     OW 7237   1.674   2.745   8.702
 2302SOL    HW1 7238   1.647   2.656   8.665
 2302SOL    HW2 7239   1.675   2.813   8.629
 2303SOL     OW 7240   1.225   2.187   7.897
 2303SOL    HW1 7241   1.290   2.113   7.886
 2303SOL    HW2 7242   1.245   2.237   7.981
 2304SOL     OW 7243   0.594   2.607   8.100
 2304SOL    HW1 7244   0.644   2.692   8.081
 2304SOL    HW2 7245   0.506   2.609   8.052
 2305SOL     OW 7246   1.777   2.204   9.090
 2305SOL    HW1 7247   1.760   2.235   8.996
 2305SOL    HW2 7248   1.693   2.167   9.128
 2306SOL     OW 7249   1.730   2.796   8.965
 2306SOL    HW1 7250   1.768   2.887   8.980
 2306SOL    HW2 7251   1.722   2.779   8.866
 2307SOL     OW 7252   0.859   3.236   7.464
 2307SOL    HW1 7253   0.813   3.251   7.552
 2307SOL    HW2 7254   0.903   3.321   7.434
 2308SOL     OW 7255   0.661   3.652   8.401
 2308SOL    HW1 7256   0.615   3.740   8.388
 2308SOL    HW2 7257   0.760   3.664   8.394
 2309SOL     OW 7258   0.859   2.818   8.309
 2309SOL    HW1 7259   0.913   2.749   8.357
 2309SOL    HW2 7260   0.827   2.887   8.375
 2310SOL     OW 7261   1.083   2.846   7.535
 2310SOL    HW1 7262   1.060   2.899   7.453
 2310SOL    HW2 7263   1.164   2.790   7.516
 2311SOL     OW 7264   1.861   3.431   8.299
 2311SOL    HW1 7265   1.790   3.419   8.229
 2311SOL    HW2 7266   1.862   3.352   8.359
 2312SOL     OW 7267   0.221   3.176   9.292
 2312SOL    HW1 7268   0.156   3.103   9.271
 2312SOL    HW2 7269   0.225   3.190   9.390
 2313SOL     OW 7270   0.079   3.102   8.101
 2313SOL    HW1 7271   0.078   3.055   8.189
 2313SOL    HW2 7272   0.161   3.074   8.050
 2314SOL     OW 7273   0.672   3.253   9.072
 2314SOL    HW1 7274   0.594   3.203   9.110
 2314SOL    HW2 7275   0.669   3.348   9.103
 2315SOL     OW 7276   1.824   2.054   8.675
 2315SOL    HW1 7277   1.820   1.964   8.719
 2315SOL    HW2 7278   1.827   2.043   8.576
 2316SOL     OW 7279   0.428   2.286   7.968
 2316SOL    HW1 7280   0.458   2.214   7.906
 2316SOL    HW2 7281   0.389   2.246   8.051
 2317SOL     OW 7282   1.705   3.349   8.552
 2317SOL    HW1 7283   1.612   3.324   8.525
 2317SOL    HW2 7284   1.731   3.299   8.634
 2318SOL     OW 7285   0.317   2.409   8.728
 2318SOL    HW1 7286   0.355   2.350   8.800
 2318SOL    HW2 7287   0.357   2.383   8.640
 2319SOL     OW 7288   0.812   3.448   8.135
 2319SOL    HW1 7289   0.844   3.458   8.041
 2319SOL    HW2 7290   0.733   3.386   8.137
 2320SOL     OW 7291   1.424   2.076   8.560
 2320SOL    HW1 7292   1.476   2.011   8.615
 2320SOL    HW2 7293   1.375   2.139   8.621
 2321SOL     OW 7294   1.001   1.896   8.602
 2321SOL    HW1 7295   0.938   1.824   8.571
 2321SOL    HW2 7296   1.094   1.860   8.602
 2322SOL     OW 7297   0.770   3.192   7.749
 2322SOL    HW1 7298   0.724   3.105   7.766
 2322SOL    HW2 7299   0.861   3.189   7.790
 2323SOL     OW 7300   0.618   3.429   8.732
 2323SOL    HW1 7301   0.613   3.511   8.789
 2323SOL    HW2 7302   0.707   3.426   8.687
 2324SOL     OW 7303   1.352   1.914   7.616
 2324SOL    HW1 7304   1.387   1.873   7.532
 2324SOL    HW2 7305   1.262   1.876   7.636
 2325SOL     OW 7306   1.300   2.315   8.139
 2325SOL    HW1 7307   1.241   2.395   8.143
 2325SOL    HW2 7308   1.315   2.280   8.232
 2326SOL     OW 7309   1.593   2.083   8.330
 2326SOL    HW1 7310   1.509   2.082   8.384
 2326SOL    HW2 7311   1.595   2.166   8.274
 2327SOL     OW 7312   0.039   2.939   7.748
 2327SOL    HW1 7313   0.138   2.928   7.739
 2327SOL    HW2 7314  -0.001   2.853   7.780
 2328SOL     OW 7315   0.875   3.508   7.785
 2328SOL    HW1 7316   0.798   3.473   7.731
 2328SOL    HW2 7317   0.843   3.579   7.847
 2329SOL     OW 7318   0.230   2.490   9.423
 2329SOL    HW1 7319   0.137   2.488   9.460
 2329SOL    HW2 7320   0.231   2.451   9.331
 2330SOL     OW 7321   0.225   2.137  10.306
 2330SOL    HW1 7322   0.260   2.120  10.398
 2330SOL    HW2 7323   0.137   2.092  10.294
 2331SOL     OW 7324   0.019   2.230   9.957
 2331SOL    HW1 7325  -0.063   2.273   9.996
 2331SOL    HW2 7326  -0.009   2.157   9.894
 2332SOL     OW 7327   0.569   3.137  10.475
 2332SOL    HW1 7328   0.476   3.130  10.438
 2332SOL    HW2 7329   0.580   3.226  10.519
 2333SOL     OW 7330   1.555   3.373  10.013
 2333SOL    HW1 7331   1.498   3.357  10.094
 2333SOL    HW2 7332   1.496   3.383   9.933
 2334SOL     OW 7333   1.135   2.565  10.027
 2334SOL    HW1 7334   1.192   2.643  10.002
 2334SOL    HW2 7335   1.075   2.591  10.103
 2335SOL     OW 7336   1.755   2.469   9.541
 2335SOL    HW1 7337   1.743   2.456   9.442
 2335SOL    HW2 7338   1.725   2.388   9.590
 2336SOL     OW 7339   0.768   3.006  10.333
 2336SOL    HW1 7340   0.690   3.023  10.393
 2336SOL    HW2 7341   0.802   3.093  10.297
 2337SOL     OW 7342   0.850   2.660  11.133
 2337SOL    HW1 7343   0.846   2.736  11.198
 2337SOL    HW2 7344   0.872   2.696  11.042
 2338SOL     OW 7345   0.685   2.874   9.975
 2338SOL    HW1 7346   0.754   2.858  10.045
 2338SOL    HW2 7347   0.612   2.931  10.013
 2339SOL     OW 7348   0.686   3.023  11.113
 2339SOL    HW1 7349   0.746   3.102  11.127
 2339SOL    HW2 7350   0.600   3.054  11.072
 2340SOL     OW 7351   0.335   3.297  10.371
 2340SOL    HW1 7352   0.257   3.266  10.318
 2340SOL    HW2 7353   0.393   3.355  10.314
 2341SOL     OW 7354   1.460   3.367  10.649
 2341SOL    HW1 7355   1.484   3.461  10.675
 2341SOL    HW2 7356   1.444   3.313  10.731
 2342SOL     OW 7357   0.438   2.254  10.809
 2342SOL    HW1 7358   0.520   2.198  10.818
 2342SOL    HW2 7359   0.357   2.196  10.813
 2343SOL     OW 7360   1.603   2.309  10.047
 2343SOL    HW1 7361   1.529   2.355   9.997
 2343SOL    HW2 7362   1.654   2.377  10.100
 2344SOL     OW 7363   0.231   3.575   9.793
 2344SOL    HW1 7364   0.265   3.652   9.847
 2344SOL    HW2 7365   0.275   3.575   9.703
 2345SOL     OW 7366   1.127   3.203  11.000
 2345SOL    HW1 7367   1.174   3.203  11.088
 2345SOL    HW2 7368   1.079   3.116  10.989
 2346SOL     OW 7369   0.230   3.296   9.848
 2346SOL    HW1 7370   0.204   3.392   9.848
 2346SOL    HW2 7371   0.159   3.242   9.893
 2347SOL     OW 7372   0.240   2.953  10.196
 2347SOL    HW1 7373   0.254   2.869  10.248
 2347SOL    HW2 7374   0.185   3.017  10.251
 2348SOL     OW 7375   0.620   3.648  10.749
 2348SOL    HW1 7376   0.528   3.631  10.784
 2348SOL    HW2 7377   0.648   3.740  10.775
 2349SOL     OW 7378   0.606   2.826   9.433
 2349SOL    HW1 7379   0.613   2.910   9.379
 2349SOL    HW2 7380   0.652   2.839   9.521
 2350SOL     OW 7381   1.594   1.976  10.790
 2350SOL    HW1 7382   1.576   2.043  10.718
 2350SOL    HW2 7383   1.591   2.022  10.879
 2351SOL     OW 7384   0.122   2.505   9.873
 2351SOL    HW1 7385   0.077   2.417   9.890
 2351SOL    HW2 7386   0.121   2.559   9.957
 2352SOL     OW 7387   1.842   3.629   9.669
 2352SOL    HW1 7388   1.896   3.600   9.749
 2352SOL    HW2 7389   1.872   3.719   9.640
 2353SOL     OW 7390   0.027   3.458   9.427
 2353SOL    HW1 7391   0.008   3.362   9.448
 2353SOL    HW2 7392  -0.006   3.516   9.502
 2354SOL     OW 7393   1.689   2.784   9.922
 2354SOL    HW1 7394   1.784   2.755   9.930
 2354SOL    HW2 7395   1.681   2.849   9.847
 2355SOL     OW 7396   1.641   2.970   9.742
 2355SOL    HW1 7397   1.727   2.972   9.690
 2355SOL    HW2 7398   1.655   3.017   9.830
 2356SOL     OW 7399   0.113   2.599  10.907
 2356SOL    HW1 7400   0.201   2.586  10.952
 2356SOL    HW2 7401   0.100   2.696  10.885
 2357SOL     OW 7402   0.613   3.227  10.036
 2357SOL    HW1 7403   0.564   3.140  10.045
 2357SOL    HW2 7404   0.590   3.270   9.949
 2358SOL     OW 7405   1.293   3.090  10.733
 2358SOL    HW1 7406   1.330   3.017  10.675
 2358SOL    HW2 7407   1.345   3.095  10.818
 2359SOL     OW 7408   0.809   1.866   9.812
 2359SOL    HW1 7409   0.849   1.957   9.803
 2359SOL    HW2 7410   0.709   1.874   9.818
 2360SOL     OW 7411   0.197   2.838  10.574
 2360SOL    HW1 7412   0.286   2.793  10.560
 2360SOL    HW2 7413   0.124   2.773  10.555
 2361SOL     OW 7414   1.525   2.861   9.500
 2361SOL    HW1 7415   1.462   2.785   9.513
 2361SOL    HW2 7416   1.573   2.879   9.586
 2362SOL     OW 7417   1.187   3.654  10.926
 2362SOL    HW1 7418   1.211   3.714  10.850
 2362SOL    HW2 7419   1.194   3.559  10.896
 2363SOL     OW 7420   0.317   2.113  11.111
 2363SOL    HW1 7421   0.388   2.184  11.117
 2363SOL    HW2 7422   0.229   2.152  11.139
 2364SOL     OW 7423   1.466   3.279  10.263
 2364SOL    HW1 7424   1.407   3.285  10.343
 2364SOL    HW2 7425   1.451   3.191  10.217
 2365SOL     OW 7426   1.667   3.576   9.882
 2365SOL    HW1 7427   1.626   3.553   9.794
 2365SOL    HW2 7428   1.649   3.502   9.947
 2366SOL     OW 7429   0.598   2.591   9.580
 2366SOL    HW1 7430   0.622   2.660   9.512
 2366SOL    HW2 7431   0.520   2.624   9.634
 2367SOL     OW 7432   1.281   2.207  10.254
 2367SOL    HW1 7433   1.195   2.157  10.241
 2367SOL    HW2 7434   1.343   2.153  10.310
 2368SOL     OW 7435   1.576   3.524   9.617
 2368SOL    HW1 7436   1.665   3.570   9.620
 2368SOL    HW2 7437   1.555   3.500   9.522
 2369SOL     OW 7438   0.807   2.467  10.775
 2369SOL    HW1 7439   0.760   2.464  10.864
 2369SOL    HW2 7440   0.756   2.412  10.709
 2370SOL     OW 7441   1.394   2.331  10.984
 2370SOL    HW1 7442   1.374   2.374  11.072
 2370SOL    HW2 7443   1.472   2.269  10.993
 2371SOL     OW 7444   0.973   2.752  10.882
 2371SOL    HW1 7445   1.019   2.668  10.853
 2371SOL    HW2 7446   0.917   2.786  10.807
 2372SOL     OW 7447   0.991   2.272  10.552
 2372SOL    HW1 7448   0.914   2.306  10.606
 2372SOL    HW2 7449   0.957   2.221  10.473
 2373SOL     OW 7450   1.041   2.563   9.739
 2373SOL    HW1 7451   1.067   2.559   9.835
 2373SOL    HW2 7452   0.956   2.512   9.725
 2374SOL     OW 7453   0.076   2.673  10.099
 2374SOL    HW1 7454   0.175   2.661  10.108
 2374SOL    HW2 7455   0.052   2.768  10.120
 2375SOL     OW 7456   0.130   3.683  10.881
 2375SOL    HW1 7457   0.120   3.668  10.980
 2375SOL    HW2 7458   0.044   3.719  10.845
 2376SOL     OW 7459   0.865   2.210   9.505
 2376SOL    HW1 7460   0.924   2.273   9.456
 2376SOL    HW2 7461   0.884   2.116   9.476
 2377SOL     OW 7462   1.719   2.447  11.141
 2377SOL    HW1 7463   1.693   2.536  11.105
 2377SOL    HW2 7464   1.717   2.379  11.068
 2378SOL     OW 7465   1.362   3.006   9.855
 2378SOL    HW1 7466   1.445   2.977   9.807
 2378SOL    HW2 7467   1.313   3.073   9.799
 2379SOL     OW 7468   0.550   2.058  10.195
 2379SOL    HW1 7469   0.545   2.053  10.295
 2379SOL    HW2 7470   0.552   2.154  10.166
 2380SOL     OW 7471   1.008   3.318   9.787
 2380SOL    HW1 7472   0.962   3.390   9.735
 2380SOL    HW2 7473   1.004   3.338   9.885
 2381SOL     OW 7474   0.351   3.663  10.163
 2381SOL    HW1 7475   0.401   3.577  10.169
 2381SOL    HW2 7476   0.416   3.740  10.160
 2382SOL     OW 7477   1.795   2.928  10.183
 2382SOL    HW1 7478   1.733   2.913  10.107
 2382SOL    HW2 7479   1.743   2.939  10.268
 2383SOL     OW 7480   1.227   3.412  10.816
 2383SOL    HW1 7481   1.233   3.335  10.880
 2383SOL    HW2 7482   1.175   3.386  10.736
 2384SOL     OW 7483   0.321   2.805   9.552
 2384SOL    HW1 7484   0.403   2.844   9.510
 2384SOL    HW2 7485   0.294   2.723   9.503
 2385SOL     OW 7486   1.458   2.597  10.038
 2385SOL    HW1 7487   1.453   2.532  10.113
 2385SOL    HW2 7488   1.538   2.656  10.051
 2386SOL     OW 7489   0.461   3.128  11.037
 2386SOL    HW1 7490   0.411   3.129  10.951
 2386SOL    HW2 7491   0.398   3.110  11.113
 2387SOL     OW 7492   1.111   3.638   9.547
 2387SOL    HW1 7493   1.051   3.576   9.597
 2387SOL    HW2 7494   1.142   3.594   9.462
 2388SOL     OW 7495   0.202   2.147  10.808
 2388SOL    HW1 7496   0.122   2.207  10.795
 2388SOL    HW2 7497   0.192   2.098  10.894
 2389SOL     OW 7498   1.632   3.239   9.391
 2389SOL    HW1 7499   1.600   3.333   9.381
 2389SOL    HW2 7500   1.556   3.176   9.379
 2390SOL     OW 7501   0.464   3.605   9.633
 2390SOL    HW1 7502   0.497   3.644   9.719
 2390SOL    HW2 7503   0.540   3.598   9.568
 2391SOL     OW 7504   1.400   1.969   9.736
 2391SOL    HW1 7505   1.376   1.932   9.646
 2391SOL    HW2 7506   1.499   1.985   9.740
 2392SOL     OW 7507   0.249   3.647  10.551
 2392SOL    HW1 7508   0.306   3.582  10.601
 2392SOL    HW2 7509   0.233   3.614  10.458
 2393SOL     OW 7510   0.940   3.560  10.214
 2393SOL    HW1 7511   1.020   3.503  10.235
 2393SOL    HW2 7512   0.891   3.520  10.137
 2394SOL     OW 7513   0.382   2.562   9.790
 2394SOL    HW1 7514   0.427   2.472   9.787
 2394SOL    HW2 7515   0.288   2.551   9.823
 2395SOL     OW 7516   1.547   2.084  11.039
 2395SOL    HW1 7517   1.542   2.121  11.131
 2395SOL    HW2 7518   1.475   2.015  11.027
 2396SOL     OW 7519   0.614   1.984   9.427
 2396SOL    HW1 7520   0.712   1.962   9.434
 2396SOL    HW2 7521   0.583   1.967   9.334
 2397SOL     OW 7522   0.781   2.126  11.059
 2397SOL    HW1 7523   0.848   2.065  11.102
 2397SOL    HW2 7524   0.708   2.145  11.124
 2398SOL     OW 7525   0.888   3.376  10.505
 2398SOL    HW1 7526   0.865   3.351  10.411
 2398SOL    HW2 7527   0.949   3.307  10.544
 2399SOL     OW 7528   1.351   2.452  10.743
 2399SOL    HW1 7529   1.379   2.409  10.828
 2399SOL    HW2 7530   1.376   2.548  10.744
 2400SOL     OW 7531   0.803   3.264  10.234
 2400SOL    HW1 7532   0.893   3.278  10.192
 2400SOL    HW2 7533   0.732   3.266  10.163
 2401SOL     OW 7534   0.922   2.365  10.209
 2401SOL    HW1 7535   0.897   2.356  10.113
 2401SOL    HW2 7536   0.970   2.283  10.240
 2402SOL     OW 7537   0.539   1.926   9.822
 2402SOL    HW1 7538   0.458   1.927   9.880
 2402SOL    HW2 7539   0.542   2.009   9.767
 2403SOL     OW 7540   1.434   3.050   9.351
 2403SOL    HW1 7541   1.466   2.974   9.408
 2403SOL    HW2 7542   1.342   3.077   9.381
 2404SOL     OW 7543   0.297   1.897   9.481
 2404SOL    HW1 7544   0.346   1.981   9.460
 2404SOL    HW2 7545   0.359   1.832   9.526
 2405SOL     OW 7546   0.935   2.098   9.790
 2405SOL    HW1 7547   0.887   2.139   9.712
 2405SOL    HW2 7548   1.034   2.096   9.771
 2406SOL     OW 7549   1.076   2.545  10.774
 2406SOL    HW1 7550   0.996   2.484  10.777
 2406SOL    HW2 7551   1.157   2.492  10.750
 2407SOL     OW 7552   1.227   3.432  10.103
 2407SOL    HW1 7553   1.248   3.506  10.038
 2407SOL    HW2 7554   1.295   3.432  10.176
 2408SOL     OW 7555   0.459   3.014  10.051
 2408SOL    HW1 7556   0.388   2.987  10.116
 2408SOL    HW2 7557   0.433   2.986   9.958
 2409SOL     OW 7558   1.271   3.659   9.901
 2409SOL    HW1 7559   1.315   3.723   9.837
 2409SOL    HW2 7560   1.221   3.711   9.971
 2410SOL     OW 7561   1.032   2.411   9.326
 2410SOL    HW1 7562   0.991   2.493   9.287
 2410SOL    HW2 7563   1.096   2.437   9.399
 2411SOL     OW 7564   0.078   2.418  10.696
 2411SOL    HW1 7565   0.170   2.417  10.655
 2411SOL    HW2 7566   0.072   2.492  10.763
 2412SOL     OW 7567   0.561   2.084  10.457
 2412SOL    HW1 7568   0.599   2.000  10.494
 2412SOL    HW2 7569   0.473   2.103  10.501
 2413SOL     OW 7570   0.866   2.316   9.952
 2413SOL    HW1 7571   0.834   2.388   9.890
 2413SOL    HW2 7572   0.890   2.235   9.899
 2414SOL     OW 7573   1.017   1.901  10.063
 2414SOL    HW1 7574   0.945   1.906   9.994
 2414SOL    HW2 7575   0.993   1.832  10.132
 2415SOL     OW 7576   1.429   3.035  10.177
 2415SOL    HW1 7577   1.374   2.951  10.170
 2415SOL    HW2 7578   1.455   3.064  10.085
 2416SOL     OW 7579   1.466   2.452  10.302
 2416SOL    HW1 7580   1.436   2.357  10.309
 2416SOL    HW2 7581   1.539   2.468  10.368
 2417SOL     OW 7582   1.857   2.695   9.687
 2417SOL    HW1 7583   1.899   2.631   9.751
 2417SOL    HW2 7584   1.819   2.644   9.609
 2418SOL     OW 7585   0.488   3.247   9.484
 2418SOL    HW1 7586   0.401   3.232   9.531
 2418SOL    HW2 7587   0.471   3.273   9.389
 2419SOL     OW 7588   1.664   3.142   9.967
 2419SOL    HW1 7589   1.763   3.150   9.981
 2419SOL    HW2 7590   1.619   3.226   9.998
 2420SOL     OW 7591   1.390   2.437   9.388
 2420SOL    HW1 7592   1.336   2.416   9.469
 2420SOL    HW2 7593   1.481   2.396   9.397
 2421SOL     OW 7594   0.527   2.118   9.638
 2421SOL    HW1 7595   0.554   2.059   9.563
 2421SOL    HW2 7596   0.527   2.213   9.607
 2422SOL     OW 7597   1.754   3.085  10.898
 2422SOL    HW1 7598   1.845   3.046  10.885
 2422SOL    HW2 7599   1.762   3.181  10.922
 2423SOL     OW 7600   1.064   3.209  10.650
 2423SOL    HW1 7601   0.984   3.186  10.705
 2423SOL    HW2 7602   1.147   3.183  10.699
 2424SOL     OW 7603   1.592   3.491  10.935
 2424SOL    HW1 7604   1.619   3.525  10.845
 2424SOL    HW2 7605   1.671   3.453  10.981
 2425SOL     OW 7606   1.111   3.057  10.410
 2425SOL    HW1 7607   1.071   3.101  10.491
 2425SOL    HW2 7608   1.070   3.094  10.327
 2426SOL     OW 7609   1.638   2.961  10.389
 2426SOL    HW1 7610   1.643   3.042  10.448
 2426SOL    HW2 7611   1.552   2.963  10.338
 2427SOL     OW 7612   0.915   1.951  10.712
 2427SOL    HW1 7613   0.940   1.931  10.617
 2427SOL    HW2 7614   0.987   2.007  10.754
 2428SOL     OW 7615   0.980   2.978  11.029
 2428SOL    HW1 7616   0.881   2.984  11.039
 2428SOL    HW2 7617   1.003   2.898  10.973
 2429SOL     OW 7618   0.705   2.912   9.678
 2429SOL    HW1 7619   0.691   2.919   9.777
 2429SOL    HW2 7620   0.789   2.861   9.660
 2430SOL     OW 7621   0.410   2.675  10.561
 2430SOL    HW1 7622   0.496   2.687  10.611
 2430SOL    HW2 7623   0.368   2.588  10.588
 2431SOL     OW 7624   1.274   2.248  10.572
 2431SOL    HW1 7625   1.295   2.322  10.636
 2431SOL    HW2 7626   1.185   2.265  10.529
 2432SOL     OW 7627   0.064   3.426  10.641
 2432SOL    HW1 7628   0.018   3.508  10.607
 2432SOL    HW2 7629   0.162   3.445  10.650
 2433SOL     OW 7630   0.367   2.962   9.811
 2433SOL    HW1 7631   0.360   3.045   9.755
 2433SOL    HW2 7632   0.371   2.882   9.751
 2434SOL     OW 7633   0.566   2.399  10.175
 2434SOL    HW1 7634   0.578   2.465  10.101
 2434SOL    HW2 7635   0.612   2.433  10.258
 2435SOL     OW 7636   1.252   3.210   9.698
 2435SOL    HW1 7637   1.302   3.287   9.738
 2435SOL    HW2 7638   1.157   3.212   9.730
 2436SOL     OW 7639   1.272   3.307  10.452
 2436SOL    HW1 7640   1.319   3.320  10.539
 2436SOL    HW2 7641   1.206   3.233  10.461
 2437SOL     OW 7642   1.582   2.501   9.782
 2437SOL    HW1 7643   1.551   2.562   9.855
 2437SOL    HW2 7644   1.632   2.553   9.713
 2438SOL     OW 7645   0.354   3.372  10.639
 2438SOL    HW1 7646   0.333   3.328  10.552
 2438SOL    HW2 7647   0.451   3.398  10.642
 2439SOL     OW 7648   0.402   2.613  10.908
 2439SOL    HW1 7649   0.470   2.668  10.861
 2439SOL    HW2 7650   0.442   2.525  10.935
 2440SOL     OW 7651   1.587   2.641  10.980
 2440SOL    HW1 7652   1.495   2.679  10.975
 2440SOL    HW2 7653   1.647   2.688  10.915
 2441SOL     OW 7654   1.013   1.967  11.080
 2441SOL    HW1 7655   1.019   2.052  11.028
 2441SOL    HW2 7656   1.045   1.891  11.023
 2442SOL     OW 7657   0.504   1.912  11.050
 2442SOL    HW1 7658   0.462   1.855  10.980
 2442SOL    HW2 7659   0.438   1.981  11.082
 2443SOL     OW 7660   0.573   2.732  10.339
 2443SOL    HW1 7661   0.617   2.821  10.330
 2443SOL    HW2 7662   0.510   2.732  10.416
 2444SOL     OW 7663   1.360   2.724  10.355
 2444SOL    HW1 7664   1.285   2.724  10.289
 2444SOL    HW2 7665   1.397   2.632  10.364
 2445SOL     OW 7666   1.209   2.387   9.585
 2445SOL    HW1 7667   1.222   2.303   9.639
 2445SOL    HW2 7668   1.180   2.461   9.645
 2446SOL     OW 7669   0.307   2.075  10.541
 2446SOL    HW1 7670   0.284   2.112  10.631
 2446SOL    HW2 7671   0.277   1.980  10.535
 2447SOL     OW 7672   0.037   3.172  10.592
 2447SOL    HW1 7673   0.090   3.123  10.660
 2447SOL    HW2 7674   0.059   3.270  10.597
 2448SOL     OW 7675   0.732   2.496  10.374
 2448SOL    HW1 7676   0.791   2.470  10.298
 2448SOL    HW2 7677   0.704   2.592  10.363
 2449SOL     OW 7678   1.728   2.797  11.164
 2449SOL    HW1 7679   1.682   2.790  11.075
 2449SOL    HW2 7680   1.666   2.841  11.230
 2450SOL     OW 7681   0.307   1.925   9.928
 2450SOL    HW1 7682   0.296   2.019   9.961
 2450SOL    HW2 7683   0.302   1.862  10.005
 2451SOL     OW 7684   1.622   2.229   9.684
 2451SOL    HW1 7685   1.624   2.153   9.748
 2451SOL    HW2 7686   1.574   2.306   9.724
 2452SOL     OW 7687   1.023   2.628  10.276
 2452SOL    HW1 7688   1.038   2.649  10.372
 2452SOL    HW2 7689   0.993   2.533  10.267
 2453SOL     OW 7690   0.980   3.435  11.010
 2453SOL    HW1 7691   0.960   3.479  10.922
 2453SOL    HW2 7692   1.019   3.344  10.994
 2454SOL     OW 7693   1.859   3.380  10.915
 2454SOL    HW1 7694   1.873   3.407  10.820
 2454SOL    HW2 7695   1.942   3.402  10.968
 2455SOL     OW 7696   0.350   2.760  11.114
 2455SOL    HW1 7697   0.426   2.804  11.162
 2455SOL    HW2 7698   0.385   2.713  11.032
 2456SOL     OW 7699   1.540   2.136   9.435
 2456SOL    HW1 7700   1.479   2.061   9.458
 2456SOL    HW2 7701   1.562   2.188   9.518
 2457SOL     OW 7702   1.303   2.700   9.352
 2457SOL    HW1 7703   1.337   2.607   9.367
 2457SOL    HW2 7704   1.321   2.727   9.257
 2458SOL     OW 7705   1.068   3.195  10.159
 2458SOL    HW1 7706   1.075   3.111  10.104
 2458SOL    HW2 7707   1.130   3.264  10.123
 2459SOL     OW 7708   0.319   2.672  10.259
 2459SOL    HW1 7709   0.412   2.708  10.264
 2459SOL    HW2 7710   0.313   2.587  10.311
 2460SOL     OW 7711   0.339   2.371  10.316
 2460SOL    HW1 7712   0.287   2.288  10.299
 2460SOL    HW2 7713   0.416   2.376  10.252
 2461SOL     OW 7714   1.138   2.242  10.988
 2461SOL    HW1 7715   1.093   2.305  11.052
 2461SOL    HW2 7716   1.231   2.273  10.971
 2462SOL     OW 7717   1.160   2.069  10.787
 2462SOL    HW1 7718   1.160   2.133  10.864
 2462SOL    HW2 7719   1.188   2.117  10.704
 2463SOL     OW 7720   0.008   3.188   9.510
 2463SOL    HW1 7721  -0.085   3.209   9.479
 2463SOL    HW2 7722   0.018   3.089   9.523
 2464SOL     OW 7723   0.088   3.663  10.237
 2464SOL    HW1 7724   0.046   3.577  10.210
 2464SOL    HW2 7725   0.182   3.666  10.203
 2465SOL     OW 7726   0.504   3.430  10.220
 2465SOL    HW1 7727   0.570   3.504  10.229
 2465SOL    HW2 7728   0.548   3.351  10.178
 2466SOL     OW 7729   1.002   2.658  10.548
 2466SOL    HW1 7730   1.043   2.626  10.634
 2466SOL    HW2 7731   0.906   2.631  10.545
 2467SOL     OW 7732   0.040   2.406  10.424
 2467SOL    HW1 7733   0.125   2.373  10.383
 2467SOL    HW2 7734   0.053   2.421  10.522
 2468SOL     OW 7735   0.189   2.382  11.032
 2468SOL    HW1 7736   0.248   2.342  10.962
 2468SOL    HW2 7737   0.131   2.453  10.991
 2469SOL     OW 7738   1.369   2.812  10.970
 2469SOL    HW1 7739   1.408   2.901  10.990
 2469SOL    HW2 7740   1.379   2.792  10.873
 2470SOL     OW 7741   0.815   2.434   9.635
 2470SOL    HW1 7742   0.822   2.345   9.589
 2470SOL    HW2 7743   0.721   2.468   9.627
 2471SOL     OW 7744   1.657   2.466  10.516
 2471SOL    HW1 7745   1.619   2.397  10.578
 2471SOL    HW2 7746   1.739   2.430  10.472
 2472SOL     OW 7747   0.252   3.426  11.054
 2472SOL    HW1 7748   0.222   3.483  11.130
 2472SOL    HW2 7749   0.245   3.329  11.080
 2473SOL     OW 7750   0.671   2.326  10.579
 2473SOL    HW1 7751   0.637   2.237  10.549
 2473SOL    HW2 7752   0.697   2.380  10.499
 2474SOL     OW 7753   0.930   3.540  10.775
 2474SOL    HW1 7754   0.906   3.522  10.680
 2474SOL    HW2 7755   0.960   3.634  10.785
 2475SOL     OW 7756   0.473   2.362   9.501
 2475SOL    HW1 7757   0.534   2.442   9.505
 2475SOL    HW2 7758   0.378   2.393   9.508
 2476SOL     OW 7759   0.159   2.999  10.776
 2476SOL    HW1 7760   0.181   2.938  10.852
 2476SOL    HW2 7761   0.169   2.950  10.690
 2477SOL     OW 7762   1.347   2.921  10.544
 2477SOL    HW1 7763   1.371   2.858  10.470
 2477SOL    HW2 7764   1.257   2.961  10.526
 2478SOL     OW 7765   1.302   2.717   9.619
 2478SOL    HW1 7766   1.216   2.686   9.661
 2478SOL    HW2 7767   1.298   2.703   9.520
 2479SOL     OW 7768   1.759   3.609  10.464
 2479SOL    HW1 7769   1.820   3.639  10.391
 2479SOL    HW2 7770   1.721   3.520  10.442
 2480SOL     OW 7771   1.252   3.593  10.438
 2480SOL    HW1 7772   1.336   3.598  10.384
 2480SOL    HW2 7773   1.229   3.497  10.456
 2481SOL     OW 7774   0.083   3.120  10.332
 2481SOL    HW1 7775   0.078   3.119  10.432
 2481SOL    HW2 7776   0.000   3.079  10.294
 2482SOL     OW 7777   0.688   3.524  11.026
 2482SOL    HW1 7778   0.632   3.605  11.035
 2482SOL    HW2 7779   0.740   3.528  10.940
 2483SOL     OW 7780   1.726   1.997   9.833
 2483SOL    HW1 7781   1.799   1.980   9.766
 2483SOL    HW2 7782   1.695   1.910   9.871
 2484SOL     OW 7783   1.388   3.435   9.787
 2484SOL    HW1 7784   1.455   3.447   9.713
 2484SOL    HW2 7785   1.348   3.524   9.810
 2485SOL     OW 7786   0.130   3.656  11.161
 2485SOL    HW1 7787   0.089   3.582  11.214
 2485SOL    HW2 7788   0.194   3.707  11.219
 2486SOL     OW 7789   1.280   2.789   9.982
 2486SOL    HW1 7790   1.340   2.708   9.984
 2486SOL    HW2 7791   1.320   2.858   9.922
 2487SOL     OW 7792   0.830   3.135  10.732
 2487SOL    HW1 7793   0.825   3.168  10.827
 2487SOL    HW2 7794   0.744   3.154  10.686
 2488SOL     OW 7795   0.672   3.478   9.464
 2488SOL    HW1 7796   0.681   3.488   9.365
 2488SOL    HW2 7797   0.632   3.389   9.485
 2489SOL     OW 7798   1.650   3.582  10.704
 2489SOL    HW1 7799   1.703   3.592  10.620
 2489SOL    HW2 7800   1.623   3.672  10.738
 2490SOL     OW 7801   1.841   2.037  10.273
 2490SOL    HW1 7802   1.880   1.952  10.237
 2490SOL    HW2 7803   1.743   2.039  10.254
 2491SOL     OW 7804   0.263   2.188  10.030
 2491SOL    HW1 7805   0.184   2.239   9.996
 2491SOL    HW2 7806   0.254   2.173  10.128
 2492SOL     OW 7807   1.194   3.474   9.341
 2492SOL    HW1 7808   1.200   3.381   9.378
 2492SOL    HW2 7809   1.135   3.474   9.261
 2493SOL     OW 7810   0.822   2.864  10.682
 2493SOL    HW1 7811   0.862   2.863  10.590
 2493SOL    HW2 7812   0.832   2.956  10.722
 2494SOL     OW 7813   0.916   2.772   9.601
 2494SOL    HW1 7814   0.979   2.810   9.533
 2494SOL    HW2 7815   0.956   2.689   9.640
 2495SOL     OW 7816   1.504   3.469   9.354
 2495SOL    HW1 7817   1.412   3.506   9.361
 2495SOL    HW2 7818   1.542   3.489   9.264
 2496SOL     OW 7819   0.372   3.150  10.800
 2496SOL    HW1 7820   0.359   3.243  10.766
 2496SOL    HW2 7821   0.288   3.098  10.787
 2497SOL     OW 7822   1.614   3.154  10.599
 2497SOL    HW1 7823   1.674   3.157  10.679
 2497SOL    HW2 7824   1.539   3.218  10.612
 2498SOL     OW 7825   1.039   2.960  10.006
 2498SOL    HW1 7826   0.969   2.913  10.060
 2498SOL    HW2 7827   1.098   2.892   9.963
 2499SOL     OW 7828   1.014   2.098  10.281
 2499SOL    HW1 7829   1.006   2.062  10.188
 2499SOL    HW2 7830   1.012   2.022  10.346
 2500SOL     OW 7831   0.590   3.349   9.801
 2500SOL    HW1 7832   0.632   3.291   9.731
 2500SOL    HW2 7833   0.546   3.428   9.757
 2501SOL     OW 7834   1.709   2.247  10.691
 2501SOL    HW1 7835   1.782   2.316  10.695
 2501SOL    HW2 7836   1.737   2.172  10.632
 2502SOL     OW 7837   0.255   3.210   9.600
 2502SOL    HW1 7838   0.159   3.211   9.573
 2502SOL    HW2 7839   0.267   3.263   9.684
 2503SOL     OW 7840   0.105   2.875  11.036
 2503SOL    HW1 7841   0.028   2.842  11.090
 2503SOL    HW2 7842   0.190   2.845  11.078
 2504SOL     OW 7843   0.672   2.065  10.799
 2504SOL    HW1 7844   0.762   2.049  10.759
 2504SOL    HW2 7845   0.680   2.070  10.898
 2505SOL     OW 7846   0.075   2.207   9.343
 2505SOL    HW1 7847  -0.017   2.179   9.314
 2505SOL    HW2 7848   0.106   2.284   9.287
 2506SOL     OW 7849   1.440   2.718  10.708
 2506SOL    HW1 7850   1.383   2.770  10.645
 2506SOL    HW2 7851   1.536   2.730  10.684
 2507SOL     OW 7852   0.072   2.028   9.628
 2507SOL    HW1 7853   0.055   2.111   9.574
 2507SOL    HW2 7854   0.162   1.991   9.606
 2508SOL     OW 7855   1.183   3.197   9.429
 2508SOL    HW1 7856   1.084   3.186   9.431
 2508SOL    HW2 7857   1.217   3.212   9.522
 2509SOL     OW 7858   0.613   2.704  10.741
 2509SOL    HW1 7859   0.669   2.785  10.724
 2509SOL    HW2 7860   0.672   2.624  10.744
 2510SOL     OW 7861   1.493   3.629  10.269
 2510SOL    HW1 7862   1.526   3.693  10.200
 2510SOL    HW2 7863   1.559   3.623  10.344
 2511SOL     OW 7864   0.716   2.427  11.018
 2511SOL    HW1 7865   0.735   2.492  11.092
 2511SOL    HW2 7866   0.776   2.347  11.027
 2512SOL     OW 7867   1.450   3.082  10.943
 2512SOL    HW1 7868   1.441   3.072  11.042
 2512SOL    HW2 7869   1.546   3.075  10.917
 2513SOL     OW 7870   0.390   3.603  10.870
 2513SOL    HW1 7871   0.299   3.644  10.868
 2513SOL    HW2 7872   0.383   3.509  10.902
 2514SOL     OW 7873   1.674   2.745  10.564
 2514SOL    HW1 7874   1.647   2.656  10.527
 2514SOL    HW2 7875   1.675   2.813  10.491
 2515SOL     OW 7876   1.225   2.187   9.759
 2515SOL    HW1 7877   1.290   2.113   9.748
 2515SOL    HW2 7878   1.245   2.237   9.843
 2516SOL     OW 7879   0.594   2.607   9.962
 2516SOL    HW1 7880   0.644   2.692   9.943
 2516SOL    HW2 7881   0.506   2.609   9.914
 2517SOL     OW 7882   1.777   2.204  10.952
 2517SOL    HW1 7883   1.760   2.235  10.858
 2517SOL    HW2 7884   1.693   2.167  10.990
 2518SOL     OW 7885   1.730   2.796  10.827
 2518SOL    HW1 7886   1.768   2.887  10.842
 2518SOL    HW2 7887   1.722   2.779  10.728
 2519SOL     OW 7888   0.859   3.236   9.326
 2519SOL    HW1 7889   0.813   3.251   9.414
 2519SOL    HW2 7890   0.903   3.321   9.296
 2520SOL     OW 7891   0.661   3.652  10.263
 2520SOL    HW1 7892   0.615   3.740  10.250
 2520SOL    HW2 7893   0.760   3.664  10.256
 2521SOL     OW 7894   0.859   2.818  10.171
 2521SOL    HW1 7895   0.913   2.749  10.219
 2521SOL    HW2 7896   0.827   2.887  10.237
 2522SOL     OW 7897   1.083   2.846   9.397
 2522SOL    HW1 7898   1.060   2.899   9.315
 2522SOL    HW2 7899   1.164   2.790   9.378
 2523SOL     OW 7900   1.861   3.431  10.161
 2523SOL    HW1 7901   1.790   3.419  10.091
 2523SOL    HW2 7902   1.862   3.352  10.221
 2524SOL     OW 7903   0.221   3.176  11.154
 2524SOL    HW1 7904   0.156   3.103  11.133
 2524SOL    HW2 7905   0.225   3.190  11.252
 2525SOL     OW 7906   0.079   3.102   9.963
 2525SOL    HW1 7907   0.078   3.055  10.051
 2525SOL    HW2 7908   0.161   3.074   9.912
 2526SOL     OW 7909   0.672   3.253  10.934
 2526SOL    HW1 7910   0.594   3.203  10.972
 2526SOL    HW2 7911   0.669   3.348  10.965
 2527SOL     OW 7912   1.824   2.054  10.537
 2527SOL    HW1 7913   1.820   1.964  10.581
 2527SOL    HW2 7914   1.827   2.043  10.438
 2528SOL     OW 7915   0.428   2.286   9.830
 2528SOL    HW1 7916   0.458   2.214   9.768
 2528SOL    HW2 7917   0.389   2.246   9.913
 2529SOL     OW 7918   1.705   3.349  10.414
 2529SOL    HW1 7919   1.612   3.324  10.387
 2529SOL    HW2 7920   1.731   3.299  10.496
 2530SOL     OW 7921   0.317   2.409  10.590
 2530SOL    HW1 7922   0.355   2.350  10.662
 2530SOL    HW2 7923   0.357   2.383  10.502
 2531SOL     OW 7924   0.812   3.448   9.997
 2531SOL    HW1 7925   0.844   3.458   9.903
 2531SOL    HW2 7926   0.733   3.386   9.999
 2532SOL     OW 7927   1.424   2.076  10.422
 2532SOL    HW1 7928   1.476   2.011  10.477
 2532SOL    HW2 7929   1.375   2.139  10.483
 2533SOL     OW 7930   1.001   1.896  10.464
 2533SOL    HW1 7931   0.938   1.824  10.433
 2533SOL    HW2 7932   1.094   1.860  10.464
 2534SOL     OW 7933   0.770   3.192   9.611
 2534SOL    HW1 7934   0.724   3.105   9.628
 2534SOL    HW2 7935   0.861   3.189   9.652
 2535SOL     OW 7936   0.618   3.429  10.594
 2535SOL    HW1 7937   0.613   3.511  10.651
 2535SOL    HW2 7938   0.707   3.426  10.549
 2536SOL     OW 7939   1.352   1.914   9.478
 2536SOL    HW1 7940   1.387   1.873   9.394
 2536SOL    HW2 7941   1.262   1.876   9.498
 2537SOL     OW 7942   1.300   2.315  10.001
 2537SOL    HW1 7943   1.241   2.395  10.005
 2537SOL    HW2 7944   1.315   2.280  10.094
 2538SOL     OW 7945   1.593   2.083  10.192
 2538SOL    HW1 7946   1.509   2.082  10.246
 2538SOL    HW2 7947   1.595   2.166  10.136
 2539SOL     OW 7948   0.039   2.939   9.610
 2539SOL    HW1 7949   0.138   2.928   9.601
 2539SOL    HW2 7950  -0.001   2.853   9.642
 2540SOL     OW 7951   0.875   3.508   9.647
 2540SOL    HW1 7952   0.798   3.473   9.593
 2540SOL    HW2 7953   0.843   3.579   9.709
 2541SOL     OW 7954   0.230   4.352   0.113
 2541SOL    HW1 7955   0.137   4.350   0.150
 2541SOL    HW2 7956   0.231   4.313   0.021
 2542SOL     OW 7957   0.225   3.999   0.996
 2542SOL    HW1 7958   0.260   3.982   1.088
 2542SOL    HW2 7959   0.137   3.954   0.984
 2543SOL     OW 7960   0.019   4.092   0.647
 2543SOL    HW1 7961  -0.063   4.135   0.686
 2543SOL    HW2 7962  -0.009   4.019   0.584
 2544SOL     OW 7963   1.755   4.331   0.231
 2544SOL    HW1 7964   1.743   4.318   0.132
 2544SOL    HW2 7965   1.725   4.250   0.280
 2545SOL     OW 7966   0.685   4.736   0.665
 2545SOL    HW1 7967   0.754   4.720   0.735
 2545SOL    HW2 7968   0.612   4.793   0.703
 2546SOL     OW 7969   0.438   4.116   1.499
 2546SOL    HW1 7970   0.520   4.060   1.508
 2546SOL    HW2 7971   0.357   4.058   1.503
 2547SOL     OW 7972   1.603   4.171   0.737
 2547SOL    HW1 7973   1.529   4.217   0.687
 2547SOL    HW2 7974   1.654   4.239   0.790
 2548SOL     OW 7975   1.594   3.838   1.480
 2548SOL    HW1 7976   1.576   3.905   1.408
 2548SOL    HW2 7977   1.591   3.884   1.569
 2549SOL     OW 7978   0.122   4.367   0.563
 2549SOL    HW1 7979   0.077   4.279   0.580
 2549SOL    HW2 7980   0.121   4.421   0.647
 2550SOL     OW 7981   0.113   4.461   1.597
 2550SOL    HW1 7982   0.201   4.448   1.642
 2550SOL    HW2 7983   0.100   4.558   1.575
 2551SOL     OW 7984   0.809   3.728   0.502
 2551SOL    HW1 7985   0.849   3.819   0.493
 2551SOL    HW2 7986   0.709   3.736   0.508
 2552SOL     OW 7987   0.317   3.975   1.801
 2552SOL    HW1 7988   0.388   4.046   1.807
 2552SOL    HW2 7989   0.229   4.014   1.829
 2553SOL     OW 7990   1.281   4.069   0.944
 2553SOL    HW1 7991   1.195   4.019   0.931
 2553SOL    HW2 7992   1.343   4.015   1.000
 2554SOL     OW 7993   0.807   4.329   1.465
 2554SOL    HW1 7994   0.760   4.326   1.554
 2554SOL    HW2 7995   0.756   4.274   1.399
 2555SOL     OW 7996   1.394   4.193   1.674
 2555SOL    HW1 7997   1.374   4.236   1.762
 2555SOL    HW2 7998   1.472   4.131   1.683
 2556SOL     OW 7999   0.991   4.134   1.242
 2556SOL    HW1 8000   0.914   4.168   1.296
 2556SOL    HW2 8001   0.957   4.083   1.163
 2557SOL     OW 8002   1.041   4.425   0.429
 2557SOL    HW1 8003   1.067   4.421   0.525
 2557SOL    HW2 8004   0.956   4.374   0.415
 2558SOL     OW 8005   0.076   4.535   0.789
 2558SOL    HW1 8006   0.175   4.523   0.798
 2558SOL    HW2 8007   0.052   4.630   0.810
 2559SOL     OW 8008   0.865   4.072   0.195
 2559SOL    HW1 8009   0.924   4.135   0.146
 2559SOL    HW2 8010   0.884   3.978   0.166
 2560SOL     OW 8011   1.719   4.309   1.831
 2560SOL    HW1 8012   1.693   4.398   1.795
 2560SOL    HW2 8013   1.717   4.241   1.758
 2561SOL     OW 8014   0.550   3.920   0.885
 2561SOL    HW1 8015   0.545   3.915   0.985
 2561SOL    HW2 8016   0.552   4.016   0.856
 2562SOL     OW 8017   1.458   4.459   0.728
 2562SOL    HW1 8018   1.453   4.394   0.803
 2562SOL    HW2 8019   1.538   4.518   0.741
 2563SOL     OW 8020   0.202   4.009   1.498
 2563SOL    HW1 8021   0.122   4.069   1.485
 2563SOL    HW2 8022   0.192   3.960   1.584
 2564SOL     OW 8023   1.400   3.831   0.426
 2564SOL    HW1 8024   1.376   3.794   0.336
 2564SOL    HW2 8025   1.499   3.847   0.430
 2565SOL     OW 8026   0.382   4.424   0.480
 2565SOL    HW1 8027   0.427   4.334   0.477
 2565SOL    HW2 8028   0.288   4.413   0.513
 2566SOL     OW 8029   1.547   3.946   1.729
 2566SOL    HW1 8030   1.542   3.983   1.821
 2566SOL    HW2 8031   1.475   3.877   1.717
 2567SOL     OW 8032   0.614   3.846   0.117
 2567SOL    HW1 8033   0.712   3.824   0.124
 2567SOL    HW2 8034   0.583   3.829   0.024
 2568SOL     OW 8035   0.781   3.988   1.749
 2568SOL    HW1 8036   0.848   3.927   1.792
 2568SOL    HW2 8037   0.708   4.007   1.814
 2569SOL     OW 8038   1.351   4.314   1.433
 2569SOL    HW1 8039   1.379   4.271   1.518
 2569SOL    HW2 8040   1.376   4.410   1.434
 2570SOL     OW 8041   0.922   4.227   0.899
 2570SOL    HW1 8042   0.897   4.218   0.803
 2570SOL    HW2 8043   0.970   4.145   0.930
 2571SOL     OW 8044   0.539   3.788   0.512
 2571SOL    HW1 8045   0.458   3.789   0.570
 2571SOL    HW2 8046   0.542   3.871   0.457
 2572SOL     OW 8047   0.297   3.759   0.171
 2572SOL    HW1 8048   0.346   3.843   0.150
 2572SOL    HW2 8049   0.359   3.694   0.216
 2573SOL     OW 8050   0.935   3.960   0.480
 2573SOL    HW1 8051   0.887   4.001   0.402
 2573SOL    HW2 8052   1.034   3.958   0.461
 2574SOL     OW 8053   1.076   4.407   1.464
 2574SOL    HW1 8054   0.996   4.346   1.467
 2574SOL    HW2 8055   1.157   4.354   1.440
 2575SOL     OW 8056   1.032   4.273   0.016
 2575SOL    HW1 8057   0.991   4.355  -0.023
 2575SOL    HW2 8058   1.096   4.299   0.089
 2576SOL     OW 8059   0.078   4.280   1.386
 2576SOL    HW1 8060   0.170   4.279   1.345
 2576SOL    HW2 8061   0.072   4.354   1.453
 2577SOL     OW 8062   0.561   3.946   1.147
 2577SOL    HW1 8063   0.599   3.862   1.184
 2577SOL    HW2 8064   0.473   3.965   1.191
 2578SOL     OW 8065   0.866   4.178   0.642
 2578SOL    HW1 8066   0.834   4.250   0.580
 2578SOL    HW2 8067   0.890   4.097   0.589
 2579SOL     OW 8068   1.017   3.763   0.753
 2579SOL    HW1 8069   0.945   3.768   0.684
 2579SOL    HW2 8070   0.993   3.694   0.822
 2580SOL     OW 8071   1.466   4.314   0.992
 2580SOL    HW1 8072   1.436   4.219   0.999
 2580SOL    HW2 8073   1.539   4.330   1.058
 2581SOL     OW 8074   1.390   4.299   0.078
 2581SOL    HW1 8075   1.336   4.278   0.159
 2581SOL    HW2 8076   1.481   4.258   0.087
 2582SOL     OW 8077   0.527   3.980   0.328
 2582SOL    HW1 8078   0.554   3.921   0.253
 2582SOL    HW2 8079   0.527   4.075   0.297
 2583SOL     OW 8080   0.915   3.813   1.402
 2583SOL    HW1 8081   0.940   3.793   1.307
 2583SOL    HW2 8082   0.987   3.869   1.444
 2584SOL     OW 8083   0.410   4.537   1.251
 2584SOL    HW1 8084   0.496   4.549   1.301
 2584SOL    HW2 8085   0.368   4.450   1.278
 2585SOL     OW 8086   1.274   4.110   1.262
 2585SOL    HW1 8087   1.295   4.184   1.326
 2585SOL    HW2 8088   1.185   4.127   1.219
 2586SOL     OW 8089   0.566   4.261   0.865
 2586SOL    HW1 8090   0.578   4.327   0.791
 2586SOL    HW2 8091   0.612   4.295   0.948
 2587SOL     OW 8092   1.582   4.363   0.472
 2587SOL    HW1 8093   1.551   4.424   0.545
 2587SOL    HW2 8094   1.632   4.415   0.403
 2588SOL     OW 8095   1.013   3.829   1.770
 2588SOL    HW1 8096   1.019   3.914   1.718
 2588SOL    HW2 8097   1.045   3.753   1.713
 2589SOL     OW 8098   0.504   3.774   1.740
 2589SOL    HW1 8099   0.462   3.717   1.670
 2589SOL    HW2 8100   0.438   3.843   1.772
 2590SOL     OW 8101   1.209   4.249   0.275
 2590SOL    HW1 8102   1.222   4.165   0.329
 2590SOL    HW2 8103   1.180   4.323   0.335
 2591SOL     OW 8104   0.307   3.937   1.231
 2591SOL    HW1 8105   0.284   3.974   1.321
 2591SOL    HW2 8106   0.277   3.842   1.225
 2592SOL     OW 8107   0.732   4.358   1.064
 2592SOL    HW1 8108   0.791   4.332   0.988
 2592SOL    HW2 8109   0.704   4.454   1.053
 2593SOL     OW 8110   1.728   4.659   1.854
 2593SOL    HW1 8111   1.682   4.652   1.765
 2593SOL    HW2 8112   1.666   4.703   1.920
 2594SOL     OW 8113   0.307   3.787   0.618
 2594SOL    HW1 8114   0.296   3.881   0.651
 2594SOL    HW2 8115   0.302   3.724   0.695
 2595SOL     OW 8116   1.622   4.091   0.374
 2595SOL    HW1 8117   1.624   4.015   0.438
 2595SOL    HW2 8118   1.574   4.168   0.414
 2596SOL     OW 8119   1.540   3.998   0.125
 2596SOL    HW1 8120   1.479   3.923   0.148
 2596SOL    HW2 8121   1.562   4.050   0.208
 2597SOL     OW 8122   0.319   4.534   0.949
 2597SOL    HW1 8123   0.412   4.570   0.954
 2597SOL    HW2 8124   0.313   4.449   1.001
 2598SOL     OW 8125   0.339   4.233   1.006
 2598SOL    HW1 8126   0.287   4.150   0.989
 2598SOL    HW2 8127   0.416   4.238   0.942
 2599SOL     OW 8128   1.138   4.104   1.678
 2599SOL    HW1 8129   1.093   4.167   1.742
 2599SOL    HW2 8130   1.231   4.135   1.661
 2600SOL     OW 8131   1.160   3.931   1.477
 2600SOL    HW1 8132   1.160   3.995   1.554
 2600SOL    HW2 8133   1.188   3.979   1.394
 2601SOL     OW 8134   0.040   4.268   1.114
 2601SOL    HW1 8135   0.125   4.235   1.073
 2601SOL    HW2 8136   0.053   4.283   1.212
 2602SOL     OW 8137   0.189   4.244   1.722
 2602SOL    HW1 8138   0.248   4.204   1.652
 2602SOL    HW2 8139   0.131   4.315   1.681
 2603SOL     OW 8140   0.815   4.296   0.325
 2603SOL    HW1 8141   0.822   4.207   0.279
 2603SOL    HW2 8142   0.721   4.330   0.317
 2604SOL     OW 8143   1.657   4.328   1.206
 2604SOL    HW1 8144   1.619   4.259   1.268
 2604SOL    HW2 8145   1.739   4.292   1.162
 2605SOL     OW 8146   0.671   4.188   1.269
 2605SOL    HW1 8147   0.637   4.099   1.239
 2605SOL    HW2 8148   0.697   4.242   1.189
 2606SOL     OW 8149   0.473   4.224   0.191
 2606SOL    HW1 8150   0.534   4.304   0.195
 2606SOL    HW2 8151   0.378   4.255   0.198
 2607SOL     OW 8152   0.903   3.810   0.133
 2607SOL    HW1 8153   0.954   3.811   0.047
 2607SOL    HW2 8154   0.959   3.768   0.204
 2608SOL     OW 8155   1.726   3.859   0.523
 2608SOL    HW1 8156   1.799   3.842   0.456
 2608SOL    HW2 8157   1.695   3.772   0.561
 2609SOL     OW 8158   1.280   4.651   0.672
 2609SOL    HW1 8159   1.340   4.570   0.674
 2609SOL    HW2 8160   1.320   4.720   0.612
 2610SOL     OW 8161   1.841   3.899   0.963
 2610SOL    HW1 8162   1.880   3.814   0.927
 2610SOL    HW2 8163   1.743   3.901   0.944
 2611SOL     OW 8164   0.263   4.050   0.720
 2611SOL    HW1 8165   0.184   4.101   0.686
 2611SOL    HW2 8166   0.254   4.035   0.818
 2612SOL     OW 8167   1.039   4.822   0.696
 2612SOL    HW1 8168   0.969   4.775   0.750
 2612SOL    HW2 8169   1.098   4.754   0.653
 2613SOL     OW 8170   1.014   3.960   0.971
 2613SOL    HW1 8171   1.006   3.924   0.878
 2613SOL    HW2 8172   1.012   3.884   1.036
 2614SOL     OW 8173   1.709   4.109   1.381
 2614SOL    HW1 8174   1.782   4.178   1.385
 2614SOL    HW2 8175   1.737   4.034   1.322
 2615SOL     OW 8176   0.672   3.927   1.489
 2615SOL    HW1 8177   0.762   3.911   1.449
 2615SOL    HW2 8178   0.680   3.932   1.588
 2616SOL     OW 8179   0.075   4.069   0.033
 2616SOL    HW1 8180  -0.017   4.041   0.004
 2616SOL    HW2 8181   0.106   4.146  -0.023
 2617SOL     OW 8182   0.072   3.890   0.318
 2617SOL    HW1 8183   0.055   3.973   0.264
 2617SOL    HW2 8184   0.162   3.853   0.296
 2618SOL     OW 8185   0.716   4.289   1.708
 2618SOL    HW1 8186   0.735   4.354   1.782
 2618SOL    HW2 8187   0.776   4.209   1.717
 2619SOL     OW 8188   1.225   4.049   0.449
 2619SOL    HW1 8189   1.290   3.975   0.438
 2619SOL    HW2 8190   1.245   4.099   0.533
 2620SOL     OW 8191   1.777   4.066   1.642
 2620SOL    HW1 8192   1.760   4.097   1.548
 2620SOL    HW2 8193   1.693   4.029   1.680
 2621SOL     OW 8194   1.083   4.708   0.087
 2621SOL    HW1 8195   1.060   4.761   0.005
 2621SOL    HW2 8196   1.164   4.652   0.068
 2622SOL     OW 8197   1.824   3.916   1.227
 2622SOL    HW1 8198   1.820   3.826   1.271
 2622SOL    HW2 8199   1.827   3.905   1.128
 2623SOL     OW 8200   0.428   4.148   0.520
 2623SOL    HW1 8201   0.458   4.076   0.458
 2623SOL    HW2 8202   0.389   4.108   0.603
 2624SOL     OW 8203   0.317   4.271   1.280
 2624SOL    HW1 8204   0.355   4.212   1.352
 2624SOL    HW2 8205   0.357   4.245   1.192
 2625SOL     OW 8206   1.424   3.938   1.112
 2625SOL    HW1 8207   1.476   3.873   1.167
 2625SOL    HW2 8208   1.375   4.001   1.173
 2626SOL     OW 8209   1.001   3.758   1.154
 2626SOL    HW1 8210   0.938   3.686   1.123
 2626SOL    HW2 8211   1.094   3.722   1.154
 2627SOL     OW 8212   1.352   3.776   0.168
 2627SOL    HW1 8213   1.387   3.735   0.084
 2627SOL    HW2 8214   1.262   3.738   0.188
 2628SOL     OW 8215   1.300   4.177   0.691
 2628SOL    HW1 8216   1.241   4.257   0.695
 2628SOL    HW2 8217   1.315   4.142   0.784
 2629SOL     OW 8218   1.593   3.945   0.882
 2629SOL    HW1 8219   1.509   3.944   0.936
 2629SOL    HW2 8220   1.595   4.028   0.826
 2630SOL     OW 8221   0.230   4.352   1.975
 2630SOL    HW1 8222   0.137   4.350   2.012
 2630SOL    HW2 8223   0.231   4.313   1.883
 2631SOL     OW 8224   0.225   3.999   2.858
 2631SOL    HW1 8225   0.260   3.982   2.950
 2631SOL    HW2 8226   0.137   3.954   2.846
 2632SOL     OW 8227   0.019   4.092   2.509
 2632SOL    HW1 8228  -0.063   4.135   2.548
 2632SOL    HW2 8229  -0.009   4.019   2.446
 2633SOL     OW 8230   1.755   4.331   2.093
 2633SOL    HW1 8231   1.743   4.318   1.994
 2633SOL    HW2 8232   1.725   4.250   2.142
 2634SOL     OW 8233   0.685   4.736   2.527
 2634SOL    HW1 8234   0.754   4.720   2.597
 2634SOL    HW2 8235   0.612   4.793   2.565
 2635SOL     OW 8236   0.438   4.116   3.361
 2635SOL    HW1 8237   0.520   4.060   3.370
 2635SOL    HW2 8238   0.357   4.058   3.365
 2636SOL     OW 8239   1.603   4.171   2.599
 2636SOL    HW1 8240   1.529   4.217   2.549
 2636SOL    HW2 8241   1.654   4.239   2.652
 2637SOL     OW 8242   1.594   3.838   3.342
 2637SOL    HW1 8243   1.576   3.905   3.270
 2637SOL    HW2 8244   1.591   3.884   3.431
 2638SOL     OW 8245   0.122   4.367   2.425
 2638SOL    HW1 8246   0.077   4.279   2.442
 2638SOL    HW2 8247   0.121   4.421   2.509
 2639SOL     OW 8248   0.113   4.461   3.459
 2639SOL    HW1 8249   0.201   4.448   3.504
 2639SOL    HW2 8250   0.100   4.558   3.437
 2640SOL     OW 8251   0.809   3.728   2.364
 2640SOL    HW1 8252   0.849   3.819   2.355
 2640SOL    HW2 8253   0.709   3.736   2.370
 2641SOL     OW 8254   0.317   3.975   3.663
 2641SOL    HW1 8255   0.388   4.046   3.669
 2641SOL    HW2 8256   0.229   4.014   3.691
 2642SOL     OW 8257   1.281   4.069   2.806
 2642SOL    HW1 8258   1.195   4.019   2.793
 2642SOL    HW2 8259   1.343   4.015   2.862
 2643SOL     OW 8260   0.807   4.329   3.327
 2643SOL    HW1 8261   0.760   4.326   3.416
 2643SOL    HW2 8262   0.756   4.274   3.261
 2644SOL     OW 8263   1.394   4.193   3.536
 2644SOL    HW1 8264   1.374   4.236   3.624
 2644SOL    HW2 8265   1.472   4.131   3.545
 2645SOL     OW 8266   0.991   4.134   3.104
 2645SOL    HW1 8267   0.914   4.168   3.158
 2645SOL    HW2 8268   0.957   4.083   3.025
 2646SOL     OW 8269   1.041   4.425   2.291
 2646SOL    HW1 8270   1.067   4.421   2.387
 2646SOL    HW2 8271   0.956   4.374   2.277
 2647SOL     OW 8272   0.076   4.535   2.651
 2647SOL    HW1 8273   0.175   4.523   2.660
 2647SOL    HW2 8274   0.052   4.630   2.672
 2648SOL     OW 8275   0.865   4.072   2.057
 2648SOL    HW1 8276   0.924   4.135   2.008
 2648SOL    HW2 8277   0.884   3.978   2.028
 2649SOL     OW 8278   1.719   4.309   3.693
 2649SOL    HW1 8279   1.693   4.398   3.657
 2649SOL    HW2 8280   1.717   4.241   3.620
 2650SOL     OW 8281   0.550   3.920   2.747
 2650SOL    HW1 8282   0.545   3.915   2.847
 2650SOL    HW2 8283   0.552   4.016   2.718
 2651SOL     OW 8284   1.458   4.459   2.590
 2651SOL    HW1 8285   1.453   4.394   2.665
 2651SOL    HW2 8286   1.538   4.518   2.603
 2652SOL     OW 8287   0.202   4.009   3.360
 2652SOL    HW1 8288   0.122   4.069   3.347
 2652SOL    HW2 8289   0.192   3.960   3.446
 2653SOL     OW 8290   1.400   3.831   2.288
 2653SOL    HW1 8291   1.376   3.794   2.198
 2653SOL    HW2 8292   1.499   3.847   2.292
 2654SOL     OW 8293   0.382   4.424   2.342
 2654SOL    HW1 8294   0.427   4.334   2.339
 2654SOL    HW2 8295   0.288   4.413   2.375
 2655SOL     OW 8296   1.547   3.946   3.591
 2655SOL    HW1 8297   1.542   3.983   3.683
 2655SOL    HW2 8298   1.475   3.877   3.579
 2656SOL     OW 8299   0.614   3.846   1.979
 2656SOL    HW1 8300   0.712   3.824   1.986
 2656SOL    HW2 8301   0.583   3.829   1.886
 2657SOL     OW 8302   0.781   3.988   3.611
 2657SOL    HW1 8303   0.848   3.927   3.654
 2657SOL    HW2 8304   0.708   4.007   3.676
 2658SOL     OW 8305   1.351   4.314   3.295
 2658SOL    HW1 8306   1.379   4.271   3.380
 2658SOL    HW2 8307   1.376   4.410   3.296
 2659SOL     OW 8308   0.922   4.227   2.761
 2659SOL    HW1 8309   0.897   4.218   2.665
 2659SOL    HW2 8310   0.970   4.145   2.792
 2660SOL     OW 8311   0.539   3.788   2.374
 2660SOL    HW1 8312   0.458   3.789   2.432
 2660SOL    HW2 8313   0.542   3.871   2.319
 2661SOL     OW 8314   0.297   3.759   2.033
 2661SOL    HW1 8315   0.346   3.843   2.012
 2661SOL    HW2 8316   0.359   3.694   2.078
 2662SOL     OW 8317   0.935   3.960   2.342
 2662SOL    HW1 8318   0.887   4.001   2.264
 2662SOL    HW2 8319   1.034   3.958   2.323
 2663SOL     OW 8320   1.076   4.407   3.326
 2663SOL    HW1 8321   0.996   4.346   3.329
 2663SOL    HW2 8322   1.157   4.354   3.302
 2664SOL     OW 8323   1.032   4.273   1.878
 2664SOL    HW1 8324   0.991   4.355   1.839
 2664SOL    HW2 8325   1.096   4.299   1.951
 2665SOL     OW 8326   0.078   4.280   3.248
 2665SOL    HW1 8327   0.170   4.279   3.207
 2665SOL    HW2 8328   0.072   4.354   3.315
 2666SOL     OW 8329   0.561   3.946   3.009
 2666SOL    HW1 8330   0.599   3.862   3.046
 2666SOL    HW2 8331   0.473   3.965   3.053
 2667SOL     OW 8332   0.866   4.178   2.504
 2667SOL    HW1 8333   0.834   4.250   2.442
 2667SOL    HW2 8334   0.890   4.097   2.451
 2668SOL     OW 8335   1.017   3.763   2.615
 2668SOL    HW1 8336   0.945   3.768   2.546
 2668SOL    HW2 8337   0.993   3.694   2.684
 2669SOL     OW 8338   1.466   4.314   2.854
 2669SOL    HW1 8339   1.436   4.219   2.861
 2669SOL    HW2 8340   1.539   4.330   2.920
 2670SOL     OW 8341   1.390   4.299   1.940
 2670SOL    HW1 8342   1.336   4.278   2.021
 2670SOL    HW2 8343   1.481   4.258   1.949
 2671SOL     OW 8344   0.527   3.980   2.190
 2671SOL    HW1 8345   0.554   3.921   2.115
 2671SOL    HW2 8346   0.527   4.075   2.159
 2672SOL     OW 8347   0.915   3.813   3.264
 2672SOL    HW1 8348   0.940   3.793   3.169
 2672SOL    HW2 8349   0.987   3.869   3.306
 2673SOL     OW 8350   0.410   4.537   3.113
 2673SOL    HW1 8351   0.496   4.549   3.163
 2673SOL    HW2 8352   0.368   4.450   3.140
 2674SOL     OW 8353   1.274   4.110   3.124
 2674SOL    HW1 8354   1.295   4.184   3.188
 2674SOL    HW2 8355   1.185   4.127   3.081
 2675SOL     OW 8356   0.566   4.261   2.727
 2675SOL    HW1 8357   0.578   4.327   2.653
 2675SOL    HW2 8358   0.612   4.295   2.810
 2676SOL     OW 8359   1.582   4.363   2.334
 2676SOL    HW1 8360   1.551   4.424   2.407
 2676SOL    HW2 8361   1.632   4.415   2.265
 2677SOL     OW 8362   1.013   3.829   3.632
 2677SOL    HW1 8363   1.019   3.914   3.580
 2677SOL    HW2 8364   1.045   3.753   3.575
 2678SOL     OW 8365   0.504   3.774   3.602
 2678SOL    HW1 8366   0.462   3.717   3.532
 2678SOL    HW2 8367   0.438   3.843   3.634
 2679SOL     OW 8368   1.209   4.249   2.137
 2679SOL    HW1 8369   1.222   4.165   2.191
 2679SOL    HW2 8370   1.180   4.323   2.197
 2680SOL     OW 8371   0.307   3.937   3.093
 2680SOL    HW1 8372   0.284   3.974   3.183
 2680SOL    HW2 8373   0.277   3.842   3.087
 2681SOL     OW 8374   0.732   4.358   2.926
 2681SOL    HW1 8375   0.791   4.332   2.850
 2681SOL    HW2 8376   0.704   4.454   2.915
 2682SOL     OW 8377   1.728   4.659   3.716
 2682SOL    HW1 8378   1.682   4.652   3.627
 2682SOL    HW2 8379   1.666   4.703   3.782
 2683SOL     OW 8380   0.307   3.787   2.480
 2683SOL    HW1 8381   0.296   3.881   2.513
 2683SOL    HW2 8382   0.302   3.724   2.557
 2684SOL     OW 8383   1.622   4.091   2.236
 2684SOL    HW1 8384   1.624   4.015   2.300
 2684SOL    HW2 8385   1.574   4.168   2.276
 2685SOL     OW 8386   1.540   3.998   1.987
 2685SOL    HW1 8387   1.479   3.923   2.010
 2685SOL    HW2 8388   1.562   4.050   2.070
 2686SOL     OW 8389   0.319   4.534   2.811
 2686SOL    HW1 8390   0.412   4.570   2.816
 2686SOL    HW2 8391   0.313   4.449   2.863
 2687SOL     OW 8392   0.339   4.233   2.868
 2687SOL    HW1 8393   0.287   4.150   2.851
 2687SOL    HW2 8394   0.416   4.238   2.804
 2688SOL     OW 8395   1.138   4.104   3.540
 2688SOL    HW1 8396   1.093   4.167   3.604
 2688SOL    HW2 8397   1.231   4.135   3.523
 2689SOL     OW 8398   1.160   3.931   3.339
 2689SOL    HW1 8399   1.160   3.995   3.416
 2689SOL    HW2 8400   1.188   3.979   3.256
 2690SOL     OW 8401   0.040   4.268   2.976
 2690SOL    HW1 8402   0.125   4.235   2.935
 2690SOL    HW2 8403   0.053   4.283   3.074
 2691SOL     OW 8404   0.189   4.244   3.584
 2691SOL    HW1 8405   0.248   4.204   3.514
 2691SOL    HW2 8406   0.131   4.315   3.543
 2692SOL     OW 8407   0.815   4.296   2.187
 2692SOL    HW1 8408   0.822   4.207   2.141
 2692SOL    HW2 8409   0.721   4.330   2.179
 2693SOL     OW 8410   1.657   4.328   3.068
 2693SOL    HW1 8411   1.619   4.259   3.130
 2693SOL    HW2 8412   1.739   4.292   3.024
 2694SOL     OW 8413   0.671   4.188   3.131
 2694SOL    HW1 8414   0.637   4.099   3.101
 2694SOL    HW2 8415   0.697   4.242   3.051
 2695SOL     OW 8416   0.473   4.224   2.053
 2695SOL    HW1 8417   0.534   4.304   2.057
 2695SOL    HW2 8418   0.378   4.255   2.060
 2696SOL     OW 8419   1.726   3.859   2.385
 2696SOL    HW1 8420   1.799   3.842   2.318
 2696SOL    HW2 8421   1.695   3.772   2.423
 2697SOL     OW 8422   1.280   4.651   2.534
 2697SOL    HW1 8423   1.340   4.570   2.536
 2697SOL    HW2 8424   1.320   4.720   2.474
 2698SOL     OW 8425   1.841   3.899   2.825
 2698SOL    HW1 8426   1.880   3.814   2.789
 2698SOL    HW2 8427   1.743   3.901   2.806
 2699SOL     OW 8428   0.263   4.050   2.582
 2699SOL    HW1 8429   0.184   4.101   2.548
 2699SOL    HW2 8430   0.254   4.035   2.680
 2700SOL     OW 8431   0.916   4.634   2.153
 2700SOL    HW1 8432   0.979   4.672   2.085
 2700SOL    HW2 8433   0.956   4.551   2.192
 2701SOL     OW 8434   1.039   4.822   2.558
 2701SOL    HW1 8435   0.969   4.775   2.612
 2701SOL    HW2 8436   1.098   4.754   2.515
 2702SOL     OW 8437   1.014   3.960   2.833
 2702SOL    HW1 8438   1.006   3.924   2.740
 2702SOL    HW2 8439   1.012   3.884   2.898
 2703SOL     OW 8440   1.709   4.109   3.243
 2703SOL    HW1 8441   1.782   4.178   3.247
 2703SOL    HW2 8442   1.737   4.034   3.184
 2704SOL     OW 8443   0.672   3.927   3.351
 2704SOL    HW1 8444   0.762   3.911   3.311
 2704SOL    HW2 8445   0.680   3.932   3.450
 2705SOL     OW 8446   0.075   4.069   1.895
 2705SOL    HW1 8447  -0.017   4.041   1.866
 2705SOL    HW2 8448   0.106   4.146   1.839
 2706SOL     OW 8449   0.072   3.890   2.180
 2706SOL    HW1 8450   0.055   3.973   2.126
 2706SOL    HW2 8451   0.162   3.853   2.158
 2707SOL     OW 8452   0.716   4.289   3.570
 2707SOL    HW1 8453   0.735   4.354   3.644
 2707SOL    HW2 8454   0.776   4.209   3.579
 2708SOL     OW 8455   1.225   4.049   2.311
 2708SOL    HW1 8456   1.290   3.975   2.300
 2708SOL    HW2 8457   1.245   4.099   2.395
 2709SOL     OW 8458   1.777   4.066   3.504
 2709SOL    HW1 8459   1.760   4.097   3.410
 2709SOL    HW2 8460   1.693   4.029   3.542
 2710SOL     OW 8461   1.083   4.708   1.949
 2710SOL    HW1 8462   1.060   4.761   1.867
 2710SOL    HW2 8463   1.164   4.652   1.930
 2711SOL     OW 8464   1.824   3.916   3.089
 2711SOL    HW1 8465   1.820   3.826   3.133
 2711SOL    HW2 8466   1.827   3.905   2.990
 2712SOL     OW 8467   0.428   4.148   2.382
 2712SOL    HW1 8468   0.458   4.076   2.320
 2712SOL    HW2 8469   0.389   4.108   2.465
 2713SOL     OW 8470   0.317   4.271   3.142
 2713SOL    HW1 8471   0.355   4.212   3.214
 2713SOL    HW2 8472   0.357   4.245   3.054
 2714SOL     OW 8473   1.424   3.938   2.974
 2714SOL    HW1 8474   1.476   3.873   3.029
 2714SOL    HW2 8475   1.375   4.001   3.035
 2715SOL     OW 8476   1.001   3.758   3.016
 2715SOL    HW1 8477   0.938   3.686   2.985
 2715SOL    HW2 8478   1.094   3.722   3.016
 2716SOL     OW 8479   1.352   3.776   2.030
 2716SOL    HW1 8480   1.387   3.735   1.946
 2716SOL    HW2 8481   1.262   3.738   2.050
 2717SOL     OW 8482   1.300   4.177   2.553
 2717SOL    HW1 8483   1.241   4.257   2.557
 2717SOL    HW2 8484   1.315   4.142   2.646
 2718SOL     OW 8485   1.593   3.945   2.744
 2718SOL    HW1 8486   1.509   3.944   2.798
 2718SOL    HW2 8487   1.595   4.028   2.688
 2719SOL     OW 8488   0.230   4.352   3.837
 2719SOL    HW1 8489   0.137   4.350   3.874
 2719SOL    HW2 8490   0.231   4.313   3.745
 2720SOL     OW 8491   0.225   3.999   4.720
 2720SOL    HW1 8492   0.260   3.982   4.812
 2720SOL    HW2 8493   0.137   3.954   4.708
 2721SOL     OW 8494   0.019   4.092   4.371
 2721SOL    HW1 8495  -0.063   4.135   4.410
 2721SOL    HW2 8496  -0.009   4.019   4.308
 2722SOL     OW 8497   1.755   4.331   3.955
 2722SOL    HW1 8498   1.743   4.318   3.856
 2722SOL    HW2 8499   1.725   4.250   4.004
 2723SOL     OW 8500   0.685   4.736   4.389
 2723SOL    HW1 8501   0.754   4.720   4.459
 2723SOL    HW2 8502   0.612   4.793   4.427
 2724SOL     OW 8503   0.438   4.116   5.223
 2724SOL    HW1 8504   0.520   4.060   5.232
 2724SOL    HW2 8505   0.357   4.058   5.227
 2725SOL     OW 8506   1.603   4.171   4.461
 2725SOL    HW1 8507   1.529   4.217   4.411
 2725SOL    HW2 8508   1.654   4.239   4.514
 2726SOL     OW 8509   1.594   3.838   5.204
 2726SOL    HW1 8510   1.576   3.905   5.132
 2726SOL    HW2 8511   1.591   3.884   5.293
 2727SOL     OW 8512   0.122   4.367   4.287
 2727SOL    HW1 8513   0.077   4.279   4.304
 2727SOL    HW2 8514   0.121   4.421   4.371
 2728SOL     OW 8515   0.113   4.461   5.321
 2728SOL    HW1 8516   0.201   4.448   5.366
 2728SOL    HW2 8517   0.100   4.558   5.299
 2729SOL     OW 8518   0.809   3.728   4.226
 2729SOL    HW1 8519   0.849   3.819   4.217
 2729SOL    HW2 8520   0.709   3.736   4.232
 2730SOL     OW 8521   0.317   3.975   5.525
 2730SOL    HW1 8522   0.388   4.046   5.531
 2730SOL    HW2 8523   0.229   4.014   5.553
 2731SOL     OW 8524   1.281   4.069   4.668
 2731SOL    HW1 8525   1.195   4.019   4.655
 2731SOL    HW2 8526   1.343   4.015   4.724
 2732SOL     OW 8527   0.807   4.329   5.189
 2732SOL    HW1 8528   0.760   4.326   5.278
 2732SOL    HW2 8529   0.756   4.274   5.123
 2733SOL     OW 8530   1.394   4.193   5.398
 2733SOL    HW1 8531   1.374   4.236   5.486
 2733SOL    HW2 8532   1.472   4.131   5.407
 2734SOL     OW 8533   0.991   4.134   4.966
 2734SOL    HW1 8534   0.914   4.168   5.020
 2734SOL    HW2 8535   0.957   4.083   4.887
 2735SOL     OW 8536   1.041   4.425   4.153
 2735SOL    HW1 8537   1.067   4.421   4.249
 2735SOL    HW2 8538   0.956   4.374   4.139
 2736SOL     OW 8539   0.076   4.535   4.513
 2736SOL    HW1 8540   0.175   4.523   4.522
 2736SOL    HW2 8541   0.052   4.630   4.534
 2737SOL     OW 8542   0.865   4.072   3.919
 2737SOL    HW1 8543   0.924   4.135   3.870
 2737SOL    HW2 8544   0.884   3.978   3.890
 2738SOL     OW 8545   1.719   4.309   5.555
 2738SOL    HW1 8546   1.693   4.398   5.519
 2738SOL    HW2 8547   1.717   4.241   5.482
 2739SOL     OW 8548   0.550   3.920   4.609
 2739SOL    HW1 8549   0.545   3.915   4.709
 2739SOL    HW2 8550   0.552   4.016   4.580
 2740SOL     OW 8551   1.458   4.459   4.452
 2740SOL    HW1 8552   1.453   4.394   4.527
 2740SOL    HW2 8553   1.538   4.518   4.465
 2741SOL     OW 8554   0.202   4.009   5.222
 2741SOL    HW1 8555   0.122   4.069   5.209
 2741SOL    HW2 8556   0.192   3.960   5.308
 2742SOL     OW 8557   1.400   3.831   4.150
 2742SOL    HW1 8558   1.376   3.794   4.060
 2742SOL    HW2 8559   1.499   3.847   4.154
 2743SOL     OW 8560   0.382   4.424   4.204
 2743SOL    HW1 8561   0.427   4.334   4.201
 2743SOL    HW2 8562   0.288   4.413   4.237
 2744SOL     OW 8563   1.547   3.946   5.453
 2744SOL    HW1 8564   1.542   3.983   5.545
 2744SOL    HW2 8565   1.475   3.877   5.441
 2745SOL     OW 8566   0.614   3.846   3.841
 2745SOL    HW1 8567   0.712   3.824   3.848
 2745SOL    HW2 8568   0.583   3.829   3.748
 2746SOL     OW 8569   0.781   3.988   5.473
 2746SOL    HW1 8570   0.848   3.927   5.516
 2746SOL    HW2 8571   0.708   4.007   5.538
 2747SOL     OW 8572   1.351   4.314   5.157
 2747SOL    HW1 8573   1.379   4.271   5.242
 2747SOL    HW2 8574   1.376   4.410   5.158
 2748SOL     OW 8575   0.922   4.227   4.623
 2748SOL    HW1 8576   0.897   4.218   4.527
 2748SOL    HW2 8577   0.970   4.145   4.654
 2749SOL     OW 8578   0.539   3.788   4.236
 2749SOL    HW1 8579   0.458   3.789   4.294
 2749SOL    HW2 8580   0.542   3.871   4.181
 2750SOL     OW 8581   0.297   3.759   3.895
 2750SOL    HW1 8582   0.346   3.843   3.874
 2750SOL    HW2 8583   0.359   3.694   3.940
 2751SOL     OW 8584   0.935   3.960   4.204
 2751SOL    HW1 8585   0.887   4.001   4.126
 2751SOL    HW2 8586   1.034   3.958   4.185
 2752SOL     OW 8587   1.076   4.407   5.188
 2752SOL    HW1 8588   0.996   4.346   5.191
 2752SOL    HW2 8589   1.157   4.354   5.164
 2753SOL     OW 8590   1.032   4.273   3.740
 2753SOL    HW1 8591   0.991   4.355   3.701
 2753SOL    HW2 8592   1.096   4.299   3.813
 2754SOL     OW 8593   0.078   4.280   5.110
 2754SOL    HW1 8594   0.170   4.279   5.069
 2754SOL    HW2 8595   0.072   4.354   5.177
 2755SOL     OW 8596   0.561   3.946   4.871
 2755SOL    HW1 8597   0.599   3.862   4.908
 2755SOL    HW2 8598   0.473   3.965   4.915
 2756SOL     OW 8599   0.866   4.178   4.366
 2756SOL    HW1 8600   0.834   4.250   4.304
 2756SOL    HW2 8601   0.890   4.097   4.313
 2757SOL     OW 8602   1.017   3.763   4.477
 2757SOL    HW1 8603   0.945   3.768   4.408
 2757SOL    HW2 8604   0.993   3.694   4.546
 2758SOL     OW 8605   1.466   4.314   4.716
 2758SOL    HW1 8606   1.436   4.219   4.723
 2758SOL    HW2 8607   1.539   4.330   4.782
 2759SOL     OW 8608   1.390   4.299   3.802
 2759SOL    HW1 8609   1.336   4.278   3.883
 2759SOL    HW2 8610   1.481   4.258   3.811
 2760SOL     OW 8611   0.527   3.980   4.052
 2760SOL    HW1 8612   0.554   3.921   3.977
 2760SOL    HW2 8613   0.527   4.075   4.021
 2761SOL     OW 8614   0.915   3.813   5.126
 2761SOL    HW1 8615   0.940   3.793   5.031
 2761SOL    HW2 8616   0.987   3.869   5.168
 2762SOL     OW 8617   0.410   4.537   4.975
 2762SOL    HW1 8618   0.496   4.549   5.025
 2762SOL    HW2 8619   0.368   4.450   5.002
 2763SOL     OW 8620   1.274   4.110   4.986
 2763SOL    HW1 8621   1.295   4.184   5.050
 2763SOL    HW2 8622   1.185   4.127   4.943
 2764SOL     OW 8623   0.566   4.261   4.589
 2764SOL    HW1 8624   0.578   4.327   4.515
 2764SOL    HW2 8625   0.612   4.295   4.672
 2765SOL     OW 8626   1.582   4.363   4.196
 2765SOL    HW1 8627   1.551   4.424   4.269
 2765SOL    HW2 8628   1.632   4.415   4.127
 2766SOL     OW 8629   1.013   3.829   5.494
 2766SOL    HW1 8630   1.019   3.914   5.442
 2766SOL    HW2 8631   1.045   3.753   5.437
 2767SOL     OW 8632   0.504   3.774   5.464
 2767SOL    HW1 8633   0.462   3.717   5.394
 2767SOL    HW2 8634   0.438   3.843   5.496
 2768SOL     OW 8635   1.209   4.249   3.999
 2768SOL    HW1 8636   1.222   4.165   4.053
 2768SOL    HW2 8637   1.180   4.323   4.059
 2769SOL     OW 8638   0.307   3.937   4.955
 2769SOL    HW1 8639   0.284   3.974   5.045
 2769SOL    HW2 8640   0.277   3.842   4.949
 2770SOL     OW 8641   0.732   4.358   4.788
 2770SOL    HW1 8642   0.791   4.332   4.712
 2770SOL    HW2 8643   0.704   4.454   4.777
 2771SOL     OW 8644   1.728   4.659   5.578
 2771SOL    HW1 8645   1.682   4.652   5.489
 2771SOL    HW2 8646   1.666   4.703   5.644
 2772SOL     OW 8647   0.307   3.787   4.342
 2772SOL    HW1 8648   0.296   3.881   4.375
 2772SOL    HW2 8649   0.302   3.724   4.419
 2773SOL     OW 8650   1.622   4.091   4.098
 2773SOL    HW1 8651   1.624   4.015   4.162
 2773SOL    HW2 8652   1.574   4.168   4.138
 2774SOL     OW 8653   1.540   3.998   3.849
 2774SOL    HW1 8654   1.479   3.923   3.872
 2774SOL    HW2 8655   1.562   4.050   3.932
 2775SOL     OW 8656   0.319   4.534   4.673
 2775SOL    HW1 8657   0.412   4.570   4.678
 2775SOL    HW2 8658   0.313   4.449   4.725
 2776SOL     OW 8659   0.339   4.233   4.730
 2776SOL    HW1 8660   0.287   4.150   4.713
 2776SOL    HW2 8661   0.416   4.238   4.666
 2777SOL     OW 8662   1.138   4.104   5.402
 2777SOL    HW1 8663   1.093   4.167   5.466
 2777SOL    HW2 8664   1.231   4.135   5.385
 2778SOL     OW 8665   1.160   3.931   5.201
 2778SOL    HW1 8666   1.160   3.995   5.278
 2778SOL    HW2 8667   1.188   3.979   5.118
 2779SOL     OW 8668   0.040   4.268   4.838
 2779SOL    HW1 8669   0.125   4.235   4.797
 2779SOL    HW2 8670   0.053   4.283   4.936
 2780SOL     OW 8671   0.189   4.244   5.446
 2780SOL    HW1 8672   0.248   4.204   5.376
 2780SOL    HW2 8673   0.131   4.315   5.405
 2781SOL     OW 8674   0.815   4.296   4.049
 2781SOL    HW1 8675   0.822   4.207   4.003
 2781SOL    HW2 8676   0.721   4.330   4.041
 2782SOL     OW 8677   1.657   4.328   4.930
 2782SOL    HW1 8678   1.619   4.259   4.992
 2782SOL    HW2 8679   1.739   4.292   4.886
 2783SOL     OW 8680   0.671   4.188   4.993
 2783SOL    HW1 8681   0.637   4.099   4.963
 2783SOL    HW2 8682   0.697   4.242   4.913
 2784SOL     OW 8683   0.473   4.224   3.915
 2784SOL    HW1 8684   0.534   4.304   3.919
 2784SOL    HW2 8685   0.378   4.255   3.922
 2785SOL     OW 8686   1.726   3.859   4.247
 2785SOL    HW1 8687   1.799   3.842   4.180
 2785SOL    HW2 8688   1.695   3.772   4.285
 2786SOL     OW 8689   1.280   4.651   4.396
 2786SOL    HW1 8690   1.340   4.570   4.398
 2786SOL    HW2 8691   1.320   4.720   4.336
 2787SOL     OW 8692   1.841   3.899   4.687
 2787SOL    HW1 8693   1.880   3.814   4.651
 2787SOL    HW2 8694   1.743   3.901   4.668
 2788SOL     OW 8695   0.263   4.050   4.444
 2788SOL    HW1 8696   0.184   4.101   4.410
 2788SOL    HW2 8697   0.254   4.035   4.542
 2789SOL     OW 8698   0.916   4.634   4.015
 2789SOL    HW1 8699   0.979   4.672   3.947
 2789SOL    HW2 8700   0.956   4.551   4.054
 2790SOL     OW 8701   1.039   4.822   4.420
 2790SOL    HW1 8702   0.969   4.775   4.474
 2790SOL    HW2 8703   1.098   4.754   4.377
 2791SOL     OW 8704   1.014   3.960   4.695
 2791SOL    HW1 8705   1.006   3.924   4.602
 2791SOL    HW2 8706   1.012   3.884   4.760
 2792SOL     OW 8707   1.709   4.109   5.105
 2792SOL    HW1 8708   1.782   4.178   5.109
 2792SOL    HW2 8709   1.737   4.034   5.046
 2793SOL     OW 8710   0.672   3.927   5.213
 2793SOL    HW1 8711   0.762   3.911   5.173
 2793SOL    HW2 8712   0.680   3.932   5.312
 2794SOL     OW 8713   0.075   4.069   3.757
 2794SOL    HW1 8714  -0.017   4.041   3.728
 2794SOL    HW2 8715   0.106   4.146   3.701
 2795SOL     OW 8716   0.072   3.890   4.042
 2795SOL    HW1 8717   0.055   3.973   3.988
 2795SOL    HW2 8718   0.162   3.853   4.020
 2796SOL     OW 8719   0.716   4.289   5.432
 2796SOL    HW1 8720   0.735   4.354   5.506
 2796SOL    HW2 8721   0.776   4.209   5.441
 2797SOL     OW 8722   1.225   4.049   4.173
 2797SOL    HW1 8723   1.290   3.975   4.162
 2797SOL    HW2 8724   1.245   4.099   4.257
 2798SOL     OW 8725   1.777   4.066   5.366
 2798SOL    HW1 8726   1.760   4.097   5.272
 2798SOL    HW2 8727   1.693   4.029   5.404
 2799SOL     OW 8728   1.083   4.708   3.811
 2799SOL    HW1 8729   1.060   4.761   3.729
 2799SOL    HW2 8730   1.164   4.652   3.792
 2800SOL     OW 8731   1.824   3.916   4.951
 2800SOL    HW1 8732   1.820   3.826   4.995
 2800SOL    HW2 8733   1.827   3.905   4.852
 2801SOL     OW 8734   0.428   4.148   4.244
 2801SOL    HW1 8735   0.458   4.076   4.182
 2801SOL    HW2 8736   0.389   4.108   4.327
 2802SOL     OW 8737   0.317   4.271   5.004
 2802SOL    HW1 8738   0.355   4.212   5.076
 2802SOL    HW2 8739   0.357   4.245   4.916
 2803SOL     OW 8740   1.424   3.938   4.836
 2803SOL    HW1 8741   1.476   3.873   4.891
 2803SOL    HW2 8742   1.375   4.001   4.897
 2804SOL     OW 8743   1.001   3.758   4.878
 2804SOL    HW1 8744   0.938   3.686   4.847
 2804SOL    HW2 8745   1.094   3.722   4.878
 2805SOL     OW 8746   1.352   3.776   3.892
 2805SOL    HW1 8747   1.387   3.735   3.808
 2805SOL    HW2 8748   1.262   3.738   3.912
 2806SOL     OW 8749   1.300   4.177   4.415
 2806SOL    HW1 8750   1.241   4.257   4.419
 2806SOL    HW2 8751   1.315   4.142   4.508
 2807SOL     OW 8752   1.593   3.945   4.606
 2807SOL    HW1 8753   1.509   3.944   4.660
 2807SOL    HW2 8754   1.595   4.028   4.550
 2808SOL     OW 8755   0.230   4.352   5.699
 2808SOL    HW1 8756   0.137   4.350   5.736
 2808SOL    HW2 8757   0.231   4.313   5.607
 2809SOL     OW 8758   0.225   3.999   6.582
 2809SOL    HW1 8759   0.260   3.982   6.674
 2809SOL    HW2 8760   0.137   3.954   6.570
 2810SOL     OW 8761   0.019   4.092   6.233
 2810SOL    HW1 8762  -0.063   4.135   6.272
 2810SOL    HW2 8763  -0.009   4.019   6.170
 2811SOL     OW 8764   1.755   4.331   5.817
 2811SOL    HW1 8765   1.743   4.318   5.718
 2811SOL    HW2 8766   1.725   4.250   5.866
 2812SOL     OW 8767   0.685   4.736   6.251
 2812SOL    HW1 8768   0.754   4.720   6.321
 2812SOL    HW2 8769   0.612   4.793   6.289
 2813SOL     OW 8770   0.438   4.116   7.085
 2813SOL    HW1 8771   0.520   4.060   7.094
 2813SOL    HW2 8772   0.357   4.058   7.089
 2814SOL     OW 8773   1.603   4.171   6.323
 2814SOL    HW1 8774   1.529   4.217   6.273
 2814SOL    HW2 8775   1.654   4.239   6.376
 2815SOL     OW 8776   1.594   3.838   7.066
 2815SOL    HW1 8777   1.576   3.905   6.994
 2815SOL    HW2 8778   1.591   3.884   7.155
 2816SOL     OW 8779   0.122   4.367   6.149
 2816SOL    HW1 8780   0.077   4.279   6.166
 2816SOL    HW2 8781   0.121   4.421   6.233
 2817SOL     OW 8782   0.113   4.461   7.183
 2817SOL    HW1 8783   0.201   4.448   7.228
 2817SOL    HW2 8784   0.100   4.558   7.161
 2818SOL     OW 8785   0.809   3.728   6.088
 2818SOL    HW1 8786   0.849   3.819   6.079
 2818SOL    HW2 8787   0.709   3.736   6.094
 2819SOL     OW 8788   0.317   3.975   7.387
 2819SOL    HW1 8789   0.388   4.046   7.393
 2819SOL    HW2 8790   0.229   4.014   7.415
 2820SOL     OW 8791   1.281   4.069   6.530
 2820SOL    HW1 8792   1.195   4.019   6.517
 2820SOL    HW2 8793   1.343   4.015   6.586
 2821SOL     OW 8794   0.807   4.329   7.051
 2821SOL    HW1 8795   0.760   4.326   7.140
 2821SOL    HW2 8796   0.756   4.274   6.985
 2822SOL     OW 8797   1.394   4.193   7.260
 2822SOL    HW1 8798   1.374   4.236   7.348
 2822SOL    HW2 8799   1.472   4.131   7.269
 2823SOL     OW 8800   0.991   4.134   6.828
 2823SOL    HW1 8801   0.914   4.168   6.882
 2823SOL    HW2 8802   0.957   4.083   6.749
 2824SOL     OW 8803   1.041   4.425   6.015
 2824SOL    HW1 8804   1.067   4.421   6.111
 2824SOL    HW2 8805   0.956   4.374   6.001
 2825SOL     OW 8806   0.076   4.535   6.375
 2825SOL    HW1 8807   0.175   4.523   6.384
 2825SOL    HW2 8808   0.052   4.630   6.396
 2826SOL     OW 8809   0.865   4.072   5.781
 2826SOL    HW1 8810   0.924   4.135   5.732
 2826SOL    HW2 8811   0.884   3.978   5.752
 2827SOL     OW 8812   1.719   4.309   7.417
 2827SOL    HW1 8813   1.693   4.398   7.381
 2827SOL    HW2 8814   1.717   4.241   7.344
 2828SOL     OW 8815   0.550   3.920   6.471
 2828SOL    HW1 8816   0.545   3.915   6.571
 2828SOL    HW2 8817   0.552   4.016   6.442
 2829SOL     OW 8818   1.458   4.459   6.314
 2829SOL    HW1 8819   1.453   4.394   6.389
 2829SOL    HW2 8820   1.538   4.518   6.327
 2830SOL     OW 8821   0.202   4.009   7.084
 2830SOL    HW1 8822   0.122   4.069   7.071
 2830SOL    HW2 8823   0.192   3.960   7.170
 2831SOL     OW 8824   1.400   3.831   6.012
 2831SOL    HW1 8825   1.376   3.794   5.922
 2831SOL    HW2 8826   1.499   3.847   6.016
 2832SOL     OW 8827   0.382   4.424   6.066
 2832SOL    HW1 8828   0.427   4.334   6.063
 2832SOL    HW2 8829   0.288   4.413   6.099
 2833SOL     OW 8830   1.547   3.946   7.315
 2833SOL    HW1 8831   1.542   3.983   7.407
 2833SOL    HW2 8832   1.475   3.877   7.303
 2834SOL     OW 8833   0.614   3.846   5.703
 2834SOL    HW1 8834   0.712   3.824   5.710
 2834SOL    HW2 8835   0.583   3.829   5.610
 2835SOL     OW 8836   0.781   3.988   7.335
 2835SOL    HW1 8837   0.848   3.927   7.378
 2835SOL    HW2 8838   0.708   4.007   7.400
 2836SOL     OW 8839   1.351   4.314   7.019
 2836SOL    HW1 8840   1.379   4.271   7.104
 2836SOL    HW2 8841   1.376   4.410   7.020
 2837SOL     OW 8842   0.922   4.227   6.485
 2837SOL    HW1 8843   0.897   4.218   6.389
 2837SOL    HW2 8844   0.970   4.145   6.516
 2838SOL     OW 8845   0.539   3.788   6.098
 2838SOL    HW1 8846   0.458   3.789   6.156
 2838SOL    HW2 8847   0.542   3.871   6.043
 2839SOL     OW 8848   0.297   3.759   5.757
 2839SOL    HW1 8849   0.346   3.843   5.736
 2839SOL    HW2 8850   0.359   3.694   5.802
 2840SOL     OW 8851   0.935   3.960   6.066
 2840SOL    HW1 8852   0.887   4.001   5.988
 2840SOL    HW2 8853   1.034   3.958   6.047
 2841SOL     OW 8854   1.076   4.407   7.050
 2841SOL    HW1 8855   0.996   4.346   7.053
 2841SOL    HW2 8856   1.157   4.354   7.026
 2842SOL     OW 8857   1.032   4.273   5.602
 2842SOL    HW1 8858   0.991   4.355   5.563
 2842SOL    HW2 8859   1.096   4.299   5.675
 2843SOL     OW 8860   0.078   4.280   6.972
 2843SOL    HW1 8861   0.170   4.279   6.931
 2843SOL    HW2 8862   0.072   4.354   7.039
 2844SOL     OW 8863   0.561   3.946   6.733
 2844SOL    HW1 8864   0.599   3.862   6.770
 2844SOL    HW2 8865   0.473   3.965   6.777
 2845SOL     OW 8866   0.866   4.178   6.228
 2845SOL    HW1 8867   0.834   4.250   6.166
 2845SOL    HW2 8868   0.890   4.097   6.175
 2846SOL     OW 8869   1.017   3.763   6.339
 2846SOL    HW1 8870   0.945   3.768   6.270
 2846SOL    HW2 8871   0.993   3.694   6.408
 2847SOL     OW 8872   1.466   4.314   6.578
 2847SOL    HW1 8873   1.436   4.219   6.585
 2847SOL    HW2 8874   1.539   4.330   6.644
 2848SOL     OW 8875   1.390   4.299   5.664
 2848SOL    HW1 8876   1.336   4.278   5.745
 2848SOL    HW2 8877   1.481   4.258   5.673
 2849SOL     OW 8878   0.527   3.980   5.914
 2849SOL    HW1 8879   0.554   3.921   5.839
 2849SOL    HW2 8880   0.527   4.075   5.883
 2850SOL     OW 8881   0.915   3.813   6.988
 2850SOL    HW1 8882   0.940   3.793   6.893
 2850SOL    HW2 8883   0.987   3.869   7.030
 2851SOL     OW 8884   0.410   4.537   6.837
 2851SOL    HW1 8885   0.496   4.549   6.887
 2851SOL    HW2 8886   0.368   4.450   6.864
 2852SOL     OW 8887   1.274   4.110   6.848
 2852SOL    HW1 8888   1.295   4.184   6.912
 2852SOL    HW2 8889   1.185   4.127   6.805
 2853SOL     OW 8890   0.566   4.261   6.451
 2853SOL    HW1 8891   0.578   4.327   6.377
 2853SOL    HW2 8892   0.612   4.295   6.534
 2854SOL     OW 8893   1.582   4.363   6.058
 2854SOL    HW1 8894   1.551   4.424   6.131
 2854SOL    HW2 8895   1.632   4.415   5.989
 2855SOL     OW 8896   1.013   3.829   7.356
 2855SOL    HW1 8897   1.019   3.914   7.304
 2855SOL    HW2 8898   1.045   3.753   7.299
 2856SOL     OW 8899   0.504   3.774   7.326
 2856SOL    HW1 8900   0.462   3.717   7.256
 2856SOL    HW2 8901   0.438   3.843   7.358
 2857SOL     OW 8902   1.209   4.249   5.861
 2857SOL    HW1 8903   1.222   4.165   5.915
 2857SOL    HW2 8904   1.180   4.323   5.921
 2858SOL     OW 8905   0.307   3.937   6.817
 2858SOL    HW1 8906   0.284   3.974   6.907
 2858SOL    HW2 8907   0.277   3.842   6.811
 2859SOL     OW 8908   0.732   4.358   6.650
 2859SOL    HW1 8909   0.791   4.332   6.574
 2859SOL    HW2 8910   0.704   4.454   6.639
 2860SOL     OW 8911   1.728   4.659   7.440
 2860SOL    HW1 8912   1.682   4.652   7.351
 2860SOL    HW2 8913   1.666   4.703   7.506
 2861SOL     OW 8914   0.307   3.787   6.204
 2861SOL    HW1 8915   0.296   3.881   6.237
 2861SOL    HW2 8916   0.302   3.724   6.281
 2862SOL     OW 8917   1.622   4.091   5.960
 2862SOL    HW1 8918   1.624   4.015   6.024
 2862SOL    HW2 8919   1.574   4.168   6.000
 2863SOL     OW 8920   1.540   3.998   5.711
 2863SOL    HW1 8921   1.479   3.923   5.734
 2863SOL    HW2 8922   1.562   4.050   5.794
 2864SOL     OW 8923   0.319   4.534   6.535
 2864SOL    HW1 8924   0.412   4.570   6.540
 2864SOL    HW2 8925   0.313   4.449   6.587
 2865SOL     OW 8926   0.339   4.233   6.592
 2865SOL    HW1 8927   0.287   4.150   6.575
 2865SOL    HW2 8928   0.416   4.238   6.528
 2866SOL     OW 8929   1.138   4.104   7.264
 2866SOL    HW1 8930   1.093   4.167   7.328
 2866SOL    HW2 8931   1.231   4.135   7.247
 2867SOL     OW 8932   1.160   3.931   7.063
 2867SOL    HW1 8933   1.160   3.995   7.140
 2867SOL    HW2 8934   1.188   3.979   6.980
 2868SOL     OW 8935   0.040   4.268   6.700
 2868SOL    HW1 8936   0.125   4.235   6.659
 2868SOL    HW2 8937   0.053   4.283   6.798
 2869SOL     OW 8938   0.189   4.244   7.308
 2869SOL    HW1 8939   0.248   4.204   7.238
 2869SOL    HW2 8940   0.131   4.315   7.267
 2870SOL     OW 8941   0.815   4.296   5.911
 2870SOL    HW1 8942   0.822   4.207   5.865
 2870SOL    HW2 8943   0.721   4.330   5.903
 2871SOL     OW 8944   1.657   4.328   6.792
 2871SOL    HW1 8945   1.619   4.259   6.854
 2871SOL    HW2 8946   1.739   4.292   6.748
 2872SOL     OW 8947   0.671   4.188   6.855
 2872SOL    HW1 8948   0.637   4.099   6.825
 2872SOL    HW2 8949   0.697   4.242   6.775
 2873SOL     OW 8950   0.473   4.224   5.777
 2873SOL    HW1 8951   0.534   4.304   5.781
 2873SOL    HW2 8952   0.378   4.255   5.784
 2874SOL     OW 8953   1.726   3.859   6.109
 2874SOL    HW1 8954   1.799   3.842   6.042
 2874SOL    HW2 8955   1.695   3.772   6.147
 2875SOL     OW 8956   1.280   4.651   6.258
 2875SOL    HW1 8957   1.340   4.570   6.260
 2875SOL    HW2 8958   1.320   4.720   6.198
 2876SOL     OW 8959   1.841   3.899   6.549
 2876SOL    HW1 8960   1.880   3.814   6.513
 2876SOL    HW2 8961   1.743   3.901   6.530
 2877SOL     OW 8962   0.263   4.050   6.306
 2877SOL    HW1 8963   0.184   4.101   6.272
 2877SOL    HW2 8964   0.254   4.035   6.404
 2878SOL     OW 8965   0.916   4.634   5.877
 2878SOL    HW1 8966   0.979   4.672   5.809
 2878SOL    HW2 8967   0.956   4.551   5.916
 2879SOL     OW 8968   1.039   4.822   6.282
 2879SOL    HW1 8969   0.969   4.775   6.336
 2879SOL    HW2 8970   1.098   4.754   6.239
 2880SOL     OW 8971   1.014   3.960   6.557
 2880SOL    HW1 8972   1.006   3.924   6.464
 2880SOL    HW2 8973   1.012   3.884   6.622
 2881SOL     OW 8974   1.709   4.109   6.967
 2881SOL    HW1 8975   1.782   4.178   6.971
 2881SOL    HW2 8976   1.737   4.034   6.908
 2882SOL     OW 8977   0.672   3.927   7.075
 2882SOL    HW1 8978   0.762   3.911   7.035
 2882SOL    HW2 8979   0.680   3.932   7.174
 2883SOL     OW 8980   0.075   4.069   5.619
 2883SOL    HW1 8981  -0.017   4.041   5.590
 2883SOL    HW2 8982   0.106   4.146   5.563
 2884SOL     OW 8983   0.072   3.890   5.904
 2884SOL    HW1 8984   0.055   3.973   5.850
 2884SOL    HW2 8985   0.162   3.853   5.882
 2885SOL     OW 8986   0.716   4.289   7.294
 2885SOL    HW1 8987   0.735   4.354   7.368
 2885SOL    HW2 8988   0.776   4.209   7.303
 2886SOL     OW 8989   1.225   4.049   6.035
 2886SOL    HW1 8990   1.290   3.975   6.024
 2886SOL    HW2 8991   1.245   4.099   6.119
 2887SOL     OW 8992   1.777   4.066   7.228
 2887SOL    HW1 8993   1.760   4.097   7.134
 2887SOL    HW2 8994   1.693   4.029   7.266
 2888SOL     OW 8995   1.083   4.708   5.673
 2888SOL    HW1 8996   1.060   4.761   5.591
 2888SOL    HW2 8997   1.164   4.652   5.654
 2889SOL     OW 8998   1.824   3.916   6.813
 2889SOL    HW1 8999   1.820   3.826   6.857
 2889SOL    HW2 9000   1.827   3.905   6.714
 2890SOL     OW 9001   0.428   4.148   6.106
 2890SOL    HW1 9002   0.458   4.076   6.044
 2890SOL    HW2 9003   0.389   4.108   6.189
 2891SOL     OW 9004   0.317   4.271   6.866
 2891SOL    HW1 9005   0.355   4.212   6.938
 2891SOL    HW2 9006   0.357   4.245   6.778
 2892SOL     OW 9007   1.424   3.938   6.698
 2892SOL    HW1 9008   1.476   3.873   6.753
 2892SOL    HW2 9009   1.375   4.001   6.759
 2893SOL     OW 9010   1.001   3.758   6.740
 2893SOL    HW1 9011   0.938   3.686   6.709
 2893SOL    HW2 9012   1.094   3.722   6.740
 2894SOL     OW 9013   1.352   3.776   5.754
 2894SOL    HW1 9014   1.387   3.735   5.670
 2894SOL    HW2 9015   1.262   3.738   5.774
 2895SOL     OW 9016   1.300   4.177   6.277
 2895SOL    HW1 9017   1.241   4.257   6.281
 2895SOL    HW2 9018   1.315   4.142   6.370
 2896SOL     OW 9019   1.593   3.945   6.468
 2896SOL    HW1 9020   1.509   3.944   6.522
 2896SOL    HW2 9021   1.595   4.028   6.412
 2897SOL     OW 9022   0.230   4.352   7.561
 2897SOL    HW1 9023   0.137   4.350   7.598
 2897SOL    HW2 9024   0.231   4.313   7.469
 2898SOL     OW 9025   0.225   3.999   8.444
 2898SOL    HW1 9026   0.260   3.982   8.536
 2898SOL    HW2 9027   0.137   3.954   8.432
 2899SOL     OW 9028   0.019   4.092   8.095
 2899SOL    HW1 9029  -0.063   4.135   8.134
 2899SOL    HW2 9030  -0.009   4.019   8.032
 2900SOL     OW 9031   1.755   4.331   7.679
 2900SOL    HW1 9032   1.743   4.318   7.580
 2900SOL    HW2 9033   1.725   4.250   7.728
 2901SOL     OW 9034   0.685   4.736   8.113
 2901SOL    HW1 9035   0.754   4.720   8.183
 2901SOL    HW2 9036   0.612   4.793   8.151
 2902SOL     OW 9037   0.438   4.116   8.947
 2902SOL    HW1 9038   0.520   4.060   8.956
 2902SOL    HW2 9039   0.357   4.058   8.951
 2903SOL     OW 9040   1.603   4.171   8.185
 2903SOL    HW1 9041   1.529   4.217   8.135
 2903SOL    HW2 9042   1.654   4.239   8.238
 2904SOL     OW 9043   1.594   3.838   8.928
 2904SOL    HW1 9044   1.576   3.905   8.856
 2904SOL    HW2 9045   1.591   3.884   9.017
 2905SOL     OW 9046   0.122   4.367   8.011
 2905SOL    HW1 9047   0.077   4.279   8.028
 2905SOL    HW2 9048   0.121   4.421   8.095
 2906SOL     OW 9049   0.113   4.461   9.045
 2906SOL    HW1 9050   0.201   4.448   9.090
 2906SOL    HW2 9051   0.100   4.558   9.023
 2907SOL     OW 9052   0.809   3.728   7.950
 2907SOL    HW1 9053   0.849   3.819   7.941
 2907SOL    HW2 9054   0.709   3.736   7.956
 2908SOL     OW 9055   0.317   3.975   9.249
 2908SOL    HW1 9056   0.388   4.046   9.255
 2908SOL    HW2 9057   0.229   4.014   9.277
 2909SOL     OW 9058   1.281   4.069   8.392
 2909SOL    HW1 9059   1.195   4.019   8.379
 2909SOL    HW2 9060   1.343   4.015   8.448
 2910SOL     OW 9061   0.807   4.329   8.913
 2910SOL    HW1 9062   0.760   4.326   9.002
 2910SOL    HW2 9063   0.756   4.274   8.847
 2911SOL     OW 9064   1.394   4.193   9.122
 2911SOL    HW1 9065   1.374   4.236   9.210
 2911SOL    HW2 9066   1.472   4.131   9.131
 2912SOL     OW 9067   0.991   4.134   8.690
 2912SOL    HW1 9068   0.914   4.168   8.744
 2912SOL    HW2 9069   0.957   4.083   8.611
 2913SOL     OW 9070   1.041   4.425   7.877
 2913SOL    HW1 9071   1.067   4.421   7.973
 2913SOL    HW2 9072   0.956   4.374   7.863
 2914SOL     OW 9073   0.076   4.535   8.237
 2914SOL    HW1 9074   0.175   4.523   8.246
 2914SOL    HW2 9075   0.052   4.630   8.258
 2915SOL     OW 9076   0.865   4.072   7.643
 2915SOL    HW1 9077   0.924   4.135   7.594
 2915SOL    HW2 9078   0.884   3.978   7.614
 2916SOL     OW 9079   1.719   4.309   9.279
 2916SOL    HW1 9080   1.693   4.398   9.243
 2916SOL    HW2 9081   1.717   4.241   9.206
 2917SOL     OW 9082   0.550   3.920   8.333
 2917SOL    HW1 9083   0.545   3.915   8.433
 2917SOL    HW2 9084   0.552   4.016   8.304
 2918SOL     OW 9085   1.458   4.459   8.176
 2918SOL    HW1 9086   1.453   4.394   8.251
 2918SOL    HW2 9087   1.538   4.518   8.189
 2919SOL     OW 9088   0.202   4.009   8.946
 2919SOL    HW1 9089   0.122   4.069   8.933
 2919SOL    HW2 9090   0.192   3.960   9.032
 2920SOL     OW 9091   1.400   3.831   7.874
 2920SOL    HW1 9092   1.376   3.794   7.784
 2920SOL    HW2 9093   1.499   3.847   7.878
 2921SOL     OW 9094   0.382   4.424   7.928
 2921SOL    HW1 9095   0.427   4.334   7.925
 2921SOL    HW2 9096   0.288   4.413   7.961
 2922SOL     OW 9097   1.547   3.946   9.177
 2922SOL    HW1 9098   1.542   3.983   9.269
 2922SOL    HW2 9099   1.475   3.877   9.165
 2923SOL     OW 9100   0.614   3.846   7.565
 2923SOL    HW1 9101   0.712   3.824   7.572
 2923SOL    HW2 9102   0.583   3.829   7.472
 2924SOL     OW 9103   0.781   3.988   9.197
 2924SOL    HW1 9104   0.848   3.927   9.240
 2924SOL    HW2 9105   0.708   4.007   9.262
 2925SOL     OW 9106   1.351   4.314   8.881
 2925SOL    HW1 9107   1.379   4.271   8.966
 2925SOL    HW2 9108   1.376   4.410   8.882
 2926SOL     OW 9109   0.922   4.227   8.347
 2926SOL    HW1 9110   0.897   4.218   8.251
 2926SOL    HW2 9111   0.970   4.145   8.378
 2927SOL     OW 9112   0.539   3.788   7.960
 2927SOL    HW1 9113   0.458   3.789   8.018
 2927SOL    HW2 9114   0.542   3.871   7.905
 2928SOL     OW 9115   0.297   3.759   7.619
 2928SOL    HW1 9116   0.346   3.843   7.598
 2928SOL    HW2 9117   0.359   3.694   7.664
 2929SOL     OW 9118   0.935   3.960   7.928
 2929SOL    HW1 9119   0.887   4.001   7.850
 2929SOL    HW2 9120   1.034   3.958   7.909
 2930SOL     OW 9121   1.076   4.407   8.912
 2930SOL    HW1 9122   0.996   4.346   8.915
 2930SOL    HW2 9123   1.157   4.354   8.888
 2931SOL     OW 9124   1.032   4.273   7.464
 2931SOL    HW1 9125   0.991   4.355   7.425
 2931SOL    HW2 9126   1.096   4.299   7.537
 2932SOL     OW 9127   0.078   4.280   8.834
 2932SOL    HW1 9128   0.170   4.279   8.793
 2932SOL    HW2 9129   0.072   4.354   8.901
 2933SOL     OW 9130   0.561   3.946   8.595
 2933SOL    HW1 9131   0.599   3.862   8.632
 2933SOL    HW2 9132   0.473   3.965   8.639
 2934SOL     OW 9133   0.866   4.178   8.090
 2934SOL    HW1 9134   0.834   4.250   8.028
 2934SOL    HW2 9135   0.890   4.097   8.037
 2935SOL     OW 9136   1.017   3.763   8.201
 2935SOL    HW1 9137   0.945   3.768   8.132
 2935SOL    HW2 9138   0.993   3.694   8.270
 2936SOL     OW 9139   1.466   4.314   8.440
 2936SOL    HW1 9140   1.436   4.219   8.447
 2936SOL    HW2 9141   1.539   4.330   8.506
 2937SOL     OW 9142   1.390   4.299   7.526
 2937SOL    HW1 9143   1.336   4.278   7.607
 2937SOL    HW2 9144   1.481   4.258   7.535
 2938SOL     OW 9145   0.527   3.980   7.776
 2938SOL    HW1 9146   0.554   3.921   7.701
 2938SOL    HW2 9147   0.527   4.075   7.745
 2939SOL     OW 9148   0.915   3.813   8.850
 2939SOL    HW1 9149   0.940   3.793   8.755
 2939SOL    HW2 9150   0.987   3.869   8.892
 2940SOL     OW 9151   0.410   4.537   8.699
 2940SOL    HW1 9152   0.496   4.549   8.749
 2940SOL    HW2 9153   0.368   4.450   8.726
 2941SOL     OW 9154   1.274   4.110   8.710
 2941SOL    HW1 9155   1.295   4.184   8.774
 2941SOL    HW2 9156   1.185   4.127   8.667
 2942SOL     OW 9157   0.566   4.261   8.313
 2942SOL    HW1 9158   0.578   4.327   8.239
 2942SOL    HW2 9159   0.612   4.295   8.396
 2943SOL     OW 9160   1.582   4.363   7.920
 2943SOL    HW1 9161   1.551   4.424   7.993
 2943SOL    HW2 9162   1.632   4.415   7.851
 2944SOL     OW 9163   1.013   3.829   9.218
 2944SOL    HW1 9164   1.019   3.914   9.166
 2944SOL    HW2 9165   1.045   3.753   9.161
 2945SOL     OW 9166   0.504   3.774   9.188
 2945SOL    HW1 9167   0.462   3.717   9.118
 2945SOL    HW2 9168   0.438   3.843   9.220
 2946SOL     OW 9169   1.209   4.249   7.723
 2946SOL    HW1 9170   1.222   4.165   7.777
 2946SOL    HW2 9171   1.180   4.323   7.783
 2947SOL     OW 9172   0.307   3.937   8.679
 2947SOL    HW1 9173   0.284   3.974   8.769
 2947SOL    HW2 9174   0.277   3.842   8.673
 2948SOL     OW 9175   0.732   4.358   8.512
 2948SOL    HW1 9176   0.791   4.332   8.436
 2948SOL    HW2 9177   0.704   4.454   8.501
 2949SOL     OW 9178   1.728   4.659   9.302
 2949SOL    HW1 9179   1.682   4.652   9.213
 2949SOL    HW2 9180   1.666   4.703   9.368
 2950SOL     OW 9181   0.307   3.787   8.066
 2950SOL    HW1 9182   0.296   3.881   8.099
 2950SOL    HW2 9183   0.302   3.724   8.143
 2951SOL     OW 9184   1.622   4.091   7.822
 2951SOL    HW1 9185   1.624   4.015   7.886
 2951SOL    HW2 9186   1.574   4.168   7.862
 2952SOL     OW 9187   1.540   3.998   7.573
 2952SOL    HW1 9188   1.479   3.923   7.596
 2952SOL    HW2 9189   1.562   4.050   7.656
 2953SOL     OW 9190   0.319   4.534   8.397
 2953SOL    HW1 9191   0.412   4.570   8.402
 2953SOL    HW2 9192   0.313   4.449   8.449
 2954SOL     OW 9193   0.339   4.233   8.454
 2954SOL    HW1 9194   0.287   4.150   8.437
 2954SOL    HW2 9195   0.416   4.238   8.390
 2955SOL     OW 9196   1.138   4.104   9.126
 2955SOL    HW1 9197   1.093   4.167   9.190
 2955SOL    HW2 9198   1.231   4.135   9.109
 2956SOL     OW 9199   1.160   3.931   8.925
 2956SOL    HW1 9200   1.160   3.995   9.002
 2956SOL    HW2 9201   1.188   3.979   8.842
 2957SOL     OW 9202   0.040   4.268   8.562
 2957SOL    HW1 9203   0.125   4.235   8.521
 2957SOL    HW2 9204   0.053   4.283   8.660
 2958SOL     OW 9205   0.189   4.244   9.170
 2958SOL    HW1 9206   0.248   4.204   9.100
 2958SOL    HW2 9207   0.131   4.315   9.129
 2959SOL     OW 9208   0.815   4.296   7.773
 2959SOL    HW1 9209   0.822   4.207   7.727
 2959SOL    HW2 9210   0.721   4.330   7.765
 2960SOL     OW 9211   1.657   4.328   8.654
 2960SOL    HW1 9212   1.619   4.259   8.716
 2960SOL    HW2 9213   1.739   4.292   8.610
 2961SOL     OW 9214   0.671   4.188   8.717
 2961SOL    HW1 9215   0.637   4.099   8.687
 2961SOL    HW2 9216   0.697   4.242   8.637
 2962SOL     OW 9217   0.473   4.224   7.639
 2962SOL    HW1 9218   0.534   4.304   7.643
 2962SOL    HW2 9219   0.378   4.255   7.646
 2963SOL     OW 9220   1.726   3.859   7.971
 2963SOL    HW1 9221   1.799   3.842   7.904
 2963SOL    HW2 9222   1.695   3.772   8.009
 2964SOL     OW 9223   1.280   4.651   8.120
 2964SOL    HW1 9224   1.340   4.570   8.122
 2964SOL    HW2 9225   1.320   4.720   8.060
 2965SOL     OW 9226   1.841   3.899   8.411
 2965SOL    HW1 9227   1.880   3.814   8.375
 2965SOL    HW2 9228   1.743   3.901   8.392
 2966SOL     OW 9229   0.263   4.050   8.168
 2966SOL    HW1 9230   0.184   4.101   8.134
 2966SOL    HW2 9231   0.254   4.035   8.266
 2967SOL     OW 9232   0.916   4.634   7.739
 2967SOL    HW1 9233   0.979   4.672   7.671
 2967SOL    HW2 9234   0.956   4.551   7.778
 2968SOL     OW 9235   1.039   4.822   8.144
 2968SOL    HW1 9236   0.969   4.775   8.198
 2968SOL    HW2 9237   1.098   4.754   8.101
 2969SOL     OW 9238   1.014   3.960   8.419
 2969SOL    HW1 9239   1.006   3.924   8.326
 2969SOL    HW2 9240   1.012   3.884   8.484
 2970SOL     OW 9241   1.709   4.109   8.829
 2970SOL    HW1 9242   1.782   4.178   8.833
 2970SOL    HW2 9243   1.737   4.034   8.770
 2971SOL     OW 9244   0.672   3.927   8.937
 2971SOL    HW1 9245   0.762   3.911   8.897
 2971SOL    HW2 9246   0.680   3.932   9.036
 2972SOL     OW 9247   0.075   4.069   7.481
 2972SOL    HW1 9248  -0.017   4.041   7.452
 2972SOL    HW2 9249   0.106   4.146   7.425
 2973SOL     OW 9250   0.072   3.890   7.766
 2973SOL    HW1 9251   0.055   3.973   7.712
 2973SOL    HW2 9252   0.162   3.853   7.744
 2974SOL     OW 9253   0.716   4.289   9.156
 2974SOL    HW1 9254   0.735   4.354   9.230
 2974SOL    HW2 9255   0.776   4.209   9.165
 2975SOL     OW 9256   1.225   4.049   7.897
 2975SOL    HW1 9257   1.290   3.975   7.886
 2975SOL    HW2 9258   1.245   4.099   7.981
 2976SOL     OW 9259   1.777   4.066   9.090
 2976SOL    HW1 9260   1.760   4.097   8.996
 2976SOL    HW2 9261   1.693   4.029   9.128
 2977SOL     OW 9262   1.083   4.708   7.535
 2977SOL    HW1 9263   1.060   4.761   7.453
 2977SOL    HW2 9264   1.164   4.652   7.516
 2978SOL     OW 9265   1.824   3.916   8.675
 2978SOL    HW1 9266   1.820   3.826   8.719
 2978SOL    HW2 9267   1.827   3.905   8.576
 2979SOL     OW 9268   0.428   4.148   7.968
 2979SOL    HW1 9269   0.458   4.076   7.906
 2979SOL    HW2 9270   0.389   4.108   8.051
 2980SOL     OW 9271   0.317   4.271   8.728
 2980SOL    HW1 9272   0.355   4.212   8.800
 2980SOL    HW2 9273   0.357   4.245   8.640
 2981SOL     OW 9274   1.424   3.938   8.560
 2981SOL    HW1 9275   1.476   3.873   8.615
 2981SOL    HW2 9276   1.375   4.001   8.621
 2982SOL     OW 9277   1.001   3.758   8.602
 2982SOL    HW1 9278   0.938   3.686   8.571
 2982SOL    HW2 9279   1.094   3.722   8.602
 2983SOL     OW 9280   1.352   3.776   7.616
 2983SOL    HW1 9281   1.387   3.735   7.532
 2983SOL    HW2 9282   1.262   3.738   7.636
 2984SOL     OW 9283   1.300   4.177   8.139
 2984SOL    HW1 9284   1.241   4.257   8.143
 2984SOL    HW2 9285   1.315   4.142   8.232
 2985SOL     OW 9286   1.593   3.945   8.330
 2985SOL    HW1 9287   1.509   3.944   8.384
 2985SOL    HW2 9288   1.595   4.028   8.274
 2986SOL     OW 9289   0.230   4.352   9.423
 2986SOL    HW1 9290   0.137   4.350   9.460
 2986SOL    HW2 9291   0.231   4.313   9.331
 2987SOL     OW 9292   0.225   3.999  10.306
 2987SOL    HW1 9293   0.260   3.982  10.398
 2987SOL    HW2 9294   0.137   3.954  10.294
 2988SOL     OW 9295   0.019   4.092   9.957
 2988SOL    HW1 9296  -0.063   4.135   9.996
 2988SOL    HW2 9297  -0.009   4.019   9.894
 2989SOL     OW 9298   1.755   4.331   9.541
 2989SOL    HW1 9299   1.743   4.318   9.442
 2989SOL    HW2 9300   1.725   4.250   9.590
 2990SOL     OW 9301   0.685   4.736   9.975
 2990SOL    HW1 9302   0.754   4.720  10.045
 2990SOL    HW2 9303   0.612   4.793  10.013
 2991SOL     OW 9304   0.438   4.116  10.809
 2991SOL    HW1 9305   0.520   4.060  10.818
 2991SOL    HW2 9306   0.357   4.058  10.813
 2992SOL     OW 9307   1.603   4.171  10.047
 2992SOL    HW1 9308   1.529   4.217   9.997
 2992SOL    HW2 9309   1.654   4.239  10.100
 2993SOL     OW 9310   1.594   3.838  10.790
 2993SOL    HW1 9311   1.576   3.905  10.718
 2993SOL    HW2 9312   1.591   3.884  10.879
 2994SOL     OW 9313   0.122   4.367   9.873
 2994SOL    HW1 9314   0.077   4.279   9.890
 2994SOL    HW2 9315   0.121   4.421   9.957
 2995SOL     OW 9316   0.113   4.461  10.907
 2995SOL    HW1 9317   0.201   4.448  10.952
 2995SOL    HW2 9318   0.100   4.558  10.885
 2996SOL     OW 9319   0.809   3.728   9.812
 2996SOL    HW1 9320   0.849   3.819   9.803
 2996SOL    HW2 9321   0.709   3.736   9.818
 2997SOL     OW 9322   0.317   3.975  11.111
 2997SOL    HW1 9323   0.388   4.046  11.117
 2997SOL    HW2 9324   0.229   4.014  11.139
 2998SOL     OW 9325   1.281   4.069  10.254
 2998SOL    HW1 9326   1.195   4.019  10.241
 2998SOL    HW2 9327   1.343   4.015  10.310
 2999SOL     OW 9328   0.807   4.329  10.775
 2999SOL    HW1 9329   0.760   4.326  10.864
 2999SOL    HW2 9330   0.756   4.274  10.709
 3000SOL     OW 9331   1.394   4.193  10.984
 3000SOL    HW1 9332   1.374   4.236  11.072
 3000SOL    HW2 9333   1.472   4.131  10.993
 3001SOL     OW 9334   0.991   4.134  10.552
 3001SOL    HW1 9335   0.914   4.168  10.606
 3001SOL    HW2 9336   0.957   4.083  10.473
 3002SOL     OW 9337   1.041   4.425   9.739
 3002SOL    HW1 9338   1.067   4.421   9.835
 3002SOL    HW2 9339   0.956   4.374   9.725
 3003SOL     OW 9340   0.076   4.535  10.099
 3003SOL    HW1 9341   0.175   4.523  10.108
 3003SOL    HW2 9342   0.052   4.630  10.120
 3004SOL     OW 9343   0.865   4.072   9.505
 3004SOL    HW1 9344   0.924   4.135   9.456
 3004SOL    HW2 9345   0.884   3.978   9.476
 3005SOL     OW 9346   1.719   4.309  11.141
 3005SOL    HW1 9347   1.693   4.398  11.105
 3005SOL    HW2 9348   1.717   4.241  11.068
 3006SOL     OW 9349   0.550   3.920  10.195
 3006SOL    HW1 9350   0.545   3.915  10.295
 3006SOL    HW2 9351   0.552   4.016  10.166
 3007SOL     OW 9352   1.458   4.459  10.038
 3007SOL    HW1 9353   1.453   4.394  10.113
 3007SOL    HW2 9354   1.538   4.518  10.051
 3008SOL     OW 9355   0.202   4.009  10.808
 3008SOL    HW1 9356   0.122   4.069  10.795
 3008SOL    HW2 9357   0.192   3.960  10.894
 3009SOL     OW 9358   1.400   3.831   9.736
 3009SOL    HW1 9359   1.376   3.794   9.646
 3009SOL    HW2 9360   1.499   3.847   9.740
 3010SOL     OW 9361   0.382   4.424   9.790
 3010SOL    HW1 9362   0.427   4.334   9.787
 3010SOL    HW2 9363   0.288   4.413   9.823
 3011SOL     OW 9364   1.547   3.946  11.039
 3011SOL    HW1 9365   1.542   3.983  11.131
 3011SOL    HW2 9366   1.475   3.877  11.027
 3012SOL     OW 9367   0.614   3.846   9.427
 3012SOL    HW1 9368   0.712   3.824   9.434
 3012SOL    HW2 9369   0.583   3.829   9.334
 3013SOL     OW 9370   0.781   3.988  11.059
 3013SOL    HW1 9371   0.848   3.927  11.102
 3013SOL    HW2 9372   0.708   4.007  11.124
 3014SOL     OW 9373   1.351   4.314  10.743
 3014SOL    HW1 9374   1.379   4.271  10.828
 3014SOL    HW2 9375   1.376   4.410  10.744
 3015SOL     OW 9376   0.922   4.227  10.209
 3015SOL    HW1 9377   0.897   4.218  10.113
 3015SOL    HW2 9378   0.970   4.145  10.240
 3016SOL     OW 9379   0.539   3.788   9.822
 3016SOL    HW1 9380   0.458   3.789   9.880
 3016SOL    HW2 9381   0.542   3.871   9.767
 3017SOL     OW 9382   0.297   3.759   9.481
 3017SOL    HW1 9383   0.346   3.843   9.460
 3017SOL    HW2 9384   0.359   3.694   9.526
 3018SOL     OW 9385   0.935   3.960   9.790
 3018SOL    HW1 9386   0.887   4.001   9.712
 3018SOL    HW2 9387   1.034   3.958   9.771
 3019SOL     OW 9388   1.076   4.407  10.774
 3019SOL    HW1 9389   0.996   4.346  10.777
 3019SOL    HW2 9390   1.157   4.354  10.750
 3020SOL     OW 9391   1.032   4.273   9.326
 3020SOL    HW1 9392   0.991   4.355   9.287
 3020SOL    HW2 9393   1.096   4.299   9.399
 3021SOL     OW 9394   0.078   4.280  10.696
 3021SOL    HW1 9395   0.170   4.279  10.655
 3021SOL    HW2 9396   0.072   4.354  10.763
 3022SOL     OW 9397   0.561   3.946  10.457
 3022SOL    HW1 9398   0.599   3.862  10.494
 3022SOL    HW2 9399   0.473   3.965  10.501
 3023SOL     OW 9400   0.866   4.178   9.952
 3023SOL    HW1 9401   0.834   4.250   9.890
 3023SOL    HW2 9402   0.890   4.097   9.899
 3024SOL     OW 9403   1.017   3.763  10.063
 3024SOL    HW1 9404   0.945   3.768   9.994
 3024SOL    HW2 9405   0.993   3.694  10.132
 3025SOL     OW 9406   1.466   4.314  10.302
 3025SOL    HW1 9407   1.436   4.219  10.309
 3025SOL    HW2 9408   1.539   4.330  10.368
 3026SOL     OW 9409   1.390   4.299   9.388
 3026SOL    HW1 9410   1.336   4.278   9.469
 3026SOL    HW2 9411   1.481   4.258   9.397
 3027SOL     OW 9412   0.527   3.980   9.638
 3027SOL    HW1 9413   0.554   3.921   9.563
 3027SOL    HW2 9414   0.527   4.075   9.607
 3028SOL     OW 9415   0.915   3.813  10.712
 3028SOL    HW1 9416   0.940   3.793  10.617
 3028SOL    HW2 9417   0.987   3.869  10.754
 3029SOL     OW 9418   0.410   4.537  10.561
 3029SOL    HW1 9419   0.496   4.549  10.611
 3029SOL    HW2 9420   0.368   4.450  10.588
 3030SOL     OW 9421   1.274   4.110  10.572
 3030SOL    HW1 9422   1.295   4.184  10.636
 3030SOL    HW2 9423   1.185   4.127  10.529
 3031SOL     OW 9424   0.566   4.261  10.175
 3031SOL    HW1 9425   0.578   4.327  10.101
 3031SOL    HW2 9426   0.612   4.295  10.258
 3032SOL     OW 9427   1.582   4.363   9.782
 3032SOL    HW1 9428   1.551   4.424   9.855
 3032SOL    HW2 9429   1.632   4.415   9.713
 3033SOL     OW 9430   1.013   3.829  11.080
 3033SOL    HW1 9431   1.019   3.914  11.028
 3033SOL    HW2 9432   1.045   3.753  11.023
 3034SOL     OW 9433   0.504   3.774  11.050
 3034SOL    HW1 9434   0.462   3.717  10.980
 3034SOL    HW2 9435   0.438   3.843  11.082
 3035SOL     OW 9436   1.209   4.249   9.585
 3035SOL    HW1 9437   1.222   4.165   9.639
 3035SOL    HW2 9438   1.180   4.323   9.645
 3036SOL     OW 9439   0.307   3.937  10.541
 3036SOL    HW1 9440   0.284   3.974  10.631
 3036SOL    HW2 9441   0.277   3.842  10.535
 3037SOL     OW 9442   0.732   4.358  10.374
 3037SOL    HW1 9443   0.791   4.332  10.298
 3037SOL    HW2 9444   0.704   4.454  10.363
 3038SOL     OW 9445   1.728   4.659  11.164
 3038SOL    HW1 9446   1.682   4.652  11.075
 3038SOL    HW2 9447   1.666   4.703  11.230
 3039SOL     OW 9448   0.307   3.787   9.928
 3039SOL    HW1 9449   0.296   3.881   9.961
 3039SOL    HW2 9450   0.302   3.724  10.005
 3040SOL     OW 9451   1.622   4.091   9.684
 3040SOL    HW1 9452   1.624   4.015   9.748
 3040SOL    HW2 9453   1.574   4.168   9.724
 3041SOL     OW 9454   1.540   3.998   9.435
 3041SOL    HW1 9455   1.479   3.923   9.458
 3041SOL    HW2 9456   1.562   4.050   9.518
 3042SOL     OW 9457   0.319   4.534  10.259
 3042SOL    HW1 9458   0.412   4.570  10.264
 3042SOL    HW2 9459   0.313   4.449  10.311
 3043SOL     OW 9460   0.339   4.233  10.316
 3043SOL    HW1 9461   0.287   4.150  10.299
 3043SOL    HW2 9462   0.416   4.238  10.252
 3044SOL     OW 9463   1.138   4.104  10.988
 3044SOL    HW1 9464   1.093   4.167  11.052
 3044SOL    HW2 9465   1.231   4.135  10.971
 3045SOL     OW 9466   1.160   3.931  10.787
 3045SOL    HW1 9467   1.160   3.995  10.864
 3045SOL    HW2 9468   1.188   3.979  10.704
 3046SOL     OW 9469   0.040   4.268  10.424
 3046SOL    HW1 9470   0.125   4.235  10.383
 3046SOL    HW2 9471   0.053   4.283  10.522
 3047SOL     OW 9472   0.189   4.244  11.032
 3047SOL    HW1 9473   0.248   4.204  10.962
 3047SOL    HW2 9474   0.131   4.315  10.991
 3048SOL     OW 9475   0.815   4.296   9.635
 3048SOL    HW1 9476   0.822   4.207   9.589
 3048SOL    HW2 9477   0.721   4.330   9.627
 3049SOL     OW 9478   1.657   4.328  10.516
 3049SOL    HW1 9479   1.619   4.259  10.578
 3049SOL    HW2 9480   1.739   4.292  10.472
 3050SOL     OW 9481   0.671   4.188  10.579
 3050SOL    HW1 9482   0.637   4.099  10.549
 3050SOL    HW2 9483   0.697   4.242  10.499
 3051SOL     OW 9484   0.473   4.224   9.501
 3051SOL    HW1 9485   0.534   4.304   9.505
 3051SOL    HW2 9486   0.378   4.255   9.508
 3052SOL     OW 9487   1.726   3.859   9.833
 3052SOL    HW1 9488   1.799   3.842   9.766
 3052SOL    HW2 9489   1.695   3.772   9.871
 3053SOL     OW 9490   1.280   4.651   9.982
 3053SOL    HW1 9491   1.340   4.570   9.984
 3053SOL    HW2 9492   1.320   4.720   9.922
 3054SOL     OW 9493   1.841   3.899  10.273
 3054SOL    HW1 9494   1.880   3.814  10.237
 3054SOL    HW2 9495   1.743   3.901  10.254
 3055SOL     OW 9496   0.263   4.050  10.030
 3055SOL    HW1 9497   0.184   4.101   9.996
 3055SOL    HW2 9498   0.254   4.035  10.128
 3056SOL     OW 9499   0.916   4.634   9.601
 3056SOL    HW1 9500   0.979   4.672   9.533
 3056SOL    HW2 9501   0.956   4.551   9.640
 3057SOL     OW 9502   1.039   4.822  10.006
 3057SOL    HW1 9503   0.969   4.775  10.060
 3057SOL    HW2 9504   1.098   4.754   9.963
 3058SOL     OW 9505   1.014   3.960  10.281
 3058SOL    HW1 9506   1.006   3.924  10.188
 3058SOL    HW2 9507   1.012   3.884  10.346
 3059SOL     OW 9508   1.709   4.109  10.691
 3059SOL    HW1 9509   1.782   4.178  10.695
 3059SOL    HW2 9510   1.737   4.034  10.632
 3060SOL     OW 9511   0.672   3.927  10.799
 3060SOL    HW1 9512   0.762   3.911  10.759
 3060SOL    HW2 9513   0.680   3.932  10.898
 3061SOL     OW 9514   0.075   4.069   9.343
 3061SOL    HW1 9515  -0.017   4.041   9.314
 3061SOL    HW2 9516   0.106   4.146   9.287
 3062SOL     OW 9517   0.072   3.890   9.628
 3062SOL    HW1 9518   0.055   3.973   9.574
 3062SOL    HW2 9519   0.162   3.853   9.606
 3063SOL     OW 9520   0.716   4.289  11.018
 3063SOL    HW1 9521   0.735   4.354  11.092
 3063SOL    HW2 9522   0.776   4.209  11.027
 3064SOL     OW 9523   1.225   4.049   9.759
 3064SOL    HW1 9524   1.290   3.975   9.748
 3064SOL    HW2 9525   1.245   4.099   9.843
 3065SOL     OW 9526   1.777   4.066  10.952
 3065SOL    HW1 9527   1.760   4.097  10.858
 3065SOL    HW2 9528   1.693   4.029  10.990
 3066SOL     OW 9529   1.083   4.708   9.397
 3066SOL    HW1 9530   1.060   4.761   9.315
 3066SOL    HW2 9531   1.164   4.652   9.378
 3067SOL     OW 9532   1.824   3.916  10.537
 3067SOL    HW1 9533   1.820   3.826  10.581
 3067SOL    HW2 9534   1.827   3.905  10.438
 3068SOL     OW 9535   0.428   4.148   9.830
 3068SOL    HW1 9536   0.458   4.076   9.768
 3068SOL    HW2 9537   0.389   4.108   9.913
 3069SOL     OW 9538   0.317   4.271  10.590
 3069SOL    HW1 9539   0.355   4.212  10.662
 3069SOL    HW2 9540   0.357   4.245  10.502
 3070SOL     OW 9541   1.424   3.938  10.422
 3070SOL    HW1 9542   1.476   3.873  10.477
 3070SOL    HW2 9543   1.375   4.001  10.483
 3071SOL     OW 9544   1.001   3.758  10.464
 3071SOL    HW1 9545   0.938   3.686  10.433
 3071SOL    HW2 9546   1.094   3.722  10.464
 3072SOL     OW 9547   1.352   3.776   9.478
 3072SOL    HW1 9548   1.387   3.735   9.394
 3072SOL    HW2 9549   1.262   3.738   9.498
 3073SOL     OW 9550   1.300   4.177  10.001
 3073SOL    HW1 9551   1.241   4.257  10.005
 3073SOL    HW2 9552   1.315   4.142  10.094
 3074SOL     OW 9553   1.593   3.945  10.192
 3074SOL    HW1 9554   1.509   3.944  10.246
 3074SOL    HW2 9555   1.595   4.028  10.136
 3075SOL     OW 9556   2.092   0.628   0.113
 3075SOL    HW1 9557   1.999   0.626   0.150
 3075SOL    HW2 9558   2.093   0.589   0.021
 3076SOL     OW 9559   2.087   0.275   0.996
 3076SOL    HW1 9560   2.122   0.258   1.088
 3076SOL    HW2 9561   1.999   0.230   0.984
 3077SOL     OW 9562   1.881   0.368   0.647
 3077SOL    HW1 9563   1.799   0.411   0.686
 3077SOL    HW2 9564   1.853   0.295   0.584
 3078SOL     OW 9565   2.431   1.275   1.165
 3078SOL    HW1 9566   2.338   1.268   1.128
 3078SOL    HW2 9567   2.442   1.364   1.209
 3079SOL     OW 9568   3.417   1.511   0.703
 3079SOL    HW1 9569   3.360   1.495   0.784
 3079SOL    HW2 9570   3.358   1.521   0.623
 3080SOL     OW 9571   2.997   0.703   0.717
 3080SOL    HW1 9572   3.054   0.781   0.692
 3080SOL    HW2 9573   2.937   0.729   0.793
 3081SOL     OW 9574   3.617   0.607   0.231
 3081SOL    HW1 9575   3.605   0.594   0.132
 3081SOL    HW2 9576   3.587   0.526   0.280
 3082SOL     OW 9577   2.630   1.144   1.023
 3082SOL    HW1 9578   2.552   1.161   1.083
 3082SOL    HW2 9579   2.664   1.231   0.987
 3083SOL     OW 9580   2.712   0.798   1.823
 3083SOL    HW1 9581   2.708   0.874   1.888
 3083SOL    HW2 9582   2.734   0.834   1.732
 3084SOL     OW 9583   2.547   1.012   0.665
 3084SOL    HW1 9584   2.616   0.996   0.735
 3084SOL    HW2 9585   2.474   1.069   0.703
 3085SOL     OW 9586   2.548   1.161   1.803
 3085SOL    HW1 9587   2.608   1.240   1.817
 3085SOL    HW2 9588   2.462   1.192   1.762
 3086SOL     OW 9589   2.197   1.435   1.061
 3086SOL    HW1 9590   2.119   1.404   1.008
 3086SOL    HW2 9591   2.255   1.493   1.004
 3087SOL     OW 9592   3.322   1.505   1.339
 3087SOL    HW1 9593   3.346   1.599   1.365
 3087SOL    HW2 9594   3.306   1.451   1.421
 3088SOL     OW 9595   2.300   0.392   1.499
 3088SOL    HW1 9596   2.382   0.336   1.508
 3088SOL    HW2 9597   2.219   0.334   1.503
 3089SOL     OW 9598   3.465   0.447   0.737
 3089SOL    HW1 9599   3.391   0.493   0.687
 3089SOL    HW2 9600   3.516   0.515   0.790
 3090SOL     OW 9601   2.093   1.713   0.483
 3090SOL    HW1 9602   2.127   1.790   0.537
 3090SOL    HW2 9603   2.137   1.713   0.393
 3091SOL     OW 9604   2.989   1.341   1.690
 3091SOL    HW1 9605   3.036   1.341   1.778
 3091SOL    HW2 9606   2.941   1.254   1.679
 3092SOL     OW 9607   2.092   1.434   0.538
 3092SOL    HW1 9608   2.066   1.530   0.538
 3092SOL    HW2 9609   2.021   1.380   0.583
 3093SOL     OW 9610   2.102   1.091   0.886
 3093SOL    HW1 9611   2.116   1.007   0.938
 3093SOL    HW2 9612   2.047   1.155   0.941
 3094SOL     OW 9613   2.482   1.786   1.439
 3094SOL    HW1 9614   2.390   1.769   1.474
 3094SOL    HW2 9615   2.510   1.878   1.465
 3095SOL     OW 9616   2.468   0.964   0.123
 3095SOL    HW1 9617   2.475   1.048   0.069
 3095SOL    HW2 9618   2.514   0.977   0.211
 3096SOL     OW 9619   3.456   0.114   1.480
 3096SOL    HW1 9620   3.438   0.181   1.408
 3096SOL    HW2 9621   3.453   0.160   1.569
 3097SOL     OW 9622   1.984   0.643   0.563
 3097SOL    HW1 9623   1.939   0.555   0.580
 3097SOL    HW2 9624   1.983   0.697   0.647
 3098SOL     OW 9625   3.704   1.767   0.359
 3098SOL    HW1 9626   3.758   1.738   0.439
 3098SOL    HW2 9627   3.734   1.857   0.330
 3099SOL     OW 9628   1.889   1.596   0.117
 3099SOL    HW1 9629   1.870   1.500   0.138
 3099SOL    HW2 9630   1.856   1.654   0.192
 3100SOL     OW 9631   3.551   0.922   0.612
 3100SOL    HW1 9632   3.646   0.893   0.620
 3100SOL    HW2 9633   3.543   0.987   0.537
 3101SOL     OW 9634   3.503   1.108   0.432
 3101SOL    HW1 9635   3.589   1.110   0.380
 3101SOL    HW2 9636   3.517   1.155   0.520
 3102SOL     OW 9637   1.975   0.737   1.597
 3102SOL    HW1 9638   2.063   0.724   1.642
 3102SOL    HW2 9639   1.962   0.834   1.575
 3103SOL     OW 9640   2.475   1.365   0.726
 3103SOL    HW1 9641   2.426   1.278   0.735
 3103SOL    HW2 9642   2.452   1.408   0.639
 3104SOL     OW 9643   3.155   1.228   1.423
 3104SOL    HW1 9644   3.192   1.155   1.365
 3104SOL    HW2 9645   3.207   1.233   1.508
 3105SOL     OW 9646   2.671   0.004   0.502
 3105SOL    HW1 9647   2.711   0.095   0.493
 3105SOL    HW2 9648   2.571   0.012   0.508
 3106SOL     OW 9649   2.059   0.976   1.264
 3106SOL    HW1 9650   2.148   0.931   1.250
 3106SOL    HW2 9651   1.986   0.911   1.245
 3107SOL     OW 9652   3.387   0.999   0.190
 3107SOL    HW1 9653   3.324   0.923   0.203
 3107SOL    HW2 9654   3.435   1.017   0.276
 3108SOL     OW 9655   3.049   1.792   1.616
 3108SOL    HW1 9656   3.073   1.852   1.540
 3108SOL    HW2 9657   3.056   1.697   1.586
 3109SOL     OW 9658   2.179   0.251   1.801
 3109SOL    HW1 9659   2.250   0.322   1.807
 3109SOL    HW2 9660   2.091   0.290   1.829
 3110SOL     OW 9661   3.328   1.417   0.953
 3110SOL    HW1 9662   3.269   1.423   1.033
 3110SOL    HW2 9663   3.313   1.329   0.907
 3111SOL     OW 9664   3.529   1.714   0.572
 3111SOL    HW1 9665   3.488   1.691   0.484
 3111SOL    HW2 9666   3.511   1.640   0.637
 3112SOL     OW 9667   2.460   0.729   0.270
 3112SOL    HW1 9668   2.484   0.798   0.202
 3112SOL    HW2 9669   2.382   0.762   0.324
 3113SOL     OW 9670   3.143   0.345   0.944
 3113SOL    HW1 9671   3.057   0.295   0.931
 3113SOL    HW2 9672   3.205   0.291   1.000
 3114SOL     OW 9673   3.438   1.662   0.307
 3114SOL    HW1 9674   3.527   1.708   0.310
 3114SOL    HW2 9675   3.417   1.638   0.212
 3115SOL     OW 9676   2.669   0.605   1.465
 3115SOL    HW1 9677   2.622   0.602   1.554
 3115SOL    HW2 9678   2.618   0.550   1.399
 3116SOL     OW 9679   3.256   0.469   1.674
 3116SOL    HW1 9680   3.236   0.512   1.762
 3116SOL    HW2 9681   3.334   0.407   1.683
 3117SOL     OW 9682   2.835   0.890   1.572
 3117SOL    HW1 9683   2.881   0.806   1.543
 3117SOL    HW2 9684   2.779   0.924   1.497
 3118SOL     OW 9685   2.853   0.410   1.242
 3118SOL    HW1 9686   2.776   0.444   1.296
 3118SOL    HW2 9687   2.819   0.359   1.163
 3119SOL     OW 9688   2.903   0.701   0.429
 3119SOL    HW1 9689   2.929   0.697   0.525
 3119SOL    HW2 9690   2.818   0.650   0.415
 3120SOL     OW 9691   1.938   0.811   0.789
 3120SOL    HW1 9692   2.037   0.799   0.798
 3120SOL    HW2 9693   1.914   0.906   0.810
 3121SOL     OW 9694   1.992   1.821   1.571
 3121SOL    HW1 9695   1.982   1.806   1.670
 3121SOL    HW2 9696   1.906   1.857   1.535
 3122SOL     OW 9697   2.727   0.348   0.195
 3122SOL    HW1 9698   2.786   0.411   0.146
 3122SOL    HW2 9699   2.746   0.254   0.166
 3123SOL     OW 9700   3.581   0.585   1.831
 3123SOL    HW1 9701   3.555   0.674   1.795
 3123SOL    HW2 9702   3.579   0.517   1.758
 3124SOL     OW 9703   3.224   1.144   0.545
 3124SOL    HW1 9704   3.307   1.115   0.497
 3124SOL    HW2 9705   3.175   1.211   0.489
 3125SOL     OW 9706   2.412   0.196   0.885
 3125SOL    HW1 9707   2.407   0.191   0.985
 3125SOL    HW2 9708   2.414   0.292   0.856
 3126SOL     OW 9709   2.870   1.456   0.477
 3126SOL    HW1 9710   2.824   1.528   0.425
 3126SOL    HW2 9711   2.866   1.476   0.575
 3127SOL     OW 9712   2.213   1.801   0.853
 3127SOL    HW1 9713   2.263   1.715   0.859
 3127SOL    HW2 9714   2.278   1.878   0.850
 3128SOL     OW 9715   3.657   1.066   0.873
 3128SOL    HW1 9716   3.595   1.051   0.797
 3128SOL    HW2 9717   3.605   1.077   0.958
 3129SOL     OW 9718   3.089   1.550   1.506
 3129SOL    HW1 9719   3.095   1.473   1.570
 3129SOL    HW2 9720   3.037   1.524   1.426
 3130SOL     OW 9721   2.183   0.943   0.242
 3130SOL    HW1 9722   2.265   0.982   0.200
 3130SOL    HW2 9723   2.156   0.861   0.193
 3131SOL     OW 9724   3.320   0.735   0.728
 3131SOL    HW1 9725   3.315   0.670   0.803
 3131SOL    HW2 9726   3.400   0.794   0.741
 3132SOL     OW 9727   2.323   1.266   1.727
 3132SOL    HW1 9728   2.273   1.267   1.641
 3132SOL    HW2 9729   2.260   1.248   1.803
 3133SOL     OW 9730   2.973   1.776   0.237
 3133SOL    HW1 9731   2.913   1.714   0.287
 3133SOL    HW2 9732   3.004   1.732   0.152
 3134SOL     OW 9733   2.064   0.285   1.498
 3134SOL    HW1 9734   1.984   0.345   1.485
 3134SOL    HW2 9735   2.054   0.236   1.584
 3135SOL     OW 9736   3.494   1.377   0.081
 3135SOL    HW1 9737   3.462   1.471   0.071
 3135SOL    HW2 9738   3.418   1.314   0.069
 3136SOL     OW 9739   2.326   1.743   0.323
 3136SOL    HW1 9740   2.359   1.782   0.409
 3136SOL    HW2 9741   2.402   1.736   0.258
 3137SOL     OW 9742   3.262   0.107   0.426
 3137SOL    HW1 9743   3.238   0.070   0.336
 3137SOL    HW2 9744   3.361   0.123   0.430
 3138SOL     OW 9745   2.111   1.785   1.241
 3138SOL    HW1 9746   2.168   1.720   1.291
 3138SOL    HW2 9747   2.095   1.752   1.148
 3139SOL     OW 9748   2.802   1.698   0.904
 3139SOL    HW1 9749   2.882   1.641   0.925
 3139SOL    HW2 9750   2.753   1.658   0.827
 3140SOL     OW 9751   2.244   0.700   0.480
 3140SOL    HW1 9752   2.289   0.610   0.477
 3140SOL    HW2 9753   2.150   0.689   0.513
 3141SOL     OW 9754   3.409   0.222   1.729
 3141SOL    HW1 9755   3.404   0.259   1.821
 3141SOL    HW2 9756   3.337   0.153   1.717
 3142SOL     OW 9757   2.476   0.122   0.117
 3142SOL    HW1 9758   2.574   0.100   0.124
 3142SOL    HW2 9759   2.445   0.105   0.024
 3143SOL     OW 9760   2.643   0.264   1.749
 3143SOL    HW1 9761   2.710   0.203   1.792
 3143SOL    HW2 9762   2.570   0.283   1.814
 3144SOL     OW 9763   2.750   1.514   1.195
 3144SOL    HW1 9764   2.727   1.489   1.101
 3144SOL    HW2 9765   2.811   1.445   1.234
 3145SOL     OW 9766   3.213   0.590   1.433
 3145SOL    HW1 9767   3.241   0.547   1.518
 3145SOL    HW2 9768   3.238   0.686   1.434
 3146SOL     OW 9769   2.665   1.402   0.924
 3146SOL    HW1 9770   2.755   1.416   0.882
 3146SOL    HW2 9771   2.594   1.404   0.853
 3147SOL     OW 9772   2.784   0.503   0.899
 3147SOL    HW1 9773   2.759   0.494   0.803
 3147SOL    HW2 9774   2.832   0.421   0.930
 3148SOL     OW 9775   2.401   0.064   0.512
 3148SOL    HW1 9776   2.320   0.065   0.570
 3148SOL    HW2 9777   2.404   0.147   0.457
 3149SOL     OW 9778   3.296   1.188   0.041
 3149SOL    HW1 9779   3.328   1.112   0.098
 3149SOL    HW2 9780   3.204   1.215   0.071
 3150SOL     OW 9781   2.159   0.035   0.171
 3150SOL    HW1 9782   2.208   0.119   0.150
 3150SOL    HW2 9783   2.221  -0.030   0.216
 3151SOL     OW 9784   2.797   0.236   0.480
 3151SOL    HW1 9785   2.749   0.277   0.402
 3151SOL    HW2 9786   2.896   0.234   0.461
 3152SOL     OW 9787   2.938   0.683   1.464
 3152SOL    HW1 9788   2.858   0.622   1.467
 3152SOL    HW2 9789   3.019   0.630   1.440
 3153SOL     OW 9790   3.089   1.570   0.793
 3153SOL    HW1 9791   3.110   1.644   0.728
 3153SOL    HW2 9792   3.157   1.570   0.866
 3154SOL     OW 9793   2.321   1.152   0.741
 3154SOL    HW1 9794   2.250   1.125   0.806
 3154SOL    HW2 9795   2.295   1.124   0.648
 3155SOL     OW 9796   3.133   1.797   0.591
 3155SOL    HW1 9797   3.177   1.861   0.527
 3155SOL    HW2 9798   3.083   1.849   0.661
 3156SOL     OW 9799   2.894   0.549   0.016
 3156SOL    HW1 9800   2.853   0.631  -0.023
 3156SOL    HW2 9801   2.958   0.575   0.089
 3157SOL     OW 9802   1.940   0.556   1.386
 3157SOL    HW1 9803   2.032   0.555   1.345
 3157SOL    HW2 9804   1.934   0.630   1.453
 3158SOL     OW 9805   2.423   0.222   1.147
 3158SOL    HW1 9806   2.461   0.138   1.184
 3158SOL    HW2 9807   2.335   0.241   1.191
 3159SOL     OW 9808   2.728   0.454   0.642
 3159SOL    HW1 9809   2.696   0.526   0.580
 3159SOL    HW2 9810   2.752   0.373   0.589
 3160SOL     OW 9811   2.879   0.039   0.753
 3160SOL    HW1 9812   2.807   0.044   0.684
 3160SOL    HW2 9813   2.855  -0.030   0.822
 3161SOL     OW 9814   3.291   1.173   0.867
 3161SOL    HW1 9815   3.236   1.089   0.860
 3161SOL    HW2 9816   3.317   1.202   0.775
 3162SOL     OW 9817   3.328   0.590   0.992
 3162SOL    HW1 9818   3.298   0.495   0.999
 3162SOL    HW2 9819   3.401   0.606   1.058
 3163SOL     OW 9820   3.719   0.833   0.377
 3163SOL    HW1 9821   3.761   0.769   0.441
 3163SOL    HW2 9822   3.681   0.782   0.299
 3164SOL     OW 9823   2.350   1.385   0.174
 3164SOL    HW1 9824   2.263   1.370   0.221
 3164SOL    HW2 9825   2.333   1.411   0.079
 3165SOL     OW 9826   3.526   1.280   0.657
 3165SOL    HW1 9827   3.625   1.288   0.671
 3165SOL    HW2 9828   3.481   1.364   0.688
 3166SOL     OW 9829   3.252   0.575   0.078
 3166SOL    HW1 9830   3.198   0.554   0.159
 3166SOL    HW2 9831   3.343   0.534   0.087
 3167SOL     OW 9832   2.389   0.256   0.328
 3167SOL    HW1 9833   2.416   0.197   0.253
 3167SOL    HW2 9834   2.389   0.351   0.297
 3168SOL     OW 9835   3.616   1.223   1.588
 3168SOL    HW1 9836   3.707   1.184   1.575
 3168SOL    HW2 9837   3.624   1.319   1.612
 3169SOL     OW 9838   2.926   1.347   1.340
 3169SOL    HW1 9839   2.846   1.324   1.395
 3169SOL    HW2 9840   3.009   1.321   1.389
 3170SOL     OW 9841   3.454   1.629   1.625
 3170SOL    HW1 9842   3.481   1.663   1.535
 3170SOL    HW2 9843   3.533   1.591   1.671
 3171SOL     OW 9844   2.973   1.195   1.100
 3171SOL    HW1 9845   2.933   1.239   1.181
 3171SOL    HW2 9846   2.932   1.232   1.017
 3172SOL     OW 9847   3.500   1.099   1.079
 3172SOL    HW1 9848   3.505   1.180   1.138
 3172SOL    HW2 9849   3.414   1.101   1.028
 3173SOL     OW 9850   2.777   0.089   1.402
 3173SOL    HW1 9851   2.802   0.069   1.307
 3173SOL    HW2 9852   2.849   0.145   1.444
 3174SOL     OW 9853   2.842   1.116   1.719
 3174SOL    HW1 9854   2.743   1.122   1.729
 3174SOL    HW2 9855   2.865   1.036   1.663
 3175SOL     OW 9856   2.567   1.050   0.368
 3175SOL    HW1 9857   2.553   1.057   0.467
 3175SOL    HW2 9858   2.651   0.999   0.350
 3176SOL     OW 9859   2.272   0.813   1.251
 3176SOL    HW1 9860   2.358   0.825   1.301
 3176SOL    HW2 9861   2.230   0.726   1.278
 3177SOL     OW 9862   3.136   0.386   1.262
 3177SOL    HW1 9863   3.157   0.460   1.326
 3177SOL    HW2 9864   3.047   0.403   1.219
 3178SOL     OW 9865   1.926   1.564   1.331
 3178SOL    HW1 9866   1.880   1.646   1.297
 3178SOL    HW2 9867   2.024   1.583   1.340
 3179SOL     OW 9868   2.229   1.100   0.501
 3179SOL    HW1 9869   2.222   1.183   0.445
 3179SOL    HW2 9870   2.233   1.020   0.441
 3180SOL     OW 9871   2.428   0.537   0.865
 3180SOL    HW1 9872   2.440   0.603   0.791
 3180SOL    HW2 9873   2.474   0.571   0.948
 3181SOL     OW 9874   3.114   1.348   0.388
 3181SOL    HW1 9875   3.164   1.425   0.428
 3181SOL    HW2 9876   3.019   1.350   0.420
 3182SOL     OW 9877   3.134   1.445   1.142
 3182SOL    HW1 9878   3.181   1.458   1.229
 3182SOL    HW2 9879   3.068   1.371   1.151
 3183SOL     OW 9880   3.444   0.639   0.472
 3183SOL    HW1 9881   3.413   0.700   0.545
 3183SOL    HW2 9882   3.494   0.691   0.403
 3184SOL     OW 9883   2.216   1.510   1.329
 3184SOL    HW1 9884   2.195   1.466   1.242
 3184SOL    HW2 9885   2.313   1.536   1.332
 3185SOL     OW 9886   2.264   0.751   1.598
 3185SOL    HW1 9887   2.332   0.806   1.551
 3185SOL    HW2 9888   2.304   0.663   1.625
 3186SOL     OW 9889   3.449   0.779   1.670
 3186SOL    HW1 9890   3.357   0.817   1.665
 3186SOL    HW2 9891   3.509   0.826   1.605
 3187SOL     OW 9892   2.875   0.105   1.770
 3187SOL    HW1 9893   2.881   0.190   1.718
 3187SOL    HW2 9894   2.907   0.029   1.713
 3188SOL     OW 9895   2.366   0.050   1.740
 3188SOL    HW1 9896   2.324  -0.007   1.670
 3188SOL    HW2 9897   2.300   0.119   1.772
 3189SOL     OW 9898   2.435   0.870   1.029
 3189SOL    HW1 9899   2.479   0.959   1.020
 3189SOL    HW2 9900   2.372   0.870   1.106
 3190SOL     OW 9901   3.222   0.862   1.045
 3190SOL    HW1 9902   3.147   0.862   0.979
 3190SOL    HW2 9903   3.259   0.770   1.054
 3191SOL     OW 9904   3.071   0.525   0.275
 3191SOL    HW1 9905   3.084   0.441   0.329
 3191SOL    HW2 9906   3.042   0.599   0.335
 3192SOL     OW 9907   2.169   0.213   1.231
 3192SOL    HW1 9908   2.146   0.250   1.321
 3192SOL    HW2 9909   2.139   0.118   1.225
 3193SOL     OW 9910   1.899   1.310   1.282
 3193SOL    HW1 9911   1.952   1.261   1.350
 3193SOL    HW2 9912   1.921   1.408   1.287
 3194SOL     OW 9913   2.594   0.634   1.064
 3194SOL    HW1 9914   2.653   0.608   0.988
 3194SOL    HW2 9915   2.566   0.730   1.053
 3195SOL     OW 9916   3.590   0.935   1.854
 3195SOL    HW1 9917   3.544   0.928   1.765
 3195SOL    HW2 9918   3.528   0.979   1.920
 3196SOL     OW 9919   2.169   0.063   0.618
 3196SOL    HW1 9920   2.158   0.157   0.651
 3196SOL    HW2 9921   2.164   0.000   0.695
 3197SOL     OW 9922   3.484   0.367   0.374
 3197SOL    HW1 9923   3.486   0.291   0.438
 3197SOL    HW2 9924   3.436   0.444   0.414
 3198SOL     OW 9925   2.885   0.766   0.966
 3198SOL    HW1 9926   2.900   0.787   1.062
 3198SOL    HW2 9927   2.855   0.671   0.957
 3199SOL     OW 9928   2.842   1.573   1.700
 3199SOL    HW1 9929   2.822   1.617   1.612
 3199SOL    HW2 9930   2.881   1.482   1.684
 3200SOL     OW 9931   3.721   1.518   1.605
 3200SOL    HW1 9932   3.735   1.545   1.510
 3200SOL    HW2 9933   3.804   1.540   1.658
 3201SOL     OW 9934   2.212   0.898   1.804
 3201SOL    HW1 9935   2.288   0.942   1.852
 3201SOL    HW2 9936   2.247   0.851   1.722
 3202SOL     OW 9937   3.402   0.274   0.125
 3202SOL    HW1 9938   3.341   0.199   0.148
 3202SOL    HW2 9939   3.424   0.326   0.208
 3203SOL     OW 9940   3.165   0.838   0.042
 3203SOL    HW1 9941   3.199   0.745   0.057
 3203SOL    HW2 9942   3.183   0.865  -0.053
 3204SOL     OW 9943   2.930   1.333   0.849
 3204SOL    HW1 9944   2.937   1.249   0.794
 3204SOL    HW2 9945   2.992   1.402   0.813
 3205SOL     OW 9946   2.181   0.810   0.949
 3205SOL    HW1 9947   2.274   0.846   0.954
 3205SOL    HW2 9948   2.175   0.725   1.001
 3206SOL     OW 9949   2.201   0.509   1.006
 3206SOL    HW1 9950   2.149   0.426   0.989
 3206SOL    HW2 9951   2.278   0.514   0.942
 3207SOL     OW 9952   3.000   0.380   1.678
 3207SOL    HW1 9953   2.955   0.443   1.742
 3207SOL    HW2 9954   3.093   0.411   1.661
 3208SOL     OW 9955   3.022   0.207   1.477
 3208SOL    HW1 9956   3.022   0.271   1.554
 3208SOL    HW2 9957   3.050   0.255   1.394
 3209SOL     OW 9958   1.870   1.326   0.200
 3209SOL    HW1 9959   1.777   1.347   0.169
 3209SOL    HW2 9960   1.880   1.227   0.213
 3210SOL     OW 9961   1.950   1.801   0.927
 3210SOL    HW1 9962   1.908   1.715   0.900
 3210SOL    HW2 9963   2.044   1.804   0.893
 3211SOL     OW 9964   2.366   1.568   0.910
 3211SOL    HW1 9965   2.432   1.642   0.919
 3211SOL    HW2 9966   2.410   1.489   0.868
 3212SOL     OW 9967   2.864   0.796   1.238
 3212SOL    HW1 9968   2.905   0.764   1.324
 3212SOL    HW2 9969   2.768   0.769   1.235
 3213SOL     OW 9970   1.902   0.544   1.114
 3213SOL    HW1 9971   1.987   0.511   1.073
 3213SOL    HW2 9972   1.915   0.559   1.212
 3214SOL     OW 9973   2.051   0.520   1.722
 3214SOL    HW1 9974   2.110   0.480   1.652
 3214SOL    HW2 9975   1.993   0.591   1.681
 3215SOL     OW 9976   3.231   0.950   1.660
 3215SOL    HW1 9977   3.270   1.039   1.680
 3215SOL    HW2 9978   3.241   0.930   1.563
 3216SOL     OW 9979   2.677   0.572   0.325
 3216SOL    HW1 9980   2.684   0.483   0.279
 3216SOL    HW2 9981   2.583   0.606   0.317
 3217SOL     OW 9982   3.519   0.604   1.206
 3217SOL    HW1 9983   3.481   0.535   1.268
 3217SOL    HW2 9984   3.601   0.568   1.162
 3218SOL     OW 9985   2.114   1.564   1.744
 3218SOL    HW1 9986   2.084   1.621   1.820
 3218SOL    HW2 9987   2.107   1.467   1.770
 3219SOL     OW 9988   2.533   0.464   1.269
 3219SOL    HW1 9989   2.499   0.375   1.239
 3219SOL    HW2 9990   2.559   0.518   1.189
 3220SOL     OW 9991   2.792   1.678   1.465
 3220SOL    HW1 9992   2.768   1.660   1.370
 3220SOL    HW2 9993   2.822   1.772   1.475
 3221SOL     OW 9994   2.335   0.500   0.191
 3221SOL    HW1 9995   2.396   0.580   0.195
 3221SOL    HW2 9996   2.240   0.531   0.198
 3222SOL     OW 9997   2.021   1.137   1.466
 3222SOL    HW1 9998   2.043   1.076   1.542
 3222SOL    HW2 9999   2.031   1.088   1.380
 3223SOL     OW10000   3.209   1.059   1.234
 3223SOL    HW110001   3.233   0.996   1.160
 3223SOL    HW210002   3.119   1.099   1.216
 3224SOL     OW10003   3.164   0.855   0.309
 3224SOL    HW110004   3.078   0.824   0.351
 3224SOL    HW210005   3.160   0.841   0.210
 3225SOL     OW10006   3.621   1.747   1.154
 3225SOL    HW110007   3.682   1.777   1.081
 3225SOL    HW210008   3.583   1.658   1.132
 3226SOL     OW10009   3.114   1.731   1.128
 3226SOL    HW110010   3.198   1.736   1.074
 3226SOL    HW210011   3.091   1.635   1.146
 3227SOL     OW10012   1.945   1.258   1.022
 3227SOL    HW110013   1.940   1.257   1.122
 3227SOL    HW210014   1.862   1.217   0.984
 3228SOL     OW10015   2.550   1.662   1.716
 3228SOL    HW110016   2.494   1.743   1.725
 3228SOL    HW210017   2.602   1.666   1.630
 3229SOL     OW10018   2.765   0.086   0.133
 3229SOL    HW110019   2.816   0.087   0.047
 3229SOL    HW210020   2.821   0.044   0.204
 3230SOL     OW10021   3.588   0.135   0.523
 3230SOL    HW110022   3.661   0.118   0.456
 3230SOL    HW210023   3.557   0.048   0.561
 3231SOL     OW10024   3.250   1.573   0.477
 3231SOL    HW110025   3.317   1.585   0.403
 3231SOL    HW210026   3.210   1.662   0.500
 3232SOL     OW10027   1.992   1.794   1.851
 3232SOL    HW110028   1.951   1.720   1.904
 3232SOL    HW210029   2.056   1.845   1.909
 3233SOL     OW10030   3.142   0.927   0.672
 3233SOL    HW110031   3.202   0.846   0.674
 3233SOL    HW210032   3.182   0.996   0.612
 3234SOL     OW10033   2.692   1.273   1.422
 3234SOL    HW110034   2.687   1.306   1.517
 3234SOL    HW210035   2.606   1.292   1.376
 3235SOL     OW10036   2.534   1.616   0.154
 3235SOL    HW110037   2.543   1.626   0.055
 3235SOL    HW210038   2.494   1.527   0.175
 3236SOL     OW10039   3.512   1.720   1.394
 3236SOL    HW110040   3.565   1.730   1.310
 3236SOL    HW210041   3.485   1.810   1.428
 3237SOL     OW10042   3.703   0.175   0.963
 3237SOL    HW110043   3.742   0.090   0.927
 3237SOL    HW210044   3.605   0.177   0.944
 3238SOL     OW10045   2.125   0.326   0.720
 3238SOL    HW110046   2.046   0.377   0.686
 3238SOL    HW210047   2.116   0.311   0.818
 3239SOL     OW10048   3.056   1.612   0.031
 3239SOL    HW110049   3.062   1.519   0.068
 3239SOL    HW210050   2.997   1.612  -0.049
 3240SOL     OW10051   2.684   1.002   1.372
 3240SOL    HW110052   2.724   1.001   1.280
 3240SOL    HW210053   2.694   1.094   1.412
 3241SOL     OW10054   2.778   0.910   0.291
 3241SOL    HW110055   2.841   0.948   0.223
 3241SOL    HW210056   2.818   0.827   0.330
 3242SOL     OW10057   3.366   1.607   0.044
 3242SOL    HW110058   3.274   1.644   0.051
 3242SOL    HW210059   3.404   1.627  -0.046
 3243SOL     OW10060   2.234   1.288   1.490
 3243SOL    HW110061   2.221   1.381   1.456
 3243SOL    HW210062   2.150   1.236   1.477
 3244SOL     OW10063   3.476   1.292   1.289
 3244SOL    HW110064   3.536   1.295   1.369
 3244SOL    HW210065   3.401   1.356   1.302
 3245SOL     OW10066   2.901   1.098   0.696
 3245SOL    HW110067   2.831   1.051   0.750
 3245SOL    HW210068   2.960   1.030   0.653
 3246SOL     OW10069   2.876   0.236   0.971
 3246SOL    HW110070   2.868   0.200   0.878
 3246SOL    HW210071   2.874   0.160   1.036
 3247SOL     OW10072   2.452   1.487   0.491
 3247SOL    HW110073   2.494   1.429   0.421
 3247SOL    HW210074   2.408   1.566   0.447
 3248SOL     OW10075   3.571   0.385   1.381
 3248SOL    HW110076   3.644   0.454   1.385
 3248SOL    HW210077   3.599   0.310   1.322
 3249SOL     OW10078   2.117   1.348   0.290
 3249SOL    HW110079   2.021   1.349   0.263
 3249SOL    HW210080   2.129   1.401   0.374
 3250SOL     OW10081   1.967   1.013   1.726
 3250SOL    HW110082   1.890   0.980   1.780
 3250SOL    HW210083   2.052   0.983   1.768
 3251SOL     OW10084   2.534   0.203   1.489
 3251SOL    HW110085   2.624   0.187   1.449
 3251SOL    HW210086   2.542   0.208   1.588
 3252SOL     OW10087   1.937   0.345   0.033
 3252SOL    HW110088   1.845   0.317   0.004
 3252SOL    HW210089   1.968   0.422  -0.023
 3253SOL     OW10090   3.302   0.856   1.398
 3253SOL    HW110091   3.245   0.908   1.335
 3253SOL    HW210092   3.398   0.868   1.374
 3254SOL     OW10093   1.934   0.166   0.318
 3254SOL    HW110094   1.917   0.249   0.264
 3254SOL    HW210095   2.024   0.129   0.296
 3255SOL     OW10096   3.045   1.335   0.119
 3255SOL    HW110097   2.946   1.324   0.121
 3255SOL    HW210098   3.079   1.350   0.212
 3256SOL     OW10099   2.475   0.842   1.431
 3256SOL    HW110100   2.531   0.923   1.414
 3256SOL    HW210101   2.534   0.762   1.434
 3257SOL     OW10102   3.355   1.767   0.959
 3257SOL    HW110103   3.388   1.831   0.890
 3257SOL    HW210104   3.421   1.761   1.034
 3258SOL     OW10105   2.578   0.565   1.708
 3258SOL    HW110106   2.597   0.630   1.782
 3258SOL    HW210107   2.638   0.485   1.717
 3259SOL     OW10108   3.312   1.220   1.633
 3259SOL    HW110109   3.303   1.210   1.732
 3259SOL    HW210110   3.408   1.213   1.607
 3260SOL     OW10111   2.252   1.741   1.560
 3260SOL    HW110112   2.161   1.782   1.558
 3260SOL    HW210113   2.245   1.647   1.592
 3261SOL     OW10114   3.536   0.883   1.254
 3261SOL    HW110115   3.509   0.794   1.217
 3261SOL    HW210116   3.537   0.951   1.181
 3262SOL     OW10117   3.087   0.325   0.449
 3262SOL    HW110118   3.152   0.251   0.438
 3262SOL    HW210119   3.107   0.375   0.533
 3263SOL     OW10120   2.456   0.745   0.652
 3263SOL    HW110121   2.506   0.830   0.633
 3263SOL    HW210122   2.368   0.747   0.604
 3264SOL     OW10123   3.639   0.342   1.642
 3264SOL    HW110124   3.622   0.373   1.548
 3264SOL    HW210125   3.555   0.305   1.680
 3265SOL     OW10126   3.592   0.934   1.517
 3265SOL    HW110127   3.630   1.025   1.532
 3265SOL    HW210128   3.584   0.917   1.418
 3266SOL     OW10129   2.721   1.374   0.016
 3266SOL    HW110130   2.675   1.389   0.104
 3266SOL    HW210131   2.765   1.459  -0.014
 3267SOL     OW10132   2.523   1.790   0.953
 3267SOL    HW110133   2.477   1.878   0.940
 3267SOL    HW210134   2.622   1.802   0.946
 3268SOL     OW10135   2.721   0.956   0.861
 3268SOL    HW110136   2.775   0.887   0.909
 3268SOL    HW210137   2.689   1.025   0.927
 3269SOL     OW10138   2.945   0.984   0.087
 3269SOL    HW110139   2.922   1.037   0.005
 3269SOL    HW210140   3.026   0.928   0.068
 3270SOL     OW10141   3.723   1.569   0.851
 3270SOL    HW110142   3.652   1.557   0.781
 3270SOL    HW210143   3.724   1.490   0.911
 3271SOL     OW10144   2.083   1.314   1.844
 3271SOL    HW110145   2.018   1.241   1.823
 3271SOL    HW210146   2.087   1.328   1.942
 3272SOL     OW10147   1.941   1.240   0.653
 3272SOL    HW110148   1.940   1.193   0.741
 3272SOL    HW210149   2.023   1.212   0.602
 3273SOL     OW10150   2.534   1.391   1.624
 3273SOL    HW110151   2.456   1.341   1.662
 3273SOL    HW210152   2.531   1.486   1.655
 3274SOL     OW10153   3.686   0.192   1.227
 3274SOL    HW110154   3.682   0.102   1.271
 3274SOL    HW210155   3.689   0.181   1.128
 3275SOL     OW10156   2.290   0.424   0.520
 3275SOL    HW110157   2.320   0.352   0.458
 3275SOL    HW210158   2.251   0.384   0.603
 3276SOL     OW10159   3.567   1.487   1.104
 3276SOL    HW110160   3.474   1.462   1.077
 3276SOL    HW210161   3.593   1.437   1.186
 3277SOL     OW10162   2.179   0.547   1.280
 3277SOL    HW110163   2.217   0.488   1.352
 3277SOL    HW210164   2.219   0.521   1.192
 3278SOL     OW10165   2.674   1.586   0.687
 3278SOL    HW110166   2.706   1.596   0.593
 3278SOL    HW210167   2.595   1.524   0.689
 3279SOL     OW10168   3.286   0.214   1.112
 3279SOL    HW110169   3.338   0.149   1.167
 3279SOL    HW210170   3.237   0.277   1.173
 3280SOL     OW10171   2.863   0.034   1.154
 3280SOL    HW110172   2.800  -0.038   1.123
 3280SOL    HW210173   2.956  -0.002   1.154
 3281SOL     OW10174   2.632   1.330   0.301
 3281SOL    HW110175   2.586   1.243   0.318
 3281SOL    HW210176   2.723   1.327   0.342
 3282SOL     OW10177   2.480   1.567   1.284
 3282SOL    HW110178   2.475   1.649   1.341
 3282SOL    HW210179   2.569   1.564   1.239
 3283SOL     OW10180   3.214   0.052   0.168
 3283SOL    HW110181   3.249   0.011   0.084
 3283SOL    HW210182   3.124   0.014   0.188
 3284SOL     OW10183   3.162   0.453   0.691
 3284SOL    HW110184   3.103   0.533   0.695
 3284SOL    HW210185   3.177   0.418   0.784
 3285SOL     OW10186   3.455   0.221   0.882
 3285SOL    HW110187   3.371   0.220   0.936
 3285SOL    HW210188   3.457   0.304   0.826
 3286SOL     OW10189   1.901   1.077   0.300
 3286SOL    HW110190   2.000   1.066   0.291
 3286SOL    HW210191   1.861   0.991   0.332
 3287SOL     OW10192   2.737   1.646   0.337
 3287SOL    HW110193   2.660   1.611   0.283
 3287SOL    HW210194   2.705   1.717   0.399
 3288SOL     OW10195   2.092   0.628   1.975
 3288SOL    HW110196   1.999   0.626   2.012
 3288SOL    HW210197   2.093   0.589   1.883
 3289SOL     OW10198   2.087   0.275   2.858
 3289SOL    HW110199   2.122   0.258   2.950
 3289SOL    HW210200   1.999   0.230   2.846
 3290SOL     OW10201   1.881   0.368   2.509
 3290SOL    HW110202   1.799   0.411   2.548
 3290SOL    HW210203   1.853   0.295   2.446
 3291SOL     OW10204   2.431   1.275   3.027
 3291SOL    HW110205   2.338   1.268   2.990
 3291SOL    HW210206   2.442   1.364   3.071
 3292SOL     OW10207   3.417   1.511   2.565
 3292SOL    HW110208   3.360   1.495   2.646
 3292SOL    HW210209   3.358   1.521   2.485
 3293SOL     OW10210   2.997   0.703   2.579
 3293SOL    HW110211   3.054   0.781   2.554
 3293SOL    HW210212   2.937   0.729   2.655
 3294SOL     OW10213   3.617   0.607   2.093
 3294SOL    HW110214   3.605   0.594   1.994
 3294SOL    HW210215   3.587   0.526   2.142
 3295SOL     OW10216   2.630   1.144   2.885
 3295SOL    HW110217   2.552   1.161   2.945
 3295SOL    HW210218   2.664   1.231   2.849
 3296SOL     OW10219   2.712   0.798   3.685
 3296SOL    HW110220   2.708   0.874   3.750
 3296SOL    HW210221   2.734   0.834   3.594
 3297SOL     OW10222   2.547   1.012   2.527
 3297SOL    HW110223   2.616   0.996   2.597
 3297SOL    HW210224   2.474   1.069   2.565
 3298SOL     OW10225   2.548   1.161   3.665
 3298SOL    HW110226   2.608   1.240   3.679
 3298SOL    HW210227   2.462   1.192   3.624
 3299SOL     OW10228   2.197   1.435   2.923
 3299SOL    HW110229   2.119   1.404   2.870
 3299SOL    HW210230   2.255   1.493   2.866
 3300SOL     OW10231   3.322   1.505   3.201
 3300SOL    HW110232   3.346   1.599   3.227
 3300SOL    HW210233   3.306   1.451   3.283
 3301SOL     OW10234   2.300   0.392   3.361
 3301SOL    HW110235   2.382   0.336   3.370
 3301SOL    HW210236   2.219   0.334   3.365
 3302SOL     OW10237   3.465   0.447   2.599
 3302SOL    HW110238   3.391   0.493   2.549
 3302SOL    HW210239   3.516   0.515   2.652
 3303SOL     OW10240   2.093   1.713   2.345
 3303SOL    HW110241   2.127   1.790   2.399
 3303SOL    HW210242   2.137   1.713   2.255
 3304SOL     OW10243   2.989   1.341   3.552
 3304SOL    HW110244   3.036   1.341   3.640
 3304SOL    HW210245   2.941   1.254   3.541
 3305SOL     OW10246   2.092   1.434   2.400
 3305SOL    HW110247   2.066   1.530   2.400
 3305SOL    HW210248   2.021   1.380   2.445
 3306SOL     OW10249   2.102   1.091   2.748
 3306SOL    HW110250   2.116   1.007   2.800
 3306SOL    HW210251   2.047   1.155   2.803
 3307SOL     OW10252   2.482   1.786   3.301
 3307SOL    HW110253   2.390   1.769   3.336
 3307SOL    HW210254   2.510   1.878   3.327
 3308SOL     OW10255   2.468   0.964   1.985
 3308SOL    HW110256   2.475   1.048   1.931
 3308SOL    HW210257   2.514   0.977   2.073
 3309SOL     OW10258   3.456   0.114   3.342
 3309SOL    HW110259   3.438   0.181   3.270
 3309SOL    HW210260   3.453   0.160   3.431
 3310SOL     OW10261   1.984   0.643   2.425
 3310SOL    HW110262   1.939   0.555   2.442
 3310SOL    HW210263   1.983   0.697   2.509
 3311SOL     OW10264   3.704   1.767   2.221
 3311SOL    HW110265   3.758   1.738   2.301
 3311SOL    HW210266   3.734   1.857   2.192
 3312SOL     OW10267   1.889   1.596   1.979
 3312SOL    HW110268   1.870   1.500   2.000
 3312SOL    HW210269   1.856   1.654   2.054
 3313SOL     OW10270   3.551   0.922   2.474
 3313SOL    HW110271   3.646   0.893   2.482
 3313SOL    HW210272   3.543   0.987   2.399
 3314SOL     OW10273   3.503   1.108   2.294
 3314SOL    HW110274   3.589   1.110   2.242
 3314SOL    HW210275   3.517   1.155   2.382
 3315SOL     OW10276   1.975   0.737   3.459
 3315SOL    HW110277   2.063   0.724   3.504
 3315SOL    HW210278   1.962   0.834   3.437
 3316SOL     OW10279   2.475   1.365   2.588
 3316SOL    HW110280   2.426   1.278   2.597
 3316SOL    HW210281   2.452   1.408   2.501
 3317SOL     OW10282   3.155   1.228   3.285
 3317SOL    HW110283   3.192   1.155   3.227
 3317SOL    HW210284   3.207   1.233   3.370
 3318SOL     OW10285   2.671   0.004   2.364
 3318SOL    HW110286   2.711   0.095   2.355
 3318SOL    HW210287   2.571   0.012   2.370
 3319SOL     OW10288   2.059   0.976   3.126
 3319SOL    HW110289   2.148   0.931   3.112
 3319SOL    HW210290   1.986   0.911   3.107
 3320SOL     OW10291   3.387   0.999   2.052
 3320SOL    HW110292   3.324   0.923   2.065
 3320SOL    HW210293   3.435   1.017   2.138
 3321SOL     OW10294   3.049   1.792   3.478
 3321SOL    HW110295   3.073   1.852   3.402
 3321SOL    HW210296   3.056   1.697   3.448
 3322SOL     OW10297   2.179   0.251   3.663
 3322SOL    HW110298   2.250   0.322   3.669
 3322SOL    HW210299   2.091   0.290   3.691
 3323SOL     OW10300   3.328   1.417   2.815
 3323SOL    HW110301   3.269   1.423   2.895
 3323SOL    HW210302   3.313   1.329   2.769
 3324SOL     OW10303   3.529   1.714   2.434
 3324SOL    HW110304   3.488   1.691   2.346
 3324SOL    HW210305   3.511   1.640   2.499
 3325SOL     OW10306   2.460   0.729   2.132
 3325SOL    HW110307   2.484   0.798   2.064
 3325SOL    HW210308   2.382   0.762   2.186
 3326SOL     OW10309   3.143   0.345   2.806
 3326SOL    HW110310   3.057   0.295   2.793
 3326SOL    HW210311   3.205   0.291   2.862
 3327SOL     OW10312   3.438   1.662   2.169
 3327SOL    HW110313   3.527   1.708   2.172
 3327SOL    HW210314   3.417   1.638   2.074
 3328SOL     OW10315   2.669   0.605   3.327
 3328SOL    HW110316   2.622   0.602   3.416
 3328SOL    HW210317   2.618   0.550   3.261
 3329SOL     OW10318   3.256   0.469   3.536
 3329SOL    HW110319   3.236   0.512   3.624
 3329SOL    HW210320   3.334   0.407   3.545
 3330SOL     OW10321   2.835   0.890   3.434
 3330SOL    HW110322   2.881   0.806   3.405
 3330SOL    HW210323   2.779   0.924   3.359
 3331SOL     OW10324   2.853   0.410   3.104
 3331SOL    HW110325   2.776   0.444   3.158
 3331SOL    HW210326   2.819   0.359   3.025
 3332SOL     OW10327   2.903   0.701   2.291
 3332SOL    HW110328   2.929   0.697   2.387
 3332SOL    HW210329   2.818   0.650   2.277
 3333SOL     OW10330   1.938   0.811   2.651
 3333SOL    HW110331   2.037   0.799   2.660
 3333SOL    HW210332   1.914   0.906   2.672
 3334SOL     OW10333   1.992   1.821   3.433
 3334SOL    HW110334   1.982   1.806   3.532
 3334SOL    HW210335   1.906   1.857   3.397
 3335SOL     OW10336   2.727   0.348   2.057
 3335SOL    HW110337   2.786   0.411   2.008
 3335SOL    HW210338   2.746   0.254   2.028
 3336SOL     OW10339   3.581   0.585   3.693
 3336SOL    HW110340   3.555   0.674   3.657
 3336SOL    HW210341   3.579   0.517   3.620
 3337SOL     OW10342   3.224   1.144   2.407
 3337SOL    HW110343   3.307   1.115   2.359
 3337SOL    HW210344   3.175   1.211   2.351
 3338SOL     OW10345   2.412   0.196   2.747
 3338SOL    HW110346   2.407   0.191   2.847
 3338SOL    HW210347   2.414   0.292   2.718
 3339SOL     OW10348   2.870   1.456   2.339
 3339SOL    HW110349   2.824   1.528   2.287
 3339SOL    HW210350   2.866   1.476   2.437
 3340SOL     OW10351   2.213   1.801   2.715
 3340SOL    HW110352   2.263   1.715   2.721
 3340SOL    HW210353   2.278   1.878   2.712
 3341SOL     OW10354   3.657   1.066   2.735
 3341SOL    HW110355   3.595   1.051   2.659
 3341SOL    HW210356   3.605   1.077   2.820
 3342SOL     OW10357   3.089   1.550   3.368
 3342SOL    HW110358   3.095   1.473   3.432
 3342SOL    HW210359   3.037   1.524   3.288
 3343SOL     OW10360   2.183   0.943   2.104
 3343SOL    HW110361   2.265   0.982   2.062
 3343SOL    HW210362   2.156   0.861   2.055
 3344SOL     OW10363   3.320   0.735   2.590
 3344SOL    HW110364   3.315   0.670   2.665
 3344SOL    HW210365   3.400   0.794   2.603
 3345SOL     OW10366   2.323   1.266   3.589
 3345SOL    HW110367   2.273   1.267   3.503
 3345SOL    HW210368   2.260   1.248   3.665
 3346SOL     OW10369   2.973   1.776   2.099
 3346SOL    HW110370   2.913   1.714   2.149
 3346SOL    HW210371   3.004   1.732   2.014
 3347SOL     OW10372   2.064   0.285   3.360
 3347SOL    HW110373   1.984   0.345   3.347
 3347SOL    HW210374   2.054   0.236   3.446
 3348SOL     OW10375   3.494   1.377   1.943
 3348SOL    HW110376   3.462   1.471   1.933
 3348SOL    HW210377   3.418   1.314   1.931
 3349SOL     OW10378   2.326   1.743   2.185
 3349SOL    HW110379   2.359   1.782   2.271
 3349SOL    HW210380   2.402   1.736   2.120
 3350SOL     OW10381   3.262   0.107   2.288
 3350SOL    HW110382   3.238   0.070   2.198
 3350SOL    HW210383   3.361   0.123   2.292
 3351SOL     OW10384   2.111   1.785   3.103
 3351SOL    HW110385   2.168   1.720   3.153
 3351SOL    HW210386   2.095   1.752   3.010
 3352SOL     OW10387   2.802   1.698   2.766
 3352SOL    HW110388   2.882   1.641   2.787
 3352SOL    HW210389   2.753   1.658   2.689
 3353SOL     OW10390   2.244   0.700   2.342
 3353SOL    HW110391   2.289   0.610   2.339
 3353SOL    HW210392   2.150   0.689   2.375
 3354SOL     OW10393   3.409   0.222   3.591
 3354SOL    HW110394   3.404   0.259   3.683
 3354SOL    HW210395   3.337   0.153   3.579
 3355SOL     OW10396   2.476   0.122   1.979
 3355SOL    HW110397   2.574   0.100   1.986
 3355SOL    HW210398   2.445   0.105   1.886
 3356SOL     OW10399   2.643   0.264   3.611
 3356SOL    HW110400   2.710   0.203   3.654
 3356SOL    HW210401   2.570   0.283   3.676
 3357SOL     OW10402   2.750   1.514   3.057
 3357SOL    HW110403   2.727   1.489   2.963
 3357SOL    HW210404   2.811   1.445   3.096
 3358SOL     OW10405   3.213   0.590   3.295
 3358SOL    HW110406   3.241   0.547   3.380
 3358SOL    HW210407   3.238   0.686   3.296
 3359SOL     OW10408   2.665   1.402   2.786
 3359SOL    HW110409   2.755   1.416   2.744
 3359SOL    HW210410   2.594   1.404   2.715
 3360SOL     OW10411   2.784   0.503   2.761
 3360SOL    HW110412   2.759   0.494   2.665
 3360SOL    HW210413   2.832   0.421   2.792
 3361SOL     OW10414   2.401   0.064   2.374
 3361SOL    HW110415   2.320   0.065   2.432
 3361SOL    HW210416   2.404   0.147   2.319
 3362SOL     OW10417   3.296   1.188   1.903
 3362SOL    HW110418   3.328   1.112   1.960
 3362SOL    HW210419   3.204   1.215   1.933
 3363SOL     OW10420   2.159   0.035   2.033
 3363SOL    HW110421   2.208   0.119   2.012
 3363SOL    HW210422   2.221  -0.030   2.078
 3364SOL     OW10423   2.797   0.236   2.342
 3364SOL    HW110424   2.749   0.277   2.264
 3364SOL    HW210425   2.896   0.234   2.323
 3365SOL     OW10426   2.938   0.683   3.326
 3365SOL    HW110427   2.858   0.622   3.329
 3365SOL    HW210428   3.019   0.630   3.302
 3366SOL     OW10429   3.089   1.570   2.655
 3366SOL    HW110430   3.110   1.644   2.590
 3366SOL    HW210431   3.157   1.570   2.728
 3367SOL     OW10432   2.321   1.152   2.603
 3367SOL    HW110433   2.250   1.125   2.668
 3367SOL    HW210434   2.295   1.124   2.510
 3368SOL     OW10435   3.133   1.797   2.453
 3368SOL    HW110436   3.177   1.861   2.389
 3368SOL    HW210437   3.083   1.849   2.523
 3369SOL     OW10438   2.894   0.549   1.878
 3369SOL    HW110439   2.853   0.631   1.839
 3369SOL    HW210440   2.958   0.575   1.951
 3370SOL     OW10441   1.940   0.556   3.248
 3370SOL    HW110442   2.032   0.555   3.207
 3370SOL    HW210443   1.934   0.630   3.315
 3371SOL     OW10444   2.423   0.222   3.009
 3371SOL    HW110445   2.461   0.138   3.046
 3371SOL    HW210446   2.335   0.241   3.053
 3372SOL     OW10447   2.728   0.454   2.504
 3372SOL    HW110448   2.696   0.526   2.442
 3372SOL    HW210449   2.752   0.373   2.451
 3373SOL     OW10450   2.879   0.039   2.615
 3373SOL    HW110451   2.807   0.044   2.546
 3373SOL    HW210452   2.855  -0.030   2.684
 3374SOL     OW10453   3.291   1.173   2.729
 3374SOL    HW110454   3.236   1.089   2.722
 3374SOL    HW210455   3.317   1.202   2.637
 3375SOL     OW10456   3.328   0.590   2.854
 3375SOL    HW110457   3.298   0.495   2.861
 3375SOL    HW210458   3.401   0.606   2.920
 3376SOL     OW10459   3.719   0.833   2.239
 3376SOL    HW110460   3.761   0.769   2.303
 3376SOL    HW210461   3.681   0.782   2.161
 3377SOL     OW10462   2.350   1.385   2.036
 3377SOL    HW110463   2.263   1.370   2.083
 3377SOL    HW210464   2.333   1.411   1.941
 3378SOL     OW10465   3.526   1.280   2.519
 3378SOL    HW110466   3.625   1.288   2.533
 3378SOL    HW210467   3.481   1.364   2.550
 3379SOL     OW10468   3.252   0.575   1.940
 3379SOL    HW110469   3.198   0.554   2.021
 3379SOL    HW210470   3.343   0.534   1.949
 3380SOL     OW10471   2.389   0.256   2.190
 3380SOL    HW110472   2.416   0.197   2.115
 3380SOL    HW210473   2.389   0.351   2.159
 3381SOL     OW10474   3.616   1.223   3.450
 3381SOL    HW110475   3.707   1.184   3.437
 3381SOL    HW210476   3.624   1.319   3.474
 3382SOL     OW10477   2.926   1.347   3.202
 3382SOL    HW110478   2.846   1.324   3.257
 3382SOL    HW210479   3.009   1.321   3.251
 3383SOL     OW10480   3.454   1.629   3.487
 3383SOL    HW110481   3.481   1.663   3.397
 3383SOL    HW210482   3.533   1.591   3.533
 3384SOL     OW10483   2.973   1.195   2.962
 3384SOL    HW110484   2.933   1.239   3.043
 3384SOL    HW210485   2.932   1.232   2.879
 3385SOL     OW10486   3.500   1.099   2.941
 3385SOL    HW110487   3.505   1.180   3.000
 3385SOL    HW210488   3.414   1.101   2.890
 3386SOL     OW10489   2.777   0.089   3.264
 3386SOL    HW110490   2.802   0.069   3.169
 3386SOL    HW210491   2.849   0.145   3.306
 3387SOL     OW10492   2.842   1.116   3.581
 3387SOL    HW110493   2.743   1.122   3.591
 3387SOL    HW210494   2.865   1.036   3.525
 3388SOL     OW10495   2.567   1.050   2.230
 3388SOL    HW110496   2.553   1.057   2.329
 3388SOL    HW210497   2.651   0.999   2.212
 3389SOL     OW10498   2.272   0.813   3.113
 3389SOL    HW110499   2.358   0.825   3.163
 3389SOL    HW210500   2.230   0.726   3.140
 3390SOL     OW10501   3.136   0.386   3.124
 3390SOL    HW110502   3.157   0.460   3.188
 3390SOL    HW210503   3.047   0.403   3.081
 3391SOL     OW10504   1.926   1.564   3.193
 3391SOL    HW110505   1.880   1.646   3.159
 3391SOL    HW210506   2.024   1.583   3.202
 3392SOL     OW10507   2.229   1.100   2.363
 3392SOL    HW110508   2.222   1.183   2.307
 3392SOL    HW210509   2.233   1.020   2.303
 3393SOL     OW10510   2.428   0.537   2.727
 3393SOL    HW110511   2.440   0.603   2.653
 3393SOL    HW210512   2.474   0.571   2.810
 3394SOL     OW10513   3.114   1.348   2.250
 3394SOL    HW110514   3.164   1.425   2.290
 3394SOL    HW210515   3.019   1.350   2.282
 3395SOL     OW10516   3.134   1.445   3.004
 3395SOL    HW110517   3.181   1.458   3.091
 3395SOL    HW210518   3.068   1.371   3.013
 3396SOL     OW10519   3.444   0.639   2.334
 3396SOL    HW110520   3.413   0.700   2.407
 3396SOL    HW210521   3.494   0.691   2.265
 3397SOL     OW10522   2.216   1.510   3.191
 3397SOL    HW110523   2.195   1.466   3.104
 3397SOL    HW210524   2.313   1.536   3.194
 3398SOL     OW10525   2.264   0.751   3.460
 3398SOL    HW110526   2.332   0.806   3.413
 3398SOL    HW210527   2.304   0.663   3.487
 3399SOL     OW10528   3.449   0.779   3.532
 3399SOL    HW110529   3.357   0.817   3.527
 3399SOL    HW210530   3.509   0.826   3.467
 3400SOL     OW10531   2.875   0.105   3.632
 3400SOL    HW110532   2.881   0.190   3.580
 3400SOL    HW210533   2.907   0.029   3.575
 3401SOL     OW10534   2.366   0.050   3.602
 3401SOL    HW110535   2.324  -0.007   3.532
 3401SOL    HW210536   2.300   0.119   3.634
 3402SOL     OW10537   2.435   0.870   2.891
 3402SOL    HW110538   2.479   0.959   2.882
 3402SOL    HW210539   2.372   0.870   2.968
 3403SOL     OW10540   3.222   0.862   2.907
 3403SOL    HW110541   3.147   0.862   2.841
 3403SOL    HW210542   3.259   0.770   2.916
 3404SOL     OW10543   3.071   0.525   2.137
 3404SOL    HW110544   3.084   0.441   2.191
 3404SOL    HW210545   3.042   0.599   2.197
 3405SOL     OW10546   2.169   0.213   3.093
 3405SOL    HW110547   2.146   0.250   3.183
 3405SOL    HW210548   2.139   0.118   3.087
 3406SOL     OW10549   1.899   1.310   3.144
 3406SOL    HW110550   1.952   1.261   3.212
 3406SOL    HW210551   1.921   1.408   3.149
 3407SOL     OW10552   2.594   0.634   2.926
 3407SOL    HW110553   2.653   0.608   2.850
 3407SOL    HW210554   2.566   0.730   2.915
 3408SOL     OW10555   3.590   0.935   3.716
 3408SOL    HW110556   3.544   0.928   3.627
 3408SOL    HW210557   3.528   0.979   3.782
 3409SOL     OW10558   2.169   0.063   2.480
 3409SOL    HW110559   2.158   0.157   2.513
 3409SOL    HW210560   2.164   0.000   2.557
 3410SOL     OW10561   3.484   0.367   2.236
 3410SOL    HW110562   3.486   0.291   2.300
 3410SOL    HW210563   3.436   0.444   2.276
 3411SOL     OW10564   2.885   0.766   2.828
 3411SOL    HW110565   2.900   0.787   2.924
 3411SOL    HW210566   2.855   0.671   2.819
 3412SOL     OW10567   2.842   1.573   3.562
 3412SOL    HW110568   2.822   1.617   3.474
 3412SOL    HW210569   2.881   1.482   3.546
 3413SOL     OW10570   3.721   1.518   3.467
 3413SOL    HW110571   3.735   1.545   3.372
 3413SOL    HW210572   3.804   1.540   3.520
 3414SOL     OW10573   2.212   0.898   3.666
 3414SOL    HW110574   2.288   0.942   3.714
 3414SOL    HW210575   2.247   0.851   3.584
 3415SOL     OW10576   3.402   0.274   1.987
 3415SOL    HW110577   3.341   0.199   2.010
 3415SOL    HW210578   3.424   0.326   2.070
 3416SOL     OW10579   3.165   0.838   1.904
 3416SOL    HW110580   3.199   0.745   1.919
 3416SOL    HW210581   3.183   0.865   1.809
 3417SOL     OW10582   2.930   1.333   2.711
 3417SOL    HW110583   2.937   1.249   2.656
 3417SOL    HW210584   2.992   1.402   2.675
 3418SOL     OW10585   2.181   0.810   2.811
 3418SOL    HW110586   2.274   0.846   2.816
 3418SOL    HW210587   2.175   0.725   2.863
 3419SOL     OW10588   2.201   0.509   2.868
 3419SOL    HW110589   2.149   0.426   2.851
 3419SOL    HW210590   2.278   0.514   2.804
 3420SOL     OW10591   3.000   0.380   3.540
 3420SOL    HW110592   2.955   0.443   3.604
 3420SOL    HW210593   3.093   0.411   3.523
 3421SOL     OW10594   3.022   0.207   3.339
 3421SOL    HW110595   3.022   0.271   3.416
 3421SOL    HW210596   3.050   0.255   3.256
 3422SOL     OW10597   1.870   1.326   2.062
 3422SOL    HW110598   1.777   1.347   2.031
 3422SOL    HW210599   1.880   1.227   2.075
 3423SOL     OW10600   1.950   1.801   2.789
 3423SOL    HW110601   1.908   1.715   2.762
 3423SOL    HW210602   2.044   1.804   2.755
 3424SOL     OW10603   2.366   1.568   2.772
 3424SOL    HW110604   2.432   1.642   2.781
 3424SOL    HW210605   2.410   1.489   2.730
 3425SOL     OW10606   2.864   0.796   3.100
 3425SOL    HW110607   2.905   0.764   3.186
 3425SOL    HW210608   2.768   0.769   3.097
 3426SOL     OW10609   1.902   0.544   2.976
 3426SOL    HW110610   1.987   0.511   2.935
 3426SOL    HW210611   1.915   0.559   3.074
 3427SOL     OW10612   2.051   0.520   3.584
 3427SOL    HW110613   2.110   0.480   3.514
 3427SOL    HW210614   1.993   0.591   3.543
 3428SOL     OW10615   3.231   0.950   3.522
 3428SOL    HW110616   3.270   1.039   3.542
 3428SOL    HW210617   3.241   0.930   3.425
 3429SOL     OW10618   2.677   0.572   2.187
 3429SOL    HW110619   2.684   0.483   2.141
 3429SOL    HW210620   2.583   0.606   2.179
 3430SOL     OW10621   3.519   0.604   3.068
 3430SOL    HW110622   3.481   0.535   3.130
 3430SOL    HW210623   3.601   0.568   3.024
 3431SOL     OW10624   2.114   1.564   3.606
 3431SOL    HW110625   2.084   1.621   3.682
 3431SOL    HW210626   2.107   1.467   3.632
 3432SOL     OW10627   2.533   0.464   3.131
 3432SOL    HW110628   2.499   0.375   3.101
 3432SOL    HW210629   2.559   0.518   3.051
 3433SOL     OW10630   2.792   1.678   3.327
 3433SOL    HW110631   2.768   1.660   3.232
 3433SOL    HW210632   2.822   1.772   3.337
 3434SOL     OW10633   2.335   0.500   2.053
 3434SOL    HW110634   2.396   0.580   2.057
 3434SOL    HW210635   2.240   0.531   2.060
 3435SOL     OW10636   2.021   1.137   3.328
 3435SOL    HW110637   2.043   1.076   3.404
 3435SOL    HW210638   2.031   1.088   3.242
 3436SOL     OW10639   3.209   1.059   3.096
 3436SOL    HW110640   3.233   0.996   3.022
 3436SOL    HW210641   3.119   1.099   3.078
 3437SOL     OW10642   3.164   0.855   2.171
 3437SOL    HW110643   3.078   0.824   2.213
 3437SOL    HW210644   3.160   0.841   2.072
 3438SOL     OW10645   3.621   1.747   3.016
 3438SOL    HW110646   3.682   1.777   2.943
 3438SOL    HW210647   3.583   1.658   2.994
 3439SOL     OW10648   3.114   1.731   2.990
 3439SOL    HW110649   3.198   1.736   2.936
 3439SOL    HW210650   3.091   1.635   3.008
 3440SOL     OW10651   1.945   1.258   2.884
 3440SOL    HW110652   1.940   1.257   2.984
 3440SOL    HW210653   1.862   1.217   2.846
 3441SOL     OW10654   2.550   1.662   3.578
 3441SOL    HW110655   2.494   1.743   3.587
 3441SOL    HW210656   2.602   1.666   3.492
 3442SOL     OW10657   3.588   0.135   2.385
 3442SOL    HW110658   3.661   0.118   2.318
 3442SOL    HW210659   3.557   0.048   2.423
 3443SOL     OW10660   3.250   1.573   2.339
 3443SOL    HW110661   3.317   1.585   2.265
 3443SOL    HW210662   3.210   1.662   2.362
 3444SOL     OW10663   1.992   1.794   3.713
 3444SOL    HW110664   1.951   1.720   3.766
 3444SOL    HW210665   2.056   1.845   3.771
 3445SOL     OW10666   3.142   0.927   2.534
 3445SOL    HW110667   3.202   0.846   2.536
 3445SOL    HW210668   3.182   0.996   2.474
 3446SOL     OW10669   2.692   1.273   3.284
 3446SOL    HW110670   2.687   1.306   3.379
 3446SOL    HW210671   2.606   1.292   3.238
 3447SOL     OW10672   2.534   1.616   2.016
 3447SOL    HW110673   2.543   1.626   1.917
 3447SOL    HW210674   2.494   1.527   2.037
 3448SOL     OW10675   3.512   1.720   3.256
 3448SOL    HW110676   3.565   1.730   3.172
 3448SOL    HW210677   3.485   1.810   3.290
 3449SOL     OW10678   3.703   0.175   2.825
 3449SOL    HW110679   3.742   0.090   2.789
 3449SOL    HW210680   3.605   0.177   2.806
 3450SOL     OW10681   2.125   0.326   2.582
 3450SOL    HW110682   2.046   0.377   2.548
 3450SOL    HW210683   2.116   0.311   2.680
 3451SOL     OW10684   3.056   1.612   1.893
 3451SOL    HW110685   3.062   1.519   1.930
 3451SOL    HW210686   2.997   1.612   1.813
 3452SOL     OW10687   2.684   1.002   3.234
 3452SOL    HW110688   2.724   1.001   3.142
 3452SOL    HW210689   2.694   1.094   3.274
 3453SOL     OW10690   2.778   0.910   2.153
 3453SOL    HW110691   2.841   0.948   2.085
 3453SOL    HW210692   2.818   0.827   2.192
 3454SOL     OW10693   3.366   1.607   1.906
 3454SOL    HW110694   3.274   1.644   1.913
 3454SOL    HW210695   3.404   1.627   1.816
 3455SOL     OW10696   2.234   1.288   3.352
 3455SOL    HW110697   2.221   1.381   3.318
 3455SOL    HW210698   2.150   1.236   3.339
 3456SOL     OW10699   3.476   1.292   3.151
 3456SOL    HW110700   3.536   1.295   3.231
 3456SOL    HW210701   3.401   1.356   3.164
 3457SOL     OW10702   2.901   1.098   2.558
 3457SOL    HW110703   2.831   1.051   2.612
 3457SOL    HW210704   2.960   1.030   2.515
 3458SOL     OW10705   2.876   0.236   2.833
 3458SOL    HW110706   2.868   0.200   2.740
 3458SOL    HW210707   2.874   0.160   2.898
 3459SOL     OW10708   2.452   1.487   2.353
 3459SOL    HW110709   2.494   1.429   2.283
 3459SOL    HW210710   2.408   1.566   2.309
 3460SOL     OW10711   3.571   0.385   3.243
 3460SOL    HW110712   3.644   0.454   3.247
 3460SOL    HW210713   3.599   0.310   3.184
 3461SOL     OW10714   2.117   1.348   2.152
 3461SOL    HW110715   2.021   1.349   2.125
 3461SOL    HW210716   2.129   1.401   2.236
 3462SOL     OW10717   1.967   1.013   3.588
 3462SOL    HW110718   1.890   0.980   3.642
 3462SOL    HW210719   2.052   0.983   3.630
 3463SOL     OW10720   2.534   0.203   3.351
 3463SOL    HW110721   2.624   0.187   3.311
 3463SOL    HW210722   2.542   0.208   3.450
 3464SOL     OW10723   1.937   0.345   1.895
 3464SOL    HW110724   1.845   0.317   1.866
 3464SOL    HW210725   1.968   0.422   1.839
 3465SOL     OW10726   3.302   0.856   3.260
 3465SOL    HW110727   3.245   0.908   3.197
 3465SOL    HW210728   3.398   0.868   3.236
 3466SOL     OW10729   1.934   0.166   2.180
 3466SOL    HW110730   1.917   0.249   2.126
 3466SOL    HW210731   2.024   0.129   2.158
 3467SOL     OW10732   3.045   1.335   1.981
 3467SOL    HW110733   2.946   1.324   1.983
 3467SOL    HW210734   3.079   1.350   2.074
 3468SOL     OW10735   2.475   0.842   3.293
 3468SOL    HW110736   2.531   0.923   3.276
 3468SOL    HW210737   2.534   0.762   3.296
 3469SOL     OW10738   3.355   1.767   2.821
 3469SOL    HW110739   3.388   1.831   2.752
 3469SOL    HW210740   3.421   1.761   2.896
 3470SOL     OW10741   2.578   0.565   3.570
 3470SOL    HW110742   2.597   0.630   3.644
 3470SOL    HW210743   2.638   0.485   3.579
 3471SOL     OW10744   3.312   1.220   3.495
 3471SOL    HW110745   3.303   1.210   3.594
 3471SOL    HW210746   3.408   1.213   3.469
 3472SOL     OW10747   2.252   1.741   3.422
 3472SOL    HW110748   2.161   1.782   3.420
 3472SOL    HW210749   2.245   1.647   3.454
 3473SOL     OW10750   3.536   0.883   3.116
 3473SOL    HW110751   3.509   0.794   3.079
 3473SOL    HW210752   3.537   0.951   3.043
 3474SOL     OW10753   3.087   0.325   2.311
 3474SOL    HW110754   3.152   0.251   2.300
 3474SOL    HW210755   3.107   0.375   2.395
 3475SOL     OW10756   2.456   0.745   2.514
 3475SOL    HW110757   2.506   0.830   2.495
 3475SOL    HW210758   2.368   0.747   2.466
 3476SOL     OW10759   3.639   0.342   3.504
 3476SOL    HW110760   3.622   0.373   3.410
 3476SOL    HW210761   3.555   0.305   3.542
 3477SOL     OW10762   3.592   0.934   3.379
 3477SOL    HW110763   3.630   1.025   3.394
 3477SOL    HW210764   3.584   0.917   3.280
 3478SOL     OW10765   2.721   1.374   1.878
 3478SOL    HW110766   2.675   1.389   1.966
 3478SOL    HW210767   2.765   1.459   1.848
 3479SOL     OW10768   2.523   1.790   2.815
 3479SOL    HW110769   2.477   1.878   2.802
 3479SOL    HW210770   2.622   1.802   2.808
 3480SOL     OW10771   2.721   0.956   2.723
 3480SOL    HW110772   2.775   0.887   2.771
 3480SOL    HW210773   2.689   1.025   2.789
 3481SOL     OW10774   2.945   0.984   1.949
 3481SOL    HW110775   2.922   1.037   1.867
 3481SOL    HW210776   3.026   0.928   1.930
 3482SOL     OW10777   3.723   1.569   2.713
 3482SOL    HW110778   3.652   1.557   2.643
 3482SOL    HW210779   3.724   1.490   2.773
 3483SOL     OW10780   2.083   1.314   3.706
 3483SOL    HW110781   2.018   1.241   3.685
 3483SOL    HW210782   2.087   1.328   3.804
 3484SOL     OW10783   1.941   1.240   2.515
 3484SOL    HW110784   1.940   1.193   2.603
 3484SOL    HW210785   2.023   1.212   2.464
 3485SOL     OW10786   2.534   1.391   3.486
 3485SOL    HW110787   2.456   1.341   3.524
 3485SOL    HW210788   2.531   1.486   3.517
 3486SOL     OW10789   3.686   0.192   3.089
 3486SOL    HW110790   3.682   0.102   3.133
 3486SOL    HW210791   3.689   0.181   2.990
 3487SOL     OW10792   2.290   0.424   2.382
 3487SOL    HW110793   2.320   0.352   2.320
 3487SOL    HW210794   2.251   0.384   2.465
 3488SOL     OW10795   3.567   1.487   2.966
 3488SOL    HW110796   3.474   1.462   2.939
 3488SOL    HW210797   3.593   1.437   3.048
 3489SOL     OW10798   2.179   0.547   3.142
 3489SOL    HW110799   2.217   0.488   3.214
 3489SOL    HW210800   2.219   0.521   3.054
 3490SOL     OW10801   2.674   1.586   2.549
 3490SOL    HW110802   2.706   1.596   2.455
 3490SOL    HW210803   2.595   1.524   2.551
 3491SOL     OW10804   3.286   0.214   2.974
 3491SOL    HW110805   3.338   0.149   3.029
 3491SOL    HW210806   3.237   0.277   3.035
 3492SOL     OW10807   2.863   0.034   3.016
 3492SOL    HW110808   2.800  -0.038   2.985
 3492SOL    HW210809   2.956  -0.002   3.016
 3493SOL     OW10810   2.632   1.330   2.163
 3493SOL    HW110811   2.586   1.243   2.180
 3493SOL    HW210812   2.723   1.327   2.204
 3494SOL     OW10813   2.480   1.567   3.146
 3494SOL    HW110814   2.475   1.649   3.203
 3494SOL    HW210815   2.569   1.564   3.101
 3495SOL     OW10816   3.214   0.052   2.030
 3495SOL    HW110817   3.249   0.011   1.946
 3495SOL    HW210818   3.124   0.014   2.050
 3496SOL     OW10819   3.162   0.453   2.553
 3496SOL    HW110820   3.103   0.533   2.557
 3496SOL    HW210821   3.177   0.418   2.646
 3497SOL     OW10822   3.455   0.221   2.744
 3497SOL    HW110823   3.371   0.220   2.798
 3497SOL    HW210824   3.457   0.304   2.688
 3498SOL     OW10825   1.901   1.077   2.162
 3498SOL    HW110826   2.000   1.066   2.153
 3498SOL    HW210827   1.861   0.991   2.194
 3499SOL     OW10828   2.737   1.646   2.199
 3499SOL    HW110829   2.660   1.611   2.145
 3499SOL    HW210830   2.705   1.717   2.261
 3500SOL     OW10831   2.092   0.628   3.837
 3500SOL    HW110832   1.999   0.626   3.874
 3500SOL    HW210833   2.093   0.589   3.745
 3501SOL     OW10834   2.087   0.275   4.720
 3501SOL    HW110835   2.122   0.258   4.812
 3501SOL    HW210836   1.999   0.230   4.708
 3502SOL     OW10837   1.881   0.368   4.371
 3502SOL    HW110838   1.799   0.411   4.410
 3502SOL    HW210839   1.853   0.295   4.308
 3503SOL     OW10840   2.431   1.275   4.889
 3503SOL    HW110841   2.338   1.268   4.852
 3503SOL    HW210842   2.442   1.364   4.933
 3504SOL     OW10843   3.417   1.511   4.427
 3504SOL    HW110844   3.360   1.495   4.508
 3504SOL    HW210845   3.358   1.521   4.347
 3505SOL     OW10846   2.997   0.703   4.441
 3505SOL    HW110847   3.054   0.781   4.416
 3505SOL    HW210848   2.937   0.729   4.517
 3506SOL     OW10849   3.617   0.607   3.955
 3506SOL    HW110850   3.605   0.594   3.856
 3506SOL    HW210851   3.587   0.526   4.004
 3507SOL     OW10852   2.630   1.144   4.747
 3507SOL    HW110853   2.552   1.161   4.807
 3507SOL    HW210854   2.664   1.231   4.711
 3508SOL     OW10855   2.712   0.798   5.547
 3508SOL    HW110856   2.708   0.874   5.612
 3508SOL    HW210857   2.734   0.834   5.456
 3509SOL     OW10858   2.547   1.012   4.389
 3509SOL    HW110859   2.616   0.996   4.459
 3509SOL    HW210860   2.474   1.069   4.427
 3510SOL     OW10861   2.548   1.161   5.527
 3510SOL    HW110862   2.608   1.240   5.541
 3510SOL    HW210863   2.462   1.192   5.486
 3511SOL     OW10864   2.197   1.435   4.785
 3511SOL    HW110865   2.119   1.404   4.732
 3511SOL    HW210866   2.255   1.493   4.728
 3512SOL     OW10867   3.322   1.505   5.063
 3512SOL    HW110868   3.346   1.599   5.089
 3512SOL    HW210869   3.306   1.451   5.145
 3513SOL     OW10870   2.300   0.392   5.223
 3513SOL    HW110871   2.382   0.336   5.232
 3513SOL    HW210872   2.219   0.334   5.227
 3514SOL     OW10873   3.465   0.447   4.461
 3514SOL    HW110874   3.391   0.493   4.411
 3514SOL    HW210875   3.516   0.515   4.514
 3515SOL     OW10876   2.093   1.713   4.207
 3515SOL    HW110877   2.127   1.790   4.261
 3515SOL    HW210878   2.137   1.713   4.117
 3516SOL     OW10879   2.989   1.341   5.414
 3516SOL    HW110880   3.036   1.341   5.502
 3516SOL    HW210881   2.941   1.254   5.403
 3517SOL     OW10882   2.092   1.434   4.262
 3517SOL    HW110883   2.066   1.530   4.262
 3517SOL    HW210884   2.021   1.380   4.307
 3518SOL     OW10885   2.102   1.091   4.610
 3518SOL    HW110886   2.116   1.007   4.662
 3518SOL    HW210887   2.047   1.155   4.665
 3519SOL     OW10888   2.482   1.786   5.163
 3519SOL    HW110889   2.390   1.769   5.198
 3519SOL    HW210890   2.510   1.878   5.189
 3520SOL     OW10891   2.468   0.964   3.847
 3520SOL    HW110892   2.475   1.048   3.793
 3520SOL    HW210893   2.514   0.977   3.935
 3521SOL     OW10894   3.456   0.114   5.204
 3521SOL    HW110895   3.438   0.181   5.132
 3521SOL    HW210896   3.453   0.160   5.293
 3522SOL     OW10897   1.984   0.643   4.287
 3522SOL    HW110898   1.939   0.555   4.304
 3522SOL    HW210899   1.983   0.697   4.371
 3523SOL     OW10900   3.704   1.767   4.083
 3523SOL    HW110901   3.758   1.738   4.163
 3523SOL    HW210902   3.734   1.857   4.054
 3524SOL     OW10903   1.889   1.596   3.841
 3524SOL    HW110904   1.870   1.500   3.862
 3524SOL    HW210905   1.856   1.654   3.916
 3525SOL     OW10906   3.551   0.922   4.336
 3525SOL    HW110907   3.646   0.893   4.344
 3525SOL    HW210908   3.543   0.987   4.261
 3526SOL     OW10909   3.503   1.108   4.156
 3526SOL    HW110910   3.589   1.110   4.104
 3526SOL    HW210911   3.517   1.155   4.244
 3527SOL     OW10912   1.975   0.737   5.321
 3527SOL    HW110913   2.063   0.724   5.366
 3527SOL    HW210914   1.962   0.834   5.299
 3528SOL     OW10915   2.475   1.365   4.450
 3528SOL    HW110916   2.426   1.278   4.459
 3528SOL    HW210917   2.452   1.408   4.363
 3529SOL     OW10918   3.155   1.228   5.147
 3529SOL    HW110919   3.192   1.155   5.089
 3529SOL    HW210920   3.207   1.233   5.232
 3530SOL     OW10921   2.671   0.004   4.226
 3530SOL    HW110922   2.711   0.095   4.217
 3530SOL    HW210923   2.571   0.012   4.232
 3531SOL     OW10924   2.059   0.976   4.988
 3531SOL    HW110925   2.148   0.931   4.974
 3531SOL    HW210926   1.986   0.911   4.969
 3532SOL     OW10927   3.387   0.999   3.914
 3532SOL    HW110928   3.324   0.923   3.927
 3532SOL    HW210929   3.435   1.017   4.000
 3533SOL     OW10930   3.049   1.792   5.340
 3533SOL    HW110931   3.073   1.852   5.264
 3533SOL    HW210932   3.056   1.697   5.310
 3534SOL     OW10933   2.179   0.251   5.525
 3534SOL    HW110934   2.250   0.322   5.531
 3534SOL    HW210935   2.091   0.290   5.553
 3535SOL     OW10936   3.328   1.417   4.677
 3535SOL    HW110937   3.269   1.423   4.757
 3535SOL    HW210938   3.313   1.329   4.631
 3536SOL     OW10939   3.529   1.714   4.296
 3536SOL    HW110940   3.488   1.691   4.208
 3536SOL    HW210941   3.511   1.640   4.361
 3537SOL     OW10942   2.460   0.729   3.994
 3537SOL    HW110943   2.484   0.798   3.926
 3537SOL    HW210944   2.382   0.762   4.048
 3538SOL     OW10945   3.143   0.345   4.668
 3538SOL    HW110946   3.057   0.295   4.655
 3538SOL    HW210947   3.205   0.291   4.724
 3539SOL     OW10948   3.438   1.662   4.031
 3539SOL    HW110949   3.527   1.708   4.034
 3539SOL    HW210950   3.417   1.638   3.936
 3540SOL     OW10951   2.669   0.605   5.189
 3540SOL    HW110952   2.622   0.602   5.278
 3540SOL    HW210953   2.618   0.550   5.123
 3541SOL     OW10954   3.256   0.469   5.398
 3541SOL    HW110955   3.236   0.512   5.486
 3541SOL    HW210956   3.334   0.407   5.407
 3542SOL     OW10957   2.835   0.890   5.296
 3542SOL    HW110958   2.881   0.806   5.267
 3542SOL    HW210959   2.779   0.924   5.221
 3543SOL     OW10960   2.853   0.410   4.966
 3543SOL    HW110961   2.776   0.444   5.020
 3543SOL    HW210962   2.819   0.359   4.887
 3544SOL     OW10963   2.903   0.701   4.153
 3544SOL    HW110964   2.929   0.697   4.249
 3544SOL    HW210965   2.818   0.650   4.139
 3545SOL     OW10966   1.938   0.811   4.513
 3545SOL    HW110967   2.037   0.799   4.522
 3545SOL    HW210968   1.914   0.906   4.534
 3546SOL     OW10969   2.727   0.348   3.919
 3546SOL    HW110970   2.786   0.411   3.870
 3546SOL    HW210971   2.746   0.254   3.890
 3547SOL     OW10972   3.581   0.585   5.555
 3547SOL    HW110973   3.555   0.674   5.519
 3547SOL    HW210974   3.579   0.517   5.482
 3548SOL     OW10975   3.224   1.144   4.269
 3548SOL    HW110976   3.307   1.115   4.221
 3548SOL    HW210977   3.175   1.211   4.213
 3549SOL     OW10978   2.412   0.196   4.609
 3549SOL    HW110979   2.407   0.191   4.709
 3549SOL    HW210980   2.414   0.292   4.580
 3550SOL     OW10981   2.870   1.456   4.201
 3550SOL    HW110982   2.824   1.528   4.149
 3550SOL    HW210983   2.866   1.476   4.299
 3551SOL     OW10984   2.213   1.801   4.577
 3551SOL    HW110985   2.263   1.715   4.583
 3551SOL    HW210986   2.278   1.878   4.574
 3552SOL     OW10987   3.657   1.066   4.597
 3552SOL    HW110988   3.595   1.051   4.521
 3552SOL    HW210989   3.605   1.077   4.682
 3553SOL     OW10990   3.089   1.550   5.230
 3553SOL    HW110991   3.095   1.473   5.294
 3553SOL    HW210992   3.037   1.524   5.150
 3554SOL     OW10993   2.183   0.943   3.966
 3554SOL    HW110994   2.265   0.982   3.924
 3554SOL    HW210995   2.156   0.861   3.917
 3555SOL     OW10996   3.320   0.735   4.452
 3555SOL    HW110997   3.315   0.670   4.527
 3555SOL    HW210998   3.400   0.794   4.465
 3556SOL     OW10999   2.323   1.266   5.451
 3556SOL    HW111000   2.273   1.267   5.365
 3556SOL    HW211001   2.260   1.248   5.527
 3557SOL     OW11002   2.973   1.776   3.961
 3557SOL    HW111003   2.913   1.714   4.011
 3557SOL    HW211004   3.004   1.732   3.876
 3558SOL     OW11005   2.064   0.285   5.222
 3558SOL    HW111006   1.984   0.345   5.209
 3558SOL    HW211007   2.054   0.236   5.308
 3559SOL     OW11008   3.494   1.377   3.805
 3559SOL    HW111009   3.462   1.471   3.795
 3559SOL    HW211010   3.418   1.314   3.793
 3560SOL     OW11011   2.326   1.743   4.047
 3560SOL    HW111012   2.359   1.782   4.133
 3560SOL    HW211013   2.402   1.736   3.982
 3561SOL     OW11014   3.262   0.107   4.150
 3561SOL    HW111015   3.238   0.070   4.060
 3561SOL    HW211016   3.361   0.123   4.154
 3562SOL     OW11017   2.111   1.785   4.965
 3562SOL    HW111018   2.168   1.720   5.015
 3562SOL    HW211019   2.095   1.752   4.872
 3563SOL     OW11020   2.802   1.698   4.628
 3563SOL    HW111021   2.882   1.641   4.649
 3563SOL    HW211022   2.753   1.658   4.551
 3564SOL     OW11023   2.244   0.700   4.204
 3564SOL    HW111024   2.289   0.610   4.201
 3564SOL    HW211025   2.150   0.689   4.237
 3565SOL     OW11026   3.409   0.222   5.453
 3565SOL    HW111027   3.404   0.259   5.545
 3565SOL    HW211028   3.337   0.153   5.441
 3566SOL     OW11029   2.476   0.122   3.841
 3566SOL    HW111030   2.574   0.100   3.848
 3566SOL    HW211031   2.445   0.105   3.748
 3567SOL     OW11032   2.643   0.264   5.473
 3567SOL    HW111033   2.710   0.203   5.516
 3567SOL    HW211034   2.570   0.283   5.538
 3568SOL     OW11035   2.750   1.514   4.919
 3568SOL    HW111036   2.727   1.489   4.825
 3568SOL    HW211037   2.811   1.445   4.958
 3569SOL     OW11038   3.213   0.590   5.157
 3569SOL    HW111039   3.241   0.547   5.242
 3569SOL    HW211040   3.238   0.686   5.158
 3570SOL     OW11041   2.665   1.402   4.648
 3570SOL    HW111042   2.755   1.416   4.606
 3570SOL    HW211043   2.594   1.404   4.577
 3571SOL     OW11044   2.784   0.503   4.623
 3571SOL    HW111045   2.759   0.494   4.527
 3571SOL    HW211046   2.832   0.421   4.654
 3572SOL     OW11047   2.401   0.064   4.236
 3572SOL    HW111048   2.320   0.065   4.294
 3572SOL    HW211049   2.404   0.147   4.181
 3573SOL     OW11050   3.296   1.188   3.765
 3573SOL    HW111051   3.328   1.112   3.822
 3573SOL    HW211052   3.204   1.215   3.795
 3574SOL     OW11053   2.159   0.035   3.895
 3574SOL    HW111054   2.208   0.119   3.874
 3574SOL    HW211055   2.221  -0.030   3.940
 3575SOL     OW11056   2.797   0.236   4.204
 3575SOL    HW111057   2.749   0.277   4.126
 3575SOL    HW211058   2.896   0.234   4.185
 3576SOL     OW11059   2.938   0.683   5.188
 3576SOL    HW111060   2.858   0.622   5.191
 3576SOL    HW211061   3.019   0.630   5.164
 3577SOL     OW11062   3.089   1.570   4.517
 3577SOL    HW111063   3.110   1.644   4.452
 3577SOL    HW211064   3.157   1.570   4.590
 3578SOL     OW11065   2.321   1.152   4.465
 3578SOL    HW111066   2.250   1.125   4.530
 3578SOL    HW211067   2.295   1.124   4.372
 3579SOL     OW11068   3.133   1.797   4.315
 3579SOL    HW111069   3.177   1.861   4.251
 3579SOL    HW211070   3.083   1.849   4.385
 3580SOL     OW11071   2.894   0.549   3.740
 3580SOL    HW111072   2.853   0.631   3.701
 3580SOL    HW211073   2.958   0.575   3.813
 3581SOL     OW11074   1.940   0.556   5.110
 3581SOL    HW111075   2.032   0.555   5.069
 3581SOL    HW211076   1.934   0.630   5.177
 3582SOL     OW11077   2.423   0.222   4.871
 3582SOL    HW111078   2.461   0.138   4.908
 3582SOL    HW211079   2.335   0.241   4.915
 3583SOL     OW11080   2.728   0.454   4.366
 3583SOL    HW111081   2.696   0.526   4.304
 3583SOL    HW211082   2.752   0.373   4.313
 3584SOL     OW11083   2.879   0.039   4.477
 3584SOL    HW111084   2.807   0.044   4.408
 3584SOL    HW211085   2.855  -0.030   4.546
 3585SOL     OW11086   3.291   1.173   4.591
 3585SOL    HW111087   3.236   1.089   4.584
 3585SOL    HW211088   3.317   1.202   4.499
 3586SOL     OW11089   3.328   0.590   4.716
 3586SOL    HW111090   3.298   0.495   4.723
 3586SOL    HW211091   3.401   0.606   4.782
 3587SOL     OW11092   3.719   0.833   4.101
 3587SOL    HW111093   3.761   0.769   4.165
 3587SOL    HW211094   3.681   0.782   4.023
 3588SOL     OW11095   2.350   1.385   3.898
 3588SOL    HW111096   2.263   1.370   3.945
 3588SOL    HW211097   2.333   1.411   3.803
 3589SOL     OW11098   3.526   1.280   4.381
 3589SOL    HW111099   3.625   1.288   4.395
 3589SOL    HW211100   3.481   1.364   4.412
 3590SOL     OW11101   3.252   0.575   3.802
 3590SOL    HW111102   3.198   0.554   3.883
 3590SOL    HW211103   3.343   0.534   3.811
 3591SOL     OW11104   2.389   0.256   4.052
 3591SOL    HW111105   2.416   0.197   3.977
 3591SOL    HW211106   2.389   0.351   4.021
 3592SOL     OW11107   3.616   1.223   5.312
 3592SOL    HW111108   3.707   1.184   5.299
 3592SOL    HW211109   3.624   1.319   5.336
 3593SOL     OW11110   2.926   1.347   5.064
 3593SOL    HW111111   2.846   1.324   5.119
 3593SOL    HW211112   3.009   1.321   5.113
 3594SOL     OW11113   3.454   1.629   5.349
 3594SOL    HW111114   3.481   1.663   5.259
 3594SOL    HW211115   3.533   1.591   5.395
 3595SOL     OW11116   2.973   1.195   4.824
 3595SOL    HW111117   2.933   1.239   4.905
 3595SOL    HW211118   2.932   1.232   4.741
 3596SOL     OW11119   3.500   1.099   4.803
 3596SOL    HW111120   3.505   1.180   4.862
 3596SOL    HW211121   3.414   1.101   4.752
 3597SOL     OW11122   2.777   0.089   5.126
 3597SOL    HW111123   2.802   0.069   5.031
 3597SOL    HW211124   2.849   0.145   5.168
 3598SOL     OW11125   2.842   1.116   5.443
 3598SOL    HW111126   2.743   1.122   5.453
 3598SOL    HW211127   2.865   1.036   5.387
 3599SOL     OW11128   2.567   1.050   4.092
 3599SOL    HW111129   2.553   1.057   4.191
 3599SOL    HW211130   2.651   0.999   4.074
 3600SOL     OW11131   2.272   0.813   4.975
 3600SOL    HW111132   2.358   0.825   5.025
 3600SOL    HW211133   2.230   0.726   5.002
 3601SOL     OW11134   3.136   0.386   4.986
 3601SOL    HW111135   3.157   0.460   5.050
 3601SOL    HW211136   3.047   0.403   4.943
 3602SOL     OW11137   1.926   1.564   5.055
 3602SOL    HW111138   1.880   1.646   5.021
 3602SOL    HW211139   2.024   1.583   5.064
 3603SOL     OW11140   2.229   1.100   4.225
 3603SOL    HW111141   2.222   1.183   4.169
 3603SOL    HW211142   2.233   1.020   4.165
 3604SOL     OW11143   2.428   0.537   4.589
 3604SOL    HW111144   2.440   0.603   4.515
 3604SOL    HW211145   2.474   0.571   4.672
 3605SOL     OW11146   3.114   1.348   4.112
 3605SOL    HW111147   3.164   1.425   4.152
 3605SOL    HW211148   3.019   1.350   4.144
 3606SOL     OW11149   3.134   1.445   4.866
 3606SOL    HW111150   3.181   1.458   4.953
 3606SOL    HW211151   3.068   1.371   4.875
 3607SOL     OW11152   3.444   0.639   4.196
 3607SOL    HW111153   3.413   0.700   4.269
 3607SOL    HW211154   3.494   0.691   4.127
 3608SOL     OW11155   2.216   1.510   5.053
 3608SOL    HW111156   2.195   1.466   4.966
 3608SOL    HW211157   2.313   1.536   5.056
 3609SOL     OW11158   2.264   0.751   5.322
 3609SOL    HW111159   2.332   0.806   5.275
 3609SOL    HW211160   2.304   0.663   5.349
 3610SOL     OW11161   3.449   0.779   5.394
 3610SOL    HW111162   3.357   0.817   5.389
 3610SOL    HW211163   3.509   0.826   5.329
 3611SOL     OW11164   2.875   0.105   5.494
 3611SOL    HW111165   2.881   0.190   5.442
 3611SOL    HW211166   2.907   0.029   5.437
 3612SOL     OW11167   2.366   0.050   5.464
 3612SOL    HW111168   2.324  -0.007   5.394
 3612SOL    HW211169   2.300   0.119   5.496
 3613SOL     OW11170   2.435   0.870   4.753
 3613SOL    HW111171   2.479   0.959   4.744
 3613SOL    HW211172   2.372   0.870   4.830
 3614SOL     OW11173   3.222   0.862   4.769
 3614SOL    HW111174   3.147   0.862   4.703
 3614SOL    HW211175   3.259   0.770   4.778
 3615SOL     OW11176   3.071   0.525   3.999
 3615SOL    HW111177   3.084   0.441   4.053
 3615SOL    HW211178   3.042   0.599   4.059
 3616SOL     OW11179   2.169   0.213   4.955
 3616SOL    HW111180   2.146   0.250   5.045
 3616SOL    HW211181   2.139   0.118   4.949
 3617SOL     OW11182   1.899   1.310   5.006
 3617SOL    HW111183   1.952   1.261   5.074
 3617SOL    HW211184   1.921   1.408   5.011
 3618SOL     OW11185   2.594   0.634   4.788
 3618SOL    HW111186   2.653   0.608   4.712
 3618SOL    HW211187   2.566   0.730   4.777
 3619SOL     OW11188   3.590   0.935   5.578
 3619SOL    HW111189   3.544   0.928   5.489
 3619SOL    HW211190   3.528   0.979   5.644
 3620SOL     OW11191   2.169   0.063   4.342
 3620SOL    HW111192   2.158   0.157   4.375
 3620SOL    HW211193   2.164   0.000   4.419
 3621SOL     OW11194   3.484   0.367   4.098
 3621SOL    HW111195   3.486   0.291   4.162
 3621SOL    HW211196   3.436   0.444   4.138
 3622SOL     OW11197   2.885   0.766   4.690
 3622SOL    HW111198   2.900   0.787   4.786
 3622SOL    HW211199   2.855   0.671   4.681
 3623SOL     OW11200   2.842   1.573   5.424
 3623SOL    HW111201   2.822   1.617   5.336
 3623SOL    HW211202   2.881   1.482   5.408
 3624SOL     OW11203   3.721   1.518   5.329
 3624SOL    HW111204   3.735   1.545   5.234
 3624SOL    HW211205   3.804   1.540   5.382
 3625SOL     OW11206   2.212   0.898   5.528
 3625SOL    HW111207   2.288   0.942   5.576
 3625SOL    HW211208   2.247   0.851   5.446
 3626SOL     OW11209   3.402   0.274   3.849
 3626SOL    HW111210   3.341   0.199   3.872
 3626SOL    HW211211   3.424   0.326   3.932
 3627SOL     OW11212   3.165   0.838   3.766
 3627SOL    HW111213   3.199   0.745   3.781
 3627SOL    HW211214   3.183   0.865   3.671
 3628SOL     OW11215   2.930   1.333   4.573
 3628SOL    HW111216   2.937   1.249   4.518
 3628SOL    HW211217   2.992   1.402   4.537
 3629SOL     OW11218   2.181   0.810   4.673
 3629SOL    HW111219   2.274   0.846   4.678
 3629SOL    HW211220   2.175   0.725   4.725
 3630SOL     OW11221   2.201   0.509   4.730
 3630SOL    HW111222   2.149   0.426   4.713
 3630SOL    HW211223   2.278   0.514   4.666
 3631SOL     OW11224   3.000   0.380   5.402
 3631SOL    HW111225   2.955   0.443   5.466
 3631SOL    HW211226   3.093   0.411   5.385
 3632SOL     OW11227   3.022   0.207   5.201
 3632SOL    HW111228   3.022   0.271   5.278
 3632SOL    HW211229   3.050   0.255   5.118
 3633SOL     OW11230   1.870   1.326   3.924
 3633SOL    HW111231   1.777   1.347   3.893
 3633SOL    HW211232   1.880   1.227   3.937
 3634SOL     OW11233   1.950   1.801   4.651
 3634SOL    HW111234   1.908   1.715   4.624
 3634SOL    HW211235   2.044   1.804   4.617
 3635SOL     OW11236   2.366   1.568   4.634
 3635SOL    HW111237   2.432   1.642   4.643
 3635SOL    HW211238   2.410   1.489   4.592
 3636SOL     OW11239   2.864   0.796   4.962
 3636SOL    HW111240   2.905   0.764   5.048
 3636SOL    HW211241   2.768   0.769   4.959
 3637SOL     OW11242   1.902   0.544   4.838
 3637SOL    HW111243   1.987   0.511   4.797
 3637SOL    HW211244   1.915   0.559   4.936
 3638SOL     OW11245   2.051   0.520   5.446
 3638SOL    HW111246   2.110   0.480   5.376
 3638SOL    HW211247   1.993   0.591   5.405
 3639SOL     OW11248   3.231   0.950   5.384
 3639SOL    HW111249   3.270   1.039   5.404
 3639SOL    HW211250   3.241   0.930   5.287
 3640SOL     OW11251   2.677   0.572   4.049
 3640SOL    HW111252   2.684   0.483   4.003
 3640SOL    HW211253   2.583   0.606   4.041
 3641SOL     OW11254   3.519   0.604   4.930
 3641SOL    HW111255   3.481   0.535   4.992
 3641SOL    HW211256   3.601   0.568   4.886
 3642SOL     OW11257   2.533   0.464   4.993
 3642SOL    HW111258   2.499   0.375   4.963
 3642SOL    HW211259   2.559   0.518   4.913
 3643SOL     OW11260   2.792   1.678   5.189
 3643SOL    HW111261   2.768   1.660   5.094
 3643SOL    HW211262   2.822   1.772   5.199
 3644SOL     OW11263   2.335   0.500   3.915
 3644SOL    HW111264   2.396   0.580   3.919
 3644SOL    HW211265   2.240   0.531   3.922
 3645SOL     OW11266   2.021   1.137   5.190
 3645SOL    HW111267   2.043   1.076   5.266
 3645SOL    HW211268   2.031   1.088   5.104
 3646SOL     OW11269   3.209   1.059   4.958
 3646SOL    HW111270   3.233   0.996   4.884
 3646SOL    HW211271   3.119   1.099   4.940
 3647SOL     OW11272   3.164   0.855   4.033
 3647SOL    HW111273   3.078   0.824   4.075
 3647SOL    HW211274   3.160   0.841   3.934
 3648SOL     OW11275   3.621   1.747   4.878
 3648SOL    HW111276   3.682   1.777   4.805
 3648SOL    HW211277   3.583   1.658   4.856
 3649SOL     OW11278   3.114   1.731   4.852
 3649SOL    HW111279   3.198   1.736   4.798
 3649SOL    HW211280   3.091   1.635   4.870
 3650SOL     OW11281   1.945   1.258   4.746
 3650SOL    HW111282   1.940   1.257   4.846
 3650SOL    HW211283   1.862   1.217   4.708
 3651SOL     OW11284   3.588   0.135   4.247
 3651SOL    HW111285   3.661   0.118   4.180
 3651SOL    HW211286   3.557   0.048   4.285
 3652SOL     OW11287   3.250   1.573   4.201
 3652SOL    HW111288   3.317   1.585   4.127
 3652SOL    HW211289   3.210   1.662   4.224
 3653SOL     OW11290   3.142   0.927   4.396
 3653SOL    HW111291   3.202   0.846   4.398
 3653SOL    HW211292   3.182   0.996   4.336
 3654SOL     OW11293   2.692   1.273   5.146
 3654SOL    HW111294   2.687   1.306   5.241
 3654SOL    HW211295   2.606   1.292   5.100
 3655SOL     OW11296   2.534   1.616   3.878
 3655SOL    HW111297   2.543   1.626   3.779
 3655SOL    HW211298   2.494   1.527   3.899
 3656SOL     OW11299   3.512   1.720   5.118
 3656SOL    HW111300   3.565   1.730   5.034
 3656SOL    HW211301   3.485   1.810   5.152
 3657SOL     OW11302   3.703   0.175   4.687
 3657SOL    HW111303   3.742   0.090   4.651
 3657SOL    HW211304   3.605   0.177   4.668
 3658SOL     OW11305   2.125   0.326   4.444
 3658SOL    HW111306   2.046   0.377   4.410
 3658SOL    HW211307   2.116   0.311   4.542
 3659SOL     OW11308   3.056   1.612   3.755
 3659SOL    HW111309   3.062   1.519   3.792
 3659SOL    HW211310   2.997   1.612   3.675
 3660SOL     OW11311   2.684   1.002   5.096
 3660SOL    HW111312   2.724   1.001   5.004
 3660SOL    HW211313   2.694   1.094   5.136
 3661SOL     OW11314   2.778   0.910   4.015
 3661SOL    HW111315   2.841   0.948   3.947
 3661SOL    HW211316   2.818   0.827   4.054
 3662SOL     OW11317   3.366   1.607   3.768
 3662SOL    HW111318   3.274   1.644   3.775
 3662SOL    HW211319   3.404   1.627   3.678
 3663SOL     OW11320   2.234   1.288   5.214
 3663SOL    HW111321   2.221   1.381   5.180
 3663SOL    HW211322   2.150   1.236   5.201
 3664SOL     OW11323   3.476   1.292   5.013
 3664SOL    HW111324   3.536   1.295   5.093
 3664SOL    HW211325   3.401   1.356   5.026
 3665SOL     OW11326   2.901   1.098   4.420
 3665SOL    HW111327   2.831   1.051   4.474
 3665SOL    HW211328   2.960   1.030   4.377
 3666SOL     OW11329   2.876   0.236   4.695
 3666SOL    HW111330   2.868   0.200   4.602
 3666SOL    HW211331   2.874   0.160   4.760
 3667SOL     OW11332   2.452   1.487   4.215
 3667SOL    HW111333   2.494   1.429   4.145
 3667SOL    HW211334   2.408   1.566   4.171
 3668SOL     OW11335   3.571   0.385   5.105
 3668SOL    HW111336   3.644   0.454   5.109
 3668SOL    HW211337   3.599   0.310   5.046
 3669SOL     OW11338   2.117   1.348   4.014
 3669SOL    HW111339   2.021   1.349   3.987
 3669SOL    HW211340   2.129   1.401   4.098
 3670SOL     OW11341   1.967   1.013   5.450
 3670SOL    HW111342   1.890   0.980   5.504
 3670SOL    HW211343   2.052   0.983   5.492
 3671SOL     OW11344   2.534   0.203   5.213
 3671SOL    HW111345   2.624   0.187   5.173
 3671SOL    HW211346   2.542   0.208   5.312
 3672SOL     OW11347   1.937   0.345   3.757
 3672SOL    HW111348   1.845   0.317   3.728
 3672SOL    HW211349   1.968   0.422   3.701
 3673SOL     OW11350   3.302   0.856   5.122
 3673SOL    HW111351   3.245   0.908   5.059
 3673SOL    HW211352   3.398   0.868   5.098
 3674SOL     OW11353   1.934   0.166   4.042
 3674SOL    HW111354   1.917   0.249   3.988
 3674SOL    HW211355   2.024   0.129   4.020
 3675SOL     OW11356   3.045   1.335   3.843
 3675SOL    HW111357   2.946   1.324   3.845
 3675SOL    HW211358   3.079   1.350   3.936
 3676SOL     OW11359   2.475   0.842   5.155
 3676SOL    HW111360   2.531   0.923   5.138
 3676SOL    HW211361   2.534   0.762   5.158
 3677SOL     OW11362   3.355   1.767   4.683
 3677SOL    HW111363   3.388   1.831   4.614
 3677SOL    HW211364   3.421   1.761   4.758
 3678SOL     OW11365   2.578   0.565   5.432
 3678SOL    HW111366   2.597   0.630   5.506
 3678SOL    HW211367   2.638   0.485   5.441
 3679SOL     OW11368   3.312   1.220   5.357
 3679SOL    HW111369   3.303   1.210   5.456
 3679SOL    HW211370   3.408   1.213   5.331
 3680SOL     OW11371   3.536   0.883   4.978
 3680SOL    HW111372   3.509   0.794   4.941
 3680SOL    HW211373   3.537   0.951   4.905
 3681SOL     OW11374   3.087   0.325   4.173
 3681SOL    HW111375   3.152   0.251   4.162
 3681SOL    HW211376   3.107   0.375   4.257
 3682SOL     OW11377   2.456   0.745   4.376
 3682SOL    HW111378   2.506   0.830   4.357
 3682SOL    HW211379   2.368   0.747   4.328
 3683SOL     OW11380   3.639   0.342   5.366
 3683SOL    HW111381   3.622   0.373   5.272
 3683SOL    HW211382   3.555   0.305   5.404
 3684SOL     OW11383   3.592   0.934   5.241
 3684SOL    HW111384   3.630   1.025   5.256
 3684SOL    HW211385   3.584   0.917   5.142
 3685SOL     OW11386   2.721   1.374   3.740
 3685SOL    HW111387   2.675   1.389   3.828
 3685SOL    HW211388   2.765   1.459   3.710
 3686SOL     OW11389   2.523   1.790   4.677
 3686SOL    HW111390   2.477   1.878   4.664
 3686SOL    HW211391   2.622   1.802   4.670
 3687SOL     OW11392   2.721   0.956   4.585
 3687SOL    HW111393   2.775   0.887   4.633
 3687SOL    HW211394   2.689   1.025   4.651
 3688SOL     OW11395   2.945   0.984   3.811
 3688SOL    HW111396   2.922   1.037   3.729
 3688SOL    HW211397   3.026   0.928   3.792
 3689SOL     OW11398   3.723   1.569   4.575
 3689SOL    HW111399   3.652   1.557   4.505
 3689SOL    HW211400   3.724   1.490   4.635
 3690SOL     OW11401   2.083   1.314   5.568
 3690SOL    HW111402   2.018   1.241   5.547
 3690SOL    HW211403   2.087   1.328   5.666
 3691SOL     OW11404   1.941   1.240   4.377
 3691SOL    HW111405   1.940   1.193   4.465
 3691SOL    HW211406   2.023   1.212   4.326
 3692SOL     OW11407   2.534   1.391   5.348
 3692SOL    HW111408   2.456   1.341   5.386
 3692SOL    HW211409   2.531   1.486   5.379
 3693SOL     OW11410   3.686   0.192   4.951
 3693SOL    HW111411   3.682   0.102   4.995
 3693SOL    HW211412   3.689   0.181   4.852
 3694SOL     OW11413   2.290   0.424   4.244
 3694SOL    HW111414   2.320   0.352   4.182
 3694SOL    HW211415   2.251   0.384   4.327
 3695SOL     OW11416   3.567   1.487   4.828
 3695SOL    HW111417   3.474   1.462   4.801
 3695SOL    HW211418   3.593   1.437   4.910
 3696SOL     OW11419   2.179   0.547   5.004
 3696SOL    HW111420   2.217   0.488   5.076
 3696SOL    HW211421   2.219   0.521   4.916
 3697SOL     OW11422   2.674   1.586   4.411
 3697SOL    HW111423   2.706   1.596   4.317
 3697SOL    HW211424   2.595   1.524   4.413
 3698SOL     OW11425   3.286   0.214   4.836
 3698SOL    HW111426   3.338   0.149   4.891
 3698SOL    HW211427   3.237   0.277   4.897
 3699SOL     OW11428   2.863   0.034   4.878
 3699SOL    HW111429   2.800  -0.038   4.847
 3699SOL    HW211430   2.956  -0.002   4.878
 3700SOL     OW11431   2.632   1.330   4.025
 3700SOL    HW111432   2.586   1.243   4.042
 3700SOL    HW211433   2.723   1.327   4.066
 3701SOL     OW11434   2.480   1.567   5.008
 3701SOL    HW111435   2.475   1.649   5.065
 3701SOL    HW211436   2.569   1.564   4.963
 3702SOL     OW11437   3.214   0.052   3.892
 3702SOL    HW111438   3.249   0.011   3.808
 3702SOL    HW211439   3.124   0.014   3.912
 3703SOL     OW11440   3.162   0.453   4.415
 3703SOL    HW111441   3.103   0.533   4.419
 3703SOL    HW211442   3.177   0.418   4.508
 3704SOL     OW11443   3.455   0.221   4.606
 3704SOL    HW111444   3.371   0.220   4.660
 3704SOL    HW211445   3.457   0.304   4.550
 3705SOL     OW11446   1.901   1.077   4.024
 3705SOL    HW111447   2.000   1.066   4.015
 3705SOL    HW211448   1.861   0.991   4.056
 3706SOL     OW11449   2.737   1.646   4.061
 3706SOL    HW111450   2.660   1.611   4.007
 3706SOL    HW211451   2.705   1.717   4.123
 3707SOL     OW11452   2.092   0.628   5.699
 3707SOL    HW111453   1.999   0.626   5.736
 3707SOL    HW211454   2.093   0.589   5.607
 3708SOL     OW11455   2.087   0.275   6.582
 3708SOL    HW111456   2.122   0.258   6.674
 3708SOL    HW211457   1.999   0.230   6.570
 3709SOL     OW11458   1.881   0.368   6.233
 3709SOL    HW111459   1.799   0.411   6.272
 3709SOL    HW211460   1.853   0.295   6.170
 3710SOL     OW11461   2.431   1.275   6.751
 3710SOL    HW111462   2.338   1.268   6.714
 3710SOL    HW211463   2.442   1.364   6.795
 3711SOL     OW11464   3.417   1.511   6.289
 3711SOL    HW111465   3.360   1.495   6.370
 3711SOL    HW211466   3.358   1.521   6.209
 3712SOL     OW11467   2.997   0.703   6.303
 3712SOL    HW111468   3.054   0.781   6.278
 3712SOL    HW211469   2.937   0.729   6.379
 3713SOL     OW11470   3.617   0.607   5.817
 3713SOL    HW111471   3.605   0.594   5.718
 3713SOL    HW211472   3.587   0.526   5.866
 3714SOL     OW11473   2.630   1.144   6.609
 3714SOL    HW111474   2.552   1.161   6.669
 3714SOL    HW211475   2.664   1.231   6.573
 3715SOL     OW11476   2.712   0.798   7.409
 3715SOL    HW111477   2.708   0.874   7.474
 3715SOL    HW211478   2.734   0.834   7.318
 3716SOL     OW11479   2.547   1.012   6.251
 3716SOL    HW111480   2.616   0.996   6.321
 3716SOL    HW211481   2.474   1.069   6.289
 3717SOL     OW11482   2.548   1.161   7.389
 3717SOL    HW111483   2.608   1.240   7.403
 3717SOL    HW211484   2.462   1.192   7.348
 3718SOL     OW11485   2.197   1.435   6.647
 3718SOL    HW111486   2.119   1.404   6.594
 3718SOL    HW211487   2.255   1.493   6.590
 3719SOL     OW11488   3.322   1.505   6.925
 3719SOL    HW111489   3.346   1.599   6.951
 3719SOL    HW211490   3.306   1.451   7.007
 3720SOL     OW11491   2.300   0.392   7.085
 3720SOL    HW111492   2.382   0.336   7.094
 3720SOL    HW211493   2.219   0.334   7.089
 3721SOL     OW11494   3.465   0.447   6.323
 3721SOL    HW111495   3.391   0.493   6.273
 3721SOL    HW211496   3.516   0.515   6.376
 3722SOL     OW11497   2.093   1.713   6.069
 3722SOL    HW111498   2.127   1.790   6.123
 3722SOL    HW211499   2.137   1.713   5.979
 3723SOL     OW11500   2.989   1.341   7.276
 3723SOL    HW111501   3.036   1.341   7.364
 3723SOL    HW211502   2.941   1.254   7.265
 3724SOL     OW11503   2.092   1.434   6.124
 3724SOL    HW111504   2.066   1.530   6.124
 3724SOL    HW211505   2.021   1.380   6.169
 3725SOL     OW11506   2.102   1.091   6.472
 3725SOL    HW111507   2.116   1.007   6.524
 3725SOL    HW211508   2.047   1.155   6.527
 3726SOL     OW11509   2.482   1.786   7.025
 3726SOL    HW111510   2.390   1.769   7.060
 3726SOL    HW211511   2.510   1.878   7.051
 3727SOL     OW11512   2.468   0.964   5.709
 3727SOL    HW111513   2.475   1.048   5.655
 3727SOL    HW211514   2.514   0.977   5.797
 3728SOL     OW11515   3.456   0.114   7.066
 3728SOL    HW111516   3.438   0.181   6.994
 3728SOL    HW211517   3.453   0.160   7.155
 3729SOL     OW11518   1.984   0.643   6.149
 3729SOL    HW111519   1.939   0.555   6.166
 3729SOL    HW211520   1.983   0.697   6.233
 3730SOL     OW11521   3.704   1.767   5.945
 3730SOL    HW111522   3.758   1.738   6.025
 3730SOL    HW211523   3.734   1.857   5.916
 3731SOL     OW11524   1.889   1.596   5.703
 3731SOL    HW111525   1.870   1.500   5.724
 3731SOL    HW211526   1.856   1.654   5.778
 3732SOL     OW11527   3.551   0.922   6.198
 3732SOL    HW111528   3.646   0.893   6.206
 3732SOL    HW211529   3.543   0.987   6.123
 3733SOL     OW11530   3.503   1.108   6.018
 3733SOL    HW111531   3.589   1.110   5.966
 3733SOL    HW211532   3.517   1.155   6.106
 3734SOL     OW11533   1.975   0.737   7.183
 3734SOL    HW111534   2.063   0.724   7.228
 3734SOL    HW211535   1.962   0.834   7.161
 3735SOL     OW11536   2.475   1.365   6.312
 3735SOL    HW111537   2.426   1.278   6.321
 3735SOL    HW211538   2.452   1.408   6.225
 3736SOL     OW11539   3.155   1.228   7.009
 3736SOL    HW111540   3.192   1.155   6.951
 3736SOL    HW211541   3.207   1.233   7.094
 3737SOL     OW11542   2.671   0.004   6.088
 3737SOL    HW111543   2.711   0.095   6.079
 3737SOL    HW211544   2.571   0.012   6.094
 3738SOL     OW11545   2.059   0.976   6.850
 3738SOL    HW111546   2.148   0.931   6.836
 3738SOL    HW211547   1.986   0.911   6.831
 3739SOL     OW11548   3.387   0.999   5.776
 3739SOL    HW111549   3.324   0.923   5.789
 3739SOL    HW211550   3.435   1.017   5.862
 3740SOL     OW11551   3.049   1.792   7.202
 3740SOL    HW111552   3.073   1.852   7.126
 3740SOL    HW211553   3.056   1.697   7.172
 3741SOL     OW11554   2.179   0.251   7.387
 3741SOL    HW111555   2.250   0.322   7.393
 3741SOL    HW211556   2.091   0.290   7.415
 3742SOL     OW11557   3.328   1.417   6.539
 3742SOL    HW111558   3.269   1.423   6.619
 3742SOL    HW211559   3.313   1.329   6.493
 3743SOL     OW11560   3.529   1.714   6.158
 3743SOL    HW111561   3.488   1.691   6.070
 3743SOL    HW211562   3.511   1.640   6.223
 3744SOL     OW11563   2.460   0.729   5.856
 3744SOL    HW111564   2.484   0.798   5.788
 3744SOL    HW211565   2.382   0.762   5.910
 3745SOL     OW11566   3.143   0.345   6.530
 3745SOL    HW111567   3.057   0.295   6.517
 3745SOL    HW211568   3.205   0.291   6.586
 3746SOL     OW11569   3.438   1.662   5.893
 3746SOL    HW111570   3.527   1.708   5.896
 3746SOL    HW211571   3.417   1.638   5.798
 3747SOL     OW11572   2.669   0.605   7.051
 3747SOL    HW111573   2.622   0.602   7.140
 3747SOL    HW211574   2.618   0.550   6.985
 3748SOL     OW11575   3.256   0.469   7.260
 3748SOL    HW111576   3.236   0.512   7.348
 3748SOL    HW211577   3.334   0.407   7.269
 3749SOL     OW11578   2.835   0.890   7.158
 3749SOL    HW111579   2.881   0.806   7.129
 3749SOL    HW211580   2.779   0.924   7.083
 3750SOL     OW11581   2.853   0.410   6.828
 3750SOL    HW111582   2.776   0.444   6.882
 3750SOL    HW211583   2.819   0.359   6.749
 3751SOL     OW11584   2.903   0.701   6.015
 3751SOL    HW111585   2.929   0.697   6.111
 3751SOL    HW211586   2.818   0.650   6.001
 3752SOL     OW11587   1.938   0.811   6.375
 3752SOL    HW111588   2.037   0.799   6.384
 3752SOL    HW211589   1.914   0.906   6.396
 3753SOL     OW11590   1.992   1.821   7.157
 3753SOL    HW111591   1.982   1.806   7.256
 3753SOL    HW211592   1.906   1.857   7.121
 3754SOL     OW11593   2.727   0.348   5.781
 3754SOL    HW111594   2.786   0.411   5.732
 3754SOL    HW211595   2.746   0.254   5.752
 3755SOL     OW11596   3.581   0.585   7.417
 3755SOL    HW111597   3.555   0.674   7.381
 3755SOL    HW211598   3.579   0.517   7.344
 3756SOL     OW11599   3.224   1.144   6.131
 3756SOL    HW111600   3.307   1.115   6.083
 3756SOL    HW211601   3.175   1.211   6.075
 3757SOL     OW11602   2.412   0.196   6.471
 3757SOL    HW111603   2.407   0.191   6.571
 3757SOL    HW211604   2.414   0.292   6.442
 3758SOL     OW11605   2.870   1.456   6.063
 3758SOL    HW111606   2.824   1.528   6.011
 3758SOL    HW211607   2.866   1.476   6.161
 3759SOL     OW11608   2.213   1.801   6.439
 3759SOL    HW111609   2.263   1.715   6.445
 3759SOL    HW211610   2.278   1.878   6.436
 3760SOL     OW11611   3.657   1.066   6.459
 3760SOL    HW111612   3.595   1.051   6.383
 3760SOL    HW211613   3.605   1.077   6.544
 3761SOL     OW11614   3.089   1.550   7.092
 3761SOL    HW111615   3.095   1.473   7.156
 3761SOL    HW211616   3.037   1.524   7.012
 3762SOL     OW11617   2.183   0.943   5.828
 3762SOL    HW111618   2.265   0.982   5.786
 3762SOL    HW211619   2.156   0.861   5.779
 3763SOL     OW11620   3.320   0.735   6.314
 3763SOL    HW111621   3.315   0.670   6.389
 3763SOL    HW211622   3.400   0.794   6.327
 3764SOL     OW11623   2.323   1.266   7.313
 3764SOL    HW111624   2.273   1.267   7.227
 3764SOL    HW211625   2.260   1.248   7.389
 3765SOL     OW11626   2.973   1.776   5.823
 3765SOL    HW111627   2.913   1.714   5.873
 3765SOL    HW211628   3.004   1.732   5.738
 3766SOL     OW11629   2.064   0.285   7.084
 3766SOL    HW111630   1.984   0.345   7.071
 3766SOL    HW211631   2.054   0.236   7.170
 3767SOL     OW11632   3.494   1.377   5.667
 3767SOL    HW111633   3.462   1.471   5.657
 3767SOL    HW211634   3.418   1.314   5.655
 3768SOL     OW11635   3.262   0.107   6.012
 3768SOL    HW111636   3.238   0.070   5.922
 3768SOL    HW211637   3.361   0.123   6.016
 3769SOL     OW11638   2.111   1.785   6.827
 3769SOL    HW111639   2.168   1.720   6.877
 3769SOL    HW211640   2.095   1.752   6.734
 3770SOL     OW11641   2.802   1.698   6.490
 3770SOL    HW111642   2.882   1.641   6.511
 3770SOL    HW211643   2.753   1.658   6.413
 3771SOL     OW11644   2.244   0.700   6.066
 3771SOL    HW111645   2.289   0.610   6.063
 3771SOL    HW211646   2.150   0.689   6.099
 3772SOL     OW11647   3.409   0.222   7.315
 3772SOL    HW111648   3.404   0.259   7.407
 3772SOL    HW211649   3.337   0.153   7.303
 3773SOL     OW11650   2.476   0.122   5.703
 3773SOL    HW111651   2.574   0.100   5.710
 3773SOL    HW211652   2.445   0.105   5.610
 3774SOL     OW11653   2.643   0.264   7.335
 3774SOL    HW111654   2.710   0.203   7.378
 3774SOL    HW211655   2.570   0.283   7.400
 3775SOL     OW11656   2.750   1.514   6.781
 3775SOL    HW111657   2.727   1.489   6.687
 3775SOL    HW211658   2.811   1.445   6.820
 3776SOL     OW11659   3.213   0.590   7.019
 3776SOL    HW111660   3.241   0.547   7.104
 3776SOL    HW211661   3.238   0.686   7.020
 3777SOL     OW11662   2.665   1.402   6.510
 3777SOL    HW111663   2.755   1.416   6.468
 3777SOL    HW211664   2.594   1.404   6.439
 3778SOL     OW11665   2.784   0.503   6.485
 3778SOL    HW111666   2.759   0.494   6.389
 3778SOL    HW211667   2.832   0.421   6.516
 3779SOL     OW11668   2.401   0.064   6.098
 3779SOL    HW111669   2.320   0.065   6.156
 3779SOL    HW211670   2.404   0.147   6.043
 3780SOL     OW11671   3.296   1.188   5.627
 3780SOL    HW111672   3.328   1.112   5.684
 3780SOL    HW211673   3.204   1.215   5.657
 3781SOL     OW11674   2.159   0.035   5.757
 3781SOL    HW111675   2.208   0.119   5.736
 3781SOL    HW211676   2.221  -0.030   5.802
 3782SOL     OW11677   2.797   0.236   6.066
 3782SOL    HW111678   2.749   0.277   5.988
 3782SOL    HW211679   2.896   0.234   6.047
 3783SOL     OW11680   2.938   0.683   7.050
 3783SOL    HW111681   2.858   0.622   7.053
 3783SOL    HW211682   3.019   0.630   7.026
 3784SOL     OW11683   3.089   1.570   6.379
 3784SOL    HW111684   3.110   1.644   6.314
 3784SOL    HW211685   3.157   1.570   6.452
 3785SOL     OW11686   2.321   1.152   6.327
 3785SOL    HW111687   2.250   1.125   6.392
 3785SOL    HW211688   2.295   1.124   6.234
 3786SOL     OW11689   3.133   1.797   6.177
 3786SOL    HW111690   3.177   1.861   6.113
 3786SOL    HW211691   3.083   1.849   6.247
 3787SOL     OW11692   2.894   0.549   5.602
 3787SOL    HW111693   2.853   0.631   5.563
 3787SOL    HW211694   2.958   0.575   5.675
 3788SOL     OW11695   1.940   0.556   6.972
 3788SOL    HW111696   2.032   0.555   6.931
 3788SOL    HW211697   1.934   0.630   7.039
 3789SOL     OW11698   2.423   0.222   6.733
 3789SOL    HW111699   2.461   0.138   6.770
 3789SOL    HW211700   2.335   0.241   6.777
 3790SOL     OW11701   2.728   0.454   6.228
 3790SOL    HW111702   2.696   0.526   6.166
 3790SOL    HW211703   2.752   0.373   6.175
 3791SOL     OW11704   2.879   0.039   6.339
 3791SOL    HW111705   2.807   0.044   6.270
 3791SOL    HW211706   2.855  -0.030   6.408
 3792SOL     OW11707   3.291   1.173   6.453
 3792SOL    HW111708   3.236   1.089   6.446
 3792SOL    HW211709   3.317   1.202   6.361
 3793SOL     OW11710   3.328   0.590   6.578
 3793SOL    HW111711   3.298   0.495   6.585
 3793SOL    HW211712   3.401   0.606   6.644
 3794SOL     OW11713   3.719   0.833   5.963
 3794SOL    HW111714   3.761   0.769   6.027
 3794SOL    HW211715   3.681   0.782   5.885
 3795SOL     OW11716   2.350   1.385   5.760
 3795SOL    HW111717   2.263   1.370   5.807
 3795SOL    HW211718   2.333   1.411   5.665
 3796SOL     OW11719   3.526   1.280   6.243
 3796SOL    HW111720   3.625   1.288   6.257
 3796SOL    HW211721   3.481   1.364   6.274
 3797SOL     OW11722   3.252   0.575   5.664
 3797SOL    HW111723   3.198   0.554   5.745
 3797SOL    HW211724   3.343   0.534   5.673
 3798SOL     OW11725   2.389   0.256   5.914
 3798SOL    HW111726   2.416   0.197   5.839
 3798SOL    HW211727   2.389   0.351   5.883
 3799SOL     OW11728   3.616   1.223   7.174
 3799SOL    HW111729   3.707   1.184   7.161
 3799SOL    HW211730   3.624   1.319   7.198
 3800SOL     OW11731   2.926   1.347   6.926
 3800SOL    HW111732   2.846   1.324   6.981
 3800SOL    HW211733   3.009   1.321   6.975
 3801SOL     OW11734   3.454   1.629   7.211
 3801SOL    HW111735   3.481   1.663   7.121
 3801SOL    HW211736   3.533   1.591   7.257
 3802SOL     OW11737   2.973   1.195   6.686
 3802SOL    HW111738   2.933   1.239   6.767
 3802SOL    HW211739   2.932   1.232   6.603
 3803SOL     OW11740   3.500   1.099   6.665
 3803SOL    HW111741   3.505   1.180   6.724
 3803SOL    HW211742   3.414   1.101   6.614
 3804SOL     OW11743   2.777   0.089   6.988
 3804SOL    HW111744   2.802   0.069   6.893
 3804SOL    HW211745   2.849   0.145   7.030
 3805SOL     OW11746   2.842   1.116   7.305
 3805SOL    HW111747   2.743   1.122   7.315
 3805SOL    HW211748   2.865   1.036   7.249
 3806SOL     OW11749   2.567   1.050   5.954
 3806SOL    HW111750   2.553   1.057   6.053
 3806SOL    HW211751   2.651   0.999   5.936
 3807SOL     OW11752   2.272   0.813   6.837
 3807SOL    HW111753   2.358   0.825   6.887
 3807SOL    HW211754   2.230   0.726   6.864
 3808SOL     OW11755   3.136   0.386   6.848
 3808SOL    HW111756   3.157   0.460   6.912
 3808SOL    HW211757   3.047   0.403   6.805
 3809SOL     OW11758   1.926   1.564   6.917
 3809SOL    HW111759   1.880   1.646   6.883
 3809SOL    HW211760   2.024   1.583   6.926
 3810SOL     OW11761   2.229   1.100   6.087
 3810SOL    HW111762   2.222   1.183   6.031
 3810SOL    HW211763   2.233   1.020   6.027
 3811SOL     OW11764   2.428   0.537   6.451
 3811SOL    HW111765   2.440   0.603   6.377
 3811SOL    HW211766   2.474   0.571   6.534
 3812SOL     OW11767   3.114   1.348   5.974
 3812SOL    HW111768   3.164   1.425   6.014
 3812SOL    HW211769   3.019   1.350   6.006
 3813SOL     OW11770   3.134   1.445   6.728
 3813SOL    HW111771   3.181   1.458   6.815
 3813SOL    HW211772   3.068   1.371   6.737
 3814SOL     OW11773   3.444   0.639   6.058
 3814SOL    HW111774   3.413   0.700   6.131
 3814SOL    HW211775   3.494   0.691   5.989
 3815SOL     OW11776   2.216   1.510   6.915
 3815SOL    HW111777   2.195   1.466   6.828
 3815SOL    HW211778   2.313   1.536   6.918
 3816SOL     OW11779   2.264   0.751   7.184
 3816SOL    HW111780   2.332   0.806   7.137
 3816SOL    HW211781   2.304   0.663   7.211
 3817SOL     OW11782   3.449   0.779   7.256
 3817SOL    HW111783   3.357   0.817   7.251
 3817SOL    HW211784   3.509   0.826   7.191
 3818SOL     OW11785   2.875   0.105   7.356
 3818SOL    HW111786   2.881   0.190   7.304
 3818SOL    HW211787   2.907   0.029   7.299
 3819SOL     OW11788   2.366   0.050   7.326
 3819SOL    HW111789   2.324  -0.007   7.256
 3819SOL    HW211790   2.300   0.119   7.358
 3820SOL     OW11791   2.435   0.870   6.615
 3820SOL    HW111792   2.479   0.959   6.606
 3820SOL    HW211793   2.372   0.870   6.692
 3821SOL     OW11794   3.222   0.862   6.631
 3821SOL    HW111795   3.147   0.862   6.565
 3821SOL    HW211796   3.259   0.770   6.640
 3822SOL     OW11797   3.071   0.525   5.861
 3822SOL    HW111798   3.084   0.441   5.915
 3822SOL    HW211799   3.042   0.599   5.921
 3823SOL     OW11800   2.169   0.213   6.817
 3823SOL    HW111801   2.146   0.250   6.907
 3823SOL    HW211802   2.139   0.118   6.811
 3824SOL     OW11803   1.899   1.310   6.868
 3824SOL    HW111804   1.952   1.261   6.936
 3824SOL    HW211805   1.921   1.408   6.873
 3825SOL     OW11806   2.594   0.634   6.650
 3825SOL    HW111807   2.653   0.608   6.574
 3825SOL    HW211808   2.566   0.730   6.639
 3826SOL     OW11809   3.590   0.935   7.440
 3826SOL    HW111810   3.544   0.928   7.351
 3826SOL    HW211811   3.528   0.979   7.506
 3827SOL     OW11812   2.169   0.063   6.204
 3827SOL    HW111813   2.158   0.157   6.237
 3827SOL    HW211814   2.164   0.000   6.281
 3828SOL     OW11815   3.484   0.367   5.960
 3828SOL    HW111816   3.486   0.291   6.024
 3828SOL    HW211817   3.436   0.444   6.000
 3829SOL     OW11818   2.885   0.766   6.552
 3829SOL    HW111819   2.900   0.787   6.648
 3829SOL    HW211820   2.855   0.671   6.543
 3830SOL     OW11821   2.842   1.573   7.286
 3830SOL    HW111822   2.822   1.617   7.198
 3830SOL    HW211823   2.881   1.482   7.270
 3831SOL     OW11824   3.721   1.518   7.191
 3831SOL    HW111825   3.735   1.545   7.096
 3831SOL    HW211826   3.804   1.540   7.244
 3832SOL     OW11827   2.212   0.898   7.390
 3832SOL    HW111828   2.288   0.942   7.438
 3832SOL    HW211829   2.247   0.851   7.308
 3833SOL     OW11830   3.402   0.274   5.711
 3833SOL    HW111831   3.341   0.199   5.734
 3833SOL    HW211832   3.424   0.326   5.794
 3834SOL     OW11833   3.165   0.838   5.628
 3834SOL    HW111834   3.199   0.745   5.643
 3834SOL    HW211835   3.183   0.865   5.533
 3835SOL     OW11836   2.930   1.333   6.435
 3835SOL    HW111837   2.937   1.249   6.380
 3835SOL    HW211838   2.992   1.402   6.399
 3836SOL     OW11839   2.181   0.810   6.535
 3836SOL    HW111840   2.274   0.846   6.540
 3836SOL    HW211841   2.175   0.725   6.587
 3837SOL     OW11842   2.201   0.509   6.592
 3837SOL    HW111843   2.149   0.426   6.575
 3837SOL    HW211844   2.278   0.514   6.528
 3838SOL     OW11845   3.000   0.380   7.264
 3838SOL    HW111846   2.955   0.443   7.328
 3838SOL    HW211847   3.093   0.411   7.247
 3839SOL     OW11848   3.022   0.207   7.063
 3839SOL    HW111849   3.022   0.271   7.140
 3839SOL    HW211850   3.050   0.255   6.980
 3840SOL     OW11851   1.870   1.326   5.786
 3840SOL    HW111852   1.777   1.347   5.755
 3840SOL    HW211853   1.880   1.227   5.799
 3841SOL     OW11854   1.950   1.801   6.513
 3841SOL    HW111855   1.908   1.715   6.486
 3841SOL    HW211856   2.044   1.804   6.479
 3842SOL     OW11857   2.366   1.568   6.496
 3842SOL    HW111858   2.432   1.642   6.505
 3842SOL    HW211859   2.410   1.489   6.454
 3843SOL     OW11860   2.864   0.796   6.824
 3843SOL    HW111861   2.905   0.764   6.910
 3843SOL    HW211862   2.768   0.769   6.821
 3844SOL     OW11863   1.902   0.544   6.700
 3844SOL    HW111864   1.987   0.511   6.659
 3844SOL    HW211865   1.915   0.559   6.798
 3845SOL     OW11866   2.051   0.520   7.308
 3845SOL    HW111867   2.110   0.480   7.238
 3845SOL    HW211868   1.993   0.591   7.267
 3846SOL     OW11869   3.231   0.950   7.246
 3846SOL    HW111870   3.270   1.039   7.266
 3846SOL    HW211871   3.241   0.930   7.149
 3847SOL     OW11872   2.677   0.572   5.911
 3847SOL    HW111873   2.684   0.483   5.865
 3847SOL    HW211874   2.583   0.606   5.903
 3848SOL     OW11875   3.519   0.604   6.792
 3848SOL    HW111876   3.481   0.535   6.854
 3848SOL    HW211877   3.601   0.568   6.748
 3849SOL     OW11878   2.114   1.564   7.330
 3849SOL    HW111879   2.084   1.621   7.406
 3849SOL    HW211880   2.107   1.467   7.356
 3850SOL     OW11881   2.533   0.464   6.855
 3850SOL    HW111882   2.499   0.375   6.825
 3850SOL    HW211883   2.559   0.518   6.775
 3851SOL     OW11884   2.792   1.678   7.051
 3851SOL    HW111885   2.768   1.660   6.956
 3851SOL    HW211886   2.822   1.772   7.061
 3852SOL     OW11887   2.335   0.500   5.777
 3852SOL    HW111888   2.396   0.580   5.781
 3852SOL    HW211889   2.240   0.531   5.784
 3853SOL     OW11890   2.021   1.137   7.052
 3853SOL    HW111891   2.043   1.076   7.128
 3853SOL    HW211892   2.031   1.088   6.966
 3854SOL     OW11893   3.209   1.059   6.820
 3854SOL    HW111894   3.233   0.996   6.746
 3854SOL    HW211895   3.119   1.099   6.802
 3855SOL     OW11896   3.164   0.855   5.895
 3855SOL    HW111897   3.078   0.824   5.937
 3855SOL    HW211898   3.160   0.841   5.796
 3856SOL     OW11899   3.621   1.747   6.740
 3856SOL    HW111900   3.682   1.777   6.667
 3856SOL    HW211901   3.583   1.658   6.718
 3857SOL     OW11902   3.114   1.731   6.714
 3857SOL    HW111903   3.198   1.736   6.660
 3857SOL    HW211904   3.091   1.635   6.732
 3858SOL     OW11905   1.945   1.258   6.608
 3858SOL    HW111906   1.940   1.257   6.708
 3858SOL    HW211907   1.862   1.217   6.570
 3859SOL     OW11908   2.550   1.662   7.302
 3859SOL    HW111909   2.494   1.743   7.311
 3859SOL    HW211910   2.602   1.666   7.216
 3860SOL     OW11911   3.588   0.135   6.109
 3860SOL    HW111912   3.661   0.118   6.042
 3860SOL    HW211913   3.557   0.048   6.147
 3861SOL     OW11914   3.250   1.573   6.063
 3861SOL    HW111915   3.317   1.585   5.989
 3861SOL    HW211916   3.210   1.662   6.086
 3862SOL     OW11917   1.992   1.794   7.437
 3862SOL    HW111918   1.951   1.720   7.490
 3862SOL    HW211919   2.056   1.845   7.495
 3863SOL     OW11920   3.142   0.927   6.258
 3863SOL    HW111921   3.202   0.846   6.260
 3863SOL    HW211922   3.182   0.996   6.198
 3864SOL     OW11923   2.692   1.273   7.008
 3864SOL    HW111924   2.687   1.306   7.103
 3864SOL    HW211925   2.606   1.292   6.962
 3865SOL     OW11926   2.534   1.616   5.740
 3865SOL    HW111927   2.543   1.626   5.641
 3865SOL    HW211928   2.494   1.527   5.761
 3866SOL     OW11929   3.512   1.720   6.980
 3866SOL    HW111930   3.565   1.730   6.896
 3866SOL    HW211931   3.485   1.810   7.014
 3867SOL     OW11932   3.703   0.175   6.549
 3867SOL    HW111933   3.742   0.090   6.513
 3867SOL    HW211934   3.605   0.177   6.530
 3868SOL     OW11935   2.125   0.326   6.306
 3868SOL    HW111936   2.046   0.377   6.272
 3868SOL    HW211937   2.116   0.311   6.404
 3869SOL     OW11938   3.056   1.612   5.617
 3869SOL    HW111939   3.062   1.519   5.654
 3869SOL    HW211940   2.997   1.612   5.537
 3870SOL     OW11941   2.684   1.002   6.958
 3870SOL    HW111942   2.724   1.001   6.866
 3870SOL    HW211943   2.694   1.094   6.998
 3871SOL     OW11944   2.778   0.910   5.877
 3871SOL    HW111945   2.841   0.948   5.809
 3871SOL    HW211946   2.818   0.827   5.916
 3872SOL     OW11947   3.366   1.607   5.630
 3872SOL    HW111948   3.274   1.644   5.637
 3872SOL    HW211949   3.404   1.627   5.540
 3873SOL     OW11950   2.234   1.288   7.076
 3873SOL    HW111951   2.221   1.381   7.042
 3873SOL    HW211952   2.150   1.236   7.063
 3874SOL     OW11953   3.476   1.292   6.875
 3874SOL    HW111954   3.536   1.295   6.955
 3874SOL    HW211955   3.401   1.356   6.888
 3875SOL     OW11956   2.901   1.098   6.282
 3875SOL    HW111957   2.831   1.051   6.336
 3875SOL    HW211958   2.960   1.030   6.239
 3876SOL     OW11959   2.876   0.236   6.557
 3876SOL    HW111960   2.868   0.200   6.464
 3876SOL    HW211961   2.874   0.160   6.622
 3877SOL     OW11962   2.452   1.487   6.077
 3877SOL    HW111963   2.494   1.429   6.007
 3877SOL    HW211964   2.408   1.566   6.033
 3878SOL     OW11965   3.571   0.385   6.967
 3878SOL    HW111966   3.644   0.454   6.971
 3878SOL    HW211967   3.599   0.310   6.908
 3879SOL     OW11968   2.117   1.348   5.876
 3879SOL    HW111969   2.021   1.349   5.849
 3879SOL    HW211970   2.129   1.401   5.960
 3880SOL     OW11971   1.967   1.013   7.312
 3880SOL    HW111972   1.890   0.980   7.366
 3880SOL    HW211973   2.052   0.983   7.354
 3881SOL     OW11974   2.534   0.203   7.075
 3881SOL    HW111975   2.624   0.187   7.035
 3881SOL    HW211976   2.542   0.208   7.174
 3882SOL     OW11977   1.937   0.345   5.619
 3882SOL    HW111978   1.845   0.317   5.590
 3882SOL    HW211979   1.968   0.422   5.563
 3883SOL     OW11980   3.302   0.856   6.984
 3883SOL    HW111981   3.245   0.908   6.921
 3883SOL    HW211982   3.398   0.868   6.960
 3884SOL     OW11983   1.934   0.166   5.904
 3884SOL    HW111984   1.917   0.249   5.850
 3884SOL    HW211985   2.024   0.129   5.882
 3885SOL     OW11986   3.045   1.335   5.705
 3885SOL    HW111987   2.946   1.324   5.707
 3885SOL    HW211988   3.079   1.350   5.798
 3886SOL     OW11989   2.475   0.842   7.017
 3886SOL    HW111990   2.531   0.923   7.000
 3886SOL    HW211991   2.534   0.762   7.020
 3887SOL     OW11992   3.355   1.767   6.545
 3887SOL    HW111993   3.388   1.831   6.476
 3887SOL    HW211994   3.421   1.761   6.620
 3888SOL     OW11995   2.578   0.565   7.294
 3888SOL    HW111996   2.597   0.630   7.368
 3888SOL    HW211997   2.638   0.485   7.303
 3889SOL     OW11998   3.312   1.220   7.219
 3889SOL    HW111999   3.303   1.210   7.318
 3889SOL    HW212000   3.408   1.213   7.193
 3890SOL     OW12001   2.252   1.741   7.146
 3890SOL    HW112002   2.161   1.782   7.144
 3890SOL    HW212003   2.245   1.647   7.178
 3891SOL     OW12004   3.536   0.883   6.840
 3891SOL    HW112005   3.509   0.794   6.803
 3891SOL    HW212006   3.537   0.951   6.767
 3892SOL     OW12007   3.087   0.325   6.035
 3892SOL    HW112008   3.152   0.251   6.024
 3892SOL    HW212009   3.107   0.375   6.119
 3893SOL     OW12010   2.456   0.745   6.238
 3893SOL    HW112011   2.506   0.830   6.219
 3893SOL    HW212012   2.368   0.747   6.190
 3894SOL     OW12013   3.639   0.342   7.228
 3894SOL    HW112014   3.622   0.373   7.134
 3894SOL    HW212015   3.555   0.305   7.266
 3895SOL     OW12016   3.592   0.934   7.103
 3895SOL    HW112017   3.630   1.025   7.118
 3895SOL    HW212018   3.584   0.917   7.004
 3896SOL     OW12019   2.721   1.374   5.602
 3896SOL    HW112020   2.675   1.389   5.690
 3896SOL    HW212021   2.765   1.459   5.572
 3897SOL     OW12022   2.523   1.790   6.539
 3897SOL    HW112023   2.477   1.878   6.526
 3897SOL    HW212024   2.622   1.802   6.532
 3898SOL     OW12025   2.721   0.956   6.447
 3898SOL    HW112026   2.775   0.887   6.495
 3898SOL    HW212027   2.689   1.025   6.513
 3899SOL     OW12028   2.945   0.984   5.673
 3899SOL    HW112029   2.922   1.037   5.591
 3899SOL    HW212030   3.026   0.928   5.654
 3900SOL     OW12031   3.723   1.569   6.437
 3900SOL    HW112032   3.652   1.557   6.367
 3900SOL    HW212033   3.724   1.490   6.497
 3901SOL     OW12034   2.083   1.314   7.430
 3901SOL    HW112035   2.018   1.241   7.409
 3901SOL    HW212036   2.087   1.328   7.528
 3902SOL     OW12037   1.941   1.240   6.239
 3902SOL    HW112038   1.940   1.193   6.327
 3902SOL    HW212039   2.023   1.212   6.188
 3903SOL     OW12040   2.534   1.391   7.210
 3903SOL    HW112041   2.456   1.341   7.248
 3903SOL    HW212042   2.531   1.486   7.241
 3904SOL     OW12043   3.686   0.192   6.813
 3904SOL    HW112044   3.682   0.102   6.857
 3904SOL    HW212045   3.689   0.181   6.714
 3905SOL     OW12046   2.290   0.424   6.106
 3905SOL    HW112047   2.320   0.352   6.044
 3905SOL    HW212048   2.251   0.384   6.189
 3906SOL     OW12049   3.567   1.487   6.690
 3906SOL    HW112050   3.474   1.462   6.663
 3906SOL    HW212051   3.593   1.437   6.772
 3907SOL     OW12052   2.179   0.547   6.866
 3907SOL    HW112053   2.217   0.488   6.938
 3907SOL    HW212054   2.219   0.521   6.778
 3908SOL     OW12055   2.674   1.586   6.273
 3908SOL    HW112056   2.706   1.596   6.179
 3908SOL    HW212057   2.595   1.524   6.275
 3909SOL     OW12058   3.286   0.214   6.698
 3909SOL    HW112059   3.338   0.149   6.753
 3909SOL    HW212060   3.237   0.277   6.759
 3910SOL     OW12061   2.863   0.034   6.740
 3910SOL    HW112062   2.800  -0.038   6.709
 3910SOL    HW212063   2.956  -0.002   6.740
 3911SOL     OW12064   2.632   1.330   5.887
 3911SOL    HW112065   2.586   1.243   5.904
 3911SOL    HW212066   2.723   1.327   5.928
 3912SOL     OW12067   2.480   1.567   6.870
 3912SOL    HW112068   2.475   1.649   6.927
 3912SOL    HW212069   2.569   1.564   6.825
 3913SOL     OW12070   3.214   0.052   5.754
 3913SOL    HW112071   3.249   0.011   5.670
 3913SOL    HW212072   3.124   0.014   5.774
 3914SOL     OW12073   3.162   0.453   6.277
 3914SOL    HW112074   3.103   0.533   6.281
 3914SOL    HW212075   3.177   0.418   6.370
 3915SOL     OW12076   3.455   0.221   6.468
 3915SOL    HW112077   3.371   0.220   6.522
 3915SOL    HW212078   3.457   0.304   6.412
 3916SOL     OW12079   1.901   1.077   5.886
 3916SOL    HW112080   2.000   1.066   5.877
 3916SOL    HW212081   1.861   0.991   5.918
 3917SOL     OW12082   2.737   1.646   5.923
 3917SOL    HW112083   2.660   1.611   5.869
 3917SOL    HW212084   2.705   1.717   5.985
 3918SOL     OW12085   2.092   0.628   7.561
 3918SOL    HW112086   1.999   0.626   7.598
 3918SOL    HW212087   2.093   0.589   7.469
 3919SOL     OW12088   2.087   0.275   8.444
 3919SOL    HW112089   2.122   0.258   8.536
 3919SOL    HW212090   1.999   0.230   8.432
 3920SOL     OW12091   1.881   0.368   8.095
 3920SOL    HW112092   1.799   0.411   8.134
 3920SOL    HW212093   1.853   0.295   8.032
 3921SOL     OW12094   2.431   1.275   8.613
 3921SOL    HW112095   2.338   1.268   8.576
 3921SOL    HW212096   2.442   1.364   8.657
 3922SOL     OW12097   3.417   1.511   8.151
 3922SOL    HW112098   3.360   1.495   8.232
 3922SOL    HW212099   3.358   1.521   8.071
 3923SOL     OW12100   2.997   0.703   8.165
 3923SOL    HW112101   3.054   0.781   8.140
 3923SOL    HW212102   2.937   0.729   8.241
 3924SOL     OW12103   3.617   0.607   7.679
 3924SOL    HW112104   3.605   0.594   7.580
 3924SOL    HW212105   3.587   0.526   7.728
 3925SOL     OW12106   2.630   1.144   8.471
 3925SOL    HW112107   2.552   1.161   8.531
 3925SOL    HW212108   2.664   1.231   8.435
 3926SOL     OW12109   2.712   0.798   9.271
 3926SOL    HW112110   2.708   0.874   9.336
 3926SOL    HW212111   2.734   0.834   9.180
 3927SOL     OW12112   2.547   1.012   8.113
 3927SOL    HW112113   2.616   0.996   8.183
 3927SOL    HW212114   2.474   1.069   8.151
 3928SOL     OW12115   2.548   1.161   9.251
 3928SOL    HW112116   2.608   1.240   9.265
 3928SOL    HW212117   2.462   1.192   9.210
 3929SOL     OW12118   2.197   1.435   8.509
 3929SOL    HW112119   2.119   1.404   8.456
 3929SOL    HW212120   2.255   1.493   8.452
 3930SOL     OW12121   3.322   1.505   8.787
 3930SOL    HW112122   3.346   1.599   8.813
 3930SOL    HW212123   3.306   1.451   8.869
 3931SOL     OW12124   2.300   0.392   8.947
 3931SOL    HW112125   2.382   0.336   8.956
 3931SOL    HW212126   2.219   0.334   8.951
 3932SOL     OW12127   3.465   0.447   8.185
 3932SOL    HW112128   3.391   0.493   8.135
 3932SOL    HW212129   3.516   0.515   8.238
 3933SOL     OW12130   2.093   1.713   7.931
 3933SOL    HW112131   2.127   1.790   7.985
 3933SOL    HW212132   2.137   1.713   7.841
 3934SOL     OW12133   2.989   1.341   9.138
 3934SOL    HW112134   3.036   1.341   9.226
 3934SOL    HW212135   2.941   1.254   9.127
 3935SOL     OW12136   2.092   1.434   7.986
 3935SOL    HW112137   2.066   1.530   7.986
 3935SOL    HW212138   2.021   1.380   8.031
 3936SOL     OW12139   2.102   1.091   8.334
 3936SOL    HW112140   2.116   1.007   8.386
 3936SOL    HW212141   2.047   1.155   8.389
 3937SOL     OW12142   2.482   1.786   8.887
 3937SOL    HW112143   2.390   1.769   8.922
 3937SOL    HW212144   2.510   1.878   8.913
 3938SOL     OW12145   2.468   0.964   7.571
 3938SOL    HW112146   2.475   1.048   7.517
 3938SOL    HW212147   2.514   0.977   7.659
 3939SOL     OW12148   3.456   0.114   8.928
 3939SOL    HW112149   3.438   0.181   8.856
 3939SOL    HW212150   3.453   0.160   9.017
 3940SOL     OW12151   1.984   0.643   8.011
 3940SOL    HW112152   1.939   0.555   8.028
 3940SOL    HW212153   1.983   0.697   8.095
 3941SOL     OW12154   3.704   1.767   7.807
 3941SOL    HW112155   3.758   1.738   7.887
 3941SOL    HW212156   3.734   1.857   7.778
 3942SOL     OW12157   1.889   1.596   7.565
 3942SOL    HW112158   1.870   1.500   7.586
 3942SOL    HW212159   1.856   1.654   7.640
 3943SOL     OW12160   3.551   0.922   8.060
 3943SOL    HW112161   3.646   0.893   8.068
 3943SOL    HW212162   3.543   0.987   7.985
 3944SOL     OW12163   3.503   1.108   7.880
 3944SOL    HW112164   3.589   1.110   7.828
 3944SOL    HW212165   3.517   1.155   7.968
 3945SOL     OW12166   1.975   0.737   9.045
 3945SOL    HW112167   2.063   0.724   9.090
 3945SOL    HW212168   1.962   0.834   9.023
 3946SOL     OW12169   2.475   1.365   8.174
 3946SOL    HW112170   2.426   1.278   8.183
 3946SOL    HW212171   2.452   1.408   8.087
 3947SOL     OW12172   3.155   1.228   8.871
 3947SOL    HW112173   3.192   1.155   8.813
 3947SOL    HW212174   3.207   1.233   8.956
 3948SOL     OW12175   2.671   0.004   7.950
 3948SOL    HW112176   2.711   0.095   7.941
 3948SOL    HW212177   2.571   0.012   7.956
 3949SOL     OW12178   2.059   0.976   8.712
 3949SOL    HW112179   2.148   0.931   8.698
 3949SOL    HW212180   1.986   0.911   8.693
 3950SOL     OW12181   3.387   0.999   7.638
 3950SOL    HW112182   3.324   0.923   7.651
 3950SOL    HW212183   3.435   1.017   7.724
 3951SOL     OW12184   3.049   1.792   9.064
 3951SOL    HW112185   3.073   1.852   8.988
 3951SOL    HW212186   3.056   1.697   9.034
 3952SOL     OW12187   2.179   0.251   9.249
 3952SOL    HW112188   2.250   0.322   9.255
 3952SOL    HW212189   2.091   0.290   9.277
 3953SOL     OW12190   3.328   1.417   8.401
 3953SOL    HW112191   3.269   1.423   8.481
 3953SOL    HW212192   3.313   1.329   8.355
 3954SOL     OW12193   3.529   1.714   8.020
 3954SOL    HW112194   3.488   1.691   7.932
 3954SOL    HW212195   3.511   1.640   8.085
 3955SOL     OW12196   2.460   0.729   7.718
 3955SOL    HW112197   2.484   0.798   7.650
 3955SOL    HW212198   2.382   0.762   7.772
 3956SOL     OW12199   3.143   0.345   8.392
 3956SOL    HW112200   3.057   0.295   8.379
 3956SOL    HW212201   3.205   0.291   8.448
 3957SOL     OW12202   3.438   1.662   7.755
 3957SOL    HW112203   3.527   1.708   7.758
 3957SOL    HW212204   3.417   1.638   7.660
 3958SOL     OW12205   2.669   0.605   8.913
 3958SOL    HW112206   2.622   0.602   9.002
 3958SOL    HW212207   2.618   0.550   8.847
 3959SOL     OW12208   3.256   0.469   9.122
 3959SOL    HW112209   3.236   0.512   9.210
 3959SOL    HW212210   3.334   0.407   9.131
 3960SOL     OW12211   2.835   0.890   9.020
 3960SOL    HW112212   2.881   0.806   8.991
 3960SOL    HW212213   2.779   0.924   8.945
 3961SOL     OW12214   2.853   0.410   8.690
 3961SOL    HW112215   2.776   0.444   8.744
 3961SOL    HW212216   2.819   0.359   8.611
 3962SOL     OW12217   2.903   0.701   7.877
 3962SOL    HW112218   2.929   0.697   7.973
 3962SOL    HW212219   2.818   0.650   7.863
 3963SOL     OW12220   1.938   0.811   8.237
 3963SOL    HW112221   2.037   0.799   8.246
 3963SOL    HW212222   1.914   0.906   8.258
 3964SOL     OW12223   1.992   1.821   9.019
 3964SOL    HW112224   1.982   1.806   9.118
 3964SOL    HW212225   1.906   1.857   8.983
 3965SOL     OW12226   2.727   0.348   7.643
 3965SOL    HW112227   2.786   0.411   7.594
 3965SOL    HW212228   2.746   0.254   7.614
 3966SOL     OW12229   3.581   0.585   9.279
 3966SOL    HW112230   3.555   0.674   9.243
 3966SOL    HW212231   3.579   0.517   9.206
 3967SOL     OW12232   3.224   1.144   7.993
 3967SOL    HW112233   3.307   1.115   7.945
 3967SOL    HW212234   3.175   1.211   7.937
 3968SOL     OW12235   2.412   0.196   8.333
 3968SOL    HW112236   2.407   0.191   8.433
 3968SOL    HW212237   2.414   0.292   8.304
 3969SOL     OW12238   2.870   1.456   7.925
 3969SOL    HW112239   2.824   1.528   7.873
 3969SOL    HW212240   2.866   1.476   8.023
 3970SOL     OW12241   2.213   1.801   8.301
 3970SOL    HW112242   2.263   1.715   8.307
 3970SOL    HW212243   2.278   1.878   8.298
 3971SOL     OW12244   3.657   1.066   8.321
 3971SOL    HW112245   3.595   1.051   8.245
 3971SOL    HW212246   3.605   1.077   8.406
 3972SOL     OW12247   3.089   1.550   8.954
 3972SOL    HW112248   3.095   1.473   9.018
 3972SOL    HW212249   3.037   1.524   8.874
 3973SOL     OW12250   2.183   0.943   7.690
 3973SOL    HW112251   2.265   0.982   7.648
 3973SOL    HW212252   2.156   0.861   7.641
 3974SOL     OW12253   3.320   0.735   8.176
 3974SOL    HW112254   3.315   0.670   8.251
 3974SOL    HW212255   3.400   0.794   8.189
 3975SOL     OW12256   2.323   1.266   9.175
 3975SOL    HW112257   2.273   1.267   9.089
 3975SOL    HW212258   2.260   1.248   9.251
 3976SOL     OW12259   2.973   1.776   7.685
 3976SOL    HW112260   2.913   1.714   7.735
 3976SOL    HW212261   3.004   1.732   7.600
 3977SOL     OW12262   2.064   0.285   8.946
 3977SOL    HW112263   1.984   0.345   8.933
 3977SOL    HW212264   2.054   0.236   9.032
 3978SOL     OW12265   3.494   1.377   7.529
 3978SOL    HW112266   3.462   1.471   7.519
 3978SOL    HW212267   3.418   1.314   7.517
 3979SOL     OW12268   2.326   1.743   7.771
 3979SOL    HW112269   2.359   1.782   7.857
 3979SOL    HW212270   2.402   1.736   7.706
 3980SOL     OW12271   3.262   0.107   7.874
 3980SOL    HW112272   3.238   0.070   7.784
 3980SOL    HW212273   3.361   0.123   7.878
 3981SOL     OW12274   2.111   1.785   8.689
 3981SOL    HW112275   2.168   1.720   8.739
 3981SOL    HW212276   2.095   1.752   8.596
 3982SOL     OW12277   2.802   1.698   8.352
 3982SOL    HW112278   2.882   1.641   8.373
 3982SOL    HW212279   2.753   1.658   8.275
 3983SOL     OW12280   2.244   0.700   7.928
 3983SOL    HW112281   2.289   0.610   7.925
 3983SOL    HW212282   2.150   0.689   7.961
 3984SOL     OW12283   3.409   0.222   9.177
 3984SOL    HW112284   3.404   0.259   9.269
 3984SOL    HW212285   3.337   0.153   9.165
 3985SOL     OW12286   2.476   0.122   7.565
 3985SOL    HW112287   2.574   0.100   7.572
 3985SOL    HW212288   2.445   0.105   7.472
 3986SOL     OW12289   2.643   0.264   9.197
 3986SOL    HW112290   2.710   0.203   9.240
 3986SOL    HW212291   2.570   0.283   9.262
 3987SOL     OW12292   2.750   1.514   8.643
 3987SOL    HW112293   2.727   1.489   8.549
 3987SOL    HW212294   2.811   1.445   8.682
 3988SOL     OW12295   3.213   0.590   8.881
 3988SOL    HW112296   3.241   0.547   8.966
 3988SOL    HW212297   3.238   0.686   8.882
 3989SOL     OW12298   2.665   1.402   8.372
 3989SOL    HW112299   2.755   1.416   8.330
 3989SOL    HW212300   2.594   1.404   8.301
 3990SOL     OW12301   2.784   0.503   8.347
 3990SOL    HW112302   2.759   0.494   8.251
 3990SOL    HW212303   2.832   0.421   8.378
 3991SOL     OW12304   2.401   0.064   7.960
 3991SOL    HW112305   2.320   0.065   8.018
 3991SOL    HW212306   2.404   0.147   7.905
 3992SOL     OW12307   3.296   1.188   7.489
 3992SOL    HW112308   3.328   1.112   7.546
 3992SOL    HW212309   3.204   1.215   7.519
 3993SOL     OW12310   2.159   0.035   7.619
 3993SOL    HW112311   2.208   0.119   7.598
 3993SOL    HW212312   2.221  -0.030   7.664
 3994SOL     OW12313   2.797   0.236   7.928
 3994SOL    HW112314   2.749   0.277   7.850
 3994SOL    HW212315   2.896   0.234   7.909
 3995SOL     OW12316   2.938   0.683   8.912
 3995SOL    HW112317   2.858   0.622   8.915
 3995SOL    HW212318   3.019   0.630   8.888
 3996SOL     OW12319   3.089   1.570   8.241
 3996SOL    HW112320   3.110   1.644   8.176
 3996SOL    HW212321   3.157   1.570   8.314
 3997SOL     OW12322   2.321   1.152   8.189
 3997SOL    HW112323   2.250   1.125   8.254
 3997SOL    HW212324   2.295   1.124   8.096
 3998SOL     OW12325   3.133   1.797   8.039
 3998SOL    HW112326   3.177   1.861   7.975
 3998SOL    HW212327   3.083   1.849   8.109
 3999SOL     OW12328   2.894   0.549   7.464
 3999SOL    HW112329   2.853   0.631   7.425
 3999SOL    HW212330   2.958   0.575   7.537
 4000SOL     OW12331   1.940   0.556   8.834
 4000SOL    HW112332   2.032   0.555   8.793
 4000SOL    HW212333   1.934   0.630   8.901
 4001SOL     OW12334   2.423   0.222   8.595
 4001SOL    HW112335   2.461   0.138   8.632
 4001SOL    HW212336   2.335   0.241   8.639
 4002SOL     OW12337   2.728   0.454   8.090
 4002SOL    HW112338   2.696   0.526   8.028
 4002SOL    HW212339   2.752   0.373   8.037
 4003SOL     OW12340   2.879   0.039   8.201
 4003SOL    HW112341   2.807   0.044   8.132
 4003SOL    HW212342   2.855  -0.030   8.270
 4004SOL     OW12343   3.291   1.173   8.315
 4004SOL    HW112344   3.236   1.089   8.308
 4004SOL    HW212345   3.317   1.202   8.223
 4005SOL     OW12346   3.328   0.590   8.440
 4005SOL    HW112347   3.298   0.495   8.447
 4005SOL    HW212348   3.401   0.606   8.506
 4006SOL     OW12349   3.719   0.833   7.825
 4006SOL    HW112350   3.761   0.769   7.889
 4006SOL    HW212351   3.681   0.782   7.747
 4007SOL     OW12352   2.350   1.385   7.622
 4007SOL    HW112353   2.263   1.370   7.669
 4007SOL    HW212354   2.333   1.411   7.527
 4008SOL     OW12355   3.526   1.280   8.105
 4008SOL    HW112356   3.625   1.288   8.119
 4008SOL    HW212357   3.481   1.364   8.136
 4009SOL     OW12358   3.252   0.575   7.526
 4009SOL    HW112359   3.198   0.554   7.607
 4009SOL    HW212360   3.343   0.534   7.535
 4010SOL     OW12361   2.389   0.256   7.776
 4010SOL    HW112362   2.416   0.197   7.701
 4010SOL    HW212363   2.389   0.351   7.745
 4011SOL     OW12364   3.616   1.223   9.036
 4011SOL    HW112365   3.707   1.184   9.023
 4011SOL    HW212366   3.624   1.319   9.060
 4012SOL     OW12367   2.926   1.347   8.788
 4012SOL    HW112368   2.846   1.324   8.843
 4012SOL    HW212369   3.009   1.321   8.837
 4013SOL     OW12370   3.454   1.629   9.073
 4013SOL    HW112371   3.481   1.663   8.983
 4013SOL    HW212372   3.533   1.591   9.119
 4014SOL     OW12373   2.973   1.195   8.548
 4014SOL    HW112374   2.933   1.239   8.629
 4014SOL    HW212375   2.932   1.232   8.465
 4015SOL     OW12376   3.500   1.099   8.527
 4015SOL    HW112377   3.505   1.180   8.586
 4015SOL    HW212378   3.414   1.101   8.476
 4016SOL     OW12379   2.777   0.089   8.850
 4016SOL    HW112380   2.802   0.069   8.755
 4016SOL    HW212381   2.849   0.145   8.892
 4017SOL     OW12382   2.842   1.116   9.167
 4017SOL    HW112383   2.743   1.122   9.177
 4017SOL    HW212384   2.865   1.036   9.111
 4018SOL     OW12385   2.567   1.050   7.816
 4018SOL    HW112386   2.553   1.057   7.915
 4018SOL    HW212387   2.651   0.999   7.798
 4019SOL     OW12388   2.272   0.813   8.699
 4019SOL    HW112389   2.358   0.825   8.749
 4019SOL    HW212390   2.230   0.726   8.726
 4020SOL     OW12391   3.136   0.386   8.710
 4020SOL    HW112392   3.157   0.460   8.774
 4020SOL    HW212393   3.047   0.403   8.667
 4021SOL     OW12394   1.926   1.564   8.779
 4021SOL    HW112395   1.880   1.646   8.745
 4021SOL    HW212396   2.024   1.583   8.788
 4022SOL     OW12397   2.229   1.100   7.949
 4022SOL    HW112398   2.222   1.183   7.893
 4022SOL    HW212399   2.233   1.020   7.889
 4023SOL     OW12400   2.428   0.537   8.313
 4023SOL    HW112401   2.440   0.603   8.239
 4023SOL    HW212402   2.474   0.571   8.396
 4024SOL     OW12403   3.114   1.348   7.836
 4024SOL    HW112404   3.164   1.425   7.876
 4024SOL    HW212405   3.019   1.350   7.868
 4025SOL     OW12406   3.134   1.445   8.590
 4025SOL    HW112407   3.181   1.458   8.677
 4025SOL    HW212408   3.068   1.371   8.599
 4026SOL     OW12409   3.444   0.639   7.920
 4026SOL    HW112410   3.413   0.700   7.993
 4026SOL    HW212411   3.494   0.691   7.851
 4027SOL     OW12412   2.216   1.510   8.777
 4027SOL    HW112413   2.195   1.466   8.690
 4027SOL    HW212414   2.313   1.536   8.780
 4028SOL     OW12415   2.264   0.751   9.046
 4028SOL    HW112416   2.332   0.806   8.999
 4028SOL    HW212417   2.304   0.663   9.073
 4029SOL     OW12418   3.449   0.779   9.118
 4029SOL    HW112419   3.357   0.817   9.113
 4029SOL    HW212420   3.509   0.826   9.053
 4030SOL     OW12421   2.875   0.105   9.218
 4030SOL    HW112422   2.881   0.190   9.166
 4030SOL    HW212423   2.907   0.029   9.161
 4031SOL     OW12424   2.366   0.050   9.188
 4031SOL    HW112425   2.324  -0.007   9.118
 4031SOL    HW212426   2.300   0.119   9.220
 4032SOL     OW12427   2.435   0.870   8.477
 4032SOL    HW112428   2.479   0.959   8.468
 4032SOL    HW212429   2.372   0.870   8.554
 4033SOL     OW12430   3.222   0.862   8.493
 4033SOL    HW112431   3.147   0.862   8.427
 4033SOL    HW212432   3.259   0.770   8.502
 4034SOL     OW12433   3.071   0.525   7.723
 4034SOL    HW112434   3.084   0.441   7.777
 4034SOL    HW212435   3.042   0.599   7.783
 4035SOL     OW12436   2.169   0.213   8.679
 4035SOL    HW112437   2.146   0.250   8.769
 4035SOL    HW212438   2.139   0.118   8.673
 4036SOL     OW12439   1.899   1.310   8.730
 4036SOL    HW112440   1.952   1.261   8.798
 4036SOL    HW212441   1.921   1.408   8.735
 4037SOL     OW12442   2.594   0.634   8.512
 4037SOL    HW112443   2.653   0.608   8.436
 4037SOL    HW212444   2.566   0.730   8.501
 4038SOL     OW12445   3.590   0.935   9.302
 4038SOL    HW112446   3.544   0.928   9.213
 4038SOL    HW212447   3.528   0.979   9.368
 4039SOL     OW12448   2.169   0.063   8.066
 4039SOL    HW112449   2.158   0.157   8.099
 4039SOL    HW212450   2.164   0.000   8.143
 4040SOL     OW12451   3.484   0.367   7.822
 4040SOL    HW112452   3.486   0.291   7.886
 4040SOL    HW212453   3.436   0.444   7.862
 4041SOL     OW12454   2.885   0.766   8.414
 4041SOL    HW112455   2.900   0.787   8.510
 4041SOL    HW212456   2.855   0.671   8.405
 4042SOL     OW12457   2.842   1.573   9.148
 4042SOL    HW112458   2.822   1.617   9.060
 4042SOL    HW212459   2.881   1.482   9.132
 4043SOL     OW12460   3.721   1.518   9.053
 4043SOL    HW112461   3.735   1.545   8.958
 4043SOL    HW212462   3.804   1.540   9.106
 4044SOL     OW12463   2.212   0.898   9.252
 4044SOL    HW112464   2.288   0.942   9.300
 4044SOL    HW212465   2.247   0.851   9.170
 4045SOL     OW12466   3.402   0.274   7.573
 4045SOL    HW112467   3.341   0.199   7.596
 4045SOL    HW212468   3.424   0.326   7.656
 4046SOL     OW12469   3.165   0.838   7.490
 4046SOL    HW112470   3.199   0.745   7.505
 4046SOL    HW212471   3.183   0.865   7.395
 4047SOL     OW12472   2.930   1.333   8.297
 4047SOL    HW112473   2.937   1.249   8.242
 4047SOL    HW212474   2.992   1.402   8.261
 4048SOL     OW12475   2.181   0.810   8.397
 4048SOL    HW112476   2.274   0.846   8.402
 4048SOL    HW212477   2.175   0.725   8.449
 4049SOL     OW12478   2.201   0.509   8.454
 4049SOL    HW112479   2.149   0.426   8.437
 4049SOL    HW212480   2.278   0.514   8.390
 4050SOL     OW12481   3.000   0.380   9.126
 4050SOL    HW112482   2.955   0.443   9.190
 4050SOL    HW212483   3.093   0.411   9.109
 4051SOL     OW12484   3.022   0.207   8.925
 4051SOL    HW112485   3.022   0.271   9.002
 4051SOL    HW212486   3.050   0.255   8.842
 4052SOL     OW12487   1.870   1.326   7.648
 4052SOL    HW112488   1.777   1.347   7.617
 4052SOL    HW212489   1.880   1.227   7.661
 4053SOL     OW12490   1.950   1.801   8.375
 4053SOL    HW112491   1.908   1.715   8.348
 4053SOL    HW212492   2.044   1.804   8.341
 4054SOL     OW12493   2.366   1.568   8.358
 4054SOL    HW112494   2.432   1.642   8.367
 4054SOL    HW212495   2.410   1.489   8.316
 4055SOL     OW12496   2.864   0.796   8.686
 4055SOL    HW112497   2.905   0.764   8.772
 4055SOL    HW212498   2.768   0.769   8.683
 4056SOL     OW12499   1.902   0.544   8.562
 4056SOL    HW112500   1.987   0.511   8.521
 4056SOL    HW212501   1.915   0.559   8.660
 4057SOL     OW12502   2.051   0.520   9.170
 4057SOL    HW112503   2.110   0.480   9.100
 4057SOL    HW212504   1.993   0.591   9.129
 4058SOL     OW12505   3.231   0.950   9.108
 4058SOL    HW112506   3.270   1.039   9.128
 4058SOL    HW212507   3.241   0.930   9.011
 4059SOL     OW12508   2.677   0.572   7.773
 4059SOL    HW112509   2.684   0.483   7.727
 4059SOL    HW212510   2.583   0.606   7.765
 4060SOL     OW12511   3.519   0.604   8.654
 4060SOL    HW112512   3.481   0.535   8.716
 4060SOL    HW212513   3.601   0.568   8.610
 4061SOL     OW12514   2.114   1.564   9.192
 4061SOL    HW112515   2.084   1.621   9.268
 4061SOL    HW212516   2.107   1.467   9.218
 4062SOL     OW12517   2.533   0.464   8.717
 4062SOL    HW112518   2.499   0.375   8.687
 4062SOL    HW212519   2.559   0.518   8.637
 4063SOL     OW12520   2.792   1.678   8.913
 4063SOL    HW112521   2.768   1.660   8.818
 4063SOL    HW212522   2.822   1.772   8.923
 4064SOL     OW12523   2.335   0.500   7.639
 4064SOL    HW112524   2.396   0.580   7.643
 4064SOL    HW212525   2.240   0.531   7.646
 4065SOL     OW12526   2.021   1.137   8.914
 4065SOL    HW112527   2.043   1.076   8.990
 4065SOL    HW212528   2.031   1.088   8.828
 4066SOL     OW12529   3.209   1.059   8.682
 4066SOL    HW112530   3.233   0.996   8.608
 4066SOL    HW212531   3.119   1.099   8.664
 4067SOL     OW12532   3.164   0.855   7.757
 4067SOL    HW112533   3.078   0.824   7.799
 4067SOL    HW212534   3.160   0.841   7.658
 4068SOL     OW12535   3.621   1.747   8.602
 4068SOL    HW112536   3.682   1.777   8.529
 4068SOL    HW212537   3.583   1.658   8.580
 4069SOL     OW12538   3.114   1.731   8.576
 4069SOL    HW112539   3.198   1.736   8.522
 4069SOL    HW212540   3.091   1.635   8.594
 4070SOL     OW12541   1.945   1.258   8.470
 4070SOL    HW112542   1.940   1.257   8.570
 4070SOL    HW212543   1.862   1.217   8.432
 4071SOL     OW12544   2.550   1.662   9.164
 4071SOL    HW112545   2.494   1.743   9.173
 4071SOL    HW212546   2.602   1.666   9.078
 4072SOL     OW12547   3.588   0.135   7.971
 4072SOL    HW112548   3.661   0.118   7.904
 4072SOL    HW212549   3.557   0.048   8.009
 4073SOL     OW12550   3.250   1.573   7.925
 4073SOL    HW112551   3.317   1.585   7.851
 4073SOL    HW212552   3.210   1.662   7.948
 4074SOL     OW12553   1.992   1.794   9.299
 4074SOL    HW112554   1.951   1.720   9.352
 4074SOL    HW212555   2.056   1.845   9.357
 4075SOL     OW12556   3.142   0.927   8.120
 4075SOL    HW112557   3.202   0.846   8.122
 4075SOL    HW212558   3.182   0.996   8.060
 4076SOL     OW12559   2.692   1.273   8.870
 4076SOL    HW112560   2.687   1.306   8.965
 4076SOL    HW212561   2.606   1.292   8.824
 4077SOL     OW12562   2.534   1.616   7.602
 4077SOL    HW112563   2.543   1.626   7.503
 4077SOL    HW212564   2.494   1.527   7.623
 4078SOL     OW12565   3.512   1.720   8.842
 4078SOL    HW112566   3.565   1.730   8.758
 4078SOL    HW212567   3.485   1.810   8.876
 4079SOL     OW12568   3.703   0.175   8.411
 4079SOL    HW112569   3.742   0.090   8.375
 4079SOL    HW212570   3.605   0.177   8.392
 4080SOL     OW12571   2.125   0.326   8.168
 4080SOL    HW112572   2.046   0.377   8.134
 4080SOL    HW212573   2.116   0.311   8.266
 4081SOL     OW12574   3.056   1.612   7.479
 4081SOL    HW112575   3.062   1.519   7.516
 4081SOL    HW212576   2.997   1.612   7.399
 4082SOL     OW12577   2.684   1.002   8.820
 4082SOL    HW112578   2.724   1.001   8.728
 4082SOL    HW212579   2.694   1.094   8.860
 4083SOL     OW12580   2.778   0.910   7.739
 4083SOL    HW112581   2.841   0.948   7.671
 4083SOL    HW212582   2.818   0.827   7.778
 4084SOL     OW12583   3.366   1.607   7.492
 4084SOL    HW112584   3.274   1.644   7.499
 4084SOL    HW212585   3.404   1.627   7.402
 4085SOL     OW12586   2.234   1.288   8.938
 4085SOL    HW112587   2.221   1.381   8.904
 4085SOL    HW212588   2.150   1.236   8.925
 4086SOL     OW12589   3.476   1.292   8.737
 4086SOL    HW112590   3.536   1.295   8.817
 4086SOL    HW212591   3.401   1.356   8.750
 4087SOL     OW12592   2.901   1.098   8.144
 4087SOL    HW112593   2.831   1.051   8.198
 4087SOL    HW212594   2.960   1.030   8.101
 4088SOL     OW12595   2.876   0.236   8.419
 4088SOL    HW112596   2.868   0.200   8.326
 4088SOL    HW212597   2.874   0.160   8.484
 4089SOL     OW12598   2.452   1.487   7.939
 4089SOL    HW112599   2.494   1.429   7.869
 4089SOL    HW212600   2.408   1.566   7.895
 4090SOL     OW12601   3.571   0.385   8.829
 4090SOL    HW112602   3.644   0.454   8.833
 4090SOL    HW212603   3.599   0.310   8.770
 4091SOL     OW12604   2.117   1.348   7.738
 4091SOL    HW112605   2.021   1.349   7.711
 4091SOL    HW212606   2.129   1.401   7.822
 4092SOL     OW12607   1.967   1.013   9.174
 4092SOL    HW112608   1.890   0.980   9.228
 4092SOL    HW212609   2.052   0.983   9.216
 4093SOL     OW12610   2.534   0.203   8.937
 4093SOL    HW112611   2.624   0.187   8.897
 4093SOL    HW212612   2.542   0.208   9.036
 4094SOL     OW12613   1.937   0.345   7.481
 4094SOL    HW112614   1.845   0.317   7.452
 4094SOL    HW212615   1.968   0.422   7.425
 4095SOL     OW12616   3.302   0.856   8.846
 4095SOL    HW112617   3.245   0.908   8.783
 4095SOL    HW212618   3.398   0.868   8.822
 4096SOL     OW12619   1.934   0.166   7.766
 4096SOL    HW112620   1.917   0.249   7.712
 4096SOL    HW212621   2.024   0.129   7.744
 4097SOL     OW12622   3.045   1.335   7.567
 4097SOL    HW112623   2.946   1.324   7.569
 4097SOL    HW212624   3.079   1.350   7.660
 4098SOL     OW12625   2.475   0.842   8.879
 4098SOL    HW112626   2.531   0.923   8.862
 4098SOL    HW212627   2.534   0.762   8.882
 4099SOL     OW12628   3.355   1.767   8.407
 4099SOL    HW112629   3.388   1.831   8.338
 4099SOL    HW212630   3.421   1.761   8.482
 4100SOL     OW12631   2.578   0.565   9.156
 4100SOL    HW112632   2.597   0.630   9.230
 4100SOL    HW212633   2.638   0.485   9.165
 4101SOL     OW12634   3.312   1.220   9.081
 4101SOL    HW112635   3.303   1.210   9.180
 4101SOL    HW212636   3.408   1.213   9.055
 4102SOL     OW12637   2.252   1.741   9.008
 4102SOL    HW112638   2.161   1.782   9.006
 4102SOL    HW212639   2.245   1.647   9.040
 4103SOL     OW12640   3.536   0.883   8.702
 4103SOL    HW112641   3.509   0.794   8.665
 4103SOL    HW212642   3.537   0.951   8.629
 4104SOL     OW12643   3.087   0.325   7.897
 4104SOL    HW112644   3.152   0.251   7.886
 4104SOL    HW212645   3.107   0.375   7.981
 4105SOL     OW12646   2.456   0.745   8.100
 4105SOL    HW112647   2.506   0.830   8.081
 4105SOL    HW212648   2.368   0.747   8.052
 4106SOL     OW12649   3.639   0.342   9.090
 4106SOL    HW112650   3.622   0.373   8.996
 4106SOL    HW212651   3.555   0.305   9.128
 4107SOL     OW12652   3.592   0.934   8.965
 4107SOL    HW112653   3.630   1.025   8.980
 4107SOL    HW212654   3.584   0.917   8.866
 4108SOL     OW12655   2.721   1.374   7.464
 4108SOL    HW112656   2.675   1.389   7.552
 4108SOL    HW212657   2.765   1.459   7.434
 4109SOL     OW12658   2.523   1.790   8.401
 4109SOL    HW112659   2.477   1.878   8.388
 4109SOL    HW212660   2.622   1.802   8.394
 4110SOL     OW12661   2.721   0.956   8.309
 4110SOL    HW112662   2.775   0.887   8.357
 4110SOL    HW212663   2.689   1.025   8.375
 4111SOL     OW12664   2.945   0.984   7.535
 4111SOL    HW112665   2.922   1.037   7.453
 4111SOL    HW212666   3.026   0.928   7.516
 4112SOL     OW12667   3.723   1.569   8.299
 4112SOL    HW112668   3.652   1.557   8.229
 4112SOL    HW212669   3.724   1.490   8.359
 4113SOL     OW12670   2.083   1.314   9.292
 4113SOL    HW112671   2.018   1.241   9.271
 4113SOL    HW212672   2.087   1.328   9.390
 4114SOL     OW12673   1.941   1.240   8.101
 4114SOL    HW112674   1.940   1.193   8.189
 4114SOL    HW212675   2.023   1.212   8.050
 4115SOL     OW12676   2.534   1.391   9.072
 4115SOL    HW112677   2.456   1.341   9.110
 4115SOL    HW212678   2.531   1.486   9.103
 4116SOL     OW12679   3.686   0.192   8.675
 4116SOL    HW112680   3.682   0.102   8.719
 4116SOL    HW212681   3.689   0.181   8.576
 4117SOL     OW12682   2.290   0.424   7.968
 4117SOL    HW112683   2.320   0.352   7.906
 4117SOL    HW212684   2.251   0.384   8.051
 4118SOL     OW12685   3.567   1.487   8.552
 4118SOL    HW112686   3.474   1.462   8.525
 4118SOL    HW212687   3.593   1.437   8.634
 4119SOL     OW12688   2.179   0.547   8.728
 4119SOL    HW112689   2.217   0.488   8.800
 4119SOL    HW212690   2.219   0.521   8.640
 4120SOL     OW12691   2.674   1.586   8.135
 4120SOL    HW112692   2.706   1.596   8.041
 4120SOL    HW212693   2.595   1.524   8.137
 4121SOL     OW12694   3.286   0.214   8.560
 4121SOL    HW112695   3.338   0.149   8.615
 4121SOL    HW212696   3.237   0.277   8.621
 4122SOL     OW12697   2.863   0.034   8.602
 4122SOL    HW112698   2.800  -0.038   8.571
 4122SOL    HW212699   2.956  -0.002   8.602
 4123SOL     OW12700   2.632   1.330   7.749
 4123SOL    HW112701   2.586   1.243   7.766
 4123SOL    HW212702   2.723   1.327   7.790
 4124SOL     OW12703   2.480   1.567   8.732
 4124SOL    HW112704   2.475   1.649   8.789
 4124SOL    HW212705   2.569   1.564   8.687
 4125SOL     OW12706   3.214   0.052   7.616
 4125SOL    HW112707   3.249   0.011   7.532
 4125SOL    HW212708   3.124   0.014   7.636
 4126SOL     OW12709   3.162   0.453   8.139
 4126SOL    HW112710   3.103   0.533   8.143
 4126SOL    HW212711   3.177   0.418   8.232
 4127SOL     OW12712   3.455   0.221   8.330
 4127SOL    HW112713   3.371   0.220   8.384
 4127SOL    HW212714   3.457   0.304   8.274
 4128SOL     OW12715   1.901   1.077   7.748
 4128SOL    HW112716   2.000   1.066   7.739
 4128SOL    HW212717   1.861   0.991   7.780
 4129SOL     OW12718   2.737   1.646   7.785
 4129SOL    HW112719   2.660   1.611   7.731
 4129SOL    HW212720   2.705   1.717   7.847
 4130SOL     OW12721   2.092   0.628   9.423
 4130SOL    HW112722   1.999   0.626   9.460
 4130SOL    HW212723   2.093   0.589   9.331
 4131SOL     OW12724   2.087   0.275  10.306
 4131SOL    HW112725   2.122   0.258  10.398
 4131SOL    HW212726   1.999   0.230  10.294
 4132SOL     OW12727   1.881   0.368   9.957
 4132SOL    HW112728   1.799   0.411   9.996
 4132SOL    HW212729   1.853   0.295   9.894
 4133SOL     OW12730   2.431   1.275  10.475
 4133SOL    HW112731   2.338   1.268  10.438
 4133SOL    HW212732   2.442   1.364  10.519
 4134SOL     OW12733   3.417   1.511  10.013
 4134SOL    HW112734   3.360   1.495  10.094
 4134SOL    HW212735   3.358   1.521   9.933
 4135SOL     OW12736   2.997   0.703  10.027
 4135SOL    HW112737   3.054   0.781  10.002
 4135SOL    HW212738   2.937   0.729  10.103
 4136SOL     OW12739   3.617   0.607   9.541
 4136SOL    HW112740   3.605   0.594   9.442
 4136SOL    HW212741   3.587   0.526   9.590
 4137SOL     OW12742   2.630   1.144  10.333
 4137SOL    HW112743   2.552   1.161  10.393
 4137SOL    HW212744   2.664   1.231  10.297
 4138SOL     OW12745   2.712   0.798  11.133
 4138SOL    HW112746   2.708   0.874  11.198
 4138SOL    HW212747   2.734   0.834  11.042
 4139SOL     OW12748   2.547   1.012   9.975
 4139SOL    HW112749   2.616   0.996  10.045
 4139SOL    HW212750   2.474   1.069  10.013
 4140SOL     OW12751   2.548   1.161  11.113
 4140SOL    HW112752   2.608   1.240  11.127
 4140SOL    HW212753   2.462   1.192  11.072
 4141SOL     OW12754   2.197   1.435  10.371
 4141SOL    HW112755   2.119   1.404  10.318
 4141SOL    HW212756   2.255   1.493  10.314
 4142SOL     OW12757   3.322   1.505  10.649
 4142SOL    HW112758   3.346   1.599  10.675
 4142SOL    HW212759   3.306   1.451  10.731
 4143SOL     OW12760   2.300   0.392  10.809
 4143SOL    HW112761   2.382   0.336  10.818
 4143SOL    HW212762   2.219   0.334  10.813
 4144SOL     OW12763   3.465   0.447  10.047
 4144SOL    HW112764   3.391   0.493   9.997
 4144SOL    HW212765   3.516   0.515  10.100
 4145SOL     OW12766   2.093   1.713   9.793
 4145SOL    HW112767   2.127   1.790   9.847
 4145SOL    HW212768   2.137   1.713   9.703
 4146SOL     OW12769   2.989   1.341  11.000
 4146SOL    HW112770   3.036   1.341  11.088
 4146SOL    HW212771   2.941   1.254  10.989
 4147SOL     OW12772   2.092   1.434   9.848
 4147SOL    HW112773   2.066   1.530   9.848
 4147SOL    HW212774   2.021   1.380   9.893
 4148SOL     OW12775   2.102   1.091  10.196
 4148SOL    HW112776   2.116   1.007  10.248
 4148SOL    HW212777   2.047   1.155  10.251
 4149SOL     OW12778   2.482   1.786  10.749
 4149SOL    HW112779   2.390   1.769  10.784
 4149SOL    HW212780   2.510   1.878  10.775
 4150SOL     OW12781   2.468   0.964   9.433
 4150SOL    HW112782   2.475   1.048   9.379
 4150SOL    HW212783   2.514   0.977   9.521
 4151SOL     OW12784   3.456   0.114  10.790
 4151SOL    HW112785   3.438   0.181  10.718
 4151SOL    HW212786   3.453   0.160  10.879
 4152SOL     OW12787   1.984   0.643   9.873
 4152SOL    HW112788   1.939   0.555   9.890
 4152SOL    HW212789   1.983   0.697   9.957
 4153SOL     OW12790   3.704   1.767   9.669
 4153SOL    HW112791   3.758   1.738   9.749
 4153SOL    HW212792   3.734   1.857   9.640
 4154SOL     OW12793   1.889   1.596   9.427
 4154SOL    HW112794   1.870   1.500   9.448
 4154SOL    HW212795   1.856   1.654   9.502
 4155SOL     OW12796   3.551   0.922   9.922
 4155SOL    HW112797   3.646   0.893   9.930
 4155SOL    HW212798   3.543   0.987   9.847
 4156SOL     OW12799   3.503   1.108   9.742
 4156SOL    HW112800   3.589   1.110   9.690
 4156SOL    HW212801   3.517   1.155   9.830
 4157SOL     OW12802   1.975   0.737  10.907
 4157SOL    HW112803   2.063   0.724  10.952
 4157SOL    HW212804   1.962   0.834  10.885
 4158SOL     OW12805   2.475   1.365  10.036
 4158SOL    HW112806   2.426   1.278  10.045
 4158SOL    HW212807   2.452   1.408   9.949
 4159SOL     OW12808   3.155   1.228  10.733
 4159SOL    HW112809   3.192   1.155  10.675
 4159SOL    HW212810   3.207   1.233  10.818
 4160SOL     OW12811   2.671   0.004   9.812
 4160SOL    HW112812   2.711   0.095   9.803
 4160SOL    HW212813   2.571   0.012   9.818
 4161SOL     OW12814   2.059   0.976  10.574
 4161SOL    HW112815   2.148   0.931  10.560
 4161SOL    HW212816   1.986   0.911  10.555
 4162SOL     OW12817   3.387   0.999   9.500
 4162SOL    HW112818   3.324   0.923   9.513
 4162SOL    HW212819   3.435   1.017   9.586
 4163SOL     OW12820   3.049   1.792  10.926
 4163SOL    HW112821   3.073   1.852  10.850
 4163SOL    HW212822   3.056   1.697  10.896
 4164SOL     OW12823   2.179   0.251  11.111
 4164SOL    HW112824   2.250   0.322  11.117
 4164SOL    HW212825   2.091   0.290  11.139
 4165SOL     OW12826   3.328   1.417  10.263
 4165SOL    HW112827   3.269   1.423  10.343
 4165SOL    HW212828   3.313   1.329  10.217
 4166SOL     OW12829   3.529   1.714   9.882
 4166SOL    HW112830   3.488   1.691   9.794
 4166SOL    HW212831   3.511   1.640   9.947
 4167SOL     OW12832   2.460   0.729   9.580
 4167SOL    HW112833   2.484   0.798   9.512
 4167SOL    HW212834   2.382   0.762   9.634
 4168SOL     OW12835   3.143   0.345  10.254
 4168SOL    HW112836   3.057   0.295  10.241
 4168SOL    HW212837   3.205   0.291  10.310
 4169SOL     OW12838   3.438   1.662   9.617
 4169SOL    HW112839   3.527   1.708   9.620
 4169SOL    HW212840   3.417   1.638   9.522
 4170SOL     OW12841   2.669   0.605  10.775
 4170SOL    HW112842   2.622   0.602  10.864
 4170SOL    HW212843   2.618   0.550  10.709
 4171SOL     OW12844   3.256   0.469  10.984
 4171SOL    HW112845   3.236   0.512  11.072
 4171SOL    HW212846   3.334   0.407  10.993
 4172SOL     OW12847   2.835   0.890  10.882
 4172SOL    HW112848   2.881   0.806  10.853
 4172SOL    HW212849   2.779   0.924  10.807
 4173SOL     OW12850   2.853   0.410  10.552
 4173SOL    HW112851   2.776   0.444  10.606
 4173SOL    HW212852   2.819   0.359  10.473
 4174SOL     OW12853   2.903   0.701   9.739
 4174SOL    HW112854   2.929   0.697   9.835
 4174SOL    HW212855   2.818   0.650   9.725
 4175SOL     OW12856   1.938   0.811  10.099
 4175SOL    HW112857   2.037   0.799  10.108
 4175SOL    HW212858   1.914   0.906  10.120
 4176SOL     OW12859   1.992   1.821  10.881
 4176SOL    HW112860   1.982   1.806  10.980
 4176SOL    HW212861   1.906   1.857  10.845
 4177SOL     OW12862   2.727   0.348   9.505
 4177SOL    HW112863   2.786   0.411   9.456
 4177SOL    HW212864   2.746   0.254   9.476
 4178SOL     OW12865   3.581   0.585  11.141
 4178SOL    HW112866   3.555   0.674  11.105
 4178SOL    HW212867   3.579   0.517  11.068
 4179SOL     OW12868   3.224   1.144   9.855
 4179SOL    HW112869   3.307   1.115   9.807
 4179SOL    HW212870   3.175   1.211   9.799
 4180SOL     OW12871   2.412   0.196  10.195
 4180SOL    HW112872   2.407   0.191  10.295
 4180SOL    HW212873   2.414   0.292  10.166
 4181SOL     OW12874   2.870   1.456   9.787
 4181SOL    HW112875   2.824   1.528   9.735
 4181SOL    HW212876   2.866   1.476   9.885
 4182SOL     OW12877   2.213   1.801  10.163
 4182SOL    HW112878   2.263   1.715  10.169
 4182SOL    HW212879   2.278   1.878  10.160
 4183SOL     OW12880   3.657   1.066  10.183
 4183SOL    HW112881   3.595   1.051  10.107
 4183SOL    HW212882   3.605   1.077  10.268
 4184SOL     OW12883   3.089   1.550  10.816
 4184SOL    HW112884   3.095   1.473  10.880
 4184SOL    HW212885   3.037   1.524  10.736
 4185SOL     OW12886   2.183   0.943   9.552
 4185SOL    HW112887   2.265   0.982   9.510
 4185SOL    HW212888   2.156   0.861   9.503
 4186SOL     OW12889   3.320   0.735  10.038
 4186SOL    HW112890   3.315   0.670  10.113
 4186SOL    HW212891   3.400   0.794  10.051
 4187SOL     OW12892   2.323   1.266  11.037
 4187SOL    HW112893   2.273   1.267  10.951
 4187SOL    HW212894   2.260   1.248  11.113
 4188SOL     OW12895   2.973   1.776   9.547
 4188SOL    HW112896   2.913   1.714   9.597
 4188SOL    HW212897   3.004   1.732   9.462
 4189SOL     OW12898   2.064   0.285  10.808
 4189SOL    HW112899   1.984   0.345  10.795
 4189SOL    HW212900   2.054   0.236  10.894
 4190SOL     OW12901   3.494   1.377   9.391
 4190SOL    HW112902   3.462   1.471   9.381
 4190SOL    HW212903   3.418   1.314   9.379
 4191SOL     OW12904   2.326   1.743   9.633
 4191SOL    HW112905   2.359   1.782   9.719
 4191SOL    HW212906   2.402   1.736   9.568
 4192SOL     OW12907   3.262   0.107   9.736
 4192SOL    HW112908   3.238   0.070   9.646
 4192SOL    HW212909   3.361   0.123   9.740
 4193SOL     OW12910   2.111   1.785  10.551
 4193SOL    HW112911   2.168   1.720  10.601
 4193SOL    HW212912   2.095   1.752  10.458
 4194SOL     OW12913   2.802   1.698  10.214
 4194SOL    HW112914   2.882   1.641  10.235
 4194SOL    HW212915   2.753   1.658  10.137
 4195SOL     OW12916   2.244   0.700   9.790
 4195SOL    HW112917   2.289   0.610   9.787
 4195SOL    HW212918   2.150   0.689   9.823
 4196SOL     OW12919   3.409   0.222  11.039
 4196SOL    HW112920   3.404   0.259  11.131
 4196SOL    HW212921   3.337   0.153  11.027
 4197SOL     OW12922   2.476   0.122   9.427
 4197SOL    HW112923   2.574   0.100   9.434
 4197SOL    HW212924   2.445   0.105   9.334
 4198SOL     OW12925   2.643   0.264  11.059
 4198SOL    HW112926   2.710   0.203  11.102
 4198SOL    HW212927   2.570   0.283  11.124
 4199SOL     OW12928   2.750   1.514  10.505
 4199SOL    HW112929   2.727   1.489  10.411
 4199SOL    HW212930   2.811   1.445  10.544
 4200SOL     OW12931   3.213   0.590  10.743
 4200SOL    HW112932   3.241   0.547  10.828
 4200SOL    HW212933   3.238   0.686  10.744
 4201SOL     OW12934   2.665   1.402  10.234
 4201SOL    HW112935   2.755   1.416  10.192
 4201SOL    HW212936   2.594   1.404  10.163
 4202SOL     OW12937   2.784   0.503  10.209
 4202SOL    HW112938   2.759   0.494  10.113
 4202SOL    HW212939   2.832   0.421  10.240
 4203SOL     OW12940   2.401   0.064   9.822
 4203SOL    HW112941   2.320   0.065   9.880
 4203SOL    HW212942   2.404   0.147   9.767
 4204SOL     OW12943   3.296   1.188   9.351
 4204SOL    HW112944   3.328   1.112   9.408
 4204SOL    HW212945   3.204   1.215   9.381
 4205SOL     OW12946   2.159   0.035   9.481
 4205SOL    HW112947   2.208   0.119   9.460
 4205SOL    HW212948   2.221  -0.030   9.526
 4206SOL     OW12949   2.797   0.236   9.790
 4206SOL    HW112950   2.749   0.277   9.712
 4206SOL    HW212951   2.896   0.234   9.771
 4207SOL     OW12952   2.938   0.683  10.774
 4207SOL    HW112953   2.858   0.622  10.777
 4207SOL    HW212954   3.019   0.630  10.750
 4208SOL     OW12955   3.089   1.570  10.103
 4208SOL    HW112956   3.110   1.644  10.038
 4208SOL    HW212957   3.157   1.570  10.176
 4209SOL     OW12958   2.321   1.152  10.051
 4209SOL    HW112959   2.250   1.125  10.116
 4209SOL    HW212960   2.295   1.124   9.958
 4210SOL     OW12961   3.133   1.797   9.901
 4210SOL    HW112962   3.177   1.861   9.837
 4210SOL    HW212963   3.083   1.849   9.971
 4211SOL     OW12964   2.894   0.549   9.326
 4211SOL    HW112965   2.853   0.631   9.287
 4211SOL    HW212966   2.958   0.575   9.399
 4212SOL     OW12967   1.940   0.556  10.696
 4212SOL    HW112968   2.032   0.555  10.655
 4212SOL    HW212969   1.934   0.630  10.763
 4213SOL     OW12970   2.423   0.222  10.457
 4213SOL    HW112971   2.461   0.138  10.494
 4213SOL    HW212972   2.335   0.241  10.501
 4214SOL     OW12973   2.728   0.454   9.952
 4214SOL    HW112974   2.696   0.526   9.890
 4214SOL    HW212975   2.752   0.373   9.899
 4215SOL     OW12976   2.879   0.039  10.063
 4215SOL    HW112977   2.807   0.044   9.994
 4215SOL    HW212978   2.855  -0.030  10.132
 4216SOL     OW12979   3.291   1.173  10.177
 4216SOL    HW112980   3.236   1.089  10.170
 4216SOL    HW212981   3.317   1.202  10.085
 4217SOL     OW12982   3.328   0.590  10.302
 4217SOL    HW112983   3.298   0.495  10.309
 4217SOL    HW212984   3.401   0.606  10.368
 4218SOL     OW12985   3.719   0.833   9.687
 4218SOL    HW112986   3.761   0.769   9.751
 4218SOL    HW212987   3.681   0.782   9.609
 4219SOL     OW12988   2.350   1.385   9.484
 4219SOL    HW112989   2.263   1.370   9.531
 4219SOL    HW212990   2.333   1.411   9.389
 4220SOL     OW12991   3.526   1.280   9.967
 4220SOL    HW112992   3.625   1.288   9.981
 4220SOL    HW212993   3.481   1.364   9.998
 4221SOL     OW12994   3.252   0.575   9.388
 4221SOL    HW112995   3.198   0.554   9.469
 4221SOL    HW212996   3.343   0.534   9.397
 4222SOL     OW12997   2.389   0.256   9.638
 4222SOL    HW112998   2.416   0.197   9.563
 4222SOL    HW212999   2.389   0.351   9.607
 4223SOL     OW13000   3.616   1.223  10.898
 4223SOL    HW113001   3.707   1.184  10.885
 4223SOL    HW213002   3.624   1.319  10.922
 4224SOL     OW13003   2.926   1.347  10.650
 4224SOL    HW113004   2.846   1.324  10.705
 4224SOL    HW213005   3.009   1.321  10.699
 4225SOL     OW13006   3.454   1.629  10.935
 4225SOL    HW113007   3.481   1.663  10.845
 4225SOL    HW213008   3.533   1.591  10.981
 4226SOL     OW13009   2.973   1.195  10.410
 4226SOL    HW113010   2.933   1.239  10.491
 4226SOL    HW213011   2.932   1.232  10.327
 4227SOL     OW13012   3.500   1.099  10.389
 4227SOL    HW113013   3.505   1.180  10.448
 4227SOL    HW213014   3.414   1.101  10.338
 4228SOL     OW13015   2.777   0.089  10.712
 4228SOL    HW113016   2.802   0.069  10.617
 4228SOL    HW213017   2.849   0.145  10.754
 4229SOL     OW13018   2.842   1.116  11.029
 4229SOL    HW113019   2.743   1.122  11.039
 4229SOL    HW213020   2.865   1.036  10.973
 4230SOL     OW13021   2.567   1.050   9.678
 4230SOL    HW113022   2.553   1.057   9.777
 4230SOL    HW213023   2.651   0.999   9.660
 4231SOL     OW13024   2.272   0.813  10.561
 4231SOL    HW113025   2.358   0.825  10.611
 4231SOL    HW213026   2.230   0.726  10.588
 4232SOL     OW13027   3.136   0.386  10.572
 4232SOL    HW113028   3.157   0.460  10.636
 4232SOL    HW213029   3.047   0.403  10.529
 4233SOL     OW13030   1.926   1.564  10.641
 4233SOL    HW113031   1.880   1.646  10.607
 4233SOL    HW213032   2.024   1.583  10.650
 4234SOL     OW13033   2.229   1.100   9.811
 4234SOL    HW113034   2.222   1.183   9.755
 4234SOL    HW213035   2.233   1.020   9.751
 4235SOL     OW13036   2.428   0.537  10.175
 4235SOL    HW113037   2.440   0.603  10.101
 4235SOL    HW213038   2.474   0.571  10.258
 4236SOL     OW13039   3.114   1.348   9.698
 4236SOL    HW113040   3.164   1.425   9.738
 4236SOL    HW213041   3.019   1.350   9.730
 4237SOL     OW13042   3.134   1.445  10.452
 4237SOL    HW113043   3.181   1.458  10.539
 4237SOL    HW213044   3.068   1.371  10.461
 4238SOL     OW13045   3.444   0.639   9.782
 4238SOL    HW113046   3.413   0.700   9.855
 4238SOL    HW213047   3.494   0.691   9.713
 4239SOL     OW13048   2.216   1.510  10.639
 4239SOL    HW113049   2.195   1.466  10.552
 4239SOL    HW213050   2.313   1.536  10.642
 4240SOL     OW13051   2.264   0.751  10.908
 4240SOL    HW113052   2.332   0.806  10.861
 4240SOL    HW213053   2.304   0.663  10.935
 4241SOL     OW13054   3.449   0.779  10.980
 4241SOL    HW113055   3.357   0.817  10.975
 4241SOL    HW213056   3.509   0.826  10.915
 4242SOL     OW13057   2.875   0.105  11.080
 4242SOL    HW113058   2.881   0.190  11.028
 4242SOL    HW213059   2.907   0.029  11.023
 4243SOL     OW13060   2.366   0.050  11.050
 4243SOL    HW113061   2.324  -0.007  10.980
 4243SOL    HW213062   2.300   0.119  11.082
 4244SOL     OW13063   2.435   0.870  10.339
 4244SOL    HW113064   2.479   0.959  10.330
 4244SOL    HW213065   2.372   0.870  10.416
 4245SOL     OW13066   3.222   0.862  10.355
 4245SOL    HW113067   3.147   0.862  10.289
 4245SOL    HW213068   3.259   0.770  10.364
 4246SOL     OW13069   3.071   0.525   9.585
 4246SOL    HW113070   3.084   0.441   9.639
 4246SOL    HW213071   3.042   0.599   9.645
 4247SOL     OW13072   2.169   0.213  10.541
 4247SOL    HW113073   2.146   0.250  10.631
 4247SOL    HW213074   2.139   0.118  10.535
 4248SOL     OW13075   1.899   1.310  10.592
 4248SOL    HW113076   1.952   1.261  10.660
 4248SOL    HW213077   1.921   1.408  10.597
 4249SOL     OW13078   2.594   0.634  10.374
 4249SOL    HW113079   2.653   0.608  10.298
 4249SOL    HW213080   2.566   0.730  10.363
 4250SOL     OW13081   3.590   0.935  11.164
 4250SOL    HW113082   3.544   0.928  11.075
 4250SOL    HW213083   3.528   0.979  11.230
 4251SOL     OW13084   2.169   0.063   9.928
 4251SOL    HW113085   2.158   0.157   9.961
 4251SOL    HW213086   2.164   0.000  10.005
 4252SOL     OW13087   3.484   0.367   9.684
 4252SOL    HW113088   3.486   0.291   9.748
 4252SOL    HW213089   3.436   0.444   9.724
 4253SOL     OW13090   2.885   0.766  10.276
 4253SOL    HW113091   2.900   0.787  10.372
 4253SOL    HW213092   2.855   0.671  10.267
 4254SOL     OW13093   2.842   1.573  11.010
 4254SOL    HW113094   2.822   1.617  10.922
 4254SOL    HW213095   2.881   1.482  10.994
 4255SOL     OW13096   3.721   1.518  10.915
 4255SOL    HW113097   3.735   1.545  10.820
 4255SOL    HW213098   3.804   1.540  10.968
 4256SOL     OW13099   2.212   0.898  11.114
 4256SOL    HW113100   2.288   0.942  11.162
 4256SOL    HW213101   2.247   0.851  11.032
 4257SOL     OW13102   3.402   0.274   9.435
 4257SOL    HW113103   3.341   0.199   9.458
 4257SOL    HW213104   3.424   0.326   9.518
 4258SOL     OW13105   3.165   0.838   9.352
 4258SOL    HW113106   3.199   0.745   9.367
 4258SOL    HW213107   3.183   0.865   9.257
 4259SOL     OW13108   2.930   1.333  10.159
 4259SOL    HW113109   2.937   1.249  10.104
 4259SOL    HW213110   2.992   1.402  10.123
 4260SOL     OW13111   2.181   0.810  10.259
 4260SOL    HW113112   2.274   0.846  10.264
 4260SOL    HW213113   2.175   0.725  10.311
 4261SOL     OW13114   2.201   0.509  10.316
 4261SOL    HW113115   2.149   0.426  10.299
 4261SOL    HW213116   2.278   0.514  10.252
 4262SOL     OW13117   3.000   0.380  10.988
 4262SOL    HW113118   2.955   0.443  11.052
 4262SOL    HW213119   3.093   0.411  10.971
 4263SOL     OW13120   3.022   0.207  10.787
 4263SOL    HW113121   3.022   0.271  10.864
 4263SOL    HW213122   3.050   0.255  10.704
 4264SOL     OW13123   1.870   1.326   9.510
 4264SOL    HW113124   1.777   1.347   9.479
 4264SOL    HW213125   1.880   1.227   9.523
 4265SOL     OW13126   1.950   1.801  10.237
 4265SOL    HW113127   1.908   1.715  10.210
 4265SOL    HW213128   2.044   1.804  10.203
 4266SOL     OW13129   2.366   1.568  10.220
 4266SOL    HW113130   2.432   1.642  10.229
 4266SOL    HW213131   2.410   1.489  10.178
 4267SOL     OW13132   2.864   0.796  10.548
 4267SOL    HW113133   2.905   0.764  10.634
 4267SOL    HW213134   2.768   0.769  10.545
 4268SOL     OW13135   1.902   0.544  10.424
 4268SOL    HW113136   1.987   0.511  10.383
 4268SOL    HW213137   1.915   0.559  10.522
 4269SOL     OW13138   2.051   0.520  11.032
 4269SOL    HW113139   2.110   0.480  10.962
 4269SOL    HW213140   1.993   0.591  10.991
 4270SOL     OW13141   3.231   0.950  10.970
 4270SOL    HW113142   3.270   1.039  10.990
 4270SOL    HW213143   3.241   0.930  10.873
 4271SOL     OW13144   2.677   0.572   9.635
 4271SOL    HW113145   2.684   0.483   9.589
 4271SOL    HW213146   2.583   0.606   9.627
 4272SOL     OW13147   3.519   0.604  10.516
 4272SOL    HW113148   3.481   0.535  10.578
 4272SOL    HW213149   3.601   0.568  10.472
 4273SOL     OW13150   2.114   1.564  11.054
 4273SOL    HW113151   2.084   1.621  11.130
 4273SOL    HW213152   2.107   1.467  11.080
 4274SOL     OW13153   2.533   0.464  10.579
 4274SOL    HW113154   2.499   0.375  10.549
 4274SOL    HW213155   2.559   0.518  10.499
 4275SOL     OW13156   2.792   1.678  10.775
 4275SOL    HW113157   2.768   1.660  10.680
 4275SOL    HW213158   2.822   1.772  10.785
 4276SOL     OW13159   2.335   0.500   9.501
 4276SOL    HW113160   2.396   0.580   9.505
 4276SOL    HW213161   2.240   0.531   9.508
 4277SOL     OW13162   2.021   1.137  10.776
 4277SOL    HW113163   2.043   1.076  10.852
 4277SOL    HW213164   2.031   1.088  10.690
 4278SOL     OW13165   3.209   1.059  10.544
 4278SOL    HW113166   3.233   0.996  10.470
 4278SOL    HW213167   3.119   1.099  10.526
 4279SOL     OW13168   3.164   0.855   9.619
 4279SOL    HW113169   3.078   0.824   9.661
 4279SOL    HW213170   3.160   0.841   9.520
 4280SOL     OW13171   3.621   1.747  10.464
 4280SOL    HW113172   3.682   1.777  10.391
 4280SOL    HW213173   3.583   1.658  10.442
 4281SOL     OW13174   3.114   1.731  10.438
 4281SOL    HW113175   3.198   1.736  10.384
 4281SOL    HW213176   3.091   1.635  10.456
 4282SOL     OW13177   1.945   1.258  10.332
 4282SOL    HW113178   1.940   1.257  10.432
 4282SOL    HW213179   1.862   1.217  10.294
 4283SOL     OW13180   2.550   1.662  11.026
 4283SOL    HW113181   2.494   1.743  11.035
 4283SOL    HW213182   2.602   1.666  10.940
 4284SOL     OW13183   3.588   0.135   9.833
 4284SOL    HW113184   3.661   0.118   9.766
 4284SOL    HW213185   3.557   0.048   9.871
 4285SOL     OW13186   3.250   1.573   9.787
 4285SOL    HW113187   3.317   1.585   9.713
 4285SOL    HW213188   3.210   1.662   9.810
 4286SOL     OW13189   1.992   1.794  11.161
 4286SOL    HW113190   1.951   1.720  11.214
 4286SOL    HW213191   2.056   1.845  11.219
 4287SOL     OW13192   3.142   0.927   9.982
 4287SOL    HW113193   3.202   0.846   9.984
 4287SOL    HW213194   3.182   0.996   9.922
 4288SOL     OW13195   2.692   1.273  10.732
 4288SOL    HW113196   2.687   1.306  10.827
 4288SOL    HW213197   2.606   1.292  10.686
 4289SOL     OW13198   2.534   1.616   9.464
 4289SOL    HW113199   2.543   1.626   9.365
 4289SOL    HW213200   2.494   1.527   9.485
 4290SOL     OW13201   3.512   1.720  10.704
 4290SOL    HW113202   3.565   1.730  10.620
 4290SOL    HW213203   3.485   1.810  10.738
 4291SOL     OW13204   3.703   0.175  10.273
 4291SOL    HW113205   3.742   0.090  10.237
 4291SOL    HW213206   3.605   0.177  10.254
 4292SOL     OW13207   2.125   0.326  10.030
 4292SOL    HW113208   2.046   0.377   9.996
 4292SOL    HW213209   2.116   0.311  10.128
 4293SOL     OW13210   3.056   1.612   9.341
 4293SOL    HW113211   3.062   1.519   9.378
 4293SOL    HW213212   2.997   1.612   9.261
 4294SOL     OW13213   2.684   1.002  10.682
 4294SOL    HW113214   2.724   1.001  10.590
 4294SOL    HW213215   2.694   1.094  10.722
 4295SOL     OW13216   2.778   0.910   9.601
 4295SOL    HW113217   2.841   0.948   9.533
 4295SOL    HW213218   2.818   0.827   9.640
 4296SOL     OW13219   3.366   1.607   9.354
 4296SOL    HW113220   3.274   1.644   9.361
 4296SOL    HW213221   3.404   1.627   9.264
 4297SOL     OW13222   2.234   1.288  10.800
 4297SOL    HW113223   2.221   1.381  10.766
 4297SOL    HW213224   2.150   1.236  10.787
 4298SOL     OW13225   3.476   1.292  10.599
 4298SOL    HW113226   3.536   1.295  10.679
 4298SOL    HW213227   3.401   1.356  10.612
 4299SOL     OW13228   2.901   1.098  10.006
 4299SOL    HW113229   2.831   1.051  10.060
 4299SOL    HW213230   2.960   1.030   9.963
 4300SOL     OW13231   2.876   0.236  10.281
 4300SOL    HW113232   2.868   0.200  10.188
 4300SOL    HW213233   2.874   0.160  10.346
 4301SOL     OW13234   2.452   1.487   9.801
 4301SOL    HW113235   2.494   1.429   9.731
 4301SOL    HW213236   2.408   1.566   9.757
 4302SOL     OW13237   3.571   0.385  10.691
 4302SOL    HW113238   3.644   0.454  10.695
 4302SOL    HW213239   3.599   0.310  10.632
 4303SOL     OW13240   2.117   1.348   9.600
 4303SOL    HW113241   2.021   1.349   9.573
 4303SOL    HW213242   2.129   1.401   9.684
 4304SOL     OW13243   1.967   1.013  11.036
 4304SOL    HW113244   1.890   0.980  11.090
 4304SOL    HW213245   2.052   0.983  11.078
 4305SOL     OW13246   2.534   0.203  10.799
 4305SOL    HW113247   2.624   0.187  10.759
 4305SOL    HW213248   2.542   0.208  10.898
 4306SOL     OW13249   1.937   0.345   9.343
 4306SOL    HW113250   1.845   0.317   9.314
 4306SOL    HW213251   1.968   0.422   9.287
 4307SOL     OW13252   3.302   0.856  10.708
 4307SOL    HW113253   3.245   0.908  10.645
 4307SOL    HW213254   3.398   0.868  10.684
 4308SOL     OW13255   1.934   0.166   9.628
 4308SOL    HW113256   1.917   0.249   9.574
 4308SOL    HW213257   2.024   0.129   9.606
 4309SOL     OW13258   3.045   1.335   9.429
 4309SOL    HW113259   2.946   1.324   9.431
 4309SOL    HW213260   3.079   1.350   9.522
 4310SOL     OW13261   2.475   0.842  10.741
 4310SOL    HW113262   2.531   0.923  10.724
 4310SOL    HW213263   2.534   0.762  10.744
 4311SOL     OW13264   3.355   1.767  10.269
 4311SOL    HW113265   3.388   1.831  10.200
 4311SOL    HW213266   3.421   1.761  10.344
 4312SOL     OW13267   2.578   0.565  11.018
 4312SOL    HW113268   2.597   0.630  11.092
 4312SOL    HW213269   2.638   0.485  11.027
 4313SOL     OW13270   3.312   1.220  10.943
 4313SOL    HW113271   3.303   1.210  11.042
 4313SOL    HW213272   3.408   1.213  10.917
 4314SOL     OW13273   2.252   1.741  10.870
 4314SOL    HW113274   2.161   1.782  10.868
 4314SOL    HW213275   2.245   1.647  10.902
 4315SOL     OW13276   3.536   0.883  10.564
 4315SOL    HW113277   3.509   0.794  10.527
 4315SOL    HW213278   3.537   0.951  10.491
 4316SOL     OW13279   3.087   0.325   9.759
 4316SOL    HW113280   3.152   0.251   9.748
 4316SOL    HW213281   3.107   0.375   9.843
 4317SOL     OW13282   2.456   0.745   9.962
 4317SOL    HW113283   2.506   0.830   9.943
 4317SOL    HW213284   2.368   0.747   9.914
 4318SOL     OW13285   3.639   0.342  10.952
 4318SOL    HW113286   3.622   0.373  10.858
 4318SOL    HW213287   3.555   0.305  10.990
 4319SOL     OW13288   3.592   0.934  10.827
 4319SOL    HW113289   3.630   1.025  10.842
 4319SOL    HW213290   3.584   0.917  10.728
 4320SOL     OW13291   2.721   1.374   9.326
 4320SOL    HW113292   2.675   1.389   9.414
 4320SOL    HW213293   2.765   1.459   9.296
 4321SOL     OW13294   2.523   1.790  10.263
 4321SOL    HW113295   2.477   1.878  10.250
 4321SOL    HW213296   2.622   1.802  10.256
 4322SOL     OW13297   2.721   0.956  10.171
 4322SOL    HW113298   2.775   0.887  10.219
 4322SOL    HW213299   2.689   1.025  10.237
 4323SOL     OW13300   2.945   0.984   9.397
 4323SOL    HW113301   2.922   1.037   9.315
 4323SOL    HW213302   3.026   0.928   9.378
 4324SOL     OW13303   3.723   1.569  10.161
 4324SOL    HW113304   3.652   1.557  10.091
 4324SOL    HW213305   3.724   1.490  10.221
 4325SOL     OW13306   2.083   1.314  11.154
 4325SOL    HW113307   2.018   1.241  11.133
 4325SOL    HW213308   2.087   1.328  11.252
 4326SOL     OW13309   1.941   1.240   9.963
 4326SOL    HW113310   1.940   1.193  10.051
 4326SOL    HW213311   2.023   1.212   9.912
 4327SOL     OW13312   2.534   1.391  10.934
 4327SOL    HW113313   2.456   1.341  10.972
 4327SOL    HW213314   2.531   1.486  10.965
 4328SOL     OW13315   3.686   0.192  10.537
 4328SOL    HW113316   3.682   0.102  10.581
 4328SOL    HW213317   3.689   0.181  10.438
 4329SOL     OW13318   2.290   0.424   9.830
 4329SOL    HW113319   2.320   0.352   9.768
 4329SOL    HW213320   2.251   0.384   9.913
 4330SOL     OW13321   3.567   1.487  10.414
 4330SOL    HW113322   3.474   1.462  10.387
 4330SOL    HW213323   3.593   1.437  10.496
 4331SOL     OW13324   2.179   0.547  10.590
 4331SOL    HW113325   2.217   0.488  10.662
 4331SOL    HW213326   2.219   0.521  10.502
 4332SOL     OW13327   2.674   1.586   9.997
 4332SOL    HW113328   2.706   1.596   9.903
 4332SOL    HW213329   2.595   1.524   9.999
 4333SOL     OW13330   3.286   0.214  10.422
 4333SOL    HW113331   3.338   0.149  10.477
 4333SOL    HW213332   3.237   0.277  10.483
 4334SOL     OW13333   2.863   0.034  10.464
 4334SOL    HW113334   2.800  -0.038  10.433
 4334SOL    HW213335   2.956  -0.002  10.464
 4335SOL     OW13336   2.632   1.330   9.611
 4335SOL    HW113337   2.586   1.243   9.628
 4335SOL    HW213338   2.723   1.327   9.652
 4336SOL     OW13339   2.480   1.567  10.594
 4336SOL    HW113340   2.475   1.649  10.651
 4336SOL    HW213341   2.569   1.564  10.549
 4337SOL     OW13342   3.214   0.052   9.478
 4337SOL    HW113343   3.249   0.011   9.394
 4337SOL    HW213344   3.124   0.014   9.498
 4338SOL     OW13345   3.162   0.453  10.001
 4338SOL    HW113346   3.103   0.533  10.005
 4338SOL    HW213347   3.177   0.418  10.094
 4339SOL     OW13348   3.455   0.221  10.192
 4339SOL    HW113349   3.371   0.220  10.246
 4339SOL    HW213350   3.457   0.304  10.136
 4340SOL     OW13351   1.901   1.077   9.610
 4340SOL    HW113352   2.000   1.066   9.601
 4340SOL    HW213353   1.861   0.991   9.642
 4341SOL     OW13354   2.737   1.646   9.647
 4341SOL    HW113355   2.660   1.611   9.593
 4341SOL    HW213356   2.705   1.717   9.709
 4342SOL     OW13357   2.092   2.490   0.113
 4342SOL    HW113358   1.999   2.488   0.150
 4342SOL    HW213359   2.093   2.451   0.021
 4343SOL     OW13360   1.881   2.230   0.647
 4343SOL    HW113361   1.799   2.273   0.686
 4343SOL    HW213362   1.853   2.157   0.584
 4344SOL     OW13363   2.431   3.137   1.165
 4344SOL    HW113364   2.338   3.130   1.128
 4344SOL    HW213365   2.442   3.226   1.209
 4345SOL     OW13366   3.417   3.373   0.703
 4345SOL    HW113367   3.360   3.357   0.784
 4345SOL    HW213368   3.358   3.383   0.623
 4346SOL     OW13369   2.997   2.565   0.717
 4346SOL    HW113370   3.054   2.643   0.692
 4346SOL    HW213371   2.937   2.591   0.793
 4347SOL     OW13372   3.617   2.469   0.231
 4347SOL    HW113373   3.605   2.456   0.132
 4347SOL    HW213374   3.587   2.388   0.280
 4348SOL     OW13375   2.630   3.006   1.023
 4348SOL    HW113376   2.552   3.023   1.083
 4348SOL    HW213377   2.664   3.093   0.987
 4349SOL     OW13378   2.712   2.660   1.823
 4349SOL    HW113379   2.708   2.736   1.888
 4349SOL    HW213380   2.734   2.696   1.732
 4350SOL     OW13381   2.547   2.874   0.665
 4350SOL    HW113382   2.616   2.858   0.735
 4350SOL    HW213383   2.474   2.931   0.703
 4351SOL     OW13384   2.548   3.023   1.803
 4351SOL    HW113385   2.608   3.102   1.817
 4351SOL    HW213386   2.462   3.054   1.762
 4352SOL     OW13387   2.197   3.297   1.061
 4352SOL    HW113388   2.119   3.266   1.008
 4352SOL    HW213389   2.255   3.355   1.004
 4353SOL     OW13390   3.322   3.367   1.339
 4353SOL    HW113391   3.346   3.461   1.365
 4353SOL    HW213392   3.306   3.313   1.421
 4354SOL     OW13393   3.465   2.309   0.737
 4354SOL    HW113394   3.391   2.355   0.687
 4354SOL    HW213395   3.516   2.377   0.790
 4355SOL     OW13396   2.093   3.575   0.483
 4355SOL    HW113397   2.127   3.652   0.537
 4355SOL    HW213398   2.137   3.575   0.393
 4356SOL     OW13399   2.989   3.203   1.690
 4356SOL    HW113400   3.036   3.203   1.778
 4356SOL    HW213401   2.941   3.116   1.679
 4357SOL     OW13402   2.092   3.296   0.538
 4357SOL    HW113403   2.066   3.392   0.538
 4357SOL    HW213404   2.021   3.242   0.583
 4358SOL     OW13405   2.102   2.953   0.886
 4358SOL    HW113406   2.116   2.869   0.938
 4358SOL    HW213407   2.047   3.017   0.941
 4359SOL     OW13408   2.482   3.648   1.439
 4359SOL    HW113409   2.390   3.631   1.474
 4359SOL    HW213410   2.510   3.740   1.465
 4360SOL     OW13411   2.468   2.826   0.123
 4360SOL    HW113412   2.475   2.910   0.069
 4360SOL    HW213413   2.514   2.839   0.211
 4361SOL     OW13414   3.456   1.976   1.480
 4361SOL    HW113415   3.438   2.043   1.408
 4361SOL    HW213416   3.453   2.022   1.569
 4362SOL     OW13417   1.984   2.505   0.563
 4362SOL    HW113418   1.939   2.417   0.580
 4362SOL    HW213419   1.983   2.559   0.647
 4363SOL     OW13420   3.704   3.629   0.359
 4363SOL    HW113421   3.758   3.600   0.439
 4363SOL    HW213422   3.734   3.719   0.330
 4364SOL     OW13423   1.889   3.458   0.117
 4364SOL    HW113424   1.870   3.362   0.138
 4364SOL    HW213425   1.856   3.516   0.192
 4365SOL     OW13426   3.551   2.784   0.612
 4365SOL    HW113427   3.646   2.755   0.620
 4365SOL    HW213428   3.543   2.849   0.537
 4366SOL     OW13429   3.503   2.970   0.432
 4366SOL    HW113430   3.589   2.972   0.380
 4366SOL    HW213431   3.517   3.017   0.520
 4367SOL     OW13432   1.975   2.599   1.597
 4367SOL    HW113433   2.063   2.586   1.642
 4367SOL    HW213434   1.962   2.696   1.575
 4368SOL     OW13435   2.475   3.227   0.726
 4368SOL    HW113436   2.426   3.140   0.735
 4368SOL    HW213437   2.452   3.270   0.639
 4369SOL     OW13438   3.155   3.090   1.423
 4369SOL    HW113439   3.192   3.017   1.365
 4369SOL    HW213440   3.207   3.095   1.508
 4370SOL     OW13441   2.671   1.866   0.502
 4370SOL    HW113442   2.711   1.957   0.493
 4370SOL    HW213443   2.571   1.874   0.508
 4371SOL     OW13444   2.059   2.838   1.264
 4371SOL    HW113445   2.148   2.793   1.250
 4371SOL    HW213446   1.986   2.773   1.245
 4372SOL     OW13447   3.387   2.861   0.190
 4372SOL    HW113448   3.324   2.785   0.203
 4372SOL    HW213449   3.435   2.879   0.276
 4373SOL     OW13450   3.049   3.654   1.616
 4373SOL    HW113451   3.073   3.714   1.540
 4373SOL    HW213452   3.056   3.559   1.586
 4374SOL     OW13453   3.328   3.279   0.953
 4374SOL    HW113454   3.269   3.285   1.033
 4374SOL    HW213455   3.313   3.191   0.907
 4375SOL     OW13456   3.529   3.576   0.572
 4375SOL    HW113457   3.488   3.553   0.484
 4375SOL    HW213458   3.511   3.502   0.637
 4376SOL     OW13459   2.460   2.591   0.270
 4376SOL    HW113460   2.484   2.660   0.202
 4376SOL    HW213461   2.382   2.624   0.324
 4377SOL     OW13462   3.143   2.207   0.944
 4377SOL    HW113463   3.057   2.157   0.931
 4377SOL    HW213464   3.205   2.153   1.000
 4378SOL     OW13465   3.438   3.524   0.307
 4378SOL    HW113466   3.527   3.570   0.310
 4378SOL    HW213467   3.417   3.500   0.212
 4379SOL     OW13468   2.669   2.467   1.465
 4379SOL    HW113469   2.622   2.464   1.554
 4379SOL    HW213470   2.618   2.412   1.399
 4380SOL     OW13471   3.256   2.331   1.674
 4380SOL    HW113472   3.236   2.374   1.762
 4380SOL    HW213473   3.334   2.269   1.683
 4381SOL     OW13474   2.835   2.752   1.572
 4381SOL    HW113475   2.881   2.668   1.543
 4381SOL    HW213476   2.779   2.786   1.497
 4382SOL     OW13477   2.853   2.272   1.242
 4382SOL    HW113478   2.776   2.306   1.296
 4382SOL    HW213479   2.819   2.221   1.163
 4383SOL     OW13480   2.903   2.563   0.429
 4383SOL    HW113481   2.929   2.559   0.525
 4383SOL    HW213482   2.818   2.512   0.415
 4384SOL     OW13483   1.938   2.673   0.789
 4384SOL    HW113484   2.037   2.661   0.798
 4384SOL    HW213485   1.914   2.768   0.810
 4385SOL     OW13486   1.992   3.683   1.571
 4385SOL    HW113487   1.982   3.668   1.670
 4385SOL    HW213488   1.906   3.719   1.535
 4386SOL     OW13489   2.727   2.210   0.195
 4386SOL    HW113490   2.786   2.273   0.146
 4386SOL    HW213491   2.746   2.116   0.166
 4387SOL     OW13492   3.581   2.447   1.831
 4387SOL    HW113493   3.555   2.536   1.795
 4387SOL    HW213494   3.579   2.379   1.758
 4388SOL     OW13495   3.224   3.006   0.545
 4388SOL    HW113496   3.307   2.977   0.497
 4388SOL    HW213497   3.175   3.073   0.489
 4389SOL     OW13498   2.870   3.318   0.477
 4389SOL    HW113499   2.824   3.390   0.425
 4389SOL    HW213500   2.866   3.338   0.575
 4390SOL     OW13501   2.213   3.663   0.853
 4390SOL    HW113502   2.263   3.577   0.859
 4390SOL    HW213503   2.278   3.740   0.850
 4391SOL     OW13504   3.657   2.928   0.873
 4391SOL    HW113505   3.595   2.913   0.797
 4391SOL    HW213506   3.605   2.939   0.958
 4392SOL     OW13507   3.089   3.412   1.506
 4392SOL    HW113508   3.095   3.335   1.570
 4392SOL    HW213509   3.037   3.386   1.426
 4393SOL     OW13510   2.183   2.805   0.242
 4393SOL    HW113511   2.265   2.844   0.200
 4393SOL    HW213512   2.156   2.723   0.193
 4394SOL     OW13513   3.320   2.597   0.728
 4394SOL    HW113514   3.315   2.532   0.803
 4394SOL    HW213515   3.400   2.656   0.741
 4395SOL     OW13516   2.323   3.128   1.727
 4395SOL    HW113517   2.273   3.129   1.641
 4395SOL    HW213518   2.260   3.110   1.803
 4396SOL     OW13519   2.973   3.638   0.237
 4396SOL    HW113520   2.913   3.576   0.287
 4396SOL    HW213521   3.004   3.594   0.152
 4397SOL     OW13522   2.064   2.147   1.498
 4397SOL    HW113523   1.984   2.207   1.485
 4397SOL    HW213524   2.054   2.098   1.584
 4398SOL     OW13525   3.494   3.239   0.081
 4398SOL    HW113526   3.462   3.333   0.071
 4398SOL    HW213527   3.418   3.176   0.069
 4399SOL     OW13528   2.326   3.605   0.323
 4399SOL    HW113529   2.359   3.644   0.409
 4399SOL    HW213530   2.402   3.598   0.258
 4400SOL     OW13531   3.262   1.969   0.426
 4400SOL    HW113532   3.238   1.932   0.336
 4400SOL    HW213533   3.361   1.985   0.430
 4401SOL     OW13534   2.111   3.647   1.241
 4401SOL    HW113535   2.168   3.582   1.291
 4401SOL    HW213536   2.095   3.614   1.148
 4402SOL     OW13537   2.802   3.560   0.904
 4402SOL    HW113538   2.882   3.503   0.925
 4402SOL    HW213539   2.753   3.520   0.827
 4403SOL     OW13540   2.244   2.562   0.480
 4403SOL    HW113541   2.289   2.472   0.477
 4403SOL    HW213542   2.150   2.551   0.513
 4404SOL     OW13543   3.409   2.084   1.729
 4404SOL    HW113544   3.404   2.121   1.821
 4404SOL    HW213545   3.337   2.015   1.717
 4405SOL     OW13546   2.476   1.984   0.117
 4405SOL    HW113547   2.574   1.962   0.124
 4405SOL    HW213548   2.445   1.967   0.024
 4406SOL     OW13549   2.643   2.126   1.749
 4406SOL    HW113550   2.710   2.065   1.792
 4406SOL    HW213551   2.570   2.145   1.814
 4407SOL     OW13552   2.750   3.376   1.195
 4407SOL    HW113553   2.727   3.351   1.101
 4407SOL    HW213554   2.811   3.307   1.234
 4408SOL     OW13555   3.213   2.452   1.433
 4408SOL    HW113556   3.241   2.409   1.518
 4408SOL    HW213557   3.238   2.548   1.434
 4409SOL     OW13558   2.665   3.264   0.924
 4409SOL    HW113559   2.755   3.278   0.882
 4409SOL    HW213560   2.594   3.266   0.853
 4410SOL     OW13561   2.784   2.365   0.899
 4410SOL    HW113562   2.759   2.356   0.803
 4410SOL    HW213563   2.832   2.283   0.930
 4411SOL     OW13564   2.401   1.926   0.512
 4411SOL    HW113565   2.320   1.927   0.570
 4411SOL    HW213566   2.404   2.009   0.457
 4412SOL     OW13567   3.296   3.050   0.041
 4412SOL    HW113568   3.328   2.974   0.098
 4412SOL    HW213569   3.204   3.077   0.071
 4413SOL     OW13570   2.159   1.897   0.171
 4413SOL    HW113571   2.208   1.981   0.150
 4413SOL    HW213572   2.221   1.832   0.216
 4414SOL     OW13573   2.797   2.098   0.480
 4414SOL    HW113574   2.749   2.139   0.402
 4414SOL    HW213575   2.896   2.096   0.461
 4415SOL     OW13576   2.938   2.545   1.464
 4415SOL    HW113577   2.858   2.484   1.467
 4415SOL    HW213578   3.019   2.492   1.440
 4416SOL     OW13579   3.089   3.432   0.793
 4416SOL    HW113580   3.110   3.506   0.728
 4416SOL    HW213581   3.157   3.432   0.866
 4417SOL     OW13582   2.321   3.014   0.741
 4417SOL    HW113583   2.250   2.987   0.806
 4417SOL    HW213584   2.295   2.986   0.648
 4418SOL     OW13585   3.133   3.659   0.591
 4418SOL    HW113586   3.177   3.723   0.527
 4418SOL    HW213587   3.083   3.711   0.661
 4419SOL     OW13588   2.894   2.411   0.016
 4419SOL    HW113589   2.853   2.493  -0.023
 4419SOL    HW213590   2.958   2.437   0.089
 4420SOL     OW13591   1.940   2.418   1.386
 4420SOL    HW113592   2.032   2.417   1.345
 4420SOL    HW213593   1.934   2.492   1.453
 4421SOL     OW13594   2.423   2.084   1.147
 4421SOL    HW113595   2.461   2.000   1.184
 4421SOL    HW213596   2.335   2.103   1.191
 4422SOL     OW13597   2.728   2.316   0.642
 4422SOL    HW113598   2.696   2.388   0.580
 4422SOL    HW213599   2.752   2.235   0.589
 4423SOL     OW13600   2.879   1.901   0.753
 4423SOL    HW113601   2.807   1.906   0.684
 4423SOL    HW213602   2.855   1.832   0.822
 4424SOL     OW13603   3.291   3.035   0.867
 4424SOL    HW113604   3.236   2.951   0.860
 4424SOL    HW213605   3.317   3.064   0.775
 4425SOL     OW13606   3.328   2.452   0.992
 4425SOL    HW113607   3.298   2.357   0.999
 4425SOL    HW213608   3.401   2.468   1.058
 4426SOL     OW13609   3.719   2.695   0.377
 4426SOL    HW113610   3.761   2.631   0.441
 4426SOL    HW213611   3.681   2.644   0.299
 4427SOL     OW13612   2.350   3.247   0.174
 4427SOL    HW113613   2.263   3.232   0.221
 4427SOL    HW213614   2.333   3.273   0.079
 4428SOL     OW13615   3.526   3.142   0.657
 4428SOL    HW113616   3.625   3.150   0.671
 4428SOL    HW213617   3.481   3.226   0.688
 4429SOL     OW13618   3.252   2.437   0.078
 4429SOL    HW113619   3.198   2.416   0.159
 4429SOL    HW213620   3.343   2.396   0.087
 4430SOL     OW13621   3.616   3.085   1.588
 4430SOL    HW113622   3.707   3.046   1.575
 4430SOL    HW213623   3.624   3.181   1.612
 4431SOL     OW13624   2.926   3.209   1.340
 4431SOL    HW113625   2.846   3.186   1.395
 4431SOL    HW213626   3.009   3.183   1.389
 4432SOL     OW13627   3.454   3.491   1.625
 4432SOL    HW113628   3.481   3.525   1.535
 4432SOL    HW213629   3.533   3.453   1.671
 4433SOL     OW13630   2.973   3.057   1.100
 4433SOL    HW113631   2.933   3.101   1.181
 4433SOL    HW213632   2.932   3.094   1.017
 4434SOL     OW13633   3.500   2.961   1.079
 4434SOL    HW113634   3.505   3.042   1.138
 4434SOL    HW213635   3.414   2.963   1.028
 4435SOL     OW13636   2.777   1.951   1.402
 4435SOL    HW113637   2.802   1.931   1.307
 4435SOL    HW213638   2.849   2.007   1.444
 4436SOL     OW13639   2.842   2.978   1.719
 4436SOL    HW113640   2.743   2.984   1.729
 4436SOL    HW213641   2.865   2.898   1.663
 4437SOL     OW13642   2.567   2.912   0.368
 4437SOL    HW113643   2.553   2.919   0.467
 4437SOL    HW213644   2.651   2.861   0.350
 4438SOL     OW13645   2.272   2.675   1.251
 4438SOL    HW113646   2.358   2.687   1.301
 4438SOL    HW213647   2.230   2.588   1.278
 4439SOL     OW13648   3.136   2.248   1.262
 4439SOL    HW113649   3.157   2.322   1.326
 4439SOL    HW213650   3.047   2.265   1.219
 4440SOL     OW13651   1.926   3.426   1.331
 4440SOL    HW113652   1.880   3.508   1.297
 4440SOL    HW213653   2.024   3.445   1.340
 4441SOL     OW13654   2.229   2.962   0.501
 4441SOL    HW113655   2.222   3.045   0.445
 4441SOL    HW213656   2.233   2.882   0.441
 4442SOL     OW13657   3.114   3.210   0.388
 4442SOL    HW113658   3.164   3.287   0.428
 4442SOL    HW213659   3.019   3.212   0.420
 4443SOL     OW13660   3.134   3.307   1.142
 4443SOL    HW113661   3.181   3.320   1.229
 4443SOL    HW213662   3.068   3.233   1.151
 4444SOL     OW13663   3.444   2.501   0.472
 4444SOL    HW113664   3.413   2.562   0.545
 4444SOL    HW213665   3.494   2.553   0.403
 4445SOL     OW13666   2.216   3.372   1.329
 4445SOL    HW113667   2.195   3.328   1.242
 4445SOL    HW213668   2.313   3.398   1.332
 4446SOL     OW13669   2.264   2.613   1.598
 4446SOL    HW113670   2.332   2.668   1.551
 4446SOL    HW213671   2.304   2.525   1.625
 4447SOL     OW13672   3.449   2.641   1.670
 4447SOL    HW113673   3.357   2.679   1.665
 4447SOL    HW213674   3.509   2.688   1.605
 4448SOL     OW13675   2.875   1.967   1.770
 4448SOL    HW113676   2.881   2.052   1.718
 4448SOL    HW213677   2.907   1.891   1.713
 4449SOL     OW13678   2.366   1.912   1.740
 4449SOL    HW113679   2.324   1.855   1.670
 4449SOL    HW213680   2.300   1.981   1.772
 4450SOL     OW13681   2.435   2.732   1.029
 4450SOL    HW113682   2.479   2.821   1.020
 4450SOL    HW213683   2.372   2.732   1.106
 4451SOL     OW13684   3.222   2.724   1.045
 4451SOL    HW113685   3.147   2.724   0.979
 4451SOL    HW213686   3.259   2.632   1.054
 4452SOL     OW13687   3.071   2.387   0.275
 4452SOL    HW113688   3.084   2.303   0.329
 4452SOL    HW213689   3.042   2.461   0.335
 4453SOL     OW13690   1.899   3.172   1.282
 4453SOL    HW113691   1.952   3.123   1.350
 4453SOL    HW213692   1.921   3.270   1.287
 4454SOL     OW13693   2.594   2.496   1.064
 4454SOL    HW113694   2.653   2.470   0.988
 4454SOL    HW213695   2.566   2.592   1.053
 4455SOL     OW13696   3.590   2.797   1.854
 4455SOL    HW113697   3.544   2.790   1.765
 4455SOL    HW213698   3.528   2.841   1.920
 4456SOL     OW13699   2.169   1.925   0.618
 4456SOL    HW113700   2.158   2.019   0.651
 4456SOL    HW213701   2.164   1.862   0.695
 4457SOL     OW13702   3.484   2.229   0.374
 4457SOL    HW113703   3.486   2.153   0.438
 4457SOL    HW213704   3.436   2.306   0.414
 4458SOL     OW13705   2.885   2.628   0.966
 4458SOL    HW113706   2.900   2.649   1.062
 4458SOL    HW213707   2.855   2.533   0.957
 4459SOL     OW13708   2.842   3.435   1.700
 4459SOL    HW113709   2.822   3.479   1.612
 4459SOL    HW213710   2.881   3.344   1.684
 4460SOL     OW13711   3.721   3.380   1.605
 4460SOL    HW113712   3.735   3.407   1.510
 4460SOL    HW213713   3.804   3.402   1.658
 4461SOL     OW13714   2.212   2.760   1.804
 4461SOL    HW113715   2.288   2.804   1.852
 4461SOL    HW213716   2.247   2.713   1.722
 4462SOL     OW13717   3.402   2.136   0.125
 4462SOL    HW113718   3.341   2.061   0.148
 4462SOL    HW213719   3.424   2.188   0.208
 4463SOL     OW13720   3.165   2.700   0.042
 4463SOL    HW113721   3.199   2.607   0.057
 4463SOL    HW213722   3.183   2.727  -0.053
 4464SOL     OW13723   2.930   3.195   0.849
 4464SOL    HW113724   2.937   3.111   0.794
 4464SOL    HW213725   2.992   3.264   0.813
 4465SOL     OW13726   2.181   2.672   0.949
 4465SOL    HW113727   2.274   2.708   0.954
 4465SOL    HW213728   2.175   2.587   1.001
 4466SOL     OW13729   3.000   2.242   1.678
 4466SOL    HW113730   2.955   2.305   1.742
 4466SOL    HW213731   3.093   2.273   1.661
 4467SOL     OW13732   3.022   2.069   1.477
 4467SOL    HW113733   3.022   2.133   1.554
 4467SOL    HW213734   3.050   2.117   1.394
 4468SOL     OW13735   1.870   3.188   0.200
 4468SOL    HW113736   1.777   3.209   0.169
 4468SOL    HW213737   1.880   3.089   0.213
 4469SOL     OW13738   1.950   3.663   0.927
 4469SOL    HW113739   1.908   3.577   0.900
 4469SOL    HW213740   2.044   3.666   0.893
 4470SOL     OW13741   2.366   3.430   0.910
 4470SOL    HW113742   2.432   3.504   0.919
 4470SOL    HW213743   2.410   3.351   0.868
 4471SOL     OW13744   2.864   2.658   1.238
 4471SOL    HW113745   2.905   2.626   1.324
 4471SOL    HW213746   2.768   2.631   1.235
 4472SOL     OW13747   1.902   2.406   1.114
 4472SOL    HW113748   1.987   2.373   1.073
 4472SOL    HW213749   1.915   2.421   1.212
 4473SOL     OW13750   3.231   2.812   1.660
 4473SOL    HW113751   3.270   2.901   1.680
 4473SOL    HW213752   3.241   2.792   1.563
 4474SOL     OW13753   2.677   2.434   0.325
 4474SOL    HW113754   2.684   2.345   0.279
 4474SOL    HW213755   2.583   2.468   0.317
 4475SOL     OW13756   3.519   2.466   1.206
 4475SOL    HW113757   3.481   2.397   1.268
 4475SOL    HW213758   3.601   2.430   1.162
 4476SOL     OW13759   2.114   3.426   1.744
 4476SOL    HW113760   2.084   3.483   1.820
 4476SOL    HW213761   2.107   3.329   1.770
 4477SOL     OW13762   2.533   2.326   1.269
 4477SOL    HW113763   2.499   2.237   1.239
 4477SOL    HW213764   2.559   2.380   1.189
 4478SOL     OW13765   2.792   3.540   1.465
 4478SOL    HW113766   2.768   3.522   1.370
 4478SOL    HW213767   2.822   3.634   1.475
 4479SOL     OW13768   2.021   2.999   1.466
 4479SOL    HW113769   2.043   2.938   1.542
 4479SOL    HW213770   2.031   2.950   1.380
 4480SOL     OW13771   3.209   2.921   1.234
 4480SOL    HW113772   3.233   2.858   1.160
 4480SOL    HW213773   3.119   2.961   1.216
 4481SOL     OW13774   3.164   2.717   0.309
 4481SOL    HW113775   3.078   2.686   0.351
 4481SOL    HW213776   3.160   2.703   0.210
 4482SOL     OW13777   3.621   3.609   1.154
 4482SOL    HW113778   3.682   3.639   1.081
 4482SOL    HW213779   3.583   3.520   1.132
 4483SOL     OW13780   3.114   3.593   1.128
 4483SOL    HW113781   3.198   3.598   1.074
 4483SOL    HW213782   3.091   3.497   1.146
 4484SOL     OW13783   1.945   3.120   1.022
 4484SOL    HW113784   1.940   3.119   1.122
 4484SOL    HW213785   1.862   3.079   0.984
 4485SOL     OW13786   2.550   3.524   1.716
 4485SOL    HW113787   2.494   3.605   1.725
 4485SOL    HW213788   2.602   3.528   1.630
 4486SOL     OW13789   2.765   1.948   0.133
 4486SOL    HW113790   2.816   1.949   0.047
 4486SOL    HW213791   2.821   1.906   0.204
 4487SOL     OW13792   3.588   1.997   0.523
 4487SOL    HW113793   3.661   1.980   0.456
 4487SOL    HW213794   3.557   1.910   0.561
 4488SOL     OW13795   3.250   3.435   0.477
 4488SOL    HW113796   3.317   3.447   0.403
 4488SOL    HW213797   3.210   3.524   0.500
 4489SOL     OW13798   1.992   3.656   1.851
 4489SOL    HW113799   1.951   3.582   1.904
 4489SOL    HW213800   2.056   3.707   1.909
 4490SOL     OW13801   3.142   2.789   0.672
 4490SOL    HW113802   3.202   2.708   0.674
 4490SOL    HW213803   3.182   2.858   0.612
 4491SOL     OW13804   2.692   3.135   1.422
 4491SOL    HW113805   2.687   3.168   1.517
 4491SOL    HW213806   2.606   3.154   1.376
 4492SOL     OW13807   2.534   3.478   0.154
 4492SOL    HW113808   2.543   3.488   0.055
 4492SOL    HW213809   2.494   3.389   0.175
 4493SOL     OW13810   3.512   3.582   1.394
 4493SOL    HW113811   3.565   3.592   1.310
 4493SOL    HW213812   3.485   3.672   1.428
 4494SOL     OW13813   3.703   2.037   0.963
 4494SOL    HW113814   3.742   1.952   0.927
 4494SOL    HW213815   3.605   2.039   0.944
 4495SOL     OW13816   3.056   3.474   0.031
 4495SOL    HW113817   3.062   3.381   0.068
 4495SOL    HW213818   2.997   3.474  -0.049
 4496SOL     OW13819   2.684   2.864   1.372
 4496SOL    HW113820   2.724   2.863   1.280
 4496SOL    HW213821   2.694   2.956   1.412
 4497SOL     OW13822   2.778   2.772   0.291
 4497SOL    HW113823   2.841   2.810   0.223
 4497SOL    HW213824   2.818   2.689   0.330
 4498SOL     OW13825   3.366   3.469   0.044
 4498SOL    HW113826   3.274   3.506   0.051
 4498SOL    HW213827   3.404   3.489  -0.046
 4499SOL     OW13828   2.234   3.150   1.490
 4499SOL    HW113829   2.221   3.243   1.456
 4499SOL    HW213830   2.150   3.098   1.477
 4500SOL     OW13831   3.476   3.154   1.289
 4500SOL    HW113832   3.536   3.157   1.369
 4500SOL    HW213833   3.401   3.218   1.302
 4501SOL     OW13834   2.901   2.960   0.696
 4501SOL    HW113835   2.831   2.913   0.750
 4501SOL    HW213836   2.960   2.892   0.653
 4502SOL     OW13837   2.876   2.098   0.971
 4502SOL    HW113838   2.868   2.062   0.878
 4502SOL    HW213839   2.874   2.022   1.036
 4503SOL     OW13840   2.452   3.349   0.491
 4503SOL    HW113841   2.494   3.291   0.421
 4503SOL    HW213842   2.408   3.428   0.447
 4504SOL     OW13843   3.571   2.247   1.381
 4504SOL    HW113844   3.644   2.316   1.385
 4504SOL    HW213845   3.599   2.172   1.322
 4505SOL     OW13846   2.117   3.210   0.290
 4505SOL    HW113847   2.021   3.211   0.263
 4505SOL    HW213848   2.129   3.263   0.374
 4506SOL     OW13849   1.967   2.875   1.726
 4506SOL    HW113850   1.890   2.842   1.780
 4506SOL    HW213851   2.052   2.845   1.768
 4507SOL     OW13852   2.534   2.065   1.489
 4507SOL    HW113853   2.624   2.049   1.449
 4507SOL    HW213854   2.542   2.070   1.588
 4508SOL     OW13855   1.937   2.207   0.033
 4508SOL    HW113856   1.845   2.179   0.004
 4508SOL    HW213857   1.968   2.284  -0.023
 4509SOL     OW13858   3.302   2.718   1.398
 4509SOL    HW113859   3.245   2.770   1.335
 4509SOL    HW213860   3.398   2.730   1.374
 4510SOL     OW13861   1.934   2.028   0.318
 4510SOL    HW113862   1.917   2.111   0.264
 4510SOL    HW213863   2.024   1.991   0.296
 4511SOL     OW13864   3.045   3.197   0.119
 4511SOL    HW113865   2.946   3.186   0.121
 4511SOL    HW213866   3.079   3.212   0.212
 4512SOL     OW13867   2.475   2.704   1.431
 4512SOL    HW113868   2.531   2.785   1.414
 4512SOL    HW213869   2.534   2.624   1.434
 4513SOL     OW13870   3.355   3.629   0.959
 4513SOL    HW113871   3.388   3.693   0.890
 4513SOL    HW213872   3.421   3.623   1.034
 4514SOL     OW13873   2.578   2.427   1.708
 4514SOL    HW113874   2.597   2.492   1.782
 4514SOL    HW213875   2.638   2.347   1.717
 4515SOL     OW13876   3.312   3.082   1.633
 4515SOL    HW113877   3.303   3.072   1.732
 4515SOL    HW213878   3.408   3.075   1.607
 4516SOL     OW13879   2.252   3.603   1.560
 4516SOL    HW113880   2.161   3.644   1.558
 4516SOL    HW213881   2.245   3.509   1.592
 4517SOL     OW13882   3.536   2.745   1.254
 4517SOL    HW113883   3.509   2.656   1.217
 4517SOL    HW213884   3.537   2.813   1.181
 4518SOL     OW13885   3.087   2.187   0.449
 4518SOL    HW113886   3.152   2.113   0.438
 4518SOL    HW213887   3.107   2.237   0.533
 4519SOL     OW13888   2.456   2.607   0.652
 4519SOL    HW113889   2.506   2.692   0.633
 4519SOL    HW213890   2.368   2.609   0.604
 4520SOL     OW13891   3.639   2.204   1.642
 4520SOL    HW113892   3.622   2.235   1.548
 4520SOL    HW213893   3.555   2.167   1.680
 4521SOL     OW13894   3.592   2.796   1.517
 4521SOL    HW113895   3.630   2.887   1.532
 4521SOL    HW213896   3.584   2.779   1.418
 4522SOL     OW13897   2.721   3.236   0.016
 4522SOL    HW113898   2.675   3.251   0.104
 4522SOL    HW213899   2.765   3.321  -0.014
 4523SOL     OW13900   2.523   3.652   0.953
 4523SOL    HW113901   2.477   3.740   0.940
 4523SOL    HW213902   2.622   3.664   0.946
 4524SOL     OW13903   2.721   2.818   0.861
 4524SOL    HW113904   2.775   2.749   0.909
 4524SOL    HW213905   2.689   2.887   0.927
 4525SOL     OW13906   2.945   2.846   0.087
 4525SOL    HW113907   2.922   2.899   0.005
 4525SOL    HW213908   3.026   2.790   0.068
 4526SOL     OW13909   3.723   3.431   0.851
 4526SOL    HW113910   3.652   3.419   0.781
 4526SOL    HW213911   3.724   3.352   0.911
 4527SOL     OW13912   2.083   3.176   1.844
 4527SOL    HW113913   2.018   3.103   1.823
 4527SOL    HW213914   2.087   3.190   1.942
 4528SOL     OW13915   1.941   3.102   0.653
 4528SOL    HW113916   1.940   3.055   0.741
 4528SOL    HW213917   2.023   3.074   0.602
 4529SOL     OW13918   2.534   3.253   1.624
 4529SOL    HW113919   2.456   3.203   1.662
 4529SOL    HW213920   2.531   3.348   1.655
 4530SOL     OW13921   3.686   2.054   1.227
 4530SOL    HW113922   3.682   1.964   1.271
 4530SOL    HW213923   3.689   2.043   1.128
 4531SOL     OW13924   3.567   3.349   1.104
 4531SOL    HW113925   3.474   3.324   1.077
 4531SOL    HW213926   3.593   3.299   1.186
 4532SOL     OW13927   2.674   3.448   0.687
 4532SOL    HW113928   2.706   3.458   0.593
 4532SOL    HW213929   2.595   3.386   0.689
 4533SOL     OW13930   3.286   2.076   1.112
 4533SOL    HW113931   3.338   2.011   1.167
 4533SOL    HW213932   3.237   2.139   1.173
 4534SOL     OW13933   2.863   1.896   1.154
 4534SOL    HW113934   2.800   1.824   1.123
 4534SOL    HW213935   2.956   1.860   1.154
 4535SOL     OW13936   2.632   3.192   0.301
 4535SOL    HW113937   2.586   3.105   0.318
 4535SOL    HW213938   2.723   3.189   0.342
 4536SOL     OW13939   2.480   3.429   1.284
 4536SOL    HW113940   2.475   3.511   1.341
 4536SOL    HW213941   2.569   3.426   1.239
 4537SOL     OW13942   3.214   1.914   0.168
 4537SOL    HW113943   3.249   1.873   0.084
 4537SOL    HW213944   3.124   1.876   0.188
 4538SOL     OW13945   3.162   2.315   0.691
 4538SOL    HW113946   3.103   2.395   0.695
 4538SOL    HW213947   3.177   2.280   0.784
 4539SOL     OW13948   3.455   2.083   0.882
 4539SOL    HW113949   3.371   2.082   0.936
 4539SOL    HW213950   3.457   2.166   0.826
 4540SOL     OW13951   1.901   2.939   0.300
 4540SOL    HW113952   2.000   2.928   0.291
 4540SOL    HW213953   1.861   2.853   0.332
 4541SOL     OW13954   2.737   3.508   0.337
 4541SOL    HW113955   2.660   3.473   0.283
 4541SOL    HW213956   2.705   3.579   0.399
 4542SOL     OW13957   2.092   2.490   1.975
 4542SOL    HW113958   1.999   2.488   2.012
 4542SOL    HW213959   2.093   2.451   1.883
 4543SOL     OW13960   1.881   2.230   2.509
 4543SOL    HW113961   1.799   2.273   2.548
 4543SOL    HW213962   1.853   2.157   2.446
 4544SOL     OW13963   2.431   3.137   3.027
 4544SOL    HW113964   2.338   3.130   2.990
 4544SOL    HW213965   2.442   3.226   3.071
 4545SOL     OW13966   3.417   3.373   2.565
 4545SOL    HW113967   3.360   3.357   2.646
 4545SOL    HW213968   3.358   3.383   2.485
 4546SOL     OW13969   2.997   2.565   2.579
 4546SOL    HW113970   3.054   2.643   2.554
 4546SOL    HW213971   2.937   2.591   2.655
 4547SOL     OW13972   3.617   2.469   2.093
 4547SOL    HW113973   3.605   2.456   1.994
 4547SOL    HW213974   3.587   2.388   2.142
 4548SOL     OW13975   2.630   3.006   2.885
 4548SOL    HW113976   2.552   3.023   2.945
 4548SOL    HW213977   2.664   3.093   2.849
 4549SOL     OW13978   2.712   2.660   3.685
 4549SOL    HW113979   2.708   2.736   3.750
 4549SOL    HW213980   2.734   2.696   3.594
 4550SOL     OW13981   2.547   2.874   2.527
 4550SOL    HW113982   2.616   2.858   2.597
 4550SOL    HW213983   2.474   2.931   2.565
 4551SOL     OW13984   2.548   3.023   3.665
 4551SOL    HW113985   2.608   3.102   3.679
 4551SOL    HW213986   2.462   3.054   3.624
 4552SOL     OW13987   2.197   3.297   2.923
 4552SOL    HW113988   2.119   3.266   2.870
 4552SOL    HW213989   2.255   3.355   2.866
 4553SOL     OW13990   3.322   3.367   3.201
 4553SOL    HW113991   3.346   3.461   3.227
 4553SOL    HW213992   3.306   3.313   3.283
 4554SOL     OW13993   3.465   2.309   2.599
 4554SOL    HW113994   3.391   2.355   2.549
 4554SOL    HW213995   3.516   2.377   2.652
 4555SOL     OW13996   2.093   3.575   2.345
 4555SOL    HW113997   2.127   3.652   2.399
 4555SOL    HW213998   2.137   3.575   2.255
 4556SOL     OW13999   2.989   3.203   3.552
 4556SOL    HW114000   3.036   3.203   3.640
 4556SOL    HW214001   2.941   3.116   3.541
 4557SOL     OW14002   2.092   3.296   2.400
 4557SOL    HW114003   2.066   3.392   2.400
 4557SOL    HW214004   2.021   3.242   2.445
 4558SOL     OW14005   2.102   2.953   2.748
 4558SOL    HW114006   2.116   2.869   2.800
 4558SOL    HW214007   2.047   3.017   2.803
 4559SOL     OW14008   2.482   3.648   3.301
 4559SOL    HW114009   2.390   3.631   3.336
 4559SOL    HW214010   2.510   3.740   3.327
 4560SOL     OW14011   2.468   2.826   1.985
 4560SOL    HW114012   2.475   2.910   1.931
 4560SOL    HW214013   2.514   2.839   2.073
 4561SOL     OW14014   3.456   1.976   3.342
 4561SOL    HW114015   3.438   2.043   3.270
 4561SOL    HW214016   3.453   2.022   3.431
 4562SOL     OW14017   1.984   2.505   2.425
 4562SOL    HW114018   1.939   2.417   2.442
 4562SOL    HW214019   1.983   2.559   2.509
 4563SOL     OW14020   3.704   3.629   2.221
 4563SOL    HW114021   3.758   3.600   2.301
 4563SOL    HW214022   3.734   3.719   2.192
 4564SOL     OW14023   1.889   3.458   1.979
 4564SOL    HW114024   1.870   3.362   2.000
 4564SOL    HW214025   1.856   3.516   2.054
 4565SOL     OW14026   3.551   2.784   2.474
 4565SOL    HW114027   3.646   2.755   2.482
 4565SOL    HW214028   3.543   2.849   2.399
 4566SOL     OW14029   3.503   2.970   2.294
 4566SOL    HW114030   3.589   2.972   2.242
 4566SOL    HW214031   3.517   3.017   2.382
 4567SOL     OW14032   1.975   2.599   3.459
 4567SOL    HW114033   2.063   2.586   3.504
 4567SOL    HW214034   1.962   2.696   3.437
 4568SOL     OW14035   2.475   3.227   2.588
 4568SOL    HW114036   2.426   3.140   2.597
 4568SOL    HW214037   2.452   3.270   2.501
 4569SOL     OW14038   3.155   3.090   3.285
 4569SOL    HW114039   3.192   3.017   3.227
 4569SOL    HW214040   3.207   3.095   3.370
 4570SOL     OW14041   2.671   1.866   2.364
 4570SOL    HW114042   2.711   1.957   2.355
 4570SOL    HW214043   2.571   1.874   2.370
 4571SOL     OW14044   2.059   2.838   3.126
 4571SOL    HW114045   2.148   2.793   3.112
 4571SOL    HW214046   1.986   2.773   3.107
 4572SOL     OW14047   3.387   2.861   2.052
 4572SOL    HW114048   3.324   2.785   2.065
 4572SOL    HW214049   3.435   2.879   2.138
 4573SOL     OW14050   3.049   3.654   3.478
 4573SOL    HW114051   3.073   3.714   3.402
 4573SOL    HW214052   3.056   3.559   3.448
 4574SOL     OW14053   3.328   3.279   2.815
 4574SOL    HW114054   3.269   3.285   2.895
 4574SOL    HW214055   3.313   3.191   2.769
 4575SOL     OW14056   3.529   3.576   2.434
 4575SOL    HW114057   3.488   3.553   2.346
 4575SOL    HW214058   3.511   3.502   2.499
 4576SOL     OW14059   2.460   2.591   2.132
 4576SOL    HW114060   2.484   2.660   2.064
 4576SOL    HW214061   2.382   2.624   2.186
 4577SOL     OW14062   3.143   2.207   2.806
 4577SOL    HW114063   3.057   2.157   2.793
 4577SOL    HW214064   3.205   2.153   2.862
 4578SOL     OW14065   3.438   3.524   2.169
 4578SOL    HW114066   3.527   3.570   2.172
 4578SOL    HW214067   3.417   3.500   2.074
 4579SOL     OW14068   2.669   2.467   3.327
 4579SOL    HW114069   2.622   2.464   3.416
 4579SOL    HW214070   2.618   2.412   3.261
 4580SOL     OW14071   3.256   2.331   3.536
 4580SOL    HW114072   3.236   2.374   3.624
 4580SOL    HW214073   3.334   2.269   3.545
 4581SOL     OW14074   2.835   2.752   3.434
 4581SOL    HW114075   2.881   2.668   3.405
 4581SOL    HW214076   2.779   2.786   3.359
 4582SOL     OW14077   2.853   2.272   3.104
 4582SOL    HW114078   2.776   2.306   3.158
 4582SOL    HW214079   2.819   2.221   3.025
 4583SOL     OW14080   2.903   2.563   2.291
 4583SOL    HW114081   2.929   2.559   2.387
 4583SOL    HW214082   2.818   2.512   2.277
 4584SOL     OW14083   1.938   2.673   2.651
 4584SOL    HW114084   2.037   2.661   2.660
 4584SOL    HW214085   1.914   2.768   2.672
 4585SOL     OW14086   1.992   3.683   3.433
 4585SOL    HW114087   1.982   3.668   3.532
 4585SOL    HW214088   1.906   3.719   3.397
 4586SOL     OW14089   2.727   2.210   2.057
 4586SOL    HW114090   2.786   2.273   2.008
 4586SOL    HW214091   2.746   2.116   2.028
 4587SOL     OW14092   3.581   2.447   3.693
 4587SOL    HW114093   3.555   2.536   3.657
 4587SOL    HW214094   3.579   2.379   3.620
 4588SOL     OW14095   3.224   3.006   2.407
 4588SOL    HW114096   3.307   2.977   2.359
 4588SOL    HW214097   3.175   3.073   2.351
 4589SOL     OW14098   2.412   2.058   2.747
 4589SOL    HW114099   2.407   2.053   2.847
 4589SOL    HW214100   2.414   2.154   2.718
 4590SOL     OW14101   2.870   3.318   2.339
 4590SOL    HW114102   2.824   3.390   2.287
 4590SOL    HW214103   2.866   3.338   2.437
 4591SOL     OW14104   2.213   3.663   2.715
 4591SOL    HW114105   2.263   3.577   2.721
 4591SOL    HW214106   2.278   3.740   2.712
 4592SOL     OW14107   3.657   2.928   2.735
 4592SOL    HW114108   3.595   2.913   2.659
 4592SOL    HW214109   3.605   2.939   2.820
 4593SOL     OW14110   3.089   3.412   3.368
 4593SOL    HW114111   3.095   3.335   3.432
 4593SOL    HW214112   3.037   3.386   3.288
 4594SOL     OW14113   2.183   2.805   2.104
 4594SOL    HW114114   2.265   2.844   2.062
 4594SOL    HW214115   2.156   2.723   2.055
 4595SOL     OW14116   3.320   2.597   2.590
 4595SOL    HW114117   3.315   2.532   2.665
 4595SOL    HW214118   3.400   2.656   2.603
 4596SOL     OW14119   2.323   3.128   3.589
 4596SOL    HW114120   2.273   3.129   3.503
 4596SOL    HW214121   2.260   3.110   3.665
 4597SOL     OW14122   2.973   3.638   2.099
 4597SOL    HW114123   2.913   3.576   2.149
 4597SOL    HW214124   3.004   3.594   2.014
 4598SOL     OW14125   3.494   3.239   1.943
 4598SOL    HW114126   3.462   3.333   1.933
 4598SOL    HW214127   3.418   3.176   1.931
 4599SOL     OW14128   2.326   3.605   2.185
 4599SOL    HW114129   2.359   3.644   2.271
 4599SOL    HW214130   2.402   3.598   2.120
 4600SOL     OW14131   3.262   1.969   2.288
 4600SOL    HW114132   3.238   1.932   2.198
 4600SOL    HW214133   3.361   1.985   2.292
 4601SOL     OW14134   2.111   3.647   3.103
 4601SOL    HW114135   2.168   3.582   3.153
 4601SOL    HW214136   2.095   3.614   3.010
 4602SOL     OW14137   2.802   3.560   2.766
 4602SOL    HW114138   2.882   3.503   2.787
 4602SOL    HW214139   2.753   3.520   2.689
 4603SOL     OW14140   3.409   2.084   3.591
 4603SOL    HW114141   3.404   2.121   3.683
 4603SOL    HW214142   3.337   2.015   3.579
 4604SOL     OW14143   2.476   1.984   1.979
 4604SOL    HW114144   2.574   1.962   1.986
 4604SOL    HW214145   2.445   1.967   1.886
 4605SOL     OW14146   2.643   2.126   3.611
 4605SOL    HW114147   2.710   2.065   3.654
 4605SOL    HW214148   2.570   2.145   3.676
 4606SOL     OW14149   2.750   3.376   3.057
 4606SOL    HW114150   2.727   3.351   2.963
 4606SOL    HW214151   2.811   3.307   3.096
 4607SOL     OW14152   3.213   2.452   3.295
 4607SOL    HW114153   3.241   2.409   3.380
 4607SOL    HW214154   3.238   2.548   3.296
 4608SOL     OW14155   2.665   3.264   2.786
 4608SOL    HW114156   2.755   3.278   2.744
 4608SOL    HW214157   2.594   3.266   2.715
 4609SOL     OW14158   2.784   2.365   2.761
 4609SOL    HW114159   2.759   2.356   2.665
 4609SOL    HW214160   2.832   2.283   2.792
 4610SOL     OW14161   2.401   1.926   2.374
 4610SOL    HW114162   2.320   1.927   2.432
 4610SOL    HW214163   2.404   2.009   2.319
 4611SOL     OW14164   3.296   3.050   1.903
 4611SOL    HW114165   3.328   2.974   1.960
 4611SOL    HW214166   3.204   3.077   1.933
 4612SOL     OW14167   2.797   2.098   2.342
 4612SOL    HW114168   2.749   2.139   2.264
 4612SOL    HW214169   2.896   2.096   2.323
 4613SOL     OW14170   2.938   2.545   3.326
 4613SOL    HW114171   2.858   2.484   3.329
 4613SOL    HW214172   3.019   2.492   3.302
 4614SOL     OW14173   3.089   3.432   2.655
 4614SOL    HW114174   3.110   3.506   2.590
 4614SOL    HW214175   3.157   3.432   2.728
 4615SOL     OW14176   2.321   3.014   2.603
 4615SOL    HW114177   2.250   2.987   2.668
 4615SOL    HW214178   2.295   2.986   2.510
 4616SOL     OW14179   3.133   3.659   2.453
 4616SOL    HW114180   3.177   3.723   2.389
 4616SOL    HW214181   3.083   3.711   2.523
 4617SOL     OW14182   2.894   2.411   1.878
 4617SOL    HW114183   2.853   2.493   1.839
 4617SOL    HW214184   2.958   2.437   1.951
 4618SOL     OW14185   1.940   2.418   3.248
 4618SOL    HW114186   2.032   2.417   3.207
 4618SOL    HW214187   1.934   2.492   3.315
 4619SOL     OW14188   2.423   2.084   3.009
 4619SOL    HW114189   2.461   2.000   3.046
 4619SOL    HW214190   2.335   2.103   3.053
 4620SOL     OW14191   2.728   2.316   2.504
 4620SOL    HW114192   2.696   2.388   2.442
 4620SOL    HW214193   2.752   2.235   2.451
 4621SOL     OW14194   2.879   1.901   2.615
 4621SOL    HW114195   2.807   1.906   2.546
 4621SOL    HW214196   2.855   1.832   2.684
 4622SOL     OW14197   3.291   3.035   2.729
 4622SOL    HW114198   3.236   2.951   2.722
 4622SOL    HW214199   3.317   3.064   2.637
 4623SOL     OW14200   3.328   2.452   2.854
 4623SOL    HW114201   3.298   2.357   2.861
 4623SOL    HW214202   3.401   2.468   2.920
 4624SOL     OW14203   3.719   2.695   2.239
 4624SOL    HW114204   3.761   2.631   2.303
 4624SOL    HW214205   3.681   2.644   2.161
 4625SOL     OW14206   2.350   3.247   2.036
 4625SOL    HW114207   2.263   3.232   2.083
 4625SOL    HW214208   2.333   3.273   1.941
 4626SOL     OW14209   3.526   3.142   2.519
 4626SOL    HW114210   3.625   3.150   2.533
 4626SOL    HW214211   3.481   3.226   2.550
 4627SOL     OW14212   3.252   2.437   1.940
 4627SOL    HW114213   3.198   2.416   2.021
 4627SOL    HW214214   3.343   2.396   1.949
 4628SOL     OW14215   3.616   3.085   3.450
 4628SOL    HW114216   3.707   3.046   3.437
 4628SOL    HW214217   3.624   3.181   3.474
 4629SOL     OW14218   2.926   3.209   3.202
 4629SOL    HW114219   2.846   3.186   3.257
 4629SOL    HW214220   3.009   3.183   3.251
 4630SOL     OW14221   3.454   3.491   3.487
 4630SOL    HW114222   3.481   3.525   3.397
 4630SOL    HW214223   3.533   3.453   3.533
 4631SOL     OW14224   2.973   3.057   2.962
 4631SOL    HW114225   2.933   3.101   3.043
 4631SOL    HW214226   2.932   3.094   2.879
 4632SOL     OW14227   3.500   2.961   2.941
 4632SOL    HW114228   3.505   3.042   3.000
 4632SOL    HW214229   3.414   2.963   2.890
 4633SOL     OW14230   2.777   1.951   3.264
 4633SOL    HW114231   2.802   1.931   3.169
 4633SOL    HW214232   2.849   2.007   3.306
 4634SOL     OW14233   2.842   2.978   3.581
 4634SOL    HW114234   2.743   2.984   3.591
 4634SOL    HW214235   2.865   2.898   3.525
 4635SOL     OW14236   2.567   2.912   2.230
 4635SOL    HW114237   2.553   2.919   2.329
 4635SOL    HW214238   2.651   2.861   2.212
 4636SOL     OW14239   2.272   2.675   3.113
 4636SOL    HW114240   2.358   2.687   3.163
 4636SOL    HW214241   2.230   2.588   3.140
 4637SOL     OW14242   3.136   2.248   3.124
 4637SOL    HW114243   3.157   2.322   3.188
 4637SOL    HW214244   3.047   2.265   3.081
 4638SOL     OW14245   1.926   3.426   3.193
 4638SOL    HW114246   1.880   3.508   3.159
 4638SOL    HW214247   2.024   3.445   3.202
 4639SOL     OW14248   2.229   2.962   2.363
 4639SOL    HW114249   2.222   3.045   2.307
 4639SOL    HW214250   2.233   2.882   2.303
 4640SOL     OW14251   2.428   2.399   2.727
 4640SOL    HW114252   2.440   2.465   2.653
 4640SOL    HW214253   2.474   2.433   2.810
 4641SOL     OW14254   3.114   3.210   2.250
 4641SOL    HW114255   3.164   3.287   2.290
 4641SOL    HW214256   3.019   3.212   2.282
 4642SOL     OW14257   3.134   3.307   3.004
 4642SOL    HW114258   3.181   3.320   3.091
 4642SOL    HW214259   3.068   3.233   3.013
 4643SOL     OW14260   3.444   2.501   2.334
 4643SOL    HW114261   3.413   2.562   2.407
 4643SOL    HW214262   3.494   2.553   2.265
 4644SOL     OW14263   2.216   3.372   3.191
 4644SOL    HW114264   2.195   3.328   3.104
 4644SOL    HW214265   2.313   3.398   3.194
 4645SOL     OW14266   2.264   2.613   3.460
 4645SOL    HW114267   2.332   2.668   3.413
 4645SOL    HW214268   2.304   2.525   3.487
 4646SOL     OW14269   3.449   2.641   3.532
 4646SOL    HW114270   3.357   2.679   3.527
 4646SOL    HW214271   3.509   2.688   3.467
 4647SOL     OW14272   2.875   1.967   3.632
 4647SOL    HW114273   2.881   2.052   3.580
 4647SOL    HW214274   2.907   1.891   3.575
 4648SOL     OW14275   2.366   1.912   3.602
 4648SOL    HW114276   2.324   1.855   3.532
 4648SOL    HW214277   2.300   1.981   3.634
 4649SOL     OW14278   2.435   2.732   2.891
 4649SOL    HW114279   2.479   2.821   2.882
 4649SOL    HW214280   2.372   2.732   2.968
 4650SOL     OW14281   3.222   2.724   2.907
 4650SOL    HW114282   3.147   2.724   2.841
 4650SOL    HW214283   3.259   2.632   2.916
 4651SOL     OW14284   3.071   2.387   2.137
 4651SOL    HW114285   3.084   2.303   2.191
 4651SOL    HW214286   3.042   2.461   2.197
 4652SOL     OW14287   1.899   3.172   3.144
 4652SOL    HW114288   1.952   3.123   3.212
 4652SOL    HW214289   1.921   3.270   3.149
 4653SOL     OW14290   2.594   2.496   2.926
 4653SOL    HW114291   2.653   2.470   2.850
 4653SOL    HW214292   2.566   2.592   2.915
 4654SOL     OW14293   3.590   2.797   3.716
 4654SOL    HW114294   3.544   2.790   3.627
 4654SOL    HW214295   3.528   2.841   3.782
 4655SOL     OW14296   3.484   2.229   2.236
 4655SOL    HW114297   3.486   2.153   2.300
 4655SOL    HW214298   3.436   2.306   2.276
 4656SOL     OW14299   2.885   2.628   2.828
 4656SOL    HW114300   2.900   2.649   2.924
 4656SOL    HW214301   2.855   2.533   2.819
 4657SOL     OW14302   2.842   3.435   3.562
 4657SOL    HW114303   2.822   3.479   3.474
 4657SOL    HW214304   2.881   3.344   3.546
 4658SOL     OW14305   3.721   3.380   3.467
 4658SOL    HW114306   3.735   3.407   3.372
 4658SOL    HW214307   3.804   3.402   3.520
 4659SOL     OW14308   2.212   2.760   3.666
 4659SOL    HW114309   2.288   2.804   3.714
 4659SOL    HW214310   2.247   2.713   3.584
 4660SOL     OW14311   3.402   2.136   1.987
 4660SOL    HW114312   3.341   2.061   2.010
 4660SOL    HW214313   3.424   2.188   2.070
 4661SOL     OW14314   3.165   2.700   1.904
 4661SOL    HW114315   3.199   2.607   1.919
 4661SOL    HW214316   3.183   2.727   1.809
 4662SOL     OW14317   2.930   3.195   2.711
 4662SOL    HW114318   2.937   3.111   2.656
 4662SOL    HW214319   2.992   3.264   2.675
 4663SOL     OW14320   2.181   2.672   2.811
 4663SOL    HW114321   2.274   2.708   2.816
 4663SOL    HW214322   2.175   2.587   2.863
 4664SOL     OW14323   3.000   2.242   3.540
 4664SOL    HW114324   2.955   2.305   3.604
 4664SOL    HW214325   3.093   2.273   3.523
 4665SOL     OW14326   3.022   2.069   3.339
 4665SOL    HW114327   3.022   2.133   3.416
 4665SOL    HW214328   3.050   2.117   3.256
 4666SOL     OW14329   1.870   3.188   2.062
 4666SOL    HW114330   1.777   3.209   2.031
 4666SOL    HW214331   1.880   3.089   2.075
 4667SOL     OW14332   1.950   3.663   2.789
 4667SOL    HW114333   1.908   3.577   2.762
 4667SOL    HW214334   2.044   3.666   2.755
 4668SOL     OW14335   2.366   3.430   2.772
 4668SOL    HW114336   2.432   3.504   2.781
 4668SOL    HW214337   2.410   3.351   2.730
 4669SOL     OW14338   2.864   2.658   3.100
 4669SOL    HW114339   2.905   2.626   3.186
 4669SOL    HW214340   2.768   2.631   3.097
 4670SOL     OW14341   1.902   2.406   2.976
 4670SOL    HW114342   1.987   2.373   2.935
 4670SOL    HW214343   1.915   2.421   3.074
 4671SOL     OW14344   3.231   2.812   3.522
 4671SOL    HW114345   3.270   2.901   3.542
 4671SOL    HW214346   3.241   2.792   3.425
 4672SOL     OW14347   2.677   2.434   2.187
 4672SOL    HW114348   2.684   2.345   2.141
 4672SOL    HW214349   2.583   2.468   2.179
 4673SOL     OW14350   3.519   2.466   3.068
 4673SOL    HW114351   3.481   2.397   3.130
 4673SOL    HW214352   3.601   2.430   3.024
 4674SOL     OW14353   2.114   3.426   3.606
 4674SOL    HW114354   2.084   3.483   3.682
 4674SOL    HW214355   2.107   3.329   3.632
 4675SOL     OW14356   2.792   3.540   3.327
 4675SOL    HW114357   2.768   3.522   3.232
 4675SOL    HW214358   2.822   3.634   3.337
 4676SOL     OW14359   2.021   2.999   3.328
 4676SOL    HW114360   2.043   2.938   3.404
 4676SOL    HW214361   2.031   2.950   3.242
 4677SOL     OW14362   3.209   2.921   3.096
 4677SOL    HW114363   3.233   2.858   3.022
 4677SOL    HW214364   3.119   2.961   3.078
 4678SOL     OW14365   3.164   2.717   2.171
 4678SOL    HW114366   3.078   2.686   2.213
 4678SOL    HW214367   3.160   2.703   2.072
 4679SOL     OW14368   3.621   3.609   3.016
 4679SOL    HW114369   3.682   3.639   2.943
 4679SOL    HW214370   3.583   3.520   2.994
 4680SOL     OW14371   3.114   3.593   2.990
 4680SOL    HW114372   3.198   3.598   2.936
 4680SOL    HW214373   3.091   3.497   3.008
 4681SOL     OW14374   1.945   3.120   2.884
 4681SOL    HW114375   1.940   3.119   2.984
 4681SOL    HW214376   1.862   3.079   2.846
 4682SOL     OW14377   2.550   3.524   3.578
 4682SOL    HW114378   2.494   3.605   3.587
 4682SOL    HW214379   2.602   3.528   3.492
 4683SOL     OW14380   3.588   1.997   2.385
 4683SOL    HW114381   3.661   1.980   2.318
 4683SOL    HW214382   3.557   1.910   2.423
 4684SOL     OW14383   3.250   3.435   2.339
 4684SOL    HW114384   3.317   3.447   2.265
 4684SOL    HW214385   3.210   3.524   2.362
 4685SOL     OW14386   1.992   3.656   3.713
 4685SOL    HW114387   1.951   3.582   3.766
 4685SOL    HW214388   2.056   3.707   3.771
 4686SOL     OW14389   3.142   2.789   2.534
 4686SOL    HW114390   3.202   2.708   2.536
 4686SOL    HW214391   3.182   2.858   2.474
 4687SOL     OW14392   2.692   3.135   3.284
 4687SOL    HW114393   2.687   3.168   3.379
 4687SOL    HW214394   2.606   3.154   3.238
 4688SOL     OW14395   2.534   3.478   2.016
 4688SOL    HW114396   2.543   3.488   1.917
 4688SOL    HW214397   2.494   3.389   2.037
 4689SOL     OW14398   3.512   3.582   3.256
 4689SOL    HW114399   3.565   3.592   3.172
 4689SOL    HW214400   3.485   3.672   3.290
 4690SOL     OW14401   3.703   2.037   2.825
 4690SOL    HW114402   3.742   1.952   2.789
 4690SOL    HW214403   3.605   2.039   2.806
 4691SOL     OW14404   3.056   3.474   1.893
 4691SOL    HW114405   3.062   3.381   1.930
 4691SOL    HW214406   2.997   3.474   1.813
 4692SOL     OW14407   2.684   2.864   3.234
 4692SOL    HW114408   2.724   2.863   3.142
 4692SOL    HW214409   2.694   2.956   3.274
 4693SOL     OW14410   2.778   2.772   2.153
 4693SOL    HW114411   2.841   2.810   2.085
 4693SOL    HW214412   2.818   2.689   2.192
 4694SOL     OW14413   3.366   3.469   1.906
 4694SOL    HW114414   3.274   3.506   1.913
 4694SOL    HW214415   3.404   3.489   1.816
 4695SOL     OW14416   2.234   3.150   3.352
 4695SOL    HW114417   2.221   3.243   3.318
 4695SOL    HW214418   2.150   3.098   3.339
 4696SOL     OW14419   3.476   3.154   3.151
 4696SOL    HW114420   3.536   3.157   3.231
 4696SOL    HW214421   3.401   3.218   3.164
 4697SOL     OW14422   2.901   2.960   2.558
 4697SOL    HW114423   2.831   2.913   2.612
 4697SOL    HW214424   2.960   2.892   2.515
 4698SOL     OW14425   2.876   2.098   2.833
 4698SOL    HW114426   2.868   2.062   2.740
 4698SOL    HW214427   2.874   2.022   2.898
 4699SOL     OW14428   2.452   3.349   2.353
 4699SOL    HW114429   2.494   3.291   2.283
 4699SOL    HW214430   2.408   3.428   2.309
 4700SOL     OW14431   3.571   2.247   3.243
 4700SOL    HW114432   3.644   2.316   3.247
 4700SOL    HW214433   3.599   2.172   3.184
 4701SOL     OW14434   2.117   3.210   2.152
 4701SOL    HW114435   2.021   3.211   2.125
 4701SOL    HW214436   2.129   3.263   2.236
 4702SOL     OW14437   1.967   2.875   3.588
 4702SOL    HW114438   1.890   2.842   3.642
 4702SOL    HW214439   2.052   2.845   3.630
 4703SOL     OW14440   2.534   2.065   3.351
 4703SOL    HW114441   2.624   2.049   3.311
 4703SOL    HW214442   2.542   2.070   3.450
 4704SOL     OW14443   1.937   2.207   1.895
 4704SOL    HW114444   1.845   2.179   1.866
 4704SOL    HW214445   1.968   2.284   1.839
 4705SOL     OW14446   3.302   2.718   3.260
 4705SOL    HW114447   3.245   2.770   3.197
 4705SOL    HW214448   3.398   2.730   3.236
 4706SOL     OW14449   1.934   2.028   2.180
 4706SOL    HW114450   1.917   2.111   2.126
 4706SOL    HW214451   2.024   1.991   2.158
 4707SOL     OW14452   3.045   3.197   1.981
 4707SOL    HW114453   2.946   3.186   1.983
 4707SOL    HW214454   3.079   3.212   2.074
 4708SOL     OW14455   2.475   2.704   3.293
 4708SOL    HW114456   2.531   2.785   3.276
 4708SOL    HW214457   2.534   2.624   3.296
 4709SOL     OW14458   3.355   3.629   2.821
 4709SOL    HW114459   3.388   3.693   2.752
 4709SOL    HW214460   3.421   3.623   2.896
 4710SOL     OW14461   2.578   2.427   3.570
 4710SOL    HW114462   2.597   2.492   3.644
 4710SOL    HW214463   2.638   2.347   3.579
 4711SOL     OW14464   3.312   3.082   3.495
 4711SOL    HW114465   3.303   3.072   3.594
 4711SOL    HW214466   3.408   3.075   3.469
 4712SOL     OW14467   2.252   3.603   3.422
 4712SOL    HW114468   2.161   3.644   3.420
 4712SOL    HW214469   2.245   3.509   3.454
 4713SOL     OW14470   3.536   2.745   3.116
 4713SOL    HW114471   3.509   2.656   3.079
 4713SOL    HW214472   3.537   2.813   3.043
 4714SOL     OW14473   3.087   2.187   2.311
 4714SOL    HW114474   3.152   2.113   2.300
 4714SOL    HW214475   3.107   2.237   2.395
 4715SOL     OW14476   2.456   2.607   2.514
 4715SOL    HW114477   2.506   2.692   2.495
 4715SOL    HW214478   2.368   2.609   2.466
 4716SOL     OW14479   3.639   2.204   3.504
 4716SOL    HW114480   3.622   2.235   3.410
 4716SOL    HW214481   3.555   2.167   3.542
 4717SOL     OW14482   3.592   2.796   3.379
 4717SOL    HW114483   3.630   2.887   3.394
 4717SOL    HW214484   3.584   2.779   3.280
 4718SOL     OW14485   2.721   3.236   1.878
 4718SOL    HW114486   2.675   3.251   1.966
 4718SOL    HW214487   2.765   3.321   1.848
 4719SOL     OW14488   2.523   3.652   2.815
 4719SOL    HW114489   2.477   3.740   2.802
 4719SOL    HW214490   2.622   3.664   2.808
 4720SOL     OW14491   2.721   2.818   2.723
 4720SOL    HW114492   2.775   2.749   2.771
 4720SOL    HW214493   2.689   2.887   2.789
 4721SOL     OW14494   2.945   2.846   1.949
 4721SOL    HW114495   2.922   2.899   1.867
 4721SOL    HW214496   3.026   2.790   1.930
 4722SOL     OW14497   3.723   3.431   2.713
 4722SOL    HW114498   3.652   3.419   2.643
 4722SOL    HW214499   3.724   3.352   2.773
 4723SOL     OW14500   2.083   3.176   3.706
 4723SOL    HW114501   2.018   3.103   3.685
 4723SOL    HW214502   2.087   3.190   3.804
 4724SOL     OW14503   1.941   3.102   2.515
 4724SOL    HW114504   1.940   3.055   2.603
 4724SOL    HW214505   2.023   3.074   2.464
 4725SOL     OW14506   2.534   3.253   3.486
 4725SOL    HW114507   2.456   3.203   3.524
 4725SOL    HW214508   2.531   3.348   3.517
 4726SOL     OW14509   3.686   2.054   3.089
 4726SOL    HW114510   3.682   1.964   3.133
 4726SOL    HW214511   3.689   2.043   2.990
 4727SOL     OW14512   3.567   3.349   2.966
 4727SOL    HW114513   3.474   3.324   2.939
 4727SOL    HW214514   3.593   3.299   3.048
 4728SOL     OW14515   2.674   3.448   2.549
 4728SOL    HW114516   2.706   3.458   2.455
 4728SOL    HW214517   2.595   3.386   2.551
 4729SOL     OW14518   3.286   2.076   2.974
 4729SOL    HW114519   3.338   2.011   3.029
 4729SOL    HW214520   3.237   2.139   3.035
 4730SOL     OW14521   2.863   1.896   3.016
 4730SOL    HW114522   2.800   1.824   2.985
 4730SOL    HW214523   2.956   1.860   3.016
 4731SOL     OW14524   2.632   3.192   2.163
 4731SOL    HW114525   2.586   3.105   2.180
 4731SOL    HW214526   2.723   3.189   2.204
 4732SOL     OW14527   2.480   3.429   3.146
 4732SOL    HW114528   2.475   3.511   3.203
 4732SOL    HW214529   2.569   3.426   3.101
 4733SOL     OW14530   3.214   1.914   2.030
 4733SOL    HW114531   3.249   1.873   1.946
 4733SOL    HW214532   3.124   1.876   2.050
 4734SOL     OW14533   3.162   2.315   2.553
 4734SOL    HW114534   3.103   2.395   2.557
 4734SOL    HW214535   3.177   2.280   2.646
 4735SOL     OW14536   3.455   2.083   2.744
 4735SOL    HW114537   3.371   2.082   2.798
 4735SOL    HW214538   3.457   2.166   2.688
 4736SOL     OW14539   1.901   2.939   2.162
 4736SOL    HW114540   2.000   2.928   2.153
 4736SOL    HW214541   1.861   2.853   2.194
 4737SOL     OW14542   2.737   3.508   2.199
 4737SOL    HW114543   2.660   3.473   2.145
 4737SOL    HW214544   2.705   3.579   2.261
 4738SOL     OW14545   2.092   2.490   3.837
 4738SOL    HW114546   1.999   2.488   3.874
 4738SOL    HW214547   2.093   2.451   3.745
 4739SOL     OW14548   1.881   2.230   4.371
 4739SOL    HW114549   1.799   2.273   4.410
 4739SOL    HW214550   1.853   2.157   4.308
 4740SOL     OW14551   2.431   3.137   4.889
 4740SOL    HW114552   2.338   3.130   4.852
 4740SOL    HW214553   2.442   3.226   4.933
 4741SOL     OW14554   3.417   3.373   4.427
 4741SOL    HW114555   3.360   3.357   4.508
 4741SOL    HW214556   3.358   3.383   4.347
 4742SOL     OW14557   2.997   2.565   4.441
 4742SOL    HW114558   3.054   2.643   4.416
 4742SOL    HW214559   2.937   2.591   4.517
 4743SOL     OW14560   3.617   2.469   3.955
 4743SOL    HW114561   3.605   2.456   3.856
 4743SOL    HW214562   3.587   2.388   4.004
 4744SOL     OW14563   2.630   3.006   4.747
 4744SOL    HW114564   2.552   3.023   4.807
 4744SOL    HW214565   2.664   3.093   4.711
 4745SOL     OW14566   2.547   2.874   4.389
 4745SOL    HW114567   2.616   2.858   4.459
 4745SOL    HW214568   2.474   2.931   4.427
 4746SOL     OW14569   2.548   3.023   5.527
 4746SOL    HW114570   2.608   3.102   5.541
 4746SOL    HW214571   2.462   3.054   5.486
 4747SOL     OW14572   2.197   3.297   4.785
 4747SOL    HW114573   2.119   3.266   4.732
 4747SOL    HW214574   2.255   3.355   4.728
 4748SOL     OW14575   3.322   3.367   5.063
 4748SOL    HW114576   3.346   3.461   5.089
 4748SOL    HW214577   3.306   3.313   5.145
 4749SOL     OW14578   3.465   2.309   4.461
 4749SOL    HW114579   3.391   2.355   4.411
 4749SOL    HW214580   3.516   2.377   4.514
 4750SOL     OW14581   2.093   3.575   4.207
 4750SOL    HW114582   2.127   3.652   4.261
 4750SOL    HW214583   2.137   3.575   4.117
 4751SOL     OW14584   2.989   3.203   5.414
 4751SOL    HW114585   3.036   3.203   5.502
 4751SOL    HW214586   2.941   3.116   5.403
 4752SOL     OW14587   2.092   3.296   4.262
 4752SOL    HW114588   2.066   3.392   4.262
 4752SOL    HW214589   2.021   3.242   4.307
 4753SOL     OW14590   2.102   2.953   4.610
 4753SOL    HW114591   2.116   2.869   4.662
 4753SOL    HW214592   2.047   3.017   4.665
 4754SOL     OW14593   2.482   3.648   5.163
 4754SOL    HW114594   2.390   3.631   5.198
 4754SOL    HW214595   2.510   3.740   5.189
 4755SOL     OW14596   2.468   2.826   3.847
 4755SOL    HW114597   2.475   2.910   3.793
 4755SOL    HW214598   2.514   2.839   3.935
 4756SOL     OW14599   3.456   1.976   5.204
 4756SOL    HW114600   3.438   2.043   5.132
 4756SOL    HW214601   3.453   2.022   5.293
 4757SOL     OW14602   1.984   2.505   4.287
 4757SOL    HW114603   1.939   2.417   4.304
 4757SOL    HW214604   1.983   2.559   4.371
 4758SOL     OW14605   3.704   3.629   4.083
 4758SOL    HW114606   3.758   3.600   4.163
 4758SOL    HW214607   3.734   3.719   4.054
 4759SOL     OW14608   1.889   3.458   3.841
 4759SOL    HW114609   1.870   3.362   3.862
 4759SOL    HW214610   1.856   3.516   3.916
 4760SOL     OW14611   3.551   2.784   4.336
 4760SOL    HW114612   3.646   2.755   4.344
 4760SOL    HW214613   3.543   2.849   4.261
 4761SOL     OW14614   3.503   2.970   4.156
 4761SOL    HW114615   3.589   2.972   4.104
 4761SOL    HW214616   3.517   3.017   4.244
 4762SOL     OW14617   2.475   3.227   4.450
 4762SOL    HW114618   2.426   3.140   4.459
 4762SOL    HW214619   2.452   3.270   4.363
 4763SOL     OW14620   3.155   3.090   5.147
 4763SOL    HW114621   3.192   3.017   5.089
 4763SOL    HW214622   3.207   3.095   5.232
 4764SOL     OW14623   2.671   1.866   4.226
 4764SOL    HW114624   2.711   1.957   4.217
 4764SOL    HW214625   2.571   1.874   4.232
 4765SOL     OW14626   2.059   2.838   4.988
 4765SOL    HW114627   2.148   2.793   4.974
 4765SOL    HW214628   1.986   2.773   4.969
 4766SOL     OW14629   3.387   2.861   3.914
 4766SOL    HW114630   3.324   2.785   3.927
 4766SOL    HW214631   3.435   2.879   4.000
 4767SOL     OW14632   3.049   3.654   5.340
 4767SOL    HW114633   3.073   3.714   5.264
 4767SOL    HW214634   3.056   3.559   5.310
 4768SOL     OW14635   3.328   3.279   4.677
 4768SOL    HW114636   3.269   3.285   4.757
 4768SOL    HW214637   3.313   3.191   4.631
 4769SOL     OW14638   3.529   3.576   4.296
 4769SOL    HW114639   3.488   3.553   4.208
 4769SOL    HW214640   3.511   3.502   4.361
 4770SOL     OW14641   2.460   2.591   3.994
 4770SOL    HW114642   2.484   2.660   3.926
 4770SOL    HW214643   2.382   2.624   4.048
 4771SOL     OW14644   3.143   2.207   4.668
 4771SOL    HW114645   3.057   2.157   4.655
 4771SOL    HW214646   3.205   2.153   4.724
 4772SOL     OW14647   3.438   3.524   4.031
 4772SOL    HW114648   3.527   3.570   4.034
 4772SOL    HW214649   3.417   3.500   3.936
 4773SOL     OW14650   3.256   2.331   5.398
 4773SOL    HW114651   3.236   2.374   5.486
 4773SOL    HW214652   3.334   2.269   5.407
 4774SOL     OW14653   2.835   2.752   5.296
 4774SOL    HW114654   2.881   2.668   5.267
 4774SOL    HW214655   2.779   2.786   5.221
 4775SOL     OW14656   2.853   2.272   4.966
 4775SOL    HW114657   2.776   2.306   5.020
 4775SOL    HW214658   2.819   2.221   4.887
 4776SOL     OW14659   2.903   2.563   4.153
 4776SOL    HW114660   2.929   2.559   4.249
 4776SOL    HW214661   2.818   2.512   4.139
 4777SOL     OW14662   1.938   2.673   4.513
 4777SOL    HW114663   2.037   2.661   4.522
 4777SOL    HW214664   1.914   2.768   4.534
 4778SOL     OW14665   1.992   3.683   5.295
 4778SOL    HW114666   1.982   3.668   5.394
 4778SOL    HW214667   1.906   3.719   5.259
 4779SOL     OW14668   2.727   2.210   3.919
 4779SOL    HW114669   2.786   2.273   3.870
 4779SOL    HW214670   2.746   2.116   3.890
 4780SOL     OW14671   3.581   2.447   5.555
 4780SOL    HW114672   3.555   2.536   5.519
 4780SOL    HW214673   3.579   2.379   5.482
 4781SOL     OW14674   3.224   3.006   4.269
 4781SOL    HW114675   3.307   2.977   4.221
 4781SOL    HW214676   3.175   3.073   4.213
 4782SOL     OW14677   2.870   3.318   4.201
 4782SOL    HW114678   2.824   3.390   4.149
 4782SOL    HW214679   2.866   3.338   4.299
 4783SOL     OW14680   2.213   3.663   4.577
 4783SOL    HW114681   2.263   3.577   4.583
 4783SOL    HW214682   2.278   3.740   4.574
 4784SOL     OW14683   3.657   2.928   4.597
 4784SOL    HW114684   3.595   2.913   4.521
 4784SOL    HW214685   3.605   2.939   4.682
 4785SOL     OW14686   3.089   3.412   5.230
 4785SOL    HW114687   3.095   3.335   5.294
 4785SOL    HW214688   3.037   3.386   5.150
 4786SOL     OW14689   2.183   2.805   3.966
 4786SOL    HW114690   2.265   2.844   3.924
 4786SOL    HW214691   2.156   2.723   3.917
 4787SOL     OW14692   3.320   2.597   4.452
 4787SOL    HW114693   3.315   2.532   4.527
 4787SOL    HW214694   3.400   2.656   4.465
 4788SOL     OW14695   2.323   3.128   5.451
 4788SOL    HW114696   2.273   3.129   5.365
 4788SOL    HW214697   2.260   3.110   5.527
 4789SOL     OW14698   2.973   3.638   3.961
 4789SOL    HW114699   2.913   3.576   4.011
 4789SOL    HW214700   3.004   3.594   3.876
 4790SOL     OW14701   2.064   2.147   5.222
 4790SOL    HW114702   1.984   2.207   5.209
 4790SOL    HW214703   2.054   2.098   5.308
 4791SOL     OW14704   3.494   3.239   3.805
 4791SOL    HW114705   3.462   3.333   3.795
 4791SOL    HW214706   3.418   3.176   3.793
 4792SOL     OW14707   2.326   3.605   4.047
 4792SOL    HW114708   2.359   3.644   4.133
 4792SOL    HW214709   2.402   3.598   3.982
 4793SOL     OW14710   3.262   1.969   4.150
 4793SOL    HW114711   3.238   1.932   4.060
 4793SOL    HW214712   3.361   1.985   4.154
 4794SOL     OW14713   2.111   3.647   4.965
 4794SOL    HW114714   2.168   3.582   5.015
 4794SOL    HW214715   2.095   3.614   4.872
 4795SOL     OW14716   2.802   3.560   4.628
 4795SOL    HW114717   2.882   3.503   4.649
 4795SOL    HW214718   2.753   3.520   4.551
 4796SOL     OW14719   2.244   2.562   4.204
 4796SOL    HW114720   2.289   2.472   4.201
 4796SOL    HW214721   2.150   2.551   4.237
 4797SOL     OW14722   3.409   2.084   5.453
 4797SOL    HW114723   3.404   2.121   5.545
 4797SOL    HW214724   3.337   2.015   5.441
 4798SOL     OW14725   2.476   1.984   3.841
 4798SOL    HW114726   2.574   1.962   3.848
 4798SOL    HW214727   2.445   1.967   3.748
 4799SOL     OW14728   2.750   3.376   4.919
 4799SOL    HW114729   2.727   3.351   4.825
 4799SOL    HW214730   2.811   3.307   4.958
 4800SOL     OW14731   3.213   2.452   5.157
 4800SOL    HW114732   3.241   2.409   5.242
 4800SOL    HW214733   3.238   2.548   5.158
 4801SOL     OW14734   2.665   3.264   4.648
 4801SOL    HW114735   2.755   3.278   4.606
 4801SOL    HW214736   2.594   3.266   4.577
 4802SOL     OW14737   2.784   2.365   4.623
 4802SOL    HW114738   2.759   2.356   4.527
 4802SOL    HW214739   2.832   2.283   4.654
 4803SOL     OW14740   2.401   1.926   4.236
 4803SOL    HW114741   2.320   1.927   4.294
 4803SOL    HW214742   2.404   2.009   4.181
 4804SOL     OW14743   3.296   3.050   3.765
 4804SOL    HW114744   3.328   2.974   3.822
 4804SOL    HW214745   3.204   3.077   3.795
 4805SOL     OW14746   2.159   1.897   3.895
 4805SOL    HW114747   2.208   1.981   3.874
 4805SOL    HW214748   2.221   1.832   3.940
 4806SOL     OW14749   2.797   2.098   4.204
 4806SOL    HW114750   2.749   2.139   4.126
 4806SOL    HW214751   2.896   2.096   4.185
 4807SOL     OW14752   2.938   2.545   5.188
 4807SOL    HW114753   2.858   2.484   5.191
 4807SOL    HW214754   3.019   2.492   5.164
 4808SOL     OW14755   3.089   3.432   4.517
 4808SOL    HW114756   3.110   3.506   4.452
 4808SOL    HW214757   3.157   3.432   4.590
 4809SOL     OW14758   2.321   3.014   4.465
 4809SOL    HW114759   2.250   2.987   4.530
 4809SOL    HW214760   2.295   2.986   4.372
 4810SOL     OW14761   3.133   3.659   4.315
 4810SOL    HW114762   3.177   3.723   4.251
 4810SOL    HW214763   3.083   3.711   4.385
 4811SOL     OW14764   2.894   2.411   3.740
 4811SOL    HW114765   2.853   2.493   3.701
 4811SOL    HW214766   2.958   2.437   3.813
 4812SOL     OW14767   1.940   2.418   5.110
 4812SOL    HW114768   2.032   2.417   5.069
 4812SOL    HW214769   1.934   2.492   5.177
 4813SOL     OW14770   2.423   2.084   4.871
 4813SOL    HW114771   2.461   2.000   4.908
 4813SOL    HW214772   2.335   2.103   4.915
 4814SOL     OW14773   2.728   2.316   4.366
 4814SOL    HW114774   2.696   2.388   4.304
 4814SOL    HW214775   2.752   2.235   4.313
 4815SOL     OW14776   2.879   1.901   4.477
 4815SOL    HW114777   2.807   1.906   4.408
 4815SOL    HW214778   2.855   1.832   4.546
 4816SOL     OW14779   3.291   3.035   4.591
 4816SOL    HW114780   3.236   2.951   4.584
 4816SOL    HW214781   3.317   3.064   4.499
 4817SOL     OW14782   3.328   2.452   4.716
 4817SOL    HW114783   3.298   2.357   4.723
 4817SOL    HW214784   3.401   2.468   4.782
 4818SOL     OW14785   3.719   2.695   4.101
 4818SOL    HW114786   3.761   2.631   4.165
 4818SOL    HW214787   3.681   2.644   4.023
 4819SOL     OW14788   2.350   3.247   3.898
 4819SOL    HW114789   2.263   3.232   3.945
 4819SOL    HW214790   2.333   3.273   3.803
 4820SOL     OW14791   3.526   3.142   4.381
 4820SOL    HW114792   3.625   3.150   4.395
 4820SOL    HW214793   3.481   3.226   4.412
 4821SOL     OW14794   3.252   2.437   3.802
 4821SOL    HW114795   3.198   2.416   3.883
 4821SOL    HW214796   3.343   2.396   3.811
 4822SOL     OW14797   2.389   2.118   4.052
 4822SOL    HW114798   2.416   2.059   3.977
 4822SOL    HW214799   2.389   2.213   4.021
 4823SOL     OW14800   3.616   3.085   5.312
 4823SOL    HW114801   3.707   3.046   5.299
 4823SOL    HW214802   3.624   3.181   5.336
 4824SOL     OW14803   2.926   3.209   5.064
 4824SOL    HW114804   2.846   3.186   5.119
 4824SOL    HW214805   3.009   3.183   5.113
 4825SOL     OW14806   3.454   3.491   5.349
 4825SOL    HW114807   3.481   3.525   5.259
 4825SOL    HW214808   3.533   3.453   5.395
 4826SOL     OW14809   2.973   3.057   4.824
 4826SOL    HW114810   2.933   3.101   4.905
 4826SOL    HW214811   2.932   3.094   4.741
 4827SOL     OW14812   3.500   2.961   4.803
 4827SOL    HW114813   3.505   3.042   4.862
 4827SOL    HW214814   3.414   2.963   4.752
 4828SOL     OW14815   2.777   1.951   5.126
 4828SOL    HW114816   2.802   1.931   5.031
 4828SOL    HW214817   2.849   2.007   5.168
 4829SOL     OW14818   2.842   2.978   5.443
 4829SOL    HW114819   2.743   2.984   5.453
 4829SOL    HW214820   2.865   2.898   5.387
 4830SOL     OW14821   2.567   2.912   4.092
 4830SOL    HW114822   2.553   2.919   4.191
 4830SOL    HW214823   2.651   2.861   4.074
 4831SOL     OW14824   2.272   2.675   4.975
 4831SOL    HW114825   2.358   2.687   5.025
 4831SOL    HW214826   2.230   2.588   5.002
 4832SOL     OW14827   3.136   2.248   4.986
 4832SOL    HW114828   3.157   2.322   5.050
 4832SOL    HW214829   3.047   2.265   4.943
 4833SOL     OW14830   1.926   3.426   5.055
 4833SOL    HW114831   1.880   3.508   5.021
 4833SOL    HW214832   2.024   3.445   5.064
 4834SOL     OW14833   2.229   2.962   4.225
 4834SOL    HW114834   2.222   3.045   4.169
 4834SOL    HW214835   2.233   2.882   4.165
 4835SOL     OW14836   3.114   3.210   4.112
 4835SOL    HW114837   3.164   3.287   4.152
 4835SOL    HW214838   3.019   3.212   4.144
 4836SOL     OW14839   3.134   3.307   4.866
 4836SOL    HW114840   3.181   3.320   4.953
 4836SOL    HW214841   3.068   3.233   4.875
 4837SOL     OW14842   3.444   2.501   4.196
 4837SOL    HW114843   3.413   2.562   4.269
 4837SOL    HW214844   3.494   2.553   4.127
 4838SOL     OW14845   2.216   3.372   5.053
 4838SOL    HW114846   2.195   3.328   4.966
 4838SOL    HW214847   2.313   3.398   5.056
 4839SOL     OW14848   3.449   2.641   5.394
 4839SOL    HW114849   3.357   2.679   5.389
 4839SOL    HW214850   3.509   2.688   5.329
 4840SOL     OW14851   2.435   2.732   4.753
 4840SOL    HW114852   2.479   2.821   4.744
 4840SOL    HW214853   2.372   2.732   4.830
 4841SOL     OW14854   3.222   2.724   4.769
 4841SOL    HW114855   3.147   2.724   4.703
 4841SOL    HW214856   3.259   2.632   4.778
 4842SOL     OW14857   3.071   2.387   3.999
 4842SOL    HW114858   3.084   2.303   4.053
 4842SOL    HW214859   3.042   2.461   4.059
 4843SOL     OW14860   1.899   3.172   5.006
 4843SOL    HW114861   1.952   3.123   5.074
 4843SOL    HW214862   1.921   3.270   5.011
 4844SOL     OW14863   2.594   2.496   4.788
 4844SOL    HW114864   2.653   2.470   4.712
 4844SOL    HW214865   2.566   2.592   4.777
 4845SOL     OW14866   3.590   2.797   5.578
 4845SOL    HW114867   3.544   2.790   5.489
 4845SOL    HW214868   3.528   2.841   5.644
 4846SOL     OW14869   2.169   1.925   4.342
 4846SOL    HW114870   2.158   2.019   4.375
 4846SOL    HW214871   2.164   1.862   4.419
 4847SOL     OW14872   3.484   2.229   4.098
 4847SOL    HW114873   3.486   2.153   4.162
 4847SOL    HW214874   3.436   2.306   4.138
 4848SOL     OW14875   2.885   2.628   4.690
 4848SOL    HW114876   2.900   2.649   4.786
 4848SOL    HW214877   2.855   2.533   4.681
 4849SOL     OW14878   2.842   3.435   5.424
 4849SOL    HW114879   2.822   3.479   5.336
 4849SOL    HW214880   2.881   3.344   5.408
 4850SOL     OW14881   3.721   3.380   5.329
 4850SOL    HW114882   3.735   3.407   5.234
 4850SOL    HW214883   3.804   3.402   5.382
 4851SOL     OW14884   3.402   2.136   3.849
 4851SOL    HW114885   3.341   2.061   3.872
 4851SOL    HW214886   3.424   2.188   3.932
 4852SOL     OW14887   3.165   2.700   3.766
 4852SOL    HW114888   3.199   2.607   3.781
 4852SOL    HW214889   3.183   2.727   3.671
 4853SOL     OW14890   2.930   3.195   4.573
 4853SOL    HW114891   2.937   3.111   4.518
 4853SOL    HW214892   2.992   3.264   4.537
 4854SOL     OW14893   2.181   2.672   4.673
 4854SOL    HW114894   2.274   2.708   4.678
 4854SOL    HW214895   2.175   2.587   4.725
 4855SOL     OW14896   3.022   2.069   5.201
 4855SOL    HW114897   3.022   2.133   5.278
 4855SOL    HW214898   3.050   2.117   5.118
 4856SOL     OW14899   1.870   3.188   3.924
 4856SOL    HW114900   1.777   3.209   3.893
 4856SOL    HW214901   1.880   3.089   3.937
 4857SOL     OW14902   1.950   3.663   4.651
 4857SOL    HW114903   1.908   3.577   4.624
 4857SOL    HW214904   2.044   3.666   4.617
 4858SOL     OW14905   2.366   3.430   4.634
 4858SOL    HW114906   2.432   3.504   4.643
 4858SOL    HW214907   2.410   3.351   4.592
 4859SOL     OW14908   2.864   2.658   4.962
 4859SOL    HW114909   2.905   2.626   5.048
 4859SOL    HW214910   2.768   2.631   4.959
 4860SOL     OW14911   1.902   2.406   4.838
 4860SOL    HW114912   1.987   2.373   4.797
 4860SOL    HW214913   1.915   2.421   4.936
 4861SOL     OW14914   3.231   2.812   5.384
 4861SOL    HW114915   3.270   2.901   5.404
 4861SOL    HW214916   3.241   2.792   5.287
 4862SOL     OW14917   2.677   2.434   4.049
 4862SOL    HW114918   2.684   2.345   4.003
 4862SOL    HW214919   2.583   2.468   4.041
 4863SOL     OW14920   3.519   2.466   4.930
 4863SOL    HW114921   3.481   2.397   4.992
 4863SOL    HW214922   3.601   2.430   4.886
 4864SOL     OW14923   2.114   3.426   5.468
 4864SOL    HW114924   2.084   3.483   5.544
 4864SOL    HW214925   2.107   3.329   5.494
 4865SOL     OW14926   2.533   2.326   4.993
 4865SOL    HW114927   2.499   2.237   4.963
 4865SOL    HW214928   2.559   2.380   4.913
 4866SOL     OW14929   2.792   3.540   5.189
 4866SOL    HW114930   2.768   3.522   5.094
 4866SOL    HW214931   2.822   3.634   5.199
 4867SOL     OW14932   2.021   2.999   5.190
 4867SOL    HW114933   2.043   2.938   5.266
 4867SOL    HW214934   2.031   2.950   5.104
 4868SOL     OW14935   3.209   2.921   4.958
 4868SOL    HW114936   3.233   2.858   4.884
 4868SOL    HW214937   3.119   2.961   4.940
 4869SOL     OW14938   3.164   2.717   4.033
 4869SOL    HW114939   3.078   2.686   4.075
 4869SOL    HW214940   3.160   2.703   3.934
 4870SOL     OW14941   3.621   3.609   4.878
 4870SOL    HW114942   3.682   3.639   4.805
 4870SOL    HW214943   3.583   3.520   4.856
 4871SOL     OW14944   3.114   3.593   4.852
 4871SOL    HW114945   3.198   3.598   4.798
 4871SOL    HW214946   3.091   3.497   4.870
 4872SOL     OW14947   1.945   3.120   4.746
 4872SOL    HW114948   1.940   3.119   4.846
 4872SOL    HW214949   1.862   3.079   4.708
 4873SOL     OW14950   2.550   3.524   5.440
 4873SOL    HW114951   2.494   3.605   5.449
 4873SOL    HW214952   2.602   3.528   5.354
 4874SOL     OW14953   3.588   1.997   4.247
 4874SOL    HW114954   3.661   1.980   4.180
 4874SOL    HW214955   3.557   1.910   4.285
 4875SOL     OW14956   3.250   3.435   4.201
 4875SOL    HW114957   3.317   3.447   4.127
 4875SOL    HW214958   3.210   3.524   4.224
 4876SOL     OW14959   1.992   3.656   5.575
 4876SOL    HW114960   1.951   3.582   5.628
 4876SOL    HW214961   2.056   3.707   5.633
 4877SOL     OW14962   3.142   2.789   4.396
 4877SOL    HW114963   3.202   2.708   4.398
 4877SOL    HW214964   3.182   2.858   4.336
 4878SOL     OW14965   2.692   3.135   5.146
 4878SOL    HW114966   2.687   3.168   5.241
 4878SOL    HW214967   2.606   3.154   5.100
 4879SOL     OW14968   2.534   3.478   3.878
 4879SOL    HW114969   2.543   3.488   3.779
 4879SOL    HW214970   2.494   3.389   3.899
 4880SOL     OW14971   3.512   3.582   5.118
 4880SOL    HW114972   3.565   3.592   5.034
 4880SOL    HW214973   3.485   3.672   5.152
 4881SOL     OW14974   3.703   2.037   4.687
 4881SOL    HW114975   3.742   1.952   4.651
 4881SOL    HW214976   3.605   2.039   4.668
 4882SOL     OW14977   3.056   3.474   3.755
 4882SOL    HW114978   3.062   3.381   3.792
 4882SOL    HW214979   2.997   3.474   3.675
 4883SOL     OW14980   2.684   2.864   5.096
 4883SOL    HW114981   2.724   2.863   5.004
 4883SOL    HW214982   2.694   2.956   5.136
 4884SOL     OW14983   2.778   2.772   4.015
 4884SOL    HW114984   2.841   2.810   3.947
 4884SOL    HW214985   2.818   2.689   4.054
 4885SOL     OW14986   3.366   3.469   3.768
 4885SOL    HW114987   3.274   3.506   3.775
 4885SOL    HW214988   3.404   3.489   3.678
 4886SOL     OW14989   2.234   3.150   5.214
 4886SOL    HW114990   2.221   3.243   5.180
 4886SOL    HW214991   2.150   3.098   5.201
 4887SOL     OW14992   3.476   3.154   5.013
 4887SOL    HW114993   3.536   3.157   5.093
 4887SOL    HW214994   3.401   3.218   5.026
 4888SOL     OW14995   2.901   2.960   4.420
 4888SOL    HW114996   2.831   2.913   4.474
 4888SOL    HW214997   2.960   2.892   4.377
 4889SOL     OW14998   2.876   2.098   4.695
 4889SOL    HW114999   2.868   2.062   4.602
 4889SOL    HW215000   2.874   2.022   4.760
 4890SOL     OW15001   2.452   3.349   4.215
 4890SOL    HW115002   2.494   3.291   4.145
 4890SOL    HW215003   2.408   3.428   4.171
 4891SOL     OW15004   3.571   2.247   5.105
 4891SOL    HW115005   3.644   2.316   5.109
 4891SOL    HW215006   3.599   2.172   5.046
 4892SOL     OW15007   2.117   3.210   4.014
 4892SOL    HW115008   2.021   3.211   3.987
 4892SOL    HW215009   2.129   3.263   4.098
 4893SOL     OW15010   2.534   2.065   5.213
 4893SOL    HW115011   2.624   2.049   5.173
 4893SOL    HW215012   2.542   2.070   5.312
 4894SOL     OW15013   1.937   2.207   3.757
 4894SOL    HW115014   1.845   2.179   3.728
 4894SOL    HW215015   1.968   2.284   3.701
 4895SOL     OW15016   3.302   2.718   5.122
 4895SOL    HW115017   3.245   2.770   5.059
 4895SOL    HW215018   3.398   2.730   5.098
 4896SOL     OW15019   1.934   2.028   4.042
 4896SOL    HW115020   1.917   2.111   3.988
 4896SOL    HW215021   2.024   1.991   4.020
 4897SOL     OW15022   3.045   3.197   3.843
 4897SOL    HW115023   2.946   3.186   3.845
 4897SOL    HW215024   3.079   3.212   3.936
 4898SOL     OW15025   2.475   2.704   5.155
 4898SOL    HW115026   2.531   2.785   5.138
 4898SOL    HW215027   2.534   2.624   5.158
 4899SOL     OW15028   3.355   3.629   4.683
 4899SOL    HW115029   3.388   3.693   4.614
 4899SOL    HW215030   3.421   3.623   4.758
 4900SOL     OW15031   3.312   3.082   5.357
 4900SOL    HW115032   3.303   3.072   5.456
 4900SOL    HW215033   3.408   3.075   5.331
 4901SOL     OW15034   2.252   3.603   5.284
 4901SOL    HW115035   2.161   3.644   5.282
 4901SOL    HW215036   2.245   3.509   5.316
 4902SOL     OW15037   3.536   2.745   4.978
 4902SOL    HW115038   3.509   2.656   4.941
 4902SOL    HW215039   3.537   2.813   4.905
 4903SOL     OW15040   3.087   2.187   4.173
 4903SOL    HW115041   3.152   2.113   4.162
 4903SOL    HW215042   3.107   2.237   4.257
 4904SOL     OW15043   2.456   2.607   4.376
 4904SOL    HW115044   2.506   2.692   4.357
 4904SOL    HW215045   2.368   2.609   4.328
 4905SOL     OW15046   3.639   2.204   5.366
 4905SOL    HW115047   3.622   2.235   5.272
 4905SOL    HW215048   3.555   2.167   5.404
 4906SOL     OW15049   3.592   2.796   5.241
 4906SOL    HW115050   3.630   2.887   5.256
 4906SOL    HW215051   3.584   2.779   5.142
 4907SOL     OW15052   2.721   3.236   3.740
 4907SOL    HW115053   2.675   3.251   3.828
 4907SOL    HW215054   2.765   3.321   3.710
 4908SOL     OW15055   2.523   3.652   4.677
 4908SOL    HW115056   2.477   3.740   4.664
 4908SOL    HW215057   2.622   3.664   4.670
 4909SOL     OW15058   2.721   2.818   4.585
 4909SOL    HW115059   2.775   2.749   4.633
 4909SOL    HW215060   2.689   2.887   4.651
 4910SOL     OW15061   2.945   2.846   3.811
 4910SOL    HW115062   2.922   2.899   3.729
 4910SOL    HW215063   3.026   2.790   3.792
 4911SOL     OW15064   3.723   3.431   4.575
 4911SOL    HW115065   3.652   3.419   4.505
 4911SOL    HW215066   3.724   3.352   4.635
 4912SOL     OW15067   2.083   3.176   5.568
 4912SOL    HW115068   2.018   3.103   5.547
 4912SOL    HW215069   2.087   3.190   5.666
 4913SOL     OW15070   1.941   3.102   4.377
 4913SOL    HW115071   1.940   3.055   4.465
 4913SOL    HW215072   2.023   3.074   4.326
 4914SOL     OW15073   2.534   3.253   5.348
 4914SOL    HW115074   2.456   3.203   5.386
 4914SOL    HW215075   2.531   3.348   5.379
 4915SOL     OW15076   3.686   2.054   4.951
 4915SOL    HW115077   3.682   1.964   4.995
 4915SOL    HW215078   3.689   2.043   4.852
 4916SOL     OW15079   3.567   3.349   4.828
 4916SOL    HW115080   3.474   3.324   4.801
 4916SOL    HW215081   3.593   3.299   4.910
 4917SOL     OW15082   2.674   3.448   4.411
 4917SOL    HW115083   2.706   3.458   4.317
 4917SOL    HW215084   2.595   3.386   4.413
 4918SOL     OW15085   3.286   2.076   4.836
 4918SOL    HW115086   3.338   2.011   4.891
 4918SOL    HW215087   3.237   2.139   4.897
 4919SOL     OW15088   2.863   1.896   4.878
 4919SOL    HW115089   2.800   1.824   4.847
 4919SOL    HW215090   2.956   1.860   4.878
 4920SOL     OW15091   2.632   3.192   4.025
 4920SOL    HW115092   2.586   3.105   4.042
 4920SOL    HW215093   2.723   3.189   4.066
 4921SOL     OW15094   2.480   3.429   5.008
 4921SOL    HW115095   2.475   3.511   5.065
 4921SOL    HW215096   2.569   3.426   4.963
 4922SOL     OW15097   3.214   1.914   3.892
 4922SOL    HW115098   3.249   1.873   3.808
 4922SOL    HW215099   3.124   1.876   3.912
 4923SOL     OW15100   3.162   2.315   4.415
 4923SOL    HW115101   3.103   2.395   4.419
 4923SOL    HW215102   3.177   2.280   4.508
 4924SOL     OW15103   3.455   2.083   4.606
 4924SOL    HW115104   3.371   2.082   4.660
 4924SOL    HW215105   3.457   2.166   4.550
 4925SOL     OW15106   1.901   2.939   4.024
 4925SOL    HW115107   2.000   2.928   4.015
 4925SOL    HW215108   1.861   2.853   4.056
 4926SOL     OW15109   2.737   3.508   4.061
 4926SOL    HW115110   2.660   3.473   4.007
 4926SOL    HW215111   2.705   3.579   4.123
 4927SOL     OW15112   1.881   2.230   6.233
 4927SOL    HW115113   1.799   2.273   6.272
 4927SOL    HW215114   1.853   2.157   6.170
 4928SOL     OW15115   2.431   3.137   6.751
 4928SOL    HW115116   2.338   3.130   6.714
 4928SOL    HW215117   2.442   3.226   6.795
 4929SOL     OW15118   3.417   3.373   6.289
 4929SOL    HW115119   3.360   3.357   6.370
 4929SOL    HW215120   3.358   3.383   6.209
 4930SOL     OW15121   2.997   2.565   6.303
 4930SOL    HW115122   3.054   2.643   6.278
 4930SOL    HW215123   2.937   2.591   6.379
 4931SOL     OW15124   3.617   2.469   5.817
 4931SOL    HW115125   3.605   2.456   5.718
 4931SOL    HW215126   3.587   2.388   5.866
 4932SOL     OW15127   2.630   3.006   6.609
 4932SOL    HW115128   2.552   3.023   6.669
 4932SOL    HW215129   2.664   3.093   6.573
 4933SOL     OW15130   2.712   2.660   7.409
 4933SOL    HW115131   2.708   2.736   7.474
 4933SOL    HW215132   2.734   2.696   7.318
 4934SOL     OW15133   2.547   2.874   6.251
 4934SOL    HW115134   2.616   2.858   6.321
 4934SOL    HW215135   2.474   2.931   6.289
 4935SOL     OW15136   2.548   3.023   7.389
 4935SOL    HW115137   2.608   3.102   7.403
 4935SOL    HW215138   2.462   3.054   7.348
 4936SOL     OW15139   2.197   3.297   6.647
 4936SOL    HW115140   2.119   3.266   6.594
 4936SOL    HW215141   2.255   3.355   6.590
 4937SOL     OW15142   3.322   3.367   6.925
 4937SOL    HW115143   3.346   3.461   6.951
 4937SOL    HW215144   3.306   3.313   7.007
 4938SOL     OW15145   3.465   2.309   6.323
 4938SOL    HW115146   3.391   2.355   6.273
 4938SOL    HW215147   3.516   2.377   6.376
 4939SOL     OW15148   2.093   3.575   6.069
 4939SOL    HW115149   2.127   3.652   6.123
 4939SOL    HW215150   2.137   3.575   5.979
 4940SOL     OW15151   2.989   3.203   7.276
 4940SOL    HW115152   3.036   3.203   7.364
 4940SOL    HW215153   2.941   3.116   7.265
 4941SOL     OW15154   2.092   3.296   6.124
 4941SOL    HW115155   2.066   3.392   6.124
 4941SOL    HW215156   2.021   3.242   6.169
 4942SOL     OW15157   2.102   2.953   6.472
 4942SOL    HW115158   2.116   2.869   6.524
 4942SOL    HW215159   2.047   3.017   6.527
 4943SOL     OW15160   2.482   3.648   7.025
 4943SOL    HW115161   2.390   3.631   7.060
 4943SOL    HW215162   2.510   3.740   7.051
 4944SOL     OW15163   3.456   1.976   7.066
 4944SOL    HW115164   3.438   2.043   6.994
 4944SOL    HW215165   3.453   2.022   7.155
 4945SOL     OW15166   1.984   2.505   6.149
 4945SOL    HW115167   1.939   2.417   6.166
 4945SOL    HW215168   1.983   2.559   6.233
 4946SOL     OW15169   3.704   3.629   5.945
 4946SOL    HW115170   3.758   3.600   6.025
 4946SOL    HW215171   3.734   3.719   5.916
 4947SOL     OW15172   1.889   3.458   5.703
 4947SOL    HW115173   1.870   3.362   5.724
 4947SOL    HW215174   1.856   3.516   5.778
 4948SOL     OW15175   3.551   2.784   6.198
 4948SOL    HW115176   3.646   2.755   6.206
 4948SOL    HW215177   3.543   2.849   6.123
 4949SOL     OW15178   3.503   2.970   6.018
 4949SOL    HW115179   3.589   2.972   5.966
 4949SOL    HW215180   3.517   3.017   6.106
 4950SOL     OW15181   1.975   2.599   7.183
 4950SOL    HW115182   2.063   2.586   7.228
 4950SOL    HW215183   1.962   2.696   7.161
 4951SOL     OW15184   2.475   3.227   6.312
 4951SOL    HW115185   2.426   3.140   6.321
 4951SOL    HW215186   2.452   3.270   6.225
 4952SOL     OW15187   3.155   3.090   7.009
 4952SOL    HW115188   3.192   3.017   6.951
 4952SOL    HW215189   3.207   3.095   7.094
 4953SOL     OW15190   2.671   1.866   6.088
 4953SOL    HW115191   2.711   1.957   6.079
 4953SOL    HW215192   2.571   1.874   6.094
 4954SOL     OW15193   2.059   2.838   6.850
 4954SOL    HW115194   2.148   2.793   6.836
 4954SOL    HW215195   1.986   2.773   6.831
 4955SOL     OW15196   3.387   2.861   5.776
 4955SOL    HW115197   3.324   2.785   5.789
 4955SOL    HW215198   3.435   2.879   5.862
 4956SOL     OW15199   3.049   3.654   7.202
 4956SOL    HW115200   3.073   3.714   7.126
 4956SOL    HW215201   3.056   3.559   7.172
 4957SOL     OW15202   3.328   3.279   6.539
 4957SOL    HW115203   3.269   3.285   6.619
 4957SOL    HW215204   3.313   3.191   6.493
 4958SOL     OW15205   3.529   3.576   6.158
 4958SOL    HW115206   3.488   3.553   6.070
 4958SOL    HW215207   3.511   3.502   6.223
 4959SOL     OW15208   3.143   2.207   6.530
 4959SOL    HW115209   3.057   2.157   6.517
 4959SOL    HW215210   3.205   2.153   6.586
 4960SOL     OW15211   3.438   3.524   5.893
 4960SOL    HW115212   3.527   3.570   5.896
 4960SOL    HW215213   3.417   3.500   5.798
 4961SOL     OW15214   2.669   2.467   7.051
 4961SOL    HW115215   2.622   2.464   7.140
 4961SOL    HW215216   2.618   2.412   6.985
 4962SOL     OW15217   3.256   2.331   7.260
 4962SOL    HW115218   3.236   2.374   7.348
 4962SOL    HW215219   3.334   2.269   7.269
 4963SOL     OW15220   2.835   2.752   7.158
 4963SOL    HW115221   2.881   2.668   7.129
 4963SOL    HW215222   2.779   2.786   7.083
 4964SOL     OW15223   2.853   2.272   6.828
 4964SOL    HW115224   2.776   2.306   6.882
 4964SOL    HW215225   2.819   2.221   6.749
 4965SOL     OW15226   2.903   2.563   6.015
 4965SOL    HW115227   2.929   2.559   6.111
 4965SOL    HW215228   2.818   2.512   6.001
 4966SOL     OW15229   1.938   2.673   6.375
 4966SOL    HW115230   2.037   2.661   6.384
 4966SOL    HW215231   1.914   2.768   6.396
 4967SOL     OW15232   1.992   3.683   7.157
 4967SOL    HW115233   1.982   3.668   7.256
 4967SOL    HW215234   1.906   3.719   7.121
 4968SOL     OW15235   3.581   2.447   7.417
 4968SOL    HW115236   3.555   2.536   7.381
 4968SOL    HW215237   3.579   2.379   7.344
 4969SOL     OW15238   3.224   3.006   6.131
 4969SOL    HW115239   3.307   2.977   6.083
 4969SOL    HW215240   3.175   3.073   6.075
 4970SOL     OW15241   2.412   2.058   6.471
 4970SOL    HW115242   2.407   2.053   6.571
 4970SOL    HW215243   2.414   2.154   6.442
 4971SOL     OW15244   2.870   3.318   6.063
 4971SOL    HW115245   2.824   3.390   6.011
 4971SOL    HW215246   2.866   3.338   6.161
 4972SOL     OW15247   2.213   3.663   6.439
 4972SOL    HW115248   2.263   3.577   6.445
 4972SOL    HW215249   2.278   3.740   6.436
 4973SOL     OW15250   3.657   2.928   6.459
 4973SOL    HW115251   3.595   2.913   6.383
 4973SOL    HW215252   3.605   2.939   6.544
 4974SOL     OW15253   3.089   3.412   7.092
 4974SOL    HW115254   3.095   3.335   7.156
 4974SOL    HW215255   3.037   3.386   7.012
 4975SOL     OW15256   3.320   2.597   6.314
 4975SOL    HW115257   3.315   2.532   6.389
 4975SOL    HW215258   3.400   2.656   6.327
 4976SOL     OW15259   2.323   3.128   7.313
 4976SOL    HW115260   2.273   3.129   7.227
 4976SOL    HW215261   2.260   3.110   7.389
 4977SOL     OW15262   2.973   3.638   5.823
 4977SOL    HW115263   2.913   3.576   5.873
 4977SOL    HW215264   3.004   3.594   5.738
 4978SOL     OW15265   3.494   3.239   5.667
 4978SOL    HW115266   3.462   3.333   5.657
 4978SOL    HW215267   3.418   3.176   5.655
 4979SOL     OW15268   2.326   3.605   5.909
 4979SOL    HW115269   2.359   3.644   5.995
 4979SOL    HW215270   2.402   3.598   5.844
 4980SOL     OW15271   3.262   1.969   6.012
 4980SOL    HW115272   3.238   1.932   5.922
 4980SOL    HW215273   3.361   1.985   6.016
 4981SOL     OW15274   2.111   3.647   6.827
 4981SOL    HW115275   2.168   3.582   6.877
 4981SOL    HW215276   2.095   3.614   6.734
 4982SOL     OW15277   2.802   3.560   6.490
 4982SOL    HW115278   2.882   3.503   6.511
 4982SOL    HW215279   2.753   3.520   6.413
 4983SOL     OW15280   3.409   2.084   7.315
 4983SOL    HW115281   3.404   2.121   7.407
 4983SOL    HW215282   3.337   2.015   7.303
 4984SOL     OW15283   2.643   2.126   7.335
 4984SOL    HW115284   2.710   2.065   7.378
 4984SOL    HW215285   2.570   2.145   7.400
 4985SOL     OW15286   2.750   3.376   6.781
 4985SOL    HW115287   2.727   3.351   6.687
 4985SOL    HW215288   2.811   3.307   6.820
 4986SOL     OW15289   3.213   2.452   7.019
 4986SOL    HW115290   3.241   2.409   7.104
 4986SOL    HW215291   3.238   2.548   7.020
 4987SOL     OW15292   2.665   3.264   6.510
 4987SOL    HW115293   2.755   3.278   6.468
 4987SOL    HW215294   2.594   3.266   6.439
 4988SOL     OW15295   2.784   2.365   6.485
 4988SOL    HW115296   2.759   2.356   6.389
 4988SOL    HW215297   2.832   2.283   6.516
 4989SOL     OW15298   3.296   3.050   5.627
 4989SOL    HW115299   3.328   2.974   5.684
 4989SOL    HW215300   3.204   3.077   5.657
 4990SOL     OW15301   2.938   2.545   7.050
 4990SOL    HW115302   2.858   2.484   7.053
 4990SOL    HW215303   3.019   2.492   7.026
 4991SOL     OW15304   3.089   3.432   6.379
 4991SOL    HW115305   3.110   3.506   6.314
 4991SOL    HW215306   3.157   3.432   6.452
 4992SOL     OW15307   2.321   3.014   6.327
 4992SOL    HW115308   2.250   2.987   6.392
 4992SOL    HW215309   2.295   2.986   6.234
 4993SOL     OW15310   3.133   3.659   6.177
 4993SOL    HW115311   3.177   3.723   6.113
 4993SOL    HW215312   3.083   3.711   6.247
 4994SOL     OW15313   1.940   2.418   6.972
 4994SOL    HW115314   2.032   2.417   6.931
 4994SOL    HW215315   1.934   2.492   7.039
 4995SOL     OW15316   2.423   2.084   6.733
 4995SOL    HW115317   2.461   2.000   6.770
 4995SOL    HW215318   2.335   2.103   6.777
 4996SOL     OW15319   2.728   2.316   6.228
 4996SOL    HW115320   2.696   2.388   6.166
 4996SOL    HW215321   2.752   2.235   6.175
 4997SOL     OW15322   2.879   1.901   6.339
 4997SOL    HW115323   2.807   1.906   6.270
 4997SOL    HW215324   2.855   1.832   6.408
 4998SOL     OW15325   3.291   3.035   6.453
 4998SOL    HW115326   3.236   2.951   6.446
 4998SOL    HW215327   3.317   3.064   6.361
 4999SOL     OW15328   3.328   2.452   6.578
 4999SOL    HW115329   3.298   2.357   6.585
 4999SOL    HW215330   3.401   2.468   6.644
 5000SOL     OW15331   3.719   2.695   5.963
 5000SOL    HW115332   3.761   2.631   6.027
 5000SOL    HW215333   3.681   2.644   5.885
 5001SOL     OW15334   2.350   3.247   5.760
 5001SOL    HW115335   2.263   3.232   5.807
 5001SOL    HW215336   2.333   3.273   5.665
 5002SOL     OW15337   3.526   3.142   6.243
 5002SOL    HW115338   3.625   3.150   6.257
 5002SOL    HW215339   3.481   3.226   6.274
 5003SOL     OW15340   3.252   2.437   5.664
 5003SOL    HW115341   3.198   2.416   5.745
 5003SOL    HW215342   3.343   2.396   5.673
 5004SOL     OW15343   3.616   3.085   7.174
 5004SOL    HW115344   3.707   3.046   7.161
 5004SOL    HW215345   3.624   3.181   7.198
 5005SOL     OW15346   2.926   3.209   6.926
 5005SOL    HW115347   2.846   3.186   6.981
 5005SOL    HW215348   3.009   3.183   6.975
 5006SOL     OW15349   3.454   3.491   7.211
 5006SOL    HW115350   3.481   3.525   7.121
 5006SOL    HW215351   3.533   3.453   7.257
 5007SOL     OW15352   2.973   3.057   6.686
 5007SOL    HW115353   2.933   3.101   6.767
 5007SOL    HW215354   2.932   3.094   6.603
 5008SOL     OW15355   3.500   2.961   6.665
 5008SOL    HW115356   3.505   3.042   6.724
 5008SOL    HW215357   3.414   2.963   6.614
 5009SOL     OW15358   2.777   1.951   6.988
 5009SOL    HW115359   2.802   1.931   6.893
 5009SOL    HW215360   2.849   2.007   7.030
 5010SOL     OW15361   2.842   2.978   7.305
 5010SOL    HW115362   2.743   2.984   7.315
 5010SOL    HW215363   2.865   2.898   7.249
 5011SOL     OW15364   2.567   2.912   5.954
 5011SOL    HW115365   2.553   2.919   6.053
 5011SOL    HW215366   2.651   2.861   5.936
 5012SOL     OW15367   2.272   2.675   6.837
 5012SOL    HW115368   2.358   2.687   6.887
 5012SOL    HW215369   2.230   2.588   6.864
 5013SOL     OW15370   3.136   2.248   6.848
 5013SOL    HW115371   3.157   2.322   6.912
 5013SOL    HW215372   3.047   2.265   6.805
 5014SOL     OW15373   1.926   3.426   6.917
 5014SOL    HW115374   1.880   3.508   6.883
 5014SOL    HW215375   2.024   3.445   6.926
 5015SOL     OW15376   2.229   2.962   6.087
 5015SOL    HW115377   2.222   3.045   6.031
 5015SOL    HW215378   2.233   2.882   6.027
 5016SOL     OW15379   2.428   2.399   6.451
 5016SOL    HW115380   2.440   2.465   6.377
 5016SOL    HW215381   2.474   2.433   6.534
 5017SOL     OW15382   3.114   3.210   5.974
 5017SOL    HW115383   3.164   3.287   6.014
 5017SOL    HW215384   3.019   3.212   6.006
 5018SOL     OW15385   3.134   3.307   6.728
 5018SOL    HW115386   3.181   3.320   6.815
 5018SOL    HW215387   3.068   3.233   6.737
 5019SOL     OW15388   3.444   2.501   6.058
 5019SOL    HW115389   3.413   2.562   6.131
 5019SOL    HW215390   3.494   2.553   5.989
 5020SOL     OW15391   2.216   3.372   6.915
 5020SOL    HW115392   2.195   3.328   6.828
 5020SOL    HW215393   2.313   3.398   6.918
 5021SOL     OW15394   2.264   2.613   7.184
 5021SOL    HW115395   2.332   2.668   7.137
 5021SOL    HW215396   2.304   2.525   7.211
 5022SOL     OW15397   3.449   2.641   7.256
 5022SOL    HW115398   3.357   2.679   7.251
 5022SOL    HW215399   3.509   2.688   7.191
 5023SOL     OW15400   2.875   1.967   7.356
 5023SOL    HW115401   2.881   2.052   7.304
 5023SOL    HW215402   2.907   1.891   7.299
 5024SOL     OW15403   2.366   1.912   7.326
 5024SOL    HW115404   2.324   1.855   7.256
 5024SOL    HW215405   2.300   1.981   7.358
 5025SOL     OW15406   2.435   2.732   6.615
 5025SOL    HW115407   2.479   2.821   6.606
 5025SOL    HW215408   2.372   2.732   6.692
 5026SOL     OW15409   3.222   2.724   6.631
 5026SOL    HW115410   3.147   2.724   6.565
 5026SOL    HW215411   3.259   2.632   6.640
 5027SOL     OW15412   3.071   2.387   5.861
 5027SOL    HW115413   3.084   2.303   5.915
 5027SOL    HW215414   3.042   2.461   5.921
 5028SOL     OW15415   1.899   3.172   6.868
 5028SOL    HW115416   1.952   3.123   6.936
 5028SOL    HW215417   1.921   3.270   6.873
 5029SOL     OW15418   2.594   2.496   6.650
 5029SOL    HW115419   2.653   2.470   6.574
 5029SOL    HW215420   2.566   2.592   6.639
 5030SOL     OW15421   3.590   2.797   7.440
 5030SOL    HW115422   3.544   2.790   7.351
 5030SOL    HW215423   3.528   2.841   7.506
 5031SOL     OW15424   3.484   2.229   5.960
 5031SOL    HW115425   3.486   2.153   6.024
 5031SOL    HW215426   3.436   2.306   6.000
 5032SOL     OW15427   2.885   2.628   6.552
 5032SOL    HW115428   2.900   2.649   6.648
 5032SOL    HW215429   2.855   2.533   6.543
 5033SOL     OW15430   2.842   3.435   7.286
 5033SOL    HW115431   2.822   3.479   7.198
 5033SOL    HW215432   2.881   3.344   7.270
 5034SOL     OW15433   3.721   3.380   7.191
 5034SOL    HW115434   3.735   3.407   7.096
 5034SOL    HW215435   3.804   3.402   7.244
 5035SOL     OW15436   2.212   2.760   7.390
 5035SOL    HW115437   2.288   2.804   7.438
 5035SOL    HW215438   2.247   2.713   7.308
 5036SOL     OW15439   3.402   2.136   5.711
 5036SOL    HW115440   3.341   2.061   5.734
 5036SOL    HW215441   3.424   2.188   5.794
 5037SOL     OW15442   3.165   2.700   5.628
 5037SOL    HW115443   3.199   2.607   5.643
 5037SOL    HW215444   3.183   2.727   5.533
 5038SOL     OW15445   2.930   3.195   6.435
 5038SOL    HW115446   2.937   3.111   6.380
 5038SOL    HW215447   2.992   3.264   6.399
 5039SOL     OW15448   2.181   2.672   6.535
 5039SOL    HW115449   2.274   2.708   6.540
 5039SOL    HW215450   2.175   2.587   6.587
 5040SOL     OW15451   3.000   2.242   7.264
 5040SOL    HW115452   2.955   2.305   7.328
 5040SOL    HW215453   3.093   2.273   7.247
 5041SOL     OW15454   3.022   2.069   7.063
 5041SOL    HW115455   3.022   2.133   7.140
 5041SOL    HW215456   3.050   2.117   6.980
 5042SOL     OW15457   1.870   3.188   5.786
 5042SOL    HW115458   1.777   3.209   5.755
 5042SOL    HW215459   1.880   3.089   5.799
 5043SOL     OW15460   1.950   3.663   6.513
 5043SOL    HW115461   1.908   3.577   6.486
 5043SOL    HW215462   2.044   3.666   6.479
 5044SOL     OW15463   2.366   3.430   6.496
 5044SOL    HW115464   2.432   3.504   6.505
 5044SOL    HW215465   2.410   3.351   6.454
 5045SOL     OW15466   2.864   2.658   6.824
 5045SOL    HW115467   2.905   2.626   6.910
 5045SOL    HW215468   2.768   2.631   6.821
 5046SOL     OW15469   1.902   2.406   6.700
 5046SOL    HW115470   1.987   2.373   6.659
 5046SOL    HW215471   1.915   2.421   6.798
 5047SOL     OW15472   3.231   2.812   7.246
 5047SOL    HW115473   3.270   2.901   7.266
 5047SOL    HW215474   3.241   2.792   7.149
 5048SOL     OW15475   3.519   2.466   6.792
 5048SOL    HW115476   3.481   2.397   6.854
 5048SOL    HW215477   3.601   2.430   6.748
 5049SOL     OW15478   2.114   3.426   7.330
 5049SOL    HW115479   2.084   3.483   7.406
 5049SOL    HW215480   2.107   3.329   7.356
 5050SOL     OW15481   2.792   3.540   7.051
 5050SOL    HW115482   2.768   3.522   6.956
 5050SOL    HW215483   2.822   3.634   7.061
 5051SOL     OW15484   2.021   2.999   7.052
 5051SOL    HW115485   2.043   2.938   7.128
 5051SOL    HW215486   2.031   2.950   6.966
 5052SOL     OW15487   3.209   2.921   6.820
 5052SOL    HW115488   3.233   2.858   6.746
 5052SOL    HW215489   3.119   2.961   6.802
 5053SOL     OW15490   3.164   2.717   5.895
 5053SOL    HW115491   3.078   2.686   5.937
 5053SOL    HW215492   3.160   2.703   5.796
 5054SOL     OW15493   3.621   3.609   6.740
 5054SOL    HW115494   3.682   3.639   6.667
 5054SOL    HW215495   3.583   3.520   6.718
 5055SOL     OW15496   3.114   3.593   6.714
 5055SOL    HW115497   3.198   3.598   6.660
 5055SOL    HW215498   3.091   3.497   6.732
 5056SOL     OW15499   1.945   3.120   6.608
 5056SOL    HW115500   1.940   3.119   6.708
 5056SOL    HW215501   1.862   3.079   6.570
 5057SOL     OW15502   2.550   3.524   7.302
 5057SOL    HW115503   2.494   3.605   7.311
 5057SOL    HW215504   2.602   3.528   7.216
 5058SOL     OW15505   3.588   1.997   6.109
 5058SOL    HW115506   3.661   1.980   6.042
 5058SOL    HW215507   3.557   1.910   6.147
 5059SOL     OW15508   3.250   3.435   6.063
 5059SOL    HW115509   3.317   3.447   5.989
 5059SOL    HW215510   3.210   3.524   6.086
 5060SOL     OW15511   1.992   3.656   7.437
 5060SOL    HW115512   1.951   3.582   7.490
 5060SOL    HW215513   2.056   3.707   7.495
 5061SOL     OW15514   3.142   2.789   6.258
 5061SOL    HW115515   3.202   2.708   6.260
 5061SOL    HW215516   3.182   2.858   6.198
 5062SOL     OW15517   2.692   3.135   7.008
 5062SOL    HW115518   2.687   3.168   7.103
 5062SOL    HW215519   2.606   3.154   6.962
 5063SOL     OW15520   2.534   3.478   5.740
 5063SOL    HW115521   2.543   3.488   5.641
 5063SOL    HW215522   2.494   3.389   5.761
 5064SOL     OW15523   3.512   3.582   6.980
 5064SOL    HW115524   3.565   3.592   6.896
 5064SOL    HW215525   3.485   3.672   7.014
 5065SOL     OW15526   3.703   2.037   6.549
 5065SOL    HW115527   3.742   1.952   6.513
 5065SOL    HW215528   3.605   2.039   6.530
 5066SOL     OW15529   3.056   3.474   5.617
 5066SOL    HW115530   3.062   3.381   5.654
 5066SOL    HW215531   2.997   3.474   5.537
 5067SOL     OW15532   2.684   2.864   6.958
 5067SOL    HW115533   2.724   2.863   6.866
 5067SOL    HW215534   2.694   2.956   6.998
 5068SOL     OW15535   2.778   2.772   5.877
 5068SOL    HW115536   2.841   2.810   5.809
 5068SOL    HW215537   2.818   2.689   5.916
 5069SOL     OW15538   3.366   3.469   5.630
 5069SOL    HW115539   3.274   3.506   5.637
 5069SOL    HW215540   3.404   3.489   5.540
 5070SOL     OW15541   2.234   3.150   7.076
 5070SOL    HW115542   2.221   3.243   7.042
 5070SOL    HW215543   2.150   3.098   7.063
 5071SOL     OW15544   3.476   3.154   6.875
 5071SOL    HW115545   3.536   3.157   6.955
 5071SOL    HW215546   3.401   3.218   6.888
 5072SOL     OW15547   2.901   2.960   6.282
 5072SOL    HW115548   2.831   2.913   6.336
 5072SOL    HW215549   2.960   2.892   6.239
 5073SOL     OW15550   2.876   2.098   6.557
 5073SOL    HW115551   2.868   2.062   6.464
 5073SOL    HW215552   2.874   2.022   6.622
 5074SOL     OW15553   2.452   3.349   6.077
 5074SOL    HW115554   2.494   3.291   6.007
 5074SOL    HW215555   2.408   3.428   6.033
 5075SOL     OW15556   3.571   2.247   6.967
 5075SOL    HW115557   3.644   2.316   6.971
 5075SOL    HW215558   3.599   2.172   6.908
 5076SOL     OW15559   2.117   3.210   5.876
 5076SOL    HW115560   2.021   3.211   5.849
 5076SOL    HW215561   2.129   3.263   5.960
 5077SOL     OW15562   1.967   2.875   7.312
 5077SOL    HW115563   1.890   2.842   7.366
 5077SOL    HW215564   2.052   2.845   7.354
 5078SOL     OW15565   2.534   2.065   7.075
 5078SOL    HW115566   2.624   2.049   7.035
 5078SOL    HW215567   2.542   2.070   7.174
 5079SOL     OW15568   3.302   2.718   6.984
 5079SOL    HW115569   3.245   2.770   6.921
 5079SOL    HW215570   3.398   2.730   6.960
 5080SOL     OW15571   3.045   3.197   5.705
 5080SOL    HW115572   2.946   3.186   5.707
 5080SOL    HW215573   3.079   3.212   5.798
 5081SOL     OW15574   2.475   2.704   7.017
 5081SOL    HW115575   2.531   2.785   7.000
 5081SOL    HW215576   2.534   2.624   7.020
 5082SOL     OW15577   3.355   3.629   6.545
 5082SOL    HW115578   3.388   3.693   6.476
 5082SOL    HW215579   3.421   3.623   6.620
 5083SOL     OW15580   2.578   2.427   7.294
 5083SOL    HW115581   2.597   2.492   7.368
 5083SOL    HW215582   2.638   2.347   7.303
 5084SOL     OW15583   3.312   3.082   7.219
 5084SOL    HW115584   3.303   3.072   7.318
 5084SOL    HW215585   3.408   3.075   7.193
 5085SOL     OW15586   2.252   3.603   7.146
 5085SOL    HW115587   2.161   3.644   7.144
 5085SOL    HW215588   2.245   3.509   7.178
 5086SOL     OW15589   3.536   2.745   6.840
 5086SOL    HW115590   3.509   2.656   6.803
 5086SOL    HW215591   3.537   2.813   6.767
 5087SOL     OW15592   3.087   2.187   6.035
 5087SOL    HW115593   3.152   2.113   6.024
 5087SOL    HW215594   3.107   2.237   6.119
 5088SOL     OW15595   2.456   2.607   6.238
 5088SOL    HW115596   2.506   2.692   6.219
 5088SOL    HW215597   2.368   2.609   6.190
 5089SOL     OW15598   3.639   2.204   7.228
 5089SOL    HW115599   3.622   2.235   7.134
 5089SOL    HW215600   3.555   2.167   7.266
 5090SOL     OW15601   3.592   2.796   7.103
 5090SOL    HW115602   3.630   2.887   7.118
 5090SOL    HW215603   3.584   2.779   7.004
 5091SOL     OW15604   2.721   3.236   5.602
 5091SOL    HW115605   2.675   3.251   5.690
 5091SOL    HW215606   2.765   3.321   5.572
 5092SOL     OW15607   2.523   3.652   6.539
 5092SOL    HW115608   2.477   3.740   6.526
 5092SOL    HW215609   2.622   3.664   6.532
 5093SOL     OW15610   2.721   2.818   6.447
 5093SOL    HW115611   2.775   2.749   6.495
 5093SOL    HW215612   2.689   2.887   6.513
 5094SOL     OW15613   2.945   2.846   5.673
 5094SOL    HW115614   2.922   2.899   5.591
 5094SOL    HW215615   3.026   2.790   5.654
 5095SOL     OW15616   3.723   3.431   6.437
 5095SOL    HW115617   3.652   3.419   6.367
 5095SOL    HW215618   3.724   3.352   6.497
 5096SOL     OW15619   2.083   3.176   7.430
 5096SOL    HW115620   2.018   3.103   7.409
 5096SOL    HW215621   2.087   3.190   7.528
 5097SOL     OW15622   1.941   3.102   6.239
 5097SOL    HW115623   1.940   3.055   6.327
 5097SOL    HW215624   2.023   3.074   6.188
 5098SOL     OW15625   2.534   3.253   7.210
 5098SOL    HW115626   2.456   3.203   7.248
 5098SOL    HW215627   2.531   3.348   7.241
 5099SOL     OW15628   3.686   2.054   6.813
 5099SOL    HW115629   3.682   1.964   6.857
 5099SOL    HW215630   3.689   2.043   6.714
 5100SOL     OW15631   3.567   3.349   6.690
 5100SOL    HW115632   3.474   3.324   6.663
 5100SOL    HW215633   3.593   3.299   6.772
 5101SOL     OW15634   2.674   3.448   6.273
 5101SOL    HW115635   2.706   3.458   6.179
 5101SOL    HW215636   2.595   3.386   6.275
 5102SOL     OW15637   3.286   2.076   6.698
 5102SOL    HW115638   3.338   2.011   6.753
 5102SOL    HW215639   3.237   2.139   6.759
 5103SOL     OW15640   2.863   1.896   6.740
 5103SOL    HW115641   2.800   1.824   6.709
 5103SOL    HW215642   2.956   1.860   6.740
 5104SOL     OW15643   2.632   3.192   5.887
 5104SOL    HW115644   2.586   3.105   5.904
 5104SOL    HW215645   2.723   3.189   5.928
 5105SOL     OW15646   2.480   3.429   6.870
 5105SOL    HW115647   2.475   3.511   6.927
 5105SOL    HW215648   2.569   3.426   6.825
 5106SOL     OW15649   3.214   1.914   5.754
 5106SOL    HW115650   3.249   1.873   5.670
 5106SOL    HW215651   3.124   1.876   5.774
 5107SOL     OW15652   3.162   2.315   6.277
 5107SOL    HW115653   3.103   2.395   6.281
 5107SOL    HW215654   3.177   2.280   6.370
 5108SOL     OW15655   3.455   2.083   6.468
 5108SOL    HW115656   3.371   2.082   6.522
 5108SOL    HW215657   3.457   2.166   6.412
 5109SOL     OW15658   1.901   2.939   5.886
 5109SOL    HW115659   2.000   2.928   5.877
 5109SOL    HW215660   1.861   2.853   5.918
 5110SOL     OW15661   2.737   3.508   5.923
 5110SOL    HW115662   2.660   3.473   5.869
 5110SOL    HW215663   2.705   3.579   5.985
 5111SOL     OW15664   2.092   2.490   7.561
 5111SOL    HW115665   1.999   2.488   7.598
 5111SOL    HW215666   2.093   2.451   7.469
 5112SOL     OW15667   1.881   2.230   8.095
 5112SOL    HW115668   1.799   2.273   8.134
 5112SOL    HW215669   1.853   2.157   8.032
 5113SOL     OW15670   2.431   3.137   8.613
 5113SOL    HW115671   2.338   3.130   8.576
 5113SOL    HW215672   2.442   3.226   8.657
 5114SOL     OW15673   3.417   3.373   8.151
 5114SOL    HW115674   3.360   3.357   8.232
 5114SOL    HW215675   3.358   3.383   8.071
 5115SOL     OW15676   2.997   2.565   8.165
 5115SOL    HW115677   3.054   2.643   8.140
 5115SOL    HW215678   2.937   2.591   8.241
 5116SOL     OW15679   3.617   2.469   7.679
 5116SOL    HW115680   3.605   2.456   7.580
 5116SOL    HW215681   3.587   2.388   7.728
 5117SOL     OW15682   2.630   3.006   8.471
 5117SOL    HW115683   2.552   3.023   8.531
 5117SOL    HW215684   2.664   3.093   8.435
 5118SOL     OW15685   2.712   2.660   9.271
 5118SOL    HW115686   2.708   2.736   9.336
 5118SOL    HW215687   2.734   2.696   9.180
 5119SOL     OW15688   2.547   2.874   8.113
 5119SOL    HW115689   2.616   2.858   8.183
 5119SOL    HW215690   2.474   2.931   8.151
 5120SOL     OW15691   2.548   3.023   9.251
 5120SOL    HW115692   2.608   3.102   9.265
 5120SOL    HW215693   2.462   3.054   9.210
 5121SOL     OW15694   2.197   3.297   8.509
 5121SOL    HW115695   2.119   3.266   8.456
 5121SOL    HW215696   2.255   3.355   8.452
 5122SOL     OW15697   3.322   3.367   8.787
 5122SOL    HW115698   3.346   3.461   8.813
 5122SOL    HW215699   3.306   3.313   8.869
 5123SOL     OW15700   3.465   2.309   8.185
 5123SOL    HW115701   3.391   2.355   8.135
 5123SOL    HW215702   3.516   2.377   8.238
 5124SOL     OW15703   2.093   3.575   7.931
 5124SOL    HW115704   2.127   3.652   7.985
 5124SOL    HW215705   2.137   3.575   7.841
 5125SOL     OW15706   2.989   3.203   9.138
 5125SOL    HW115707   3.036   3.203   9.226
 5125SOL    HW215708   2.941   3.116   9.127
 5126SOL     OW15709   2.092   3.296   7.986
 5126SOL    HW115710   2.066   3.392   7.986
 5126SOL    HW215711   2.021   3.242   8.031
 5127SOL     OW15712   2.102   2.953   8.334
 5127SOL    HW115713   2.116   2.869   8.386
 5127SOL    HW215714   2.047   3.017   8.389
 5128SOL     OW15715   2.482   3.648   8.887
 5128SOL    HW115716   2.390   3.631   8.922
 5128SOL    HW215717   2.510   3.740   8.913
 5129SOL     OW15718   2.468   2.826   7.571
 5129SOL    HW115719   2.475   2.910   7.517
 5129SOL    HW215720   2.514   2.839   7.659
 5130SOL     OW15721   3.456   1.976   8.928
 5130SOL    HW115722   3.438   2.043   8.856
 5130SOL    HW215723   3.453   2.022   9.017
 5131SOL     OW15724   1.984   2.505   8.011
 5131SOL    HW115725   1.939   2.417   8.028
 5131SOL    HW215726   1.983   2.559   8.095
 5132SOL     OW15727   3.704   3.629   7.807
 5132SOL    HW115728   3.758   3.600   7.887
 5132SOL    HW215729   3.734   3.719   7.778
 5133SOL     OW15730   1.889   3.458   7.565
 5133SOL    HW115731   1.870   3.362   7.586
 5133SOL    HW215732   1.856   3.516   7.640
 5134SOL     OW15733   3.551   2.784   8.060
 5134SOL    HW115734   3.646   2.755   8.068
 5134SOL    HW215735   3.543   2.849   7.985
 5135SOL     OW15736   3.503   2.970   7.880
 5135SOL    HW115737   3.589   2.972   7.828
 5135SOL    HW215738   3.517   3.017   7.968
 5136SOL     OW15739   1.975   2.599   9.045
 5136SOL    HW115740   2.063   2.586   9.090
 5136SOL    HW215741   1.962   2.696   9.023
 5137SOL     OW15742   2.475   3.227   8.174
 5137SOL    HW115743   2.426   3.140   8.183
 5137SOL    HW215744   2.452   3.270   8.087
 5138SOL     OW15745   3.155   3.090   8.871
 5138SOL    HW115746   3.192   3.017   8.813
 5138SOL    HW215747   3.207   3.095   8.956
 5139SOL     OW15748   2.671   1.866   7.950
 5139SOL    HW115749   2.711   1.957   7.941
 5139SOL    HW215750   2.571   1.874   7.956
 5140SOL     OW15751   2.059   2.838   8.712
 5140SOL    HW115752   2.148   2.793   8.698
 5140SOL    HW215753   1.986   2.773   8.693
 5141SOL     OW15754   3.387   2.861   7.638
 5141SOL    HW115755   3.324   2.785   7.651
 5141SOL    HW215756   3.435   2.879   7.724
 5142SOL     OW15757   3.049   3.654   9.064
 5142SOL    HW115758   3.073   3.714   8.988
 5142SOL    HW215759   3.056   3.559   9.034
 5143SOL     OW15760   3.328   3.279   8.401
 5143SOL    HW115761   3.269   3.285   8.481
 5143SOL    HW215762   3.313   3.191   8.355
 5144SOL     OW15763   3.529   3.576   8.020
 5144SOL    HW115764   3.488   3.553   7.932
 5144SOL    HW215765   3.511   3.502   8.085
 5145SOL     OW15766   2.460   2.591   7.718
 5145SOL    HW115767   2.484   2.660   7.650
 5145SOL    HW215768   2.382   2.624   7.772
 5146SOL     OW15769   3.143   2.207   8.392
 5146SOL    HW115770   3.057   2.157   8.379
 5146SOL    HW215771   3.205   2.153   8.448
 5147SOL     OW15772   3.438   3.524   7.755
 5147SOL    HW115773   3.527   3.570   7.758
 5147SOL    HW215774   3.417   3.500   7.660
 5148SOL     OW15775   2.669   2.467   8.913
 5148SOL    HW115776   2.622   2.464   9.002
 5148SOL    HW215777   2.618   2.412   8.847
 5149SOL     OW15778   3.256   2.331   9.122
 5149SOL    HW115779   3.236   2.374   9.210
 5149SOL    HW215780   3.334   2.269   9.131
 5150SOL     OW15781   2.835   2.752   9.020
 5150SOL    HW115782   2.881   2.668   8.991
 5150SOL    HW215783   2.779   2.786   8.945
 5151SOL     OW15784   2.853   2.272   8.690
 5151SOL    HW115785   2.776   2.306   8.744
 5151SOL    HW215786   2.819   2.221   8.611
 5152SOL     OW15787   2.903   2.563   7.877
 5152SOL    HW115788   2.929   2.559   7.973
 5152SOL    HW215789   2.818   2.512   7.863
 5153SOL     OW15790   1.938   2.673   8.237
 5153SOL    HW115791   2.037   2.661   8.246
 5153SOL    HW215792   1.914   2.768   8.258
 5154SOL     OW15793   1.992   3.683   9.019
 5154SOL    HW115794   1.982   3.668   9.118
 5154SOL    HW215795   1.906   3.719   8.983
 5155SOL     OW15796   2.727   2.210   7.643
 5155SOL    HW115797   2.786   2.273   7.594
 5155SOL    HW215798   2.746   2.116   7.614
 5156SOL     OW15799   3.581   2.447   9.279
 5156SOL    HW115800   3.555   2.536   9.243
 5156SOL    HW215801   3.579   2.379   9.206
 5157SOL     OW15802   3.224   3.006   7.993
 5157SOL    HW115803   3.307   2.977   7.945
 5157SOL    HW215804   3.175   3.073   7.937
 5158SOL     OW15805   2.870   3.318   7.925
 5158SOL    HW115806   2.824   3.390   7.873
 5158SOL    HW215807   2.866   3.338   8.023
 5159SOL     OW15808   2.213   3.663   8.301
 5159SOL    HW115809   2.263   3.577   8.307
 5159SOL    HW215810   2.278   3.740   8.298
 5160SOL     OW15811   3.657   2.928   8.321
 5160SOL    HW115812   3.595   2.913   8.245
 5160SOL    HW215813   3.605   2.939   8.406
 5161SOL     OW15814   3.089   3.412   8.954
 5161SOL    HW115815   3.095   3.335   9.018
 5161SOL    HW215816   3.037   3.386   8.874
 5162SOL     OW15817   2.183   2.805   7.690
 5162SOL    HW115818   2.265   2.844   7.648
 5162SOL    HW215819   2.156   2.723   7.641
 5163SOL     OW15820   3.320   2.597   8.176
 5163SOL    HW115821   3.315   2.532   8.251
 5163SOL    HW215822   3.400   2.656   8.189
 5164SOL     OW15823   2.323   3.128   9.175
 5164SOL    HW115824   2.273   3.129   9.089
 5164SOL    HW215825   2.260   3.110   9.251
 5165SOL     OW15826   2.973   3.638   7.685
 5165SOL    HW115827   2.913   3.576   7.735
 5165SOL    HW215828   3.004   3.594   7.600
 5166SOL     OW15829   2.064   2.147   8.946
 5166SOL    HW115830   1.984   2.207   8.933
 5166SOL    HW215831   2.054   2.098   9.032
 5167SOL     OW15832   3.494   3.239   7.529
 5167SOL    HW115833   3.462   3.333   7.519
 5167SOL    HW215834   3.418   3.176   7.517
 5168SOL     OW15835   2.326   3.605   7.771
 5168SOL    HW115836   2.359   3.644   7.857
 5168SOL    HW215837   2.402   3.598   7.706
 5169SOL     OW15838   3.262   1.969   7.874
 5169SOL    HW115839   3.238   1.932   7.784
 5169SOL    HW215840   3.361   1.985   7.878
 5170SOL     OW15841   2.111   3.647   8.689
 5170SOL    HW115842   2.168   3.582   8.739
 5170SOL    HW215843   2.095   3.614   8.596
 5171SOL     OW15844   2.802   3.560   8.352
 5171SOL    HW115845   2.882   3.503   8.373
 5171SOL    HW215846   2.753   3.520   8.275
 5172SOL     OW15847   2.244   2.562   7.928
 5172SOL    HW115848   2.289   2.472   7.925
 5172SOL    HW215849   2.150   2.551   7.961
 5173SOL     OW15850   3.409   2.084   9.177
 5173SOL    HW115851   3.404   2.121   9.269
 5173SOL    HW215852   3.337   2.015   9.165
 5174SOL     OW15853   2.476   1.984   7.565
 5174SOL    HW115854   2.574   1.962   7.572
 5174SOL    HW215855   2.445   1.967   7.472
 5175SOL     OW15856   2.643   2.126   9.197
 5175SOL    HW115857   2.710   2.065   9.240
 5175SOL    HW215858   2.570   2.145   9.262
 5176SOL     OW15859   2.750   3.376   8.643
 5176SOL    HW115860   2.727   3.351   8.549
 5176SOL    HW215861   2.811   3.307   8.682
 5177SOL     OW15862   3.213   2.452   8.881
 5177SOL    HW115863   3.241   2.409   8.966
 5177SOL    HW215864   3.238   2.548   8.882
 5178SOL     OW15865   2.665   3.264   8.372
 5178SOL    HW115866   2.755   3.278   8.330
 5178SOL    HW215867   2.594   3.266   8.301
 5179SOL     OW15868   2.784   2.365   8.347
 5179SOL    HW115869   2.759   2.356   8.251
 5179SOL    HW215870   2.832   2.283   8.378
 5180SOL     OW15871   2.401   1.926   7.960
 5180SOL    HW115872   2.320   1.927   8.018
 5180SOL    HW215873   2.404   2.009   7.905
 5181SOL     OW15874   3.296   3.050   7.489
 5181SOL    HW115875   3.328   2.974   7.546
 5181SOL    HW215876   3.204   3.077   7.519
 5182SOL     OW15877   2.159   1.897   7.619
 5182SOL    HW115878   2.208   1.981   7.598
 5182SOL    HW215879   2.221   1.832   7.664
 5183SOL     OW15880   2.797   2.098   7.928
 5183SOL    HW115881   2.749   2.139   7.850
 5183SOL    HW215882   2.896   2.096   7.909
 5184SOL     OW15883   2.938   2.545   8.912
 5184SOL    HW115884   2.858   2.484   8.915
 5184SOL    HW215885   3.019   2.492   8.888
 5185SOL     OW15886   3.089   3.432   8.241
 5185SOL    HW115887   3.110   3.506   8.176
 5185SOL    HW215888   3.157   3.432   8.314
 5186SOL     OW15889   2.321   3.014   8.189
 5186SOL    HW115890   2.250   2.987   8.254
 5186SOL    HW215891   2.295   2.986   8.096
 5187SOL     OW15892   3.133   3.659   8.039
 5187SOL    HW115893   3.177   3.723   7.975
 5187SOL    HW215894   3.083   3.711   8.109
 5188SOL     OW15895   2.894   2.411   7.464
 5188SOL    HW115896   2.853   2.493   7.425
 5188SOL    HW215897   2.958   2.437   7.537
 5189SOL     OW15898   1.940   2.418   8.834
 5189SOL    HW115899   2.032   2.417   8.793
 5189SOL    HW215900   1.934   2.492   8.901
 5190SOL     OW15901   2.423   2.084   8.595
 5190SOL    HW115902   2.461   2.000   8.632
 5190SOL    HW215903   2.335   2.103   8.639
 5191SOL     OW15904   2.728   2.316   8.090
 5191SOL    HW115905   2.696   2.388   8.028
 5191SOL    HW215906   2.752   2.235   8.037
 5192SOL     OW15907   2.879   1.901   8.201
 5192SOL    HW115908   2.807   1.906   8.132
 5192SOL    HW215909   2.855   1.832   8.270
 5193SOL     OW15910   3.291   3.035   8.315
 5193SOL    HW115911   3.236   2.951   8.308
 5193SOL    HW215912   3.317   3.064   8.223
 5194SOL     OW15913   3.328   2.452   8.440
 5194SOL    HW115914   3.298   2.357   8.447
 5194SOL    HW215915   3.401   2.468   8.506
 5195SOL     OW15916   3.719   2.695   7.825
 5195SOL    HW115917   3.761   2.631   7.889
 5195SOL    HW215918   3.681   2.644   7.747
 5196SOL     OW15919   2.350   3.247   7.622
 5196SOL    HW115920   2.263   3.232   7.669
 5196SOL    HW215921   2.333   3.273   7.527
 5197SOL     OW15922   3.526   3.142   8.105
 5197SOL    HW115923   3.625   3.150   8.119
 5197SOL    HW215924   3.481   3.226   8.136
 5198SOL     OW15925   3.252   2.437   7.526
 5198SOL    HW115926   3.198   2.416   7.607
 5198SOL    HW215927   3.343   2.396   7.535
 5199SOL     OW15928   3.616   3.085   9.036
 5199SOL    HW115929   3.707   3.046   9.023
 5199SOL    HW215930   3.624   3.181   9.060
 5200SOL     OW15931   2.926   3.209   8.788
 5200SOL    HW115932   2.846   3.186   8.843
 5200SOL    HW215933   3.009   3.183   8.837
 5201SOL     OW15934   3.454   3.491   9.073
 5201SOL    HW115935   3.481   3.525   8.983
 5201SOL    HW215936   3.533   3.453   9.119
 5202SOL     OW15937   2.973   3.057   8.548
 5202SOL    HW115938   2.933   3.101   8.629
 5202SOL    HW215939   2.932   3.094   8.465
 5203SOL     OW15940   3.500   2.961   8.527
 5203SOL    HW115941   3.505   3.042   8.586
 5203SOL    HW215942   3.414   2.963   8.476
 5204SOL     OW15943   2.777   1.951   8.850
 5204SOL    HW115944   2.802   1.931   8.755
 5204SOL    HW215945   2.849   2.007   8.892
 5205SOL     OW15946   2.842   2.978   9.167
 5205SOL    HW115947   2.743   2.984   9.177
 5205SOL    HW215948   2.865   2.898   9.111
 5206SOL     OW15949   2.567   2.912   7.816
 5206SOL    HW115950   2.553   2.919   7.915
 5206SOL    HW215951   2.651   2.861   7.798
 5207SOL     OW15952   2.272   2.675   8.699
 5207SOL    HW115953   2.358   2.687   8.749
 5207SOL    HW215954   2.230   2.588   8.726
 5208SOL     OW15955   3.136   2.248   8.710
 5208SOL    HW115956   3.157   2.322   8.774
 5208SOL    HW215957   3.047   2.265   8.667
 5209SOL     OW15958   1.926   3.426   8.779
 5209SOL    HW115959   1.880   3.508   8.745
 5209SOL    HW215960   2.024   3.445   8.788
 5210SOL     OW15961   2.229   2.962   7.949
 5210SOL    HW115962   2.222   3.045   7.893
 5210SOL    HW215963   2.233   2.882   7.889
 5211SOL     OW15964   2.428   2.399   8.313
 5211SOL    HW115965   2.440   2.465   8.239
 5211SOL    HW215966   2.474   2.433   8.396
 5212SOL     OW15967   3.114   3.210   7.836
 5212SOL    HW115968   3.164   3.287   7.876
 5212SOL    HW215969   3.019   3.212   7.868
 5213SOL     OW15970   3.134   3.307   8.590
 5213SOL    HW115971   3.181   3.320   8.677
 5213SOL    HW215972   3.068   3.233   8.599
 5214SOL     OW15973   3.444   2.501   7.920
 5214SOL    HW115974   3.413   2.562   7.993
 5214SOL    HW215975   3.494   2.553   7.851
 5215SOL     OW15976   2.216   3.372   8.777
 5215SOL    HW115977   2.195   3.328   8.690
 5215SOL    HW215978   2.313   3.398   8.780
 5216SOL     OW15979   2.264   2.613   9.046
 5216SOL    HW115980   2.332   2.668   8.999
 5216SOL    HW215981   2.304   2.525   9.073
 5217SOL     OW15982   3.449   2.641   9.118
 5217SOL    HW115983   3.357   2.679   9.113
 5217SOL    HW215984   3.509   2.688   9.053
 5218SOL     OW15985   2.875   1.967   9.218
 5218SOL    HW115986   2.881   2.052   9.166
 5218SOL    HW215987   2.907   1.891   9.161
 5219SOL     OW15988   2.366   1.912   9.188
 5219SOL    HW115989   2.324   1.855   9.118
 5219SOL    HW215990   2.300   1.981   9.220
 5220SOL     OW15991   2.435   2.732   8.477
 5220SOL    HW115992   2.479   2.821   8.468
 5220SOL    HW215993   2.372   2.732   8.554
 5221SOL     OW15994   3.222   2.724   8.493
 5221SOL    HW115995   3.147   2.724   8.427
 5221SOL    HW215996   3.259   2.632   8.502
 5222SOL     OW15997   3.071   2.387   7.723
 5222SOL    HW115998   3.084   2.303   7.777
 5222SOL    HW215999   3.042   2.461   7.783
 5223SOL     OW16000   1.899   3.172   8.730
 5223SOL    HW116001   1.952   3.123   8.798
 5223SOL    HW216002   1.921   3.270   8.735
 5224SOL     OW16003   2.594   2.496   8.512
 5224SOL    HW116004   2.653   2.470   8.436
 5224SOL    HW216005   2.566   2.592   8.501
 5225SOL     OW16006   3.590   2.797   9.302
 5225SOL    HW116007   3.544   2.790   9.213
 5225SOL    HW216008   3.528   2.841   9.368
 5226SOL     OW16009   2.169   1.925   8.066
 5226SOL    HW116010   2.158   2.019   8.099
 5226SOL    HW216011   2.164   1.862   8.143
 5227SOL     OW16012   3.484   2.229   7.822
 5227SOL    HW116013   3.486   2.153   7.886
 5227SOL    HW216014   3.436   2.306   7.862
 5228SOL     OW16015   2.885   2.628   8.414
 5228SOL    HW116016   2.900   2.649   8.510
 5228SOL    HW216017   2.855   2.533   8.405
 5229SOL     OW16018   2.842   3.435   9.148
 5229SOL    HW116019   2.822   3.479   9.060
 5229SOL    HW216020   2.881   3.344   9.132
 5230SOL     OW16021   3.721   3.380   9.053
 5230SOL    HW116022   3.735   3.407   8.958
 5230SOL    HW216023   3.804   3.402   9.106
 5231SOL     OW16024   2.212   2.760   9.252
 5231SOL    HW116025   2.288   2.804   9.300
 5231SOL    HW216026   2.247   2.713   9.170
 5232SOL     OW16027   3.402   2.136   7.573
 5232SOL    HW116028   3.341   2.061   7.596
 5232SOL    HW216029   3.424   2.188   7.656
 5233SOL     OW16030   3.165   2.700   7.490
 5233SOL    HW116031   3.199   2.607   7.505
 5233SOL    HW216032   3.183   2.727   7.395
 5234SOL     OW16033   2.930   3.195   8.297
 5234SOL    HW116034   2.937   3.111   8.242
 5234SOL    HW216035   2.992   3.264   8.261
 5235SOL     OW16036   2.181   2.672   8.397
 5235SOL    HW116037   2.274   2.708   8.402
 5235SOL    HW216038   2.175   2.587   8.449
 5236SOL     OW16039   3.000   2.242   9.126
 5236SOL    HW116040   2.955   2.305   9.190
 5236SOL    HW216041   3.093   2.273   9.109
 5237SOL     OW16042   3.022   2.069   8.925
 5237SOL    HW116043   3.022   2.133   9.002
 5237SOL    HW216044   3.050   2.117   8.842
 5238SOL     OW16045   1.870   3.188   7.648
 5238SOL    HW116046   1.777   3.209   7.617
 5238SOL    HW216047   1.880   3.089   7.661
 5239SOL     OW16048   1.950   3.663   8.375
 5239SOL    HW116049   1.908   3.577   8.348
 5239SOL    HW216050   2.044   3.666   8.341
 5240SOL     OW16051   2.366   3.430   8.358
 5240SOL    HW116052   2.432   3.504   8.367
 5240SOL    HW216053   2.410   3.351   8.316
 5241SOL     OW16054   2.864   2.658   8.686
 5241SOL    HW116055   2.905   2.626   8.772
 5241SOL    HW216056   2.768   2.631   8.683
 5242SOL     OW16057   1.902   2.406   8.562
 5242SOL    HW116058   1.987   2.373   8.521
 5242SOL    HW216059   1.915   2.421   8.660
 5243SOL     OW16060   2.051   2.382   9.170
 5243SOL    HW116061   2.110   2.342   9.100
 5243SOL    HW216062   1.993   2.453   9.129
 5244SOL     OW16063   3.231   2.812   9.108
 5244SOL    HW116064   3.270   2.901   9.128
 5244SOL    HW216065   3.241   2.792   9.011
 5245SOL     OW16066   2.677   2.434   7.773
 5245SOL    HW116067   2.684   2.345   7.727
 5245SOL    HW216068   2.583   2.468   7.765
 5246SOL     OW16069   3.519   2.466   8.654
 5246SOL    HW116070   3.481   2.397   8.716
 5246SOL    HW216071   3.601   2.430   8.610
 5247SOL     OW16072   2.114   3.426   9.192
 5247SOL    HW116073   2.084   3.483   9.268
 5247SOL    HW216074   2.107   3.329   9.218
 5248SOL     OW16075   2.533   2.326   8.717
 5248SOL    HW116076   2.499   2.237   8.687
 5248SOL    HW216077   2.559   2.380   8.637
 5249SOL     OW16078   2.792   3.540   8.913
 5249SOL    HW116079   2.768   3.522   8.818
 5249SOL    HW216080   2.822   3.634   8.923
 5250SOL     OW16081   2.021   2.999   8.914
 5250SOL    HW116082   2.043   2.938   8.990
 5250SOL    HW216083   2.031   2.950   8.828
 5251SOL     OW16084   3.209   2.921   8.682
 5251SOL    HW116085   3.233   2.858   8.608
 5251SOL    HW216086   3.119   2.961   8.664
 5252SOL     OW16087   3.164   2.717   7.757
 5252SOL    HW116088   3.078   2.686   7.799
 5252SOL    HW216089   3.160   2.703   7.658
 5253SOL     OW16090   3.621   3.609   8.602
 5253SOL    HW116091   3.682   3.639   8.529
 5253SOL    HW216092   3.583   3.520   8.580
 5254SOL     OW16093   3.114   3.593   8.576
 5254SOL    HW116094   3.198   3.598   8.522
 5254SOL    HW216095   3.091   3.497   8.594
 5255SOL     OW16096   1.945   3.120   8.470
 5255SOL    HW116097   1.940   3.119   8.570
 5255SOL    HW216098   1.862   3.079   8.432
 5256SOL     OW16099   2.550   3.524   9.164
 5256SOL    HW116100   2.494   3.605   9.173
 5256SOL    HW216101   2.602   3.528   9.078
 5257SOL     OW16102   3.588   1.997   7.971
 5257SOL    HW116103   3.661   1.980   7.904
 5257SOL    HW216104   3.557   1.910   8.009
 5258SOL     OW16105   3.250   3.435   7.925
 5258SOL    HW116106   3.317   3.447   7.851
 5258SOL    HW216107   3.210   3.524   7.948
 5259SOL     OW16108   1.992   3.656   9.299
 5259SOL    HW116109   1.951   3.582   9.352
 5259SOL    HW216110   2.056   3.707   9.357
 5260SOL     OW16111   3.142   2.789   8.120
 5260SOL    HW116112   3.202   2.708   8.122
 5260SOL    HW216113   3.182   2.858   8.060
 5261SOL     OW16114   2.692   3.135   8.870
 5261SOL    HW116115   2.687   3.168   8.965
 5261SOL    HW216116   2.606   3.154   8.824
 5262SOL     OW16117   2.534   3.478   7.602
 5262SOL    HW116118   2.543   3.488   7.503
 5262SOL    HW216119   2.494   3.389   7.623
 5263SOL     OW16120   3.512   3.582   8.842
 5263SOL    HW116121   3.565   3.592   8.758
 5263SOL    HW216122   3.485   3.672   8.876
 5264SOL     OW16123   3.703   2.037   8.411
 5264SOL    HW116124   3.742   1.952   8.375
 5264SOL    HW216125   3.605   2.039   8.392
 5265SOL     OW16126   3.056   3.474   7.479
 5265SOL    HW116127   3.062   3.381   7.516
 5265SOL    HW216128   2.997   3.474   7.399
 5266SOL     OW16129   2.684   2.864   8.820
 5266SOL    HW116130   2.724   2.863   8.728
 5266SOL    HW216131   2.694   2.956   8.860
 5267SOL     OW16132   2.778   2.772   7.739
 5267SOL    HW116133   2.841   2.810   7.671
 5267SOL    HW216134   2.818   2.689   7.778
 5268SOL     OW16135   3.366   3.469   7.492
 5268SOL    HW116136   3.274   3.506   7.499
 5268SOL    HW216137   3.404   3.489   7.402
 5269SOL     OW16138   2.234   3.150   8.938
 5269SOL    HW116139   2.221   3.243   8.904
 5269SOL    HW216140   2.150   3.098   8.925
 5270SOL     OW16141   3.476   3.154   8.737
 5270SOL    HW116142   3.536   3.157   8.817
 5270SOL    HW216143   3.401   3.218   8.750
 5271SOL     OW16144   2.901   2.960   8.144
 5271SOL    HW116145   2.831   2.913   8.198
 5271SOL    HW216146   2.960   2.892   8.101
 5272SOL     OW16147   2.876   2.098   8.419
 5272SOL    HW116148   2.868   2.062   8.326
 5272SOL    HW216149   2.874   2.022   8.484
 5273SOL     OW16150   2.452   3.349   7.939
 5273SOL    HW116151   2.494   3.291   7.869
 5273SOL    HW216152   2.408   3.428   7.895
 5274SOL     OW16153   3.571   2.247   8.829
 5274SOL    HW116154   3.644   2.316   8.833
 5274SOL    HW216155   3.599   2.172   8.770
 5275SOL     OW16156   2.117   3.210   7.738
 5275SOL    HW116157   2.021   3.211   7.711
 5275SOL    HW216158   2.129   3.263   7.822
 5276SOL     OW16159   1.967   2.875   9.174
 5276SOL    HW116160   1.890   2.842   9.228
 5276SOL    HW216161   2.052   2.845   9.216
 5277SOL     OW16162   2.534   2.065   8.937
 5277SOL    HW116163   2.624   2.049   8.897
 5277SOL    HW216164   2.542   2.070   9.036
 5278SOL     OW16165   1.937   2.207   7.481
 5278SOL    HW116166   1.845   2.179   7.452
 5278SOL    HW216167   1.968   2.284   7.425
 5279SOL     OW16168   3.302   2.718   8.846
 5279SOL    HW116169   3.245   2.770   8.783
 5279SOL    HW216170   3.398   2.730   8.822
 5280SOL     OW16171   1.934   2.028   7.766
 5280SOL    HW116172   1.917   2.111   7.712
 5280SOL    HW216173   2.024   1.991   7.744
 5281SOL     OW16174   3.045   3.197   7.567
 5281SOL    HW116175   2.946   3.186   7.569
 5281SOL    HW216176   3.079   3.212   7.660
 5282SOL     OW16177   2.475   2.704   8.879
 5282SOL    HW116178   2.531   2.785   8.862
 5282SOL    HW216179   2.534   2.624   8.882
 5283SOL     OW16180   3.355   3.629   8.407
 5283SOL    HW116181   3.388   3.693   8.338
 5283SOL    HW216182   3.421   3.623   8.482
 5284SOL     OW16183   2.578   2.427   9.156
 5284SOL    HW116184   2.597   2.492   9.230
 5284SOL    HW216185   2.638   2.347   9.165
 5285SOL     OW16186   3.312   3.082   9.081
 5285SOL    HW116187   3.303   3.072   9.180
 5285SOL    HW216188   3.408   3.075   9.055
 5286SOL     OW16189   2.252   3.603   9.008
 5286SOL    HW116190   2.161   3.644   9.006
 5286SOL    HW216191   2.245   3.509   9.040
 5287SOL     OW16192   3.536   2.745   8.702
 5287SOL    HW116193   3.509   2.656   8.665
 5287SOL    HW216194   3.537   2.813   8.629
 5288SOL     OW16195   3.087   2.187   7.897
 5288SOL    HW116196   3.152   2.113   7.886
 5288SOL    HW216197   3.107   2.237   7.981
 5289SOL     OW16198   2.456   2.607   8.100
 5289SOL    HW116199   2.506   2.692   8.081
 5289SOL    HW216200   2.368   2.609   8.052
 5290SOL     OW16201   3.639   2.204   9.090
 5290SOL    HW116202   3.622   2.235   8.996
 5290SOL    HW216203   3.555   2.167   9.128
 5291SOL     OW16204   3.592   2.796   8.965
 5291SOL    HW116205   3.630   2.887   8.980
 5291SOL    HW216206   3.584   2.779   8.866
 5292SOL     OW16207   2.721   3.236   7.464
 5292SOL    HW116208   2.675   3.251   7.552
 5292SOL    HW216209   2.765   3.321   7.434
 5293SOL     OW16210   2.523   3.652   8.401
 5293SOL    HW116211   2.477   3.740   8.388
 5293SOL    HW216212   2.622   3.664   8.394
 5294SOL     OW16213   2.721   2.818   8.309
 5294SOL    HW116214   2.775   2.749   8.357
 5294SOL    HW216215   2.689   2.887   8.375
 5295SOL     OW16216   2.945   2.846   7.535
 5295SOL    HW116217   2.922   2.899   7.453
 5295SOL    HW216218   3.026   2.790   7.516
 5296SOL     OW16219   3.723   3.431   8.299
 5296SOL    HW116220   3.652   3.419   8.229
 5296SOL    HW216221   3.724   3.352   8.359
 5297SOL     OW16222   2.083   3.176   9.292
 5297SOL    HW116223   2.018   3.103   9.271
 5297SOL    HW216224   2.087   3.190   9.390
 5298SOL     OW16225   1.941   3.102   8.101
 5298SOL    HW116226   1.940   3.055   8.189
 5298SOL    HW216227   2.023   3.074   8.050
 5299SOL     OW16228   2.534   3.253   9.072
 5299SOL    HW116229   2.456   3.203   9.110
 5299SOL    HW216230   2.531   3.348   9.103
 5300SOL     OW16231   3.686   2.054   8.675
 5300SOL    HW116232   3.682   1.964   8.719
 5300SOL    HW216233   3.689   2.043   8.576
 5301SOL     OW16234   3.567   3.349   8.552
 5301SOL    HW116235   3.474   3.324   8.525
 5301SOL    HW216236   3.593   3.299   8.634
 5302SOL     OW16237   2.674   3.448   8.135
 5302SOL    HW116238   2.706   3.458   8.041
 5302SOL    HW216239   2.595   3.386   8.137
 5303SOL     OW16240   3.286   2.076   8.560
 5303SOL    HW116241   3.338   2.011   8.615
 5303SOL    HW216242   3.237   2.139   8.621
 5304SOL     OW16243   2.863   1.896   8.602
 5304SOL    HW116244   2.800   1.824   8.571
 5304SOL    HW216245   2.956   1.860   8.602
 5305SOL     OW16246   2.632   3.192   7.749
 5305SOL    HW116247   2.586   3.105   7.766
 5305SOL    HW216248   2.723   3.189   7.790
 5306SOL     OW16249   2.480   3.429   8.732
 5306SOL    HW116250   2.475   3.511   8.789
 5306SOL    HW216251   2.569   3.426   8.687
 5307SOL     OW16252   3.214   1.914   7.616
 5307SOL    HW116253   3.249   1.873   7.532
 5307SOL    HW216254   3.124   1.876   7.636
 5308SOL     OW16255   3.162   2.315   8.139
 5308SOL    HW116256   3.103   2.395   8.143
 5308SOL    HW216257   3.177   2.280   8.232
 5309SOL     OW16258   3.455   2.083   8.330
 5309SOL    HW116259   3.371   2.082   8.384
 5309SOL    HW216260   3.457   2.166   8.274
 5310SOL     OW16261   1.901   2.939   7.748
 5310SOL    HW116262   2.000   2.928   7.739
 5310SOL    HW216263   1.861   2.853   7.780
 5311SOL     OW16264   2.737   3.508   7.785
 5311SOL    HW116265   2.660   3.473   7.731
 5311SOL    HW216266   2.705   3.579   7.847
 5312SOL     OW16267   2.092   2.490   9.423
 5312SOL    HW116268   1.999   2.488   9.460
 5312SOL    HW216269   2.093   2.451   9.331
 5313SOL     OW16270   1.881   2.230   9.957
 5313SOL    HW116271   1.799   2.273   9.996
 5313SOL    HW216272   1.853   2.157   9.894
 5314SOL     OW16273   2.431   3.137  10.475
 5314SOL    HW116274   2.338   3.130  10.438
 5314SOL    HW216275   2.442   3.226  10.519
 5315SOL     OW16276   3.417   3.373  10.013
 5315SOL    HW116277   3.360   3.357  10.094
 5315SOL    HW216278   3.358   3.383   9.933
 5316SOL     OW16279   2.997   2.565  10.027
 5316SOL    HW116280   3.054   2.643  10.002
 5316SOL    HW216281   2.937   2.591  10.103
 5317SOL     OW16282   3.617   2.469   9.541
 5317SOL    HW116283   3.605   2.456   9.442
 5317SOL    HW216284   3.587   2.388   9.590
 5318SOL     OW16285   2.630   3.006  10.333
 5318SOL    HW116286   2.552   3.023  10.393
 5318SOL    HW216287   2.664   3.093  10.297
 5319SOL     OW16288   2.712   2.660  11.133
 5319SOL    HW116289   2.708   2.736  11.198
 5319SOL    HW216290   2.734   2.696  11.042
 5320SOL     OW16291   2.547   2.874   9.975
 5320SOL    HW116292   2.616   2.858  10.045
 5320SOL    HW216293   2.474   2.931  10.013
 5321SOL     OW16294   2.548   3.023  11.113
 5321SOL    HW116295   2.608   3.102  11.127
 5321SOL    HW216296   2.462   3.054  11.072
 5322SOL     OW16297   2.197   3.297  10.371
 5322SOL    HW116298   2.119   3.266  10.318
 5322SOL    HW216299   2.255   3.355  10.314
 5323SOL     OW16300   3.322   3.367  10.649
 5323SOL    HW116301   3.346   3.461  10.675
 5323SOL    HW216302   3.306   3.313  10.731
 5324SOL     OW16303   3.465   2.309  10.047
 5324SOL    HW116304   3.391   2.355   9.997
 5324SOL    HW216305   3.516   2.377  10.100
 5325SOL     OW16306   2.093   3.575   9.793
 5325SOL    HW116307   2.127   3.652   9.847
 5325SOL    HW216308   2.137   3.575   9.703
 5326SOL     OW16309   2.989   3.203  11.000
 5326SOL    HW116310   3.036   3.203  11.088
 5326SOL    HW216311   2.941   3.116  10.989
 5327SOL     OW16312   2.092   3.296   9.848
 5327SOL    HW116313   2.066   3.392   9.848
 5327SOL    HW216314   2.021   3.242   9.893
 5328SOL     OW16315   2.102   2.953  10.196
 5328SOL    HW116316   2.116   2.869  10.248
 5328SOL    HW216317   2.047   3.017  10.251
 5329SOL     OW16318   2.482   3.648  10.749
 5329SOL    HW116319   2.390   3.631  10.784
 5329SOL    HW216320   2.510   3.740  10.775
 5330SOL     OW16321   2.468   2.826   9.433
 5330SOL    HW116322   2.475   2.910   9.379
 5330SOL    HW216323   2.514   2.839   9.521
 5331SOL     OW16324   3.456   1.976  10.790
 5331SOL    HW116325   3.438   2.043  10.718
 5331SOL    HW216326   3.453   2.022  10.879
 5332SOL     OW16327   1.984   2.505   9.873
 5332SOL    HW116328   1.939   2.417   9.890
 5332SOL    HW216329   1.983   2.559   9.957
 5333SOL     OW16330   3.704   3.629   9.669
 5333SOL    HW116331   3.758   3.600   9.749
 5333SOL    HW216332   3.734   3.719   9.640
 5334SOL     OW16333   1.889   3.458   9.427
 5334SOL    HW116334   1.870   3.362   9.448
 5334SOL    HW216335   1.856   3.516   9.502
 5335SOL     OW16336   3.551   2.784   9.922
 5335SOL    HW116337   3.646   2.755   9.930
 5335SOL    HW216338   3.543   2.849   9.847
 5336SOL     OW16339   3.503   2.970   9.742
 5336SOL    HW116340   3.589   2.972   9.690
 5336SOL    HW216341   3.517   3.017   9.830
 5337SOL     OW16342   1.975   2.599  10.907
 5337SOL    HW116343   2.063   2.586  10.952
 5337SOL    HW216344   1.962   2.696  10.885
 5338SOL     OW16345   2.475   3.227  10.036
 5338SOL    HW116346   2.426   3.140  10.045
 5338SOL    HW216347   2.452   3.270   9.949
 5339SOL     OW16348   3.155   3.090  10.733
 5339SOL    HW116349   3.192   3.017  10.675
 5339SOL    HW216350   3.207   3.095  10.818
 5340SOL     OW16351   2.671   1.866   9.812
 5340SOL    HW116352   2.711   1.957   9.803
 5340SOL    HW216353   2.571   1.874   9.818
 5341SOL     OW16354   2.059   2.838  10.574
 5341SOL    HW116355   2.148   2.793  10.560
 5341SOL    HW216356   1.986   2.773  10.555
 5342SOL     OW16357   3.387   2.861   9.500
 5342SOL    HW116358   3.324   2.785   9.513
 5342SOL    HW216359   3.435   2.879   9.586
 5343SOL     OW16360   3.049   3.654  10.926
 5343SOL    HW116361   3.073   3.714  10.850
 5343SOL    HW216362   3.056   3.559  10.896
 5344SOL     OW16363   3.328   3.279  10.263
 5344SOL    HW116364   3.269   3.285  10.343
 5344SOL    HW216365   3.313   3.191  10.217
 5345SOL     OW16366   3.529   3.576   9.882
 5345SOL    HW116367   3.488   3.553   9.794
 5345SOL    HW216368   3.511   3.502   9.947
 5346SOL     OW16369   2.460   2.591   9.580
 5346SOL    HW116370   2.484   2.660   9.512
 5346SOL    HW216371   2.382   2.624   9.634
 5347SOL     OW16372   3.143   2.207  10.254
 5347SOL    HW116373   3.057   2.157  10.241
 5347SOL    HW216374   3.205   2.153  10.310
 5348SOL     OW16375   3.438   3.524   9.617
 5348SOL    HW116376   3.527   3.570   9.620
 5348SOL    HW216377   3.417   3.500   9.522
 5349SOL     OW16378   2.669   2.467  10.775
 5349SOL    HW116379   2.622   2.464  10.864
 5349SOL    HW216380   2.618   2.412  10.709
 5350SOL     OW16381   3.256   2.331  10.984
 5350SOL    HW116382   3.236   2.374  11.072
 5350SOL    HW216383   3.334   2.269  10.993
 5351SOL     OW16384   2.835   2.752  10.882
 5351SOL    HW116385   2.881   2.668  10.853
 5351SOL    HW216386   2.779   2.786  10.807
 5352SOL     OW16387   2.853   2.272  10.552
 5352SOL    HW116388   2.776   2.306  10.606
 5352SOL    HW216389   2.819   2.221  10.473
 5353SOL     OW16390   2.903   2.563   9.739
 5353SOL    HW116391   2.929   2.559   9.835
 5353SOL    HW216392   2.818   2.512   9.725
 5354SOL     OW16393   1.938   2.673  10.099
 5354SOL    HW116394   2.037   2.661  10.108
 5354SOL    HW216395   1.914   2.768  10.120
 5355SOL     OW16396   1.992   3.683  10.881
 5355SOL    HW116397   1.982   3.668  10.980
 5355SOL    HW216398   1.906   3.719  10.845
 5356SOL     OW16399   2.727   2.210   9.505
 5356SOL    HW116400   2.786   2.273   9.456
 5356SOL    HW216401   2.746   2.116   9.476
 5357SOL     OW16402   3.581   2.447  11.141
 5357SOL    HW116403   3.555   2.536  11.105
 5357SOL    HW216404   3.579   2.379  11.068
 5358SOL     OW16405   3.224   3.006   9.855
 5358SOL    HW116406   3.307   2.977   9.807
 5358SOL    HW216407   3.175   3.073   9.799
 5359SOL     OW16408   2.412   2.058  10.195
 5359SOL    HW116409   2.407   2.053  10.295
 5359SOL    HW216410   2.414   2.154  10.166
 5360SOL     OW16411   2.870   3.318   9.787
 5360SOL    HW116412   2.824   3.390   9.735
 5360SOL    HW216413   2.866   3.338   9.885
 5361SOL     OW16414   2.213   3.663  10.163
 5361SOL    HW116415   2.263   3.577  10.169
 5361SOL    HW216416   2.278   3.740  10.160
 5362SOL     OW16417   3.657   2.928  10.183
 5362SOL    HW116418   3.595   2.913  10.107
 5362SOL    HW216419   3.605   2.939  10.268
 5363SOL     OW16420   3.089   3.412  10.816
 5363SOL    HW116421   3.095   3.335  10.880
 5363SOL    HW216422   3.037   3.386  10.736
 5364SOL     OW16423   2.183   2.805   9.552
 5364SOL    HW116424   2.265   2.844   9.510
 5364SOL    HW216425   2.156   2.723   9.503
 5365SOL     OW16426   3.320   2.597  10.038
 5365SOL    HW116427   3.315   2.532  10.113
 5365SOL    HW216428   3.400   2.656  10.051
 5366SOL     OW16429   2.323   3.128  11.037
 5366SOL    HW116430   2.273   3.129  10.951
 5366SOL    HW216431   2.260   3.110  11.113
 5367SOL     OW16432   2.973   3.638   9.547
 5367SOL    HW116433   2.913   3.576   9.597
 5367SOL    HW216434   3.004   3.594   9.462
 5368SOL     OW16435   3.494   3.239   9.391
 5368SOL    HW116436   3.462   3.333   9.381
 5368SOL    HW216437   3.418   3.176   9.379
 5369SOL     OW16438   2.326   3.605   9.633
 5369SOL    HW116439   2.359   3.644   9.719
 5369SOL    HW216440   2.402   3.598   9.568
 5370SOL     OW16441   3.262   1.969   9.736
 5370SOL    HW116442   3.238   1.932   9.646
 5370SOL    HW216443   3.361   1.985   9.740
 5371SOL     OW16444   2.111   3.647  10.551
 5371SOL    HW116445   2.168   3.582  10.601
 5371SOL    HW216446   2.095   3.614  10.458
 5372SOL     OW16447   2.802   3.560  10.214
 5372SOL    HW116448   2.882   3.503  10.235
 5372SOL    HW216449   2.753   3.520  10.137
 5373SOL     OW16450   3.409   2.084  11.039
 5373SOL    HW116451   3.404   2.121  11.131
 5373SOL    HW216452   3.337   2.015  11.027
 5374SOL     OW16453   2.476   1.984   9.427
 5374SOL    HW116454   2.574   1.962   9.434
 5374SOL    HW216455   2.445   1.967   9.334
 5375SOL     OW16456   2.643   2.126  11.059
 5375SOL    HW116457   2.710   2.065  11.102
 5375SOL    HW216458   2.570   2.145  11.124
 5376SOL     OW16459   2.750   3.376  10.505
 5376SOL    HW116460   2.727   3.351  10.411
 5376SOL    HW216461   2.811   3.307  10.544
 5377SOL     OW16462   3.213   2.452  10.743
 5377SOL    HW116463   3.241   2.409  10.828
 5377SOL    HW216464   3.238   2.548  10.744
 5378SOL     OW16465   2.665   3.264  10.234
 5378SOL    HW116466   2.755   3.278  10.192
 5378SOL    HW216467   2.594   3.266  10.163
 5379SOL     OW16468   2.784   2.365  10.209
 5379SOL    HW116469   2.759   2.356  10.113
 5379SOL    HW216470   2.832   2.283  10.240
 5380SOL     OW16471   2.401   1.926   9.822
 5380SOL    HW116472   2.320   1.927   9.880
 5380SOL    HW216473   2.404   2.009   9.767
 5381SOL     OW16474   3.296   3.050   9.351
 5381SOL    HW116475   3.328   2.974   9.408
 5381SOL    HW216476   3.204   3.077   9.381
 5382SOL     OW16477   2.159   1.897   9.481
 5382SOL    HW116478   2.208   1.981   9.460
 5382SOL    HW216479   2.221   1.832   9.526
 5383SOL     OW16480   2.797   2.098   9.790
 5383SOL    HW116481   2.749   2.139   9.712
 5383SOL    HW216482   2.896   2.096   9.771
 5384SOL     OW16483   2.938   2.545  10.774
 5384SOL    HW116484   2.858   2.484  10.777
 5384SOL    HW216485   3.019   2.492  10.750
 5385SOL     OW16486   3.089   3.432  10.103
 5385SOL    HW116487   3.110   3.506  10.038
 5385SOL    HW216488   3.157   3.432  10.176
 5386SOL     OW16489   2.321   3.014  10.051
 5386SOL    HW116490   2.250   2.987  10.116
 5386SOL    HW216491   2.295   2.986   9.958
 5387SOL     OW16492   3.133   3.659   9.901
 5387SOL    HW116493   3.177   3.723   9.837
 5387SOL    HW216494   3.083   3.711   9.971
 5388SOL     OW16495   2.894   2.411   9.326
 5388SOL    HW116496   2.853   2.493   9.287
 5388SOL    HW216497   2.958   2.437   9.399
 5389SOL     OW16498   1.940   2.418  10.696
 5389SOL    HW116499   2.032   2.417  10.655
 5389SOL    HW216500   1.934   2.492  10.763
 5390SOL     OW16501   2.423   2.084  10.457
 5390SOL    HW116502   2.461   2.000  10.494
 5390SOL    HW216503   2.335   2.103  10.501
 5391SOL     OW16504   2.728   2.316   9.952
 5391SOL    HW116505   2.696   2.388   9.890
 5391SOL    HW216506   2.752   2.235   9.899
 5392SOL     OW16507   2.879   1.901  10.063
 5392SOL    HW116508   2.807   1.906   9.994
 5392SOL    HW216509   2.855   1.832  10.132
 5393SOL     OW16510   3.291   3.035  10.177
 5393SOL    HW116511   3.236   2.951  10.170
 5393SOL    HW216512   3.317   3.064  10.085
 5394SOL     OW16513   3.328   2.452  10.302
 5394SOL    HW116514   3.298   2.357  10.309
 5394SOL    HW216515   3.401   2.468  10.368
 5395SOL     OW16516   3.719   2.695   9.687
 5395SOL    HW116517   3.761   2.631   9.751
 5395SOL    HW216518   3.681   2.644   9.609
 5396SOL     OW16519   2.350   3.247   9.484
 5396SOL    HW116520   2.263   3.232   9.531
 5396SOL    HW216521   2.333   3.273   9.389
 5397SOL     OW16522   3.526   3.142   9.967
 5397SOL    HW116523   3.625   3.150   9.981
 5397SOL    HW216524   3.481   3.226   9.998
 5398SOL     OW16525   3.252   2.437   9.388
 5398SOL    HW116526   3.198   2.416   9.469
 5398SOL    HW216527   3.343   2.396   9.397
 5399SOL     OW16528   3.616   3.085  10.898
 5399SOL    HW116529   3.707   3.046  10.885
 5399SOL    HW216530   3.624   3.181  10.922
 5400SOL     OW16531   2.926   3.209  10.650
 5400SOL    HW116532   2.846   3.186  10.705
 5400SOL    HW216533   3.009   3.183  10.699
 5401SOL     OW16534   3.454   3.491  10.935
 5401SOL    HW116535   3.481   3.525  10.845
 5401SOL    HW216536   3.533   3.453  10.981
 5402SOL     OW16537   2.973   3.057  10.410
 5402SOL    HW116538   2.933   3.101  10.491
 5402SOL    HW216539   2.932   3.094  10.327
 5403SOL     OW16540   3.500   2.961  10.389
 5403SOL    HW116541   3.505   3.042  10.448
 5403SOL    HW216542   3.414   2.963  10.338
 5404SOL     OW16543   2.777   1.951  10.712
 5404SOL    HW116544   2.802   1.931  10.617
 5404SOL    HW216545   2.849   2.007  10.754
 5405SOL     OW16546   2.842   2.978  11.029
 5405SOL    HW116547   2.743   2.984  11.039
 5405SOL    HW216548   2.865   2.898  10.973
 5406SOL     OW16549   2.567   2.912   9.678
 5406SOL    HW116550   2.553   2.919   9.777
 5406SOL    HW216551   2.651   2.861   9.660
 5407SOL     OW16552   2.272   2.675  10.561
 5407SOL    HW116553   2.358   2.687  10.611
 5407SOL    HW216554   2.230   2.588  10.588
 5408SOL     OW16555   3.136   2.248  10.572
 5408SOL    HW116556   3.157   2.322  10.636
 5408SOL    HW216557   3.047   2.265  10.529
 5409SOL     OW16558   1.926   3.426  10.641
 5409SOL    HW116559   1.880   3.508  10.607
 5409SOL    HW216560   2.024   3.445  10.650
 5410SOL     OW16561   2.229   2.962   9.811
 5410SOL    HW116562   2.222   3.045   9.755
 5410SOL    HW216563   2.233   2.882   9.751
 5411SOL     OW16564   2.428   2.399  10.175
 5411SOL    HW116565   2.440   2.465  10.101
 5411SOL    HW216566   2.474   2.433  10.258
 5412SOL     OW16567   3.114   3.210   9.698
 5412SOL    HW116568   3.164   3.287   9.738
 5412SOL    HW216569   3.019   3.212   9.730
 5413SOL     OW16570   3.134   3.307  10.452
 5413SOL    HW116571   3.181   3.320  10.539
 5413SOL    HW216572   3.068   3.233  10.461
 5414SOL     OW16573   3.444   2.501   9.782
 5414SOL    HW116574   3.413   2.562   9.855
 5414SOL    HW216575   3.494   2.553   9.713
 5415SOL     OW16576   2.216   3.372  10.639
 5415SOL    HW116577   2.195   3.328  10.552
 5415SOL    HW216578   2.313   3.398  10.642
 5416SOL     OW16579   2.264   2.613  10.908
 5416SOL    HW116580   2.332   2.668  10.861
 5416SOL    HW216581   2.304   2.525  10.935
 5417SOL     OW16582   3.449   2.641  10.980
 5417SOL    HW116583   3.357   2.679  10.975
 5417SOL    HW216584   3.509   2.688  10.915
 5418SOL     OW16585   2.875   1.967  11.080
 5418SOL    HW116586   2.881   2.052  11.028
 5418SOL    HW216587   2.907   1.891  11.023
 5419SOL     OW16588   2.366   1.912  11.050
 5419SOL    HW116589   2.324   1.855  10.980
 5419SOL    HW216590   2.300   1.981  11.082
 5420SOL     OW16591   2.435   2.732  10.339
 5420SOL    HW116592   2.479   2.821  10.330
 5420SOL    HW216593   2.372   2.732  10.416
 5421SOL     OW16594   3.222   2.724  10.355
 5421SOL    HW116595   3.147   2.724  10.289
 5421SOL    HW216596   3.259   2.632  10.364
 5422SOL     OW16597   3.071   2.387   9.585
 5422SOL    HW116598   3.084   2.303   9.639
 5422SOL    HW216599   3.042   2.461   9.645
 5423SOL     OW16600   1.899   3.172  10.592
 5423SOL    HW116601   1.952   3.123  10.660
 5423SOL    HW216602   1.921   3.270  10.597
 5424SOL     OW16603   2.594   2.496  10.374
 5424SOL    HW116604   2.653   2.470  10.298
 5424SOL    HW216605   2.566   2.592  10.363
 5425SOL     OW16606   3.590   2.797  11.164
 5425SOL    HW116607   3.544   2.790  11.075
 5425SOL    HW216608   3.528   2.841  11.230
 5426SOL     OW16609   3.484   2.229   9.684
 5426SOL    HW116610   3.486   2.153   9.748
 5426SOL    HW216611   3.436   2.306   9.724
 5427SOL     OW16612   2.885   2.628  10.276
 5427SOL    HW116613   2.900   2.649  10.372
 5427SOL    HW216614   2.855   2.533  10.267
 5428SOL     OW16615   2.842   3.435  11.010
 5428SOL    HW116616   2.822   3.479  10.922
 5428SOL    HW216617   2.881   3.344  10.994
 5429SOL     OW16618   3.721   3.380  10.915
 5429SOL    HW116619   3.735   3.407  10.820
 5429SOL    HW216620   3.804   3.402  10.968
 5430SOL     OW16621   2.212   2.760  11.114
 5430SOL    HW116622   2.288   2.804  11.162
 5430SOL    HW216623   2.247   2.713  11.032
 5431SOL     OW16624   3.402   2.136   9.435
 5431SOL    HW116625   3.341   2.061   9.458
 5431SOL    HW216626   3.424   2.188   9.518
 5432SOL     OW16627   3.165   2.700   9.352
 5432SOL    HW116628   3.199   2.607   9.367
 5432SOL    HW216629   3.183   2.727   9.257
 5433SOL     OW16630   2.930   3.195  10.159
 5433SOL    HW116631   2.937   3.111  10.104
 5433SOL    HW216632   2.992   3.264  10.123
 5434SOL     OW16633   2.181   2.672  10.259
 5434SOL    HW116634   2.274   2.708  10.264
 5434SOL    HW216635   2.175   2.587  10.311
 5435SOL     OW16636   3.000   2.242  10.988
 5435SOL    HW116637   2.955   2.305  11.052
 5435SOL    HW216638   3.093   2.273  10.971
 5436SOL     OW16639   3.022   2.069  10.787
 5436SOL    HW116640   3.022   2.133  10.864
 5436SOL    HW216641   3.050   2.117  10.704
 5437SOL     OW16642   1.870   3.188   9.510
 5437SOL    HW116643   1.777   3.209   9.479
 5437SOL    HW216644   1.880   3.089   9.523
 5438SOL     OW16645   1.950   3.663  10.237
 5438SOL    HW116646   1.908   3.577  10.210
 5438SOL    HW216647   2.044   3.666  10.203
 5439SOL     OW16648   2.366   3.430  10.220
 5439SOL    HW116649   2.432   3.504  10.229
 5439SOL    HW216650   2.410   3.351  10.178
 5440SOL     OW16651   2.864   2.658  10.548
 5440SOL    HW116652   2.905   2.626  10.634
 5440SOL    HW216653   2.768   2.631  10.545
 5441SOL     OW16654   1.902   2.406  10.424
 5441SOL    HW116655   1.987   2.373  10.383
 5441SOL    HW216656   1.915   2.421  10.522
 5442SOL     OW16657   3.231   2.812  10.970
 5442SOL    HW116658   3.270   2.901  10.990
 5442SOL    HW216659   3.241   2.792  10.873
 5443SOL     OW16660   2.677   2.434   9.635
 5443SOL    HW116661   2.684   2.345   9.589
 5443SOL    HW216662   2.583   2.468   9.627
 5444SOL     OW16663   3.519   2.466  10.516
 5444SOL    HW116664   3.481   2.397  10.578
 5444SOL    HW216665   3.601   2.430  10.472
 5445SOL     OW16666   2.114   3.426  11.054
 5445SOL    HW116667   2.084   3.483  11.130
 5445SOL    HW216668   2.107   3.329  11.080
 5446SOL     OW16669   2.792   3.540  10.775
 5446SOL    HW116670   2.768   3.522  10.680
 5446SOL    HW216671   2.822   3.634  10.785
 5447SOL     OW16672   2.021   2.999  10.776
 5447SOL    HW116673   2.043   2.938  10.852
 5447SOL    HW216674   2.031   2.950  10.690
 5448SOL     OW16675   3.209   2.921  10.544
 5448SOL    HW116676   3.233   2.858  10.470
 5448SOL    HW216677   3.119   2.961  10.526
 5449SOL     OW16678   3.164   2.717   9.619
 5449SOL    HW116679   3.078   2.686   9.661
 5449SOL    HW216680   3.160   2.703   9.520
 5450SOL     OW16681   3.621   3.609  10.464
 5450SOL    HW116682   3.682   3.639  10.391
 5450SOL    HW216683   3.583   3.520  10.442
 5451SOL     OW16684   3.114   3.593  10.438
 5451SOL    HW116685   3.198   3.598  10.384
 5451SOL    HW216686   3.091   3.497  10.456
 5452SOL     OW16687   1.945   3.120  10.332
 5452SOL    HW116688   1.940   3.119  10.432
 5452SOL    HW216689   1.862   3.079  10.294
 5453SOL     OW16690   2.550   3.524  11.026
 5453SOL    HW116691   2.494   3.605  11.035
 5453SOL    HW216692   2.602   3.528  10.940
 5454SOL     OW16693   3.588   1.997   9.833
 5454SOL    HW116694   3.661   1.980   9.766
 5454SOL    HW216695   3.557   1.910   9.871
 5455SOL     OW16696   3.250   3.435   9.787
 5455SOL    HW116697   3.317   3.447   9.713
 5455SOL    HW216698   3.210   3.524   9.810
 5456SOL     OW16699   1.992   3.656  11.161
 5456SOL    HW116700   1.951   3.582  11.214
 5456SOL    HW216701   2.056   3.707  11.219
 5457SOL     OW16702   3.142   2.789   9.982
 5457SOL    HW116703   3.202   2.708   9.984
 5457SOL    HW216704   3.182   2.858   9.922
 5458SOL     OW16705   2.692   3.135  10.732
 5458SOL    HW116706   2.687   3.168  10.827
 5458SOL    HW216707   2.606   3.154  10.686
 5459SOL     OW16708   2.534   3.478   9.464
 5459SOL    HW116709   2.543   3.488   9.365
 5459SOL    HW216710   2.494   3.389   9.485
 5460SOL     OW16711   3.512   3.582  10.704
 5460SOL    HW116712   3.565   3.592  10.620
 5460SOL    HW216713   3.485   3.672  10.738
 5461SOL     OW16714   3.703   2.037  10.273
 5461SOL    HW116715   3.742   1.952  10.237
 5461SOL    HW216716   3.605   2.039  10.254
 5462SOL     OW16717   3.056   3.474   9.341
 5462SOL    HW116718   3.062   3.381   9.378
 5462SOL    HW216719   2.997   3.474   9.261
 5463SOL     OW16720   2.684   2.864  10.682
 5463SOL    HW116721   2.724   2.863  10.590
 5463SOL    HW216722   2.694   2.956  10.722
 5464SOL     OW16723   2.778   2.772   9.601
 5464SOL    HW116724   2.841   2.810   9.533
 5464SOL    HW216725   2.818   2.689   9.640
 5465SOL     OW16726   3.366   3.469   9.354
 5465SOL    HW116727   3.274   3.506   9.361
 5465SOL    HW216728   3.404   3.489   9.264
 5466SOL     OW16729   2.234   3.150  10.800
 5466SOL    HW116730   2.221   3.243  10.766
 5466SOL    HW216731   2.150   3.098  10.787
 5467SOL     OW16732   3.476   3.154  10.599
 5467SOL    HW116733   3.536   3.157  10.679
 5467SOL    HW216734   3.401   3.218  10.612
 5468SOL     OW16735   2.901   2.960  10.006
 5468SOL    HW116736   2.831   2.913  10.060
 5468SOL    HW216737   2.960   2.892   9.963
 5469SOL     OW16738   2.876   2.098  10.281
 5469SOL    HW116739   2.868   2.062  10.188
 5469SOL    HW216740   2.874   2.022  10.346
 5470SOL     OW16741   2.452   3.349   9.801
 5470SOL    HW116742   2.494   3.291   9.731
 5470SOL    HW216743   2.408   3.428   9.757
 5471SOL     OW16744   3.571   2.247  10.691
 5471SOL    HW116745   3.644   2.316  10.695
 5471SOL    HW216746   3.599   2.172  10.632
 5472SOL     OW16747   2.117   3.210   9.600
 5472SOL    HW116748   2.021   3.211   9.573
 5472SOL    HW216749   2.129   3.263   9.684
 5473SOL     OW16750   1.967   2.875  11.036
 5473SOL    HW116751   1.890   2.842  11.090
 5473SOL    HW216752   2.052   2.845  11.078
 5474SOL     OW16753   2.534   2.065  10.799
 5474SOL    HW116754   2.624   2.049  10.759
 5474SOL    HW216755   2.542   2.070  10.898
 5475SOL     OW16756   1.937   2.207   9.343
 5475SOL    HW116757   1.845   2.179   9.314
 5475SOL    HW216758   1.968   2.284   9.287
 5476SOL     OW16759   3.302   2.718  10.708
 5476SOL    HW116760   3.245   2.770  10.645
 5476SOL    HW216761   3.398   2.730  10.684
 5477SOL     OW16762   1.934   2.028   9.628
 5477SOL    HW116763   1.917   2.111   9.574
 5477SOL    HW216764   2.024   1.991   9.606
 5478SOL     OW16765   3.045   3.197   9.429
 5478SOL    HW116766   2.946   3.186   9.431
 5478SOL    HW216767   3.079   3.212   9.522
 5479SOL     OW16768   2.475   2.704  10.741
 5479SOL    HW116769   2.531   2.785  10.724
 5479SOL    HW216770   2.534   2.624  10.744
 5480SOL     OW16771   3.355   3.629  10.269
 5480SOL    HW116772   3.388   3.693  10.200
 5480SOL    HW216773   3.421   3.623  10.344
 5481SOL     OW16774   2.578   2.427  11.018
 5481SOL    HW116775   2.597   2.492  11.092
 5481SOL    HW216776   2.638   2.347  11.027
 5482SOL     OW16777   3.312   3.082  10.943
 5482SOL    HW116778   3.303   3.072  11.042
 5482SOL    HW216779   3.408   3.075  10.917
 5483SOL     OW16780   2.252   3.603  10.870
 5483SOL    HW116781   2.161   3.644  10.868
 5483SOL    HW216782   2.245   3.509  10.902
 5484SOL     OW16783   3.536   2.745  10.564
 5484SOL    HW116784   3.509   2.656  10.527
 5484SOL    HW216785   3.537   2.813  10.491
 5485SOL     OW16786   3.087   2.187   9.759
 5485SOL    HW116787   3.152   2.113   9.748
 5485SOL    HW216788   3.107   2.237   9.843
 5486SOL     OW16789   2.456   2.607   9.962
 5486SOL    HW116790   2.506   2.692   9.943
 5486SOL    HW216791   2.368   2.609   9.914
 5487SOL     OW16792   3.639   2.204  10.952
 5487SOL    HW116793   3.622   2.235  10.858
 5487SOL    HW216794   3.555   2.167  10.990
 5488SOL     OW16795   3.592   2.796  10.827
 5488SOL    HW116796   3.630   2.887  10.842
 5488SOL    HW216797   3.584   2.779  10.728
 5489SOL     OW16798   2.721   3.236   9.326
 5489SOL    HW116799   2.675   3.251   9.414
 5489SOL    HW216800   2.765   3.321   9.296
 5490SOL     OW16801   2.523   3.652  10.263
 5490SOL    HW116802   2.477   3.740  10.250
 5490SOL    HW216803   2.622   3.664  10.256
 5491SOL     OW16804   2.721   2.818  10.171
 5491SOL    HW116805   2.775   2.749  10.219
 5491SOL    HW216806   2.689   2.887  10.237
 5492SOL     OW16807   2.945   2.846   9.397
 5492SOL    HW116808   2.922   2.899   9.315
 5492SOL    HW216809   3.026   2.790   9.378
 5493SOL     OW16810   3.723   3.431  10.161
 5493SOL    HW116811   3.652   3.419  10.091
 5493SOL    HW216812   3.724   3.352  10.221
 5494SOL     OW16813   2.083   3.176  11.154
 5494SOL    HW116814   2.018   3.103  11.133
 5494SOL    HW216815   2.087   3.190  11.252
 5495SOL     OW16816   1.941   3.102   9.963
 5495SOL    HW116817   1.940   3.055  10.051
 5495SOL    HW216818   2.023   3.074   9.912
 5496SOL     OW16819   2.534   3.253  10.934
 5496SOL    HW116820   2.456   3.203  10.972
 5496SOL    HW216821   2.531   3.348  10.965
 5497SOL     OW16822   3.686   2.054  10.537
 5497SOL    HW116823   3.682   1.964  10.581
 5497SOL    HW216824   3.689   2.043  10.438
 5498SOL     OW16825   3.567   3.349  10.414
 5498SOL    HW116826   3.474   3.324  10.387
 5498SOL    HW216827   3.593   3.299  10.496
 5499SOL     OW16828   2.674   3.448   9.997
 5499SOL    HW116829   2.706   3.458   9.903
 5499SOL    HW216830   2.595   3.386   9.999
 5500SOL     OW16831   3.286   2.076  10.422
 5500SOL    HW116832   3.338   2.011  10.477
 5500SOL    HW216833   3.237   2.139  10.483
 5501SOL     OW16834   2.863   1.896  10.464
 5501SOL    HW116835   2.800   1.824  10.433
 5501SOL    HW216836   2.956   1.860  10.464
 5502SOL     OW16837   2.632   3.192   9.611
 5502SOL    HW116838   2.586   3.105   9.628
 5502SOL    HW216839   2.723   3.189   9.652
 5503SOL     OW16840   2.480   3.429  10.594
 5503SOL    HW116841   2.475   3.511  10.651
 5503SOL    HW216842   2.569   3.426  10.549
 5504SOL     OW16843   3.214   1.914   9.478
 5504SOL    HW116844   3.249   1.873   9.394
 5504SOL    HW216845   3.124   1.876   9.498
 5505SOL     OW16846   3.162   2.315  10.001
 5505SOL    HW116847   3.103   2.395  10.005
 5505SOL    HW216848   3.177   2.280  10.094
 5506SOL     OW16849   3.455   2.083  10.192
 5506SOL    HW116850   3.371   2.082  10.246
 5506SOL    HW216851   3.457   2.166  10.136
 5507SOL     OW16852   1.901   2.939   9.610
 5507SOL    HW116853   2.000   2.928   9.601
 5507SOL    HW216854   1.861   2.853   9.642
 5508SOL     OW16855   2.737   3.508   9.647
 5508SOL    HW116856   2.660   3.473   9.593
 5508SOL    HW216857   2.705   3.579   9.709
 5509SOL     OW16858   2.092   4.352   0.113
 5509SOL    HW116859   1.999   4.350   0.150
 5509SOL    HW216860   2.093   4.313   0.021
 5510SOL     OW16861   2.087   3.999   0.996
 5510SOL    HW116862   2.122   3.982   1.088
 5510SOL    HW216863   1.999   3.954   0.984
 5511SOL     OW16864   1.881   4.092   0.647
 5511SOL    HW116865   1.799   4.135   0.686
 5511SOL    HW216866   1.853   4.019   0.584
 5512SOL     OW16867   3.617   4.331   0.231
 5512SOL    HW116868   3.605   4.318   0.132
 5512SOL    HW216869   3.587   4.250   0.280
 5513SOL     OW16870   2.547   4.736   0.665
 5513SOL    HW116871   2.616   4.720   0.735
 5513SOL    HW216872   2.474   4.793   0.703
 5514SOL     OW16873   2.300   4.116   1.499
 5514SOL    HW116874   2.382   4.060   1.508
 5514SOL    HW216875   2.219   4.058   1.503
 5515SOL     OW16876   3.465   4.171   0.737
 5515SOL    HW116877   3.391   4.217   0.687
 5515SOL    HW216878   3.516   4.239   0.790
 5516SOL     OW16879   3.456   3.838   1.480
 5516SOL    HW116880   3.438   3.905   1.408
 5516SOL    HW216881   3.453   3.884   1.569
 5517SOL     OW16882   1.984   4.367   0.563
 5517SOL    HW116883   1.939   4.279   0.580
 5517SOL    HW216884   1.983   4.421   0.647
 5518SOL     OW16885   1.975   4.461   1.597
 5518SOL    HW116886   2.063   4.448   1.642
 5518SOL    HW216887   1.962   4.558   1.575
 5519SOL     OW16888   2.671   3.728   0.502
 5519SOL    HW116889   2.711   3.819   0.493
 5519SOL    HW216890   2.571   3.736   0.508
 5520SOL     OW16891   2.179   3.975   1.801
 5520SOL    HW116892   2.250   4.046   1.807
 5520SOL    HW216893   2.091   4.014   1.829
 5521SOL     OW16894   3.143   4.069   0.944
 5521SOL    HW116895   3.057   4.019   0.931
 5521SOL    HW216896   3.205   4.015   1.000
 5522SOL     OW16897   2.669   4.329   1.465
 5522SOL    HW116898   2.622   4.326   1.554
 5522SOL    HW216899   2.618   4.274   1.399
 5523SOL     OW16900   3.256   4.193   1.674
 5523SOL    HW116901   3.236   4.236   1.762
 5523SOL    HW216902   3.334   4.131   1.683
 5524SOL     OW16903   2.853   4.134   1.242
 5524SOL    HW116904   2.776   4.168   1.296
 5524SOL    HW216905   2.819   4.083   1.163
 5525SOL     OW16906   2.903   4.425   0.429
 5525SOL    HW116907   2.929   4.421   0.525
 5525SOL    HW216908   2.818   4.374   0.415
 5526SOL     OW16909   2.727   4.072   0.195
 5526SOL    HW116910   2.786   4.135   0.146
 5526SOL    HW216911   2.746   3.978   0.166
 5527SOL     OW16912   3.581   4.309   1.831
 5527SOL    HW116913   3.555   4.398   1.795
 5527SOL    HW216914   3.579   4.241   1.758
 5528SOL     OW16915   2.412   3.920   0.885
 5528SOL    HW116916   2.407   3.915   0.985
 5528SOL    HW216917   2.414   4.016   0.856
 5529SOL     OW16918   3.320   4.459   0.728
 5529SOL    HW116919   3.315   4.394   0.803
 5529SOL    HW216920   3.400   4.518   0.741
 5530SOL     OW16921   2.064   4.009   1.498
 5530SOL    HW116922   1.984   4.069   1.485
 5530SOL    HW216923   2.054   3.960   1.584
 5531SOL     OW16924   3.262   3.831   0.426
 5531SOL    HW116925   3.238   3.794   0.336
 5531SOL    HW216926   3.361   3.847   0.430
 5532SOL     OW16927   2.244   4.424   0.480
 5532SOL    HW116928   2.289   4.334   0.477
 5532SOL    HW216929   2.150   4.413   0.513
 5533SOL     OW16930   3.409   3.946   1.729
 5533SOL    HW116931   3.404   3.983   1.821
 5533SOL    HW216932   3.337   3.877   1.717
 5534SOL     OW16933   2.476   3.846   0.117
 5534SOL    HW116934   2.574   3.824   0.124
 5534SOL    HW216935   2.445   3.829   0.024
 5535SOL     OW16936   2.643   3.988   1.749
 5535SOL    HW116937   2.710   3.927   1.792
 5535SOL    HW216938   2.570   4.007   1.814
 5536SOL     OW16939   3.213   4.314   1.433
 5536SOL    HW116940   3.241   4.271   1.518
 5536SOL    HW216941   3.238   4.410   1.434
 5537SOL     OW16942   2.784   4.227   0.899
 5537SOL    HW116943   2.759   4.218   0.803
 5537SOL    HW216944   2.832   4.145   0.930
 5538SOL     OW16945   2.401   3.788   0.512
 5538SOL    HW116946   2.320   3.789   0.570
 5538SOL    HW216947   2.404   3.871   0.457
 5539SOL     OW16948   2.159   3.759   0.171
 5539SOL    HW116949   2.208   3.843   0.150
 5539SOL    HW216950   2.221   3.694   0.216
 5540SOL     OW16951   2.797   3.960   0.480
 5540SOL    HW116952   2.749   4.001   0.402
 5540SOL    HW216953   2.896   3.958   0.461
 5541SOL     OW16954   2.938   4.407   1.464
 5541SOL    HW116955   2.858   4.346   1.467
 5541SOL    HW216956   3.019   4.354   1.440
 5542SOL     OW16957   2.894   4.273   0.016
 5542SOL    HW116958   2.853   4.355  -0.023
 5542SOL    HW216959   2.958   4.299   0.089
 5543SOL     OW16960   1.940   4.280   1.386
 5543SOL    HW116961   2.032   4.279   1.345
 5543SOL    HW216962   1.934   4.354   1.453
 5544SOL     OW16963   2.423   3.946   1.147
 5544SOL    HW116964   2.461   3.862   1.184
 5544SOL    HW216965   2.335   3.965   1.191
 5545SOL     OW16966   2.728   4.178   0.642
 5545SOL    HW116967   2.696   4.250   0.580
 5545SOL    HW216968   2.752   4.097   0.589
 5546SOL     OW16969   2.879   3.763   0.753
 5546SOL    HW116970   2.807   3.768   0.684
 5546SOL    HW216971   2.855   3.694   0.822
 5547SOL     OW16972   3.328   4.314   0.992
 5547SOL    HW116973   3.298   4.219   0.999
 5547SOL    HW216974   3.401   4.330   1.058
 5548SOL     OW16975   3.252   4.299   0.078
 5548SOL    HW116976   3.198   4.278   0.159
 5548SOL    HW216977   3.343   4.258   0.087
 5549SOL     OW16978   2.389   3.980   0.328
 5549SOL    HW116979   2.416   3.921   0.253
 5549SOL    HW216980   2.389   4.075   0.297
 5550SOL     OW16981   2.777   3.813   1.402
 5550SOL    HW116982   2.802   3.793   1.307
 5550SOL    HW216983   2.849   3.869   1.444
 5551SOL     OW16984   2.272   4.537   1.251
 5551SOL    HW116985   2.358   4.549   1.301
 5551SOL    HW216986   2.230   4.450   1.278
 5552SOL     OW16987   3.136   4.110   1.262
 5552SOL    HW116988   3.157   4.184   1.326
 5552SOL    HW216989   3.047   4.127   1.219
 5553SOL     OW16990   2.428   4.261   0.865
 5553SOL    HW116991   2.440   4.327   0.791
 5553SOL    HW216992   2.474   4.295   0.948
 5554SOL     OW16993   3.444   4.363   0.472
 5554SOL    HW116994   3.413   4.424   0.545
 5554SOL    HW216995   3.494   4.415   0.403
 5555SOL     OW16996   2.875   3.829   1.770
 5555SOL    HW116997   2.881   3.914   1.718
 5555SOL    HW216998   2.907   3.753   1.713
 5556SOL     OW16999   2.366   3.774   1.740
 5556SOL    HW117000   2.324   3.717   1.670
 5556SOL    HW217001   2.300   3.843   1.772
 5557SOL     OW17002   3.071   4.249   0.275
 5557SOL    HW117003   3.084   4.165   0.329
 5557SOL    HW217004   3.042   4.323   0.335
 5558SOL     OW17005   2.169   3.937   1.231
 5558SOL    HW117006   2.146   3.974   1.321
 5558SOL    HW217007   2.139   3.842   1.225
 5559SOL     OW17008   2.594   4.358   1.064
 5559SOL    HW117009   2.653   4.332   0.988
 5559SOL    HW217010   2.566   4.454   1.053
 5560SOL     OW17011   3.590   4.659   1.854
 5560SOL    HW117012   3.544   4.652   1.765
 5560SOL    HW217013   3.528   4.703   1.920
 5561SOL     OW17014   2.169   3.787   0.618
 5561SOL    HW117015   2.158   3.881   0.651
 5561SOL    HW217016   2.164   3.724   0.695
 5562SOL     OW17017   3.484   4.091   0.374
 5562SOL    HW117018   3.486   4.015   0.438
 5562SOL    HW217019   3.436   4.168   0.414
 5563SOL     OW17020   3.402   3.998   0.125
 5563SOL    HW117021   3.341   3.923   0.148
 5563SOL    HW217022   3.424   4.050   0.208
 5564SOL     OW17023   2.181   4.534   0.949
 5564SOL    HW117024   2.274   4.570   0.954
 5564SOL    HW217025   2.175   4.449   1.001
 5565SOL     OW17026   2.201   4.233   1.006
 5565SOL    HW117027   2.149   4.150   0.989
 5565SOL    HW217028   2.278   4.238   0.942
 5566SOL     OW17029   3.000   4.104   1.678
 5566SOL    HW117030   2.955   4.167   1.742
 5566SOL    HW217031   3.093   4.135   1.661
 5567SOL     OW17032   3.022   3.931   1.477
 5567SOL    HW117033   3.022   3.995   1.554
 5567SOL    HW217034   3.050   3.979   1.394
 5568SOL     OW17035   1.902   4.268   1.114
 5568SOL    HW117036   1.987   4.235   1.073
 5568SOL    HW217037   1.915   4.283   1.212
 5569SOL     OW17038   2.051   4.244   1.722
 5569SOL    HW117039   2.110   4.204   1.652
 5569SOL    HW217040   1.993   4.315   1.681
 5570SOL     OW17041   2.677   4.296   0.325
 5570SOL    HW117042   2.684   4.207   0.279
 5570SOL    HW217043   2.583   4.330   0.317
 5571SOL     OW17044   3.519   4.328   1.206
 5571SOL    HW117045   3.481   4.259   1.268
 5571SOL    HW217046   3.601   4.292   1.162
 5572SOL     OW17047   2.533   4.188   1.269
 5572SOL    HW117048   2.499   4.099   1.239
 5572SOL    HW217049   2.559   4.242   1.189
 5573SOL     OW17050   2.335   4.224   0.191
 5573SOL    HW117051   2.396   4.304   0.195
 5573SOL    HW217052   2.240   4.255   0.198
 5574SOL     OW17053   2.765   3.810   0.133
 5574SOL    HW117054   2.816   3.811   0.047
 5574SOL    HW217055   2.821   3.768   0.204
 5575SOL     OW17056   3.588   3.859   0.523
 5575SOL    HW117057   3.661   3.842   0.456
 5575SOL    HW217058   3.557   3.772   0.561
 5576SOL     OW17059   3.142   4.651   0.672
 5576SOL    HW117060   3.202   4.570   0.674
 5576SOL    HW217061   3.182   4.720   0.612
 5577SOL     OW17062   3.703   3.899   0.963
 5577SOL    HW117063   3.742   3.814   0.927
 5577SOL    HW217064   3.605   3.901   0.944
 5578SOL     OW17065   2.125   4.050   0.720
 5578SOL    HW117066   2.046   4.101   0.686
 5578SOL    HW217067   2.116   4.035   0.818
 5579SOL     OW17068   2.901   4.822   0.696
 5579SOL    HW117069   2.831   4.775   0.750
 5579SOL    HW217070   2.960   4.754   0.653
 5580SOL     OW17071   2.876   3.960   0.971
 5580SOL    HW117072   2.868   3.924   0.878
 5580SOL    HW217073   2.874   3.884   1.036
 5581SOL     OW17074   3.571   4.109   1.381
 5581SOL    HW117075   3.644   4.178   1.385
 5581SOL    HW217076   3.599   4.034   1.322
 5582SOL     OW17077   2.534   3.927   1.489
 5582SOL    HW117078   2.624   3.911   1.449
 5582SOL    HW217079   2.542   3.932   1.588
 5583SOL     OW17080   1.937   4.069   0.033
 5583SOL    HW117081   1.845   4.041   0.004
 5583SOL    HW217082   1.968   4.146  -0.023
 5584SOL     OW17083   1.934   3.890   0.318
 5584SOL    HW117084   1.917   3.973   0.264
 5584SOL    HW217085   2.024   3.853   0.296
 5585SOL     OW17086   2.578   4.289   1.708
 5585SOL    HW117087   2.597   4.354   1.782
 5585SOL    HW217088   2.638   4.209   1.717
 5586SOL     OW17089   3.087   4.049   0.449
 5586SOL    HW117090   3.152   3.975   0.438
 5586SOL    HW217091   3.107   4.099   0.533
 5587SOL     OW17092   3.639   4.066   1.642
 5587SOL    HW117093   3.622   4.097   1.548
 5587SOL    HW217094   3.555   4.029   1.680
 5588SOL     OW17095   2.945   4.708   0.087
 5588SOL    HW117096   2.922   4.761   0.005
 5588SOL    HW217097   3.026   4.652   0.068
 5589SOL     OW17098   3.686   3.916   1.227
 5589SOL    HW117099   3.682   3.826   1.271
 5589SOL    HW217100   3.689   3.905   1.128
 5590SOL     OW17101   2.290   4.148   0.520
 5590SOL    HW117102   2.320   4.076   0.458
 5590SOL    HW217103   2.251   4.108   0.603
 5591SOL     OW17104   2.179   4.271   1.280
 5591SOL    HW117105   2.217   4.212   1.352
 5591SOL    HW217106   2.219   4.245   1.192
 5592SOL     OW17107   3.286   3.938   1.112
 5592SOL    HW117108   3.338   3.873   1.167
 5592SOL    HW217109   3.237   4.001   1.173
 5593SOL     OW17110   2.863   3.758   1.154
 5593SOL    HW117111   2.800   3.686   1.123
 5593SOL    HW217112   2.956   3.722   1.154
 5594SOL     OW17113   3.214   3.776   0.168
 5594SOL    HW117114   3.249   3.735   0.084
 5594SOL    HW217115   3.124   3.738   0.188
 5595SOL     OW17116   3.162   4.177   0.691
 5595SOL    HW117117   3.103   4.257   0.695
 5595SOL    HW217118   3.177   4.142   0.784
 5596SOL     OW17119   3.455   3.945   0.882
 5596SOL    HW117120   3.371   3.944   0.936
 5596SOL    HW217121   3.457   4.028   0.826
 5597SOL     OW17122   2.092   4.352   1.975
 5597SOL    HW117123   1.999   4.350   2.012
 5597SOL    HW217124   2.093   4.313   1.883
 5598SOL     OW17125   2.087   3.999   2.858
 5598SOL    HW117126   2.122   3.982   2.950
 5598SOL    HW217127   1.999   3.954   2.846
 5599SOL     OW17128   1.881   4.092   2.509
 5599SOL    HW117129   1.799   4.135   2.548
 5599SOL    HW217130   1.853   4.019   2.446
 5600SOL     OW17131   3.617   4.331   2.093
 5600SOL    HW117132   3.605   4.318   1.994
 5600SOL    HW217133   3.587   4.250   2.142
 5601SOL     OW17134   2.547   4.736   2.527
 5601SOL    HW117135   2.616   4.720   2.597
 5601SOL    HW217136   2.474   4.793   2.565
 5602SOL     OW17137   2.300   4.116   3.361
 5602SOL    HW117138   2.382   4.060   3.370
 5602SOL    HW217139   2.219   4.058   3.365
 5603SOL     OW17140   3.465   4.171   2.599
 5603SOL    HW117141   3.391   4.217   2.549
 5603SOL    HW217142   3.516   4.239   2.652
 5604SOL     OW17143   3.456   3.838   3.342
 5604SOL    HW117144   3.438   3.905   3.270
 5604SOL    HW217145   3.453   3.884   3.431
 5605SOL     OW17146   1.984   4.367   2.425
 5605SOL    HW117147   1.939   4.279   2.442
 5605SOL    HW217148   1.983   4.421   2.509
 5606SOL     OW17149   1.975   4.461   3.459
 5606SOL    HW117150   2.063   4.448   3.504
 5606SOL    HW217151   1.962   4.558   3.437
 5607SOL     OW17152   2.671   3.728   2.364
 5607SOL    HW117153   2.711   3.819   2.355
 5607SOL    HW217154   2.571   3.736   2.370
 5608SOL     OW17155   2.179   3.975   3.663
 5608SOL    HW117156   2.250   4.046   3.669
 5608SOL    HW217157   2.091   4.014   3.691
 5609SOL     OW17158   3.143   4.069   2.806
 5609SOL    HW117159   3.057   4.019   2.793
 5609SOL    HW217160   3.205   4.015   2.862
 5610SOL     OW17161   2.669   4.329   3.327
 5610SOL    HW117162   2.622   4.326   3.416
 5610SOL    HW217163   2.618   4.274   3.261
 5611SOL     OW17164   3.256   4.193   3.536
 5611SOL    HW117165   3.236   4.236   3.624
 5611SOL    HW217166   3.334   4.131   3.545
 5612SOL     OW17167   2.853   4.134   3.104
 5612SOL    HW117168   2.776   4.168   3.158
 5612SOL    HW217169   2.819   4.083   3.025
 5613SOL     OW17170   2.903   4.425   2.291
 5613SOL    HW117171   2.929   4.421   2.387
 5613SOL    HW217172   2.818   4.374   2.277
 5614SOL     OW17173   2.727   4.072   2.057
 5614SOL    HW117174   2.786   4.135   2.008
 5614SOL    HW217175   2.746   3.978   2.028
 5615SOL     OW17176   3.581   4.309   3.693
 5615SOL    HW117177   3.555   4.398   3.657
 5615SOL    HW217178   3.579   4.241   3.620
 5616SOL     OW17179   2.412   3.920   2.747
 5616SOL    HW117180   2.407   3.915   2.847
 5616SOL    HW217181   2.414   4.016   2.718
 5617SOL     OW17182   3.320   4.459   2.590
 5617SOL    HW117183   3.315   4.394   2.665
 5617SOL    HW217184   3.400   4.518   2.603
 5618SOL     OW17185   2.064   4.009   3.360
 5618SOL    HW117186   1.984   4.069   3.347
 5618SOL    HW217187   2.054   3.960   3.446
 5619SOL     OW17188   3.262   3.831   2.288
 5619SOL    HW117189   3.238   3.794   2.198
 5619SOL    HW217190   3.361   3.847   2.292
 5620SOL     OW17191   2.244   4.424   2.342
 5620SOL    HW117192   2.289   4.334   2.339
 5620SOL    HW217193   2.150   4.413   2.375
 5621SOL     OW17194   3.409   3.946   3.591
 5621SOL    HW117195   3.404   3.983   3.683
 5621SOL    HW217196   3.337   3.877   3.579
 5622SOL     OW17197   2.476   3.846   1.979
 5622SOL    HW117198   2.574   3.824   1.986
 5622SOL    HW217199   2.445   3.829   1.886
 5623SOL     OW17200   2.643   3.988   3.611
 5623SOL    HW117201   2.710   3.927   3.654
 5623SOL    HW217202   2.570   4.007   3.676
 5624SOL     OW17203   3.213   4.314   3.295
 5624SOL    HW117204   3.241   4.271   3.380
 5624SOL    HW217205   3.238   4.410   3.296
 5625SOL     OW17206   2.784   4.227   2.761
 5625SOL    HW117207   2.759   4.218   2.665
 5625SOL    HW217208   2.832   4.145   2.792
 5626SOL     OW17209   2.401   3.788   2.374
 5626SOL    HW117210   2.320   3.789   2.432
 5626SOL    HW217211   2.404   3.871   2.319
 5627SOL     OW17212   2.159   3.759   2.033
 5627SOL    HW117213   2.208   3.843   2.012
 5627SOL    HW217214   2.221   3.694   2.078
 5628SOL     OW17215   2.797   3.960   2.342
 5628SOL    HW117216   2.749   4.001   2.264
 5628SOL    HW217217   2.896   3.958   2.323
 5629SOL     OW17218   2.938   4.407   3.326
 5629SOL    HW117219   2.858   4.346   3.329
 5629SOL    HW217220   3.019   4.354   3.302
 5630SOL     OW17221   2.894   4.273   1.878
 5630SOL    HW117222   2.853   4.355   1.839
 5630SOL    HW217223   2.958   4.299   1.951
 5631SOL     OW17224   1.940   4.280   3.248
 5631SOL    HW117225   2.032   4.279   3.207
 5631SOL    HW217226   1.934   4.354   3.315
 5632SOL     OW17227   2.423   3.946   3.009
 5632SOL    HW117228   2.461   3.862   3.046
 5632SOL    HW217229   2.335   3.965   3.053
 5633SOL     OW17230   2.728   4.178   2.504
 5633SOL    HW117231   2.696   4.250   2.442
 5633SOL    HW217232   2.752   4.097   2.451
 5634SOL     OW17233   2.879   3.763   2.615
 5634SOL    HW117234   2.807   3.768   2.546
 5634SOL    HW217235   2.855   3.694   2.684
 5635SOL     OW17236   3.328   4.314   2.854
 5635SOL    HW117237   3.298   4.219   2.861
 5635SOL    HW217238   3.401   4.330   2.920
 5636SOL     OW17239   3.252   4.299   1.940
 5636SOL    HW117240   3.198   4.278   2.021
 5636SOL    HW217241   3.343   4.258   1.949
 5637SOL     OW17242   2.389   3.980   2.190
 5637SOL    HW117243   2.416   3.921   2.115
 5637SOL    HW217244   2.389   4.075   2.159
 5638SOL     OW17245   2.777   3.813   3.264
 5638SOL    HW117246   2.802   3.793   3.169
 5638SOL    HW217247   2.849   3.869   3.306
 5639SOL     OW17248   2.272   4.537   3.113
 5639SOL    HW117249   2.358   4.549   3.163
 5639SOL    HW217250   2.230   4.450   3.140
 5640SOL     OW17251   3.136   4.110   3.124
 5640SOL    HW117252   3.157   4.184   3.188
 5640SOL    HW217253   3.047   4.127   3.081
 5641SOL     OW17254   2.428   4.261   2.727
 5641SOL    HW117255   2.440   4.327   2.653
 5641SOL    HW217256   2.474   4.295   2.810
 5642SOL     OW17257   3.444   4.363   2.334
 5642SOL    HW117258   3.413   4.424   2.407
 5642SOL    HW217259   3.494   4.415   2.265
 5643SOL     OW17260   2.875   3.829   3.632
 5643SOL    HW117261   2.881   3.914   3.580
 5643SOL    HW217262   2.907   3.753   3.575
 5644SOL     OW17263   2.366   3.774   3.602
 5644SOL    HW117264   2.324   3.717   3.532
 5644SOL    HW217265   2.300   3.843   3.634
 5645SOL     OW17266   3.071   4.249   2.137
 5645SOL    HW117267   3.084   4.165   2.191
 5645SOL    HW217268   3.042   4.323   2.197
 5646SOL     OW17269   2.169   3.937   3.093
 5646SOL    HW117270   2.146   3.974   3.183
 5646SOL    HW217271   2.139   3.842   3.087
 5647SOL     OW17272   2.594   4.358   2.926
 5647SOL    HW117273   2.653   4.332   2.850
 5647SOL    HW217274   2.566   4.454   2.915
 5648SOL     OW17275   3.590   4.659   3.716
 5648SOL    HW117276   3.544   4.652   3.627
 5648SOL    HW217277   3.528   4.703   3.782
 5649SOL     OW17278   2.169   3.787   2.480
 5649SOL    HW117279   2.158   3.881   2.513
 5649SOL    HW217280   2.164   3.724   2.557
 5650SOL     OW17281   3.484   4.091   2.236
 5650SOL    HW117282   3.486   4.015   2.300
 5650SOL    HW217283   3.436   4.168   2.276
 5651SOL     OW17284   3.402   3.998   1.987
 5651SOL    HW117285   3.341   3.923   2.010
 5651SOL    HW217286   3.424   4.050   2.070
 5652SOL     OW17287   2.181   4.534   2.811
 5652SOL    HW117288   2.274   4.570   2.816
 5652SOL    HW217289   2.175   4.449   2.863
 5653SOL     OW17290   2.201   4.233   2.868
 5653SOL    HW117291   2.149   4.150   2.851
 5653SOL    HW217292   2.278   4.238   2.804
 5654SOL     OW17293   3.000   4.104   3.540
 5654SOL    HW117294   2.955   4.167   3.604
 5654SOL    HW217295   3.093   4.135   3.523
 5655SOL     OW17296   3.022   3.931   3.339
 5655SOL    HW117297   3.022   3.995   3.416
 5655SOL    HW217298   3.050   3.979   3.256
 5656SOL     OW17299   1.902   4.268   2.976
 5656SOL    HW117300   1.987   4.235   2.935
 5656SOL    HW217301   1.915   4.283   3.074
 5657SOL     OW17302   2.051   4.244   3.584
 5657SOL    HW117303   2.110   4.204   3.514
 5657SOL    HW217304   1.993   4.315   3.543
 5658SOL     OW17305   2.677   4.296   2.187
 5658SOL    HW117306   2.684   4.207   2.141
 5658SOL    HW217307   2.583   4.330   2.179
 5659SOL     OW17308   3.519   4.328   3.068
 5659SOL    HW117309   3.481   4.259   3.130
 5659SOL    HW217310   3.601   4.292   3.024
 5660SOL     OW17311   2.533   4.188   3.131
 5660SOL    HW117312   2.499   4.099   3.101
 5660SOL    HW217313   2.559   4.242   3.051
 5661SOL     OW17314   2.335   4.224   2.053
 5661SOL    HW117315   2.396   4.304   2.057
 5661SOL    HW217316   2.240   4.255   2.060
 5662SOL     OW17317   3.588   3.859   2.385
 5662SOL    HW117318   3.661   3.842   2.318
 5662SOL    HW217319   3.557   3.772   2.423
 5663SOL     OW17320   3.142   4.651   2.534
 5663SOL    HW117321   3.202   4.570   2.536
 5663SOL    HW217322   3.182   4.720   2.474
 5664SOL     OW17323   3.703   3.899   2.825
 5664SOL    HW117324   3.742   3.814   2.789
 5664SOL    HW217325   3.605   3.901   2.806
 5665SOL     OW17326   2.125   4.050   2.582
 5665SOL    HW117327   2.046   4.101   2.548
 5665SOL    HW217328   2.116   4.035   2.680
 5666SOL     OW17329   2.778   4.634   2.153
 5666SOL    HW117330   2.841   4.672   2.085
 5666SOL    HW217331   2.818   4.551   2.192
 5667SOL     OW17332   2.901   4.822   2.558
 5667SOL    HW117333   2.831   4.775   2.612
 5667SOL    HW217334   2.960   4.754   2.515
 5668SOL     OW17335   2.876   3.960   2.833
 5668SOL    HW117336   2.868   3.924   2.740
 5668SOL    HW217337   2.874   3.884   2.898
 5669SOL     OW17338   3.571   4.109   3.243
 5669SOL    HW117339   3.644   4.178   3.247
 5669SOL    HW217340   3.599   4.034   3.184
 5670SOL     OW17341   2.534   3.927   3.351
 5670SOL    HW117342   2.624   3.911   3.311
 5670SOL    HW217343   2.542   3.932   3.450
 5671SOL     OW17344   1.937   4.069   1.895
 5671SOL    HW117345   1.845   4.041   1.866
 5671SOL    HW217346   1.968   4.146   1.839
 5672SOL     OW17347   1.934   3.890   2.180
 5672SOL    HW117348   1.917   3.973   2.126
 5672SOL    HW217349   2.024   3.853   2.158
 5673SOL     OW17350   2.578   4.289   3.570
 5673SOL    HW117351   2.597   4.354   3.644
 5673SOL    HW217352   2.638   4.209   3.579
 5674SOL     OW17353   3.087   4.049   2.311
 5674SOL    HW117354   3.152   3.975   2.300
 5674SOL    HW217355   3.107   4.099   2.395
 5675SOL     OW17356   3.639   4.066   3.504
 5675SOL    HW117357   3.622   4.097   3.410
 5675SOL    HW217358   3.555   4.029   3.542
 5676SOL     OW17359   2.945   4.708   1.949
 5676SOL    HW117360   2.922   4.761   1.867
 5676SOL    HW217361   3.026   4.652   1.930
 5677SOL     OW17362   3.686   3.916   3.089
 5677SOL    HW117363   3.682   3.826   3.133
 5677SOL    HW217364   3.689   3.905   2.990
 5678SOL     OW17365   2.290   4.148   2.382
 5678SOL    HW117366   2.320   4.076   2.320
 5678SOL    HW217367   2.251   4.108   2.465
 5679SOL     OW17368   2.179   4.271   3.142
 5679SOL    HW117369   2.217   4.212   3.214
 5679SOL    HW217370   2.219   4.245   3.054
 5680SOL     OW17371   3.286   3.938   2.974
 5680SOL    HW117372   3.338   3.873   3.029
 5680SOL    HW217373   3.237   4.001   3.035
 5681SOL     OW17374   2.863   3.758   3.016
 5681SOL    HW117375   2.800   3.686   2.985
 5681SOL    HW217376   2.956   3.722   3.016
 5682SOL     OW17377   3.214   3.776   2.030
 5682SOL    HW117378   3.249   3.735   1.946
 5682SOL    HW217379   3.124   3.738   2.050
 5683SOL     OW17380   3.162   4.177   2.553
 5683SOL    HW117381   3.103   4.257   2.557
 5683SOL    HW217382   3.177   4.142   2.646
 5684SOL     OW17383   3.455   3.945   2.744
 5684SOL    HW117384   3.371   3.944   2.798
 5684SOL    HW217385   3.457   4.028   2.688
 5685SOL     OW17386   2.092   4.352   3.837
 5685SOL    HW117387   1.999   4.350   3.874
 5685SOL    HW217388   2.093   4.313   3.745
 5686SOL     OW17389   2.087   3.999   4.720
 5686SOL    HW117390   2.122   3.982   4.812
 5686SOL    HW217391   1.999   3.954   4.708
 5687SOL     OW17392   1.881   4.092   4.371
 5687SOL    HW117393   1.799   4.135   4.410
 5687SOL    HW217394   1.853   4.019   4.308
 5688SOL     OW17395   3.617   4.331   3.955
 5688SOL    HW117396   3.605   4.318   3.856
 5688SOL    HW217397   3.587   4.250   4.004
 5689SOL     OW17398   2.547   4.736   4.389
 5689SOL    HW117399   2.616   4.720   4.459
 5689SOL    HW217400   2.474   4.793   4.427
 5690SOL     OW17401   2.300   4.116   5.223
 5690SOL    HW117402   2.382   4.060   5.232
 5690SOL    HW217403   2.219   4.058   5.227
 5691SOL     OW17404   3.465   4.171   4.461
 5691SOL    HW117405   3.391   4.217   4.411
 5691SOL    HW217406   3.516   4.239   4.514
 5692SOL     OW17407   3.456   3.838   5.204
 5692SOL    HW117408   3.438   3.905   5.132
 5692SOL    HW217409   3.453   3.884   5.293
 5693SOL     OW17410   1.984   4.367   4.287
 5693SOL    HW117411   1.939   4.279   4.304
 5693SOL    HW217412   1.983   4.421   4.371
 5694SOL     OW17413   1.975   4.461   5.321
 5694SOL    HW117414   2.063   4.448   5.366
 5694SOL    HW217415   1.962   4.558   5.299
 5695SOL     OW17416   2.671   3.728   4.226
 5695SOL    HW117417   2.711   3.819   4.217
 5695SOL    HW217418   2.571   3.736   4.232
 5696SOL     OW17419   2.179   3.975   5.525
 5696SOL    HW117420   2.250   4.046   5.531
 5696SOL    HW217421   2.091   4.014   5.553
 5697SOL     OW17422   3.143   4.069   4.668
 5697SOL    HW117423   3.057   4.019   4.655
 5697SOL    HW217424   3.205   4.015   4.724
 5698SOL     OW17425   2.669   4.329   5.189
 5698SOL    HW117426   2.622   4.326   5.278
 5698SOL    HW217427   2.618   4.274   5.123
 5699SOL     OW17428   3.256   4.193   5.398
 5699SOL    HW117429   3.236   4.236   5.486
 5699SOL    HW217430   3.334   4.131   5.407
 5700SOL     OW17431   2.853   4.134   4.966
 5700SOL    HW117432   2.776   4.168   5.020
 5700SOL    HW217433   2.819   4.083   4.887
 5701SOL     OW17434   2.903   4.425   4.153
 5701SOL    HW117435   2.929   4.421   4.249
 5701SOL    HW217436   2.818   4.374   4.139
 5702SOL     OW17437   2.727   4.072   3.919
 5702SOL    HW117438   2.786   4.135   3.870
 5702SOL    HW217439   2.746   3.978   3.890
 5703SOL     OW17440   3.581   4.309   5.555
 5703SOL    HW117441   3.555   4.398   5.519
 5703SOL    HW217442   3.579   4.241   5.482
 5704SOL     OW17443   2.412   3.920   4.609
 5704SOL    HW117444   2.407   3.915   4.709
 5704SOL    HW217445   2.414   4.016   4.580
 5705SOL     OW17446   3.320   4.459   4.452
 5705SOL    HW117447   3.315   4.394   4.527
 5705SOL    HW217448   3.400   4.518   4.465
 5706SOL     OW17449   2.064   4.009   5.222
 5706SOL    HW117450   1.984   4.069   5.209
 5706SOL    HW217451   2.054   3.960   5.308
 5707SOL     OW17452   3.262   3.831   4.150
 5707SOL    HW117453   3.238   3.794   4.060
 5707SOL    HW217454   3.361   3.847   4.154
 5708SOL     OW17455   2.244   4.424   4.204
 5708SOL    HW117456   2.289   4.334   4.201
 5708SOL    HW217457   2.150   4.413   4.237
 5709SOL     OW17458   3.409   3.946   5.453
 5709SOL    HW117459   3.404   3.983   5.545
 5709SOL    HW217460   3.337   3.877   5.441
 5710SOL     OW17461   2.476   3.846   3.841
 5710SOL    HW117462   2.574   3.824   3.848
 5710SOL    HW217463   2.445   3.829   3.748
 5711SOL     OW17464   2.643   3.988   5.473
 5711SOL    HW117465   2.710   3.927   5.516
 5711SOL    HW217466   2.570   4.007   5.538
 5712SOL     OW17467   3.213   4.314   5.157
 5712SOL    HW117468   3.241   4.271   5.242
 5712SOL    HW217469   3.238   4.410   5.158
 5713SOL     OW17470   2.784   4.227   4.623
 5713SOL    HW117471   2.759   4.218   4.527
 5713SOL    HW217472   2.832   4.145   4.654
 5714SOL     OW17473   2.401   3.788   4.236
 5714SOL    HW117474   2.320   3.789   4.294
 5714SOL    HW217475   2.404   3.871   4.181
 5715SOL     OW17476   2.159   3.759   3.895
 5715SOL    HW117477   2.208   3.843   3.874
 5715SOL    HW217478   2.221   3.694   3.940
 5716SOL     OW17479   2.797   3.960   4.204
 5716SOL    HW117480   2.749   4.001   4.126
 5716SOL    HW217481   2.896   3.958   4.185
 5717SOL     OW17482   2.938   4.407   5.188
 5717SOL    HW117483   2.858   4.346   5.191
 5717SOL    HW217484   3.019   4.354   5.164
 5718SOL     OW17485   2.894   4.273   3.740
 5718SOL    HW117486   2.853   4.355   3.701
 5718SOL    HW217487   2.958   4.299   3.813
 5719SOL     OW17488   1.940   4.280   5.110
 5719SOL    HW117489   2.032   4.279   5.069
 5719SOL    HW217490   1.934   4.354   5.177
 5720SOL     OW17491   2.423   3.946   4.871
 5720SOL    HW117492   2.461   3.862   4.908
 5720SOL    HW217493   2.335   3.965   4.915
 5721SOL     OW17494   2.728   4.178   4.366
 5721SOL    HW117495   2.696   4.250   4.304
 5721SOL    HW217496   2.752   4.097   4.313
 5722SOL     OW17497   2.879   3.763   4.477
 5722SOL    HW117498   2.807   3.768   4.408
 5722SOL    HW217499   2.855   3.694   4.546
 5723SOL     OW17500   3.328   4.314   4.716
 5723SOL    HW117501   3.298   4.219   4.723
 5723SOL    HW217502   3.401   4.330   4.782
 5724SOL     OW17503   3.252   4.299   3.802
 5724SOL    HW117504   3.198   4.278   3.883
 5724SOL    HW217505   3.343   4.258   3.811
 5725SOL     OW17506   2.389   3.980   4.052
 5725SOL    HW117507   2.416   3.921   3.977
 5725SOL    HW217508   2.389   4.075   4.021
 5726SOL     OW17509   2.777   3.813   5.126
 5726SOL    HW117510   2.802   3.793   5.031
 5726SOL    HW217511   2.849   3.869   5.168
 5727SOL     OW17512   2.272   4.537   4.975
 5727SOL    HW117513   2.358   4.549   5.025
 5727SOL    HW217514   2.230   4.450   5.002
 5728SOL     OW17515   3.136   4.110   4.986
 5728SOL    HW117516   3.157   4.184   5.050
 5728SOL    HW217517   3.047   4.127   4.943
 5729SOL     OW17518   2.428   4.261   4.589
 5729SOL    HW117519   2.440   4.327   4.515
 5729SOL    HW217520   2.474   4.295   4.672
 5730SOL     OW17521   3.444   4.363   4.196
 5730SOL    HW117522   3.413   4.424   4.269
 5730SOL    HW217523   3.494   4.415   4.127
 5731SOL     OW17524   2.875   3.829   5.494
 5731SOL    HW117525   2.881   3.914   5.442
 5731SOL    HW217526   2.907   3.753   5.437
 5732SOL     OW17527   2.366   3.774   5.464
 5732SOL    HW117528   2.324   3.717   5.394
 5732SOL    HW217529   2.300   3.843   5.496
 5733SOL     OW17530   3.071   4.249   3.999
 5733SOL    HW117531   3.084   4.165   4.053
 5733SOL    HW217532   3.042   4.323   4.059
 5734SOL     OW17533   2.169   3.937   4.955
 5734SOL    HW117534   2.146   3.974   5.045
 5734SOL    HW217535   2.139   3.842   4.949
 5735SOL     OW17536   2.594   4.358   4.788
 5735SOL    HW117537   2.653   4.332   4.712
 5735SOL    HW217538   2.566   4.454   4.777
 5736SOL     OW17539   3.590   4.659   5.578
 5736SOL    HW117540   3.544   4.652   5.489
 5736SOL    HW217541   3.528   4.703   5.644
 5737SOL     OW17542   2.169   3.787   4.342
 5737SOL    HW117543   2.158   3.881   4.375
 5737SOL    HW217544   2.164   3.724   4.419
 5738SOL     OW17545   3.484   4.091   4.098
 5738SOL    HW117546   3.486   4.015   4.162
 5738SOL    HW217547   3.436   4.168   4.138
 5739SOL     OW17548   3.402   3.998   3.849
 5739SOL    HW117549   3.341   3.923   3.872
 5739SOL    HW217550   3.424   4.050   3.932
 5740SOL     OW17551   2.181   4.534   4.673
 5740SOL    HW117552   2.274   4.570   4.678
 5740SOL    HW217553   2.175   4.449   4.725
 5741SOL     OW17554   2.201   4.233   4.730
 5741SOL    HW117555   2.149   4.150   4.713
 5741SOL    HW217556   2.278   4.238   4.666
 5742SOL     OW17557   3.000   4.104   5.402
 5742SOL    HW117558   2.955   4.167   5.466
 5742SOL    HW217559   3.093   4.135   5.385
 5743SOL     OW17560   3.022   3.931   5.201
 5743SOL    HW117561   3.022   3.995   5.278
 5743SOL    HW217562   3.050   3.979   5.118
 5744SOL     OW17563   1.902   4.268   4.838
 5744SOL    HW117564   1.987   4.235   4.797
 5744SOL    HW217565   1.915   4.283   4.936
 5745SOL     OW17566   2.051   4.244   5.446
 5745SOL    HW117567   2.110   4.204   5.376
 5745SOL    HW217568   1.993   4.315   5.405
 5746SOL     OW17569   2.677   4.296   4.049
 5746SOL    HW117570   2.684   4.207   4.003
 5746SOL    HW217571   2.583   4.330   4.041
 5747SOL     OW17572   3.519   4.328   4.930
 5747SOL    HW117573   3.481   4.259   4.992
 5747SOL    HW217574   3.601   4.292   4.886
 5748SOL     OW17575   2.533   4.188   4.993
 5748SOL    HW117576   2.499   4.099   4.963
 5748SOL    HW217577   2.559   4.242   4.913
 5749SOL     OW17578   2.335   4.224   3.915
 5749SOL    HW117579   2.396   4.304   3.919
 5749SOL    HW217580   2.240   4.255   3.922
 5750SOL     OW17581   3.588   3.859   4.247
 5750SOL    HW117582   3.661   3.842   4.180
 5750SOL    HW217583   3.557   3.772   4.285
 5751SOL     OW17584   3.142   4.651   4.396
 5751SOL    HW117585   3.202   4.570   4.398
 5751SOL    HW217586   3.182   4.720   4.336
 5752SOL     OW17587   3.703   3.899   4.687
 5752SOL    HW117588   3.742   3.814   4.651
 5752SOL    HW217589   3.605   3.901   4.668
 5753SOL     OW17590   2.125   4.050   4.444
 5753SOL    HW117591   2.046   4.101   4.410
 5753SOL    HW217592   2.116   4.035   4.542
 5754SOL     OW17593   2.778   4.634   4.015
 5754SOL    HW117594   2.841   4.672   3.947
 5754SOL    HW217595   2.818   4.551   4.054
 5755SOL     OW17596   2.901   4.822   4.420
 5755SOL    HW117597   2.831   4.775   4.474
 5755SOL    HW217598   2.960   4.754   4.377
 5756SOL     OW17599   2.876   3.960   4.695
 5756SOL    HW117600   2.868   3.924   4.602
 5756SOL    HW217601   2.874   3.884   4.760
 5757SOL     OW17602   3.571   4.109   5.105
 5757SOL    HW117603   3.644   4.178   5.109
 5757SOL    HW217604   3.599   4.034   5.046
 5758SOL     OW17605   2.534   3.927   5.213
 5758SOL    HW117606   2.624   3.911   5.173
 5758SOL    HW217607   2.542   3.932   5.312
 5759SOL     OW17608   1.937   4.069   3.757
 5759SOL    HW117609   1.845   4.041   3.728
 5759SOL    HW217610   1.968   4.146   3.701
 5760SOL     OW17611   1.934   3.890   4.042
 5760SOL    HW117612   1.917   3.973   3.988
 5760SOL    HW217613   2.024   3.853   4.020
 5761SOL     OW17614   2.578   4.289   5.432
 5761SOL    HW117615   2.597   4.354   5.506
 5761SOL    HW217616   2.638   4.209   5.441
 5762SOL     OW17617   3.087   4.049   4.173
 5762SOL    HW117618   3.152   3.975   4.162
 5762SOL    HW217619   3.107   4.099   4.257
 5763SOL     OW17620   3.639   4.066   5.366
 5763SOL    HW117621   3.622   4.097   5.272
 5763SOL    HW217622   3.555   4.029   5.404
 5764SOL     OW17623   2.945   4.708   3.811
 5764SOL    HW117624   2.922   4.761   3.729
 5764SOL    HW217625   3.026   4.652   3.792
 5765SOL     OW17626   3.686   3.916   4.951
 5765SOL    HW117627   3.682   3.826   4.995
 5765SOL    HW217628   3.689   3.905   4.852
 5766SOL     OW17629   2.290   4.148   4.244
 5766SOL    HW117630   2.320   4.076   4.182
 5766SOL    HW217631   2.251   4.108   4.327
 5767SOL     OW17632   2.179   4.271   5.004
 5767SOL    HW117633   2.217   4.212   5.076
 5767SOL    HW217634   2.219   4.245   4.916
 5768SOL     OW17635   3.286   3.938   4.836
 5768SOL    HW117636   3.338   3.873   4.891
 5768SOL    HW217637   3.237   4.001   4.897
 5769SOL     OW17638   2.863   3.758   4.878
 5769SOL    HW117639   2.800   3.686   4.847
 5769SOL    HW217640   2.956   3.722   4.878
 5770SOL     OW17641   3.214   3.776   3.892
 5770SOL    HW117642   3.249   3.735   3.808
 5770SOL    HW217643   3.124   3.738   3.912
 5771SOL     OW17644   3.162   4.177   4.415
 5771SOL    HW117645   3.103   4.257   4.419
 5771SOL    HW217646   3.177   4.142   4.508
 5772SOL     OW17647   3.455   3.945   4.606
 5772SOL    HW117648   3.371   3.944   4.660
 5772SOL    HW217649   3.457   4.028   4.550
 5773SOL     OW17650   2.092   4.352   5.699
 5773SOL    HW117651   1.999   4.350   5.736
 5773SOL    HW217652   2.093   4.313   5.607
 5774SOL     OW17653   2.087   3.999   6.582
 5774SOL    HW117654   2.122   3.982   6.674
 5774SOL    HW217655   1.999   3.954   6.570
 5775SOL     OW17656   1.881   4.092   6.233
 5775SOL    HW117657   1.799   4.135   6.272
 5775SOL    HW217658   1.853   4.019   6.170
 5776SOL     OW17659   3.617   4.331   5.817
 5776SOL    HW117660   3.605   4.318   5.718
 5776SOL    HW217661   3.587   4.250   5.866
 5777SOL     OW17662   2.547   4.736   6.251
 5777SOL    HW117663   2.616   4.720   6.321
 5777SOL    HW217664   2.474   4.793   6.289
 5778SOL     OW17665   2.300   4.116   7.085
 5778SOL    HW117666   2.382   4.060   7.094
 5778SOL    HW217667   2.219   4.058   7.089
 5779SOL     OW17668   3.465   4.171   6.323
 5779SOL    HW117669   3.391   4.217   6.273
 5779SOL    HW217670   3.516   4.239   6.376
 5780SOL     OW17671   3.456   3.838   7.066
 5780SOL    HW117672   3.438   3.905   6.994
 5780SOL    HW217673   3.453   3.884   7.155
 5781SOL     OW17674   1.984   4.367   6.149
 5781SOL    HW117675   1.939   4.279   6.166
 5781SOL    HW217676   1.983   4.421   6.233
 5782SOL     OW17677   1.975   4.461   7.183
 5782SOL    HW117678   2.063   4.448   7.228
 5782SOL    HW217679   1.962   4.558   7.161
 5783SOL     OW17680   2.671   3.728   6.088
 5783SOL    HW117681   2.711   3.819   6.079
 5783SOL    HW217682   2.571   3.736   6.094
 5784SOL     OW17683   2.179   3.975   7.387
 5784SOL    HW117684   2.250   4.046   7.393
 5784SOL    HW217685   2.091   4.014   7.415
 5785SOL     OW17686   3.143   4.069   6.530
 5785SOL    HW117687   3.057   4.019   6.517
 5785SOL    HW217688   3.205   4.015   6.586
 5786SOL     OW17689   2.669   4.329   7.051
 5786SOL    HW117690   2.622   4.326   7.140
 5786SOL    HW217691   2.618   4.274   6.985
 5787SOL     OW17692   3.256   4.193   7.260
 5787SOL    HW117693   3.236   4.236   7.348
 5787SOL    HW217694   3.334   4.131   7.269
 5788SOL     OW17695   2.853   4.134   6.828
 5788SOL    HW117696   2.776   4.168   6.882
 5788SOL    HW217697   2.819   4.083   6.749
 5789SOL     OW17698   2.903   4.425   6.015
 5789SOL    HW117699   2.929   4.421   6.111
 5789SOL    HW217700   2.818   4.374   6.001
 5790SOL     OW17701   2.727   4.072   5.781
 5790SOL    HW117702   2.786   4.135   5.732
 5790SOL    HW217703   2.746   3.978   5.752
 5791SOL     OW17704   3.581   4.309   7.417
 5791SOL    HW117705   3.555   4.398   7.381
 5791SOL    HW217706   3.579   4.241   7.344
 5792SOL     OW17707   2.412   3.920   6.471
 5792SOL    HW117708   2.407   3.915   6.571
 5792SOL    HW217709   2.414   4.016   6.442
 5793SOL     OW17710   3.320   4.459   6.314
 5793SOL    HW117711   3.315   4.394   6.389
 5793SOL    HW217712   3.400   4.518   6.327
 5794SOL     OW17713   2.064   4.009   7.084
 5794SOL    HW117714   1.984   4.069   7.071
 5794SOL    HW217715   2.054   3.960   7.170
 5795SOL     OW17716   3.262   3.831   6.012
 5795SOL    HW117717   3.238   3.794   5.922
 5795SOL    HW217718   3.361   3.847   6.016
 5796SOL     OW17719   2.244   4.424   6.066
 5796SOL    HW117720   2.289   4.334   6.063
 5796SOL    HW217721   2.150   4.413   6.099
 5797SOL     OW17722   3.409   3.946   7.315
 5797SOL    HW117723   3.404   3.983   7.407
 5797SOL    HW217724   3.337   3.877   7.303
 5798SOL     OW17725   2.476   3.846   5.703
 5798SOL    HW117726   2.574   3.824   5.710
 5798SOL    HW217727   2.445   3.829   5.610
 5799SOL     OW17728   2.643   3.988   7.335
 5799SOL    HW117729   2.710   3.927   7.378
 5799SOL    HW217730   2.570   4.007   7.400
 5800SOL     OW17731   3.213   4.314   7.019
 5800SOL    HW117732   3.241   4.271   7.104
 5800SOL    HW217733   3.238   4.410   7.020
 5801SOL     OW17734   2.784   4.227   6.485
 5801SOL    HW117735   2.759   4.218   6.389
 5801SOL    HW217736   2.832   4.145   6.516
 5802SOL     OW17737   2.401   3.788   6.098
 5802SOL    HW117738   2.320   3.789   6.156
 5802SOL    HW217739   2.404   3.871   6.043
 5803SOL     OW17740   2.159   3.759   5.757
 5803SOL    HW117741   2.208   3.843   5.736
 5803SOL    HW217742   2.221   3.694   5.802
 5804SOL     OW17743   2.797   3.960   6.066
 5804SOL    HW117744   2.749   4.001   5.988
 5804SOL    HW217745   2.896   3.958   6.047
 5805SOL     OW17746   2.938   4.407   7.050
 5805SOL    HW117747   2.858   4.346   7.053
 5805SOL    HW217748   3.019   4.354   7.026
 5806SOL     OW17749   2.894   4.273   5.602
 5806SOL    HW117750   2.853   4.355   5.563
 5806SOL    HW217751   2.958   4.299   5.675
 5807SOL     OW17752   1.940   4.280   6.972
 5807SOL    HW117753   2.032   4.279   6.931
 5807SOL    HW217754   1.934   4.354   7.039
 5808SOL     OW17755   2.423   3.946   6.733
 5808SOL    HW117756   2.461   3.862   6.770
 5808SOL    HW217757   2.335   3.965   6.777
 5809SOL     OW17758   2.728   4.178   6.228
 5809SOL    HW117759   2.696   4.250   6.166
 5809SOL    HW217760   2.752   4.097   6.175
 5810SOL     OW17761   2.879   3.763   6.339
 5810SOL    HW117762   2.807   3.768   6.270
 5810SOL    HW217763   2.855   3.694   6.408
 5811SOL     OW17764   3.328   4.314   6.578
 5811SOL    HW117765   3.298   4.219   6.585
 5811SOL    HW217766   3.401   4.330   6.644
 5812SOL     OW17767   3.252   4.299   5.664
 5812SOL    HW117768   3.198   4.278   5.745
 5812SOL    HW217769   3.343   4.258   5.673
 5813SOL     OW17770   2.389   3.980   5.914
 5813SOL    HW117771   2.416   3.921   5.839
 5813SOL    HW217772   2.389   4.075   5.883
 5814SOL     OW17773   2.777   3.813   6.988
 5814SOL    HW117774   2.802   3.793   6.893
 5814SOL    HW217775   2.849   3.869   7.030
 5815SOL     OW17776   2.272   4.537   6.837
 5815SOL    HW117777   2.358   4.549   6.887
 5815SOL    HW217778   2.230   4.450   6.864
 5816SOL     OW17779   3.136   4.110   6.848
 5816SOL    HW117780   3.157   4.184   6.912
 5816SOL    HW217781   3.047   4.127   6.805
 5817SOL     OW17782   2.428   4.261   6.451
 5817SOL    HW117783   2.440   4.327   6.377
 5817SOL    HW217784   2.474   4.295   6.534
 5818SOL     OW17785   3.444   4.363   6.058
 5818SOL    HW117786   3.413   4.424   6.131
 5818SOL    HW217787   3.494   4.415   5.989
 5819SOL     OW17788   2.875   3.829   7.356
 5819SOL    HW117789   2.881   3.914   7.304
 5819SOL    HW217790   2.907   3.753   7.299
 5820SOL     OW17791   2.366   3.774   7.326
 5820SOL    HW117792   2.324   3.717   7.256
 5820SOL    HW217793   2.300   3.843   7.358
 5821SOL     OW17794   3.071   4.249   5.861
 5821SOL    HW117795   3.084   4.165   5.915
 5821SOL    HW217796   3.042   4.323   5.921
 5822SOL     OW17797   2.169   3.937   6.817
 5822SOL    HW117798   2.146   3.974   6.907
 5822SOL    HW217799   2.139   3.842   6.811
 5823SOL     OW17800   2.594   4.358   6.650
 5823SOL    HW117801   2.653   4.332   6.574
 5823SOL    HW217802   2.566   4.454   6.639
 5824SOL     OW17803   3.590   4.659   7.440
 5824SOL    HW117804   3.544   4.652   7.351
 5824SOL    HW217805   3.528   4.703   7.506
 5825SOL     OW17806   2.169   3.787   6.204
 5825SOL    HW117807   2.158   3.881   6.237
 5825SOL    HW217808   2.164   3.724   6.281
 5826SOL     OW17809   3.484   4.091   5.960
 5826SOL    HW117810   3.486   4.015   6.024
 5826SOL    HW217811   3.436   4.168   6.000
 5827SOL     OW17812   3.402   3.998   5.711
 5827SOL    HW117813   3.341   3.923   5.734
 5827SOL    HW217814   3.424   4.050   5.794
 5828SOL     OW17815   2.181   4.534   6.535
 5828SOL    HW117816   2.274   4.570   6.540
 5828SOL    HW217817   2.175   4.449   6.587
 5829SOL     OW17818   2.201   4.233   6.592
 5829SOL    HW117819   2.149   4.150   6.575
 5829SOL    HW217820   2.278   4.238   6.528
 5830SOL     OW17821   3.000   4.104   7.264
 5830SOL    HW117822   2.955   4.167   7.328
 5830SOL    HW217823   3.093   4.135   7.247
 5831SOL     OW17824   3.022   3.931   7.063
 5831SOL    HW117825   3.022   3.995   7.140
 5831SOL    HW217826   3.050   3.979   6.980
 5832SOL     OW17827   1.902   4.268   6.700
 5832SOL    HW117828   1.987   4.235   6.659
 5832SOL    HW217829   1.915   4.283   6.798
 5833SOL     OW17830   2.051   4.244   7.308
 5833SOL    HW117831   2.110   4.204   7.238
 5833SOL    HW217832   1.993   4.315   7.267
 5834SOL     OW17833   2.677   4.296   5.911
 5834SOL    HW117834   2.684   4.207   5.865
 5834SOL    HW217835   2.583   4.330   5.903
 5835SOL     OW17836   3.519   4.328   6.792
 5835SOL    HW117837   3.481   4.259   6.854
 5835SOL    HW217838   3.601   4.292   6.748
 5836SOL     OW17839   2.533   4.188   6.855
 5836SOL    HW117840   2.499   4.099   6.825
 5836SOL    HW217841   2.559   4.242   6.775
 5837SOL     OW17842   2.335   4.224   5.777
 5837SOL    HW117843   2.396   4.304   5.781
 5837SOL    HW217844   2.240   4.255   5.784
 5838SOL     OW17845   3.588   3.859   6.109
 5838SOL    HW117846   3.661   3.842   6.042
 5838SOL    HW217847   3.557   3.772   6.147
 5839SOL     OW17848   3.142   4.651   6.258
 5839SOL    HW117849   3.202   4.570   6.260
 5839SOL    HW217850   3.182   4.720   6.198
 5840SOL     OW17851   3.703   3.899   6.549
 5840SOL    HW117852   3.742   3.814   6.513
 5840SOL    HW217853   3.605   3.901   6.530
 5841SOL     OW17854   2.125   4.050   6.306
 5841SOL    HW117855   2.046   4.101   6.272
 5841SOL    HW217856   2.116   4.035   6.404
 5842SOL     OW17857   2.778   4.634   5.877
 5842SOL    HW117858   2.841   4.672   5.809
 5842SOL    HW217859   2.818   4.551   5.916
 5843SOL     OW17860   2.901   4.822   6.282
 5843SOL    HW117861   2.831   4.775   6.336
 5843SOL    HW217862   2.960   4.754   6.239
 5844SOL     OW17863   2.876   3.960   6.557
 5844SOL    HW117864   2.868   3.924   6.464
 5844SOL    HW217865   2.874   3.884   6.622
 5845SOL     OW17866   3.571   4.109   6.967
 5845SOL    HW117867   3.644   4.178   6.971
 5845SOL    HW217868   3.599   4.034   6.908
 5846SOL     OW17869   2.534   3.927   7.075
 5846SOL    HW117870   2.624   3.911   7.035
 5846SOL    HW217871   2.542   3.932   7.174
 5847SOL     OW17872   1.937   4.069   5.619
 5847SOL    HW117873   1.845   4.041   5.590
 5847SOL    HW217874   1.968   4.146   5.563
 5848SOL     OW17875   1.934   3.890   5.904
 5848SOL    HW117876   1.917   3.973   5.850
 5848SOL    HW217877   2.024   3.853   5.882
 5849SOL     OW17878   2.578   4.289   7.294
 5849SOL    HW117879   2.597   4.354   7.368
 5849SOL    HW217880   2.638   4.209   7.303
 5850SOL     OW17881   3.087   4.049   6.035
 5850SOL    HW117882   3.152   3.975   6.024
 5850SOL    HW217883   3.107   4.099   6.119
 5851SOL     OW17884   3.639   4.066   7.228
 5851SOL    HW117885   3.622   4.097   7.134
 5851SOL    HW217886   3.555   4.029   7.266
 5852SOL     OW17887   2.945   4.708   5.673
 5852SOL    HW117888   2.922   4.761   5.591
 5852SOL    HW217889   3.026   4.652   5.654
 5853SOL     OW17890   3.686   3.916   6.813
 5853SOL    HW117891   3.682   3.826   6.857
 5853SOL    HW217892   3.689   3.905   6.714
 5854SOL     OW17893   2.290   4.148   6.106
 5854SOL    HW117894   2.320   4.076   6.044
 5854SOL    HW217895   2.251   4.108   6.189
 5855SOL     OW17896   2.179   4.271   6.866
 5855SOL    HW117897   2.217   4.212   6.938
 5855SOL    HW217898   2.219   4.245   6.778
 5856SOL     OW17899   3.286   3.938   6.698
 5856SOL    HW117900   3.338   3.873   6.753
 5856SOL    HW217901   3.237   4.001   6.759
 5857SOL     OW17902   2.863   3.758   6.740
 5857SOL    HW117903   2.800   3.686   6.709
 5857SOL    HW217904   2.956   3.722   6.740
 5858SOL     OW17905   3.214   3.776   5.754
 5858SOL    HW117906   3.249   3.735   5.670
 5858SOL    HW217907   3.124   3.738   5.774
 5859SOL     OW17908   3.162   4.177   6.277
 5859SOL    HW117909   3.103   4.257   6.281
 5859SOL    HW217910   3.177   4.142   6.370
 5860SOL     OW17911   3.455   3.945   6.468
 5860SOL    HW117912   3.371   3.944   6.522
 5860SOL    HW217913   3.457   4.028   6.412
 5861SOL     OW17914   2.092   4.352   7.561
 5861SOL    HW117915   1.999   4.350   7.598
 5861SOL    HW217916   2.093   4.313   7.469
 5862SOL     OW17917   2.087   3.999   8.444
 5862SOL    HW117918   2.122   3.982   8.536
 5862SOL    HW217919   1.999   3.954   8.432
 5863SOL     OW17920   1.881   4.092   8.095
 5863SOL    HW117921   1.799   4.135   8.134
 5863SOL    HW217922   1.853   4.019   8.032
 5864SOL     OW17923   3.617   4.331   7.679
 5864SOL    HW117924   3.605   4.318   7.580
 5864SOL    HW217925   3.587   4.250   7.728
 5865SOL     OW17926   2.547   4.736   8.113
 5865SOL    HW117927   2.616   4.720   8.183
 5865SOL    HW217928   2.474   4.793   8.151
 5866SOL     OW17929   2.300   4.116   8.947
 5866SOL    HW117930   2.382   4.060   8.956
 5866SOL    HW217931   2.219   4.058   8.951
 5867SOL     OW17932   3.465   4.171   8.185
 5867SOL    HW117933   3.391   4.217   8.135
 5867SOL    HW217934   3.516   4.239   8.238
 5868SOL     OW17935   3.456   3.838   8.928
 5868SOL    HW117936   3.438   3.905   8.856
 5868SOL    HW217937   3.453   3.884   9.017
 5869SOL     OW17938   1.984   4.367   8.011
 5869SOL    HW117939   1.939   4.279   8.028
 5869SOL    HW217940   1.983   4.421   8.095
 5870SOL     OW17941   1.975   4.461   9.045
 5870SOL    HW117942   2.063   4.448   9.090
 5870SOL    HW217943   1.962   4.558   9.023
 5871SOL     OW17944   2.671   3.728   7.950
 5871SOL    HW117945   2.711   3.819   7.941
 5871SOL    HW217946   2.571   3.736   7.956
 5872SOL     OW17947   2.179   3.975   9.249
 5872SOL    HW117948   2.250   4.046   9.255
 5872SOL    HW217949   2.091   4.014   9.277
 5873SOL     OW17950   3.143   4.069   8.392
 5873SOL    HW117951   3.057   4.019   8.379
 5873SOL    HW217952   3.205   4.015   8.448
 5874SOL     OW17953   2.669   4.329   8.913
 5874SOL    HW117954   2.622   4.326   9.002
 5874SOL    HW217955   2.618   4.274   8.847
 5875SOL     OW17956   3.256   4.193   9.122
 5875SOL    HW117957   3.236   4.236   9.210
 5875SOL    HW217958   3.334   4.131   9.131
 5876SOL     OW17959   2.853   4.134   8.690
 5876SOL    HW117960   2.776   4.168   8.744
 5876SOL    HW217961   2.819   4.083   8.611
 5877SOL     OW17962   2.903   4.425   7.877
 5877SOL    HW117963   2.929   4.421   7.973
 5877SOL    HW217964   2.818   4.374   7.863
 5878SOL     OW17965   2.727   4.072   7.643
 5878SOL    HW117966   2.786   4.135   7.594
 5878SOL    HW217967   2.746   3.978   7.614
 5879SOL     OW17968   3.581   4.309   9.279
 5879SOL    HW117969   3.555   4.398   9.243
 5879SOL    HW217970   3.579   4.241   9.206
 5880SOL     OW17971   2.412   3.920   8.333
 5880SOL    HW117972   2.407   3.915   8.433
 5880SOL    HW217973   2.414   4.016   8.304
 5881SOL     OW17974   3.320   4.459   8.176
 5881SOL    HW117975   3.315   4.394   8.251
 5881SOL    HW217976   3.400   4.518   8.189
 5882SOL     OW17977   2.064   4.009   8.946
 5882SOL    HW117978   1.984   4.069   8.933
 5882SOL    HW217979   2.054   3.960   9.032
 5883SOL     OW17980   3.262   3.831   7.874
 5883SOL    HW117981   3.238   3.794   7.784
 5883SOL    HW217982   3.361   3.847   7.878
 5884SOL     OW17983   2.244   4.424   7.928
 5884SOL    HW117984   2.289   4.334   7.925
 5884SOL    HW217985   2.150   4.413   7.961
 5885SOL     OW17986   3.409   3.946   9.177
 5885SOL    HW117987   3.404   3.983   9.269
 5885SOL    HW217988   3.337   3.877   9.165
 5886SOL     OW17989   2.476   3.846   7.565
 5886SOL    HW117990   2.574   3.824   7.572
 5886SOL    HW217991   2.445   3.829   7.472
 5887SOL     OW17992   2.643   3.988   9.197
 5887SOL    HW117993   2.710   3.927   9.240
 5887SOL    HW217994   2.570   4.007   9.262
 5888SOL     OW17995   3.213   4.314   8.881
 5888SOL    HW117996   3.241   4.271   8.966
 5888SOL    HW217997   3.238   4.410   8.882
 5889SOL     OW17998   2.784   4.227   8.347
 5889SOL    HW117999   2.759   4.218   8.251
 5889SOL    HW218000   2.832   4.145   8.378
 5890SOL     OW18001   2.401   3.788   7.960
 5890SOL    HW118002   2.320   3.789   8.018
 5890SOL    HW218003   2.404   3.871   7.905
 5891SOL     OW18004   2.159   3.759   7.619
 5891SOL    HW118005   2.208   3.843   7.598
 5891SOL    HW218006   2.221   3.694   7.664
 5892SOL     OW18007   2.797   3.960   7.928
 5892SOL    HW118008   2.749   4.001   7.850
 5892SOL    HW218009   2.896   3.958   7.909
 5893SOL     OW18010   2.938   4.407   8.912
 5893SOL    HW118011   2.858   4.346   8.915
 5893SOL    HW218012   3.019   4.354   8.888
 5894SOL     OW18013   2.894   4.273   7.464
 5894SOL    HW118014   2.853   4.355   7.425
 5894SOL    HW218015   2.958   4.299   7.537
 5895SOL     OW18016   1.940   4.280   8.834
 5895SOL    HW118017   2.032   4.279   8.793
 5895SOL    HW218018   1.934   4.354   8.901
 5896SOL     OW18019   2.423   3.946   8.595
 5896SOL    HW118020   2.461   3.862   8.632
 5896SOL    HW218021   2.335   3.965   8.639
 5897SOL     OW18022   2.728   4.178   8.090
 5897SOL    HW118023   2.696   4.250   8.028
 5897SOL    HW218024   2.752   4.097   8.037
 5898SOL     OW18025   2.879   3.763   8.201
 5898SOL    HW118026   2.807   3.768   8.132
 5898SOL    HW218027   2.855   3.694   8.270
 5899SOL     OW18028   3.328   4.314   8.440
 5899SOL    HW118029   3.298   4.219   8.447
 5899SOL    HW218030   3.401   4.330   8.506
 5900SOL     OW18031   3.252   4.299   7.526
 5900SOL    HW118032   3.198   4.278   7.607
 5900SOL    HW218033   3.343   4.258   7.535
 5901SOL     OW18034   2.389   3.980   7.776
 5901SOL    HW118035   2.416   3.921   7.701
 5901SOL    HW218036   2.389   4.075   7.745
 5902SOL     OW18037   2.777   3.813   8.850
 5902SOL    HW118038   2.802   3.793   8.755
 5902SOL    HW218039   2.849   3.869   8.892
 5903SOL     OW18040   2.272   4.537   8.699
 5903SOL    HW118041   2.358   4.549   8.749
 5903SOL    HW218042   2.230   4.450   8.726
 5904SOL     OW18043   3.136   4.110   8.710
 5904SOL    HW118044   3.157   4.184   8.774
 5904SOL    HW218045   3.047   4.127   8.667
 5905SOL     OW18046   2.428   4.261   8.313
 5905SOL    HW118047   2.440   4.327   8.239
 5905SOL    HW218048   2.474   4.295   8.396
 5906SOL     OW18049   3.444   4.363   7.920
 5906SOL    HW118050   3.413   4.424   7.993
 5906SOL    HW218051   3.494   4.415   7.851
 5907SOL     OW18052   2.875   3.829   9.218
 5907SOL    HW118053   2.881   3.914   9.166
 5907SOL    HW218054   2.907   3.753   9.161
 5908SOL     OW18055   2.366   3.774   9.188
 5908SOL    HW118056   2.324   3.717   9.118
 5908SOL    HW218057   2.300   3.843   9.220
 5909SOL     OW18058   3.071   4.249   7.723
 5909SOL    HW118059   3.084   4.165   7.777
 5909SOL    HW218060   3.042   4.323   7.783
 5910SOL     OW18061   2.169   3.937   8.679
 5910SOL    HW118062   2.146   3.974   8.769
 5910SOL    HW218063   2.139   3.842   8.673
 5911SOL     OW18064   2.594   4.358   8.512
 5911SOL    HW118065   2.653   4.332   8.436
 5911SOL    HW218066   2.566   4.454   8.501
 5912SOL     OW18067   3.590   4.659   9.302
 5912SOL    HW118068   3.544   4.652   9.213
 5912SOL    HW218069   3.528   4.703   9.368
 5913SOL     OW18070   2.169   3.787   8.066
 5913SOL    HW118071   2.158   3.881   8.099
 5913SOL    HW218072   2.164   3.724   8.143
 5914SOL     OW18073   3.484   4.091   7.822
 5914SOL    HW118074   3.486   4.015   7.886
 5914SOL    HW218075   3.436   4.168   7.862
 5915SOL     OW18076   3.402   3.998   7.573
 5915SOL    HW118077   3.341   3.923   7.596
 5915SOL    HW218078   3.424   4.050   7.656
 5916SOL     OW18079   2.181   4.534   8.397
 5916SOL    HW118080   2.274   4.570   8.402
 5916SOL    HW218081   2.175   4.449   8.449
 5917SOL     OW18082   2.201   4.233   8.454
 5917SOL    HW118083   2.149   4.150   8.437
 5917SOL    HW218084   2.278   4.238   8.390
 5918SOL     OW18085   3.000   4.104   9.126
 5918SOL    HW118086   2.955   4.167   9.190
 5918SOL    HW218087   3.093   4.135   9.109
 5919SOL     OW18088   3.022   3.931   8.925
 5919SOL    HW118089   3.022   3.995   9.002
 5919SOL    HW218090   3.050   3.979   8.842
 5920SOL     OW18091   1.902   4.268   8.562
 5920SOL    HW118092   1.987   4.235   8.521
 5920SOL    HW218093   1.915   4.283   8.660
 5921SOL     OW18094   2.051   4.244   9.170
 5921SOL    HW118095   2.110   4.204   9.100
 5921SOL    HW218096   1.993   4.315   9.129
 5922SOL     OW18097   2.677   4.296   7.773
 5922SOL    HW118098   2.684   4.207   7.727
 5922SOL    HW218099   2.583   4.330   7.765
 5923SOL     OW18100   3.519   4.328   8.654
 5923SOL    HW118101   3.481   4.259   8.716
 5923SOL    HW218102   3.601   4.292   8.610
 5924SOL     OW18103   2.533   4.188   8.717
 5924SOL    HW118104   2.499   4.099   8.687
 5924SOL    HW218105   2.559   4.242   8.637
 5925SOL     OW18106   2.335   4.224   7.639
 5925SOL    HW118107   2.396   4.304   7.643
 5925SOL    HW218108   2.240   4.255   7.646
 5926SOL     OW18109   3.588   3.859   7.971
 5926SOL    HW118110   3.661   3.842   7.904
 5926SOL    HW218111   3.557   3.772   8.009
 5927SOL     OW18112   3.142   4.651   8.120
 5927SOL    HW118113   3.202   4.570   8.122
 5927SOL    HW218114   3.182   4.720   8.060
 5928SOL     OW18115   3.703   3.899   8.411
 5928SOL    HW118116   3.742   3.814   8.375
 5928SOL    HW218117   3.605   3.901   8.392
 5929SOL     OW18118   2.125   4.050   8.168
 5929SOL    HW118119   2.046   4.101   8.134
 5929SOL    HW218120   2.116   4.035   8.266
 5930SOL     OW18121   2.778   4.634   7.739
 5930SOL    HW118122   2.841   4.672   7.671
 5930SOL    HW218123   2.818   4.551   7.778
 5931SOL     OW18124   2.901   4.822   8.144
 5931SOL    HW118125   2.831   4.775   8.198
 5931SOL    HW218126   2.960   4.754   8.101
 5932SOL     OW18127   2.876   3.960   8.419
 5932SOL    HW118128   2.868   3.924   8.326
 5932SOL    HW218129   2.874   3.884   8.484
 5933SOL     OW18130   3.571   4.109   8.829
 5933SOL    HW118131   3.644   4.178   8.833
 5933SOL    HW218132   3.599   4.034   8.770
 5934SOL     OW18133   2.534   3.927   8.937
 5934SOL    HW118134   2.624   3.911   8.897
 5934SOL    HW218135   2.542   3.932   9.036
 5935SOL     OW18136   1.937   4.069   7.481
 5935SOL    HW118137   1.845   4.041   7.452
 5935SOL    HW218138   1.968   4.146   7.425
 5936SOL     OW18139   1.934   3.890   7.766
 5936SOL    HW118140   1.917   3.973   7.712
 5936SOL    HW218141   2.024   3.853   7.744
 5937SOL     OW18142   2.578   4.289   9.156
 5937SOL    HW118143   2.597   4.354   9.230
 5937SOL    HW218144   2.638   4.209   9.165
 5938SOL     OW18145   3.087   4.049   7.897
 5938SOL    HW118146   3.152   3.975   7.886
 5938SOL    HW218147   3.107   4.099   7.981
 5939SOL     OW18148   3.639   4.066   9.090
 5939SOL    HW118149   3.622   4.097   8.996
 5939SOL    HW218150   3.555   4.029   9.128
 5940SOL     OW18151   2.945   4.708   7.535
 5940SOL    HW118152   2.922   4.761   7.453
 5940SOL    HW218153   3.026   4.652   7.516
 5941SOL     OW18154   3.686   3.916   8.675
 5941SOL    HW118155   3.682   3.826   8.719
 5941SOL    HW218156   3.689   3.905   8.576
 5942SOL     OW18157   2.290   4.148   7.968
 5942SOL    HW118158   2.320   4.076   7.906
 5942SOL    HW218159   2.251   4.108   8.051
 5943SOL     OW18160   2.179   4.271   8.728
 5943SOL    HW118161   2.217   4.212   8.800
 5943SOL    HW218162   2.219   4.245   8.640
 5944SOL     OW18163   3.286   3.938   8.560
 5944SOL    HW118164   3.338   3.873   8.615
 5944SOL    HW218165   3.237   4.001   8.621
 5945SOL     OW18166   2.863   3.758   8.602
 5945SOL    HW118167   2.800   3.686   8.571
 5945SOL    HW218168   2.956   3.722   8.602
 5946SOL     OW18169   3.214   3.776   7.616
 5946SOL    HW118170   3.249   3.735   7.532
 5946SOL    HW218171   3.124   3.738   7.636
 5947SOL     OW18172   3.162   4.177   8.139
 5947SOL    HW118173   3.103   4.257   8.143
 5947SOL    HW218174   3.177   4.142   8.232
 5948SOL     OW18175   3.455   3.945   8.330
 5948SOL    HW118176   3.371   3.944   8.384
 5948SOL    HW218177   3.457   4.028   8.274
 5949SOL     OW18178   2.092   4.352   9.423
 5949SOL    HW118179   1.999   4.350   9.460
 5949SOL    HW218180   2.093   4.313   9.331
 5950SOL     OW18181   2.087   3.999  10.306
 5950SOL    HW118182   2.122   3.982  10.398
 5950SOL    HW218183   1.999   3.954  10.294
 5951SOL     OW18184   1.881   4.092   9.957
 5951SOL    HW118185   1.799   4.135   9.996
 5951SOL    HW218186   1.853   4.019   9.894
 5952SOL     OW18187   3.617   4.331   9.541
 5952SOL    HW118188   3.605   4.318   9.442
 5952SOL    HW218189   3.587   4.250   9.590
 5953SOL     OW18190   2.547   4.736   9.975
 5953SOL    HW118191   2.616   4.720  10.045
 5953SOL    HW218192   2.474   4.793  10.013
 5954SOL     OW18193   2.300   4.116  10.809
 5954SOL    HW118194   2.382   4.060  10.818
 5954SOL    HW218195   2.219   4.058  10.813
 5955SOL     OW18196   3.465   4.171  10.047
 5955SOL    HW118197   3.391   4.217   9.997
 5955SOL    HW218198   3.516   4.239  10.100
 5956SOL     OW18199   3.456   3.838  10.790
 5956SOL    HW118200   3.438   3.905  10.718
 5956SOL    HW218201   3.453   3.884  10.879
 5957SOL     OW18202   1.984   4.367   9.873
 5957SOL    HW118203   1.939   4.279   9.890
 5957SOL    HW218204   1.983   4.421   9.957
 5958SOL     OW18205   1.975   4.461  10.907
 5958SOL    HW118206   2.063   4.448  10.952
 5958SOL    HW218207   1.962   4.558  10.885
 5959SOL     OW18208   2.671   3.728   9.812
 5959SOL    HW118209   2.711   3.819   9.803
 5959SOL    HW218210   2.571   3.736   9.818
 5960SOL     OW18211   2.179   3.975  11.111
 5960SOL    HW118212   2.250   4.046  11.117
 5960SOL    HW218213   2.091   4.014  11.139
 5961SOL     OW18214   3.143   4.069  10.254
 5961SOL    HW118215   3.057   4.019  10.241
 5961SOL    HW218216   3.205   4.015  10.310
 5962SOL     OW18217   2.669   4.329  10.775
 5962SOL    HW118218   2.622   4.326  10.864
 5962SOL    HW218219   2.618   4.274  10.709
 5963SOL     OW18220   3.256   4.193  10.984
 5963SOL    HW118221   3.236   4.236  11.072
 5963SOL    HW218222   3.334   4.131  10.993
 5964SOL     OW18223   2.853   4.134  10.552
 5964SOL    HW118224   2.776   4.168  10.606
 5964SOL    HW218225   2.819   4.083  10.473
 5965SOL     OW18226   2.903   4.425   9.739
 5965SOL    HW118227   2.929   4.421   9.835
 5965SOL    HW218228   2.818   4.374   9.725
 5966SOL     OW18229   2.727   4.072   9.505
 5966SOL    HW118230   2.786   4.135   9.456
 5966SOL    HW218231   2.746   3.978   9.476
 5967SOL     OW18232   3.581   4.309  11.141
 5967SOL    HW118233   3.555   4.398  11.105
 5967SOL    HW218234   3.579   4.241  11.068
 5968SOL     OW18235   2.412   3.920  10.195
 5968SOL    HW118236   2.407   3.915  10.295
 5968SOL    HW218237   2.414   4.016  10.166
 5969SOL     OW18238   3.320   4.459  10.038
 5969SOL    HW118239   3.315   4.394  10.113
 5969SOL    HW218240   3.400   4.518  10.051
 5970SOL     OW18241   2.064   4.009  10.808
 5970SOL    HW118242   1.984   4.069  10.795
 5970SOL    HW218243   2.054   3.960  10.894
 5971SOL     OW18244   3.262   3.831   9.736
 5971SOL    HW118245   3.238   3.794   9.646
 5971SOL    HW218246   3.361   3.847   9.740
 5972SOL     OW18247   2.244   4.424   9.790
 5972SOL    HW118248   2.289   4.334   9.787
 5972SOL    HW218249   2.150   4.413   9.823
 5973SOL     OW18250   3.409   3.946  11.039
 5973SOL    HW118251   3.404   3.983  11.131
 5973SOL    HW218252   3.337   3.877  11.027
 5974SOL     OW18253   2.476   3.846   9.427
 5974SOL    HW118254   2.574   3.824   9.434
 5974SOL    HW218255   2.445   3.829   9.334
 5975SOL     OW18256   2.643   3.988  11.059
 5975SOL    HW118257   2.710   3.927  11.102
 5975SOL    HW218258   2.570   4.007  11.124
 5976SOL     OW18259   3.213   4.314  10.743
 5976SOL    HW118260   3.241   4.271  10.828
 5976SOL    HW218261   3.238   4.410  10.744
 5977SOL     OW18262   2.784   4.227  10.209
 5977SOL    HW118263   2.759   4.218  10.113
 5977SOL    HW218264   2.832   4.145  10.240
 5978SOL     OW18265   2.401   3.788   9.822
 5978SOL    HW118266   2.320   3.789   9.880
 5978SOL    HW218267   2.404   3.871   9.767
 5979SOL     OW18268   2.159   3.759   9.481
 5979SOL    HW118269   2.208   3.843   9.460
 5979SOL    HW218270   2.221   3.694   9.526
 5980SOL     OW18271   2.797   3.960   9.790
 5980SOL    HW118272   2.749   4.001   9.712
 5980SOL    HW218273   2.896   3.958   9.771
 5981SOL     OW18274   2.938   4.407  10.774
 5981SOL    HW118275   2.858   4.346  10.777
 5981SOL    HW218276   3.019   4.354  10.750
 5982SOL     OW18277   2.894   4.273   9.326
 5982SOL    HW118278   2.853   4.355   9.287
 5982SOL    HW218279   2.958   4.299   9.399
 5983SOL     OW18280   1.940   4.280  10.696
 5983SOL    HW118281   2.032   4.279  10.655
 5983SOL    HW218282   1.934   4.354  10.763
 5984SOL     OW18283   2.423   3.946  10.457
 5984SOL    HW118284   2.461   3.862  10.494
 5984SOL    HW218285   2.335   3.965  10.501
 5985SOL     OW18286   2.728   4.178   9.952
 5985SOL    HW118287   2.696   4.250   9.890
 5985SOL    HW218288   2.752   4.097   9.899
 5986SOL     OW18289   2.879   3.763  10.063
 5986SOL    HW118290   2.807   3.768   9.994
 5986SOL    HW218291   2.855   3.694  10.132
 5987SOL     OW18292   3.328   4.314  10.302
 5987SOL    HW118293   3.298   4.219  10.309
 5987SOL    HW218294   3.401   4.330  10.368
 5988SOL     OW18295   3.252   4.299   9.388
 5988SOL    HW118296   3.198   4.278   9.469
 5988SOL    HW218297   3.343   4.258   9.397
 5989SOL     OW18298   2.389   3.980   9.638
 5989SOL    HW118299   2.416   3.921   9.563
 5989SOL    HW218300   2.389   4.075   9.607
 5990SOL     OW18301   2.777   3.813  10.712
 5990SOL    HW118302   2.802   3.793  10.617
 5990SOL    HW218303   2.849   3.869  10.754
 5991SOL     OW18304   2.272   4.537  10.561
 5991SOL    HW118305   2.358   4.549  10.611
 5991SOL    HW218306   2.230   4.450  10.588
 5992SOL     OW18307   3.136   4.110  10.572
 5992SOL    HW118308   3.157   4.184  10.636
 5992SOL    HW218309   3.047   4.127  10.529
 5993SOL     OW18310   2.428   4.261  10.175
 5993SOL    HW118311   2.440   4.327  10.101
 5993SOL    HW218312   2.474   4.295  10.258
 5994SOL     OW18313   3.444   4.363   9.782
 5994SOL    HW118314   3.413   4.424   9.855
 5994SOL    HW218315   3.494   4.415   9.713
 5995SOL     OW18316   2.875   3.829  11.080
 5995SOL    HW118317   2.881   3.914  11.028
 5995SOL    HW218318   2.907   3.753  11.023
 5996SOL     OW18319   2.366   3.774  11.050
 5996SOL    HW118320   2.324   3.717  10.980
 5996SOL    HW218321   2.300   3.843  11.082
 5997SOL     OW18322   3.071   4.249   9.585
 5997SOL    HW118323   3.084   4.165   9.639
 5997SOL    HW218324   3.042   4.323   9.645
 5998SOL     OW18325   2.169   3.937  10.541
 5998SOL    HW118326   2.146   3.974  10.631
 5998SOL    HW218327   2.139   3.842  10.535
 5999SOL     OW18328   2.594   4.358  10.374
 5999SOL    HW118329   2.653   4.332  10.298
 5999SOL    HW218330   2.566   4.454  10.363
 6000SOL     OW18331   3.590   4.659  11.164
 6000SOL    HW118332   3.544   4.652  11.075
 6000SOL    HW218333   3.528   4.703  11.230
 6001SOL     OW18334   2.169   3.787   9.928
 6001SOL    HW118335   2.158   3.881   9.961
 6001SOL    HW218336   2.164   3.724  10.005
 6002SOL     OW18337   3.484   4.091   9.684
 6002SOL    HW118338   3.486   4.015   9.748
 6002SOL    HW218339   3.436   4.168   9.724
 6003SOL     OW18340   3.402   3.998   9.435
 6003SOL    HW118341   3.341   3.923   9.458
 6003SOL    HW218342   3.424   4.050   9.518
 6004SOL     OW18343   2.181   4.534  10.259
 6004SOL    HW118344   2.274   4.570  10.264
 6004SOL    HW218345   2.175   4.449  10.311
 6005SOL     OW18346   2.201   4.233  10.316
 6005SOL    HW118347   2.149   4.150  10.299
 6005SOL    HW218348   2.278   4.238  10.252
 6006SOL     OW18349   3.000   4.104  10.988
 6006SOL    HW118350   2.955   4.167  11.052
 6006SOL    HW218351   3.093   4.135  10.971
 6007SOL     OW18352   3.022   3.931  10.787
 6007SOL    HW118353   3.022   3.995  10.864
 6007SOL    HW218354   3.050   3.979  10.704
 6008SOL     OW18355   1.902   4.268  10.424
 6008SOL    HW118356   1.987   4.235  10.383
 6008SOL    HW218357   1.915   4.283  10.522
 6009SOL     OW18358   2.051   4.244  11.032
 6009SOL    HW118359   2.110   4.204  10.962
 6009SOL    HW218360   1.993   4.315  10.991
 6010SOL     OW18361   2.677   4.296   9.635
 6010SOL    HW118362   2.684   4.207   9.589
 6010SOL    HW218363   2.583   4.330   9.627
 6011SOL     OW18364   3.519   4.328  10.516
 6011SOL    HW118365   3.481   4.259  10.578
 6011SOL    HW218366   3.601   4.292  10.472
 6012SOL     OW18367   2.533   4.188  10.579
 6012SOL    HW118368   2.499   4.099  10.549
 6012SOL    HW218369   2.559   4.242  10.499
 6013SOL     OW18370   2.335   4.224   9.501
 6013SOL    HW118371   2.396   4.304   9.505
 6013SOL    HW218372   2.240   4.255   9.508
 6014SOL     OW18373   3.588   3.859   9.833
 6014SOL    HW118374   3.661   3.842   9.766
 6014SOL    HW218375   3.557   3.772   9.871
 6015SOL     OW18376   3.142   4.651   9.982
 6015SOL    HW118377   3.202   4.570   9.984
 6015SOL    HW218378   3.182   4.720   9.922
 6016SOL     OW18379   3.703   3.899  10.273
 6016SOL    HW118380   3.742   3.814  10.237
 6016SOL    HW218381   3.605   3.901  10.254
 6017SOL     OW18382   2.125   4.050  10.030
 6017SOL    HW118383   2.046   4.101   9.996
 6017SOL    HW218384   2.116   4.035  10.128
 6018SOL     OW18385   2.778   4.634   9.601
 6018SOL    HW118386   2.841   4.672   9.533
 6018SOL    HW218387   2.818   4.551   9.640
 6019SOL     OW18388   2.901   4.822  10.006
 6019SOL    HW118389   2.831   4.775  10.060
 6019SOL    HW218390   2.960   4.754   9.963
 6020SOL     OW18391   2.876   3.960  10.281
 6020SOL    HW118392   2.868   3.924  10.188
 6020SOL    HW218393   2.874   3.884  10.346
 6021SOL     OW18394   3.571   4.109  10.691
 6021SOL    HW118395   3.644   4.178  10.695
 6021SOL    HW218396   3.599   4.034  10.632
 6022SOL     OW18397   2.534   3.927  10.799
 6022SOL    HW118398   2.624   3.911  10.759
 6022SOL    HW218399   2.542   3.932  10.898
 6023SOL     OW18400   1.937   4.069   9.343
 6023SOL    HW118401   1.845   4.041   9.314
 6023SOL    HW218402   1.968   4.146   9.287
 6024SOL     OW18403   1.934   3.890   9.628
 6024SOL    HW118404   1.917   3.973   9.574
 6024SOL    HW218405   2.024   3.853   9.606
 6025SOL     OW18406   2.578   4.289  11.018
 6025SOL    HW118407   2.597   4.354  11.092
 6025SOL    HW218408   2.638   4.209  11.027
 6026SOL     OW18409   3.087   4.049   9.759
 6026SOL    HW118410   3.152   3.975   9.748
 6026SOL    HW218411   3.107   4.099   9.843
 6027SOL     OW18412   3.639   4.066  10.952
 6027SOL    HW118413   3.622   4.097  10.858
 6027SOL    HW218414   3.555   4.029  10.990
 6028SOL     OW18415   2.945   4.708   9.397
 6028SOL    HW118416   2.922   4.761   9.315
 6028SOL    HW218417   3.026   4.652   9.378
 6029SOL     OW18418   3.686   3.916  10.537
 6029SOL    HW118419   3.682   3.826  10.581
 6029SOL    HW218420   3.689   3.905  10.438
 6030SOL     OW18421   2.290   4.148   9.830
 6030SOL    HW118422   2.320   4.076   9.768
 6030SOL    HW218423   2.251   4.108   9.913
 6031SOL     OW18424   2.179   4.271  10.590
 6031SOL    HW118425   2.217   4.212  10.662
 6031SOL    HW218426   2.219   4.245  10.502
 6032SOL     OW18427   3.286   3.938  10.422
 6032SOL    HW118428   3.338   3.873  10.477
 6032SOL    HW218429   3.237   4.001  10.483
 6033SOL     OW18430   2.863   3.758  10.464
 6033SOL    HW118431   2.800   3.686  10.433
 6033SOL    HW218432   2.956   3.722  10.464
 6034SOL     OW18433   3.214   3.776   9.478
 6034SOL    HW118434   3.249   3.735   9.394
 6034SOL    HW218435   3.124   3.738   9.498
 6035SOL     OW18436   3.162   4.177  10.001
 6035SOL    HW118437   3.103   4.257  10.005
 6035SOL    HW218438   3.177   4.142  10.094
 6036SOL     OW18439   3.455   3.945  10.192
 6036SOL    HW118440   3.371   3.944  10.246
 6036SOL    HW218441   3.457   4.028  10.136
 6037SOL     OW18442   3.954   0.628   0.113
 6037SOL    HW118443   3.861   0.626   0.150
 6037SOL    HW218444   3.955   0.589   0.021
 6038SOL     OW18445   3.949   0.275   0.996
 6038SOL    HW118446   3.984   0.258   1.088
 6038SOL    HW218447   3.861   0.230   0.984
 6039SOL     OW18448   3.743   0.368   0.647
 6039SOL    HW118449   3.661   0.411   0.686
 6039SOL    HW218450   3.715   0.295   0.584
 6040SOL     OW18451   4.293   1.275   1.165
 6040SOL    HW118452   4.200   1.268   1.128
 6040SOL    HW218453   4.304   1.364   1.209
 6041SOL     OW18454   4.574   0.798   1.823
 6041SOL    HW118455   4.570   0.874   1.888
 6041SOL    HW218456   4.596   0.834   1.732
 6042SOL     OW18457   4.409   1.012   0.665
 6042SOL    HW118458   4.478   0.996   0.735
 6042SOL    HW218459   4.336   1.069   0.703
 6043SOL     OW18460   4.410   1.161   1.803
 6043SOL    HW118461   4.470   1.240   1.817
 6043SOL    HW218462   4.324   1.192   1.762
 6044SOL     OW18463   4.059   1.435   1.061
 6044SOL    HW118464   3.981   1.404   1.008
 6044SOL    HW218465   4.117   1.493   1.004
 6045SOL     OW18466   4.162   0.392   1.499
 6045SOL    HW118467   4.244   0.336   1.508
 6045SOL    HW218468   4.081   0.334   1.503
 6046SOL     OW18469   3.955   1.713   0.483
 6046SOL    HW118470   3.989   1.790   0.537
 6046SOL    HW218471   3.999   1.713   0.393
 6047SOL     OW18472   3.954   1.434   0.538
 6047SOL    HW118473   3.928   1.530   0.538
 6047SOL    HW218474   3.883   1.380   0.583
 6048SOL     OW18475   3.964   1.091   0.886
 6048SOL    HW118476   3.978   1.007   0.938
 6048SOL    HW218477   3.909   1.155   0.941
 6049SOL     OW18478   4.344   1.786   1.439
 6049SOL    HW118479   4.252   1.769   1.474
 6049SOL    HW218480   4.372   1.878   1.465
 6050SOL     OW18481   4.330   0.964   0.123
 6050SOL    HW118482   4.337   1.048   0.069
 6050SOL    HW218483   4.376   0.977   0.211
 6051SOL     OW18484   3.846   0.643   0.563
 6051SOL    HW118485   3.801   0.555   0.580
 6051SOL    HW218486   3.845   0.697   0.647
 6052SOL     OW18487   3.751   1.596   0.117
 6052SOL    HW118488   3.732   1.500   0.138
 6052SOL    HW218489   3.718   1.654   0.192
 6053SOL     OW18490   3.837   0.737   1.597
 6053SOL    HW118491   3.925   0.724   1.642
 6053SOL    HW218492   3.824   0.834   1.575
 6054SOL     OW18493   4.337   1.365   0.726
 6054SOL    HW118494   4.288   1.278   0.735
 6054SOL    HW218495   4.314   1.408   0.639
 6055SOL     OW18496   4.533   0.004   0.502
 6055SOL    HW118497   4.573   0.095   0.493
 6055SOL    HW218498   4.433   0.012   0.508
 6056SOL     OW18499   3.921   0.976   1.264
 6056SOL    HW118500   4.010   0.931   1.250
 6056SOL    HW218501   3.848   0.911   1.245
 6057SOL     OW18502   4.041   0.251   1.801
 6057SOL    HW118503   4.112   0.322   1.807
 6057SOL    HW218504   3.953   0.290   1.829
 6058SOL     OW18505   4.322   0.729   0.270
 6058SOL    HW118506   4.346   0.798   0.202
 6058SOL    HW218507   4.244   0.762   0.324
 6059SOL     OW18508   3.800   0.811   0.789
 6059SOL    HW118509   3.899   0.799   0.798
 6059SOL    HW218510   3.776   0.906   0.810
 6060SOL     OW18511   3.854   1.821   1.571
 6060SOL    HW118512   3.844   1.806   1.670
 6060SOL    HW218513   3.768   1.857   1.535
 6061SOL     OW18514   4.274   0.196   0.885
 6061SOL    HW118515   4.269   0.191   0.985
 6061SOL    HW218516   4.276   0.292   0.856
 6062SOL     OW18517   4.075   1.801   0.853
 6062SOL    HW118518   4.125   1.715   0.859
 6062SOL    HW218519   4.140   1.878   0.850
 6063SOL     OW18520   4.045   0.943   0.242
 6063SOL    HW118521   4.127   0.982   0.200
 6063SOL    HW218522   4.018   0.861   0.193
 6064SOL     OW18523   4.185   1.266   1.727
 6064SOL    HW118524   4.135   1.267   1.641
 6064SOL    HW218525   4.122   1.248   1.803
 6065SOL     OW18526   3.926   0.285   1.498
 6065SOL    HW118527   3.846   0.345   1.485
 6065SOL    HW218528   3.916   0.236   1.584
 6066SOL     OW18529   4.188   1.743   0.323
 6066SOL    HW118530   4.221   1.782   0.409
 6066SOL    HW218531   4.264   1.736   0.258
 6067SOL     OW18532   3.973   1.785   1.241
 6067SOL    HW118533   4.030   1.720   1.291
 6067SOL    HW218534   3.957   1.752   1.148
 6068SOL     OW18535   4.106   0.700   0.480
 6068SOL    HW118536   4.151   0.610   0.477
 6068SOL    HW218537   4.012   0.689   0.513
 6069SOL     OW18538   4.338   0.122   0.117
 6069SOL    HW118539   4.436   0.100   0.124
 6069SOL    HW218540   4.307   0.105   0.024
 6070SOL     OW18541   4.527   1.402   0.924
 6070SOL    HW118542   4.617   1.416   0.882
 6070SOL    HW218543   4.456   1.404   0.853
 6071SOL     OW18544   4.263   0.064   0.512
 6071SOL    HW118545   4.182   0.065   0.570
 6071SOL    HW218546   4.266   0.147   0.457
 6072SOL     OW18547   4.021   0.035   0.171
 6072SOL    HW118548   4.070   0.119   0.150
 6072SOL    HW218549   4.083  -0.030   0.216
 6073SOL     OW18550   4.800   0.683   1.464
 6073SOL    HW118551   4.720   0.622   1.467
 6073SOL    HW218552   4.881   0.630   1.440
 6074SOL     OW18553   4.183   1.152   0.741
 6074SOL    HW118554   4.112   1.125   0.806
 6074SOL    HW218555   4.157   1.124   0.648
 6075SOL     OW18556   3.802   0.556   1.386
 6075SOL    HW118557   3.894   0.555   1.345
 6075SOL    HW218558   3.796   0.630   1.453
 6076SOL     OW18559   4.285   0.222   1.147
 6076SOL    HW118560   4.323   0.138   1.184
 6076SOL    HW218561   4.197   0.241   1.191
 6077SOL     OW18562   4.212   1.385   0.174
 6077SOL    HW118563   4.125   1.370   0.221
 6077SOL    HW218564   4.195   1.411   0.079
 6078SOL     OW18565   4.251   0.256   0.328
 6078SOL    HW118566   4.278   0.197   0.253
 6078SOL    HW218567   4.251   0.351   0.297
 6079SOL     OW18568   4.134   0.813   1.251
 6079SOL    HW118569   4.220   0.825   1.301
 6079SOL    HW218570   4.092   0.726   1.278
 6080SOL     OW18571   3.788   1.564   1.331
 6080SOL    HW118572   3.742   1.646   1.297
 6080SOL    HW218573   3.886   1.583   1.340
 6081SOL     OW18574   4.091   1.100   0.501
 6081SOL    HW118575   4.084   1.183   0.445
 6081SOL    HW218576   4.095   1.020   0.441
 6082SOL     OW18577   4.290   0.537   0.865
 6082SOL    HW118578   4.302   0.603   0.791
 6082SOL    HW218579   4.336   0.571   0.948
 6083SOL     OW18580   4.078   1.510   1.329
 6083SOL    HW118581   4.057   1.466   1.242
 6083SOL    HW218582   4.175   1.536   1.332
 6084SOL     OW18583   4.126   0.751   1.598
 6084SOL    HW118584   4.194   0.806   1.551
 6084SOL    HW218585   4.166   0.663   1.625
 6085SOL     OW18586   4.228   0.050   1.740
 6085SOL    HW118587   4.186  -0.007   1.670
 6085SOL    HW218588   4.162   0.119   1.772
 6086SOL     OW18589   4.297   0.870   1.029
 6086SOL    HW118590   4.341   0.959   1.020
 6086SOL    HW218591   4.234   0.870   1.106
 6087SOL     OW18592   4.031   0.213   1.231
 6087SOL    HW118593   4.008   0.250   1.321
 6087SOL    HW218594   4.001   0.118   1.225
 6088SOL     OW18595   3.761   1.310   1.282
 6088SOL    HW118596   3.814   1.261   1.350
 6088SOL    HW218597   3.783   1.408   1.287
 6089SOL     OW18598   4.031   0.063   0.618
 6089SOL    HW118599   4.020   0.157   0.651
 6089SOL    HW218600   4.026   0.000   0.695
 6090SOL     OW18601   4.074   0.898   1.804
 6090SOL    HW118602   4.150   0.942   1.852
 6090SOL    HW218603   4.109   0.851   1.722
 6091SOL     OW18604   4.043   0.810   0.949
 6091SOL    HW118605   4.136   0.846   0.954
 6091SOL    HW218606   4.037   0.725   1.001
 6092SOL     OW18607   4.063   0.509   1.006
 6092SOL    HW118608   4.011   0.426   0.989
 6092SOL    HW218609   4.140   0.514   0.942
 6093SOL     OW18610   3.732   1.326   0.200
 6093SOL    HW118611   3.639   1.347   0.169
 6093SOL    HW218612   3.742   1.227   0.213
 6094SOL     OW18613   3.812   1.801   0.927
 6094SOL    HW118614   3.770   1.715   0.900
 6094SOL    HW218615   3.906   1.804   0.893
 6095SOL     OW18616   4.228   1.568   0.910
 6095SOL    HW118617   4.294   1.642   0.919
 6095SOL    HW218618   4.272   1.489   0.868
 6096SOL     OW18619   3.764   0.544   1.114
 6096SOL    HW118620   3.849   0.511   1.073
 6096SOL    HW218621   3.777   0.559   1.212
 6097SOL     OW18622   3.913   0.520   1.722
 6097SOL    HW118623   3.972   0.480   1.652
 6097SOL    HW218624   3.855   0.591   1.681
 6098SOL     OW18625   4.539   0.572   0.325
 6098SOL    HW118626   4.546   0.483   0.279
 6098SOL    HW218627   4.445   0.606   0.317
 6099SOL     OW18628   3.976   1.564   1.744
 6099SOL    HW118629   3.946   1.621   1.820
 6099SOL    HW218630   3.969   1.467   1.770
 6100SOL     OW18631   4.197   0.500   0.191
 6100SOL    HW118632   4.258   0.580   0.195
 6100SOL    HW218633   4.102   0.531   0.198
 6101SOL     OW18634   3.883   1.137   1.466
 6101SOL    HW118635   3.905   1.076   1.542
 6101SOL    HW218636   3.893   1.088   1.380
 6102SOL     OW18637   3.807   1.258   1.022
 6102SOL    HW118638   3.802   1.257   1.122
 6102SOL    HW218639   3.724   1.217   0.984
 6103SOL     OW18640   4.412   1.662   1.716
 6103SOL    HW118641   4.356   1.743   1.725
 6103SOL    HW218642   4.464   1.666   1.630
 6104SOL     OW18643   3.854   1.794   1.851
 6104SOL    HW118644   3.813   1.720   1.904
 6104SOL    HW218645   3.918   1.845   1.909
 6105SOL     OW18646   3.987   0.326   0.720
 6105SOL    HW118647   3.908   0.377   0.686
 6105SOL    HW218648   3.978   0.311   0.818
 6106SOL     OW18649   4.096   1.288   1.490
 6106SOL    HW118650   4.083   1.381   1.456
 6106SOL    HW218651   4.012   1.236   1.477
 6107SOL     OW18652   4.314   1.487   0.491
 6107SOL    HW118653   4.356   1.429   0.421
 6107SOL    HW218654   4.270   1.566   0.447
 6108SOL     OW18655   3.979   1.348   0.290
 6108SOL    HW118656   3.883   1.349   0.263
 6108SOL    HW218657   3.991   1.401   0.374
 6109SOL     OW18658   3.829   1.013   1.726
 6109SOL    HW118659   3.752   0.980   1.780
 6109SOL    HW218660   3.914   0.983   1.768
 6110SOL     OW18661   4.396   0.203   1.489
 6110SOL    HW118662   4.486   0.187   1.449
 6110SOL    HW218663   4.404   0.208   1.588
 6111SOL     OW18664   3.799   0.345   0.033
 6111SOL    HW118665   3.707   0.317   0.004
 6111SOL    HW218666   3.830   0.422  -0.023
 6112SOL     OW18667   3.796   0.166   0.318
 6112SOL    HW118668   3.779   0.249   0.264
 6112SOL    HW218669   3.886   0.129   0.296
 6113SOL     OW18670   4.337   0.842   1.431
 6113SOL    HW118671   4.393   0.923   1.414
 6113SOL    HW218672   4.396   0.762   1.434
 6114SOL     OW18673   4.440   0.565   1.708
 6114SOL    HW118674   4.459   0.630   1.782
 6114SOL    HW218675   4.500   0.485   1.717
 6115SOL     OW18676   4.114   1.741   1.560
 6115SOL    HW118677   4.023   1.782   1.558
 6115SOL    HW218678   4.107   1.647   1.592
 6116SOL     OW18679   4.318   0.745   0.652
 6116SOL    HW118680   4.368   0.830   0.633
 6116SOL    HW218681   4.230   0.747   0.604
 6117SOL     OW18682   3.945   1.314   1.844
 6117SOL    HW118683   3.880   1.241   1.823
 6117SOL    HW218684   3.949   1.328   1.942
 6118SOL     OW18685   3.803   1.240   0.653
 6118SOL    HW118686   3.802   1.193   0.741
 6118SOL    HW218687   3.885   1.212   0.602
 6119SOL     OW18688   4.396   1.391   1.624
 6119SOL    HW118689   4.318   1.341   1.662
 6119SOL    HW218690   4.393   1.486   1.655
 6120SOL     OW18691   4.152   0.424   0.520
 6120SOL    HW118692   4.182   0.352   0.458
 6120SOL    HW218693   4.113   0.384   0.603
 6121SOL     OW18694   4.041   0.547   1.280
 6121SOL    HW118695   4.079   0.488   1.352
 6121SOL    HW218696   4.081   0.521   1.192
 6122SOL     OW18697   4.536   1.586   0.687
 6122SOL    HW118698   4.568   1.596   0.593
 6122SOL    HW218699   4.457   1.524   0.689
 6123SOL     OW18700   3.763   1.077   0.300
 6123SOL    HW118701   3.862   1.066   0.291
 6123SOL    HW218702   3.723   0.991   0.332
 6124SOL     OW18703   3.954   0.628   1.975
 6124SOL    HW118704   3.861   0.626   2.012
 6124SOL    HW218705   3.955   0.589   1.883
 6125SOL     OW18706   3.949   0.275   2.858
 6125SOL    HW118707   3.984   0.258   2.950
 6125SOL    HW218708   3.861   0.230   2.846
 6126SOL     OW18709   3.743   0.368   2.509
 6126SOL    HW118710   3.661   0.411   2.548
 6126SOL    HW218711   3.715   0.295   2.446
 6127SOL     OW18712   4.293   1.275   3.027
 6127SOL    HW118713   4.200   1.268   2.990
 6127SOL    HW218714   4.304   1.364   3.071
 6128SOL     OW18715   4.574   0.798   3.685
 6128SOL    HW118716   4.570   0.874   3.750
 6128SOL    HW218717   4.596   0.834   3.594
 6129SOL     OW18718   4.409   1.012   2.527
 6129SOL    HW118719   4.478   0.996   2.597
 6129SOL    HW218720   4.336   1.069   2.565
 6130SOL     OW18721   4.410   1.161   3.665
 6130SOL    HW118722   4.470   1.240   3.679
 6130SOL    HW218723   4.324   1.192   3.624
 6131SOL     OW18724   4.059   1.435   2.923
 6131SOL    HW118725   3.981   1.404   2.870
 6131SOL    HW218726   4.117   1.493   2.866
 6132SOL     OW18727   4.162   0.392   3.361
 6132SOL    HW118728   4.244   0.336   3.370
 6132SOL    HW218729   4.081   0.334   3.365
 6133SOL     OW18730   3.955   1.713   2.345
 6133SOL    HW118731   3.989   1.790   2.399
 6133SOL    HW218732   3.999   1.713   2.255
 6134SOL     OW18733   3.954   1.434   2.400
 6134SOL    HW118734   3.928   1.530   2.400
 6134SOL    HW218735   3.883   1.380   2.445
 6135SOL     OW18736   3.964   1.091   2.748
 6135SOL    HW118737   3.978   1.007   2.800
 6135SOL    HW218738   3.909   1.155   2.803
 6136SOL     OW18739   4.344   1.786   3.301
 6136SOL    HW118740   4.252   1.769   3.336
 6136SOL    HW218741   4.372   1.878   3.327
 6137SOL     OW18742   4.330   0.964   1.985
 6137SOL    HW118743   4.337   1.048   1.931
 6137SOL    HW218744   4.376   0.977   2.073
 6138SOL     OW18745   3.846   0.643   2.425
 6138SOL    HW118746   3.801   0.555   2.442
 6138SOL    HW218747   3.845   0.697   2.509
 6139SOL     OW18748   3.751   1.596   1.979
 6139SOL    HW118749   3.732   1.500   2.000
 6139SOL    HW218750   3.718   1.654   2.054
 6140SOL     OW18751   3.837   0.737   3.459
 6140SOL    HW118752   3.925   0.724   3.504
 6140SOL    HW218753   3.824   0.834   3.437
 6141SOL     OW18754   4.337   1.365   2.588
 6141SOL    HW118755   4.288   1.278   2.597
 6141SOL    HW218756   4.314   1.408   2.501
 6142SOL     OW18757   4.533   0.004   2.364
 6142SOL    HW118758   4.573   0.095   2.355
 6142SOL    HW218759   4.433   0.012   2.370
 6143SOL     OW18760   3.921   0.976   3.126
 6143SOL    HW118761   4.010   0.931   3.112
 6143SOL    HW218762   3.848   0.911   3.107
 6144SOL     OW18763   4.041   0.251   3.663
 6144SOL    HW118764   4.112   0.322   3.669
 6144SOL    HW218765   3.953   0.290   3.691
 6145SOL     OW18766   4.322   0.729   2.132
 6145SOL    HW118767   4.346   0.798   2.064
 6145SOL    HW218768   4.244   0.762   2.186
 6146SOL     OW18769   3.800   0.811   2.651
 6146SOL    HW118770   3.899   0.799   2.660
 6146SOL    HW218771   3.776   0.906   2.672
 6147SOL     OW18772   3.854   1.821   3.433
 6147SOL    HW118773   3.844   1.806   3.532
 6147SOL    HW218774   3.768   1.857   3.397
 6148SOL     OW18775   4.274   0.196   2.747
 6148SOL    HW118776   4.269   0.191   2.847
 6148SOL    HW218777   4.276   0.292   2.718
 6149SOL     OW18778   4.075   1.801   2.715
 6149SOL    HW118779   4.125   1.715   2.721
 6149SOL    HW218780   4.140   1.878   2.712
 6150SOL     OW18781   4.045   0.943   2.104
 6150SOL    HW118782   4.127   0.982   2.062
 6150SOL    HW218783   4.018   0.861   2.055
 6151SOL     OW18784   4.185   1.266   3.589
 6151SOL    HW118785   4.135   1.267   3.503
 6151SOL    HW218786   4.122   1.248   3.665
 6152SOL     OW18787   3.926   0.285   3.360
 6152SOL    HW118788   3.846   0.345   3.347
 6152SOL    HW218789   3.916   0.236   3.446
 6153SOL     OW18790   4.188   1.743   2.185
 6153SOL    HW118791   4.221   1.782   2.271
 6153SOL    HW218792   4.264   1.736   2.120
 6154SOL     OW18793   3.973   1.785   3.103
 6154SOL    HW118794   4.030   1.720   3.153
 6154SOL    HW218795   3.957   1.752   3.010
 6155SOL     OW18796   4.106   0.700   2.342
 6155SOL    HW118797   4.151   0.610   2.339
 6155SOL    HW218798   4.012   0.689   2.375
 6156SOL     OW18799   4.338   0.122   1.979
 6156SOL    HW118800   4.436   0.100   1.986
 6156SOL    HW218801   4.307   0.105   1.886
 6157SOL     OW18802   4.527   1.402   2.786
 6157SOL    HW118803   4.617   1.416   2.744
 6157SOL    HW218804   4.456   1.404   2.715
 6158SOL     OW18805   4.263   0.064   2.374
 6158SOL    HW118806   4.182   0.065   2.432
 6158SOL    HW218807   4.266   0.147   2.319
 6159SOL     OW18808   4.021   0.035   2.033
 6159SOL    HW118809   4.070   0.119   2.012
 6159SOL    HW218810   4.083  -0.030   2.078
 6160SOL     OW18811   4.800   0.683   3.326
 6160SOL    HW118812   4.720   0.622   3.329
 6160SOL    HW218813   4.881   0.630   3.302
 6161SOL     OW18814   4.183   1.152   2.603
 6161SOL    HW118815   4.112   1.125   2.668
 6161SOL    HW218816   4.157   1.124   2.510
 6162SOL     OW18817   3.802   0.556   3.248
 6162SOL    HW118818   3.894   0.555   3.207
 6162SOL    HW218819   3.796   0.630   3.315
 6163SOL     OW18820   4.285   0.222   3.009
 6163SOL    HW118821   4.323   0.138   3.046
 6163SOL    HW218822   4.197   0.241   3.053
 6164SOL     OW18823   4.212   1.385   2.036
 6164SOL    HW118824   4.125   1.370   2.083
 6164SOL    HW218825   4.195   1.411   1.941
 6165SOL     OW18826   4.251   0.256   2.190
 6165SOL    HW118827   4.278   0.197   2.115
 6165SOL    HW218828   4.251   0.351   2.159
 6166SOL     OW18829   4.134   0.813   3.113
 6166SOL    HW118830   4.220   0.825   3.163
 6166SOL    HW218831   4.092   0.726   3.140
 6167SOL     OW18832   3.788   1.564   3.193
 6167SOL    HW118833   3.742   1.646   3.159
 6167SOL    HW218834   3.886   1.583   3.202
 6168SOL     OW18835   4.091   1.100   2.363
 6168SOL    HW118836   4.084   1.183   2.307
 6168SOL    HW218837   4.095   1.020   2.303
 6169SOL     OW18838   4.290   0.537   2.727
 6169SOL    HW118839   4.302   0.603   2.653
 6169SOL    HW218840   4.336   0.571   2.810
 6170SOL     OW18841   4.078   1.510   3.191
 6170SOL    HW118842   4.057   1.466   3.104
 6170SOL    HW218843   4.175   1.536   3.194
 6171SOL     OW18844   4.126   0.751   3.460
 6171SOL    HW118845   4.194   0.806   3.413
 6171SOL    HW218846   4.166   0.663   3.487
 6172SOL     OW18847   4.228   0.050   3.602
 6172SOL    HW118848   4.186  -0.007   3.532
 6172SOL    HW218849   4.162   0.119   3.634
 6173SOL     OW18850   4.297   0.870   2.891
 6173SOL    HW118851   4.341   0.959   2.882
 6173SOL    HW218852   4.234   0.870   2.968
 6174SOL     OW18853   4.031   0.213   3.093
 6174SOL    HW118854   4.008   0.250   3.183
 6174SOL    HW218855   4.001   0.118   3.087
 6175SOL     OW18856   3.761   1.310   3.144
 6175SOL    HW118857   3.814   1.261   3.212
 6175SOL    HW218858   3.783   1.408   3.149
 6176SOL     OW18859   4.031   0.063   2.480
 6176SOL    HW118860   4.020   0.157   2.513
 6176SOL    HW218861   4.026   0.000   2.557
 6177SOL     OW18862   4.074   0.898   3.666
 6177SOL    HW118863   4.150   0.942   3.714
 6177SOL    HW218864   4.109   0.851   3.584
 6178SOL     OW18865   4.043   0.810   2.811
 6178SOL    HW118866   4.136   0.846   2.816
 6178SOL    HW218867   4.037   0.725   2.863
 6179SOL     OW18868   4.063   0.509   2.868
 6179SOL    HW118869   4.011   0.426   2.851
 6179SOL    HW218870   4.140   0.514   2.804
 6180SOL     OW18871   3.732   1.326   2.062
 6180SOL    HW118872   3.639   1.347   2.031
 6180SOL    HW218873   3.742   1.227   2.075
 6181SOL     OW18874   3.812   1.801   2.789
 6181SOL    HW118875   3.770   1.715   2.762
 6181SOL    HW218876   3.906   1.804   2.755
 6182SOL     OW18877   4.228   1.568   2.772
 6182SOL    HW118878   4.294   1.642   2.781
 6182SOL    HW218879   4.272   1.489   2.730
 6183SOL     OW18880   3.764   0.544   2.976
 6183SOL    HW118881   3.849   0.511   2.935
 6183SOL    HW218882   3.777   0.559   3.074
 6184SOL     OW18883   3.913   0.520   3.584
 6184SOL    HW118884   3.972   0.480   3.514
 6184SOL    HW218885   3.855   0.591   3.543
 6185SOL     OW18886   4.539   0.572   2.187
 6185SOL    HW118887   4.546   0.483   2.141
 6185SOL    HW218888   4.445   0.606   2.179
 6186SOL     OW18889   3.976   1.564   3.606
 6186SOL    HW118890   3.946   1.621   3.682
 6186SOL    HW218891   3.969   1.467   3.632
 6187SOL     OW18892   4.197   0.500   2.053
 6187SOL    HW118893   4.258   0.580   2.057
 6187SOL    HW218894   4.102   0.531   2.060
 6188SOL     OW18895   3.883   1.137   3.328
 6188SOL    HW118896   3.905   1.076   3.404
 6188SOL    HW218897   3.893   1.088   3.242
 6189SOL     OW18898   3.807   1.258   2.884
 6189SOL    HW118899   3.802   1.257   2.984
 6189SOL    HW218900   3.724   1.217   2.846
 6190SOL     OW18901   4.412   1.662   3.578
 6190SOL    HW118902   4.356   1.743   3.587
 6190SOL    HW218903   4.464   1.666   3.492
 6191SOL     OW18904   3.854   1.794   3.713
 6191SOL    HW118905   3.813   1.720   3.766
 6191SOL    HW218906   3.918   1.845   3.771
 6192SOL     OW18907   3.987   0.326   2.582
 6192SOL    HW118908   3.908   0.377   2.548
 6192SOL    HW218909   3.978   0.311   2.680
 6193SOL     OW18910   4.096   1.288   3.352
 6193SOL    HW118911   4.083   1.381   3.318
 6193SOL    HW218912   4.012   1.236   3.339
 6194SOL     OW18913   4.314   1.487   2.353
 6194SOL    HW118914   4.356   1.429   2.283
 6194SOL    HW218915   4.270   1.566   2.309
 6195SOL     OW18916   3.979   1.348   2.152
 6195SOL    HW118917   3.883   1.349   2.125
 6195SOL    HW218918   3.991   1.401   2.236
 6196SOL     OW18919   3.829   1.013   3.588
 6196SOL    HW118920   3.752   0.980   3.642
 6196SOL    HW218921   3.914   0.983   3.630
 6197SOL     OW18922   4.396   0.203   3.351
 6197SOL    HW118923   4.486   0.187   3.311
 6197SOL    HW218924   4.404   0.208   3.450
 6198SOL     OW18925   3.799   0.345   1.895
 6198SOL    HW118926   3.707   0.317   1.866
 6198SOL    HW218927   3.830   0.422   1.839
 6199SOL     OW18928   3.796   0.166   2.180
 6199SOL    HW118929   3.779   0.249   2.126
 6199SOL    HW218930   3.886   0.129   2.158
 6200SOL     OW18931   4.337   0.842   3.293
 6200SOL    HW118932   4.393   0.923   3.276
 6200SOL    HW218933   4.396   0.762   3.296
 6201SOL     OW18934   4.440   0.565   3.570
 6201SOL    HW118935   4.459   0.630   3.644
 6201SOL    HW218936   4.500   0.485   3.579
 6202SOL     OW18937   4.114   1.741   3.422
 6202SOL    HW118938   4.023   1.782   3.420
 6202SOL    HW218939   4.107   1.647   3.454
 6203SOL     OW18940   4.318   0.745   2.514
 6203SOL    HW118941   4.368   0.830   2.495
 6203SOL    HW218942   4.230   0.747   2.466
 6204SOL     OW18943   3.945   1.314   3.706
 6204SOL    HW118944   3.880   1.241   3.685
 6204SOL    HW218945   3.949   1.328   3.804
 6205SOL     OW18946   3.803   1.240   2.515
 6205SOL    HW118947   3.802   1.193   2.603
 6205SOL    HW218948   3.885   1.212   2.464
 6206SOL     OW18949   4.396   1.391   3.486
 6206SOL    HW118950   4.318   1.341   3.524
 6206SOL    HW218951   4.393   1.486   3.517
 6207SOL     OW18952   4.152   0.424   2.382
 6207SOL    HW118953   4.182   0.352   2.320
 6207SOL    HW218954   4.113   0.384   2.465
 6208SOL     OW18955   4.041   0.547   3.142
 6208SOL    HW118956   4.079   0.488   3.214
 6208SOL    HW218957   4.081   0.521   3.054
 6209SOL     OW18958   4.536   1.586   2.549
 6209SOL    HW118959   4.568   1.596   2.455
 6209SOL    HW218960   4.457   1.524   2.551
 6210SOL     OW18961   3.763   1.077   2.162
 6210SOL    HW118962   3.862   1.066   2.153
 6210SOL    HW218963   3.723   0.991   2.194
 6211SOL     OW18964   3.954   0.628   3.837
 6211SOL    HW118965   3.861   0.626   3.874
 6211SOL    HW218966   3.955   0.589   3.745
 6212SOL     OW18967   3.949   0.275   4.720
 6212SOL    HW118968   3.984   0.258   4.812
 6212SOL    HW218969   3.861   0.230   4.708
 6213SOL     OW18970   3.743   0.368   4.371
 6213SOL    HW118971   3.661   0.411   4.410
 6213SOL    HW218972   3.715   0.295   4.308
 6214SOL     OW18973   4.293   1.275   4.889
 6214SOL    HW118974   4.200   1.268   4.852
 6214SOL    HW218975   4.304   1.364   4.933
 6215SOL     OW18976   4.574   0.798   5.547
 6215SOL    HW118977   4.570   0.874   5.612
 6215SOL    HW218978   4.596   0.834   5.456
 6216SOL     OW18979   4.409   1.012   4.389
 6216SOL    HW118980   4.478   0.996   4.459
 6216SOL    HW218981   4.336   1.069   4.427
 6217SOL     OW18982   4.410   1.161   5.527
 6217SOL    HW118983   4.470   1.240   5.541
 6217SOL    HW218984   4.324   1.192   5.486
 6218SOL     OW18985   4.059   1.435   4.785
 6218SOL    HW118986   3.981   1.404   4.732
 6218SOL    HW218987   4.117   1.493   4.728
 6219SOL     OW18988   4.162   0.392   5.223
 6219SOL    HW118989   4.244   0.336   5.232
 6219SOL    HW218990   4.081   0.334   5.227
 6220SOL     OW18991   3.955   1.713   4.207
 6220SOL    HW118992   3.989   1.790   4.261
 6220SOL    HW218993   3.999   1.713   4.117
 6221SOL     OW18994   3.954   1.434   4.262
 6221SOL    HW118995   3.928   1.530   4.262
 6221SOL    HW218996   3.883   1.380   4.307
 6222SOL     OW18997   3.964   1.091   4.610
 6222SOL    HW118998   3.978   1.007   4.662
 6222SOL    HW218999   3.909   1.155   4.665
 6223SOL     OW19000   4.344   1.786   5.163
 6223SOL    HW119001   4.252   1.769   5.198
 6223SOL    HW219002   4.372   1.878   5.189
 6224SOL     OW19003   4.330   0.964   3.847
 6224SOL    HW119004   4.337   1.048   3.793
 6224SOL    HW219005   4.376   0.977   3.935
 6225SOL     OW19006   3.846   0.643   4.287
 6225SOL    HW119007   3.801   0.555   4.304
 6225SOL    HW219008   3.845   0.697   4.371
 6226SOL     OW19009   3.751   1.596   3.841
 6226SOL    HW119010   3.732   1.500   3.862
 6226SOL    HW219011   3.718   1.654   3.916
 6227SOL     OW19012   3.837   0.737   5.321
 6227SOL    HW119013   3.925   0.724   5.366
 6227SOL    HW219014   3.824   0.834   5.299
 6228SOL     OW19015   4.337   1.365   4.450
 6228SOL    HW119016   4.288   1.278   4.459
 6228SOL    HW219017   4.314   1.408   4.363
 6229SOL     OW19018   4.533   0.004   4.226
 6229SOL    HW119019   4.573   0.095   4.217
 6229SOL    HW219020   4.433   0.012   4.232
 6230SOL     OW19021   3.921   0.976   4.988
 6230SOL    HW119022   4.010   0.931   4.974
 6230SOL    HW219023   3.848   0.911   4.969
 6231SOL     OW19024   4.041   0.251   5.525
 6231SOL    HW119025   4.112   0.322   5.531
 6231SOL    HW219026   3.953   0.290   5.553
 6232SOL     OW19027   4.322   0.729   3.994
 6232SOL    HW119028   4.346   0.798   3.926
 6232SOL    HW219029   4.244   0.762   4.048
 6233SOL     OW19030   3.800   0.811   4.513
 6233SOL    HW119031   3.899   0.799   4.522
 6233SOL    HW219032   3.776   0.906   4.534
 6234SOL     OW19033   3.854   1.821   5.295
 6234SOL    HW119034   3.844   1.806   5.394
 6234SOL    HW219035   3.768   1.857   5.259
 6235SOL     OW19036   4.274   0.196   4.609
 6235SOL    HW119037   4.269   0.191   4.709
 6235SOL    HW219038   4.276   0.292   4.580
 6236SOL     OW19039   4.075   1.801   4.577
 6236SOL    HW119040   4.125   1.715   4.583
 6236SOL    HW219041   4.140   1.878   4.574
 6237SOL     OW19042   4.045   0.943   3.966
 6237SOL    HW119043   4.127   0.982   3.924
 6237SOL    HW219044   4.018   0.861   3.917
 6238SOL     OW19045   4.185   1.266   5.451
 6238SOL    HW119046   4.135   1.267   5.365
 6238SOL    HW219047   4.122   1.248   5.527
 6239SOL     OW19048   3.926   0.285   5.222
 6239SOL    HW119049   3.846   0.345   5.209
 6239SOL    HW219050   3.916   0.236   5.308
 6240SOL     OW19051   4.188   1.743   4.047
 6240SOL    HW119052   4.221   1.782   4.133
 6240SOL    HW219053   4.264   1.736   3.982
 6241SOL     OW19054   3.973   1.785   4.965
 6241SOL    HW119055   4.030   1.720   5.015
 6241SOL    HW219056   3.957   1.752   4.872
 6242SOL     OW19057   4.106   0.700   4.204
 6242SOL    HW119058   4.151   0.610   4.201
 6242SOL    HW219059   4.012   0.689   4.237
 6243SOL     OW19060   4.338   0.122   3.841
 6243SOL    HW119061   4.436   0.100   3.848
 6243SOL    HW219062   4.307   0.105   3.748
 6244SOL     OW19063   4.527   1.402   4.648
 6244SOL    HW119064   4.617   1.416   4.606
 6244SOL    HW219065   4.456   1.404   4.577
 6245SOL     OW19066   4.263   0.064   4.236
 6245SOL    HW119067   4.182   0.065   4.294
 6245SOL    HW219068   4.266   0.147   4.181
 6246SOL     OW19069   4.021   0.035   3.895
 6246SOL    HW119070   4.070   0.119   3.874
 6246SOL    HW219071   4.083  -0.030   3.940
 6247SOL     OW19072   4.800   0.683   5.188
 6247SOL    HW119073   4.720   0.622   5.191
 6247SOL    HW219074   4.881   0.630   5.164
 6248SOL     OW19075   4.183   1.152   4.465
 6248SOL    HW119076   4.112   1.125   4.530
 6248SOL    HW219077   4.157   1.124   4.372
 6249SOL     OW19078   3.802   0.556   5.110
 6249SOL    HW119079   3.894   0.555   5.069
 6249SOL    HW219080   3.796   0.630   5.177
 6250SOL     OW19081   4.285   0.222   4.871
 6250SOL    HW119082   4.323   0.138   4.908
 6250SOL    HW219083   4.197   0.241   4.915
 6251SOL     OW19084   4.212   1.385   3.898
 6251SOL    HW119085   4.125   1.370   3.945
 6251SOL    HW219086   4.195   1.411   3.803
 6252SOL     OW19087   4.251   0.256   4.052
 6252SOL    HW119088   4.278   0.197   3.977
 6252SOL    HW219089   4.251   0.351   4.021
 6253SOL     OW19090   4.134   0.813   4.975
 6253SOL    HW119091   4.220   0.825   5.025
 6253SOL    HW219092   4.092   0.726   5.002
 6254SOL     OW19093   3.788   1.564   5.055
 6254SOL    HW119094   3.742   1.646   5.021
 6254SOL    HW219095   3.886   1.583   5.064
 6255SOL     OW19096   4.091   1.100   4.225
 6255SOL    HW119097   4.084   1.183   4.169
 6255SOL    HW219098   4.095   1.020   4.165
 6256SOL     OW19099   4.290   0.537   4.589
 6256SOL    HW119100   4.302   0.603   4.515
 6256SOL    HW219101   4.336   0.571   4.672
 6257SOL     OW19102   4.078   1.510   5.053
 6257SOL    HW119103   4.057   1.466   4.966
 6257SOL    HW219104   4.175   1.536   5.056
 6258SOL     OW19105   4.126   0.751   5.322
 6258SOL    HW119106   4.194   0.806   5.275
 6258SOL    HW219107   4.166   0.663   5.349
 6259SOL     OW19108   4.228   0.050   5.464
 6259SOL    HW119109   4.186  -0.007   5.394
 6259SOL    HW219110   4.162   0.119   5.496
 6260SOL     OW19111   4.297   0.870   4.753
 6260SOL    HW119112   4.341   0.959   4.744
 6260SOL    HW219113   4.234   0.870   4.830
 6261SOL     OW19114   4.031   0.213   4.955
 6261SOL    HW119115   4.008   0.250   5.045
 6261SOL    HW219116   4.001   0.118   4.949
 6262SOL     OW19117   3.761   1.310   5.006
 6262SOL    HW119118   3.814   1.261   5.074
 6262SOL    HW219119   3.783   1.408   5.011
 6263SOL     OW19120   4.031   0.063   4.342
 6263SOL    HW119121   4.020   0.157   4.375
 6263SOL    HW219122   4.026   0.000   4.419
 6264SOL     OW19123   4.074   0.898   5.528
 6264SOL    HW119124   4.150   0.942   5.576
 6264SOL    HW219125   4.109   0.851   5.446
 6265SOL     OW19126   4.043   0.810   4.673
 6265SOL    HW119127   4.136   0.846   4.678
 6265SOL    HW219128   4.037   0.725   4.725
 6266SOL     OW19129   4.063   0.509   4.730
 6266SOL    HW119130   4.011   0.426   4.713
 6266SOL    HW219131   4.140   0.514   4.666
 6267SOL     OW19132   3.732   1.326   3.924
 6267SOL    HW119133   3.639   1.347   3.893
 6267SOL    HW219134   3.742   1.227   3.937
 6268SOL     OW19135   3.812   1.801   4.651
 6268SOL    HW119136   3.770   1.715   4.624
 6268SOL    HW219137   3.906   1.804   4.617
 6269SOL     OW19138   4.228   1.568   4.634
 6269SOL    HW119139   4.294   1.642   4.643
 6269SOL    HW219140   4.272   1.489   4.592
 6270SOL     OW19141   3.764   0.544   4.838
 6270SOL    HW119142   3.849   0.511   4.797
 6270SOL    HW219143   3.777   0.559   4.936
 6271SOL     OW19144   3.913   0.520   5.446
 6271SOL    HW119145   3.972   0.480   5.376
 6271SOL    HW219146   3.855   0.591   5.405
 6272SOL     OW19147   4.539   0.572   4.049
 6272SOL    HW119148   4.546   0.483   4.003
 6272SOL    HW219149   4.445   0.606   4.041
 6273SOL     OW19150   3.976   1.564   5.468
 6273SOL    HW119151   3.946   1.621   5.544
 6273SOL    HW219152   3.969   1.467   5.494
 6274SOL     OW19153   4.197   0.500   3.915
 6274SOL    HW119154   4.258   0.580   3.919
 6274SOL    HW219155   4.102   0.531   3.922
 6275SOL     OW19156   3.883   1.137   5.190
 6275SOL    HW119157   3.905   1.076   5.266
 6275SOL    HW219158   3.893   1.088   5.104
 6276SOL     OW19159   3.807   1.258   4.746
 6276SOL    HW119160   3.802   1.257   4.846
 6276SOL    HW219161   3.724   1.217   4.708
 6277SOL     OW19162   4.412   1.662   5.440
 6277SOL    HW119163   4.356   1.743   5.449
 6277SOL    HW219164   4.464   1.666   5.354
 6278SOL     OW19165   3.854   1.794   5.575
 6278SOL    HW119166   3.813   1.720   5.628
 6278SOL    HW219167   3.918   1.845   5.633
 6279SOL     OW19168   3.987   0.326   4.444
 6279SOL    HW119169   3.908   0.377   4.410
 6279SOL    HW219170   3.978   0.311   4.542
 6280SOL     OW19171   4.096   1.288   5.214
 6280SOL    HW119172   4.083   1.381   5.180
 6280SOL    HW219173   4.012   1.236   5.201
 6281SOL     OW19174   4.314   1.487   4.215
 6281SOL    HW119175   4.356   1.429   4.145
 6281SOL    HW219176   4.270   1.566   4.171
 6282SOL     OW19177   3.979   1.348   4.014
 6282SOL    HW119178   3.883   1.349   3.987
 6282SOL    HW219179   3.991   1.401   4.098
 6283SOL     OW19180   3.829   1.013   5.450
 6283SOL    HW119181   3.752   0.980   5.504
 6283SOL    HW219182   3.914   0.983   5.492
 6284SOL     OW19183   4.396   0.203   5.213
 6284SOL    HW119184   4.486   0.187   5.173
 6284SOL    HW219185   4.404   0.208   5.312
 6285SOL     OW19186   3.799   0.345   3.757
 6285SOL    HW119187   3.707   0.317   3.728
 6285SOL    HW219188   3.830   0.422   3.701
 6286SOL     OW19189   3.796   0.166   4.042
 6286SOL    HW119190   3.779   0.249   3.988
 6286SOL    HW219191   3.886   0.129   4.020
 6287SOL     OW19192   4.337   0.842   5.155
 6287SOL    HW119193   4.393   0.923   5.138
 6287SOL    HW219194   4.396   0.762   5.158
 6288SOL     OW19195   4.440   0.565   5.432
 6288SOL    HW119196   4.459   0.630   5.506
 6288SOL    HW219197   4.500   0.485   5.441
 6289SOL     OW19198   4.114   1.741   5.284
 6289SOL    HW119199   4.023   1.782   5.282
 6289SOL    HW219200   4.107   1.647   5.316
 6290SOL     OW19201   4.318   0.745   4.376
 6290SOL    HW119202   4.368   0.830   4.357
 6290SOL    HW219203   4.230   0.747   4.328
 6291SOL     OW19204   3.945   1.314   5.568
 6291SOL    HW119205   3.880   1.241   5.547
 6291SOL    HW219206   3.949   1.328   5.666
 6292SOL     OW19207   3.803   1.240   4.377
 6292SOL    HW119208   3.802   1.193   4.465
 6292SOL    HW219209   3.885   1.212   4.326
 6293SOL     OW19210   4.396   1.391   5.348
 6293SOL    HW119211   4.318   1.341   5.386
 6293SOL    HW219212   4.393   1.486   5.379
 6294SOL     OW19213   4.152   0.424   4.244
 6294SOL    HW119214   4.182   0.352   4.182
 6294SOL    HW219215   4.113   0.384   4.327
 6295SOL     OW19216   4.041   0.547   5.004
 6295SOL    HW119217   4.079   0.488   5.076
 6295SOL    HW219218   4.081   0.521   4.916
 6296SOL     OW19219   4.536   1.586   4.411
 6296SOL    HW119220   4.568   1.596   4.317
 6296SOL    HW219221   4.457   1.524   4.413
 6297SOL     OW19222   3.763   1.077   4.024
 6297SOL    HW119223   3.862   1.066   4.015
 6297SOL    HW219224   3.723   0.991   4.056
 6298SOL     OW19225   3.954   0.628   5.699
 6298SOL    HW119226   3.861   0.626   5.736
 6298SOL    HW219227   3.955   0.589   5.607
 6299SOL     OW19228   3.949   0.275   6.582
 6299SOL    HW119229   3.984   0.258   6.674
 6299SOL    HW219230   3.861   0.230   6.570
 6300SOL     OW19231   3.743   0.368   6.233
 6300SOL    HW119232   3.661   0.411   6.272
 6300SOL    HW219233   3.715   0.295   6.170
 6301SOL     OW19234   4.293   1.275   6.751
 6301SOL    HW119235   4.200   1.268   6.714
 6301SOL    HW219236   4.304   1.364   6.795
 6302SOL     OW19237   4.574   0.798   7.409
 6302SOL    HW119238   4.570   0.874   7.474
 6302SOL    HW219239   4.596   0.834   7.318
 6303SOL     OW19240   4.409   1.012   6.251
 6303SOL    HW119241   4.478   0.996   6.321
 6303SOL    HW219242   4.336   1.069   6.289
 6304SOL     OW19243   4.410   1.161   7.389
 6304SOL    HW119244   4.470   1.240   7.403
 6304SOL    HW219245   4.324   1.192   7.348
 6305SOL     OW19246   4.059   1.435   6.647
 6305SOL    HW119247   3.981   1.404   6.594
 6305SOL    HW219248   4.117   1.493   6.590
 6306SOL     OW19249   4.162   0.392   7.085
 6306SOL    HW119250   4.244   0.336   7.094
 6306SOL    HW219251   4.081   0.334   7.089
 6307SOL     OW19252   3.955   1.713   6.069
 6307SOL    HW119253   3.989   1.790   6.123
 6307SOL    HW219254   3.999   1.713   5.979
 6308SOL     OW19255   3.954   1.434   6.124
 6308SOL    HW119256   3.928   1.530   6.124
 6308SOL    HW219257   3.883   1.380   6.169
 6309SOL     OW19258   3.964   1.091   6.472
 6309SOL    HW119259   3.978   1.007   6.524
 6309SOL    HW219260   3.909   1.155   6.527
 6310SOL     OW19261   4.344   1.786   7.025
 6310SOL    HW119262   4.252   1.769   7.060
 6310SOL    HW219263   4.372   1.878   7.051
 6311SOL     OW19264   4.330   0.964   5.709
 6311SOL    HW119265   4.337   1.048   5.655
 6311SOL    HW219266   4.376   0.977   5.797
 6312SOL     OW19267   3.846   0.643   6.149
 6312SOL    HW119268   3.801   0.555   6.166
 6312SOL    HW219269   3.845   0.697   6.233
 6313SOL     OW19270   3.751   1.596   5.703
 6313SOL    HW119271   3.732   1.500   5.724
 6313SOL    HW219272   3.718   1.654   5.778
 6314SOL     OW19273   3.837   0.737   7.183
 6314SOL    HW119274   3.925   0.724   7.228
 6314SOL    HW219275   3.824   0.834   7.161
 6315SOL     OW19276   4.337   1.365   6.312
 6315SOL    HW119277   4.288   1.278   6.321
 6315SOL    HW219278   4.314   1.408   6.225
 6316SOL     OW19279   4.533   0.004   6.088
 6316SOL    HW119280   4.573   0.095   6.079
 6316SOL    HW219281   4.433   0.012   6.094
 6317SOL     OW19282   3.921   0.976   6.850
 6317SOL    HW119283   4.010   0.931   6.836
 6317SOL    HW219284   3.848   0.911   6.831
 6318SOL     OW19285   4.041   0.251   7.387
 6318SOL    HW119286   4.112   0.322   7.393
 6318SOL    HW219287   3.953   0.290   7.415
 6319SOL     OW19288   4.322   0.729   5.856
 6319SOL    HW119289   4.346   0.798   5.788
 6319SOL    HW219290   4.244   0.762   5.910
 6320SOL     OW19291   3.800   0.811   6.375
 6320SOL    HW119292   3.899   0.799   6.384
 6320SOL    HW219293   3.776   0.906   6.396
 6321SOL     OW19294   3.854   1.821   7.157
 6321SOL    HW119295   3.844   1.806   7.256
 6321SOL    HW219296   3.768   1.857   7.121
 6322SOL     OW19297   4.274   0.196   6.471
 6322SOL    HW119298   4.269   0.191   6.571
 6322SOL    HW219299   4.276   0.292   6.442
 6323SOL     OW19300   4.075   1.801   6.439
 6323SOL    HW119301   4.125   1.715   6.445
 6323SOL    HW219302   4.140   1.878   6.436
 6324SOL     OW19303   4.045   0.943   5.828
 6324SOL    HW119304   4.127   0.982   5.786
 6324SOL    HW219305   4.018   0.861   5.779
 6325SOL     OW19306   4.185   1.266   7.313
 6325SOL    HW119307   4.135   1.267   7.227
 6325SOL    HW219308   4.122   1.248   7.389
 6326SOL     OW19309   3.926   0.285   7.084
 6326SOL    HW119310   3.846   0.345   7.071
 6326SOL    HW219311   3.916   0.236   7.170
 6327SOL     OW19312   4.188   1.743   5.909
 6327SOL    HW119313   4.221   1.782   5.995
 6327SOL    HW219314   4.264   1.736   5.844
 6328SOL     OW19315   3.973   1.785   6.827
 6328SOL    HW119316   4.030   1.720   6.877
 6328SOL    HW219317   3.957   1.752   6.734
 6329SOL     OW19318   4.106   0.700   6.066
 6329SOL    HW119319   4.151   0.610   6.063
 6329SOL    HW219320   4.012   0.689   6.099
 6330SOL     OW19321   4.338   0.122   5.703
 6330SOL    HW119322   4.436   0.100   5.710
 6330SOL    HW219323   4.307   0.105   5.610
 6331SOL     OW19324   4.527   1.402   6.510
 6331SOL    HW119325   4.617   1.416   6.468
 6331SOL    HW219326   4.456   1.404   6.439
 6332SOL     OW19327   4.263   0.064   6.098
 6332SOL    HW119328   4.182   0.065   6.156
 6332SOL    HW219329   4.266   0.147   6.043
 6333SOL     OW19330   4.021   0.035   5.757
 6333SOL    HW119331   4.070   0.119   5.736
 6333SOL    HW219332   4.083  -0.030   5.802
 6334SOL     OW19333   4.800   0.683   7.050
 6334SOL    HW119334   4.720   0.622   7.053
 6334SOL    HW219335   4.881   0.630   7.026
 6335SOL     OW19336   4.183   1.152   6.327
 6335SOL    HW119337   4.112   1.125   6.392
 6335SOL    HW219338   4.157   1.124   6.234
 6336SOL     OW19339   3.802   0.556   6.972
 6336SOL    HW119340   3.894   0.555   6.931
 6336SOL    HW219341   3.796   0.630   7.039
 6337SOL     OW19342   4.285   0.222   6.733
 6337SOL    HW119343   4.323   0.138   6.770
 6337SOL    HW219344   4.197   0.241   6.777
 6338SOL     OW19345   4.212   1.385   5.760
 6338SOL    HW119346   4.125   1.370   5.807
 6338SOL    HW219347   4.195   1.411   5.665
 6339SOL     OW19348   4.251   0.256   5.914
 6339SOL    HW119349   4.278   0.197   5.839
 6339SOL    HW219350   4.251   0.351   5.883
 6340SOL     OW19351   4.134   0.813   6.837
 6340SOL    HW119352   4.220   0.825   6.887
 6340SOL    HW219353   4.092   0.726   6.864
 6341SOL     OW19354   3.788   1.564   6.917
 6341SOL    HW119355   3.742   1.646   6.883
 6341SOL    HW219356   3.886   1.583   6.926
 6342SOL     OW19357   4.091   1.100   6.087
 6342SOL    HW119358   4.084   1.183   6.031
 6342SOL    HW219359   4.095   1.020   6.027
 6343SOL     OW19360   4.290   0.537   6.451
 6343SOL    HW119361   4.302   0.603   6.377
 6343SOL    HW219362   4.336   0.571   6.534
 6344SOL     OW19363   4.078   1.510   6.915
 6344SOL    HW119364   4.057   1.466   6.828
 6344SOL    HW219365   4.175   1.536   6.918
 6345SOL     OW19366   4.126   0.751   7.184
 6345SOL    HW119367   4.194   0.806   7.137
 6345SOL    HW219368   4.166   0.663   7.211
 6346SOL     OW19369   4.228   0.050   7.326
 6346SOL    HW119370   4.186  -0.007   7.256
 6346SOL    HW219371   4.162   0.119   7.358
 6347SOL     OW19372   4.297   0.870   6.615
 6347SOL    HW119373   4.341   0.959   6.606
 6347SOL    HW219374   4.234   0.870   6.692
 6348SOL     OW19375   4.031   0.213   6.817
 6348SOL    HW119376   4.008   0.250   6.907
 6348SOL    HW219377   4.001   0.118   6.811
 6349SOL     OW19378   3.761   1.310   6.868
 6349SOL    HW119379   3.814   1.261   6.936
 6349SOL    HW219380   3.783   1.408   6.873
 6350SOL     OW19381   4.031   0.063   6.204
 6350SOL    HW119382   4.020   0.157   6.237
 6350SOL    HW219383   4.026   0.000   6.281
 6351SOL     OW19384   4.074   0.898   7.390
 6351SOL    HW119385   4.150   0.942   7.438
 6351SOL    HW219386   4.109   0.851   7.308
 6352SOL     OW19387   4.043   0.810   6.535
 6352SOL    HW119388   4.136   0.846   6.540
 6352SOL    HW219389   4.037   0.725   6.587
 6353SOL     OW19390   4.063   0.509   6.592
 6353SOL    HW119391   4.011   0.426   6.575
 6353SOL    HW219392   4.140   0.514   6.528
 6354SOL     OW19393   3.732   1.326   5.786
 6354SOL    HW119394   3.639   1.347   5.755
 6354SOL    HW219395   3.742   1.227   5.799
 6355SOL     OW19396   3.812   1.801   6.513
 6355SOL    HW119397   3.770   1.715   6.486
 6355SOL    HW219398   3.906   1.804   6.479
 6356SOL     OW19399   4.228   1.568   6.496
 6356SOL    HW119400   4.294   1.642   6.505
 6356SOL    HW219401   4.272   1.489   6.454
 6357SOL     OW19402   3.764   0.544   6.700
 6357SOL    HW119403   3.849   0.511   6.659
 6357SOL    HW219404   3.777   0.559   6.798
 6358SOL     OW19405   3.913   0.520   7.308
 6358SOL    HW119406   3.972   0.480   7.238
 6358SOL    HW219407   3.855   0.591   7.267
 6359SOL     OW19408   4.539   0.572   5.911
 6359SOL    HW119409   4.546   0.483   5.865
 6359SOL    HW219410   4.445   0.606   5.903
 6360SOL     OW19411   3.976   1.564   7.330
 6360SOL    HW119412   3.946   1.621   7.406
 6360SOL    HW219413   3.969   1.467   7.356
 6361SOL     OW19414   4.197   0.500   5.777
 6361SOL    HW119415   4.258   0.580   5.781
 6361SOL    HW219416   4.102   0.531   5.784
 6362SOL     OW19417   3.883   1.137   7.052
 6362SOL    HW119418   3.905   1.076   7.128
 6362SOL    HW219419   3.893   1.088   6.966
 6363SOL     OW19420   3.807   1.258   6.608
 6363SOL    HW119421   3.802   1.257   6.708
 6363SOL    HW219422   3.724   1.217   6.570
 6364SOL     OW19423   4.412   1.662   7.302
 6364SOL    HW119424   4.356   1.743   7.311
 6364SOL    HW219425   4.464   1.666   7.216
 6365SOL     OW19426   3.854   1.794   7.437
 6365SOL    HW119427   3.813   1.720   7.490
 6365SOL    HW219428   3.918   1.845   7.495
 6366SOL     OW19429   3.987   0.326   6.306
 6366SOL    HW119430   3.908   0.377   6.272
 6366SOL    HW219431   3.978   0.311   6.404
 6367SOL     OW19432   4.096   1.288   7.076
 6367SOL    HW119433   4.083   1.381   7.042
 6367SOL    HW219434   4.012   1.236   7.063
 6368SOL     OW19435   4.314   1.487   6.077
 6368SOL    HW119436   4.356   1.429   6.007
 6368SOL    HW219437   4.270   1.566   6.033
 6369SOL     OW19438   3.979   1.348   5.876
 6369SOL    HW119439   3.883   1.349   5.849
 6369SOL    HW219440   3.991   1.401   5.960
 6370SOL     OW19441   3.829   1.013   7.312
 6370SOL    HW119442   3.752   0.980   7.366
 6370SOL    HW219443   3.914   0.983   7.354
 6371SOL     OW19444   4.396   0.203   7.075
 6371SOL    HW119445   4.486   0.187   7.035
 6371SOL    HW219446   4.404   0.208   7.174
 6372SOL     OW19447   3.799   0.345   5.619
 6372SOL    HW119448   3.707   0.317   5.590
 6372SOL    HW219449   3.830   0.422   5.563
 6373SOL     OW19450   3.796   0.166   5.904
 6373SOL    HW119451   3.779   0.249   5.850
 6373SOL    HW219452   3.886   0.129   5.882
 6374SOL     OW19453   4.337   0.842   7.017
 6374SOL    HW119454   4.393   0.923   7.000
 6374SOL    HW219455   4.396   0.762   7.020
 6375SOL     OW19456   4.440   0.565   7.294
 6375SOL    HW119457   4.459   0.630   7.368
 6375SOL    HW219458   4.500   0.485   7.303
 6376SOL     OW19459   4.114   1.741   7.146
 6376SOL    HW119460   4.023   1.782   7.144
 6376SOL    HW219461   4.107   1.647   7.178
 6377SOL     OW19462   4.318   0.745   6.238
 6377SOL    HW119463   4.368   0.830   6.219
 6377SOL    HW219464   4.230   0.747   6.190
 6378SOL     OW19465   3.945   1.314   7.430
 6378SOL    HW119466   3.880   1.241   7.409
 6378SOL    HW219467   3.949   1.328   7.528
 6379SOL     OW19468   3.803   1.240   6.239
 6379SOL    HW119469   3.802   1.193   6.327
 6379SOL    HW219470   3.885   1.212   6.188
 6380SOL     OW19471   4.396   1.391   7.210
 6380SOL    HW119472   4.318   1.341   7.248
 6380SOL    HW219473   4.393   1.486   7.241
 6381SOL     OW19474   4.152   0.424   6.106
 6381SOL    HW119475   4.182   0.352   6.044
 6381SOL    HW219476   4.113   0.384   6.189
 6382SOL     OW19477   4.041   0.547   6.866
 6382SOL    HW119478   4.079   0.488   6.938
 6382SOL    HW219479   4.081   0.521   6.778
 6383SOL     OW19480   4.536   1.586   6.273
 6383SOL    HW119481   4.568   1.596   6.179
 6383SOL    HW219482   4.457   1.524   6.275
 6384SOL     OW19483   3.763   1.077   5.886
 6384SOL    HW119484   3.862   1.066   5.877
 6384SOL    HW219485   3.723   0.991   5.918
 6385SOL     OW19486   3.954   0.628   7.561
 6385SOL    HW119487   3.861   0.626   7.598
 6385SOL    HW219488   3.955   0.589   7.469
 6386SOL     OW19489   3.949   0.275   8.444
 6386SOL    HW119490   3.984   0.258   8.536
 6386SOL    HW219491   3.861   0.230   8.432
 6387SOL     OW19492   3.743   0.368   8.095
 6387SOL    HW119493   3.661   0.411   8.134
 6387SOL    HW219494   3.715   0.295   8.032
 6388SOL     OW19495   4.293   1.275   8.613
 6388SOL    HW119496   4.200   1.268   8.576
 6388SOL    HW219497   4.304   1.364   8.657
 6389SOL     OW19498   4.574   0.798   9.271
 6389SOL    HW119499   4.570   0.874   9.336
 6389SOL    HW219500   4.596   0.834   9.180
 6390SOL     OW19501   4.409   1.012   8.113
 6390SOL    HW119502   4.478   0.996   8.183
 6390SOL    HW219503   4.336   1.069   8.151
 6391SOL     OW19504   4.410   1.161   9.251
 6391SOL    HW119505   4.470   1.240   9.265
 6391SOL    HW219506   4.324   1.192   9.210
 6392SOL     OW19507   4.059   1.435   8.509
 6392SOL    HW119508   3.981   1.404   8.456
 6392SOL    HW219509   4.117   1.493   8.452
 6393SOL     OW19510   4.162   0.392   8.947
 6393SOL    HW119511   4.244   0.336   8.956
 6393SOL    HW219512   4.081   0.334   8.951
 6394SOL     OW19513   3.955   1.713   7.931
 6394SOL    HW119514   3.989   1.790   7.985
 6394SOL    HW219515   3.999   1.713   7.841
 6395SOL     OW19516   3.954   1.434   7.986
 6395SOL    HW119517   3.928   1.530   7.986
 6395SOL    HW219518   3.883   1.380   8.031
 6396SOL     OW19519   3.964   1.091   8.334
 6396SOL    HW119520   3.978   1.007   8.386
 6396SOL    HW219521   3.909   1.155   8.389
 6397SOL     OW19522   4.344   1.786   8.887
 6397SOL    HW119523   4.252   1.769   8.922
 6397SOL    HW219524   4.372   1.878   8.913
 6398SOL     OW19525   4.330   0.964   7.571
 6398SOL    HW119526   4.337   1.048   7.517
 6398SOL    HW219527   4.376   0.977   7.659
 6399SOL     OW19528   3.846   0.643   8.011
 6399SOL    HW119529   3.801   0.555   8.028
 6399SOL    HW219530   3.845   0.697   8.095
 6400SOL     OW19531   3.751   1.596   7.565
 6400SOL    HW119532   3.732   1.500   7.586
 6400SOL    HW219533   3.718   1.654   7.640
 6401SOL     OW19534   3.837   0.737   9.045
 6401SOL    HW119535   3.925   0.724   9.090
 6401SOL    HW219536   3.824   0.834   9.023
 6402SOL     OW19537   4.337   1.365   8.174
 6402SOL    HW119538   4.288   1.278   8.183
 6402SOL    HW219539   4.314   1.408   8.087
 6403SOL     OW19540   4.533   0.004   7.950
 6403SOL    HW119541   4.573   0.095   7.941
 6403SOL    HW219542   4.433   0.012   7.956
 6404SOL     OW19543   3.921   0.976   8.712
 6404SOL    HW119544   4.010   0.931   8.698
 6404SOL    HW219545   3.848   0.911   8.693
 6405SOL     OW19546   4.041   0.251   9.249
 6405SOL    HW119547   4.112   0.322   9.255
 6405SOL    HW219548   3.953   0.290   9.277
 6406SOL     OW19549   4.322   0.729   7.718
 6406SOL    HW119550   4.346   0.798   7.650
 6406SOL    HW219551   4.244   0.762   7.772
 6407SOL     OW19552   3.800   0.811   8.237
 6407SOL    HW119553   3.899   0.799   8.246
 6407SOL    HW219554   3.776   0.906   8.258
 6408SOL     OW19555   3.854   1.821   9.019
 6408SOL    HW119556   3.844   1.806   9.118
 6408SOL    HW219557   3.768   1.857   8.983
 6409SOL     OW19558   4.274   0.196   8.333
 6409SOL    HW119559   4.269   0.191   8.433
 6409SOL    HW219560   4.276   0.292   8.304
 6410SOL     OW19561   4.075   1.801   8.301
 6410SOL    HW119562   4.125   1.715   8.307
 6410SOL    HW219563   4.140   1.878   8.298
 6411SOL     OW19564   4.045   0.943   7.690
 6411SOL    HW119565   4.127   0.982   7.648
 6411SOL    HW219566   4.018   0.861   7.641
 6412SOL     OW19567   4.185   1.266   9.175
 6412SOL    HW119568   4.135   1.267   9.089
 6412SOL    HW219569   4.122   1.248   9.251
 6413SOL     OW19570   3.926   0.285   8.946
 6413SOL    HW119571   3.846   0.345   8.933
 6413SOL    HW219572   3.916   0.236   9.032
 6414SOL     OW19573   4.188   1.743   7.771
 6414SOL    HW119574   4.221   1.782   7.857
 6414SOL    HW219575   4.264   1.736   7.706
 6415SOL     OW19576   3.973   1.785   8.689
 6415SOL    HW119577   4.030   1.720   8.739
 6415SOL    HW219578   3.957   1.752   8.596
 6416SOL     OW19579   4.106   0.700   7.928
 6416SOL    HW119580   4.151   0.610   7.925
 6416SOL    HW219581   4.012   0.689   7.961
 6417SOL     OW19582   4.338   0.122   7.565
 6417SOL    HW119583   4.436   0.100   7.572
 6417SOL    HW219584   4.307   0.105   7.472
 6418SOL     OW19585   4.527   1.402   8.372
 6418SOL    HW119586   4.617   1.416   8.330
 6418SOL    HW219587   4.456   1.404   8.301
 6419SOL     OW19588   4.263   0.064   7.960
 6419SOL    HW119589   4.182   0.065   8.018
 6419SOL    HW219590   4.266   0.147   7.905
 6420SOL     OW19591   4.021   0.035   7.619
 6420SOL    HW119592   4.070   0.119   7.598
 6420SOL    HW219593   4.083  -0.030   7.664
 6421SOL     OW19594   4.800   0.683   8.912
 6421SOL    HW119595   4.720   0.622   8.915
 6421SOL    HW219596   4.881   0.630   8.888
 6422SOL     OW19597   4.183   1.152   8.189
 6422SOL    HW119598   4.112   1.125   8.254
 6422SOL    HW219599   4.157   1.124   8.096
 6423SOL     OW19600   3.802   0.556   8.834
 6423SOL    HW119601   3.894   0.555   8.793
 6423SOL    HW219602   3.796   0.630   8.901
 6424SOL     OW19603   4.285   0.222   8.595
 6424SOL    HW119604   4.323   0.138   8.632
 6424SOL    HW219605   4.197   0.241   8.639
 6425SOL     OW19606   4.212   1.385   7.622
 6425SOL    HW119607   4.125   1.370   7.669
 6425SOL    HW219608   4.195   1.411   7.527
 6426SOL     OW19609   4.251   0.256   7.776
 6426SOL    HW119610   4.278   0.197   7.701
 6426SOL    HW219611   4.251   0.351   7.745
 6427SOL     OW19612   4.134   0.813   8.699
 6427SOL    HW119613   4.220   0.825   8.749
 6427SOL    HW219614   4.092   0.726   8.726
 6428SOL     OW19615   3.788   1.564   8.779
 6428SOL    HW119616   3.742   1.646   8.745
 6428SOL    HW219617   3.886   1.583   8.788
 6429SOL     OW19618   4.091   1.100   7.949
 6429SOL    HW119619   4.084   1.183   7.893
 6429SOL    HW219620   4.095   1.020   7.889
 6430SOL     OW19621   4.290   0.537   8.313
 6430SOL    HW119622   4.302   0.603   8.239
 6430SOL    HW219623   4.336   0.571   8.396
 6431SOL     OW19624   4.078   1.510   8.777
 6431SOL    HW119625   4.057   1.466   8.690
 6431SOL    HW219626   4.175   1.536   8.780
 6432SOL     OW19627   4.126   0.751   9.046
 6432SOL    HW119628   4.194   0.806   8.999
 6432SOL    HW219629   4.166   0.663   9.073
 6433SOL     OW19630   4.228   0.050   9.188
 6433SOL    HW119631   4.186  -0.007   9.118
 6433SOL    HW219632   4.162   0.119   9.220
 6434SOL     OW19633   4.297   0.870   8.477
 6434SOL    HW119634   4.341   0.959   8.468
 6434SOL    HW219635   4.234   0.870   8.554
 6435SOL     OW19636   4.031   0.213   8.679
 6435SOL    HW119637   4.008   0.250   8.769
 6435SOL    HW219638   4.001   0.118   8.673
 6436SOL     OW19639   3.761   1.310   8.730
 6436SOL    HW119640   3.814   1.261   8.798
 6436SOL    HW219641   3.783   1.408   8.735
 6437SOL     OW19642   4.031   0.063   8.066
 6437SOL    HW119643   4.020   0.157   8.099
 6437SOL    HW219644   4.026   0.000   8.143
 6438SOL     OW19645   4.074   0.898   9.252
 6438SOL    HW119646   4.150   0.942   9.300
 6438SOL    HW219647   4.109   0.851   9.170
 6439SOL     OW19648   4.043   0.810   8.397
 6439SOL    HW119649   4.136   0.846   8.402
 6439SOL    HW219650   4.037   0.725   8.449
 6440SOL     OW19651   4.063   0.509   8.454
 6440SOL    HW119652   4.011   0.426   8.437
 6440SOL    HW219653   4.140   0.514   8.390
 6441SOL     OW19654   3.732   1.326   7.648
 6441SOL    HW119655   3.639   1.347   7.617
 6441SOL    HW219656   3.742   1.227   7.661
 6442SOL     OW19657   3.812   1.801   8.375
 6442SOL    HW119658   3.770   1.715   8.348
 6442SOL    HW219659   3.906   1.804   8.341
 6443SOL     OW19660   4.228   1.568   8.358
 6443SOL    HW119661   4.294   1.642   8.367
 6443SOL    HW219662   4.272   1.489   8.316
 6444SOL     OW19663   3.764   0.544   8.562
 6444SOL    HW119664   3.849   0.511   8.521
 6444SOL    HW219665   3.777   0.559   8.660
 6445SOL     OW19666   3.913   0.520   9.170
 6445SOL    HW119667   3.972   0.480   9.100
 6445SOL    HW219668   3.855   0.591   9.129
 6446SOL     OW19669   4.539   0.572   7.773
 6446SOL    HW119670   4.546   0.483   7.727
 6446SOL    HW219671   4.445   0.606   7.765
 6447SOL     OW19672   3.976   1.564   9.192
 6447SOL    HW119673   3.946   1.621   9.268
 6447SOL    HW219674   3.969   1.467   9.218
 6448SOL     OW19675   4.197   0.500   7.639
 6448SOL    HW119676   4.258   0.580   7.643
 6448SOL    HW219677   4.102   0.531   7.646
 6449SOL     OW19678   3.883   1.137   8.914
 6449SOL    HW119679   3.905   1.076   8.990
 6449SOL    HW219680   3.893   1.088   8.828
 6450SOL     OW19681   3.807   1.258   8.470
 6450SOL    HW119682   3.802   1.257   8.570
 6450SOL    HW219683   3.724   1.217   8.432
 6451SOL     OW19684   4.412   1.662   9.164
 6451SOL    HW119685   4.356   1.743   9.173
 6451SOL    HW219686   4.464   1.666   9.078
 6452SOL     OW19687   3.854   1.794   9.299
 6452SOL    HW119688   3.813   1.720   9.352
 6452SOL    HW219689   3.918   1.845   9.357
 6453SOL     OW19690   3.987   0.326   8.168
 6453SOL    HW119691   3.908   0.377   8.134
 6453SOL    HW219692   3.978   0.311   8.266
 6454SOL     OW19693   4.096   1.288   8.938
 6454SOL    HW119694   4.083   1.381   8.904
 6454SOL    HW219695   4.012   1.236   8.925
 6455SOL     OW19696   4.314   1.487   7.939
 6455SOL    HW119697   4.356   1.429   7.869
 6455SOL    HW219698   4.270   1.566   7.895
 6456SOL     OW19699   3.979   1.348   7.738
 6456SOL    HW119700   3.883   1.349   7.711
 6456SOL    HW219701   3.991   1.401   7.822
 6457SOL     OW19702   3.829   1.013   9.174
 6457SOL    HW119703   3.752   0.980   9.228
 6457SOL    HW219704   3.914   0.983   9.216
 6458SOL     OW19705   4.396   0.203   8.937
 6458SOL    HW119706   4.486   0.187   8.897
 6458SOL    HW219707   4.404   0.208   9.036
 6459SOL     OW19708   3.799   0.345   7.481
 6459SOL    HW119709   3.707   0.317   7.452
 6459SOL    HW219710   3.830   0.422   7.425
 6460SOL     OW19711   3.796   0.166   7.766
 6460SOL    HW119712   3.779   0.249   7.712
 6460SOL    HW219713   3.886   0.129   7.744
 6461SOL     OW19714   4.337   0.842   8.879
 6461SOL    HW119715   4.393   0.923   8.862
 6461SOL    HW219716   4.396   0.762   8.882
 6462SOL     OW19717   4.440   0.565   9.156
 6462SOL    HW119718   4.459   0.630   9.230
 6462SOL    HW219719   4.500   0.485   9.165
 6463SOL     OW19720   4.114   1.741   9.008
 6463SOL    HW119721   4.023   1.782   9.006
 6463SOL    HW219722   4.107   1.647   9.040
 6464SOL     OW19723   4.318   0.745   8.100
 6464SOL    HW119724   4.368   0.830   8.081
 6464SOL    HW219725   4.230   0.747   8.052
 6465SOL     OW19726   3.945   1.314   9.292
 6465SOL    HW119727   3.880   1.241   9.271
 6465SOL    HW219728   3.949   1.328   9.390
 6466SOL     OW19729   3.803   1.240   8.101
 6466SOL    HW119730   3.802   1.193   8.189
 6466SOL    HW219731   3.885   1.212   8.050
 6467SOL     OW19732   4.396   1.391   9.072
 6467SOL    HW119733   4.318   1.341   9.110
 6467SOL    HW219734   4.393   1.486   9.103
 6468SOL     OW19735   4.152   0.424   7.968
 6468SOL    HW119736   4.182   0.352   7.906
 6468SOL    HW219737   4.113   0.384   8.051
 6469SOL     OW19738   4.041   0.547   8.728
 6469SOL    HW119739   4.079   0.488   8.800
 6469SOL    HW219740   4.081   0.521   8.640
 6470SOL     OW19741   4.536   1.586   8.135
 6470SOL    HW119742   4.568   1.596   8.041
 6470SOL    HW219743   4.457   1.524   8.137
 6471SOL     OW19744   3.763   1.077   7.748
 6471SOL    HW119745   3.862   1.066   7.739
 6471SOL    HW219746   3.723   0.991   7.780
 6472SOL     OW19747   3.954   0.628   9.423
 6472SOL    HW119748   3.861   0.626   9.460
 6472SOL    HW219749   3.955   0.589   9.331
 6473SOL     OW19750   3.949   0.275  10.306
 6473SOL    HW119751   3.984   0.258  10.398
 6473SOL    HW219752   3.861   0.230  10.294
 6474SOL     OW19753   3.743   0.368   9.957
 6474SOL    HW119754   3.661   0.411   9.996
 6474SOL    HW219755   3.715   0.295   9.894
 6475SOL     OW19756   4.293   1.275  10.475
 6475SOL    HW119757   4.200   1.268  10.438
 6475SOL    HW219758   4.304   1.364  10.519
 6476SOL     OW19759   4.574   0.798  11.133
 6476SOL    HW119760   4.570   0.874  11.198
 6476SOL    HW219761   4.596   0.834  11.042
 6477SOL     OW19762   4.409   1.012   9.975
 6477SOL    HW119763   4.478   0.996  10.045
 6477SOL    HW219764   4.336   1.069  10.013
 6478SOL     OW19765   4.410   1.161  11.113
 6478SOL    HW119766   4.470   1.240  11.127
 6478SOL    HW219767   4.324   1.192  11.072
 6479SOL     OW19768   4.059   1.435  10.371
 6479SOL    HW119769   3.981   1.404  10.318
 6479SOL    HW219770   4.117   1.493  10.314
 6480SOL     OW19771   4.162   0.392  10.809
 6480SOL    HW119772   4.244   0.336  10.818
 6480SOL    HW219773   4.081   0.334  10.813
 6481SOL     OW19774   3.955   1.713   9.793
 6481SOL    HW119775   3.989   1.790   9.847
 6481SOL    HW219776   3.999   1.713   9.703
 6482SOL     OW19777   3.954   1.434   9.848
 6482SOL    HW119778   3.928   1.530   9.848
 6482SOL    HW219779   3.883   1.380   9.893
 6483SOL     OW19780   3.964   1.091  10.196
 6483SOL    HW119781   3.978   1.007  10.248
 6483SOL    HW219782   3.909   1.155  10.251
 6484SOL     OW19783   4.344   1.786  10.749
 6484SOL    HW119784   4.252   1.769  10.784
 6484SOL    HW219785   4.372   1.878  10.775
 6485SOL     OW19786   4.330   0.964   9.433
 6485SOL    HW119787   4.337   1.048   9.379
 6485SOL    HW219788   4.376   0.977   9.521
 6486SOL     OW19789   3.846   0.643   9.873
 6486SOL    HW119790   3.801   0.555   9.890
 6486SOL    HW219791   3.845   0.697   9.957
 6487SOL     OW19792   3.751   1.596   9.427
 6487SOL    HW119793   3.732   1.500   9.448
 6487SOL    HW219794   3.718   1.654   9.502
 6488SOL     OW19795   3.837   0.737  10.907
 6488SOL    HW119796   3.925   0.724  10.952
 6488SOL    HW219797   3.824   0.834  10.885
 6489SOL     OW19798   4.337   1.365  10.036
 6489SOL    HW119799   4.288   1.278  10.045
 6489SOL    HW219800   4.314   1.408   9.949
 6490SOL     OW19801   4.533   0.004   9.812
 6490SOL    HW119802   4.573   0.095   9.803
 6490SOL    HW219803   4.433   0.012   9.818
 6491SOL     OW19804   3.921   0.976  10.574
 6491SOL    HW119805   4.010   0.931  10.560
 6491SOL    HW219806   3.848   0.911  10.555
 6492SOL     OW19807   4.041   0.251  11.111
 6492SOL    HW119808   4.112   0.322  11.117
 6492SOL    HW219809   3.953   0.290  11.139
 6493SOL     OW19810   4.322   0.729   9.580
 6493SOL    HW119811   4.346   0.798   9.512
 6493SOL    HW219812   4.244   0.762   9.634
 6494SOL     OW19813   3.800   0.811  10.099
 6494SOL    HW119814   3.899   0.799  10.108
 6494SOL    HW219815   3.776   0.906  10.120
 6495SOL     OW19816   3.854   1.821  10.881
 6495SOL    HW119817   3.844   1.806  10.980
 6495SOL    HW219818   3.768   1.857  10.845
 6496SOL     OW19819   4.274   0.196  10.195
 6496SOL    HW119820   4.269   0.191  10.295
 6496SOL    HW219821   4.276   0.292  10.166
 6497SOL     OW19822   4.075   1.801  10.163
 6497SOL    HW119823   4.125   1.715  10.169
 6497SOL    HW219824   4.140   1.878  10.160
 6498SOL     OW19825   4.045   0.943   9.552
 6498SOL    HW119826   4.127   0.982   9.510
 6498SOL    HW219827   4.018   0.861   9.503
 6499SOL     OW19828   4.185   1.266  11.037
 6499SOL    HW119829   4.135   1.267  10.951
 6499SOL    HW219830   4.122   1.248  11.113
 6500SOL     OW19831   3.926   0.285  10.808
 6500SOL    HW119832   3.846   0.345  10.795
 6500SOL    HW219833   3.916   0.236  10.894
 6501SOL     OW19834   4.188   1.743   9.633
 6501SOL    HW119835   4.221   1.782   9.719
 6501SOL    HW219836   4.264   1.736   9.568
 6502SOL     OW19837   3.973   1.785  10.551
 6502SOL    HW119838   4.030   1.720  10.601
 6502SOL    HW219839   3.957   1.752  10.458
 6503SOL     OW19840   4.106   0.700   9.790
 6503SOL    HW119841   4.151   0.610   9.787
 6503SOL    HW219842   4.012   0.689   9.823
 6504SOL     OW19843   4.338   0.122   9.427
 6504SOL    HW119844   4.436   0.100   9.434
 6504SOL    HW219845   4.307   0.105   9.334
 6505SOL     OW19846   4.527   1.402  10.234
 6505SOL    HW119847   4.617   1.416  10.192
 6505SOL    HW219848   4.456   1.404  10.163
 6506SOL     OW19849   4.263   0.064   9.822
 6506SOL    HW119850   4.182   0.065   9.880
 6506SOL    HW219851   4.266   0.147   9.767
 6507SOL     OW19852   4.021   0.035   9.481
 6507SOL    HW119853   4.070   0.119   9.460
 6507SOL    HW219854   4.083  -0.030   9.526
 6508SOL     OW19855   4.800   0.683  10.774
 6508SOL    HW119856   4.720   0.622  10.777
 6508SOL    HW219857   4.881   0.630  10.750
 6509SOL     OW19858   4.183   1.152  10.051
 6509SOL    HW119859   4.112   1.125  10.116
 6509SOL    HW219860   4.157   1.124   9.958
 6510SOL     OW19861   3.802   0.556  10.696
 6510SOL    HW119862   3.894   0.555  10.655
 6510SOL    HW219863   3.796   0.630  10.763
 6511SOL     OW19864   4.285   0.222  10.457
 6511SOL    HW119865   4.323   0.138  10.494
 6511SOL    HW219866   4.197   0.241  10.501
 6512SOL     OW19867   4.212   1.385   9.484
 6512SOL    HW119868   4.125   1.370   9.531
 6512SOL    HW219869   4.195   1.411   9.389
 6513SOL     OW19870   4.251   0.256   9.638
 6513SOL    HW119871   4.278   0.197   9.563
 6513SOL    HW219872   4.251   0.351   9.607
 6514SOL     OW19873   4.134   0.813  10.561
 6514SOL    HW119874   4.220   0.825  10.611
 6514SOL    HW219875   4.092   0.726  10.588
 6515SOL     OW19876   3.788   1.564  10.641
 6515SOL    HW119877   3.742   1.646  10.607
 6515SOL    HW219878   3.886   1.583  10.650
 6516SOL     OW19879   4.091   1.100   9.811
 6516SOL    HW119880   4.084   1.183   9.755
 6516SOL    HW219881   4.095   1.020   9.751
 6517SOL     OW19882   4.290   0.537  10.175
 6517SOL    HW119883   4.302   0.603  10.101
 6517SOL    HW219884   4.336   0.571  10.258
 6518SOL     OW19885   4.078   1.510  10.639
 6518SOL    HW119886   4.057   1.466  10.552
 6518SOL    HW219887   4.175   1.536  10.642
 6519SOL     OW19888   4.126   0.751  10.908
 6519SOL    HW119889   4.194   0.806  10.861
 6519SOL    HW219890   4.166   0.663  10.935
 6520SOL     OW19891   4.228   0.050  11.050
 6520SOL    HW119892   4.186  -0.007  10.980
 6520SOL    HW219893   4.162   0.119  11.082
 6521SOL     OW19894   4.297   0.870  10.339
 6521SOL    HW119895   4.341   0.959  10.330
 6521SOL    HW219896   4.234   0.870  10.416
 6522SOL     OW19897   4.031   0.213  10.541
 6522SOL    HW119898   4.008   0.250  10.631
 6522SOL    HW219899   4.001   0.118  10.535
 6523SOL     OW19900   3.761   1.310  10.592
 6523SOL    HW119901   3.814   1.261  10.660
 6523SOL    HW219902   3.783   1.408  10.597
 6524SOL     OW19903   4.031   0.063   9.928
 6524SOL    HW119904   4.020   0.157   9.961
 6524SOL    HW219905   4.026   0.000  10.005
 6525SOL     OW19906   4.074   0.898  11.114
 6525SOL    HW119907   4.150   0.942  11.162
 6525SOL    HW219908   4.109   0.851  11.032
 6526SOL     OW19909   4.043   0.810  10.259
 6526SOL    HW119910   4.136   0.846  10.264
 6526SOL    HW219911   4.037   0.725  10.311
 6527SOL     OW19912   4.063   0.509  10.316
 6527SOL    HW119913   4.011   0.426  10.299
 6527SOL    HW219914   4.140   0.514  10.252
 6528SOL     OW19915   3.732   1.326   9.510
 6528SOL    HW119916   3.639   1.347   9.479
 6528SOL    HW219917   3.742   1.227   9.523
 6529SOL     OW19918   3.812   1.801  10.237
 6529SOL    HW119919   3.770   1.715  10.210
 6529SOL    HW219920   3.906   1.804  10.203
 6530SOL     OW19921   4.228   1.568  10.220
 6530SOL    HW119922   4.294   1.642  10.229
 6530SOL    HW219923   4.272   1.489  10.178
 6531SOL     OW19924   3.764   0.544  10.424
 6531SOL    HW119925   3.849   0.511  10.383
 6531SOL    HW219926   3.777   0.559  10.522
 6532SOL     OW19927   3.913   0.520  11.032
 6532SOL    HW119928   3.972   0.480  10.962
 6532SOL    HW219929   3.855   0.591  10.991
 6533SOL     OW19930   4.539   0.572   9.635
 6533SOL    HW119931   4.546   0.483   9.589
 6533SOL    HW219932   4.445   0.606   9.627
 6534SOL     OW19933   3.976   1.564  11.054
 6534SOL    HW119934   3.946   1.621  11.130
 6534SOL    HW219935   3.969   1.467  11.080
 6535SOL     OW19936   4.197   0.500   9.501
 6535SOL    HW119937   4.258   0.580   9.505
 6535SOL    HW219938   4.102   0.531   9.508
 6536SOL     OW19939   3.883   1.137  10.776
 6536SOL    HW119940   3.905   1.076  10.852
 6536SOL    HW219941   3.893   1.088  10.690
 6537SOL     OW19942   3.807   1.258  10.332
 6537SOL    HW119943   3.802   1.257  10.432
 6537SOL    HW219944   3.724   1.217  10.294
 6538SOL     OW19945   4.412   1.662  11.026
 6538SOL    HW119946   4.356   1.743  11.035
 6538SOL    HW219947   4.464   1.666  10.940
 6539SOL     OW19948   3.854   1.794  11.161
 6539SOL    HW119949   3.813   1.720  11.214
 6539SOL    HW219950   3.918   1.845  11.219
 6540SOL     OW19951   3.987   0.326  10.030
 6540SOL    HW119952   3.908   0.377   9.996
 6540SOL    HW219953   3.978   0.311  10.128
 6541SOL     OW19954   4.096   1.288  10.800
 6541SOL    HW119955   4.083   1.381  10.766
 6541SOL    HW219956   4.012   1.236  10.787
 6542SOL     OW19957   4.314   1.487   9.801
 6542SOL    HW119958   4.356   1.429   9.731
 6542SOL    HW219959   4.270   1.566   9.757
 6543SOL     OW19960   3.979   1.348   9.600
 6543SOL    HW119961   3.883   1.349   9.573
 6543SOL    HW219962   3.991   1.401   9.684
 6544SOL     OW19963   3.829   1.013  11.036
 6544SOL    HW119964   3.752   0.980  11.090
 6544SOL    HW219965   3.914   0.983  11.078
 6545SOL     OW19966   4.396   0.203  10.799
 6545SOL    HW119967   4.486   0.187  10.759
 6545SOL    HW219968   4.404   0.208  10.898
 6546SOL     OW19969   3.799   0.345   9.343
 6546SOL    HW119970   3.707   0.317   9.314
 6546SOL    HW219971   3.830   0.422   9.287
 6547SOL     OW19972   3.796   0.166   9.628
 6547SOL    HW119973   3.779   0.249   9.574
 6547SOL    HW219974   3.886   0.129   9.606
 6548SOL     OW19975   4.337   0.842  10.741
 6548SOL    HW119976   4.393   0.923  10.724
 6548SOL    HW219977   4.396   0.762  10.744
 6549SOL     OW19978   4.440   0.565  11.018
 6549SOL    HW119979   4.459   0.630  11.092
 6549SOL    HW219980   4.500   0.485  11.027
 6550SOL     OW19981   4.114   1.741  10.870
 6550SOL    HW119982   4.023   1.782  10.868
 6550SOL    HW219983   4.107   1.647  10.902
 6551SOL     OW19984   4.318   0.745   9.962
 6551SOL    HW119985   4.368   0.830   9.943
 6551SOL    HW219986   4.230   0.747   9.914
 6552SOL     OW19987   3.945   1.314  11.154
 6552SOL    HW119988   3.880   1.241  11.133
 6552SOL    HW219989   3.949   1.328  11.252
 6553SOL     OW19990   3.803   1.240   9.963
 6553SOL    HW119991   3.802   1.193  10.051
 6553SOL    HW219992   3.885   1.212   9.912
 6554SOL     OW19993   4.396   1.391  10.934
 6554SOL    HW119994   4.318   1.341  10.972
 6554SOL    HW219995   4.393   1.486  10.965
 6555SOL     OW19996   4.152   0.424   9.830
 6555SOL    HW119997   4.182   0.352   9.768
 6555SOL    HW219998   4.113   0.384   9.913
 6556SOL     OW19999   4.041   0.547  10.590
 6556SOL    HW120000   4.079   0.488  10.662
 6556SOL    HW220001   4.081   0.521  10.502
 6557SOL     OW20002   4.536   1.586   9.997
 6557SOL    HW120003   4.568   1.596   9.903
 6557SOL    HW220004   4.457   1.524   9.999
 6558SOL     OW20005   3.763   1.077   9.610
 6558SOL    HW120006   3.862   1.066   9.601
 6558SOL    HW220007   3.723   0.991   9.642
 6559SOL     OW20008   3.954   2.490   0.113
 6559SOL    HW120009   3.861   2.488   0.150
 6559SOL    HW220010   3.955   2.451   0.021
 6560SOL     OW20011   3.949   2.137   0.996
 6560SOL    HW120012   3.984   2.120   1.088
 6560SOL    HW220013   3.861   2.092   0.984
 6561SOL     OW20014   3.743   2.230   0.647
 6561SOL    HW120015   3.661   2.273   0.686
 6561SOL    HW220016   3.715   2.157   0.584
 6562SOL     OW20017   4.293   3.137   1.165
 6562SOL    HW120018   4.200   3.130   1.128
 6562SOL    HW220019   4.304   3.226   1.209
 6563SOL     OW20020   4.574   2.660   1.823
 6563SOL    HW120021   4.570   2.736   1.888
 6563SOL    HW220022   4.596   2.696   1.732
 6564SOL     OW20023   4.409   2.874   0.665
 6564SOL    HW120024   4.478   2.858   0.735
 6564SOL    HW220025   4.336   2.931   0.703
 6565SOL     OW20026   4.410   3.023   1.803
 6565SOL    HW120027   4.470   3.102   1.817
 6565SOL    HW220028   4.324   3.054   1.762
 6566SOL     OW20029   4.059   3.297   1.061
 6566SOL    HW120030   3.981   3.266   1.008
 6566SOL    HW220031   4.117   3.355   1.004
 6567SOL     OW20032   4.162   2.254   1.499
 6567SOL    HW120033   4.244   2.198   1.508
 6567SOL    HW220034   4.081   2.196   1.503
 6568SOL     OW20035   3.955   3.575   0.483
 6568SOL    HW120036   3.989   3.652   0.537
 6568SOL    HW220037   3.999   3.575   0.393
 6569SOL     OW20038   3.954   3.296   0.538
 6569SOL    HW120039   3.928   3.392   0.538
 6569SOL    HW220040   3.883   3.242   0.583
 6570SOL     OW20041   3.964   2.953   0.886
 6570SOL    HW120042   3.978   2.869   0.938
 6570SOL    HW220043   3.909   3.017   0.941
 6571SOL     OW20044   4.344   3.648   1.439
 6571SOL    HW120045   4.252   3.631   1.474
 6571SOL    HW220046   4.372   3.740   1.465
 6572SOL     OW20047   4.330   2.826   0.123
 6572SOL    HW120048   4.337   2.910   0.069
 6572SOL    HW220049   4.376   2.839   0.211
 6573SOL     OW20050   3.846   2.505   0.563
 6573SOL    HW120051   3.801   2.417   0.580
 6573SOL    HW220052   3.845   2.559   0.647
 6574SOL     OW20053   3.751   3.458   0.117
 6574SOL    HW120054   3.732   3.362   0.138
 6574SOL    HW220055   3.718   3.516   0.192
 6575SOL     OW20056   3.837   2.599   1.597
 6575SOL    HW120057   3.925   2.586   1.642
 6575SOL    HW220058   3.824   2.696   1.575
 6576SOL     OW20059   4.337   3.227   0.726
 6576SOL    HW120060   4.288   3.140   0.735
 6576SOL    HW220061   4.314   3.270   0.639
 6577SOL     OW20062   4.533   1.866   0.502
 6577SOL    HW120063   4.573   1.957   0.493
 6577SOL    HW220064   4.433   1.874   0.508
 6578SOL     OW20065   3.921   2.838   1.264
 6578SOL    HW120066   4.010   2.793   1.250
 6578SOL    HW220067   3.848   2.773   1.245
 6579SOL     OW20068   4.041   2.113   1.801
 6579SOL    HW120069   4.112   2.184   1.807
 6579SOL    HW220070   3.953   2.152   1.829
 6580SOL     OW20071   4.322   2.591   0.270
 6580SOL    HW120072   4.346   2.660   0.202
 6580SOL    HW220073   4.244   2.624   0.324
 6581SOL     OW20074   3.800   2.673   0.789
 6581SOL    HW120075   3.899   2.661   0.798
 6581SOL    HW220076   3.776   2.768   0.810
 6582SOL     OW20077   3.854   3.683   1.571
 6582SOL    HW120078   3.844   3.668   1.670
 6582SOL    HW220079   3.768   3.719   1.535
 6583SOL     OW20080   4.274   2.058   0.885
 6583SOL    HW120081   4.269   2.053   0.985
 6583SOL    HW220082   4.276   2.154   0.856
 6584SOL     OW20083   4.075   3.663   0.853
 6584SOL    HW120084   4.125   3.577   0.859
 6584SOL    HW220085   4.140   3.740   0.850
 6585SOL     OW20086   4.045   2.805   0.242
 6585SOL    HW120087   4.127   2.844   0.200
 6585SOL    HW220088   4.018   2.723   0.193
 6586SOL     OW20089   4.185   3.128   1.727
 6586SOL    HW120090   4.135   3.129   1.641
 6586SOL    HW220091   4.122   3.110   1.803
 6587SOL     OW20092   3.926   2.147   1.498
 6587SOL    HW120093   3.846   2.207   1.485
 6587SOL    HW220094   3.916   2.098   1.584
 6588SOL     OW20095   4.188   3.605   0.323
 6588SOL    HW120096   4.221   3.644   0.409
 6588SOL    HW220097   4.264   3.598   0.258
 6589SOL     OW20098   3.973   3.647   1.241
 6589SOL    HW120099   4.030   3.582   1.291
 6589SOL    HW220100   3.957   3.614   1.148
 6590SOL     OW20101   4.106   2.562   0.480
 6590SOL    HW120102   4.151   2.472   0.477
 6590SOL    HW220103   4.012   2.551   0.513
 6591SOL     OW20104   4.338   1.984   0.117
 6591SOL    HW120105   4.436   1.962   0.124
 6591SOL    HW220106   4.307   1.967   0.024
 6592SOL     OW20107   4.527   3.264   0.924
 6592SOL    HW120108   4.617   3.278   0.882
 6592SOL    HW220109   4.456   3.266   0.853
 6593SOL     OW20110   4.263   1.926   0.512
 6593SOL    HW120111   4.182   1.927   0.570
 6593SOL    HW220112   4.266   2.009   0.457
 6594SOL     OW20113   4.021   1.897   0.171
 6594SOL    HW120114   4.070   1.981   0.150
 6594SOL    HW220115   4.083   1.832   0.216
 6595SOL     OW20116   4.800   2.545   1.464
 6595SOL    HW120117   4.720   2.484   1.467
 6595SOL    HW220118   4.881   2.492   1.440
 6596SOL     OW20119   4.183   3.014   0.741
 6596SOL    HW120120   4.112   2.987   0.806
 6596SOL    HW220121   4.157   2.986   0.648
 6597SOL     OW20122   3.802   2.418   1.386
 6597SOL    HW120123   3.894   2.417   1.345
 6597SOL    HW220124   3.796   2.492   1.453
 6598SOL     OW20125   4.285   2.084   1.147
 6598SOL    HW120126   4.323   2.000   1.184
 6598SOL    HW220127   4.197   2.103   1.191
 6599SOL     OW20128   4.212   3.247   0.174
 6599SOL    HW120129   4.125   3.232   0.221
 6599SOL    HW220130   4.195   3.273   0.079
 6600SOL     OW20131   4.251   2.118   0.328
 6600SOL    HW120132   4.278   2.059   0.253
 6600SOL    HW220133   4.251   2.213   0.297
 6601SOL     OW20134   4.134   2.675   1.251
 6601SOL    HW120135   4.220   2.687   1.301
 6601SOL    HW220136   4.092   2.588   1.278
 6602SOL     OW20137   3.788   3.426   1.331
 6602SOL    HW120138   3.742   3.508   1.297
 6602SOL    HW220139   3.886   3.445   1.340
 6603SOL     OW20140   4.091   2.962   0.501
 6603SOL    HW120141   4.084   3.045   0.445
 6603SOL    HW220142   4.095   2.882   0.441
 6604SOL     OW20143   4.290   2.399   0.865
 6604SOL    HW120144   4.302   2.465   0.791
 6604SOL    HW220145   4.336   2.433   0.948
 6605SOL     OW20146   4.078   3.372   1.329
 6605SOL    HW120147   4.057   3.328   1.242
 6605SOL    HW220148   4.175   3.398   1.332
 6606SOL     OW20149   4.126   2.613   1.598
 6606SOL    HW120150   4.194   2.668   1.551
 6606SOL    HW220151   4.166   2.525   1.625
 6607SOL     OW20152   4.228   1.912   1.740
 6607SOL    HW120153   4.186   1.855   1.670
 6607SOL    HW220154   4.162   1.981   1.772
 6608SOL     OW20155   4.297   2.732   1.029
 6608SOL    HW120156   4.341   2.821   1.020
 6608SOL    HW220157   4.234   2.732   1.106
 6609SOL     OW20158   4.031   2.075   1.231
 6609SOL    HW120159   4.008   2.112   1.321
 6609SOL    HW220160   4.001   1.980   1.225
 6610SOL     OW20161   3.761   3.172   1.282
 6610SOL    HW120162   3.814   3.123   1.350
 6610SOL    HW220163   3.783   3.270   1.287
 6611SOL     OW20164   4.031   1.925   0.618
 6611SOL    HW120165   4.020   2.019   0.651
 6611SOL    HW220166   4.026   1.862   0.695
 6612SOL     OW20167   4.074   2.760   1.804
 6612SOL    HW120168   4.150   2.804   1.852
 6612SOL    HW220169   4.109   2.713   1.722
 6613SOL     OW20170   4.043   2.672   0.949
 6613SOL    HW120171   4.136   2.708   0.954
 6613SOL    HW220172   4.037   2.587   1.001
 6614SOL     OW20173   4.063   2.371   1.006
 6614SOL    HW120174   4.011   2.288   0.989
 6614SOL    HW220175   4.140   2.376   0.942
 6615SOL     OW20176   3.732   3.188   0.200
 6615SOL    HW120177   3.639   3.209   0.169
 6615SOL    HW220178   3.742   3.089   0.213
 6616SOL     OW20179   3.812   3.663   0.927
 6616SOL    HW120180   3.770   3.577   0.900
 6616SOL    HW220181   3.906   3.666   0.893
 6617SOL     OW20182   4.228   3.430   0.910
 6617SOL    HW120183   4.294   3.504   0.919
 6617SOL    HW220184   4.272   3.351   0.868
 6618SOL     OW20185   3.764   2.406   1.114
 6618SOL    HW120186   3.849   2.373   1.073
 6618SOL    HW220187   3.777   2.421   1.212
 6619SOL     OW20188   3.913   2.382   1.722
 6619SOL    HW120189   3.972   2.342   1.652
 6619SOL    HW220190   3.855   2.453   1.681
 6620SOL     OW20191   4.539   2.434   0.325
 6620SOL    HW120192   4.546   2.345   0.279
 6620SOL    HW220193   4.445   2.468   0.317
 6621SOL     OW20194   3.976   3.426   1.744
 6621SOL    HW120195   3.946   3.483   1.820
 6621SOL    HW220196   3.969   3.329   1.770
 6622SOL     OW20197   4.197   2.362   0.191
 6622SOL    HW120198   4.258   2.442   0.195
 6622SOL    HW220199   4.102   2.393   0.198
 6623SOL     OW20200   3.883   2.999   1.466
 6623SOL    HW120201   3.905   2.938   1.542
 6623SOL    HW220202   3.893   2.950   1.380
 6624SOL     OW20203   3.807   3.120   1.022
 6624SOL    HW120204   3.802   3.119   1.122
 6624SOL    HW220205   3.724   3.079   0.984
 6625SOL     OW20206   4.412   3.524   1.716
 6625SOL    HW120207   4.356   3.605   1.725
 6625SOL    HW220208   4.464   3.528   1.630
 6626SOL     OW20209   3.854   3.656   1.851
 6626SOL    HW120210   3.813   3.582   1.904
 6626SOL    HW220211   3.918   3.707   1.909
 6627SOL     OW20212   3.987   2.188   0.720
 6627SOL    HW120213   3.908   2.239   0.686
 6627SOL    HW220214   3.978   2.173   0.818
 6628SOL     OW20215   4.096   3.150   1.490
 6628SOL    HW120216   4.083   3.243   1.456
 6628SOL    HW220217   4.012   3.098   1.477
 6629SOL     OW20218   4.314   3.349   0.491
 6629SOL    HW120219   4.356   3.291   0.421
 6629SOL    HW220220   4.270   3.428   0.447
 6630SOL     OW20221   3.979   3.210   0.290
 6630SOL    HW120222   3.883   3.211   0.263
 6630SOL    HW220223   3.991   3.263   0.374
 6631SOL     OW20224   3.829   2.875   1.726
 6631SOL    HW120225   3.752   2.842   1.780
 6631SOL    HW220226   3.914   2.845   1.768
 6632SOL     OW20227   4.396   2.065   1.489
 6632SOL    HW120228   4.486   2.049   1.449
 6632SOL    HW220229   4.404   2.070   1.588
 6633SOL     OW20230   3.799   2.207   0.033
 6633SOL    HW120231   3.707   2.179   0.004
 6633SOL    HW220232   3.830   2.284  -0.023
 6634SOL     OW20233   3.796   2.028   0.318
 6634SOL    HW120234   3.779   2.111   0.264
 6634SOL    HW220235   3.886   1.991   0.296
 6635SOL     OW20236   4.337   2.704   1.431
 6635SOL    HW120237   4.393   2.785   1.414
 6635SOL    HW220238   4.396   2.624   1.434
 6636SOL     OW20239   4.440   2.427   1.708
 6636SOL    HW120240   4.459   2.492   1.782
 6636SOL    HW220241   4.500   2.347   1.717
 6637SOL     OW20242   4.114   3.603   1.560
 6637SOL    HW120243   4.023   3.644   1.558
 6637SOL    HW220244   4.107   3.509   1.592
 6638SOL     OW20245   4.318   2.607   0.652
 6638SOL    HW120246   4.368   2.692   0.633
 6638SOL    HW220247   4.230   2.609   0.604
 6639SOL     OW20248   3.945   3.176   1.844
 6639SOL    HW120249   3.880   3.103   1.823
 6639SOL    HW220250   3.949   3.190   1.942
 6640SOL     OW20251   3.803   3.102   0.653
 6640SOL    HW120252   3.802   3.055   0.741
 6640SOL    HW220253   3.885   3.074   0.602
 6641SOL     OW20254   4.396   3.253   1.624
 6641SOL    HW120255   4.318   3.203   1.662
 6641SOL    HW220256   4.393   3.348   1.655
 6642SOL     OW20257   4.152   2.286   0.520
 6642SOL    HW120258   4.182   2.214   0.458
 6642SOL    HW220259   4.113   2.246   0.603
 6643SOL     OW20260   4.041   2.409   1.280
 6643SOL    HW120261   4.079   2.350   1.352
 6643SOL    HW220262   4.081   2.383   1.192
 6644SOL     OW20263   4.536   3.448   0.687
 6644SOL    HW120264   4.568   3.458   0.593
 6644SOL    HW220265   4.457   3.386   0.689
 6645SOL     OW20266   3.763   2.939   0.300
 6645SOL    HW120267   3.862   2.928   0.291
 6645SOL    HW220268   3.723   2.853   0.332
 6646SOL     OW20269   3.954   2.490   1.975
 6646SOL    HW120270   3.861   2.488   2.012
 6646SOL    HW220271   3.955   2.451   1.883
 6647SOL     OW20272   3.949   2.137   2.858
 6647SOL    HW120273   3.984   2.120   2.950
 6647SOL    HW220274   3.861   2.092   2.846
 6648SOL     OW20275   3.743   2.230   2.509
 6648SOL    HW120276   3.661   2.273   2.548
 6648SOL    HW220277   3.715   2.157   2.446
 6649SOL     OW20278   4.293   3.137   3.027
 6649SOL    HW120279   4.200   3.130   2.990
 6649SOL    HW220280   4.304   3.226   3.071
 6650SOL     OW20281   4.574   2.660   3.685
 6650SOL    HW120282   4.570   2.736   3.750
 6650SOL    HW220283   4.596   2.696   3.594
 6651SOL     OW20284   4.409   2.874   2.527
 6651SOL    HW120285   4.478   2.858   2.597
 6651SOL    HW220286   4.336   2.931   2.565
 6652SOL     OW20287   4.410   3.023   3.665
 6652SOL    HW120288   4.470   3.102   3.679
 6652SOL    HW220289   4.324   3.054   3.624
 6653SOL     OW20290   4.059   3.297   2.923
 6653SOL    HW120291   3.981   3.266   2.870
 6653SOL    HW220292   4.117   3.355   2.866
 6654SOL     OW20293   4.162   2.254   3.361
 6654SOL    HW120294   4.244   2.198   3.370
 6654SOL    HW220295   4.081   2.196   3.365
 6655SOL     OW20296   3.955   3.575   2.345
 6655SOL    HW120297   3.989   3.652   2.399
 6655SOL    HW220298   3.999   3.575   2.255
 6656SOL     OW20299   3.954   3.296   2.400
 6656SOL    HW120300   3.928   3.392   2.400
 6656SOL    HW220301   3.883   3.242   2.445
 6657SOL     OW20302   3.964   2.953   2.748
 6657SOL    HW120303   3.978   2.869   2.800
 6657SOL    HW220304   3.909   3.017   2.803
 6658SOL     OW20305   4.344   3.648   3.301
 6658SOL    HW120306   4.252   3.631   3.336
 6658SOL    HW220307   4.372   3.740   3.327
 6659SOL     OW20308   4.330   2.826   1.985
 6659SOL    HW120309   4.337   2.910   1.931
 6659SOL    HW220310   4.376   2.839   2.073
 6660SOL     OW20311   3.846   2.505   2.425
 6660SOL    HW120312   3.801   2.417   2.442
 6660SOL    HW220313   3.845   2.559   2.509
 6661SOL     OW20314   3.751   3.458   1.979
 6661SOL    HW120315   3.732   3.362   2.000
 6661SOL    HW220316   3.718   3.516   2.054
 6662SOL     OW20317   3.837   2.599   3.459
 6662SOL    HW120318   3.925   2.586   3.504
 6662SOL    HW220319   3.824   2.696   3.437
 6663SOL     OW20320   4.337   3.227   2.588
 6663SOL    HW120321   4.288   3.140   2.597
 6663SOL    HW220322   4.314   3.270   2.501
 6664SOL     OW20323   4.533   1.866   2.364
 6664SOL    HW120324   4.573   1.957   2.355
 6664SOL    HW220325   4.433   1.874   2.370
 6665SOL     OW20326   3.921   2.838   3.126
 6665SOL    HW120327   4.010   2.793   3.112
 6665SOL    HW220328   3.848   2.773   3.107
 6666SOL     OW20329   4.041   2.113   3.663
 6666SOL    HW120330   4.112   2.184   3.669
 6666SOL    HW220331   3.953   2.152   3.691
 6667SOL     OW20332   4.322   2.591   2.132
 6667SOL    HW120333   4.346   2.660   2.064
 6667SOL    HW220334   4.244   2.624   2.186
 6668SOL     OW20335   3.800   2.673   2.651
 6668SOL    HW120336   3.899   2.661   2.660
 6668SOL    HW220337   3.776   2.768   2.672
 6669SOL     OW20338   3.854   3.683   3.433
 6669SOL    HW120339   3.844   3.668   3.532
 6669SOL    HW220340   3.768   3.719   3.397
 6670SOL     OW20341   4.274   2.058   2.747
 6670SOL    HW120342   4.269   2.053   2.847
 6670SOL    HW220343   4.276   2.154   2.718
 6671SOL     OW20344   4.075   3.663   2.715
 6671SOL    HW120345   4.125   3.577   2.721
 6671SOL    HW220346   4.140   3.740   2.712
 6672SOL     OW20347   4.045   2.805   2.104
 6672SOL    HW120348   4.127   2.844   2.062
 6672SOL    HW220349   4.018   2.723   2.055
 6673SOL     OW20350   4.185   3.128   3.589
 6673SOL    HW120351   4.135   3.129   3.503
 6673SOL    HW220352   4.122   3.110   3.665
 6674SOL     OW20353   3.926   2.147   3.360
 6674SOL    HW120354   3.846   2.207   3.347
 6674SOL    HW220355   3.916   2.098   3.446
 6675SOL     OW20356   4.188   3.605   2.185
 6675SOL    HW120357   4.221   3.644   2.271
 6675SOL    HW220358   4.264   3.598   2.120
 6676SOL     OW20359   3.973   3.647   3.103
 6676SOL    HW120360   4.030   3.582   3.153
 6676SOL    HW220361   3.957   3.614   3.010
 6677SOL     OW20362   4.106   2.562   2.342
 6677SOL    HW120363   4.151   2.472   2.339
 6677SOL    HW220364   4.012   2.551   2.375
 6678SOL     OW20365   4.338   1.984   1.979
 6678SOL    HW120366   4.436   1.962   1.986
 6678SOL    HW220367   4.307   1.967   1.886
 6679SOL     OW20368   4.527   3.264   2.786
 6679SOL    HW120369   4.617   3.278   2.744
 6679SOL    HW220370   4.456   3.266   2.715
 6680SOL     OW20371   4.263   1.926   2.374
 6680SOL    HW120372   4.182   1.927   2.432
 6680SOL    HW220373   4.266   2.009   2.319
 6681SOL     OW20374   4.021   1.897   2.033
 6681SOL    HW120375   4.070   1.981   2.012
 6681SOL    HW220376   4.083   1.832   2.078
 6682SOL     OW20377   4.800   2.545   3.326
 6682SOL    HW120378   4.720   2.484   3.329
 6682SOL    HW220379   4.881   2.492   3.302
 6683SOL     OW20380   4.183   3.014   2.603
 6683SOL    HW120381   4.112   2.987   2.668
 6683SOL    HW220382   4.157   2.986   2.510
 6684SOL     OW20383   3.802   2.418   3.248
 6684SOL    HW120384   3.894   2.417   3.207
 6684SOL    HW220385   3.796   2.492   3.315
 6685SOL     OW20386   4.285   2.084   3.009
 6685SOL    HW120387   4.323   2.000   3.046
 6685SOL    HW220388   4.197   2.103   3.053
 6686SOL     OW20389   4.212   3.247   2.036
 6686SOL    HW120390   4.125   3.232   2.083
 6686SOL    HW220391   4.195   3.273   1.941
 6687SOL     OW20392   4.251   2.118   2.190
 6687SOL    HW120393   4.278   2.059   2.115
 6687SOL    HW220394   4.251   2.213   2.159
 6688SOL     OW20395   4.134   2.675   3.113
 6688SOL    HW120396   4.220   2.687   3.163
 6688SOL    HW220397   4.092   2.588   3.140
 6689SOL     OW20398   3.788   3.426   3.193
 6689SOL    HW120399   3.742   3.508   3.159
 6689SOL    HW220400   3.886   3.445   3.202
 6690SOL     OW20401   4.091   2.962   2.363
 6690SOL    HW120402   4.084   3.045   2.307
 6690SOL    HW220403   4.095   2.882   2.303
 6691SOL     OW20404   4.290   2.399   2.727
 6691SOL    HW120405   4.302   2.465   2.653
 6691SOL    HW220406   4.336   2.433   2.810
 6692SOL     OW20407   4.078   3.372   3.191
 6692SOL    HW120408   4.057   3.328   3.104
 6692SOL    HW220409   4.175   3.398   3.194
 6693SOL     OW20410   4.126   2.613   3.460
 6693SOL    HW120411   4.194   2.668   3.413
 6693SOL    HW220412   4.166   2.525   3.487
 6694SOL     OW20413   4.228   1.912   3.602
 6694SOL    HW120414   4.186   1.855   3.532
 6694SOL    HW220415   4.162   1.981   3.634
 6695SOL     OW20416   4.297   2.732   2.891
 6695SOL    HW120417   4.341   2.821   2.882
 6695SOL    HW220418   4.234   2.732   2.968
 6696SOL     OW20419   4.031   2.075   3.093
 6696SOL    HW120420   4.008   2.112   3.183
 6696SOL    HW220421   4.001   1.980   3.087
 6697SOL     OW20422   3.761   3.172   3.144
 6697SOL    HW120423   3.814   3.123   3.212
 6697SOL    HW220424   3.783   3.270   3.149
 6698SOL     OW20425   4.031   1.925   2.480
 6698SOL    HW120426   4.020   2.019   2.513
 6698SOL    HW220427   4.026   1.862   2.557
 6699SOL     OW20428   4.074   2.760   3.666
 6699SOL    HW120429   4.150   2.804   3.714
 6699SOL    HW220430   4.109   2.713   3.584
 6700SOL     OW20431   4.043   2.672   2.811
 6700SOL    HW120432   4.136   2.708   2.816
 6700SOL    HW220433   4.037   2.587   2.863
 6701SOL     OW20434   4.063   2.371   2.868
 6701SOL    HW120435   4.011   2.288   2.851
 6701SOL    HW220436   4.140   2.376   2.804
 6702SOL     OW20437   3.732   3.188   2.062
 6702SOL    HW120438   3.639   3.209   2.031
 6702SOL    HW220439   3.742   3.089   2.075
 6703SOL     OW20440   3.812   3.663   2.789
 6703SOL    HW120441   3.770   3.577   2.762
 6703SOL    HW220442   3.906   3.666   2.755
 6704SOL     OW20443   4.228   3.430   2.772
 6704SOL    HW120444   4.294   3.504   2.781
 6704SOL    HW220445   4.272   3.351   2.730
 6705SOL     OW20446   3.764   2.406   2.976
 6705SOL    HW120447   3.849   2.373   2.935
 6705SOL    HW220448   3.777   2.421   3.074
 6706SOL     OW20449   3.913   2.382   3.584
 6706SOL    HW120450   3.972   2.342   3.514
 6706SOL    HW220451   3.855   2.453   3.543
 6707SOL     OW20452   4.539   2.434   2.187
 6707SOL    HW120453   4.546   2.345   2.141
 6707SOL    HW220454   4.445   2.468   2.179
 6708SOL     OW20455   3.976   3.426   3.606
 6708SOL    HW120456   3.946   3.483   3.682
 6708SOL    HW220457   3.969   3.329   3.632
 6709SOL     OW20458   4.197   2.362   2.053
 6709SOL    HW120459   4.258   2.442   2.057
 6709SOL    HW220460   4.102   2.393   2.060
 6710SOL     OW20461   3.883   2.999   3.328
 6710SOL    HW120462   3.905   2.938   3.404
 6710SOL    HW220463   3.893   2.950   3.242
 6711SOL     OW20464   3.807   3.120   2.884
 6711SOL    HW120465   3.802   3.119   2.984
 6711SOL    HW220466   3.724   3.079   2.846
 6712SOL     OW20467   4.412   3.524   3.578
 6712SOL    HW120468   4.356   3.605   3.587
 6712SOL    HW220469   4.464   3.528   3.492
 6713SOL     OW20470   3.854   3.656   3.713
 6713SOL    HW120471   3.813   3.582   3.766
 6713SOL    HW220472   3.918   3.707   3.771
 6714SOL     OW20473   3.987   2.188   2.582
 6714SOL    HW120474   3.908   2.239   2.548
 6714SOL    HW220475   3.978   2.173   2.680
 6715SOL     OW20476   4.096   3.150   3.352
 6715SOL    HW120477   4.083   3.243   3.318
 6715SOL    HW220478   4.012   3.098   3.339
 6716SOL     OW20479   4.314   3.349   2.353
 6716SOL    HW120480   4.356   3.291   2.283
 6716SOL    HW220481   4.270   3.428   2.309
 6717SOL     OW20482   3.979   3.210   2.152
 6717SOL    HW120483   3.883   3.211   2.125
 6717SOL    HW220484   3.991   3.263   2.236
 6718SOL     OW20485   3.829   2.875   3.588
 6718SOL    HW120486   3.752   2.842   3.642
 6718SOL    HW220487   3.914   2.845   3.630
 6719SOL     OW20488   4.396   2.065   3.351
 6719SOL    HW120489   4.486   2.049   3.311
 6719SOL    HW220490   4.404   2.070   3.450
 6720SOL     OW20491   3.799   2.207   1.895
 6720SOL    HW120492   3.707   2.179   1.866
 6720SOL    HW220493   3.830   2.284   1.839
 6721SOL     OW20494   3.796   2.028   2.180
 6721SOL    HW120495   3.779   2.111   2.126
 6721SOL    HW220496   3.886   1.991   2.158
 6722SOL     OW20497   4.337   2.704   3.293
 6722SOL    HW120498   4.393   2.785   3.276
 6722SOL    HW220499   4.396   2.624   3.296
 6723SOL     OW20500   4.440   2.427   3.570
 6723SOL    HW120501   4.459   2.492   3.644
 6723SOL    HW220502   4.500   2.347   3.579
 6724SOL     OW20503   4.114   3.603   3.422
 6724SOL    HW120504   4.023   3.644   3.420
 6724SOL    HW220505   4.107   3.509   3.454
 6725SOL     OW20506   4.318   2.607   2.514
 6725SOL    HW120507   4.368   2.692   2.495
 6725SOL    HW220508   4.230   2.609   2.466
 6726SOL     OW20509   3.945   3.176   3.706
 6726SOL    HW120510   3.880   3.103   3.685
 6726SOL    HW220511   3.949   3.190   3.804
 6727SOL     OW20512   3.803   3.102   2.515
 6727SOL    HW120513   3.802   3.055   2.603
 6727SOL    HW220514   3.885   3.074   2.464
 6728SOL     OW20515   4.396   3.253   3.486
 6728SOL    HW120516   4.318   3.203   3.524
 6728SOL    HW220517   4.393   3.348   3.517
 6729SOL     OW20518   4.152   2.286   2.382
 6729SOL    HW120519   4.182   2.214   2.320
 6729SOL    HW220520   4.113   2.246   2.465
 6730SOL     OW20521   4.041   2.409   3.142
 6730SOL    HW120522   4.079   2.350   3.214
 6730SOL    HW220523   4.081   2.383   3.054
 6731SOL     OW20524   4.536   3.448   2.549
 6731SOL    HW120525   4.568   3.458   2.455
 6731SOL    HW220526   4.457   3.386   2.551
 6732SOL     OW20527   3.763   2.939   2.162
 6732SOL    HW120528   3.862   2.928   2.153
 6732SOL    HW220529   3.723   2.853   2.194
 6733SOL     OW20530   3.954   2.490   3.837
 6733SOL    HW120531   3.861   2.488   3.874
 6733SOL    HW220532   3.955   2.451   3.745
 6734SOL     OW20533   3.949   2.137   4.720
 6734SOL    HW120534   3.984   2.120   4.812
 6734SOL    HW220535   3.861   2.092   4.708
 6735SOL     OW20536   3.743   2.230   4.371
 6735SOL    HW120537   3.661   2.273   4.410
 6735SOL    HW220538   3.715   2.157   4.308
 6736SOL     OW20539   4.293   3.137   4.889
 6736SOL    HW120540   4.200   3.130   4.852
 6736SOL    HW220541   4.304   3.226   4.933
 6737SOL     OW20542   4.574   2.660   5.547
 6737SOL    HW120543   4.570   2.736   5.612
 6737SOL    HW220544   4.596   2.696   5.456
 6738SOL     OW20545   4.409   2.874   4.389
 6738SOL    HW120546   4.478   2.858   4.459
 6738SOL    HW220547   4.336   2.931   4.427
 6739SOL     OW20548   4.410   3.023   5.527
 6739SOL    HW120549   4.470   3.102   5.541
 6739SOL    HW220550   4.324   3.054   5.486
 6740SOL     OW20551   4.059   3.297   4.785
 6740SOL    HW120552   3.981   3.266   4.732
 6740SOL    HW220553   4.117   3.355   4.728
 6741SOL     OW20554   4.162   2.254   5.223
 6741SOL    HW120555   4.244   2.198   5.232
 6741SOL    HW220556   4.081   2.196   5.227
 6742SOL     OW20557   3.955   3.575   4.207
 6742SOL    HW120558   3.989   3.652   4.261
 6742SOL    HW220559   3.999   3.575   4.117
 6743SOL     OW20560   3.954   3.296   4.262
 6743SOL    HW120561   3.928   3.392   4.262
 6743SOL    HW220562   3.883   3.242   4.307
 6744SOL     OW20563   3.964   2.953   4.610
 6744SOL    HW120564   3.978   2.869   4.662
 6744SOL    HW220565   3.909   3.017   4.665
 6745SOL     OW20566   4.344   3.648   5.163
 6745SOL    HW120567   4.252   3.631   5.198
 6745SOL    HW220568   4.372   3.740   5.189
 6746SOL     OW20569   4.330   2.826   3.847
 6746SOL    HW120570   4.337   2.910   3.793
 6746SOL    HW220571   4.376   2.839   3.935
 6747SOL     OW20572   3.846   2.505   4.287
 6747SOL    HW120573   3.801   2.417   4.304
 6747SOL    HW220574   3.845   2.559   4.371
 6748SOL     OW20575   3.751   3.458   3.841
 6748SOL    HW120576   3.732   3.362   3.862
 6748SOL    HW220577   3.718   3.516   3.916
 6749SOL     OW20578   3.837   2.599   5.321
 6749SOL    HW120579   3.925   2.586   5.366
 6749SOL    HW220580   3.824   2.696   5.299
 6750SOL     OW20581   4.337   3.227   4.450
 6750SOL    HW120582   4.288   3.140   4.459
 6750SOL    HW220583   4.314   3.270   4.363
 6751SOL     OW20584   4.533   1.866   4.226
 6751SOL    HW120585   4.573   1.957   4.217
 6751SOL    HW220586   4.433   1.874   4.232
 6752SOL     OW20587   3.921   2.838   4.988
 6752SOL    HW120588   4.010   2.793   4.974
 6752SOL    HW220589   3.848   2.773   4.969
 6753SOL     OW20590   4.041   2.113   5.525
 6753SOL    HW120591   4.112   2.184   5.531
 6753SOL    HW220592   3.953   2.152   5.553
 6754SOL     OW20593   4.322   2.591   3.994
 6754SOL    HW120594   4.346   2.660   3.926
 6754SOL    HW220595   4.244   2.624   4.048
 6755SOL     OW20596   3.800   2.673   4.513
 6755SOL    HW120597   3.899   2.661   4.522
 6755SOL    HW220598   3.776   2.768   4.534
 6756SOL     OW20599   3.854   3.683   5.295
 6756SOL    HW120600   3.844   3.668   5.394
 6756SOL    HW220601   3.768   3.719   5.259
 6757SOL     OW20602   4.274   2.058   4.609
 6757SOL    HW120603   4.269   2.053   4.709
 6757SOL    HW220604   4.276   2.154   4.580
 6758SOL     OW20605   4.075   3.663   4.577
 6758SOL    HW120606   4.125   3.577   4.583
 6758SOL    HW220607   4.140   3.740   4.574
 6759SOL     OW20608   4.045   2.805   3.966
 6759SOL    HW120609   4.127   2.844   3.924
 6759SOL    HW220610   4.018   2.723   3.917
 6760SOL     OW20611   4.185   3.128   5.451
 6760SOL    HW120612   4.135   3.129   5.365
 6760SOL    HW220613   4.122   3.110   5.527
 6761SOL     OW20614   3.926   2.147   5.222
 6761SOL    HW120615   3.846   2.207   5.209
 6761SOL    HW220616   3.916   2.098   5.308
 6762SOL     OW20617   4.188   3.605   4.047
 6762SOL    HW120618   4.221   3.644   4.133
 6762SOL    HW220619   4.264   3.598   3.982
 6763SOL     OW20620   3.973   3.647   4.965
 6763SOL    HW120621   4.030   3.582   5.015
 6763SOL    HW220622   3.957   3.614   4.872
 6764SOL     OW20623   4.106   2.562   4.204
 6764SOL    HW120624   4.151   2.472   4.201
 6764SOL    HW220625   4.012   2.551   4.237
 6765SOL     OW20626   4.338   1.984   3.841
 6765SOL    HW120627   4.436   1.962   3.848
 6765SOL    HW220628   4.307   1.967   3.748
 6766SOL     OW20629   4.527   3.264   4.648
 6766SOL    HW120630   4.617   3.278   4.606
 6766SOL    HW220631   4.456   3.266   4.577
 6767SOL     OW20632   4.263   1.926   4.236
 6767SOL    HW120633   4.182   1.927   4.294
 6767SOL    HW220634   4.266   2.009   4.181
 6768SOL     OW20635   4.021   1.897   3.895
 6768SOL    HW120636   4.070   1.981   3.874
 6768SOL    HW220637   4.083   1.832   3.940
 6769SOL     OW20638   4.800   2.545   5.188
 6769SOL    HW120639   4.720   2.484   5.191
 6769SOL    HW220640   4.881   2.492   5.164
 6770SOL     OW20641   4.183   3.014   4.465
 6770SOL    HW120642   4.112   2.987   4.530
 6770SOL    HW220643   4.157   2.986   4.372
 6771SOL     OW20644   3.802   2.418   5.110
 6771SOL    HW120645   3.894   2.417   5.069
 6771SOL    HW220646   3.796   2.492   5.177
 6772SOL     OW20647   4.285   2.084   4.871
 6772SOL    HW120648   4.323   2.000   4.908
 6772SOL    HW220649   4.197   2.103   4.915
 6773SOL     OW20650   4.212   3.247   3.898
 6773SOL    HW120651   4.125   3.232   3.945
 6773SOL    HW220652   4.195   3.273   3.803
 6774SOL     OW20653   4.251   2.118   4.052
 6774SOL    HW120654   4.278   2.059   3.977
 6774SOL    HW220655   4.251   2.213   4.021
 6775SOL     OW20656   4.134   2.675   4.975
 6775SOL    HW120657   4.220   2.687   5.025
 6775SOL    HW220658   4.092   2.588   5.002
 6776SOL     OW20659   3.788   3.426   5.055
 6776SOL    HW120660   3.742   3.508   5.021
 6776SOL    HW220661   3.886   3.445   5.064
 6777SOL     OW20662   4.091   2.962   4.225
 6777SOL    HW120663   4.084   3.045   4.169
 6777SOL    HW220664   4.095   2.882   4.165
 6778SOL     OW20665   4.290   2.399   4.589
 6778SOL    HW120666   4.302   2.465   4.515
 6778SOL    HW220667   4.336   2.433   4.672
 6779SOL     OW20668   4.078   3.372   5.053
 6779SOL    HW120669   4.057   3.328   4.966
 6779SOL    HW220670   4.175   3.398   5.056
 6780SOL     OW20671   4.126   2.613   5.322
 6780SOL    HW120672   4.194   2.668   5.275
 6780SOL    HW220673   4.166   2.525   5.349
 6781SOL     OW20674   4.228   1.912   5.464
 6781SOL    HW120675   4.186   1.855   5.394
 6781SOL    HW220676   4.162   1.981   5.496
 6782SOL     OW20677   4.297   2.732   4.753
 6782SOL    HW120678   4.341   2.821   4.744
 6782SOL    HW220679   4.234   2.732   4.830
 6783SOL     OW20680   4.031   2.075   4.955
 6783SOL    HW120681   4.008   2.112   5.045
 6783SOL    HW220682   4.001   1.980   4.949
 6784SOL     OW20683   3.761   3.172   5.006
 6784SOL    HW120684   3.814   3.123   5.074
 6784SOL    HW220685   3.783   3.270   5.011
 6785SOL     OW20686   4.031   1.925   4.342
 6785SOL    HW120687   4.020   2.019   4.375
 6785SOL    HW220688   4.026   1.862   4.419
 6786SOL     OW20689   4.074   2.760   5.528
 6786SOL    HW120690   4.150   2.804   5.576
 6786SOL    HW220691   4.109   2.713   5.446
 6787SOL     OW20692   4.043   2.672   4.673
 6787SOL    HW120693   4.136   2.708   4.678
 6787SOL    HW220694   4.037   2.587   4.725
 6788SOL     OW20695   4.063   2.371   4.730
 6788SOL    HW120696   4.011   2.288   4.713
 6788SOL    HW220697   4.140   2.376   4.666
 6789SOL     OW20698   3.732   3.188   3.924
 6789SOL    HW120699   3.639   3.209   3.893
 6789SOL    HW220700   3.742   3.089   3.937
 6790SOL     OW20701   3.812   3.663   4.651
 6790SOL    HW120702   3.770   3.577   4.624
 6790SOL    HW220703   3.906   3.666   4.617
 6791SOL     OW20704   4.228   3.430   4.634
 6791SOL    HW120705   4.294   3.504   4.643
 6791SOL    HW220706   4.272   3.351   4.592
 6792SOL     OW20707   3.764   2.406   4.838
 6792SOL    HW120708   3.849   2.373   4.797
 6792SOL    HW220709   3.777   2.421   4.936
 6793SOL     OW20710   3.913   2.382   5.446
 6793SOL    HW120711   3.972   2.342   5.376
 6793SOL    HW220712   3.855   2.453   5.405
 6794SOL     OW20713   4.539   2.434   4.049
 6794SOL    HW120714   4.546   2.345   4.003
 6794SOL    HW220715   4.445   2.468   4.041
 6795SOL     OW20716   3.976   3.426   5.468
 6795SOL    HW120717   3.946   3.483   5.544
 6795SOL    HW220718   3.969   3.329   5.494
 6796SOL     OW20719   4.197   2.362   3.915
 6796SOL    HW120720   4.258   2.442   3.919
 6796SOL    HW220721   4.102   2.393   3.922
 6797SOL     OW20722   3.883   2.999   5.190
 6797SOL    HW120723   3.905   2.938   5.266
 6797SOL    HW220724   3.893   2.950   5.104
 6798SOL     OW20725   3.807   3.120   4.746
 6798SOL    HW120726   3.802   3.119   4.846
 6798SOL    HW220727   3.724   3.079   4.708
 6799SOL     OW20728   4.412   3.524   5.440
 6799SOL    HW120729   4.356   3.605   5.449
 6799SOL    HW220730   4.464   3.528   5.354
 6800SOL     OW20731   3.854   3.656   5.575
 6800SOL    HW120732   3.813   3.582   5.628
 6800SOL    HW220733   3.918   3.707   5.633
 6801SOL     OW20734   3.987   2.188   4.444
 6801SOL    HW120735   3.908   2.239   4.410
 6801SOL    HW220736   3.978   2.173   4.542
 6802SOL     OW20737   4.096   3.150   5.214
 6802SOL    HW120738   4.083   3.243   5.180
 6802SOL    HW220739   4.012   3.098   5.201
 6803SOL     OW20740   4.314   3.349   4.215
 6803SOL    HW120741   4.356   3.291   4.145
 6803SOL    HW220742   4.270   3.428   4.171
 6804SOL     OW20743   3.979   3.210   4.014
 6804SOL    HW120744   3.883   3.211   3.987
 6804SOL    HW220745   3.991   3.263   4.098
 6805SOL     OW20746   3.829   2.875   5.450
 6805SOL    HW120747   3.752   2.842   5.504
 6805SOL    HW220748   3.914   2.845   5.492
 6806SOL     OW20749   4.396   2.065   5.213
 6806SOL    HW120750   4.486   2.049   5.173
 6806SOL    HW220751   4.404   2.070   5.312
 6807SOL     OW20752   3.799   2.207   3.757
 6807SOL    HW120753   3.707   2.179   3.728
 6807SOL    HW220754   3.830   2.284   3.701
 6808SOL     OW20755   3.796   2.028   4.042
 6808SOL    HW120756   3.779   2.111   3.988
 6808SOL    HW220757   3.886   1.991   4.020
 6809SOL     OW20758   4.337   2.704   5.155
 6809SOL    HW120759   4.393   2.785   5.138
 6809SOL    HW220760   4.396   2.624   5.158
 6810SOL     OW20761   4.440   2.427   5.432
 6810SOL    HW120762   4.459   2.492   5.506
 6810SOL    HW220763   4.500   2.347   5.441
 6811SOL     OW20764   4.114   3.603   5.284
 6811SOL    HW120765   4.023   3.644   5.282
 6811SOL    HW220766   4.107   3.509   5.316
 6812SOL     OW20767   4.318   2.607   4.376
 6812SOL    HW120768   4.368   2.692   4.357
 6812SOL    HW220769   4.230   2.609   4.328
 6813SOL     OW20770   3.945   3.176   5.568
 6813SOL    HW120771   3.880   3.103   5.547
 6813SOL    HW220772   3.949   3.190   5.666
 6814SOL     OW20773   3.803   3.102   4.377
 6814SOL    HW120774   3.802   3.055   4.465
 6814SOL    HW220775   3.885   3.074   4.326
 6815SOL     OW20776   4.396   3.253   5.348
 6815SOL    HW120777   4.318   3.203   5.386
 6815SOL    HW220778   4.393   3.348   5.379
 6816SOL     OW20779   4.152   2.286   4.244
 6816SOL    HW120780   4.182   2.214   4.182
 6816SOL    HW220781   4.113   2.246   4.327
 6817SOL     OW20782   4.041   2.409   5.004
 6817SOL    HW120783   4.079   2.350   5.076
 6817SOL    HW220784   4.081   2.383   4.916
 6818SOL     OW20785   4.536   3.448   4.411
 6818SOL    HW120786   4.568   3.458   4.317
 6818SOL    HW220787   4.457   3.386   4.413
 6819SOL     OW20788   3.763   2.939   4.024
 6819SOL    HW120789   3.862   2.928   4.015
 6819SOL    HW220790   3.723   2.853   4.056
 6820SOL     OW20791   3.954   2.490   5.699
 6820SOL    HW120792   3.861   2.488   5.736
 6820SOL    HW220793   3.955   2.451   5.607
 6821SOL     OW20794   3.949   2.137   6.582
 6821SOL    HW120795   3.984   2.120   6.674
 6821SOL    HW220796   3.861   2.092   6.570
 6822SOL     OW20797   3.743   2.230   6.233
 6822SOL    HW120798   3.661   2.273   6.272
 6822SOL    HW220799   3.715   2.157   6.170
 6823SOL     OW20800   4.293   3.137   6.751
 6823SOL    HW120801   4.200   3.130   6.714
 6823SOL    HW220802   4.304   3.226   6.795
 6824SOL     OW20803   4.574   2.660   7.409
 6824SOL    HW120804   4.570   2.736   7.474
 6824SOL    HW220805   4.596   2.696   7.318
 6825SOL     OW20806   4.409   2.874   6.251
 6825SOL    HW120807   4.478   2.858   6.321
 6825SOL    HW220808   4.336   2.931   6.289
 6826SOL     OW20809   4.410   3.023   7.389
 6826SOL    HW120810   4.470   3.102   7.403
 6826SOL    HW220811   4.324   3.054   7.348
 6827SOL     OW20812   4.059   3.297   6.647
 6827SOL    HW120813   3.981   3.266   6.594
 6827SOL    HW220814   4.117   3.355   6.590
 6828SOL     OW20815   4.162   2.254   7.085
 6828SOL    HW120816   4.244   2.198   7.094
 6828SOL    HW220817   4.081   2.196   7.089
 6829SOL     OW20818   3.955   3.575   6.069
 6829SOL    HW120819   3.989   3.652   6.123
 6829SOL    HW220820   3.999   3.575   5.979
 6830SOL     OW20821   3.954   3.296   6.124
 6830SOL    HW120822   3.928   3.392   6.124
 6830SOL    HW220823   3.883   3.242   6.169
 6831SOL     OW20824   3.964   2.953   6.472
 6831SOL    HW120825   3.978   2.869   6.524
 6831SOL    HW220826   3.909   3.017   6.527
 6832SOL     OW20827   4.344   3.648   7.025
 6832SOL    HW120828   4.252   3.631   7.060
 6832SOL    HW220829   4.372   3.740   7.051
 6833SOL     OW20830   4.330   2.826   5.709
 6833SOL    HW120831   4.337   2.910   5.655
 6833SOL    HW220832   4.376   2.839   5.797
 6834SOL     OW20833   3.846   2.505   6.149
 6834SOL    HW120834   3.801   2.417   6.166
 6834SOL    HW220835   3.845   2.559   6.233
 6835SOL     OW20836   3.751   3.458   5.703
 6835SOL    HW120837   3.732   3.362   5.724
 6835SOL    HW220838   3.718   3.516   5.778
 6836SOL     OW20839   3.837   2.599   7.183
 6836SOL    HW120840   3.925   2.586   7.228
 6836SOL    HW220841   3.824   2.696   7.161
 6837SOL     OW20842   4.337   3.227   6.312
 6837SOL    HW120843   4.288   3.140   6.321
 6837SOL    HW220844   4.314   3.270   6.225
 6838SOL     OW20845   4.533   1.866   6.088
 6838SOL    HW120846   4.573   1.957   6.079
 6838SOL    HW220847   4.433   1.874   6.094
 6839SOL     OW20848   3.921   2.838   6.850
 6839SOL    HW120849   4.010   2.793   6.836
 6839SOL    HW220850   3.848   2.773   6.831
 6840SOL     OW20851   4.041   2.113   7.387
 6840SOL    HW120852   4.112   2.184   7.393
 6840SOL    HW220853   3.953   2.152   7.415
 6841SOL     OW20854   4.322   2.591   5.856
 6841SOL    HW120855   4.346   2.660   5.788
 6841SOL    HW220856   4.244   2.624   5.910
 6842SOL     OW20857   3.800   2.673   6.375
 6842SOL    HW120858   3.899   2.661   6.384
 6842SOL    HW220859   3.776   2.768   6.396
 6843SOL     OW20860   3.854   3.683   7.157
 6843SOL    HW120861   3.844   3.668   7.256
 6843SOL    HW220862   3.768   3.719   7.121
 6844SOL     OW20863   4.274   2.058   6.471
 6844SOL    HW120864   4.269   2.053   6.571
 6844SOL    HW220865   4.276   2.154   6.442
 6845SOL     OW20866   4.075   3.663   6.439
 6845SOL    HW120867   4.125   3.577   6.445
 6845SOL    HW220868   4.140   3.740   6.436
 6846SOL     OW20869   4.045   2.805   5.828
 6846SOL    HW120870   4.127   2.844   5.786
 6846SOL    HW220871   4.018   2.723   5.779
 6847SOL     OW20872   4.185   3.128   7.313
 6847SOL    HW120873   4.135   3.129   7.227
 6847SOL    HW220874   4.122   3.110   7.389
 6848SOL     OW20875   3.926   2.147   7.084
 6848SOL    HW120876   3.846   2.207   7.071
 6848SOL    HW220877   3.916   2.098   7.170
 6849SOL     OW20878   4.188   3.605   5.909
 6849SOL    HW120879   4.221   3.644   5.995
 6849SOL    HW220880   4.264   3.598   5.844
 6850SOL     OW20881   3.973   3.647   6.827
 6850SOL    HW120882   4.030   3.582   6.877
 6850SOL    HW220883   3.957   3.614   6.734
 6851SOL     OW20884   4.106   2.562   6.066
 6851SOL    HW120885   4.151   2.472   6.063
 6851SOL    HW220886   4.012   2.551   6.099
 6852SOL     OW20887   4.338   1.984   5.703
 6852SOL    HW120888   4.436   1.962   5.710
 6852SOL    HW220889   4.307   1.967   5.610
 6853SOL     OW20890   4.527   3.264   6.510
 6853SOL    HW120891   4.617   3.278   6.468
 6853SOL    HW220892   4.456   3.266   6.439
 6854SOL     OW20893   4.263   1.926   6.098
 6854SOL    HW120894   4.182   1.927   6.156
 6854SOL    HW220895   4.266   2.009   6.043
 6855SOL     OW20896   4.021   1.897   5.757
 6855SOL    HW120897   4.070   1.981   5.736
 6855SOL    HW220898   4.083   1.832   5.802
 6856SOL     OW20899   4.800   2.545   7.050
 6856SOL    HW120900   4.720   2.484   7.053
 6856SOL    HW220901   4.881   2.492   7.026
 6857SOL     OW20902   4.183   3.014   6.327
 6857SOL    HW120903   4.112   2.987   6.392
 6857SOL    HW220904   4.157   2.986   6.234
 6858SOL     OW20905   3.802   2.418   6.972
 6858SOL    HW120906   3.894   2.417   6.931
 6858SOL    HW220907   3.796   2.492   7.039
 6859SOL     OW20908   4.285   2.084   6.733
 6859SOL    HW120909   4.323   2.000   6.770
 6859SOL    HW220910   4.197   2.103   6.777
 6860SOL     OW20911   4.212   3.247   5.760
 6860SOL    HW120912   4.125   3.232   5.807
 6860SOL    HW220913   4.195   3.273   5.665
 6861SOL     OW20914   4.251   2.118   5.914
 6861SOL    HW120915   4.278   2.059   5.839
 6861SOL    HW220916   4.251   2.213   5.883
 6862SOL     OW20917   4.134   2.675   6.837
 6862SOL    HW120918   4.220   2.687   6.887
 6862SOL    HW220919   4.092   2.588   6.864
 6863SOL     OW20920   3.788   3.426   6.917
 6863SOL    HW120921   3.742   3.508   6.883
 6863SOL    HW220922   3.886   3.445   6.926
 6864SOL     OW20923   4.091   2.962   6.087
 6864SOL    HW120924   4.084   3.045   6.031
 6864SOL    HW220925   4.095   2.882   6.027
 6865SOL     OW20926   4.290   2.399   6.451
 6865SOL    HW120927   4.302   2.465   6.377
 6865SOL    HW220928   4.336   2.433   6.534
 6866SOL     OW20929   4.078   3.372   6.915
 6866SOL    HW120930   4.057   3.328   6.828
 6866SOL    HW220931   4.175   3.398   6.918
 6867SOL     OW20932   4.126   2.613   7.184
 6867SOL    HW120933   4.194   2.668   7.137
 6867SOL    HW220934   4.166   2.525   7.211
 6868SOL     OW20935   4.228   1.912   7.326
 6868SOL    HW120936   4.186   1.855   7.256
 6868SOL    HW220937   4.162   1.981   7.358
 6869SOL     OW20938   4.297   2.732   6.615
 6869SOL    HW120939   4.341   2.821   6.606
 6869SOL    HW220940   4.234   2.732   6.692
 6870SOL     OW20941   4.031   2.075   6.817
 6870SOL    HW120942   4.008   2.112   6.907
 6870SOL    HW220943   4.001   1.980   6.811
 6871SOL     OW20944   3.761   3.172   6.868
 6871SOL    HW120945   3.814   3.123   6.936
 6871SOL    HW220946   3.783   3.270   6.873
 6872SOL     OW20947   4.031   1.925   6.204
 6872SOL    HW120948   4.020   2.019   6.237
 6872SOL    HW220949   4.026   1.862   6.281
 6873SOL     OW20950   4.074   2.760   7.390
 6873SOL    HW120951   4.150   2.804   7.438
 6873SOL    HW220952   4.109   2.713   7.308
 6874SOL     OW20953   4.043   2.672   6.535
 6874SOL    HW120954   4.136   2.708   6.540
 6874SOL    HW220955   4.037   2.587   6.587
 6875SOL     OW20956   4.063   2.371   6.592
 6875SOL    HW120957   4.011   2.288   6.575
 6875SOL    HW220958   4.140   2.376   6.528
 6876SOL     OW20959   3.732   3.188   5.786
 6876SOL    HW120960   3.639   3.209   5.755
 6876SOL    HW220961   3.742   3.089   5.799
 6877SOL     OW20962   3.812   3.663   6.513
 6877SOL    HW120963   3.770   3.577   6.486
 6877SOL    HW220964   3.906   3.666   6.479
 6878SOL     OW20965   4.228   3.430   6.496
 6878SOL    HW120966   4.294   3.504   6.505
 6878SOL    HW220967   4.272   3.351   6.454
 6879SOL     OW20968   3.764   2.406   6.700
 6879SOL    HW120969   3.849   2.373   6.659
 6879SOL    HW220970   3.777   2.421   6.798
 6880SOL     OW20971   3.913   2.382   7.308
 6880SOL    HW120972   3.972   2.342   7.238
 6880SOL    HW220973   3.855   2.453   7.267
 6881SOL     OW20974   4.539   2.434   5.911
 6881SOL    HW120975   4.546   2.345   5.865
 6881SOL    HW220976   4.445   2.468   5.903
 6882SOL     OW20977   3.976   3.426   7.330
 6882SOL    HW120978   3.946   3.483   7.406
 6882SOL    HW220979   3.969   3.329   7.356
 6883SOL     OW20980   4.197   2.362   5.777
 6883SOL    HW120981   4.258   2.442   5.781
 6883SOL    HW220982   4.102   2.393   5.784
 6884SOL     OW20983   3.883   2.999   7.052
 6884SOL    HW120984   3.905   2.938   7.128
 6884SOL    HW220985   3.893   2.950   6.966
 6885SOL     OW20986   3.807   3.120   6.608
 6885SOL    HW120987   3.802   3.119   6.708
 6885SOL    HW220988   3.724   3.079   6.570
 6886SOL     OW20989   4.412   3.524   7.302
 6886SOL    HW120990   4.356   3.605   7.311
 6886SOL    HW220991   4.464   3.528   7.216
 6887SOL     OW20992   3.854   3.656   7.437
 6887SOL    HW120993   3.813   3.582   7.490
 6887SOL    HW220994   3.918   3.707   7.495
 6888SOL     OW20995   3.987   2.188   6.306
 6888SOL    HW120996   3.908   2.239   6.272
 6888SOL    HW220997   3.978   2.173   6.404
 6889SOL     OW20998   4.096   3.150   7.076
 6889SOL    HW120999   4.083   3.243   7.042
 6889SOL    HW221000   4.012   3.098   7.063
 6890SOL     OW21001   4.314   3.349   6.077
 6890SOL    HW121002   4.356   3.291   6.007
 6890SOL    HW221003   4.270   3.428   6.033
 6891SOL     OW21004   3.979   3.210   5.876
 6891SOL    HW121005   3.883   3.211   5.849
 6891SOL    HW221006   3.991   3.263   5.960
 6892SOL     OW21007   3.829   2.875   7.312
 6892SOL    HW121008   3.752   2.842   7.366
 6892SOL    HW221009   3.914   2.845   7.354
 6893SOL     OW21010   4.396   2.065   7.075
 6893SOL    HW121011   4.486   2.049   7.035
 6893SOL    HW221012   4.404   2.070   7.174
 6894SOL     OW21013   3.799   2.207   5.619
 6894SOL    HW121014   3.707   2.179   5.590
 6894SOL    HW221015   3.830   2.284   5.563
 6895SOL     OW21016   3.796   2.028   5.904
 6895SOL    HW121017   3.779   2.111   5.850
 6895SOL    HW221018   3.886   1.991   5.882
 6896SOL     OW21019   4.337   2.704   7.017
 6896SOL    HW121020   4.393   2.785   7.000
 6896SOL    HW221021   4.396   2.624   7.020
 6897SOL     OW21022   4.440   2.427   7.294
 6897SOL    HW121023   4.459   2.492   7.368
 6897SOL    HW221024   4.500   2.347   7.303
 6898SOL     OW21025   4.114   3.603   7.146
 6898SOL    HW121026   4.023   3.644   7.144
 6898SOL    HW221027   4.107   3.509   7.178
 6899SOL     OW21028   4.318   2.607   6.238
 6899SOL    HW121029   4.368   2.692   6.219
 6899SOL    HW221030   4.230   2.609   6.190
 6900SOL     OW21031   3.945   3.176   7.430
 6900SOL    HW121032   3.880   3.103   7.409
 6900SOL    HW221033   3.949   3.190   7.528
 6901SOL     OW21034   3.803   3.102   6.239
 6901SOL    HW121035   3.802   3.055   6.327
 6901SOL    HW221036   3.885   3.074   6.188
 6902SOL     OW21037   4.396   3.253   7.210
 6902SOL    HW121038   4.318   3.203   7.248
 6902SOL    HW221039   4.393   3.348   7.241
 6903SOL     OW21040   4.152   2.286   6.106
 6903SOL    HW121041   4.182   2.214   6.044
 6903SOL    HW221042   4.113   2.246   6.189
 6904SOL     OW21043   4.041   2.409   6.866
 6904SOL    HW121044   4.079   2.350   6.938
 6904SOL    HW221045   4.081   2.383   6.778
 6905SOL     OW21046   4.536   3.448   6.273
 6905SOL    HW121047   4.568   3.458   6.179
 6905SOL    HW221048   4.457   3.386   6.275
 6906SOL     OW21049   3.763   2.939   5.886
 6906SOL    HW121050   3.862   2.928   5.877
 6906SOL    HW221051   3.723   2.853   5.918
 6907SOL     OW21052   3.954   2.490   7.561
 6907SOL    HW121053   3.861   2.488   7.598
 6907SOL    HW221054   3.955   2.451   7.469
 6908SOL     OW21055   3.949   2.137   8.444
 6908SOL    HW121056   3.984   2.120   8.536
 6908SOL    HW221057   3.861   2.092   8.432
 6909SOL     OW21058   3.743   2.230   8.095
 6909SOL    HW121059   3.661   2.273   8.134
 6909SOL    HW221060   3.715   2.157   8.032
 6910SOL     OW21061   4.293   3.137   8.613
 6910SOL    HW121062   4.200   3.130   8.576
 6910SOL    HW221063   4.304   3.226   8.657
 6911SOL     OW21064   4.574   2.660   9.271
 6911SOL    HW121065   4.570   2.736   9.336
 6911SOL    HW221066   4.596   2.696   9.180
 6912SOL     OW21067   4.409   2.874   8.113
 6912SOL    HW121068   4.478   2.858   8.183
 6912SOL    HW221069   4.336   2.931   8.151
 6913SOL     OW21070   4.410   3.023   9.251
 6913SOL    HW121071   4.470   3.102   9.265
 6913SOL    HW221072   4.324   3.054   9.210
 6914SOL     OW21073   4.059   3.297   8.509
 6914SOL    HW121074   3.981   3.266   8.456
 6914SOL    HW221075   4.117   3.355   8.452
 6915SOL     OW21076   4.162   2.254   8.947
 6915SOL    HW121077   4.244   2.198   8.956
 6915SOL    HW221078   4.081   2.196   8.951
 6916SOL     OW21079   3.955   3.575   7.931
 6916SOL    HW121080   3.989   3.652   7.985
 6916SOL    HW221081   3.999   3.575   7.841
 6917SOL     OW21082   3.954   3.296   7.986
 6917SOL    HW121083   3.928   3.392   7.986
 6917SOL    HW221084   3.883   3.242   8.031
 6918SOL     OW21085   3.964   2.953   8.334
 6918SOL    HW121086   3.978   2.869   8.386
 6918SOL    HW221087   3.909   3.017   8.389
 6919SOL     OW21088   4.344   3.648   8.887
 6919SOL    HW121089   4.252   3.631   8.922
 6919SOL    HW221090   4.372   3.740   8.913
 6920SOL     OW21091   4.330   2.826   7.571
 6920SOL    HW121092   4.337   2.910   7.517
 6920SOL    HW221093   4.376   2.839   7.659
 6921SOL     OW21094   3.846   2.505   8.011
 6921SOL    HW121095   3.801   2.417   8.028
 6921SOL    HW221096   3.845   2.559   8.095
 6922SOL     OW21097   3.751   3.458   7.565
 6922SOL    HW121098   3.732   3.362   7.586
 6922SOL    HW221099   3.718   3.516   7.640
 6923SOL     OW21100   3.837   2.599   9.045
 6923SOL    HW121101   3.925   2.586   9.090
 6923SOL    HW221102   3.824   2.696   9.023
 6924SOL     OW21103   4.337   3.227   8.174
 6924SOL    HW121104   4.288   3.140   8.183
 6924SOL    HW221105   4.314   3.270   8.087
 6925SOL     OW21106   4.533   1.866   7.950
 6925SOL    HW121107   4.573   1.957   7.941
 6925SOL    HW221108   4.433   1.874   7.956
 6926SOL     OW21109   3.921   2.838   8.712
 6926SOL    HW121110   4.010   2.793   8.698
 6926SOL    HW221111   3.848   2.773   8.693
 6927SOL     OW21112   4.041   2.113   9.249
 6927SOL    HW121113   4.112   2.184   9.255
 6927SOL    HW221114   3.953   2.152   9.277
 6928SOL     OW21115   4.322   2.591   7.718
 6928SOL    HW121116   4.346   2.660   7.650
 6928SOL    HW221117   4.244   2.624   7.772
 6929SOL     OW21118   3.800   2.673   8.237
 6929SOL    HW121119   3.899   2.661   8.246
 6929SOL    HW221120   3.776   2.768   8.258
 6930SOL     OW21121   3.854   3.683   9.019
 6930SOL    HW121122   3.844   3.668   9.118
 6930SOL    HW221123   3.768   3.719   8.983
 6931SOL     OW21124   4.274   2.058   8.333
 6931SOL    HW121125   4.269   2.053   8.433
 6931SOL    HW221126   4.276   2.154   8.304
 6932SOL     OW21127   4.075   3.663   8.301
 6932SOL    HW121128   4.125   3.577   8.307
 6932SOL    HW221129   4.140   3.740   8.298
 6933SOL     OW21130   4.045   2.805   7.690
 6933SOL    HW121131   4.127   2.844   7.648
 6933SOL    HW221132   4.018   2.723   7.641
 6934SOL     OW21133   4.185   3.128   9.175
 6934SOL    HW121134   4.135   3.129   9.089
 6934SOL    HW221135   4.122   3.110   9.251
 6935SOL     OW21136   3.926   2.147   8.946
 6935SOL    HW121137   3.846   2.207   8.933
 6935SOL    HW221138   3.916   2.098   9.032
 6936SOL     OW21139   4.188   3.605   7.771
 6936SOL    HW121140   4.221   3.644   7.857
 6936SOL    HW221141   4.264   3.598   7.706
 6937SOL     OW21142   3.973   3.647   8.689
 6937SOL    HW121143   4.030   3.582   8.739
 6937SOL    HW221144   3.957   3.614   8.596
 6938SOL     OW21145   4.106   2.562   7.928
 6938SOL    HW121146   4.151   2.472   7.925
 6938SOL    HW221147   4.012   2.551   7.961
 6939SOL     OW21148   4.338   1.984   7.565
 6939SOL    HW121149   4.436   1.962   7.572
 6939SOL    HW221150   4.307   1.967   7.472
 6940SOL     OW21151   4.527   3.264   8.372
 6940SOL    HW121152   4.617   3.278   8.330
 6940SOL    HW221153   4.456   3.266   8.301
 6941SOL     OW21154   4.263   1.926   7.960
 6941SOL    HW121155   4.182   1.927   8.018
 6941SOL    HW221156   4.266   2.009   7.905
 6942SOL     OW21157   4.021   1.897   7.619
 6942SOL    HW121158   4.070   1.981   7.598
 6942SOL    HW221159   4.083   1.832   7.664
 6943SOL     OW21160   4.800   2.545   8.912
 6943SOL    HW121161   4.720   2.484   8.915
 6943SOL    HW221162   4.881   2.492   8.888
 6944SOL     OW21163   4.183   3.014   8.189
 6944SOL    HW121164   4.112   2.987   8.254
 6944SOL    HW221165   4.157   2.986   8.096
 6945SOL     OW21166   3.802   2.418   8.834
 6945SOL    HW121167   3.894   2.417   8.793
 6945SOL    HW221168   3.796   2.492   8.901
 6946SOL     OW21169   4.285   2.084   8.595
 6946SOL    HW121170   4.323   2.000   8.632
 6946SOL    HW221171   4.197   2.103   8.639
 6947SOL     OW21172   4.212   3.247   7.622
 6947SOL    HW121173   4.125   3.232   7.669
 6947SOL    HW221174   4.195   3.273   7.527
 6948SOL     OW21175   4.251   2.118   7.776
 6948SOL    HW121176   4.278   2.059   7.701
 6948SOL    HW221177   4.251   2.213   7.745
 6949SOL     OW21178   4.134   2.675   8.699
 6949SOL    HW121179   4.220   2.687   8.749
 6949SOL    HW221180   4.092   2.588   8.726
 6950SOL     OW21181   3.788   3.426   8.779
 6950SOL    HW121182   3.742   3.508   8.745
 6950SOL    HW221183   3.886   3.445   8.788
 6951SOL     OW21184   4.091   2.962   7.949
 6951SOL    HW121185   4.084   3.045   7.893
 6951SOL    HW221186   4.095   2.882   7.889
 6952SOL     OW21187   4.290   2.399   8.313
 6952SOL    HW121188   4.302   2.465   8.239
 6952SOL    HW221189   4.336   2.433   8.396
 6953SOL     OW21190   4.078   3.372   8.777
 6953SOL    HW121191   4.057   3.328   8.690
 6953SOL    HW221192   4.175   3.398   8.780
 6954SOL     OW21193   4.126   2.613   9.046
 6954SOL    HW121194   4.194   2.668   8.999
 6954SOL    HW221195   4.166   2.525   9.073
 6955SOL     OW21196   4.228   1.912   9.188
 6955SOL    HW121197   4.186   1.855   9.118
 6955SOL    HW221198   4.162   1.981   9.220
 6956SOL     OW21199   4.297   2.732   8.477
 6956SOL    HW121200   4.341   2.821   8.468
 6956SOL    HW221201   4.234   2.732   8.554
 6957SOL     OW21202   4.031   2.075   8.679
 6957SOL    HW121203   4.008   2.112   8.769
 6957SOL    HW221204   4.001   1.980   8.673
 6958SOL     OW21205   3.761   3.172   8.730
 6958SOL    HW121206   3.814   3.123   8.798
 6958SOL    HW221207   3.783   3.270   8.735
 6959SOL     OW21208   4.031   1.925   8.066
 6959SOL    HW121209   4.020   2.019   8.099
 6959SOL    HW221210   4.026   1.862   8.143
 6960SOL     OW21211   4.074   2.760   9.252
 6960SOL    HW121212   4.150   2.804   9.300
 6960SOL    HW221213   4.109   2.713   9.170
 6961SOL     OW21214   4.043   2.672   8.397
 6961SOL    HW121215   4.136   2.708   8.402
 6961SOL    HW221216   4.037   2.587   8.449
 6962SOL     OW21217   4.063   2.371   8.454
 6962SOL    HW121218   4.011   2.288   8.437
 6962SOL    HW221219   4.140   2.376   8.390
 6963SOL     OW21220   3.732   3.188   7.648
 6963SOL    HW121221   3.639   3.209   7.617
 6963SOL    HW221222   3.742   3.089   7.661
 6964SOL     OW21223   3.812   3.663   8.375
 6964SOL    HW121224   3.770   3.577   8.348
 6964SOL    HW221225   3.906   3.666   8.341
 6965SOL     OW21226   4.228   3.430   8.358
 6965SOL    HW121227   4.294   3.504   8.367
 6965SOL    HW221228   4.272   3.351   8.316
 6966SOL     OW21229   3.764   2.406   8.562
 6966SOL    HW121230   3.849   2.373   8.521
 6966SOL    HW221231   3.777   2.421   8.660
 6967SOL     OW21232   3.913   2.382   9.170
 6967SOL    HW121233   3.972   2.342   9.100
 6967SOL    HW221234   3.855   2.453   9.129
 6968SOL     OW21235   4.539   2.434   7.773
 6968SOL    HW121236   4.546   2.345   7.727
 6968SOL    HW221237   4.445   2.468   7.765
 6969SOL     OW21238   3.976   3.426   9.192
 6969SOL    HW121239   3.946   3.483   9.268
 6969SOL    HW221240   3.969   3.329   9.218
 6970SOL     OW21241   4.197   2.362   7.639
 6970SOL    HW121242   4.258   2.442   7.643
 6970SOL    HW221243   4.102   2.393   7.646
 6971SOL     OW21244   3.883   2.999   8.914
 6971SOL    HW121245   3.905   2.938   8.990
 6971SOL    HW221246   3.893   2.950   8.828
 6972SOL     OW21247   3.807   3.120   8.470
 6972SOL    HW121248   3.802   3.119   8.570
 6972SOL    HW221249   3.724   3.079   8.432
 6973SOL     OW21250   4.412   3.524   9.164
 6973SOL    HW121251   4.356   3.605   9.173
 6973SOL    HW221252   4.464   3.528   9.078
 6974SOL     OW21253   3.854   3.656   9.299
 6974SOL    HW121254   3.813   3.582   9.352
 6974SOL    HW221255   3.918   3.707   9.357
 6975SOL     OW21256   3.987   2.188   8.168
 6975SOL    HW121257   3.908   2.239   8.134
 6975SOL    HW221258   3.978   2.173   8.266
 6976SOL     OW21259   4.096   3.150   8.938
 6976SOL    HW121260   4.083   3.243   8.904
 6976SOL    HW221261   4.012   3.098   8.925
 6977SOL     OW21262   4.314   3.349   7.939
 6977SOL    HW121263   4.356   3.291   7.869
 6977SOL    HW221264   4.270   3.428   7.895
 6978SOL     OW21265   3.979   3.210   7.738
 6978SOL    HW121266   3.883   3.211   7.711
 6978SOL    HW221267   3.991   3.263   7.822
 6979SOL     OW21268   3.829   2.875   9.174
 6979SOL    HW121269   3.752   2.842   9.228
 6979SOL    HW221270   3.914   2.845   9.216
 6980SOL     OW21271   4.396   2.065   8.937
 6980SOL    HW121272   4.486   2.049   8.897
 6980SOL    HW221273   4.404   2.070   9.036
 6981SOL     OW21274   3.799   2.207   7.481
 6981SOL    HW121275   3.707   2.179   7.452
 6981SOL    HW221276   3.830   2.284   7.425
 6982SOL     OW21277   3.796   2.028   7.766
 6982SOL    HW121278   3.779   2.111   7.712
 6982SOL    HW221279   3.886   1.991   7.744
 6983SOL     OW21280   4.337   2.704   8.879
 6983SOL    HW121281   4.393   2.785   8.862
 6983SOL    HW221282   4.396   2.624   8.882
 6984SOL     OW21283   4.440   2.427   9.156
 6984SOL    HW121284   4.459   2.492   9.230
 6984SOL    HW221285   4.500   2.347   9.165
 6985SOL     OW21286   4.114   3.603   9.008
 6985SOL    HW121287   4.023   3.644   9.006
 6985SOL    HW221288   4.107   3.509   9.040
 6986SOL     OW21289   4.318   2.607   8.100
 6986SOL    HW121290   4.368   2.692   8.081
 6986SOL    HW221291   4.230   2.609   8.052
 6987SOL     OW21292   3.945   3.176   9.292
 6987SOL    HW121293   3.880   3.103   9.271
 6987SOL    HW221294   3.949   3.190   9.390
 6988SOL     OW21295   3.803   3.102   8.101
 6988SOL    HW121296   3.802   3.055   8.189
 6988SOL    HW221297   3.885   3.074   8.050
 6989SOL     OW21298   4.396   3.253   9.072
 6989SOL    HW121299   4.318   3.203   9.110
 6989SOL    HW221300   4.393   3.348   9.103
 6990SOL     OW21301   4.152   2.286   7.968
 6990SOL    HW121302   4.182   2.214   7.906
 6990SOL    HW221303   4.113   2.246   8.051
 6991SOL     OW21304   4.041   2.409   8.728
 6991SOL    HW121305   4.079   2.350   8.800
 6991SOL    HW221306   4.081   2.383   8.640
 6992SOL     OW21307   4.536   3.448   8.135
 6992SOL    HW121308   4.568   3.458   8.041
 6992SOL    HW221309   4.457   3.386   8.137
 6993SOL     OW21310   3.763   2.939   7.748
 6993SOL    HW121311   3.862   2.928   7.739
 6993SOL    HW221312   3.723   2.853   7.780
 6994SOL     OW21313   3.954   2.490   9.423
 6994SOL    HW121314   3.861   2.488   9.460
 6994SOL    HW221315   3.955   2.451   9.331
 6995SOL     OW21316   3.949   2.137  10.306
 6995SOL    HW121317   3.984   2.120  10.398
 6995SOL    HW221318   3.861   2.092  10.294
 6996SOL     OW21319   3.743   2.230   9.957
 6996SOL    HW121320   3.661   2.273   9.996
 6996SOL    HW221321   3.715   2.157   9.894
 6997SOL     OW21322   4.293   3.137  10.475
 6997SOL    HW121323   4.200   3.130  10.438
 6997SOL    HW221324   4.304   3.226  10.519
 6998SOL     OW21325   4.574   2.660  11.133
 6998SOL    HW121326   4.570   2.736  11.198
 6998SOL    HW221327   4.596   2.696  11.042
 6999SOL     OW21328   4.409   2.874   9.975
 6999SOL    HW121329   4.478   2.858  10.045
 6999SOL    HW221330   4.336   2.931  10.013
 7000SOL     OW21331   4.410   3.023  11.113
 7000SOL    HW121332   4.470   3.102  11.127
 7000SOL    HW221333   4.324   3.054  11.072
 7001SOL     OW21334   4.059   3.297  10.371
 7001SOL    HW121335   3.981   3.266  10.318
 7001SOL    HW221336   4.117   3.355  10.314
 7002SOL     OW21337   4.162   2.254  10.809
 7002SOL    HW121338   4.244   2.198  10.818
 7002SOL    HW221339   4.081   2.196  10.813
 7003SOL     OW21340   3.955   3.575   9.793
 7003SOL    HW121341   3.989   3.652   9.847
 7003SOL    HW221342   3.999   3.575   9.703
 7004SOL     OW21343   3.954   3.296   9.848
 7004SOL    HW121344   3.928   3.392   9.848
 7004SOL    HW221345   3.883   3.242   9.893
 7005SOL     OW21346   3.964   2.953  10.196
 7005SOL    HW121347   3.978   2.869  10.248
 7005SOL    HW221348   3.909   3.017  10.251
 7006SOL     OW21349   4.344   3.648  10.749
 7006SOL    HW121350   4.252   3.631  10.784
 7006SOL    HW221351   4.372   3.740  10.775
 7007SOL     OW21352   4.330   2.826   9.433
 7007SOL    HW121353   4.337   2.910   9.379
 7007SOL    HW221354   4.376   2.839   9.521
 7008SOL     OW21355   3.846   2.505   9.873
 7008SOL    HW121356   3.801   2.417   9.890
 7008SOL    HW221357   3.845   2.559   9.957
 7009SOL     OW21358   3.751   3.458   9.427
 7009SOL    HW121359   3.732   3.362   9.448
 7009SOL    HW221360   3.718   3.516   9.502
 7010SOL     OW21361   3.837   2.599  10.907
 7010SOL    HW121362   3.925   2.586  10.952
 7010SOL    HW221363   3.824   2.696  10.885
 7011SOL     OW21364   4.337   3.227  10.036
 7011SOL    HW121365   4.288   3.140  10.045
 7011SOL    HW221366   4.314   3.270   9.949
 7012SOL     OW21367   4.533   1.866   9.812
 7012SOL    HW121368   4.573   1.957   9.803
 7012SOL    HW221369   4.433   1.874   9.818
 7013SOL     OW21370   3.921   2.838  10.574
 7013SOL    HW121371   4.010   2.793  10.560
 7013SOL    HW221372   3.848   2.773  10.555
 7014SOL     OW21373   4.041   2.113  11.111
 7014SOL    HW121374   4.112   2.184  11.117
 7014SOL    HW221375   3.953   2.152  11.139
 7015SOL     OW21376   4.322   2.591   9.580
 7015SOL    HW121377   4.346   2.660   9.512
 7015SOL    HW221378   4.244   2.624   9.634
 7016SOL     OW21379   3.800   2.673  10.099
 7016SOL    HW121380   3.899   2.661  10.108
 7016SOL    HW221381   3.776   2.768  10.120
 7017SOL     OW21382   3.854   3.683  10.881
 7017SOL    HW121383   3.844   3.668  10.980
 7017SOL    HW221384   3.768   3.719  10.845
 7018SOL     OW21385   4.274   2.058  10.195
 7018SOL    HW121386   4.269   2.053  10.295
 7018SOL    HW221387   4.276   2.154  10.166
 7019SOL     OW21388   4.075   3.663  10.163
 7019SOL    HW121389   4.125   3.577  10.169
 7019SOL    HW221390   4.140   3.740  10.160
 7020SOL     OW21391   4.045   2.805   9.552
 7020SOL    HW121392   4.127   2.844   9.510
 7020SOL    HW221393   4.018   2.723   9.503
 7021SOL     OW21394   4.185   3.128  11.037
 7021SOL    HW121395   4.135   3.129  10.951
 7021SOL    HW221396   4.122   3.110  11.113
 7022SOL     OW21397   3.926   2.147  10.808
 7022SOL    HW121398   3.846   2.207  10.795
 7022SOL    HW221399   3.916   2.098  10.894
 7023SOL     OW21400   4.188   3.605   9.633
 7023SOL    HW121401   4.221   3.644   9.719
 7023SOL    HW221402   4.264   3.598   9.568
 7024SOL     OW21403   3.973   3.647  10.551
 7024SOL    HW121404   4.030   3.582  10.601
 7024SOL    HW221405   3.957   3.614  10.458
 7025SOL     OW21406   4.106   2.562   9.790
 7025SOL    HW121407   4.151   2.472   9.787
 7025SOL    HW221408   4.012   2.551   9.823
 7026SOL     OW21409   4.338   1.984   9.427
 7026SOL    HW121410   4.436   1.962   9.434
 7026SOL    HW221411   4.307   1.967   9.334
 7027SOL     OW21412   4.527   3.264  10.234
 7027SOL    HW121413   4.617   3.278  10.192
 7027SOL    HW221414   4.456   3.266  10.163
 7028SOL     OW21415   4.263   1.926   9.822
 7028SOL    HW121416   4.182   1.927   9.880
 7028SOL    HW221417   4.266   2.009   9.767
 7029SOL     OW21418   4.021   1.897   9.481
 7029SOL    HW121419   4.070   1.981   9.460
 7029SOL    HW221420   4.083   1.832   9.526
 7030SOL     OW21421   4.800   2.545  10.774
 7030SOL    HW121422   4.720   2.484  10.777
 7030SOL    HW221423   4.881   2.492  10.750
 7031SOL     OW21424   4.183   3.014  10.051
 7031SOL    HW121425   4.112   2.987  10.116
 7031SOL    HW221426   4.157   2.986   9.958
 7032SOL     OW21427   3.802   2.418  10.696
 7032SOL    HW121428   3.894   2.417  10.655
 7032SOL    HW221429   3.796   2.492  10.763
 7033SOL     OW21430   4.285   2.084  10.457
 7033SOL    HW121431   4.323   2.000  10.494
 7033SOL    HW221432   4.197   2.103  10.501
 7034SOL     OW21433   4.212   3.247   9.484
 7034SOL    HW121434   4.125   3.232   9.531
 7034SOL    HW221435   4.195   3.273   9.389
 7035SOL     OW21436   4.251   2.118   9.638
 7035SOL    HW121437   4.278   2.059   9.563
 7035SOL    HW221438   4.251   2.213   9.607
 7036SOL     OW21439   4.134   2.675  10.561
 7036SOL    HW121440   4.220   2.687  10.611
 7036SOL    HW221441   4.092   2.588  10.588
 7037SOL     OW21442   3.788   3.426  10.641
 7037SOL    HW121443   3.742   3.508  10.607
 7037SOL    HW221444   3.886   3.445  10.650
 7038SOL     OW21445   4.091   2.962   9.811
 7038SOL    HW121446   4.084   3.045   9.755
 7038SOL    HW221447   4.095   2.882   9.751
 7039SOL     OW21448   4.290   2.399  10.175
 7039SOL    HW121449   4.302   2.465  10.101
 7039SOL    HW221450   4.336   2.433  10.258
 7040SOL     OW21451   4.078   3.372  10.639
 7040SOL    HW121452   4.057   3.328  10.552
 7040SOL    HW221453   4.175   3.398  10.642
 7041SOL     OW21454   4.126   2.613  10.908
 7041SOL    HW121455   4.194   2.668  10.861
 7041SOL    HW221456   4.166   2.525  10.935
 7042SOL     OW21457   4.228   1.912  11.050
 7042SOL    HW121458   4.186   1.855  10.980
 7042SOL    HW221459   4.162   1.981  11.082
 7043SOL     OW21460   4.297   2.732  10.339
 7043SOL    HW121461   4.341   2.821  10.330
 7043SOL    HW221462   4.234   2.732  10.416
 7044SOL     OW21463   4.031   2.075  10.541
 7044SOL    HW121464   4.008   2.112  10.631
 7044SOL    HW221465   4.001   1.980  10.535
 7045SOL     OW21466   3.761   3.172  10.592
 7045SOL    HW121467   3.814   3.123  10.660
 7045SOL    HW221468   3.783   3.270  10.597
 7046SOL     OW21469   4.031   1.925   9.928
 7046SOL    HW121470   4.020   2.019   9.961
 7046SOL    HW221471   4.026   1.862  10.005
 7047SOL     OW21472   4.074   2.760  11.114
 7047SOL    HW121473   4.150   2.804  11.162
 7047SOL    HW221474   4.109   2.713  11.032
 7048SOL     OW21475   4.043   2.672  10.259
 7048SOL    HW121476   4.136   2.708  10.264
 7048SOL    HW221477   4.037   2.587  10.311
 7049SOL     OW21478   4.063   2.371  10.316
 7049SOL    HW121479   4.011   2.288  10.299
 7049SOL    HW221480   4.140   2.376  10.252
 7050SOL     OW21481   3.732   3.188   9.510
 7050SOL    HW121482   3.639   3.209   9.479
 7050SOL    HW221483   3.742   3.089   9.523
 7051SOL     OW21484   3.812   3.663  10.237
 7051SOL    HW121485   3.770   3.577  10.210
 7051SOL    HW221486   3.906   3.666  10.203
 7052SOL     OW21487   4.228   3.430  10.220
 7052SOL    HW121488   4.294   3.504  10.229
 7052SOL    HW221489   4.272   3.351  10.178
 7053SOL     OW21490   3.764   2.406  10.424
 7053SOL    HW121491   3.849   2.373  10.383
 7053SOL    HW221492   3.777   2.421  10.522
 7054SOL     OW21493   3.913   2.382  11.032
 7054SOL    HW121494   3.972   2.342  10.962
 7054SOL    HW221495   3.855   2.453  10.991
 7055SOL     OW21496   4.539   2.434   9.635
 7055SOL    HW121497   4.546   2.345   9.589
 7055SOL    HW221498   4.445   2.468   9.627
 7056SOL     OW21499   3.976   3.426  11.054
 7056SOL    HW121500   3.946   3.483  11.130
 7056SOL    HW221501   3.969   3.329  11.080
 7057SOL     OW21502   4.197   2.362   9.501
 7057SOL    HW121503   4.258   2.442   9.505
 7057SOL    HW221504   4.102   2.393   9.508
 7058SOL     OW21505   3.883   2.999  10.776
 7058SOL    HW121506   3.905   2.938  10.852
 7058SOL    HW221507   3.893   2.950  10.690
 7059SOL     OW21508   3.807   3.120  10.332
 7059SOL    HW121509   3.802   3.119  10.432
 7059SOL    HW221510   3.724   3.079  10.294
 7060SOL     OW21511   4.412   3.524  11.026
 7060SOL    HW121512   4.356   3.605  11.035
 7060SOL    HW221513   4.464   3.528  10.940
 7061SOL     OW21514   3.854   3.656  11.161
 7061SOL    HW121515   3.813   3.582  11.214
 7061SOL    HW221516   3.918   3.707  11.219
 7062SOL     OW21517   3.987   2.188  10.030
 7062SOL    HW121518   3.908   2.239   9.996
 7062SOL    HW221519   3.978   2.173  10.128
 7063SOL     OW21520   4.096   3.150  10.800
 7063SOL    HW121521   4.083   3.243  10.766
 7063SOL    HW221522   4.012   3.098  10.787
 7064SOL     OW21523   4.314   3.349   9.801
 7064SOL    HW121524   4.356   3.291   9.731
 7064SOL    HW221525   4.270   3.428   9.757
 7065SOL     OW21526   3.979   3.210   9.600
 7065SOL    HW121527   3.883   3.211   9.573
 7065SOL    HW221528   3.991   3.263   9.684
 7066SOL     OW21529   3.829   2.875  11.036
 7066SOL    HW121530   3.752   2.842  11.090
 7066SOL    HW221531   3.914   2.845  11.078
 7067SOL     OW21532   4.396   2.065  10.799
 7067SOL    HW121533   4.486   2.049  10.759
 7067SOL    HW221534   4.404   2.070  10.898
 7068SOL     OW21535   3.799   2.207   9.343
 7068SOL    HW121536   3.707   2.179   9.314
 7068SOL    HW221537   3.830   2.284   9.287
 7069SOL     OW21538   3.796   2.028   9.628
 7069SOL    HW121539   3.779   2.111   9.574
 7069SOL    HW221540   3.886   1.991   9.606
 7070SOL     OW21541   4.337   2.704  10.741
 7070SOL    HW121542   4.393   2.785  10.724
 7070SOL    HW221543   4.396   2.624  10.744
 7071SOL     OW21544   4.440   2.427  11.018
 7071SOL    HW121545   4.459   2.492  11.092
 7071SOL    HW221546   4.500   2.347  11.027
 7072SOL     OW21547   4.114   3.603  10.870
 7072SOL    HW121548   4.023   3.644  10.868
 7072SOL    HW221549   4.107   3.509  10.902
 7073SOL     OW21550   4.318   2.607   9.962
 7073SOL    HW121551   4.368   2.692   9.943
 7073SOL    HW221552   4.230   2.609   9.914
 7074SOL     OW21553   3.945   3.176  11.154
 7074SOL    HW121554   3.880   3.103  11.133
 7074SOL    HW221555   3.949   3.190  11.252
 7075SOL     OW21556   3.803   3.102   9.963
 7075SOL    HW121557   3.802   3.055  10.051
 7075SOL    HW221558   3.885   3.074   9.912
 7076SOL     OW21559   4.396   3.253  10.934
 7076SOL    HW121560   4.318   3.203  10.972
 7076SOL    HW221561   4.393   3.348  10.965
 7077SOL     OW21562   4.152   2.286   9.830
 7077SOL    HW121563   4.182   2.214   9.768
 7077SOL    HW221564   4.113   2.246   9.913
 7078SOL     OW21565   4.041   2.409  10.590
 7078SOL    HW121566   4.079   2.350  10.662
 7078SOL    HW221567   4.081   2.383  10.502
 7079SOL     OW21568   4.536   3.448   9.997
 7079SOL    HW121569   4.568   3.458   9.903
 7079SOL    HW221570   4.457   3.386   9.999
 7080SOL     OW21571   3.763   2.939   9.610
 7080SOL    HW121572   3.862   2.928   9.601
 7080SOL    HW221573   3.723   2.853   9.642
 7081SOL     OW21574   3.954   4.352   0.113
 7081SOL    HW121575   3.861   4.350   0.150
 7081SOL    HW221576   3.955   4.313   0.021
 7082SOL     OW21577   3.949   3.999   0.996
 7082SOL    HW121578   3.984   3.982   1.088
 7082SOL    HW221579   3.861   3.954   0.984
 7083SOL     OW21580   3.743   4.092   0.647
 7083SOL    HW121581   3.661   4.135   0.686
 7083SOL    HW221582   3.715   4.019   0.584
 7084SOL     OW21583   4.574   4.522   1.823
 7084SOL    HW121584   4.570   4.598   1.888
 7084SOL    HW221585   4.596   4.558   1.732
 7085SOL     OW21586   4.162   4.116   1.499
 7085SOL    HW121587   4.244   4.060   1.508
 7085SOL    HW221588   4.081   4.058   1.503
 7086SOL     OW21589   3.846   4.367   0.563
 7086SOL    HW121590   3.801   4.279   0.580
 7086SOL    HW221591   3.845   4.421   0.647
 7087SOL     OW21592   3.837   4.461   1.597
 7087SOL    HW121593   3.925   4.448   1.642
 7087SOL    HW221594   3.824   4.558   1.575
 7088SOL     OW21595   4.533   3.728   0.502
 7088SOL    HW121596   4.573   3.819   0.493
 7088SOL    HW221597   4.433   3.736   0.508
 7089SOL     OW21598   4.041   3.975   1.801
 7089SOL    HW121599   4.112   4.046   1.807
 7089SOL    HW221600   3.953   4.014   1.829
 7090SOL     OW21601   4.274   3.920   0.885
 7090SOL    HW121602   4.269   3.915   0.985
 7090SOL    HW221603   4.276   4.016   0.856
 7091SOL     OW21604   3.926   4.009   1.498
 7091SOL    HW121605   3.846   4.069   1.485
 7091SOL    HW221606   3.916   3.960   1.584
 7092SOL     OW21607   4.106   4.424   0.480
 7092SOL    HW121608   4.151   4.334   0.477
 7092SOL    HW221609   4.012   4.413   0.513
 7093SOL     OW21610   4.338   3.846   0.117
 7093SOL    HW121611   4.436   3.824   0.124
 7093SOL    HW221612   4.307   3.829   0.024
 7094SOL     OW21613   4.263   3.788   0.512
 7094SOL    HW121614   4.182   3.789   0.570
 7094SOL    HW221615   4.266   3.871   0.457
 7095SOL     OW21616   4.021   3.759   0.171
 7095SOL    HW121617   4.070   3.843   0.150
 7095SOL    HW221618   4.083   3.694   0.216
 7096SOL     OW21619   4.800   4.407   1.464
 7096SOL    HW121620   4.720   4.346   1.467
 7096SOL    HW221621   4.881   4.354   1.440
 7097SOL     OW21622   3.802   4.280   1.386
 7097SOL    HW121623   3.894   4.279   1.345
 7097SOL    HW221624   3.796   4.354   1.453
 7098SOL     OW21625   4.285   3.946   1.147
 7098SOL    HW121626   4.323   3.862   1.184
 7098SOL    HW221627   4.197   3.965   1.191
 7099SOL     OW21628   4.251   3.980   0.328
 7099SOL    HW121629   4.278   3.921   0.253
 7099SOL    HW221630   4.251   4.075   0.297
 7100SOL     OW21631   4.134   4.537   1.251
 7100SOL    HW121632   4.220   4.549   1.301
 7100SOL    HW221633   4.092   4.450   1.278
 7101SOL     OW21634   4.290   4.261   0.865
 7101SOL    HW121635   4.302   4.327   0.791
 7101SOL    HW221636   4.336   4.295   0.948
 7102SOL     OW21637   4.228   3.774   1.740
 7102SOL    HW121638   4.186   3.717   1.670
 7102SOL    HW221639   4.162   3.843   1.772
 7103SOL     OW21640   4.031   3.937   1.231
 7103SOL    HW121641   4.008   3.974   1.321
 7103SOL    HW221642   4.001   3.842   1.225
 7104SOL     OW21643   4.031   3.787   0.618
 7104SOL    HW121644   4.020   3.881   0.651
 7104SOL    HW221645   4.026   3.724   0.695
 7105SOL     OW21646   4.043   4.534   0.949
 7105SOL    HW121647   4.136   4.570   0.954
 7105SOL    HW221648   4.037   4.449   1.001
 7106SOL     OW21649   4.063   4.233   1.006
 7106SOL    HW121650   4.011   4.150   0.989
 7106SOL    HW221651   4.140   4.238   0.942
 7107SOL     OW21652   3.764   4.268   1.114
 7107SOL    HW121653   3.849   4.235   1.073
 7107SOL    HW221654   3.777   4.283   1.212
 7108SOL     OW21655   3.913   4.244   1.722
 7108SOL    HW121656   3.972   4.204   1.652
 7108SOL    HW221657   3.855   4.315   1.681
 7109SOL     OW21658   4.539   4.296   0.325
 7109SOL    HW121659   4.546   4.207   0.279
 7109SOL    HW221660   4.445   4.330   0.317
 7110SOL     OW21661   4.197   4.224   0.191
 7110SOL    HW121662   4.258   4.304   0.195
 7110SOL    HW221663   4.102   4.255   0.198
 7111SOL     OW21664   3.987   4.050   0.720
 7111SOL    HW121665   3.908   4.101   0.686
 7111SOL    HW221666   3.978   4.035   0.818
 7112SOL     OW21667   4.396   3.927   1.489
 7112SOL    HW121668   4.486   3.911   1.449
 7112SOL    HW221669   4.404   3.932   1.588
 7113SOL     OW21670   3.799   4.069   0.033
 7113SOL    HW121671   3.707   4.041   0.004
 7113SOL    HW221672   3.830   4.146  -0.023
 7114SOL     OW21673   3.796   3.890   0.318
 7114SOL    HW121674   3.779   3.973   0.264
 7114SOL    HW221675   3.886   3.853   0.296
 7115SOL     OW21676   4.440   4.289   1.708
 7115SOL    HW121677   4.459   4.354   1.782
 7115SOL    HW221678   4.500   4.209   1.717
 7116SOL     OW21679   4.152   4.148   0.520
 7116SOL    HW121680   4.182   4.076   0.458
 7116SOL    HW221681   4.113   4.108   0.603
 7117SOL     OW21682   4.041   4.271   1.280
 7117SOL    HW121683   4.079   4.212   1.352
 7117SOL    HW221684   4.081   4.245   1.192
 7118SOL     OW21685   3.954   4.352   1.975
 7118SOL    HW121686   3.861   4.350   2.012
 7118SOL    HW221687   3.955   4.313   1.883
 7119SOL     OW21688   3.949   3.999   2.858
 7119SOL    HW121689   3.984   3.982   2.950
 7119SOL    HW221690   3.861   3.954   2.846
 7120SOL     OW21691   3.743   4.092   2.509
 7120SOL    HW121692   3.661   4.135   2.548
 7120SOL    HW221693   3.715   4.019   2.446
 7121SOL     OW21694   4.574   4.522   3.685
 7121SOL    HW121695   4.570   4.598   3.750
 7121SOL    HW221696   4.596   4.558   3.594
 7122SOL     OW21697   4.162   4.116   3.361
 7122SOL    HW121698   4.244   4.060   3.370
 7122SOL    HW221699   4.081   4.058   3.365
 7123SOL     OW21700   3.846   4.367   2.425
 7123SOL    HW121701   3.801   4.279   2.442
 7123SOL    HW221702   3.845   4.421   2.509
 7124SOL     OW21703   3.837   4.461   3.459
 7124SOL    HW121704   3.925   4.448   3.504
 7124SOL    HW221705   3.824   4.558   3.437
 7125SOL     OW21706   4.533   3.728   2.364
 7125SOL    HW121707   4.573   3.819   2.355
 7125SOL    HW221708   4.433   3.736   2.370
 7126SOL     OW21709   4.041   3.975   3.663
 7126SOL    HW121710   4.112   4.046   3.669
 7126SOL    HW221711   3.953   4.014   3.691
 7127SOL     OW21712   4.274   3.920   2.747
 7127SOL    HW121713   4.269   3.915   2.847
 7127SOL    HW221714   4.276   4.016   2.718
 7128SOL     OW21715   3.926   4.009   3.360
 7128SOL    HW121716   3.846   4.069   3.347
 7128SOL    HW221717   3.916   3.960   3.446
 7129SOL     OW21718   4.106   4.424   2.342
 7129SOL    HW121719   4.151   4.334   2.339
 7129SOL    HW221720   4.012   4.413   2.375
 7130SOL     OW21721   4.338   3.846   1.979
 7130SOL    HW121722   4.436   3.824   1.986
 7130SOL    HW221723   4.307   3.829   1.886
 7131SOL     OW21724   4.263   3.788   2.374
 7131SOL    HW121725   4.182   3.789   2.432
 7131SOL    HW221726   4.266   3.871   2.319
 7132SOL     OW21727   4.021   3.759   2.033
 7132SOL    HW121728   4.070   3.843   2.012
 7132SOL    HW221729   4.083   3.694   2.078
 7133SOL     OW21730   4.800   4.407   3.326
 7133SOL    HW121731   4.720   4.346   3.329
 7133SOL    HW221732   4.881   4.354   3.302
 7134SOL     OW21733   3.802   4.280   3.248
 7134SOL    HW121734   3.894   4.279   3.207
 7134SOL    HW221735   3.796   4.354   3.315
 7135SOL     OW21736   4.285   3.946   3.009
 7135SOL    HW121737   4.323   3.862   3.046
 7135SOL    HW221738   4.197   3.965   3.053
 7136SOL     OW21739   4.251   3.980   2.190
 7136SOL    HW121740   4.278   3.921   2.115
 7136SOL    HW221741   4.251   4.075   2.159
 7137SOL     OW21742   4.134   4.537   3.113
 7137SOL    HW121743   4.220   4.549   3.163
 7137SOL    HW221744   4.092   4.450   3.140
 7138SOL     OW21745   4.290   4.261   2.727
 7138SOL    HW121746   4.302   4.327   2.653
 7138SOL    HW221747   4.336   4.295   2.810
 7139SOL     OW21748   4.228   3.774   3.602
 7139SOL    HW121749   4.186   3.717   3.532
 7139SOL    HW221750   4.162   3.843   3.634
 7140SOL     OW21751   4.031   3.937   3.093
 7140SOL    HW121752   4.008   3.974   3.183
 7140SOL    HW221753   4.001   3.842   3.087
 7141SOL     OW21754   4.031   3.787   2.480
 7141SOL    HW121755   4.020   3.881   2.513
 7141SOL    HW221756   4.026   3.724   2.557
 7142SOL     OW21757   4.043   4.534   2.811
 7142SOL    HW121758   4.136   4.570   2.816
 7142SOL    HW221759   4.037   4.449   2.863
 7143SOL     OW21760   4.063   4.233   2.868
 7143SOL    HW121761   4.011   4.150   2.851
 7143SOL    HW221762   4.140   4.238   2.804
 7144SOL     OW21763   3.764   4.268   2.976
 7144SOL    HW121764   3.849   4.235   2.935
 7144SOL    HW221765   3.777   4.283   3.074
 7145SOL     OW21766   3.913   4.244   3.584
 7145SOL    HW121767   3.972   4.204   3.514
 7145SOL    HW221768   3.855   4.315   3.543
 7146SOL     OW21769   4.539   4.296   2.187
 7146SOL    HW121770   4.546   4.207   2.141
 7146SOL    HW221771   4.445   4.330   2.179
 7147SOL     OW21772   4.197   4.224   2.053
 7147SOL    HW121773   4.258   4.304   2.057
 7147SOL    HW221774   4.102   4.255   2.060
 7148SOL     OW21775   3.987   4.050   2.582
 7148SOL    HW121776   3.908   4.101   2.548
 7148SOL    HW221777   3.978   4.035   2.680
 7149SOL     OW21778   4.396   3.927   3.351
 7149SOL    HW121779   4.486   3.911   3.311
 7149SOL    HW221780   4.404   3.932   3.450
 7150SOL     OW21781   3.799   4.069   1.895
 7150SOL    HW121782   3.707   4.041   1.866
 7150SOL    HW221783   3.830   4.146   1.839
 7151SOL     OW21784   3.796   3.890   2.180
 7151SOL    HW121785   3.779   3.973   2.126
 7151SOL    HW221786   3.886   3.853   2.158
 7152SOL     OW21787   4.440   4.289   3.570
 7152SOL    HW121788   4.459   4.354   3.644
 7152SOL    HW221789   4.500   4.209   3.579
 7153SOL     OW21790   4.152   4.148   2.382
 7153SOL    HW121791   4.182   4.076   2.320
 7153SOL    HW221792   4.113   4.108   2.465
 7154SOL     OW21793   4.041   4.271   3.142
 7154SOL    HW121794   4.079   4.212   3.214
 7154SOL    HW221795   4.081   4.245   3.054
 7155SOL     OW21796   3.954   4.352   3.837
 7155SOL    HW121797   3.861   4.350   3.874
 7155SOL    HW221798   3.955   4.313   3.745
 7156SOL     OW21799   3.949   3.999   4.720
 7156SOL    HW121800   3.984   3.982   4.812
 7156SOL    HW221801   3.861   3.954   4.708
 7157SOL     OW21802   3.743   4.092   4.371
 7157SOL    HW121803   3.661   4.135   4.410
 7157SOL    HW221804   3.715   4.019   4.308
 7158SOL     OW21805   4.574   4.522   5.547
 7158SOL    HW121806   4.570   4.598   5.612
 7158SOL    HW221807   4.596   4.558   5.456
 7159SOL     OW21808   4.162   4.116   5.223
 7159SOL    HW121809   4.244   4.060   5.232
 7159SOL    HW221810   4.081   4.058   5.227
 7160SOL     OW21811   3.846   4.367   4.287
 7160SOL    HW121812   3.801   4.279   4.304
 7160SOL    HW221813   3.845   4.421   4.371
 7161SOL     OW21814   3.837   4.461   5.321
 7161SOL    HW121815   3.925   4.448   5.366
 7161SOL    HW221816   3.824   4.558   5.299
 7162SOL     OW21817   4.533   3.728   4.226
 7162SOL    HW121818   4.573   3.819   4.217
 7162SOL    HW221819   4.433   3.736   4.232
 7163SOL     OW21820   4.041   3.975   5.525
 7163SOL    HW121821   4.112   4.046   5.531
 7163SOL    HW221822   3.953   4.014   5.553
 7164SOL     OW21823   4.274   3.920   4.609
 7164SOL    HW121824   4.269   3.915   4.709
 7164SOL    HW221825   4.276   4.016   4.580
 7165SOL     OW21826   3.926   4.009   5.222
 7165SOL    HW121827   3.846   4.069   5.209
 7165SOL    HW221828   3.916   3.960   5.308
 7166SOL     OW21829   4.106   4.424   4.204
 7166SOL    HW121830   4.151   4.334   4.201
 7166SOL    HW221831   4.012   4.413   4.237
 7167SOL     OW21832   4.338   3.846   3.841
 7167SOL    HW121833   4.436   3.824   3.848
 7167SOL    HW221834   4.307   3.829   3.748
 7168SOL     OW21835   4.263   3.788   4.236
 7168SOL    HW121836   4.182   3.789   4.294
 7168SOL    HW221837   4.266   3.871   4.181
 7169SOL     OW21838   4.021   3.759   3.895
 7169SOL    HW121839   4.070   3.843   3.874
 7169SOL    HW221840   4.083   3.694   3.940
 7170SOL     OW21841   4.800   4.407   5.188
 7170SOL    HW121842   4.720   4.346   5.191
 7170SOL    HW221843   4.881   4.354   5.164
 7171SOL     OW21844   3.802   4.280   5.110
 7171SOL    HW121845   3.894   4.279   5.069
 7171SOL    HW221846   3.796   4.354   5.177
 7172SOL     OW21847   4.285   3.946   4.871
 7172SOL    HW121848   4.323   3.862   4.908
 7172SOL    HW221849   4.197   3.965   4.915
 7173SOL     OW21850   4.251   3.980   4.052
 7173SOL    HW121851   4.278   3.921   3.977
 7173SOL    HW221852   4.251   4.075   4.021
 7174SOL     OW21853   4.134   4.537   4.975
 7174SOL    HW121854   4.220   4.549   5.025
 7174SOL    HW221855   4.092   4.450   5.002
 7175SOL     OW21856   4.290   4.261   4.589
 7175SOL    HW121857   4.302   4.327   4.515
 7175SOL    HW221858   4.336   4.295   4.672
 7176SOL     OW21859   4.228   3.774   5.464
 7176SOL    HW121860   4.186   3.717   5.394
 7176SOL    HW221861   4.162   3.843   5.496
 7177SOL     OW21862   4.031   3.937   4.955
 7177SOL    HW121863   4.008   3.974   5.045
 7177SOL    HW221864   4.001   3.842   4.949
 7178SOL     OW21865   4.031   3.787   4.342
 7178SOL    HW121866   4.020   3.881   4.375
 7178SOL    HW221867   4.026   3.724   4.419
 7179SOL     OW21868   4.043   4.534   4.673
 7179SOL    HW121869   4.136   4.570   4.678
 7179SOL    HW221870   4.037   4.449   4.725
 7180SOL     OW21871   4.063   4.233   4.730
 7180SOL    HW121872   4.011   4.150   4.713
 7180SOL    HW221873   4.140   4.238   4.666
 7181SOL     OW21874   3.764   4.268   4.838
 7181SOL    HW121875   3.849   4.235   4.797
 7181SOL    HW221876   3.777   4.283   4.936
 7182SOL     OW21877   3.913   4.244   5.446
 7182SOL    HW121878   3.972   4.204   5.376
 7182SOL    HW221879   3.855   4.315   5.405
 7183SOL     OW21880   4.539   4.296   4.049
 7183SOL    HW121881   4.546   4.207   4.003
 7183SOL    HW221882   4.445   4.330   4.041
 7184SOL     OW21883   4.197   4.224   3.915
 7184SOL    HW121884   4.258   4.304   3.919
 7184SOL    HW221885   4.102   4.255   3.922
 7185SOL     OW21886   3.987   4.050   4.444
 7185SOL    HW121887   3.908   4.101   4.410
 7185SOL    HW221888   3.978   4.035   4.542
 7186SOL     OW21889   4.396   3.927   5.213
 7186SOL    HW121890   4.486   3.911   5.173
 7186SOL    HW221891   4.404   3.932   5.312
 7187SOL     OW21892   3.799   4.069   3.757
 7187SOL    HW121893   3.707   4.041   3.728
 7187SOL    HW221894   3.830   4.146   3.701
 7188SOL     OW21895   3.796   3.890   4.042
 7188SOL    HW121896   3.779   3.973   3.988
 7188SOL    HW221897   3.886   3.853   4.020
 7189SOL     OW21898   4.440   4.289   5.432
 7189SOL    HW121899   4.459   4.354   5.506
 7189SOL    HW221900   4.500   4.209   5.441
 7190SOL     OW21901   4.152   4.148   4.244
 7190SOL    HW121902   4.182   4.076   4.182
 7190SOL    HW221903   4.113   4.108   4.327
 7191SOL     OW21904   4.041   4.271   5.004
 7191SOL    HW121905   4.079   4.212   5.076
 7191SOL    HW221906   4.081   4.245   4.916
 7192SOL     OW21907   3.954   4.352   5.699
 7192SOL    HW121908   3.861   4.350   5.736
 7192SOL    HW221909   3.955   4.313   5.607
 7193SOL     OW21910   3.949   3.999   6.582
 7193SOL    HW121911   3.984   3.982   6.674
 7193SOL    HW221912   3.861   3.954   6.570
 7194SOL     OW21913   3.743   4.092   6.233
 7194SOL    HW121914   3.661   4.135   6.272
 7194SOL    HW221915   3.715   4.019   6.170
 7195SOL     OW21916   4.574   4.522   7.409
 7195SOL    HW121917   4.570   4.598   7.474
 7195SOL    HW221918   4.596   4.558   7.318
 7196SOL     OW21919   4.162   4.116   7.085
 7196SOL    HW121920   4.244   4.060   7.094
 7196SOL    HW221921   4.081   4.058   7.089
 7197SOL     OW21922   3.846   4.367   6.149
 7197SOL    HW121923   3.801   4.279   6.166
 7197SOL    HW221924   3.845   4.421   6.233
 7198SOL     OW21925   3.837   4.461   7.183
 7198SOL    HW121926   3.925   4.448   7.228
 7198SOL    HW221927   3.824   4.558   7.161
 7199SOL     OW21928   4.533   3.728   6.088
 7199SOL    HW121929   4.573   3.819   6.079
 7199SOL    HW221930   4.433   3.736   6.094
 7200SOL     OW21931   4.041   3.975   7.387
 7200SOL    HW121932   4.112   4.046   7.393
 7200SOL    HW221933   3.953   4.014   7.415
 7201SOL     OW21934   4.274   3.920   6.471
 7201SOL    HW121935   4.269   3.915   6.571
 7201SOL    HW221936   4.276   4.016   6.442
 7202SOL     OW21937   3.926   4.009   7.084
 7202SOL    HW121938   3.846   4.069   7.071
 7202SOL    HW221939   3.916   3.960   7.170
 7203SOL     OW21940   4.106   4.424   6.066
 7203SOL    HW121941   4.151   4.334   6.063
 7203SOL    HW221942   4.012   4.413   6.099
 7204SOL     OW21943   4.338   3.846   5.703
 7204SOL    HW121944   4.436   3.824   5.710
 7204SOL    HW221945   4.307   3.829   5.610
 7205SOL     OW21946   4.263   3.788   6.098
 7205SOL    HW121947   4.182   3.789   6.156
 7205SOL    HW221948   4.266   3.871   6.043
 7206SOL     OW21949   4.021   3.759   5.757
 7206SOL    HW121950   4.070   3.843   5.736
 7206SOL    HW221951   4.083   3.694   5.802
 7207SOL     OW21952   4.800   4.407   7.050
 7207SOL    HW121953   4.720   4.346   7.053
 7207SOL    HW221954   4.881   4.354   7.026
 7208SOL     OW21955   3.802   4.280   6.972
 7208SOL    HW121956   3.894   4.279   6.931
 7208SOL    HW221957   3.796   4.354   7.039
 7209SOL     OW21958   4.285   3.946   6.733
 7209SOL    HW121959   4.323   3.862   6.770
 7209SOL    HW221960   4.197   3.965   6.777
 7210SOL     OW21961   4.251   3.980   5.914
 7210SOL    HW121962   4.278   3.921   5.839
 7210SOL    HW221963   4.251   4.075   5.883
 7211SOL     OW21964   4.134   4.537   6.837
 7211SOL    HW121965   4.220   4.549   6.887
 7211SOL    HW221966   4.092   4.450   6.864
 7212SOL     OW21967   4.290   4.261   6.451
 7212SOL    HW121968   4.302   4.327   6.377
 7212SOL    HW221969   4.336   4.295   6.534
 7213SOL     OW21970   4.228   3.774   7.326
 7213SOL    HW121971   4.186   3.717   7.256
 7213SOL    HW221972   4.162   3.843   7.358
 7214SOL     OW21973   4.031   3.937   6.817
 7214SOL    HW121974   4.008   3.974   6.907
 7214SOL    HW221975   4.001   3.842   6.811
 7215SOL     OW21976   4.031   3.787   6.204
 7215SOL    HW121977   4.020   3.881   6.237
 7215SOL    HW221978   4.026   3.724   6.281
 7216SOL     OW21979   4.043   4.534   6.535
 7216SOL    HW121980   4.136   4.570   6.540
 7216SOL    HW221981   4.037   4.449   6.587
 7217SOL     OW21982   4.063   4.233   6.592
 7217SOL    HW121983   4.011   4.150   6.575
 7217SOL    HW221984   4.140   4.238   6.528
 7218SOL     OW21985   3.764   4.268   6.700
 7218SOL    HW121986   3.849   4.235   6.659
 7218SOL    HW221987   3.777   4.283   6.798
 7219SOL     OW21988   3.913   4.244   7.308
 7219SOL    HW121989   3.972   4.204   7.238
 7219SOL    HW221990   3.855   4.315   7.267
 7220SOL     OW21991   4.539   4.296   5.911
 7220SOL    HW121992   4.546   4.207   5.865
 7220SOL    HW221993   4.445   4.330   5.903
 7221SOL     OW21994   4.197   4.224   5.777
 7221SOL    HW121995   4.258   4.304   5.781
 7221SOL    HW221996   4.102   4.255   5.784
 7222SOL     OW21997   3.987   4.050   6.306
 7222SOL    HW121998   3.908   4.101   6.272
 7222SOL    HW221999   3.978   4.035   6.404
 7223SOL     OW22000   4.396   3.927   7.075
 7223SOL    HW122001   4.486   3.911   7.035
 7223SOL    HW222002   4.404   3.932   7.174
 7224SOL     OW22003   3.799   4.069   5.619
 7224SOL    HW122004   3.707   4.041   5.590
 7224SOL    HW222005   3.830   4.146   5.563
 7225SOL     OW22006   3.796   3.890   5.904
 7225SOL    HW122007   3.779   3.973   5.850
 7225SOL    HW222008   3.886   3.853   5.882
 7226SOL     OW22009   4.440   4.289   7.294
 7226SOL    HW122010   4.459   4.354   7.368
 7226SOL    HW222011   4.500   4.209   7.303
 7227SOL     OW22012   4.152   4.148   6.106
 7227SOL    HW122013   4.182   4.076   6.044
 7227SOL    HW222014   4.113   4.108   6.189
 7228SOL     OW22015   4.041   4.271   6.866
 7228SOL    HW122016   4.079   4.212   6.938
 7228SOL    HW222017   4.081   4.245   6.778
 7229SOL     OW22018   3.954   4.352   7.561
 7229SOL    HW122019   3.861   4.350   7.598
 7229SOL    HW222020   3.955   4.313   7.469
 7230SOL     OW22021   3.949   3.999   8.444
 7230SOL    HW122022   3.984   3.982   8.536
 7230SOL    HW222023   3.861   3.954   8.432
 7231SOL     OW22024   3.743   4.092   8.095
 7231SOL    HW122025   3.661   4.135   8.134
 7231SOL    HW222026   3.715   4.019   8.032
 7232SOL     OW22027   4.574   4.522   9.271
 7232SOL    HW122028   4.570   4.598   9.336
 7232SOL    HW222029   4.596   4.558   9.180
 7233SOL     OW22030   4.162   4.116   8.947
 7233SOL    HW122031   4.244   4.060   8.956
 7233SOL    HW222032   4.081   4.058   8.951
 7234SOL     OW22033   3.846   4.367   8.011
 7234SOL    HW122034   3.801   4.279   8.028
 7234SOL    HW222035   3.845   4.421   8.095
 7235SOL     OW22036   3.837   4.461   9.045
 7235SOL    HW122037   3.925   4.448   9.090
 7235SOL    HW222038   3.824   4.558   9.023
 7236SOL     OW22039   4.533   3.728   7.950
 7236SOL    HW122040   4.573   3.819   7.941
 7236SOL    HW222041   4.433   3.736   7.956
 7237SOL     OW22042   4.041   3.975   9.249
 7237SOL    HW122043   4.112   4.046   9.255
 7237SOL    HW222044   3.953   4.014   9.277
 7238SOL     OW22045   4.274   3.920   8.333
 7238SOL    HW122046   4.269   3.915   8.433
 7238SOL    HW222047   4.276   4.016   8.304
 7239SOL     OW22048   3.926   4.009   8.946
 7239SOL    HW122049   3.846   4.069   8.933
 7239SOL    HW222050   3.916   3.960   9.032
 7240SOL     OW22051   4.106   4.424   7.928
 7240SOL    HW122052   4.151   4.334   7.925
 7240SOL    HW222053   4.012   4.413   7.961
 7241SOL     OW22054   4.338   3.846   7.565
 7241SOL    HW122055   4.436   3.824   7.572
 7241SOL    HW222056   4.307   3.829   7.472
 7242SOL     OW22057   4.263   3.788   7.960
 7242SOL    HW122058   4.182   3.789   8.018
 7242SOL    HW222059   4.266   3.871   7.905
 7243SOL     OW22060   4.021   3.759   7.619
 7243SOL    HW122061   4.070   3.843   7.598
 7243SOL    HW222062   4.083   3.694   7.664
 7244SOL     OW22063   4.800   4.407   8.912
 7244SOL    HW122064   4.720   4.346   8.915
 7244SOL    HW222065   4.881   4.354   8.888
 7245SOL     OW22066   3.802   4.280   8.834
 7245SOL    HW122067   3.894   4.279   8.793
 7245SOL    HW222068   3.796   4.354   8.901
 7246SOL     OW22069   4.285   3.946   8.595
 7246SOL    HW122070   4.323   3.862   8.632
 7246SOL    HW222071   4.197   3.965   8.639
 7247SOL     OW22072   4.251   3.980   7.776
 7247SOL    HW122073   4.278   3.921   7.701
 7247SOL    HW222074   4.251   4.075   7.745
 7248SOL     OW22075   4.134   4.537   8.699
 7248SOL    HW122076   4.220   4.549   8.749
 7248SOL    HW222077   4.092   4.450   8.726
 7249SOL     OW22078   4.290   4.261   8.313
 7249SOL    HW122079   4.302   4.327   8.239
 7249SOL    HW222080   4.336   4.295   8.396
 7250SOL     OW22081   4.228   3.774   9.188
 7250SOL    HW122082   4.186   3.717   9.118
 7250SOL    HW222083   4.162   3.843   9.220
 7251SOL     OW22084   4.031   3.937   8.679
 7251SOL    HW122085   4.008   3.974   8.769
 7251SOL    HW222086   4.001   3.842   8.673
 7252SOL     OW22087   4.031   3.787   8.066
 7252SOL    HW122088   4.020   3.881   8.099
 7252SOL    HW222089   4.026   3.724   8.143
 7253SOL     OW22090   4.043   4.534   8.397
 7253SOL    HW122091   4.136   4.570   8.402
 7253SOL    HW222092   4.037   4.449   8.449
 7254SOL     OW22093   4.063   4.233   8.454
 7254SOL    HW122094   4.011   4.150   8.437
 7254SOL    HW222095   4.140   4.238   8.390
 7255SOL     OW22096   3.764   4.268   8.562
 7255SOL    HW122097   3.849   4.235   8.521
 7255SOL    HW222098   3.777   4.283   8.660
 7256SOL     OW22099   3.913   4.244   9.170
 7256SOL    HW122100   3.972   4.204   9.100
 7256SOL    HW222101   3.855   4.315   9.129
 7257SOL     OW22102   4.539   4.296   7.773
 7257SOL    HW122103   4.546   4.207   7.727
 7257SOL    HW222104   4.445   4.330   7.765
 7258SOL     OW22105   4.197   4.224   7.639
 7258SOL    HW122106   4.258   4.304   7.643
 7258SOL    HW222107   4.102   4.255   7.646
 7259SOL     OW22108   3.987   4.050   8.168
 7259SOL    HW122109   3.908   4.101   8.134
 7259SOL    HW222110   3.978   4.035   8.266
 7260SOL     OW22111   4.396   3.927   8.937
 7260SOL    HW122112   4.486   3.911   8.897
 7260SOL    HW222113   4.404   3.932   9.036
 7261SOL     OW22114   3.799   4.069   7.481
 7261SOL    HW122115   3.707   4.041   7.452
 7261SOL    HW222116   3.830   4.146   7.425
 7262SOL     OW22117   3.796   3.890   7.766
 7262SOL    HW122118   3.779   3.973   7.712
 7262SOL    HW222119   3.886   3.853   7.744
 7263SOL     OW22120   4.440   4.289   9.156
 7263SOL    HW122121   4.459   4.354   9.230
 7263SOL    HW222122   4.500   4.209   9.165
 7264SOL     OW22123   4.152   4.148   7.968
 7264SOL    HW122124   4.182   4.076   7.906
 7264SOL    HW222125   4.113   4.108   8.051
 7265SOL     OW22126   4.041   4.271   8.728
 7265SOL    HW122127   4.079   4.212   8.800
 7265SOL    HW222128   4.081   4.245   8.640
 7266SOL     OW22129   3.954   4.352   9.423
 7266SOL    HW122130   3.861   4.350   9.460
 7266SOL    HW222131   3.955   4.313   9.331
 7267SOL     OW22132   3.949   3.999  10.306
 7267SOL    HW122133   3.984   3.982  10.398
 7267SOL    HW222134   3.861   3.954  10.294
 7268SOL     OW22135   3.743   4.092   9.957
 7268SOL    HW122136   3.661   4.135   9.996
 7268SOL    HW222137   3.715   4.019   9.894
 7269SOL     OW22138   4.574   4.522  11.133
 7269SOL    HW122139   4.570   4.598  11.198
 7269SOL    HW222140   4.596   4.558  11.042
 7270SOL     OW22141   4.162   4.116  10.809
 7270SOL    HW122142   4.244   4.060  10.818
 7270SOL    HW222143   4.081   4.058  10.813
 7271SOL     OW22144   3.846   4.367   9.873
 7271SOL    HW122145   3.801   4.279   9.890
 7271SOL    HW222146   3.845   4.421   9.957
 7272SOL     OW22147   3.837   4.461  10.907
 7272SOL    HW122148   3.925   4.448  10.952
 7272SOL    HW222149   3.824   4.558  10.885
 7273SOL     OW22150   4.533   3.728   9.812
 7273SOL    HW122151   4.573   3.819   9.803
 7273SOL    HW222152   4.433   3.736   9.818
 7274SOL     OW22153   4.041   3.975  11.111
 7274SOL    HW122154   4.112   4.046  11.117
 7274SOL    HW222155   3.953   4.014  11.139
 7275SOL     OW22156   4.274   3.920  10.195
 7275SOL    HW122157   4.269   3.915  10.295
 7275SOL    HW222158   4.276   4.016  10.166
 7276SOL     OW22159   3.926   4.009  10.808
 7276SOL    HW122160   3.846   4.069  10.795
 7276SOL    HW222161   3.916   3.960  10.894
 7277SOL     OW22162   4.106   4.424   9.790
 7277SOL    HW122163   4.151   4.334   9.787
 7277SOL    HW222164   4.012   4.413   9.823
 7278SOL     OW22165   4.338   3.846   9.427
 7278SOL    HW122166   4.436   3.824   9.434
 7278SOL    HW222167   4.307   3.829   9.334
 7279SOL     OW22168   4.263   3.788   9.822
 7279SOL    HW122169   4.182   3.789   9.880
 7279SOL    HW222170   4.266   3.871   9.767
 7280SOL     OW22171   4.021   3.759   9.481
 7280SOL    HW122172   4.070   3.843   9.460
 7280SOL    HW222173   4.083   3.694   9.526
 7281SOL     OW22174   4.800   4.407  10.774
 7281SOL    HW122175   4.720   4.346  10.777
 7281SOL    HW222176   4.881   4.354  10.750
 7282SOL     OW22177   3.802   4.280  10.696
 7282SOL    HW122178   3.894   4.279  10.655
 7282SOL    HW222179   3.796   4.354  10.763
 7283SOL     OW22180   4.285   3.946  10.457
 7283SOL    HW122181   4.323   3.862  10.494
 7283SOL    HW222182   4.197   3.965  10.501
 7284SOL     OW22183   4.251   3.980   9.638
 7284SOL    HW122184   4.278   3.921   9.563
 7284SOL    HW222185   4.251   4.075   9.607
 7285SOL     OW22186   4.134   4.537  10.561
 7285SOL    HW122187   4.220   4.549  10.611
 7285SOL    HW222188   4.092   4.450  10.588
 7286SOL     OW22189   4.290   4.261  10.175
 7286SOL    HW122190   4.302   4.327  10.101
 7286SOL    HW222191   4.336   4.295  10.258
 7287SOL     OW22192   4.228   3.774  11.050
 7287SOL    HW122193   4.186   3.717  10.980
 7287SOL    HW222194   4.162   3.843  11.082
 7288SOL     OW22195   4.031   3.937  10.541
 7288SOL    HW122196   4.008   3.974  10.631
 7288SOL    HW222197   4.001   3.842  10.535
 7289SOL     OW22198   4.031   3.787   9.928
 7289SOL    HW122199   4.020   3.881   9.961
 7289SOL    HW222200   4.026   3.724  10.005
 7290SOL     OW22201   4.043   4.534  10.259
 7290SOL    HW122202   4.136   4.570  10.264
 7290SOL    HW222203   4.037   4.449  10.311
 7291SOL     OW22204   4.063   4.233  10.316
 7291SOL    HW122205   4.011   4.150  10.299
 7291SOL    HW222206   4.140   4.238  10.252
 7292SOL     OW22207   3.764   4.268  10.424
 7292SOL    HW122208   3.849   4.235  10.383
 7292SOL    HW222209   3.777   4.283  10.522
 7293SOL     OW22210   3.913   4.244  11.032
 7293SOL    HW122211   3.972   4.204  10.962
 7293SOL    HW222212   3.855   4.315  10.991
 7294SOL     OW22213   4.539   4.296   9.635
 7294SOL    HW122214   4.546   4.207   9.589
 7294SOL    HW222215   4.445   4.330   9.627
 7295SOL     OW22216   4.197   4.224   9.501
 7295SOL    HW122217   4.258   4.304   9.505
 7295SOL    HW222218   4.102   4.255   9.508
 7296SOL     OW22219   3.987   4.050  10.030
 7296SOL    HW122220   3.908   4.101   9.996
 7296SOL    HW222221   3.978   4.035  10.128
 7297SOL     OW22222   4.396   3.927  10.799
 7297SOL    HW122223   4.486   3.911  10.759
 7297SOL    HW222224   4.404   3.932  10.898
 7298SOL     OW22225   3.799   4.069   9.343
 7298SOL    HW122226   3.707   4.041   9.314
 7298SOL    HW222227   3.830   4.146   9.287
 7299SOL     OW22228   3.796   3.890   9.628
 7299SOL    HW122229   3.779   3.973   9.574
 7299SOL    HW222230   3.886   3.853   9.606
 7300SOL     OW22231   4.440   4.289  11.018
 7300SOL    HW122232   4.459   4.354  11.092
 7300SOL    HW222233   4.500   4.209  11.027
 7301SOL     OW22234   4.152   4.148   9.830
 7301SOL    HW122235   4.182   4.076   9.768
 7301SOL    HW222236   4.113   4.108   9.913
 7302SOL     OW22237   4.041   4.271  10.590
 7302SOL    HW122238   4.079   4.212  10.662
 7302SOL    HW222239   4.081   4.245  10.502
   4.50000   4.50000  11.22000
