Built with Packmol
22209
    1LIG      O    1   1.977   1.970   0.066
    1LIG      C    2   2.042   2.020   0.217
    1LIG     C1    3   1.971   1.967   0.377
    1LIG     O1    4   2.035   2.017   0.530
    1LIG     C2    5   1.970   1.968   0.681
    1LIG     C3    6   2.041   2.023   0.839
    1LIG     O2    7   1.977   1.975   0.990
    1LIG     C4    8   2.040   2.025   1.142
    1LIG     C5    9   1.968   1.970   1.300
    1LIG     O3   10   2.031   2.020   1.452
    1LIG     C6   11   1.966   1.971   1.603
    1LIG     C7   12   2.038   2.027   1.761
    1LIG     O4   13   1.974   1.979   1.913
    1LIG     C8   14   2.038   2.029   2.065
    1LIG     C9   15   1.965   1.973   2.221
    1LIG     O5   16   2.029   2.023   2.373
    1LIG    C10   17   1.965   1.974   2.525
    1LIG    C11   18   2.037   2.030   2.682
    1LIG     O6   19   1.973   1.981   2.833
    1LIG    C12   20   2.036   2.030   2.986
    1LIG    C13   21   1.963   1.975   3.142
    1LIG     O7   22   2.027   2.024   3.294
    1LIG    C14   23   1.963   1.975   3.446
    1LIG    C15   24   2.035   2.030   3.604
    1LIG     O8   25   1.971   1.981   3.757
    1LIG    C16   26   2.035   2.031   3.908
    1LIG    C17   27   1.964   1.976   4.066
    1LIG     O9   28   2.027   2.025   4.219
    1LIG    C18   29   1.962   1.976   4.369
    1LIG    C19   30   2.034   2.031   4.526
    1LIG    O10   31   1.971   1.982   4.679
    1LIG    C20   32   2.035   2.032   4.830
    1LIG    C21   33   1.962   1.976   4.986
    1LIG    O11   34   2.026   2.025   5.138
    1LIG    C22   35   1.962   1.976   5.290
    1LIG    C23   36   2.034   2.032   5.447
    1LIG    O12   37   1.970   1.983   5.598
    1LIG    C24   38   2.034   2.032   5.751
    1LIG    C25   39   1.962   1.977   5.909
    1LIG    O13   40   2.025   2.026   6.062
    1LIG    C26   41   1.961   1.977   6.213
    1LIG    C27   42   2.033   2.032   6.369
    1LIG    O14   43   1.969   1.983   6.521
    1LIG    C28   44   2.034   2.032   6.674
    1LIG    C29   45   1.962   1.976   6.831
    1LIG    O15   46   2.026   2.025   6.984
    1LIG    C30   47   1.962   1.976   7.134
    1LIG    C31   48   2.034   2.031   7.291
    1LIG    O16   49   1.970   1.982   7.442
    1LIG    C32   50   2.034   2.031   7.595
    1LIG    C33   51   1.962   1.976   7.752
    1LIG    O17   52   2.026   2.025   7.904
    1LIG    C34   53   1.962   1.975   8.056
    1LIG    C35   54   2.034   2.030   8.213
    1LIG    O18   55   1.970   1.981   8.365
    1LIG    C36   56   2.034   2.030   8.517
    1LIG    C37   57   1.963   1.975   8.674
    1LIG    O19   58   2.027   2.024   8.827
    1LIG    C38   59   1.963   1.974   8.978
    1LIG    C39   60   2.034   2.029   9.136
    1LIG    O20   61   1.971   1.980   9.288
    1LIG    C40   62   2.035   2.029   9.439
    1LIG    C41   63   1.964   1.974   9.597
    1LIG    O21   64   2.027   2.023   9.749
    1LIG    C42   65   1.963   1.973   9.900
    1LIG    C43   66   2.035   2.028  10.057
    1LIG    O22   67   1.972   1.979  10.209
    1LIG    C44   68   2.036   2.028  10.361
    1LIG    C45   69   1.964   1.972  10.518
    1LIG    O23   70   2.028   2.021  10.670
    1LIG    C46   71   1.964   1.972  10.822
    1LIG    C47   72   2.037   2.028  10.979
    1LIG    O24   73   1.973   1.978  11.130
    1LIG    C48   74   2.036   2.027  11.283
    1LIG    C49   75   1.964   1.971  11.439
    1LIG    O25   76   2.028   2.020  11.591
    1LIG    C50   77   1.965   1.971  11.743
    1LIG    C51   78   2.037   2.027  11.900
    1LIG    O26   79   1.974   1.977  12.052
    1LIG    C52   80   2.037   2.026  12.204
    1LIG    C53   81   1.965   1.969  12.360
    1LIG    O27   82   2.029   2.019  12.512
    1LIG    C54   83   1.966   1.969  12.664
    1LIG    C55   84   2.038   2.025  12.823
    1LIG    O28   85   1.974   1.975  12.975
    1LIG    C56   86   2.038   2.024  13.127
    1LIG    C57   87   1.967   1.968  13.285
    1LIG    O29   88   2.031   2.017  13.438
    1LIG    C58   89   1.967   1.967  13.589
    1LIG    C59   90   2.038   2.022  13.747
    1LIG      H   91   2.039   2.130   0.214
    1LIG     H1   92   2.147   1.989   0.215
    1LIG     H2   93   1.974   1.858   0.377
    1LIG     H3   94   1.866   1.998   0.376
    1LIG     H4   95   1.973   1.858   0.683
    1LIG     H5   96   1.865   1.999   0.682
    1LIG     H6   97   2.039   2.133   0.836
    1LIG     H7   98   2.147   1.992   0.838
    1LIG     H8   99   2.038   2.134   1.143
    1LIG     H9  100   2.145   1.994   1.145
    1LIG    H10  101   1.971   1.861   1.299
    1LIG    H11  102   1.863   2.001   1.297
    1LIG    H12  103   1.969   1.862   1.606
    1LIG    H13  104   1.861   2.002   1.604
    1LIG    H14  105   2.035   2.137   1.758
    1LIG    H15  106   2.143   1.996   1.759
    1LIG    H16  107   2.035   2.138   2.066
    1LIG    H17  108   2.143   1.998   2.067
    1LIG    H18  109   1.968   1.864   2.220
    1LIG    H19  110   1.860   2.004   2.219
    1LIG    H20  111   1.967   1.864   2.527
    1LIG    H21  112   1.859   2.005   2.527
    1LIG    H22  113   2.034   2.139   2.680
    1LIG    H23  114   2.142   1.999   2.680
    1LIG    H24  115   2.033   2.139   2.987
    1LIG    H25  116   2.141   1.999   2.988
    1LIG    H26  117   1.966   1.865   3.141
    1LIG    H27  118   1.858   2.006   3.140
    1LIG    H28  119   1.966   1.865   3.448
    1LIG    H29  120   1.858   2.006   3.448
    1LIG    H30  121   2.032   2.140   3.602
    1LIG    H31  122   2.140   1.999   3.603
    1LIG    H32  123   2.032   2.141   3.909
    1LIG    H33  124   2.140   2.000   3.910
    1LIG    H34  125   1.966   1.867   4.064
    1LIG    H35  126   1.858   2.007   4.064
    1LIG    H36  127   1.965   1.866   4.371
    1LIG    H37  128   1.857   2.007   4.371
    1LIG    H38  129   2.031   2.141   4.524
    1LIG    H39  130   2.139   2.000   4.524
    1LIG    H40  131   2.032   2.141   4.832
    1LIG    H41  132   2.140   2.001   4.832
    1LIG    H42  133   1.965   1.867   4.985
    1LIG    H43  134   1.857   2.007   4.984
    1LIG    H44  135   1.965   1.867   5.292
    1LIG    H45  136   1.857   2.007   5.292
    1LIG    H46  137   2.031   2.142   5.445
    1LIG    H47  138   2.140   2.001   5.445
    1LIG    H48  139   2.031   2.141   5.753
    1LIG    H49  140   2.139   2.001   5.753
    1LIG    H50  141   1.965   1.867   5.908
    1LIG    H51  142   1.857   2.008   5.907
    1LIG    H52  143   1.964   1.867   6.215
    1LIG    H53  144   1.856   2.008   6.215
    1LIG    H54  145   2.030   2.142   6.368
    1LIG    H55  146   2.138   2.001   6.368
    1LIG    H56  147   2.031   2.141   6.675
    1LIG    H57  148   2.139   2.001   6.675
    1LIG    H58  149   1.965   1.867   6.829
    1LIG    H59  150   1.857   2.007   6.830
    1LIG    H60  151   1.965   1.866   7.136
    1LIG    H61  152   1.857   2.007   7.136
    1LIG    H62  153   2.031   2.141   7.289
    1LIG    H63  154   2.139   2.000   7.289
    1LIG    H64  155   2.031   2.140   7.597
    1LIG    H65  156   2.139   2.000   7.596
    1LIG    H66  157   1.965   1.866   7.750
    1LIG    H67  158   1.857   2.007   7.751
    1LIG    H68  159   1.965   1.866   8.057
    1LIG    H69  160   1.857   2.006   8.057
    1LIG    H70  161   2.031   2.140   8.212
    1LIG    H71  162   2.139   2.000   8.212
    1LIG    H72  163   2.031   2.140   8.518
    1LIG    H73  164   2.140   2.000   8.518
    1LIG    H74  165   1.966   1.866   8.673
    1LIG    H75  166   1.858   2.006   8.673
    1LIG    H76  167   1.966   1.865   8.979
    1LIG    H77  168   1.858   2.005   8.979
    1LIG    H78  169   2.031   2.138   9.134
    1LIG    H79  170   2.140   1.998   9.134
    1LIG    H80  171   2.032   2.139   9.441
    1LIG    H81  172   2.140   1.999   9.441
    1LIG    H82  173   1.967   1.864   9.595
    1LIG    H83  174   1.858   2.004   9.596
    1LIG    H84  175   1.967   1.863   9.902
    1LIG    H85  176   1.858   2.003   9.902
    1LIG    H86  177   2.032   2.138  10.055
    1LIG    H87  178   2.141   1.998  10.055
    1LIG    H88  179   2.033   2.138  10.363
    1LIG    H89  180   2.141   1.998  10.363
    1LIG    H90  181   1.967   1.863  10.516
    1LIG    H91  182   1.859   2.003  10.516
    1LIG    H92  183   1.968   1.862  10.824
    1LIG    H93  184   1.859   2.002  10.824
    1LIG    H94  185   2.033   2.137  10.977
    1LIG    H95  186   2.142   1.997  10.977
    1LIG    H96  187   2.033   2.136  11.285
    1LIG    H97  188   2.141   1.996  11.285
    1LIG    H98  189   1.968   1.861  11.437
    1LIG    H99  190   1.859   2.001  11.438
    1LIG   H100  191   1.968   1.861  11.745
    1LIG   H101  192   1.860   2.001  11.746
    1LIG   H102  193   2.034   2.136  11.898
    1LIG   H103  194   2.142   1.996  11.898
    1LIG   H104  195   2.034   2.135  12.206
    1LIG   H105  196   2.142   1.995  12.206
    1LIG   H106  197   1.969   1.860  12.359
    1LIG   H107  198   1.860   2.000  12.359
    1LIG   H108  199   1.970   1.860  12.666
    1LIG   H109  200   1.861   2.000  12.667
    1LIG   H110  201   2.034   2.134  12.821
    1LIG   H111  202   2.143   1.994  12.820
    1LIG   H112  203   2.035   2.134  13.129
    1LIG   H113  204   2.144   1.994  13.128
    1LIG   H114  205   1.971   1.859  13.283
    1LIG   H115  206   1.862   1.999  13.284
    1LIG   H116  207   1.971   1.857  13.589
    1LIG   H117  208   1.862   1.999  13.590
    1LIG   H118  209   2.143   1.992  13.747
    1LIG   H119  210   1.991   1.985  13.866
    1MOL     C1  211   2.553   1.997   6.938
    1MOL     H1  212   2.642   2.057   6.959
    1MOL     O1  213   2.527   1.924   7.056
    1MOL     C2  214   2.406   1.845   7.050
    1MOL     H2  215   2.321   1.909   7.025
    1MOL     C3  216   2.382   1.789   7.191
    1MOL     H3  217   2.478   1.786   7.244
    1MOL     H4  218   2.342   1.687   7.186
    1MOL     O2  219   2.293   1.871   7.266
    1MOL     H5  220   2.206   1.827   7.265
    1MOL     C4  221   2.575   1.901   6.820
    1MOL     H6  222   2.664   1.841   6.841
    1MOL     O3  223   2.600   1.969   6.698
    1MOL     H7  224   2.546   2.051   6.697
    1MOL     C5  225   2.454   1.809   6.807
    1MOL     H8  226   2.367   1.870   6.778
    1MOL     O4  227   2.476   1.708   6.708
    1MOL     H9  228   2.511   1.754   6.630
    1MOL     C6  229   2.420   1.740   6.938
    1MOL    H10  230   2.497   1.666   6.963
    1MOL     O5  231   2.294   1.675   6.916
    1MOL     C7  232   2.274   1.541   6.956
    1MOL    H11  233   2.369   1.493   6.981
    1MOL     O6  234   2.195   1.533   7.073
    1MOL     C8  235   2.066   1.597   7.062
    1MOL    H12  236   2.080   1.703   7.034
    1MOL     C9  237   2.003   1.593   7.199
    1MOL    H13  238   2.019   1.494   7.243
    1MOL    H14  239   1.895   1.611   7.191
    1MOL     O7  240   2.065   1.694   7.280
    1MOL    H15  241   2.042   1.679   7.373
    1MOL    C10  242   2.204   1.471   6.839
    1MOL    H16  243   2.193   1.365   6.865
    1MOL     O8  244   2.277   1.476   6.719
    1MOL    H17  245   2.323   1.563   6.713
    1MOL    C11  246   2.064   1.531   6.821
    1MOL    H18  247   2.075   1.635   6.790
    1MOL     O9  248   1.991   1.458   6.722
    1MOL    H19  249   2.052   1.448   6.647
    1MOL    C12  250   1.983   1.529   6.951
    1MOL    H20  251   1.960   1.426   6.979
    1MOL    O10  252   1.864   1.603   6.927
    1MOL    C13  253   1.736   1.543   6.946
    1MOL    H21  254   1.748   1.436   6.967
    1MOL    O11  255   1.670   1.597   7.058
    1MOL    C14  256   1.644   1.738   7.053
    1MOL    H22  257   1.740   1.792   7.054
    1MOL    C15  258   1.567   1.775   7.179
    1MOL    H23  259   1.563   1.885   7.185
    1MOL    H24  260   1.623   1.737   7.266
    1MOL    O12  261   1.437   1.719   7.172
    1MOL    H25  262   1.383   1.761   7.240
    1MOL    C16  263   1.654   1.567   6.819
    1MOL    H26  264   1.556   1.520   6.834
    1MOL    O13  265   1.709   1.509   6.703
    1MOL    H27  266   1.807   1.512   6.707
    1MOL    C17  267   1.634   1.717   6.801
    1MOL    H28  268   1.732   1.764   6.787
    1MOL    O14  269   1.551   1.744   6.688
    1MOL    H29  270   1.584   1.687   6.617
    1MOL    C18  271   1.568   1.778   6.924
    1MOL    H30  272   1.464   1.744   6.931
    1MOL    O15  273   1.574   1.920   6.909
    1MOL    C19  274   1.458   1.999   6.924
    1MOL    H31  275   1.369   1.936   6.938
    1MOL    O16  276   1.466   2.080   7.040
    1MOL    C20  277   1.581   2.167   7.044
    1MOL    H32  278   1.672   2.106   7.046
    1MOL    C21  279   1.574   2.246   7.174
    1MOL    H33  280   1.671   2.295   7.189
    1MOL    H34  281   1.557   2.175   7.256
    1MOL    O17  282   1.468   2.341   7.166
    1MOL    H35  283   1.476   2.400   7.242
    1MOL    C22  284   1.446   2.087   6.799
    1MOL    H36  285   1.357   2.149   6.809
    1MOL    O18  286   1.431   2.013   6.679
    1MOL    H37  287   1.488   1.934   6.682
    1MOL    C23  288   1.569   2.178   6.791
    1MOL    H38  289   1.658   2.115   6.777
    1MOL    O19  290   1.558   2.270   6.683
    1MOL    H39  291   1.529   2.218   6.607
    1MOL    C24  292   1.588   2.258   6.920
    1MOL    H40  293   1.511   2.335   6.926
    1MOL    O20  294   1.718   2.317   6.910
    1MOL    C25  295   1.740   2.450   6.951
    1MOL    H41  296   1.645   2.498   6.978
    1MOL    O21  297   1.821   2.456   7.066
    1MOL    C26  298   1.950   2.391   7.051
    1MOL    H42  299   1.932   2.287   7.022
    1MOL    C27  300   2.021   2.393   7.187
    1MOL    H43  301   2.078   2.301   7.200
    1MOL    H44  302   1.943   2.394   7.264
    1MOL    O22  303   2.104   2.506   7.208
    1MOL    H45  304   2.195   2.476   7.190
    1MOL    C28  305   1.807   2.522   6.833
    1MOL    H46  306   1.819   2.628   6.858
    1MOL    O23  307   1.730   2.518   6.714
    1MOL    H47  308   1.692   2.428   6.704
    1MOL    C29  309   1.946   2.461   6.810
    1MOL    H48  310   1.934   2.357   6.777
    1MOL    O24  311   2.018   2.535   6.711
    1MOL    H49  312   1.955   2.548   6.637
    1MOL    C30  313   2.027   2.462   6.938
    1MOL    H50  314   2.049   2.565   6.969
    1MOL    O25  315   2.149   2.393   6.909
    1MOL    C31  316   2.272   2.452   6.943
    1MOL    H51  317   2.259   2.558   6.968
    1MOL    O26  318   2.329   2.392   7.059
    1MOL    C32  319   2.350   2.249   7.049
    1MOL    H52  320   2.254   2.200   7.028
    1MOL    C33  321   2.400   2.201   7.186
    1MOL    H53  322   2.455   2.284   7.232
    1MOL    H54  323   2.470   2.118   7.172
    1MOL    O27  324   2.293   2.164   7.271
    1MOL    H55  325   2.288   2.066   7.271
    1MOL    C34  326   2.366   2.434   6.823
    1MOL    H56  327   2.461   2.485   6.846
    1MOL    O28  328   2.316   2.493   6.705
    1MOL    H57  329   2.218   2.485   6.704
    1MOL    C35  330   2.394   2.285   6.803
    1MOL    H58  331   2.299   2.237   6.776
    1MOL    O29  332   2.490   2.264   6.700
    1MOL    H59  333   2.462   2.320   6.626
    1MOL    C36  334   2.444   2.219   6.931
    1MOL    H60  335   2.547   2.253   6.952
    1MOL    O30  336   2.445   2.079   6.902
    2SOL     OW  337   0.230   0.628   0.113
    2SOL    HW1  338   0.137   0.626   0.150
    2SOL    HW2  339   0.231   0.589   0.021
    3SOL     OW  340   0.225   0.275   0.996
    3SOL    HW1  341   0.260   0.258   1.088
    3SOL    HW2  342   0.137   0.230   0.984
    4SOL     OW  343   0.019   0.368   0.647
    4SOL    HW1  344  -0.063   0.411   0.686
    4SOL    HW2  345  -0.009   0.295   0.584
    5SOL     OW  346   0.569   1.275   1.165
    5SOL    HW1  347   0.476   1.268   1.128
    5SOL    HW2  348   0.580   1.364   1.209
    6SOL     OW  349   1.555   1.511   0.703
    6SOL    HW1  350   1.498   1.495   0.784
    6SOL    HW2  351   1.496   1.521   0.623
    7SOL     OW  352   1.135   0.703   0.717
    7SOL    HW1  353   1.192   0.781   0.692
    7SOL    HW2  354   1.075   0.729   0.793
    8SOL     OW  355   1.755   0.607   0.231
    8SOL    HW1  356   1.743   0.594   0.132
    8SOL    HW2  357   1.725   0.526   0.280
    9SOL     OW  358   0.768   1.144   1.023
    9SOL    HW1  359   0.690   1.161   1.083
    9SOL    HW2  360   0.802   1.231   0.987
   10SOL     OW  361   0.850   0.798   1.823
   10SOL    HW1  362   0.846   0.874   1.888
   10SOL    HW2  363   0.872   0.834   1.732
   11SOL     OW  364   0.685   1.012   0.665
   11SOL    HW1  365   0.754   0.996   0.735
   11SOL    HW2  366   0.612   1.069   0.703
   12SOL     OW  367   0.686   1.161   1.803
   12SOL    HW1  368   0.746   1.240   1.817
   12SOL    HW2  369   0.600   1.192   1.762
   13SOL     OW  370   0.335   1.435   1.061
   13SOL    HW1  371   0.257   1.404   1.008
   13SOL    HW2  372   0.393   1.493   1.004
   14SOL     OW  373   1.460   1.505   1.339
   14SOL    HW1  374   1.484   1.599   1.365
   14SOL    HW2  375   1.444   1.451   1.421
   15SOL     OW  376   0.438   0.392   1.499
   15SOL    HW1  377   0.520   0.336   1.508
   15SOL    HW2  378   0.357   0.334   1.503
   16SOL     OW  379   1.603   0.447   0.737
   16SOL    HW1  380   1.529   0.493   0.687
   16SOL    HW2  381   1.654   0.515   0.790
   17SOL     OW  382   0.231   1.713   0.483
   17SOL    HW1  383   0.265   1.790   0.537
   17SOL    HW2  384   0.275   1.713   0.393
   18SOL     OW  385   1.127   1.341   1.690
   18SOL    HW1  386   1.174   1.341   1.778
   18SOL    HW2  387   1.079   1.254   1.679
   19SOL     OW  388   0.230   1.434   0.538
   19SOL    HW1  389   0.204   1.530   0.538
   19SOL    HW2  390   0.159   1.380   0.583
   20SOL     OW  391   0.240   1.091   0.886
   20SOL    HW1  392   0.254   1.007   0.938
   20SOL    HW2  393   0.185   1.155   0.941
   21SOL     OW  394   0.620   1.786   1.439
   21SOL    HW1  395   0.528   1.769   1.474
   21SOL    HW2  396   0.648   1.878   1.465
   22SOL     OW  397   0.606   0.964   0.123
   22SOL    HW1  398   0.613   1.048   0.069
   22SOL    HW2  399   0.652   0.977   0.211
   23SOL     OW  400   1.594   0.114   1.480
   23SOL    HW1  401   1.576   0.181   1.408
   23SOL    HW2  402   1.591   0.160   1.569
   24SOL     OW  403   0.122   0.643   0.563
   24SOL    HW1  404   0.077   0.555   0.580
   24SOL    HW2  405   0.121   0.697   0.647
   25SOL     OW  406   0.027   1.596   0.117
   25SOL    HW1  407   0.008   1.500   0.138
   25SOL    HW2  408  -0.006   1.654   0.192
   26SOL     OW  409   1.689   0.922   0.612
   26SOL    HW1  410   1.784   0.893   0.620
   26SOL    HW2  411   1.681   0.987   0.537
   27SOL     OW  412   1.641   1.108   0.432
   27SOL    HW1  413   1.727   1.110   0.380
   27SOL    HW2  414   1.655   1.155   0.520
   28SOL     OW  415   0.113   0.737   1.597
   28SOL    HW1  416   0.201   0.724   1.642
   28SOL    HW2  417   0.100   0.834   1.575
   29SOL     OW  418   0.613   1.365   0.726
   29SOL    HW1  419   0.564   1.278   0.735
   29SOL    HW2  420   0.590   1.408   0.639
   30SOL     OW  421   1.293   1.228   1.423
   30SOL    HW1  422   1.330   1.155   1.365
   30SOL    HW2  423   1.345   1.233   1.508
   31SOL     OW  424   0.809   0.004   0.502
   31SOL    HW1  425   0.849   0.095   0.493
   31SOL    HW2  426   0.709   0.012   0.508
   32SOL     OW  427   0.197   0.976   1.264
   32SOL    HW1  428   0.286   0.931   1.250
   32SOL    HW2  429   0.124   0.911   1.245
   33SOL     OW  430   1.525   0.999   0.190
   33SOL    HW1  431   1.462   0.923   0.203
   33SOL    HW2  432   1.573   1.017   0.276
   34SOL     OW  433   1.187   1.792   1.616
   34SOL    HW1  434   1.211   1.852   1.540
   34SOL    HW2  435   1.194   1.697   1.586
   35SOL     OW  436   0.317   0.251   1.801
   35SOL    HW1  437   0.388   0.322   1.807
   35SOL    HW2  438   0.229   0.290   1.829
   36SOL     OW  439   1.466   1.417   0.953
   36SOL    HW1  440   1.407   1.423   1.033
   36SOL    HW2  441   1.451   1.329   0.907
   37SOL     OW  442   1.667   1.714   0.572
   37SOL    HW1  443   1.626   1.691   0.484
   37SOL    HW2  444   1.649   1.640   0.637
   38SOL     OW  445   0.598   0.729   0.270
   38SOL    HW1  446   0.622   0.798   0.202
   38SOL    HW2  447   0.520   0.762   0.324
   39SOL     OW  448   1.281   0.345   0.944
   39SOL    HW1  449   1.195   0.295   0.931
   39SOL    HW2  450   1.343   0.291   1.000
   40SOL     OW  451   1.576   1.662   0.307
   40SOL    HW1  452   1.665   1.708   0.310
   40SOL    HW2  453   1.555   1.638   0.212
   41SOL     OW  454   0.807   0.605   1.465
   41SOL    HW1  455   0.760   0.602   1.554
   41SOL    HW2  456   0.756   0.550   1.399
   42SOL     OW  457   1.394   0.469   1.674
   42SOL    HW1  458   1.374   0.512   1.762
   42SOL    HW2  459   1.472   0.407   1.683
   43SOL     OW  460   0.973   0.890   1.572
   43SOL    HW1  461   1.019   0.806   1.543
   43SOL    HW2  462   0.917   0.924   1.497
   44SOL     OW  463   0.991   0.410   1.242
   44SOL    HW1  464   0.914   0.444   1.296
   44SOL    HW2  465   0.957   0.359   1.163
   45SOL     OW  466   1.041   0.701   0.429
   45SOL    HW1  467   1.067   0.697   0.525
   45SOL    HW2  468   0.956   0.650   0.415
   46SOL     OW  469   0.076   0.811   0.789
   46SOL    HW1  470   0.175   0.799   0.798
   46SOL    HW2  471   0.052   0.906   0.810
   47SOL     OW  472   0.130   1.821   1.571
   47SOL    HW1  473   0.120   1.806   1.670
   47SOL    HW2  474   0.044   1.857   1.535
   48SOL     OW  475   0.865   0.348   0.195
   48SOL    HW1  476   0.924   0.411   0.146
   48SOL    HW2  477   0.884   0.254   0.166
   49SOL     OW  478   1.719   0.585   1.831
   49SOL    HW1  479   1.693   0.674   1.795
   49SOL    HW2  480   1.717   0.517   1.758
   50SOL     OW  481   1.362   1.144   0.545
   50SOL    HW1  482   1.445   1.115   0.497
   50SOL    HW2  483   1.313   1.211   0.489
   51SOL     OW  484   0.550   0.196   0.885
   51SOL    HW1  485   0.545   0.191   0.985
   51SOL    HW2  486   0.552   0.292   0.856
   52SOL     OW  487   1.008   1.456   0.477
   52SOL    HW1  488   0.962   1.528   0.425
   52SOL    HW2  489   1.004   1.476   0.575
   53SOL     OW  490   0.351   1.801   0.853
   53SOL    HW1  491   0.401   1.715   0.859
   53SOL    HW2  492   0.416   1.878   0.850
   54SOL     OW  493   1.795   1.066   0.873
   54SOL    HW1  494   1.733   1.051   0.797
   54SOL    HW2  495   1.743   1.077   0.958
   55SOL     OW  496   1.227   1.550   1.506
   55SOL    HW1  497   1.233   1.473   1.570
   55SOL    HW2  498   1.175   1.524   1.426
   56SOL     OW  499   0.321   0.943   0.242
   56SOL    HW1  500   0.403   0.982   0.200
   56SOL    HW2  501   0.294   0.861   0.193
   57SOL     OW  502   1.458   0.735   0.728
   57SOL    HW1  503   1.453   0.670   0.803
   57SOL    HW2  504   1.538   0.794   0.741
   58SOL     OW  505   0.461   1.266   1.727
   58SOL    HW1  506   0.411   1.267   1.641
   58SOL    HW2  507   0.398   1.248   1.803
   59SOL     OW  508   1.111   1.776   0.237
   59SOL    HW1  509   1.051   1.714   0.287
   59SOL    HW2  510   1.142   1.732   0.152
   60SOL     OW  511   0.202   0.285   1.498
   60SOL    HW1  512   0.122   0.345   1.485
   60SOL    HW2  513   0.192   0.236   1.584
   61SOL     OW  514   1.632   1.377   0.081
   61SOL    HW1  515   1.600   1.471   0.071
   61SOL    HW2  516   1.556   1.314   0.069
   62SOL     OW  517   0.464   1.743   0.323
   62SOL    HW1  518   0.497   1.782   0.409
   62SOL    HW2  519   0.540   1.736   0.258
   63SOL     OW  520   1.400   0.107   0.426
   63SOL    HW1  521   1.376   0.070   0.336
   63SOL    HW2  522   1.499   0.123   0.430
   64SOL     OW  523   0.249   1.785   1.241
   64SOL    HW1  524   0.306   1.720   1.291
   64SOL    HW2  525   0.233   1.752   1.148
   65SOL     OW  526   0.940   1.698   0.904
   65SOL    HW1  527   1.020   1.641   0.925
   65SOL    HW2  528   0.891   1.658   0.827
   66SOL     OW  529   0.382   0.700   0.480
   66SOL    HW1  530   0.427   0.610   0.477
   66SOL    HW2  531   0.288   0.689   0.513
   67SOL     OW  532   1.547   0.222   1.729
   67SOL    HW1  533   1.542   0.259   1.821
   67SOL    HW2  534   1.475   0.153   1.717
   68SOL     OW  535   0.614   0.122   0.117
   68SOL    HW1  536   0.712   0.100   0.124
   68SOL    HW2  537   0.583   0.105   0.024
   69SOL     OW  538   0.781   0.264   1.749
   69SOL    HW1  539   0.848   0.203   1.792
   69SOL    HW2  540   0.708   0.283   1.814
   70SOL     OW  541   0.888   1.514   1.195
   70SOL    HW1  542   0.865   1.489   1.101
   70SOL    HW2  543   0.949   1.445   1.234
   71SOL     OW  544   1.351   0.590   1.433
   71SOL    HW1  545   1.379   0.547   1.518
   71SOL    HW2  546   1.376   0.686   1.434
   72SOL     OW  547   0.803   1.402   0.924
   72SOL    HW1  548   0.893   1.416   0.882
   72SOL    HW2  549   0.732   1.404   0.853
   73SOL     OW  550   0.922   0.503   0.899
   73SOL    HW1  551   0.897   0.494   0.803
   73SOL    HW2  552   0.970   0.421   0.930
   74SOL     OW  553   0.539   0.064   0.512
   74SOL    HW1  554   0.458   0.065   0.570
   74SOL    HW2  555   0.542   0.147   0.457
   75SOL     OW  556   1.434   1.188   0.041
   75SOL    HW1  557   1.466   1.112   0.098
   75SOL    HW2  558   1.342   1.215   0.071
   76SOL     OW  559   0.297   0.035   0.171
   76SOL    HW1  560   0.346   0.119   0.150
   76SOL    HW2  561   0.359  -0.030   0.216
   77SOL     OW  562   0.935   0.236   0.480
   77SOL    HW1  563   0.887   0.277   0.402
   77SOL    HW2  564   1.034   0.234   0.461
   78SOL     OW  565   1.076   0.683   1.464
   78SOL    HW1  566   0.996   0.622   1.467
   78SOL    HW2  567   1.157   0.630   1.440
   79SOL     OW  568   1.227   1.570   0.793
   79SOL    HW1  569   1.248   1.644   0.728
   79SOL    HW2  570   1.295   1.570   0.866
   80SOL     OW  571   0.459   1.152   0.741
   80SOL    HW1  572   0.388   1.125   0.806
   80SOL    HW2  573   0.433   1.124   0.648
   81SOL     OW  574   1.271   1.797   0.591
   81SOL    HW1  575   1.315   1.861   0.527
   81SOL    HW2  576   1.221   1.849   0.661
   82SOL     OW  577   1.032   0.549   0.016
   82SOL    HW1  578   0.991   0.631  -0.023
   82SOL    HW2  579   1.096   0.575   0.089
   83SOL     OW  580   0.078   0.556   1.386
   83SOL    HW1  581   0.170   0.555   1.345
   83SOL    HW2  582   0.072   0.630   1.453
   84SOL     OW  583   0.561   0.222   1.147
   84SOL    HW1  584   0.599   0.138   1.184
   84SOL    HW2  585   0.473   0.241   1.191
   85SOL     OW  586   0.866   0.454   0.642
   85SOL    HW1  587   0.834   0.526   0.580
   85SOL    HW2  588   0.890   0.373   0.589
   86SOL     OW  589   1.017   0.039   0.753
   86SOL    HW1  590   0.945   0.044   0.684
   86SOL    HW2  591   0.993  -0.030   0.822
   87SOL     OW  592   1.429   1.173   0.867
   87SOL    HW1  593   1.374   1.089   0.860
   87SOL    HW2  594   1.455   1.202   0.775
   88SOL     OW  595   1.466   0.590   0.992
   88SOL    HW1  596   1.436   0.495   0.999
   88SOL    HW2  597   1.539   0.606   1.058
   89SOL     OW  598   1.857   0.833   0.377
   89SOL    HW1  599   1.899   0.769   0.441
   89SOL    HW2  600   1.819   0.782   0.299
   90SOL     OW  601   0.488   1.385   0.174
   90SOL    HW1  602   0.401   1.370   0.221
   90SOL    HW2  603   0.471   1.411   0.079
   91SOL     OW  604   1.664   1.280   0.657
   91SOL    HW1  605   1.763   1.288   0.671
   91SOL    HW2  606   1.619   1.364   0.688
   92SOL     OW  607   1.390   0.575   0.078
   92SOL    HW1  608   1.336   0.554   0.159
   92SOL    HW2  609   1.481   0.534   0.087
   93SOL     OW  610   0.527   0.256   0.328
   93SOL    HW1  611   0.554   0.197   0.253
   93SOL    HW2  612   0.527   0.351   0.297
   94SOL     OW  613   1.754   1.223   1.588
   94SOL    HW1  614   1.845   1.184   1.575
   94SOL    HW2  615   1.762   1.319   1.612
   95SOL     OW  616   1.064   1.347   1.340
   95SOL    HW1  617   0.984   1.324   1.395
   95SOL    HW2  618   1.147   1.321   1.389
   96SOL     OW  619   1.592   1.629   1.625
   96SOL    HW1  620   1.619   1.663   1.535
   96SOL    HW2  621   1.671   1.591   1.671
   97SOL     OW  622   1.111   1.195   1.100
   97SOL    HW1  623   1.071   1.239   1.181
   97SOL    HW2  624   1.070   1.232   1.017
   98SOL     OW  625   1.638   1.099   1.079
   98SOL    HW1  626   1.643   1.180   1.138
   98SOL    HW2  627   1.552   1.101   1.028
   99SOL     OW  628   0.915   0.089   1.402
   99SOL    HW1  629   0.940   0.069   1.307
   99SOL    HW2  630   0.987   0.145   1.444
  100SOL     OW  631   0.980   1.116   1.719
  100SOL    HW1  632   0.881   1.122   1.729
  100SOL    HW2  633   1.003   1.036   1.663
  101SOL     OW  634   0.705   1.050   0.368
  101SOL    HW1  635   0.691   1.057   0.467
  101SOL    HW2  636   0.789   0.999   0.350
  102SOL     OW  637   0.410   0.813   1.251
  102SOL    HW1  638   0.496   0.825   1.301
  102SOL    HW2  639   0.368   0.726   1.278
  103SOL     OW  640   1.274   0.386   1.262
  103SOL    HW1  641   1.295   0.460   1.326
  103SOL    HW2  642   1.185   0.403   1.219
  104SOL     OW  643   0.064   1.564   1.331
  104SOL    HW1  644   0.018   1.646   1.297
  104SOL    HW2  645   0.162   1.583   1.340
  105SOL     OW  646   0.367   1.100   0.501
  105SOL    HW1  647   0.360   1.183   0.445
  105SOL    HW2  648   0.371   1.020   0.441
  106SOL     OW  649   0.566   0.537   0.865
  106SOL    HW1  650   0.578   0.603   0.791
  106SOL    HW2  651   0.612   0.571   0.948
  107SOL     OW  652   1.252   1.348   0.388
  107SOL    HW1  653   1.302   1.425   0.428
  107SOL    HW2  654   1.157   1.350   0.420
  108SOL     OW  655   1.272   1.445   1.142
  108SOL    HW1  656   1.319   1.458   1.229
  108SOL    HW2  657   1.206   1.371   1.151
  109SOL     OW  658   1.582   0.639   0.472
  109SOL    HW1  659   1.551   0.700   0.545
  109SOL    HW2  660   1.632   0.691   0.403
  110SOL     OW  661   0.354   1.510   1.329
  110SOL    HW1  662   0.333   1.466   1.242
  110SOL    HW2  663   0.451   1.536   1.332
  111SOL     OW  664   0.402   0.751   1.598
  111SOL    HW1  665   0.470   0.806   1.551
  111SOL    HW2  666   0.442   0.663   1.625
  112SOL     OW  667   1.587   0.779   1.670
  112SOL    HW1  668   1.495   0.817   1.665
  112SOL    HW2  669   1.647   0.826   1.605
  113SOL     OW  670   1.013   0.105   1.770
  113SOL    HW1  671   1.019   0.190   1.718
  113SOL    HW2  672   1.045   0.029   1.713
  114SOL     OW  673   0.504   0.050   1.740
  114SOL    HW1  674   0.462  -0.007   1.670
  114SOL    HW2  675   0.438   0.119   1.772
  115SOL     OW  676   0.573   0.870   1.029
  115SOL    HW1  677   0.617   0.959   1.020
  115SOL    HW2  678   0.510   0.870   1.106
  116SOL     OW  679   1.360   0.862   1.045
  116SOL    HW1  680   1.285   0.862   0.979
  116SOL    HW2  681   1.397   0.770   1.054
  117SOL     OW  682   1.209   0.525   0.275
  117SOL    HW1  683   1.222   0.441   0.329
  117SOL    HW2  684   1.180   0.599   0.335
  118SOL     OW  685   0.307   0.213   1.231
  118SOL    HW1  686   0.284   0.250   1.321
  118SOL    HW2  687   0.277   0.118   1.225
  119SOL     OW  688   0.037   1.310   1.282
  119SOL    HW1  689   0.090   1.261   1.350
  119SOL    HW2  690   0.059   1.408   1.287
  120SOL     OW  691   0.732   0.634   1.064
  120SOL    HW1  692   0.791   0.608   0.988
  120SOL    HW2  693   0.704   0.730   1.053
  121SOL     OW  694   1.728   0.935   1.854
  121SOL    HW1  695   1.682   0.928   1.765
  121SOL    HW2  696   1.666   0.979   1.920
  122SOL     OW  697   0.307   0.063   0.618
  122SOL    HW1  698   0.296   0.157   0.651
  122SOL    HW2  699   0.302   0.000   0.695
  123SOL     OW  700   1.622   0.367   0.374
  123SOL    HW1  701   1.624   0.291   0.438
  123SOL    HW2  702   1.574   0.444   0.414
  124SOL     OW  703   1.023   0.766   0.966
  124SOL    HW1  704   1.038   0.787   1.062
  124SOL    HW2  705   0.993   0.671   0.957
  125SOL     OW  706   0.980   1.573   1.700
  125SOL    HW1  707   0.960   1.617   1.612
  125SOL    HW2  708   1.019   1.482   1.684
  126SOL     OW  709   1.859   1.518   1.605
  126SOL    HW1  710   1.873   1.545   1.510
  126SOL    HW2  711   1.942   1.540   1.658
  127SOL     OW  712   0.350   0.898   1.804
  127SOL    HW1  713   0.426   0.942   1.852
  127SOL    HW2  714   0.385   0.851   1.722
  128SOL     OW  715   1.540   0.274   0.125
  128SOL    HW1  716   1.479   0.199   0.148
  128SOL    HW2  717   1.562   0.326   0.208
  129SOL     OW  718   1.303   0.838   0.042
  129SOL    HW1  719   1.337   0.745   0.057
  129SOL    HW2  720   1.321   0.865  -0.053
  130SOL     OW  721   1.068   1.333   0.849
  130SOL    HW1  722   1.075   1.249   0.794
  130SOL    HW2  723   1.130   1.402   0.813
  131SOL     OW  724   0.319   0.810   0.949
  131SOL    HW1  725   0.412   0.846   0.954
  131SOL    HW2  726   0.313   0.725   1.001
  132SOL     OW  727   0.339   0.509   1.006
  132SOL    HW1  728   0.287   0.426   0.989
  132SOL    HW2  729   0.416   0.514   0.942
  133SOL     OW  730   1.138   0.380   1.678
  133SOL    HW1  731   1.093   0.443   1.742
  133SOL    HW2  732   1.231   0.411   1.661
  134SOL     OW  733   1.160   0.207   1.477
  134SOL    HW1  734   1.160   0.271   1.554
  134SOL    HW2  735   1.188   0.255   1.394
  135SOL     OW  736   0.008   1.326   0.200
  135SOL    HW1  737  -0.085   1.347   0.169
  135SOL    HW2  738   0.018   1.227   0.213
  136SOL     OW  739   0.088   1.801   0.927
  136SOL    HW1  740   0.046   1.715   0.900
  136SOL    HW2  741   0.182   1.804   0.893
  137SOL     OW  742   0.504   1.568   0.910
  137SOL    HW1  743   0.570   1.642   0.919
  137SOL    HW2  744   0.548   1.489   0.868
  138SOL     OW  745   1.002   0.796   1.238
  138SOL    HW1  746   1.043   0.764   1.324
  138SOL    HW2  747   0.906   0.769   1.235
  139SOL     OW  748   0.040   0.544   1.114
  139SOL    HW1  749   0.125   0.511   1.073
  139SOL    HW2  750   0.053   0.559   1.212
  140SOL     OW  751   0.189   0.520   1.722
  140SOL    HW1  752   0.248   0.480   1.652
  140SOL    HW2  753   0.131   0.591   1.681
  141SOL     OW  754   1.369   0.950   1.660
  141SOL    HW1  755   1.408   1.039   1.680
  141SOL    HW2  756   1.379   0.930   1.563
  142SOL     OW  757   0.815   0.572   0.325
  142SOL    HW1  758   0.822   0.483   0.279
  142SOL    HW2  759   0.721   0.606   0.317
  143SOL     OW  760   1.657   0.604   1.206
  143SOL    HW1  761   1.619   0.535   1.268
  143SOL    HW2  762   1.739   0.568   1.162
  144SOL     OW  763   0.252   1.564   1.744
  144SOL    HW1  764   0.222   1.621   1.820
  144SOL    HW2  765   0.245   1.467   1.770
  145SOL     OW  766   0.671   0.464   1.269
  145SOL    HW1  767   0.637   0.375   1.239
  145SOL    HW2  768   0.697   0.518   1.189
  146SOL     OW  769   0.930   1.678   1.465
  146SOL    HW1  770   0.906   1.660   1.370
  146SOL    HW2  771   0.960   1.772   1.475
  147SOL     OW  772   0.473   0.500   0.191
  147SOL    HW1  773   0.534   0.580   0.195
  147SOL    HW2  774   0.378   0.531   0.198
  148SOL     OW  775   0.159   1.137   1.466
  148SOL    HW1  776   0.181   1.076   1.542
  148SOL    HW2  777   0.169   1.088   1.380
  149SOL     OW  778   1.347   1.059   1.234
  149SOL    HW1  779   1.371   0.996   1.160
  149SOL    HW2  780   1.257   1.099   1.216
  150SOL     OW  781   1.302   0.855   0.309
  150SOL    HW1  782   1.216   0.824   0.351
  150SOL    HW2  783   1.298   0.841   0.210
  151SOL     OW  784   1.759   1.747   1.154
  151SOL    HW1  785   1.820   1.777   1.081
  151SOL    HW2  786   1.721   1.658   1.132
  152SOL     OW  787   1.252   1.731   1.128
  152SOL    HW1  788   1.336   1.736   1.074
  152SOL    HW2  789   1.229   1.635   1.146
  153SOL     OW  790   0.083   1.258   1.022
  153SOL    HW1  791   0.078   1.257   1.122
  153SOL    HW2  792   0.000   1.217   0.984
  154SOL     OW  793   0.688   1.662   1.716
  154SOL    HW1  794   0.632   1.743   1.725
  154SOL    HW2  795   0.740   1.666   1.630
  155SOL     OW  796   0.903   0.086   0.133
  155SOL    HW1  797   0.954   0.087   0.047
  155SOL    HW2  798   0.959   0.044   0.204
  156SOL     OW  799   1.726   0.135   0.523
  156SOL    HW1  800   1.799   0.118   0.456
  156SOL    HW2  801   1.695   0.048   0.561
  157SOL     OW  802   1.388   1.573   0.477
  157SOL    HW1  803   1.455   1.585   0.403
  157SOL    HW2  804   1.348   1.662   0.500
  158SOL     OW  805   0.130   1.794   1.851
  158SOL    HW1  806   0.089   1.720   1.904
  158SOL    HW2  807   0.194   1.845   1.909
  159SOL     OW  808   1.280   0.927   0.672
  159SOL    HW1  809   1.340   0.846   0.674
  159SOL    HW2  810   1.320   0.996   0.612
  160SOL     OW  811   0.830   1.273   1.422
  160SOL    HW1  812   0.825   1.306   1.517
  160SOL    HW2  813   0.744   1.292   1.376
  161SOL     OW  814   0.672   1.616   0.154
  161SOL    HW1  815   0.681   1.626   0.055
  161SOL    HW2  816   0.632   1.527   0.175
  162SOL     OW  817   1.650   1.720   1.394
  162SOL    HW1  818   1.703   1.730   1.310
  162SOL    HW2  819   1.623   1.810   1.428
  163SOL     OW  820   1.841   0.175   0.963
  163SOL    HW1  821   1.880   0.090   0.927
  163SOL    HW2  822   1.743   0.177   0.944
  164SOL     OW  823   0.263   0.326   0.720
  164SOL    HW1  824   0.184   0.377   0.686
  164SOL    HW2  825   0.254   0.311   0.818
  165SOL     OW  826   1.194   1.612   0.031
  165SOL    HW1  827   1.200   1.519   0.068
  165SOL    HW2  828   1.135   1.612  -0.049
  166SOL     OW  829   0.822   1.002   1.372
  166SOL    HW1  830   0.862   1.001   1.280
  166SOL    HW2  831   0.832   1.094   1.412
  167SOL     OW  832   0.916   0.910   0.291
  167SOL    HW1  833   0.979   0.948   0.223
  167SOL    HW2  834   0.956   0.827   0.330
  168SOL     OW  835   1.504   1.607   0.044
  168SOL    HW1  836   1.412   1.644   0.051
  168SOL    HW2  837   1.542   1.627  -0.046
  169SOL     OW  838   0.372   1.288   1.490
  169SOL    HW1  839   0.359   1.381   1.456
  169SOL    HW2  840   0.288   1.236   1.477
  170SOL     OW  841   1.614   1.292   1.289
  170SOL    HW1  842   1.674   1.295   1.369
  170SOL    HW2  843   1.539   1.356   1.302
  171SOL     OW  844   1.039   1.098   0.696
  171SOL    HW1  845   0.969   1.051   0.750
  171SOL    HW2  846   1.098   1.030   0.653
  172SOL     OW  847   1.014   0.236   0.971
  172SOL    HW1  848   1.006   0.200   0.878
  172SOL    HW2  849   1.012   0.160   1.036
  173SOL     OW  850   0.590   1.487   0.491
  173SOL    HW1  851   0.632   1.429   0.421
  173SOL    HW2  852   0.546   1.566   0.447
  174SOL     OW  853   1.709   0.385   1.381
  174SOL    HW1  854   1.782   0.454   1.385
  174SOL    HW2  855   1.737   0.310   1.322
  175SOL     OW  856   0.255   1.348   0.290
  175SOL    HW1  857   0.159   1.349   0.263
  175SOL    HW2  858   0.267   1.401   0.374
  176SOL     OW  859   0.105   1.013   1.726
  176SOL    HW1  860   0.028   0.980   1.780
  176SOL    HW2  861   0.190   0.983   1.768
  177SOL     OW  862   0.672   0.203   1.489
  177SOL    HW1  863   0.762   0.187   1.449
  177SOL    HW2  864   0.680   0.208   1.588
  178SOL     OW  865   0.075   0.345   0.033
  178SOL    HW1  866  -0.017   0.317   0.004
  178SOL    HW2  867   0.106   0.422  -0.023
  179SOL     OW  868   1.440   0.856   1.398
  179SOL    HW1  869   1.383   0.908   1.335
  179SOL    HW2  870   1.536   0.868   1.374
  180SOL     OW  871   0.072   0.166   0.318
  180SOL    HW1  872   0.055   0.249   0.264
  180SOL    HW2  873   0.162   0.129   0.296
  181SOL     OW  874   1.183   1.335   0.119
  181SOL    HW1  875   1.084   1.324   0.121
  181SOL    HW2  876   1.217   1.350   0.212
  182SOL     OW  877   0.613   0.842   1.431
  182SOL    HW1  878   0.669   0.923   1.414
  182SOL    HW2  879   0.672   0.762   1.434
  183SOL     OW  880   1.493   1.767   0.959
  183SOL    HW1  881   1.526   1.831   0.890
  183SOL    HW2  882   1.559   1.761   1.034
  184SOL     OW  883   0.716   0.565   1.708
  184SOL    HW1  884   0.735   0.630   1.782
  184SOL    HW2  885   0.776   0.485   1.717
  185SOL     OW  886   1.450   1.220   1.633
  185SOL    HW1  887   1.441   1.210   1.732
  185SOL    HW2  888   1.546   1.213   1.607
  186SOL     OW  889   0.390   1.741   1.560
  186SOL    HW1  890   0.299   1.782   1.558
  186SOL    HW2  891   0.383   1.647   1.592
  187SOL     OW  892   1.674   0.883   1.254
  187SOL    HW1  893   1.647   0.794   1.217
  187SOL    HW2  894   1.675   0.951   1.181
  188SOL     OW  895   1.225   0.325   0.449
  188SOL    HW1  896   1.290   0.251   0.438
  188SOL    HW2  897   1.245   0.375   0.533
  189SOL     OW  898   0.594   0.745   0.652
  189SOL    HW1  899   0.644   0.830   0.633
  189SOL    HW2  900   0.506   0.747   0.604
  190SOL     OW  901   1.777   0.342   1.642
  190SOL    HW1  902   1.760   0.373   1.548
  190SOL    HW2  903   1.693   0.305   1.680
  191SOL     OW  904   1.730   0.934   1.517
  191SOL    HW1  905   1.768   1.025   1.532
  191SOL    HW2  906   1.722   0.917   1.418
  192SOL     OW  907   0.859   1.374   0.016
  192SOL    HW1  908   0.813   1.389   0.104
  192SOL    HW2  909   0.903   1.459  -0.014
  193SOL     OW  910   0.661   1.790   0.953
  193SOL    HW1  911   0.615   1.878   0.940
  193SOL    HW2  912   0.760   1.802   0.946
  194SOL     OW  913   0.859   0.956   0.861
  194SOL    HW1  914   0.913   0.887   0.909
  194SOL    HW2  915   0.827   1.025   0.927
  195SOL     OW  916   1.083   0.984   0.087
  195SOL    HW1  917   1.060   1.037   0.005
  195SOL    HW2  918   1.164   0.928   0.068
  196SOL     OW  919   1.861   1.569   0.851
  196SOL    HW1  920   1.790   1.557   0.781
  196SOL    HW2  921   1.862   1.490   0.911
  197SOL     OW  922   0.221   1.314   1.844
  197SOL    HW1  923   0.156   1.241   1.823
  197SOL    HW2  924   0.225   1.328   1.942
  198SOL     OW  925   0.079   1.240   0.653
  198SOL    HW1  926   0.078   1.193   0.741
  198SOL    HW2  927   0.161   1.212   0.602
  199SOL     OW  928   0.672   1.391   1.624
  199SOL    HW1  929   0.594   1.341   1.662
  199SOL    HW2  930   0.669   1.486   1.655
  200SOL     OW  931   1.824   0.192   1.227
  200SOL    HW1  932   1.820   0.102   1.271
  200SOL    HW2  933   1.827   0.181   1.128
  201SOL     OW  934   0.428   0.424   0.520
  201SOL    HW1  935   0.458   0.352   0.458
  201SOL    HW2  936   0.389   0.384   0.603
  202SOL     OW  937   1.705   1.487   1.104
  202SOL    HW1  938   1.612   1.462   1.077
  202SOL    HW2  939   1.731   1.437   1.186
  203SOL     OW  940   0.317   0.547   1.280
  203SOL    HW1  941   0.355   0.488   1.352
  203SOL    HW2  942   0.357   0.521   1.192
  204SOL     OW  943   0.812   1.586   0.687
  204SOL    HW1  944   0.844   1.596   0.593
  204SOL    HW2  945   0.733   1.524   0.689
  205SOL     OW  946   1.424   0.214   1.112
  205SOL    HW1  947   1.476   0.149   1.167
  205SOL    HW2  948   1.375   0.277   1.173
  206SOL     OW  949   1.001   0.034   1.154
  206SOL    HW1  950   0.938  -0.038   1.123
  206SOL    HW2  951   1.094  -0.002   1.154
  207SOL     OW  952   0.770   1.330   0.301
  207SOL    HW1  953   0.724   1.243   0.318
  207SOL    HW2  954   0.861   1.327   0.342
  208SOL     OW  955   0.618   1.567   1.284
  208SOL    HW1  956   0.613   1.649   1.341
  208SOL    HW2  957   0.707   1.564   1.239
  209SOL     OW  958   1.352   0.052   0.168
  209SOL    HW1  959   1.387   0.011   0.084
  209SOL    HW2  960   1.262   0.014   0.188
  210SOL     OW  961   1.300   0.453   0.691
  210SOL    HW1  962   1.241   0.533   0.695
  210SOL    HW2  963   1.315   0.418   0.784
  211SOL     OW  964   1.593   0.221   0.882
  211SOL    HW1  965   1.509   0.220   0.936
  211SOL    HW2  966   1.595   0.304   0.826
  212SOL     OW  967   0.039   1.077   0.300
  212SOL    HW1  968   0.138   1.066   0.291
  212SOL    HW2  969  -0.001   0.991   0.332
  213SOL     OW  970   0.875   1.646   0.337
  213SOL    HW1  971   0.798   1.611   0.283
  213SOL    HW2  972   0.843   1.717   0.399
  214SOL     OW  973   0.230   0.628   1.975
  214SOL    HW1  974   0.137   0.626   2.012
  214SOL    HW2  975   0.231   0.589   1.883
  215SOL     OW  976   0.225   0.275   2.858
  215SOL    HW1  977   0.260   0.258   2.950
  215SOL    HW2  978   0.137   0.230   2.846
  216SOL     OW  979   0.019   0.368   2.509
  216SOL    HW1  980  -0.063   0.411   2.548
  216SOL    HW2  981  -0.009   0.295   2.446
  217SOL     OW  982   0.569   1.275   3.027
  217SOL    HW1  983   0.476   1.268   2.990
  217SOL    HW2  984   0.580   1.364   3.071
  218SOL     OW  985   1.555   1.511   2.565
  218SOL    HW1  986   1.498   1.495   2.646
  218SOL    HW2  987   1.496   1.521   2.485
  219SOL     OW  988   1.135   0.703   2.579
  219SOL    HW1  989   1.192   0.781   2.554
  219SOL    HW2  990   1.075   0.729   2.655
  220SOL     OW  991   1.755   0.607   2.093
  220SOL    HW1  992   1.743   0.594   1.994
  220SOL    HW2  993   1.725   0.526   2.142
  221SOL     OW  994   0.768   1.144   2.885
  221SOL    HW1  995   0.690   1.161   2.945
  221SOL    HW2  996   0.802   1.231   2.849
  222SOL     OW  997   0.850   0.798   3.685
  222SOL    HW1  998   0.846   0.874   3.750
  222SOL    HW2  999   0.872   0.834   3.594
  223SOL     OW 1000   0.685   1.012   2.527
  223SOL    HW1 1001   0.754   0.996   2.597
  223SOL    HW2 1002   0.612   1.069   2.565
  224SOL     OW 1003   0.686   1.161   3.665
  224SOL    HW1 1004   0.746   1.240   3.679
  224SOL    HW2 1005   0.600   1.192   3.624
  225SOL     OW 1006   0.335   1.435   2.923
  225SOL    HW1 1007   0.257   1.404   2.870
  225SOL    HW2 1008   0.393   1.493   2.866
  226SOL     OW 1009   1.460   1.505   3.201
  226SOL    HW1 1010   1.484   1.599   3.227
  226SOL    HW2 1011   1.444   1.451   3.283
  227SOL     OW 1012   0.438   0.392   3.361
  227SOL    HW1 1013   0.520   0.336   3.370
  227SOL    HW2 1014   0.357   0.334   3.365
  228SOL     OW 1015   1.603   0.447   2.599
  228SOL    HW1 1016   1.529   0.493   2.549
  228SOL    HW2 1017   1.654   0.515   2.652
  229SOL     OW 1018   0.231   1.713   2.345
  229SOL    HW1 1019   0.265   1.790   2.399
  229SOL    HW2 1020   0.275   1.713   2.255
  230SOL     OW 1021   1.127   1.341   3.552
  230SOL    HW1 1022   1.174   1.341   3.640
  230SOL    HW2 1023   1.079   1.254   3.541
  231SOL     OW 1024   0.230   1.434   2.400
  231SOL    HW1 1025   0.204   1.530   2.400
  231SOL    HW2 1026   0.159   1.380   2.445
  232SOL     OW 1027   0.240   1.091   2.748
  232SOL    HW1 1028   0.254   1.007   2.800
  232SOL    HW2 1029   0.185   1.155   2.803
  233SOL     OW 1030   0.620   1.786   3.301
  233SOL    HW1 1031   0.528   1.769   3.336
  233SOL    HW2 1032   0.648   1.878   3.327
  234SOL     OW 1033   0.606   0.964   1.985
  234SOL    HW1 1034   0.613   1.048   1.931
  234SOL    HW2 1035   0.652   0.977   2.073
  235SOL     OW 1036   1.594   0.114   3.342
  235SOL    HW1 1037   1.576   0.181   3.270
  235SOL    HW2 1038   1.591   0.160   3.431
  236SOL     OW 1039   0.122   0.643   2.425
  236SOL    HW1 1040   0.077   0.555   2.442
  236SOL    HW2 1041   0.121   0.697   2.509
  237SOL     OW 1042   0.027   1.596   1.979
  237SOL    HW1 1043   0.008   1.500   2.000
  237SOL    HW2 1044  -0.006   1.654   2.054
  238SOL     OW 1045   1.689   0.922   2.474
  238SOL    HW1 1046   1.784   0.893   2.482
  238SOL    HW2 1047   1.681   0.987   2.399
  239SOL     OW 1048   1.641   1.108   2.294
  239SOL    HW1 1049   1.727   1.110   2.242
  239SOL    HW2 1050   1.655   1.155   2.382
  240SOL     OW 1051   0.113   0.737   3.459
  240SOL    HW1 1052   0.201   0.724   3.504
  240SOL    HW2 1053   0.100   0.834   3.437
  241SOL     OW 1054   0.613   1.365   2.588
  241SOL    HW1 1055   0.564   1.278   2.597
  241SOL    HW2 1056   0.590   1.408   2.501
  242SOL     OW 1057   1.293   1.228   3.285
  242SOL    HW1 1058   1.330   1.155   3.227
  242SOL    HW2 1059   1.345   1.233   3.370
  243SOL     OW 1060   0.809   0.004   2.364
  243SOL    HW1 1061   0.849   0.095   2.355
  243SOL    HW2 1062   0.709   0.012   2.370
  244SOL     OW 1063   0.197   0.976   3.126
  244SOL    HW1 1064   0.286   0.931   3.112
  244SOL    HW2 1065   0.124   0.911   3.107
  245SOL     OW 1066   1.525   0.999   2.052
  245SOL    HW1 1067   1.462   0.923   2.065
  245SOL    HW2 1068   1.573   1.017   2.138
  246SOL     OW 1069   1.187   1.792   3.478
  246SOL    HW1 1070   1.211   1.852   3.402
  246SOL    HW2 1071   1.194   1.697   3.448
  247SOL     OW 1072   0.317   0.251   3.663
  247SOL    HW1 1073   0.388   0.322   3.669
  247SOL    HW2 1074   0.229   0.290   3.691
  248SOL     OW 1075   1.466   1.417   2.815
  248SOL    HW1 1076   1.407   1.423   2.895
  248SOL    HW2 1077   1.451   1.329   2.769
  249SOL     OW 1078   1.667   1.714   2.434
  249SOL    HW1 1079   1.626   1.691   2.346
  249SOL    HW2 1080   1.649   1.640   2.499
  250SOL     OW 1081   0.598   0.729   2.132
  250SOL    HW1 1082   0.622   0.798   2.064
  250SOL    HW2 1083   0.520   0.762   2.186
  251SOL     OW 1084   1.281   0.345   2.806
  251SOL    HW1 1085   1.195   0.295   2.793
  251SOL    HW2 1086   1.343   0.291   2.862
  252SOL     OW 1087   1.576   1.662   2.169
  252SOL    HW1 1088   1.665   1.708   2.172
  252SOL    HW2 1089   1.555   1.638   2.074
  253SOL     OW 1090   0.807   0.605   3.327
  253SOL    HW1 1091   0.760   0.602   3.416
  253SOL    HW2 1092   0.756   0.550   3.261
  254SOL     OW 1093   1.394   0.469   3.536
  254SOL    HW1 1094   1.374   0.512   3.624
  254SOL    HW2 1095   1.472   0.407   3.545
  255SOL     OW 1096   0.973   0.890   3.434
  255SOL    HW1 1097   1.019   0.806   3.405
  255SOL    HW2 1098   0.917   0.924   3.359
  256SOL     OW 1099   0.991   0.410   3.104
  256SOL    HW1 1100   0.914   0.444   3.158
  256SOL    HW2 1101   0.957   0.359   3.025
  257SOL     OW 1102   1.041   0.701   2.291
  257SOL    HW1 1103   1.067   0.697   2.387
  257SOL    HW2 1104   0.956   0.650   2.277
  258SOL     OW 1105   0.076   0.811   2.651
  258SOL    HW1 1106   0.175   0.799   2.660
  258SOL    HW2 1107   0.052   0.906   2.672
  259SOL     OW 1108   0.130   1.821   3.433
  259SOL    HW1 1109   0.120   1.806   3.532
  259SOL    HW2 1110   0.044   1.857   3.397
  260SOL     OW 1111   0.865   0.348   2.057
  260SOL    HW1 1112   0.924   0.411   2.008
  260SOL    HW2 1113   0.884   0.254   2.028
  261SOL     OW 1114   1.719   0.585   3.693
  261SOL    HW1 1115   1.693   0.674   3.657
  261SOL    HW2 1116   1.717   0.517   3.620
  262SOL     OW 1117   1.362   1.144   2.407
  262SOL    HW1 1118   1.445   1.115   2.359
  262SOL    HW2 1119   1.313   1.211   2.351
  263SOL     OW 1120   0.550   0.196   2.747
  263SOL    HW1 1121   0.545   0.191   2.847
  263SOL    HW2 1122   0.552   0.292   2.718
  264SOL     OW 1123   1.008   1.456   2.339
  264SOL    HW1 1124   0.962   1.528   2.287
  264SOL    HW2 1125   1.004   1.476   2.437
  265SOL     OW 1126   0.351   1.801   2.715
  265SOL    HW1 1127   0.401   1.715   2.721
  265SOL    HW2 1128   0.416   1.878   2.712
  266SOL     OW 1129   1.795   1.066   2.735
  266SOL    HW1 1130   1.733   1.051   2.659
  266SOL    HW2 1131   1.743   1.077   2.820
  267SOL     OW 1132   1.227   1.550   3.368
  267SOL    HW1 1133   1.233   1.473   3.432
  267SOL    HW2 1134   1.175   1.524   3.288
  268SOL     OW 1135   0.321   0.943   2.104
  268SOL    HW1 1136   0.403   0.982   2.062
  268SOL    HW2 1137   0.294   0.861   2.055
  269SOL     OW 1138   1.458   0.735   2.590
  269SOL    HW1 1139   1.453   0.670   2.665
  269SOL    HW2 1140   1.538   0.794   2.603
  270SOL     OW 1141   0.461   1.266   3.589
  270SOL    HW1 1142   0.411   1.267   3.503
  270SOL    HW2 1143   0.398   1.248   3.665
  271SOL     OW 1144   1.111   1.776   2.099
  271SOL    HW1 1145   1.051   1.714   2.149
  271SOL    HW2 1146   1.142   1.732   2.014
  272SOL     OW 1147   0.202   0.285   3.360
  272SOL    HW1 1148   0.122   0.345   3.347
  272SOL    HW2 1149   0.192   0.236   3.446
  273SOL     OW 1150   1.632   1.377   1.943
  273SOL    HW1 1151   1.600   1.471   1.933
  273SOL    HW2 1152   1.556   1.314   1.931
  274SOL     OW 1153   0.464   1.743   2.185
  274SOL    HW1 1154   0.497   1.782   2.271
  274SOL    HW2 1155   0.540   1.736   2.120
  275SOL     OW 1156   1.400   0.107   2.288
  275SOL    HW1 1157   1.376   0.070   2.198
  275SOL    HW2 1158   1.499   0.123   2.292
  276SOL     OW 1159   0.249   1.785   3.103
  276SOL    HW1 1160   0.306   1.720   3.153
  276SOL    HW2 1161   0.233   1.752   3.010
  277SOL     OW 1162   0.940   1.698   2.766
  277SOL    HW1 1163   1.020   1.641   2.787
  277SOL    HW2 1164   0.891   1.658   2.689
  278SOL     OW 1165   0.382   0.700   2.342
  278SOL    HW1 1166   0.427   0.610   2.339
  278SOL    HW2 1167   0.288   0.689   2.375
  279SOL     OW 1168   1.547   0.222   3.591
  279SOL    HW1 1169   1.542   0.259   3.683
  279SOL    HW2 1170   1.475   0.153   3.579
  280SOL     OW 1171   0.614   0.122   1.979
  280SOL    HW1 1172   0.712   0.100   1.986
  280SOL    HW2 1173   0.583   0.105   1.886
  281SOL     OW 1174   0.781   0.264   3.611
  281SOL    HW1 1175   0.848   0.203   3.654
  281SOL    HW2 1176   0.708   0.283   3.676
  282SOL     OW 1177   0.888   1.514   3.057
  282SOL    HW1 1178   0.865   1.489   2.963
  282SOL    HW2 1179   0.949   1.445   3.096
  283SOL     OW 1180   1.351   0.590   3.295
  283SOL    HW1 1181   1.379   0.547   3.380
  283SOL    HW2 1182   1.376   0.686   3.296
  284SOL     OW 1183   0.803   1.402   2.786
  284SOL    HW1 1184   0.893   1.416   2.744
  284SOL    HW2 1185   0.732   1.404   2.715
  285SOL     OW 1186   0.922   0.503   2.761
  285SOL    HW1 1187   0.897   0.494   2.665
  285SOL    HW2 1188   0.970   0.421   2.792
  286SOL     OW 1189   0.539   0.064   2.374
  286SOL    HW1 1190   0.458   0.065   2.432
  286SOL    HW2 1191   0.542   0.147   2.319
  287SOL     OW 1192   1.434   1.188   1.903
  287SOL    HW1 1193   1.466   1.112   1.960
  287SOL    HW2 1194   1.342   1.215   1.933
  288SOL     OW 1195   0.297   0.035   2.033
  288SOL    HW1 1196   0.346   0.119   2.012
  288SOL    HW2 1197   0.359  -0.030   2.078
  289SOL     OW 1198   0.935   0.236   2.342
  289SOL    HW1 1199   0.887   0.277   2.264
  289SOL    HW2 1200   1.034   0.234   2.323
  290SOL     OW 1201   1.076   0.683   3.326
  290SOL    HW1 1202   0.996   0.622   3.329
  290SOL    HW2 1203   1.157   0.630   3.302
  291SOL     OW 1204   1.227   1.570   2.655
  291SOL    HW1 1205   1.248   1.644   2.590
  291SOL    HW2 1206   1.295   1.570   2.728
  292SOL     OW 1207   0.459   1.152   2.603
  292SOL    HW1 1208   0.388   1.125   2.668
  292SOL    HW2 1209   0.433   1.124   2.510
  293SOL     OW 1210   1.271   1.797   2.453
  293SOL    HW1 1211   1.315   1.861   2.389
  293SOL    HW2 1212   1.221   1.849   2.523
  294SOL     OW 1213   1.032   0.549   1.878
  294SOL    HW1 1214   0.991   0.631   1.839
  294SOL    HW2 1215   1.096   0.575   1.951
  295SOL     OW 1216   0.078   0.556   3.248
  295SOL    HW1 1217   0.170   0.555   3.207
  295SOL    HW2 1218   0.072   0.630   3.315
  296SOL     OW 1219   0.561   0.222   3.009
  296SOL    HW1 1220   0.599   0.138   3.046
  296SOL    HW2 1221   0.473   0.241   3.053
  297SOL     OW 1222   0.866   0.454   2.504
  297SOL    HW1 1223   0.834   0.526   2.442
  297SOL    HW2 1224   0.890   0.373   2.451
  298SOL     OW 1225   1.017   0.039   2.615
  298SOL    HW1 1226   0.945   0.044   2.546
  298SOL    HW2 1227   0.993  -0.030   2.684
  299SOL     OW 1228   1.429   1.173   2.729
  299SOL    HW1 1229   1.374   1.089   2.722
  299SOL    HW2 1230   1.455   1.202   2.637
  300SOL     OW 1231   1.466   0.590   2.854
  300SOL    HW1 1232   1.436   0.495   2.861
  300SOL    HW2 1233   1.539   0.606   2.920
  301SOL     OW 1234   1.857   0.833   2.239
  301SOL    HW1 1235   1.899   0.769   2.303
  301SOL    HW2 1236   1.819   0.782   2.161
  302SOL     OW 1237   0.488   1.385   2.036
  302SOL    HW1 1238   0.401   1.370   2.083
  302SOL    HW2 1239   0.471   1.411   1.941
  303SOL     OW 1240   1.664   1.280   2.519
  303SOL    HW1 1241   1.763   1.288   2.533
  303SOL    HW2 1242   1.619   1.364   2.550
  304SOL     OW 1243   1.390   0.575   1.940
  304SOL    HW1 1244   1.336   0.554   2.021
  304SOL    HW2 1245   1.481   0.534   1.949
  305SOL     OW 1246   0.527   0.256   2.190
  305SOL    HW1 1247   0.554   0.197   2.115
  305SOL    HW2 1248   0.527   0.351   2.159
  306SOL     OW 1249   1.754   1.223   3.450
  306SOL    HW1 1250   1.845   1.184   3.437
  306SOL    HW2 1251   1.762   1.319   3.474
  307SOL     OW 1252   1.064   1.347   3.202
  307SOL    HW1 1253   0.984   1.324   3.257
  307SOL    HW2 1254   1.147   1.321   3.251
  308SOL     OW 1255   1.592   1.629   3.487
  308SOL    HW1 1256   1.619   1.663   3.397
  308SOL    HW2 1257   1.671   1.591   3.533
  309SOL     OW 1258   1.111   1.195   2.962
  309SOL    HW1 1259   1.071   1.239   3.043
  309SOL    HW2 1260   1.070   1.232   2.879
  310SOL     OW 1261   1.638   1.099   2.941
  310SOL    HW1 1262   1.643   1.180   3.000
  310SOL    HW2 1263   1.552   1.101   2.890
  311SOL     OW 1264   0.915   0.089   3.264
  311SOL    HW1 1265   0.940   0.069   3.169
  311SOL    HW2 1266   0.987   0.145   3.306
  312SOL     OW 1267   0.980   1.116   3.581
  312SOL    HW1 1268   0.881   1.122   3.591
  312SOL    HW2 1269   1.003   1.036   3.525
  313SOL     OW 1270   0.705   1.050   2.230
  313SOL    HW1 1271   0.691   1.057   2.329
  313SOL    HW2 1272   0.789   0.999   2.212
  314SOL     OW 1273   0.410   0.813   3.113
  314SOL    HW1 1274   0.496   0.825   3.163
  314SOL    HW2 1275   0.368   0.726   3.140
  315SOL     OW 1276   1.274   0.386   3.124
  315SOL    HW1 1277   1.295   0.460   3.188
  315SOL    HW2 1278   1.185   0.403   3.081
  316SOL     OW 1279   0.064   1.564   3.193
  316SOL    HW1 1280   0.018   1.646   3.159
  316SOL    HW2 1281   0.162   1.583   3.202
  317SOL     OW 1282   0.367   1.100   2.363
  317SOL    HW1 1283   0.360   1.183   2.307
  317SOL    HW2 1284   0.371   1.020   2.303
  318SOL     OW 1285   0.566   0.537   2.727
  318SOL    HW1 1286   0.578   0.603   2.653
  318SOL    HW2 1287   0.612   0.571   2.810
  319SOL     OW 1288   1.252   1.348   2.250
  319SOL    HW1 1289   1.302   1.425   2.290
  319SOL    HW2 1290   1.157   1.350   2.282
  320SOL     OW 1291   1.272   1.445   3.004
  320SOL    HW1 1292   1.319   1.458   3.091
  320SOL    HW2 1293   1.206   1.371   3.013
  321SOL     OW 1294   1.582   0.639   2.334
  321SOL    HW1 1295   1.551   0.700   2.407
  321SOL    HW2 1296   1.632   0.691   2.265
  322SOL     OW 1297   0.354   1.510   3.191
  322SOL    HW1 1298   0.333   1.466   3.104
  322SOL    HW2 1299   0.451   1.536   3.194
  323SOL     OW 1300   0.402   0.751   3.460
  323SOL    HW1 1301   0.470   0.806   3.413
  323SOL    HW2 1302   0.442   0.663   3.487
  324SOL     OW 1303   1.587   0.779   3.532
  324SOL    HW1 1304   1.495   0.817   3.527
  324SOL    HW2 1305   1.647   0.826   3.467
  325SOL     OW 1306   1.013   0.105   3.632
  325SOL    HW1 1307   1.019   0.190   3.580
  325SOL    HW2 1308   1.045   0.029   3.575
  326SOL     OW 1309   0.504   0.050   3.602
  326SOL    HW1 1310   0.462  -0.007   3.532
  326SOL    HW2 1311   0.438   0.119   3.634
  327SOL     OW 1312   0.573   0.870   2.891
  327SOL    HW1 1313   0.617   0.959   2.882
  327SOL    HW2 1314   0.510   0.870   2.968
  328SOL     OW 1315   1.360   0.862   2.907
  328SOL    HW1 1316   1.285   0.862   2.841
  328SOL    HW2 1317   1.397   0.770   2.916
  329SOL     OW 1318   1.209   0.525   2.137
  329SOL    HW1 1319   1.222   0.441   2.191
  329SOL    HW2 1320   1.180   0.599   2.197
  330SOL     OW 1321   0.307   0.213   3.093
  330SOL    HW1 1322   0.284   0.250   3.183
  330SOL    HW2 1323   0.277   0.118   3.087
  331SOL     OW 1324   0.037   1.310   3.144
  331SOL    HW1 1325   0.090   1.261   3.212
  331SOL    HW2 1326   0.059   1.408   3.149
  332SOL     OW 1327   0.732   0.634   2.926
  332SOL    HW1 1328   0.791   0.608   2.850
  332SOL    HW2 1329   0.704   0.730   2.915
  333SOL     OW 1330   1.728   0.935   3.716
  333SOL    HW1 1331   1.682   0.928   3.627
  333SOL    HW2 1332   1.666   0.979   3.782
  334SOL     OW 1333   0.307   0.063   2.480
  334SOL    HW1 1334   0.296   0.157   2.513
  334SOL    HW2 1335   0.302   0.000   2.557
  335SOL     OW 1336   1.622   0.367   2.236
  335SOL    HW1 1337   1.624   0.291   2.300
  335SOL    HW2 1338   1.574   0.444   2.276
  336SOL     OW 1339   1.023   0.766   2.828
  336SOL    HW1 1340   1.038   0.787   2.924
  336SOL    HW2 1341   0.993   0.671   2.819
  337SOL     OW 1342   0.980   1.573   3.562
  337SOL    HW1 1343   0.960   1.617   3.474
  337SOL    HW2 1344   1.019   1.482   3.546
  338SOL     OW 1345   1.859   1.518   3.467
  338SOL    HW1 1346   1.873   1.545   3.372
  338SOL    HW2 1347   1.942   1.540   3.520
  339SOL     OW 1348   0.350   0.898   3.666
  339SOL    HW1 1349   0.426   0.942   3.714
  339SOL    HW2 1350   0.385   0.851   3.584
  340SOL     OW 1351   1.540   0.274   1.987
  340SOL    HW1 1352   1.479   0.199   2.010
  340SOL    HW2 1353   1.562   0.326   2.070
  341SOL     OW 1354   1.303   0.838   1.904
  341SOL    HW1 1355   1.337   0.745   1.919
  341SOL    HW2 1356   1.321   0.865   1.809
  342SOL     OW 1357   1.068   1.333   2.711
  342SOL    HW1 1358   1.075   1.249   2.656
  342SOL    HW2 1359   1.130   1.402   2.675
  343SOL     OW 1360   0.319   0.810   2.811
  343SOL    HW1 1361   0.412   0.846   2.816
  343SOL    HW2 1362   0.313   0.725   2.863
  344SOL     OW 1363   0.339   0.509   2.868
  344SOL    HW1 1364   0.287   0.426   2.851
  344SOL    HW2 1365   0.416   0.514   2.804
  345SOL     OW 1366   1.138   0.380   3.540
  345SOL    HW1 1367   1.093   0.443   3.604
  345SOL    HW2 1368   1.231   0.411   3.523
  346SOL     OW 1369   1.160   0.207   3.339
  346SOL    HW1 1370   1.160   0.271   3.416
  346SOL    HW2 1371   1.188   0.255   3.256
  347SOL     OW 1372   0.008   1.326   2.062
  347SOL    HW1 1373  -0.085   1.347   2.031
  347SOL    HW2 1374   0.018   1.227   2.075
  348SOL     OW 1375   0.088   1.801   2.789
  348SOL    HW1 1376   0.046   1.715   2.762
  348SOL    HW2 1377   0.182   1.804   2.755
  349SOL     OW 1378   0.504   1.568   2.772
  349SOL    HW1 1379   0.570   1.642   2.781
  349SOL    HW2 1380   0.548   1.489   2.730
  350SOL     OW 1381   1.002   0.796   3.100
  350SOL    HW1 1382   1.043   0.764   3.186
  350SOL    HW2 1383   0.906   0.769   3.097
  351SOL     OW 1384   0.040   0.544   2.976
  351SOL    HW1 1385   0.125   0.511   2.935
  351SOL    HW2 1386   0.053   0.559   3.074
  352SOL     OW 1387   0.189   0.520   3.584
  352SOL    HW1 1388   0.248   0.480   3.514
  352SOL    HW2 1389   0.131   0.591   3.543
  353SOL     OW 1390   1.369   0.950   3.522
  353SOL    HW1 1391   1.408   1.039   3.542
  353SOL    HW2 1392   1.379   0.930   3.425
  354SOL     OW 1393   0.815   0.572   2.187
  354SOL    HW1 1394   0.822   0.483   2.141
  354SOL    HW2 1395   0.721   0.606   2.179
  355SOL     OW 1396   1.657   0.604   3.068
  355SOL    HW1 1397   1.619   0.535   3.130
  355SOL    HW2 1398   1.739   0.568   3.024
  356SOL     OW 1399   0.252   1.564   3.606
  356SOL    HW1 1400   0.222   1.621   3.682
  356SOL    HW2 1401   0.245   1.467   3.632
  357SOL     OW 1402   0.671   0.464   3.131
  357SOL    HW1 1403   0.637   0.375   3.101
  357SOL    HW2 1404   0.697   0.518   3.051
  358SOL     OW 1405   0.930   1.678   3.327
  358SOL    HW1 1406   0.906   1.660   3.232
  358SOL    HW2 1407   0.960   1.772   3.337
  359SOL     OW 1408   0.473   0.500   2.053
  359SOL    HW1 1409   0.534   0.580   2.057
  359SOL    HW2 1410   0.378   0.531   2.060
  360SOL     OW 1411   0.159   1.137   3.328
  360SOL    HW1 1412   0.181   1.076   3.404
  360SOL    HW2 1413   0.169   1.088   3.242
  361SOL     OW 1414   1.347   1.059   3.096
  361SOL    HW1 1415   1.371   0.996   3.022
  361SOL    HW2 1416   1.257   1.099   3.078
  362SOL     OW 1417   1.302   0.855   2.171
  362SOL    HW1 1418   1.216   0.824   2.213
  362SOL    HW2 1419   1.298   0.841   2.072
  363SOL     OW 1420   1.759   1.747   3.016
  363SOL    HW1 1421   1.820   1.777   2.943
  363SOL    HW2 1422   1.721   1.658   2.994
  364SOL     OW 1423   1.252   1.731   2.990
  364SOL    HW1 1424   1.336   1.736   2.936
  364SOL    HW2 1425   1.229   1.635   3.008
  365SOL     OW 1426   0.083   1.258   2.884
  365SOL    HW1 1427   0.078   1.257   2.984
  365SOL    HW2 1428   0.000   1.217   2.846
  366SOL     OW 1429   0.688   1.662   3.578
  366SOL    HW1 1430   0.632   1.743   3.587
  366SOL    HW2 1431   0.740   1.666   3.492
  367SOL     OW 1432   1.726   0.135   2.385
  367SOL    HW1 1433   1.799   0.118   2.318
  367SOL    HW2 1434   1.695   0.048   2.423
  368SOL     OW 1435   1.388   1.573   2.339
  368SOL    HW1 1436   1.455   1.585   2.265
  368SOL    HW2 1437   1.348   1.662   2.362
  369SOL     OW 1438   0.130   1.794   3.713
  369SOL    HW1 1439   0.089   1.720   3.766
  369SOL    HW2 1440   0.194   1.845   3.771
  370SOL     OW 1441   1.280   0.927   2.534
  370SOL    HW1 1442   1.340   0.846   2.536
  370SOL    HW2 1443   1.320   0.996   2.474
  371SOL     OW 1444   0.830   1.273   3.284
  371SOL    HW1 1445   0.825   1.306   3.379
  371SOL    HW2 1446   0.744   1.292   3.238
  372SOL     OW 1447   0.672   1.616   2.016
  372SOL    HW1 1448   0.681   1.626   1.917
  372SOL    HW2 1449   0.632   1.527   2.037
  373SOL     OW 1450   1.650   1.720   3.256
  373SOL    HW1 1451   1.703   1.730   3.172
  373SOL    HW2 1452   1.623   1.810   3.290
  374SOL     OW 1453   1.841   0.175   2.825
  374SOL    HW1 1454   1.880   0.090   2.789
  374SOL    HW2 1455   1.743   0.177   2.806
  375SOL     OW 1456   0.263   0.326   2.582
  375SOL    HW1 1457   0.184   0.377   2.548
  375SOL    HW2 1458   0.254   0.311   2.680
  376SOL     OW 1459   1.194   1.612   1.893
  376SOL    HW1 1460   1.200   1.519   1.930
  376SOL    HW2 1461   1.135   1.612   1.813
  377SOL     OW 1462   0.822   1.002   3.234
  377SOL    HW1 1463   0.862   1.001   3.142
  377SOL    HW2 1464   0.832   1.094   3.274
  378SOL     OW 1465   0.916   0.910   2.153
  378SOL    HW1 1466   0.979   0.948   2.085
  378SOL    HW2 1467   0.956   0.827   2.192
  379SOL     OW 1468   1.504   1.607   1.906
  379SOL    HW1 1469   1.412   1.644   1.913
  379SOL    HW2 1470   1.542   1.627   1.816
  380SOL     OW 1471   0.372   1.288   3.352
  380SOL    HW1 1472   0.359   1.381   3.318
  380SOL    HW2 1473   0.288   1.236   3.339
  381SOL     OW 1474   1.614   1.292   3.151
  381SOL    HW1 1475   1.674   1.295   3.231
  381SOL    HW2 1476   1.539   1.356   3.164
  382SOL     OW 1477   1.039   1.098   2.558
  382SOL    HW1 1478   0.969   1.051   2.612
  382SOL    HW2 1479   1.098   1.030   2.515
  383SOL     OW 1480   1.014   0.236   2.833
  383SOL    HW1 1481   1.006   0.200   2.740
  383SOL    HW2 1482   1.012   0.160   2.898
  384SOL     OW 1483   0.590   1.487   2.353
  384SOL    HW1 1484   0.632   1.429   2.283
  384SOL    HW2 1485   0.546   1.566   2.309
  385SOL     OW 1486   1.709   0.385   3.243
  385SOL    HW1 1487   1.782   0.454   3.247
  385SOL    HW2 1488   1.737   0.310   3.184
  386SOL     OW 1489   0.255   1.348   2.152
  386SOL    HW1 1490   0.159   1.349   2.125
  386SOL    HW2 1491   0.267   1.401   2.236
  387SOL     OW 1492   0.105   1.013   3.588
  387SOL    HW1 1493   0.028   0.980   3.642
  387SOL    HW2 1494   0.190   0.983   3.630
  388SOL     OW 1495   0.672   0.203   3.351
  388SOL    HW1 1496   0.762   0.187   3.311
  388SOL    HW2 1497   0.680   0.208   3.450
  389SOL     OW 1498   0.075   0.345   1.895
  389SOL    HW1 1499  -0.017   0.317   1.866
  389SOL    HW2 1500   0.106   0.422   1.839
  390SOL     OW 1501   1.440   0.856   3.260
  390SOL    HW1 1502   1.383   0.908   3.197
  390SOL    HW2 1503   1.536   0.868   3.236
  391SOL     OW 1504   0.072   0.166   2.180
  391SOL    HW1 1505   0.055   0.249   2.126
  391SOL    HW2 1506   0.162   0.129   2.158
  392SOL     OW 1507   1.183   1.335   1.981
  392SOL    HW1 1508   1.084   1.324   1.983
  392SOL    HW2 1509   1.217   1.350   2.074
  393SOL     OW 1510   0.613   0.842   3.293
  393SOL    HW1 1511   0.669   0.923   3.276
  393SOL    HW2 1512   0.672   0.762   3.296
  394SOL     OW 1513   1.493   1.767   2.821
  394SOL    HW1 1514   1.526   1.831   2.752
  394SOL    HW2 1515   1.559   1.761   2.896
  395SOL     OW 1516   0.716   0.565   3.570
  395SOL    HW1 1517   0.735   0.630   3.644
  395SOL    HW2 1518   0.776   0.485   3.579
  396SOL     OW 1519   1.450   1.220   3.495
  396SOL    HW1 1520   1.441   1.210   3.594
  396SOL    HW2 1521   1.546   1.213   3.469
  397SOL     OW 1522   0.390   1.741   3.422
  397SOL    HW1 1523   0.299   1.782   3.420
  397SOL    HW2 1524   0.383   1.647   3.454
  398SOL     OW 1525   1.674   0.883   3.116
  398SOL    HW1 1526   1.647   0.794   3.079
  398SOL    HW2 1527   1.675   0.951   3.043
  399SOL     OW 1528   1.225   0.325   2.311
  399SOL    HW1 1529   1.290   0.251   2.300
  399SOL    HW2 1530   1.245   0.375   2.395
  400SOL     OW 1531   0.594   0.745   2.514
  400SOL    HW1 1532   0.644   0.830   2.495
  400SOL    HW2 1533   0.506   0.747   2.466
  401SOL     OW 1534   1.777   0.342   3.504
  401SOL    HW1 1535   1.760   0.373   3.410
  401SOL    HW2 1536   1.693   0.305   3.542
  402SOL     OW 1537   1.730   0.934   3.379
  402SOL    HW1 1538   1.768   1.025   3.394
  402SOL    HW2 1539   1.722   0.917   3.280
  403SOL     OW 1540   0.859   1.374   1.878
  403SOL    HW1 1541   0.813   1.389   1.966
  403SOL    HW2 1542   0.903   1.459   1.848
  404SOL     OW 1543   0.661   1.790   2.815
  404SOL    HW1 1544   0.615   1.878   2.802
  404SOL    HW2 1545   0.760   1.802   2.808
  405SOL     OW 1546   0.859   0.956   2.723
  405SOL    HW1 1547   0.913   0.887   2.771
  405SOL    HW2 1548   0.827   1.025   2.789
  406SOL     OW 1549   1.083   0.984   1.949
  406SOL    HW1 1550   1.060   1.037   1.867
  406SOL    HW2 1551   1.164   0.928   1.930
  407SOL     OW 1552   1.861   1.569   2.713
  407SOL    HW1 1553   1.790   1.557   2.643
  407SOL    HW2 1554   1.862   1.490   2.773
  408SOL     OW 1555   0.221   1.314   3.706
  408SOL    HW1 1556   0.156   1.241   3.685
  408SOL    HW2 1557   0.225   1.328   3.804
  409SOL     OW 1558   0.079   1.240   2.515
  409SOL    HW1 1559   0.078   1.193   2.603
  409SOL    HW2 1560   0.161   1.212   2.464
  410SOL     OW 1561   0.672   1.391   3.486
  410SOL    HW1 1562   0.594   1.341   3.524
  410SOL    HW2 1563   0.669   1.486   3.517
  411SOL     OW 1564   1.824   0.192   3.089
  411SOL    HW1 1565   1.820   0.102   3.133
  411SOL    HW2 1566   1.827   0.181   2.990
  412SOL     OW 1567   0.428   0.424   2.382
  412SOL    HW1 1568   0.458   0.352   2.320
  412SOL    HW2 1569   0.389   0.384   2.465
  413SOL     OW 1570   1.705   1.487   2.966
  413SOL    HW1 1571   1.612   1.462   2.939
  413SOL    HW2 1572   1.731   1.437   3.048
  414SOL     OW 1573   0.317   0.547   3.142
  414SOL    HW1 1574   0.355   0.488   3.214
  414SOL    HW2 1575   0.357   0.521   3.054
  415SOL     OW 1576   0.812   1.586   2.549
  415SOL    HW1 1577   0.844   1.596   2.455
  415SOL    HW2 1578   0.733   1.524   2.551
  416SOL     OW 1579   1.424   0.214   2.974
  416SOL    HW1 1580   1.476   0.149   3.029
  416SOL    HW2 1581   1.375   0.277   3.035
  417SOL     OW 1582   1.001   0.034   3.016
  417SOL    HW1 1583   0.938  -0.038   2.985
  417SOL    HW2 1584   1.094  -0.002   3.016
  418SOL     OW 1585   0.770   1.330   2.163
  418SOL    HW1 1586   0.724   1.243   2.180
  418SOL    HW2 1587   0.861   1.327   2.204
  419SOL     OW 1588   0.618   1.567   3.146
  419SOL    HW1 1589   0.613   1.649   3.203
  419SOL    HW2 1590   0.707   1.564   3.101
  420SOL     OW 1591   1.352   0.052   2.030
  420SOL    HW1 1592   1.387   0.011   1.946
  420SOL    HW2 1593   1.262   0.014   2.050
  421SOL     OW 1594   1.300   0.453   2.553
  421SOL    HW1 1595   1.241   0.533   2.557
  421SOL    HW2 1596   1.315   0.418   2.646
  422SOL     OW 1597   1.593   0.221   2.744
  422SOL    HW1 1598   1.509   0.220   2.798
  422SOL    HW2 1599   1.595   0.304   2.688
  423SOL     OW 1600   0.039   1.077   2.162
  423SOL    HW1 1601   0.138   1.066   2.153
  423SOL    HW2 1602  -0.001   0.991   2.194
  424SOL     OW 1603   0.875   1.646   2.199
  424SOL    HW1 1604   0.798   1.611   2.145
  424SOL    HW2 1605   0.843   1.717   2.261
  425SOL     OW 1606   0.230   0.628   3.837
  425SOL    HW1 1607   0.137   0.626   3.874
  425SOL    HW2 1608   0.231   0.589   3.745
  426SOL     OW 1609   0.225   0.275   4.720
  426SOL    HW1 1610   0.260   0.258   4.812
  426SOL    HW2 1611   0.137   0.230   4.708
  427SOL     OW 1612   0.019   0.368   4.371
  427SOL    HW1 1613  -0.063   0.411   4.410
  427SOL    HW2 1614  -0.009   0.295   4.308
  428SOL     OW 1615   0.569   1.275   4.889
  428SOL    HW1 1616   0.476   1.268   4.852
  428SOL    HW2 1617   0.580   1.364   4.933
  429SOL     OW 1618   1.555   1.511   4.427
  429SOL    HW1 1619   1.498   1.495   4.508
  429SOL    HW2 1620   1.496   1.521   4.347
  430SOL     OW 1621   1.135   0.703   4.441
  430SOL    HW1 1622   1.192   0.781   4.416
  430SOL    HW2 1623   1.075   0.729   4.517
  431SOL     OW 1624   1.755   0.607   3.955
  431SOL    HW1 1625   1.743   0.594   3.856
  431SOL    HW2 1626   1.725   0.526   4.004
  432SOL     OW 1627   0.768   1.144   4.747
  432SOL    HW1 1628   0.690   1.161   4.807
  432SOL    HW2 1629   0.802   1.231   4.711
  433SOL     OW 1630   0.850   0.798   5.547
  433SOL    HW1 1631   0.846   0.874   5.612
  433SOL    HW2 1632   0.872   0.834   5.456
  434SOL     OW 1633   0.685   1.012   4.389
  434SOL    HW1 1634   0.754   0.996   4.459
  434SOL    HW2 1635   0.612   1.069   4.427
  435SOL     OW 1636   0.686   1.161   5.527
  435SOL    HW1 1637   0.746   1.240   5.541
  435SOL    HW2 1638   0.600   1.192   5.486
  436SOL     OW 1639   0.335   1.435   4.785
  436SOL    HW1 1640   0.257   1.404   4.732
  436SOL    HW2 1641   0.393   1.493   4.728
  437SOL     OW 1642   1.460   1.505   5.063
  437SOL    HW1 1643   1.484   1.599   5.089
  437SOL    HW2 1644   1.444   1.451   5.145
  438SOL     OW 1645   0.438   0.392   5.223
  438SOL    HW1 1646   0.520   0.336   5.232
  438SOL    HW2 1647   0.357   0.334   5.227
  439SOL     OW 1648   1.603   0.447   4.461
  439SOL    HW1 1649   1.529   0.493   4.411
  439SOL    HW2 1650   1.654   0.515   4.514
  440SOL     OW 1651   0.231   1.713   4.207
  440SOL    HW1 1652   0.265   1.790   4.261
  440SOL    HW2 1653   0.275   1.713   4.117
  441SOL     OW 1654   1.127   1.341   5.414
  441SOL    HW1 1655   1.174   1.341   5.502
  441SOL    HW2 1656   1.079   1.254   5.403
  442SOL     OW 1657   0.230   1.434   4.262
  442SOL    HW1 1658   0.204   1.530   4.262
  442SOL    HW2 1659   0.159   1.380   4.307
  443SOL     OW 1660   0.240   1.091   4.610
  443SOL    HW1 1661   0.254   1.007   4.662
  443SOL    HW2 1662   0.185   1.155   4.665
  444SOL     OW 1663   0.620   1.786   5.163
  444SOL    HW1 1664   0.528   1.769   5.198
  444SOL    HW2 1665   0.648   1.878   5.189
  445SOL     OW 1666   0.606   0.964   3.847
  445SOL    HW1 1667   0.613   1.048   3.793
  445SOL    HW2 1668   0.652   0.977   3.935
  446SOL     OW 1669   1.594   0.114   5.204
  446SOL    HW1 1670   1.576   0.181   5.132
  446SOL    HW2 1671   1.591   0.160   5.293
  447SOL     OW 1672   0.122   0.643   4.287
  447SOL    HW1 1673   0.077   0.555   4.304
  447SOL    HW2 1674   0.121   0.697   4.371
  448SOL     OW 1675   0.027   1.596   3.841
  448SOL    HW1 1676   0.008   1.500   3.862
  448SOL    HW2 1677  -0.006   1.654   3.916
  449SOL     OW 1678   1.689   0.922   4.336
  449SOL    HW1 1679   1.784   0.893   4.344
  449SOL    HW2 1680   1.681   0.987   4.261
  450SOL     OW 1681   1.641   1.108   4.156
  450SOL    HW1 1682   1.727   1.110   4.104
  450SOL    HW2 1683   1.655   1.155   4.244
  451SOL     OW 1684   0.113   0.737   5.321
  451SOL    HW1 1685   0.201   0.724   5.366
  451SOL    HW2 1686   0.100   0.834   5.299
  452SOL     OW 1687   0.613   1.365   4.450
  452SOL    HW1 1688   0.564   1.278   4.459
  452SOL    HW2 1689   0.590   1.408   4.363
  453SOL     OW 1690   1.293   1.228   5.147
  453SOL    HW1 1691   1.330   1.155   5.089
  453SOL    HW2 1692   1.345   1.233   5.232
  454SOL     OW 1693   0.809   0.004   4.226
  454SOL    HW1 1694   0.849   0.095   4.217
  454SOL    HW2 1695   0.709   0.012   4.232
  455SOL     OW 1696   0.197   0.976   4.988
  455SOL    HW1 1697   0.286   0.931   4.974
  455SOL    HW2 1698   0.124   0.911   4.969
  456SOL     OW 1699   1.525   0.999   3.914
  456SOL    HW1 1700   1.462   0.923   3.927
  456SOL    HW2 1701   1.573   1.017   4.000
  457SOL     OW 1702   1.187   1.792   5.340
  457SOL    HW1 1703   1.211   1.852   5.264
  457SOL    HW2 1704   1.194   1.697   5.310
  458SOL     OW 1705   0.317   0.251   5.525
  458SOL    HW1 1706   0.388   0.322   5.531
  458SOL    HW2 1707   0.229   0.290   5.553
  459SOL     OW 1708   1.466   1.417   4.677
  459SOL    HW1 1709   1.407   1.423   4.757
  459SOL    HW2 1710   1.451   1.329   4.631
  460SOL     OW 1711   1.667   1.714   4.296
  460SOL    HW1 1712   1.626   1.691   4.208
  460SOL    HW2 1713   1.649   1.640   4.361
  461SOL     OW 1714   0.598   0.729   3.994
  461SOL    HW1 1715   0.622   0.798   3.926
  461SOL    HW2 1716   0.520   0.762   4.048
  462SOL     OW 1717   1.281   0.345   4.668
  462SOL    HW1 1718   1.195   0.295   4.655
  462SOL    HW2 1719   1.343   0.291   4.724
  463SOL     OW 1720   1.576   1.662   4.031
  463SOL    HW1 1721   1.665   1.708   4.034
  463SOL    HW2 1722   1.555   1.638   3.936
  464SOL     OW 1723   0.807   0.605   5.189
  464SOL    HW1 1724   0.760   0.602   5.278
  464SOL    HW2 1725   0.756   0.550   5.123
  465SOL     OW 1726   1.394   0.469   5.398
  465SOL    HW1 1727   1.374   0.512   5.486
  465SOL    HW2 1728   1.472   0.407   5.407
  466SOL     OW 1729   0.973   0.890   5.296
  466SOL    HW1 1730   1.019   0.806   5.267
  466SOL    HW2 1731   0.917   0.924   5.221
  467SOL     OW 1732   0.991   0.410   4.966
  467SOL    HW1 1733   0.914   0.444   5.020
  467SOL    HW2 1734   0.957   0.359   4.887
  468SOL     OW 1735   1.041   0.701   4.153
  468SOL    HW1 1736   1.067   0.697   4.249
  468SOL    HW2 1737   0.956   0.650   4.139
  469SOL     OW 1738   0.076   0.811   4.513
  469SOL    HW1 1739   0.175   0.799   4.522
  469SOL    HW2 1740   0.052   0.906   4.534
  470SOL     OW 1741   0.130   1.821   5.295
  470SOL    HW1 1742   0.120   1.806   5.394
  470SOL    HW2 1743   0.044   1.857   5.259
  471SOL     OW 1744   0.865   0.348   3.919
  471SOL    HW1 1745   0.924   0.411   3.870
  471SOL    HW2 1746   0.884   0.254   3.890
  472SOL     OW 1747   1.719   0.585   5.555
  472SOL    HW1 1748   1.693   0.674   5.519
  472SOL    HW2 1749   1.717   0.517   5.482
  473SOL     OW 1750   1.362   1.144   4.269
  473SOL    HW1 1751   1.445   1.115   4.221
  473SOL    HW2 1752   1.313   1.211   4.213
  474SOL     OW 1753   0.550   0.196   4.609
  474SOL    HW1 1754   0.545   0.191   4.709
  474SOL    HW2 1755   0.552   0.292   4.580
  475SOL     OW 1756   1.008   1.456   4.201
  475SOL    HW1 1757   0.962   1.528   4.149
  475SOL    HW2 1758   1.004   1.476   4.299
  476SOL     OW 1759   0.351   1.801   4.577
  476SOL    HW1 1760   0.401   1.715   4.583
  476SOL    HW2 1761   0.416   1.878   4.574
  477SOL     OW 1762   1.795   1.066   4.597
  477SOL    HW1 1763   1.733   1.051   4.521
  477SOL    HW2 1764   1.743   1.077   4.682
  478SOL     OW 1765   1.227   1.550   5.230
  478SOL    HW1 1766   1.233   1.473   5.294
  478SOL    HW2 1767   1.175   1.524   5.150
  479SOL     OW 1768   0.321   0.943   3.966
  479SOL    HW1 1769   0.403   0.982   3.924
  479SOL    HW2 1770   0.294   0.861   3.917
  480SOL     OW 1771   1.458   0.735   4.452
  480SOL    HW1 1772   1.453   0.670   4.527
  480SOL    HW2 1773   1.538   0.794   4.465
  481SOL     OW 1774   0.461   1.266   5.451
  481SOL    HW1 1775   0.411   1.267   5.365
  481SOL    HW2 1776   0.398   1.248   5.527
  482SOL     OW 1777   1.111   1.776   3.961
  482SOL    HW1 1778   1.051   1.714   4.011
  482SOL    HW2 1779   1.142   1.732   3.876
  483SOL     OW 1780   0.202   0.285   5.222
  483SOL    HW1 1781   0.122   0.345   5.209
  483SOL    HW2 1782   0.192   0.236   5.308
  484SOL     OW 1783   1.632   1.377   3.805
  484SOL    HW1 1784   1.600   1.471   3.795
  484SOL    HW2 1785   1.556   1.314   3.793
  485SOL     OW 1786   0.464   1.743   4.047
  485SOL    HW1 1787   0.497   1.782   4.133
  485SOL    HW2 1788   0.540   1.736   3.982
  486SOL     OW 1789   1.400   0.107   4.150
  486SOL    HW1 1790   1.376   0.070   4.060
  486SOL    HW2 1791   1.499   0.123   4.154
  487SOL     OW 1792   0.249   1.785   4.965
  487SOL    HW1 1793   0.306   1.720   5.015
  487SOL    HW2 1794   0.233   1.752   4.872
  488SOL     OW 1795   0.940   1.698   4.628
  488SOL    HW1 1796   1.020   1.641   4.649
  488SOL    HW2 1797   0.891   1.658   4.551
  489SOL     OW 1798   0.382   0.700   4.204
  489SOL    HW1 1799   0.427   0.610   4.201
  489SOL    HW2 1800   0.288   0.689   4.237
  490SOL     OW 1801   1.547   0.222   5.453
  490SOL    HW1 1802   1.542   0.259   5.545
  490SOL    HW2 1803   1.475   0.153   5.441
  491SOL     OW 1804   0.614   0.122   3.841
  491SOL    HW1 1805   0.712   0.100   3.848
  491SOL    HW2 1806   0.583   0.105   3.748
  492SOL     OW 1807   0.781   0.264   5.473
  492SOL    HW1 1808   0.848   0.203   5.516
  492SOL    HW2 1809   0.708   0.283   5.538
  493SOL     OW 1810   0.888   1.514   4.919
  493SOL    HW1 1811   0.865   1.489   4.825
  493SOL    HW2 1812   0.949   1.445   4.958
  494SOL     OW 1813   1.351   0.590   5.157
  494SOL    HW1 1814   1.379   0.547   5.242
  494SOL    HW2 1815   1.376   0.686   5.158
  495SOL     OW 1816   0.803   1.402   4.648
  495SOL    HW1 1817   0.893   1.416   4.606
  495SOL    HW2 1818   0.732   1.404   4.577
  496SOL     OW 1819   0.922   0.503   4.623
  496SOL    HW1 1820   0.897   0.494   4.527
  496SOL    HW2 1821   0.970   0.421   4.654
  497SOL     OW 1822   0.539   0.064   4.236
  497SOL    HW1 1823   0.458   0.065   4.294
  497SOL    HW2 1824   0.542   0.147   4.181
  498SOL     OW 1825   1.434   1.188   3.765
  498SOL    HW1 1826   1.466   1.112   3.822
  498SOL    HW2 1827   1.342   1.215   3.795
  499SOL     OW 1828   0.297   0.035   3.895
  499SOL    HW1 1829   0.346   0.119   3.874
  499SOL    HW2 1830   0.359  -0.030   3.940
  500SOL     OW 1831   0.935   0.236   4.204
  500SOL    HW1 1832   0.887   0.277   4.126
  500SOL    HW2 1833   1.034   0.234   4.185
  501SOL     OW 1834   1.076   0.683   5.188
  501SOL    HW1 1835   0.996   0.622   5.191
  501SOL    HW2 1836   1.157   0.630   5.164
  502SOL     OW 1837   1.227   1.570   4.517
  502SOL    HW1 1838   1.248   1.644   4.452
  502SOL    HW2 1839   1.295   1.570   4.590
  503SOL     OW 1840   0.459   1.152   4.465
  503SOL    HW1 1841   0.388   1.125   4.530
  503SOL    HW2 1842   0.433   1.124   4.372
  504SOL     OW 1843   1.271   1.797   4.315
  504SOL    HW1 1844   1.315   1.861   4.251
  504SOL    HW2 1845   1.221   1.849   4.385
  505SOL     OW 1846   1.032   0.549   3.740
  505SOL    HW1 1847   0.991   0.631   3.701
  505SOL    HW2 1848   1.096   0.575   3.813
  506SOL     OW 1849   0.078   0.556   5.110
  506SOL    HW1 1850   0.170   0.555   5.069
  506SOL    HW2 1851   0.072   0.630   5.177
  507SOL     OW 1852   0.561   0.222   4.871
  507SOL    HW1 1853   0.599   0.138   4.908
  507SOL    HW2 1854   0.473   0.241   4.915
  508SOL     OW 1855   0.866   0.454   4.366
  508SOL    HW1 1856   0.834   0.526   4.304
  508SOL    HW2 1857   0.890   0.373   4.313
  509SOL     OW 1858   1.017   0.039   4.477
  509SOL    HW1 1859   0.945   0.044   4.408
  509SOL    HW2 1860   0.993  -0.030   4.546
  510SOL     OW 1861   1.429   1.173   4.591
  510SOL    HW1 1862   1.374   1.089   4.584
  510SOL    HW2 1863   1.455   1.202   4.499
  511SOL     OW 1864   1.466   0.590   4.716
  511SOL    HW1 1865   1.436   0.495   4.723
  511SOL    HW2 1866   1.539   0.606   4.782
  512SOL     OW 1867   1.857   0.833   4.101
  512SOL    HW1 1868   1.899   0.769   4.165
  512SOL    HW2 1869   1.819   0.782   4.023
  513SOL     OW 1870   0.488   1.385   3.898
  513SOL    HW1 1871   0.401   1.370   3.945
  513SOL    HW2 1872   0.471   1.411   3.803
  514SOL     OW 1873   1.664   1.280   4.381
  514SOL    HW1 1874   1.763   1.288   4.395
  514SOL    HW2 1875   1.619   1.364   4.412
  515SOL     OW 1876   1.390   0.575   3.802
  515SOL    HW1 1877   1.336   0.554   3.883
  515SOL    HW2 1878   1.481   0.534   3.811
  516SOL     OW 1879   0.527   0.256   4.052
  516SOL    HW1 1880   0.554   0.197   3.977
  516SOL    HW2 1881   0.527   0.351   4.021
  517SOL     OW 1882   1.754   1.223   5.312
  517SOL    HW1 1883   1.845   1.184   5.299
  517SOL    HW2 1884   1.762   1.319   5.336
  518SOL     OW 1885   1.064   1.347   5.064
  518SOL    HW1 1886   0.984   1.324   5.119
  518SOL    HW2 1887   1.147   1.321   5.113
  519SOL     OW 1888   1.592   1.629   5.349
  519SOL    HW1 1889   1.619   1.663   5.259
  519SOL    HW2 1890   1.671   1.591   5.395
  520SOL     OW 1891   1.111   1.195   4.824
  520SOL    HW1 1892   1.071   1.239   4.905
  520SOL    HW2 1893   1.070   1.232   4.741
  521SOL     OW 1894   1.638   1.099   4.803
  521SOL    HW1 1895   1.643   1.180   4.862
  521SOL    HW2 1896   1.552   1.101   4.752
  522SOL     OW 1897   0.915   0.089   5.126
  522SOL    HW1 1898   0.940   0.069   5.031
  522SOL    HW2 1899   0.987   0.145   5.168
  523SOL     OW 1900   0.980   1.116   5.443
  523SOL    HW1 1901   0.881   1.122   5.453
  523SOL    HW2 1902   1.003   1.036   5.387
  524SOL     OW 1903   0.705   1.050   4.092
  524SOL    HW1 1904   0.691   1.057   4.191
  524SOL    HW2 1905   0.789   0.999   4.074
  525SOL     OW 1906   0.410   0.813   4.975
  525SOL    HW1 1907   0.496   0.825   5.025
  525SOL    HW2 1908   0.368   0.726   5.002
  526SOL     OW 1909   1.274   0.386   4.986
  526SOL    HW1 1910   1.295   0.460   5.050
  526SOL    HW2 1911   1.185   0.403   4.943
  527SOL     OW 1912   0.064   1.564   5.055
  527SOL    HW1 1913   0.018   1.646   5.021
  527SOL    HW2 1914   0.162   1.583   5.064
  528SOL     OW 1915   0.367   1.100   4.225
  528SOL    HW1 1916   0.360   1.183   4.169
  528SOL    HW2 1917   0.371   1.020   4.165
  529SOL     OW 1918   0.566   0.537   4.589
  529SOL    HW1 1919   0.578   0.603   4.515
  529SOL    HW2 1920   0.612   0.571   4.672
  530SOL     OW 1921   1.252   1.348   4.112
  530SOL    HW1 1922   1.302   1.425   4.152
  530SOL    HW2 1923   1.157   1.350   4.144
  531SOL     OW 1924   1.272   1.445   4.866
  531SOL    HW1 1925   1.319   1.458   4.953
  531SOL    HW2 1926   1.206   1.371   4.875
  532SOL     OW 1927   1.582   0.639   4.196
  532SOL    HW1 1928   1.551   0.700   4.269
  532SOL    HW2 1929   1.632   0.691   4.127
  533SOL     OW 1930   0.354   1.510   5.053
  533SOL    HW1 1931   0.333   1.466   4.966
  533SOL    HW2 1932   0.451   1.536   5.056
  534SOL     OW 1933   0.402   0.751   5.322
  534SOL    HW1 1934   0.470   0.806   5.275
  534SOL    HW2 1935   0.442   0.663   5.349
  535SOL     OW 1936   1.587   0.779   5.394
  535SOL    HW1 1937   1.495   0.817   5.389
  535SOL    HW2 1938   1.647   0.826   5.329
  536SOL     OW 1939   1.013   0.105   5.494
  536SOL    HW1 1940   1.019   0.190   5.442
  536SOL    HW2 1941   1.045   0.029   5.437
  537SOL     OW 1942   0.504   0.050   5.464
  537SOL    HW1 1943   0.462  -0.007   5.394
  537SOL    HW2 1944   0.438   0.119   5.496
  538SOL     OW 1945   0.573   0.870   4.753
  538SOL    HW1 1946   0.617   0.959   4.744
  538SOL    HW2 1947   0.510   0.870   4.830
  539SOL     OW 1948   1.360   0.862   4.769
  539SOL    HW1 1949   1.285   0.862   4.703
  539SOL    HW2 1950   1.397   0.770   4.778
  540SOL     OW 1951   1.209   0.525   3.999
  540SOL    HW1 1952   1.222   0.441   4.053
  540SOL    HW2 1953   1.180   0.599   4.059
  541SOL     OW 1954   0.307   0.213   4.955
  541SOL    HW1 1955   0.284   0.250   5.045
  541SOL    HW2 1956   0.277   0.118   4.949
  542SOL     OW 1957   0.037   1.310   5.006
  542SOL    HW1 1958   0.090   1.261   5.074
  542SOL    HW2 1959   0.059   1.408   5.011
  543SOL     OW 1960   0.732   0.634   4.788
  543SOL    HW1 1961   0.791   0.608   4.712
  543SOL    HW2 1962   0.704   0.730   4.777
  544SOL     OW 1963   1.728   0.935   5.578
  544SOL    HW1 1964   1.682   0.928   5.489
  544SOL    HW2 1965   1.666   0.979   5.644
  545SOL     OW 1966   0.307   0.063   4.342
  545SOL    HW1 1967   0.296   0.157   4.375
  545SOL    HW2 1968   0.302   0.000   4.419
  546SOL     OW 1969   1.622   0.367   4.098
  546SOL    HW1 1970   1.624   0.291   4.162
  546SOL    HW2 1971   1.574   0.444   4.138
  547SOL     OW 1972   1.023   0.766   4.690
  547SOL    HW1 1973   1.038   0.787   4.786
  547SOL    HW2 1974   0.993   0.671   4.681
  548SOL     OW 1975   0.980   1.573   5.424
  548SOL    HW1 1976   0.960   1.617   5.336
  548SOL    HW2 1977   1.019   1.482   5.408
  549SOL     OW 1978   1.859   1.518   5.329
  549SOL    HW1 1979   1.873   1.545   5.234
  549SOL    HW2 1980   1.942   1.540   5.382
  550SOL     OW 1981   0.350   0.898   5.528
  550SOL    HW1 1982   0.426   0.942   5.576
  550SOL    HW2 1983   0.385   0.851   5.446
  551SOL     OW 1984   1.540   0.274   3.849
  551SOL    HW1 1985   1.479   0.199   3.872
  551SOL    HW2 1986   1.562   0.326   3.932
  552SOL     OW 1987   1.303   0.838   3.766
  552SOL    HW1 1988   1.337   0.745   3.781
  552SOL    HW2 1989   1.321   0.865   3.671
  553SOL     OW 1990   1.068   1.333   4.573
  553SOL    HW1 1991   1.075   1.249   4.518
  553SOL    HW2 1992   1.130   1.402   4.537
  554SOL     OW 1993   0.319   0.810   4.673
  554SOL    HW1 1994   0.412   0.846   4.678
  554SOL    HW2 1995   0.313   0.725   4.725
  555SOL     OW 1996   0.339   0.509   4.730
  555SOL    HW1 1997   0.287   0.426   4.713
  555SOL    HW2 1998   0.416   0.514   4.666
  556SOL     OW 1999   1.138   0.380   5.402
  556SOL    HW1 2000   1.093   0.443   5.466
  556SOL    HW2 2001   1.231   0.411   5.385
  557SOL     OW 2002   1.160   0.207   5.201
  557SOL    HW1 2003   1.160   0.271   5.278
  557SOL    HW2 2004   1.188   0.255   5.118
  558SOL     OW 2005   0.008   1.326   3.924
  558SOL    HW1 2006  -0.085   1.347   3.893
  558SOL    HW2 2007   0.018   1.227   3.937
  559SOL     OW 2008   0.088   1.801   4.651
  559SOL    HW1 2009   0.046   1.715   4.624
  559SOL    HW2 2010   0.182   1.804   4.617
  560SOL     OW 2011   0.504   1.568   4.634
  560SOL    HW1 2012   0.570   1.642   4.643
  560SOL    HW2 2013   0.548   1.489   4.592
  561SOL     OW 2014   1.002   0.796   4.962
  561SOL    HW1 2015   1.043   0.764   5.048
  561SOL    HW2 2016   0.906   0.769   4.959
  562SOL     OW 2017   0.040   0.544   4.838
  562SOL    HW1 2018   0.125   0.511   4.797
  562SOL    HW2 2019   0.053   0.559   4.936
  563SOL     OW 2020   0.189   0.520   5.446
  563SOL    HW1 2021   0.248   0.480   5.376
  563SOL    HW2 2022   0.131   0.591   5.405
  564SOL     OW 2023   1.369   0.950   5.384
  564SOL    HW1 2024   1.408   1.039   5.404
  564SOL    HW2 2025   1.379   0.930   5.287
  565SOL     OW 2026   0.815   0.572   4.049
  565SOL    HW1 2027   0.822   0.483   4.003
  565SOL    HW2 2028   0.721   0.606   4.041
  566SOL     OW 2029   1.657   0.604   4.930
  566SOL    HW1 2030   1.619   0.535   4.992
  566SOL    HW2 2031   1.739   0.568   4.886
  567SOL     OW 2032   0.252   1.564   5.468
  567SOL    HW1 2033   0.222   1.621   5.544
  567SOL    HW2 2034   0.245   1.467   5.494
  568SOL     OW 2035   0.671   0.464   4.993
  568SOL    HW1 2036   0.637   0.375   4.963
  568SOL    HW2 2037   0.697   0.518   4.913
  569SOL     OW 2038   0.930   1.678   5.189
  569SOL    HW1 2039   0.906   1.660   5.094
  569SOL    HW2 2040   0.960   1.772   5.199
  570SOL     OW 2041   0.473   0.500   3.915
  570SOL    HW1 2042   0.534   0.580   3.919
  570SOL    HW2 2043   0.378   0.531   3.922
  571SOL     OW 2044   0.159   1.137   5.190
  571SOL    HW1 2045   0.181   1.076   5.266
  571SOL    HW2 2046   0.169   1.088   5.104
  572SOL     OW 2047   1.347   1.059   4.958
  572SOL    HW1 2048   1.371   0.996   4.884
  572SOL    HW2 2049   1.257   1.099   4.940
  573SOL     OW 2050   1.302   0.855   4.033
  573SOL    HW1 2051   1.216   0.824   4.075
  573SOL    HW2 2052   1.298   0.841   3.934
  574SOL     OW 2053   1.759   1.747   4.878
  574SOL    HW1 2054   1.820   1.777   4.805
  574SOL    HW2 2055   1.721   1.658   4.856
  575SOL     OW 2056   1.252   1.731   4.852
  575SOL    HW1 2057   1.336   1.736   4.798
  575SOL    HW2 2058   1.229   1.635   4.870
  576SOL     OW 2059   0.083   1.258   4.746
  576SOL    HW1 2060   0.078   1.257   4.846
  576SOL    HW2 2061   0.000   1.217   4.708
  577SOL     OW 2062   0.688   1.662   5.440
  577SOL    HW1 2063   0.632   1.743   5.449
  577SOL    HW2 2064   0.740   1.666   5.354
  578SOL     OW 2065   1.726   0.135   4.247
  578SOL    HW1 2066   1.799   0.118   4.180
  578SOL    HW2 2067   1.695   0.048   4.285
  579SOL     OW 2068   1.388   1.573   4.201
  579SOL    HW1 2069   1.455   1.585   4.127
  579SOL    HW2 2070   1.348   1.662   4.224
  580SOL     OW 2071   0.130   1.794   5.575
  580SOL    HW1 2072   0.089   1.720   5.628
  580SOL    HW2 2073   0.194   1.845   5.633
  581SOL     OW 2074   1.280   0.927   4.396
  581SOL    HW1 2075   1.340   0.846   4.398
  581SOL    HW2 2076   1.320   0.996   4.336
  582SOL     OW 2077   0.830   1.273   5.146
  582SOL    HW1 2078   0.825   1.306   5.241
  582SOL    HW2 2079   0.744   1.292   5.100
  583SOL     OW 2080   0.672   1.616   3.878
  583SOL    HW1 2081   0.681   1.626   3.779
  583SOL    HW2 2082   0.632   1.527   3.899
  584SOL     OW 2083   1.650   1.720   5.118
  584SOL    HW1 2084   1.703   1.730   5.034
  584SOL    HW2 2085   1.623   1.810   5.152
  585SOL     OW 2086   1.841   0.175   4.687
  585SOL    HW1 2087   1.880   0.090   4.651
  585SOL    HW2 2088   1.743   0.177   4.668
  586SOL     OW 2089   0.263   0.326   4.444
  586SOL    HW1 2090   0.184   0.377   4.410
  586SOL    HW2 2091   0.254   0.311   4.542
  587SOL     OW 2092   1.194   1.612   3.755
  587SOL    HW1 2093   1.200   1.519   3.792
  587SOL    HW2 2094   1.135   1.612   3.675
  588SOL     OW 2095   0.822   1.002   5.096
  588SOL    HW1 2096   0.862   1.001   5.004
  588SOL    HW2 2097   0.832   1.094   5.136
  589SOL     OW 2098   0.916   0.910   4.015
  589SOL    HW1 2099   0.979   0.948   3.947
  589SOL    HW2 2100   0.956   0.827   4.054
  590SOL     OW 2101   1.504   1.607   3.768
  590SOL    HW1 2102   1.412   1.644   3.775
  590SOL    HW2 2103   1.542   1.627   3.678
  591SOL     OW 2104   0.372   1.288   5.214
  591SOL    HW1 2105   0.359   1.381   5.180
  591SOL    HW2 2106   0.288   1.236   5.201
  592SOL     OW 2107   1.614   1.292   5.013
  592SOL    HW1 2108   1.674   1.295   5.093
  592SOL    HW2 2109   1.539   1.356   5.026
  593SOL     OW 2110   1.039   1.098   4.420
  593SOL    HW1 2111   0.969   1.051   4.474
  593SOL    HW2 2112   1.098   1.030   4.377
  594SOL     OW 2113   1.014   0.236   4.695
  594SOL    HW1 2114   1.006   0.200   4.602
  594SOL    HW2 2115   1.012   0.160   4.760
  595SOL     OW 2116   0.590   1.487   4.215
  595SOL    HW1 2117   0.632   1.429   4.145
  595SOL    HW2 2118   0.546   1.566   4.171
  596SOL     OW 2119   1.709   0.385   5.105
  596SOL    HW1 2120   1.782   0.454   5.109
  596SOL    HW2 2121   1.737   0.310   5.046
  597SOL     OW 2122   0.255   1.348   4.014
  597SOL    HW1 2123   0.159   1.349   3.987
  597SOL    HW2 2124   0.267   1.401   4.098
  598SOL     OW 2125   0.105   1.013   5.450
  598SOL    HW1 2126   0.028   0.980   5.504
  598SOL    HW2 2127   0.190   0.983   5.492
  599SOL     OW 2128   0.672   0.203   5.213
  599SOL    HW1 2129   0.762   0.187   5.173
  599SOL    HW2 2130   0.680   0.208   5.312
  600SOL     OW 2131   0.075   0.345   3.757
  600SOL    HW1 2132  -0.017   0.317   3.728
  600SOL    HW2 2133   0.106   0.422   3.701
  601SOL     OW 2134   1.440   0.856   5.122
  601SOL    HW1 2135   1.383   0.908   5.059
  601SOL    HW2 2136   1.536   0.868   5.098
  602SOL     OW 2137   0.072   0.166   4.042
  602SOL    HW1 2138   0.055   0.249   3.988
  602SOL    HW2 2139   0.162   0.129   4.020
  603SOL     OW 2140   1.183   1.335   3.843
  603SOL    HW1 2141   1.084   1.324   3.845
  603SOL    HW2 2142   1.217   1.350   3.936
  604SOL     OW 2143   0.613   0.842   5.155
  604SOL    HW1 2144   0.669   0.923   5.138
  604SOL    HW2 2145   0.672   0.762   5.158
  605SOL     OW 2146   1.493   1.767   4.683
  605SOL    HW1 2147   1.526   1.831   4.614
  605SOL    HW2 2148   1.559   1.761   4.758
  606SOL     OW 2149   0.716   0.565   5.432
  606SOL    HW1 2150   0.735   0.630   5.506
  606SOL    HW2 2151   0.776   0.485   5.441
  607SOL     OW 2152   1.450   1.220   5.357
  607SOL    HW1 2153   1.441   1.210   5.456
  607SOL    HW2 2154   1.546   1.213   5.331
  608SOL     OW 2155   0.390   1.741   5.284
  608SOL    HW1 2156   0.299   1.782   5.282
  608SOL    HW2 2157   0.383   1.647   5.316
  609SOL     OW 2158   1.674   0.883   4.978
  609SOL    HW1 2159   1.647   0.794   4.941
  609SOL    HW2 2160   1.675   0.951   4.905
  610SOL     OW 2161   1.225   0.325   4.173
  610SOL    HW1 2162   1.290   0.251   4.162
  610SOL    HW2 2163   1.245   0.375   4.257
  611SOL     OW 2164   0.594   0.745   4.376
  611SOL    HW1 2165   0.644   0.830   4.357
  611SOL    HW2 2166   0.506   0.747   4.328
  612SOL     OW 2167   1.777   0.342   5.366
  612SOL    HW1 2168   1.760   0.373   5.272
  612SOL    HW2 2169   1.693   0.305   5.404
  613SOL     OW 2170   1.730   0.934   5.241
  613SOL    HW1 2171   1.768   1.025   5.256
  613SOL    HW2 2172   1.722   0.917   5.142
  614SOL     OW 2173   0.859   1.374   3.740
  614SOL    HW1 2174   0.813   1.389   3.828
  614SOL    HW2 2175   0.903   1.459   3.710
  615SOL     OW 2176   0.661   1.790   4.677
  615SOL    HW1 2177   0.615   1.878   4.664
  615SOL    HW2 2178   0.760   1.802   4.670
  616SOL     OW 2179   0.859   0.956   4.585
  616SOL    HW1 2180   0.913   0.887   4.633
  616SOL    HW2 2181   0.827   1.025   4.651
  617SOL     OW 2182   1.083   0.984   3.811
  617SOL    HW1 2183   1.060   1.037   3.729
  617SOL    HW2 2184   1.164   0.928   3.792
  618SOL     OW 2185   1.861   1.569   4.575
  618SOL    HW1 2186   1.790   1.557   4.505
  618SOL    HW2 2187   1.862   1.490   4.635
  619SOL     OW 2188   0.221   1.314   5.568
  619SOL    HW1 2189   0.156   1.241   5.547
  619SOL    HW2 2190   0.225   1.328   5.666
  620SOL     OW 2191   0.079   1.240   4.377
  620SOL    HW1 2192   0.078   1.193   4.465
  620SOL    HW2 2193   0.161   1.212   4.326
  621SOL     OW 2194   0.672   1.391   5.348
  621SOL    HW1 2195   0.594   1.341   5.386
  621SOL    HW2 2196   0.669   1.486   5.379
  622SOL     OW 2197   1.824   0.192   4.951
  622SOL    HW1 2198   1.820   0.102   4.995
  622SOL    HW2 2199   1.827   0.181   4.852
  623SOL     OW 2200   0.428   0.424   4.244
  623SOL    HW1 2201   0.458   0.352   4.182
  623SOL    HW2 2202   0.389   0.384   4.327
  624SOL     OW 2203   1.705   1.487   4.828
  624SOL    HW1 2204   1.612   1.462   4.801
  624SOL    HW2 2205   1.731   1.437   4.910
  625SOL     OW 2206   0.317   0.547   5.004
  625SOL    HW1 2207   0.355   0.488   5.076
  625SOL    HW2 2208   0.357   0.521   4.916
  626SOL     OW 2209   0.812   1.586   4.411
  626SOL    HW1 2210   0.844   1.596   4.317
  626SOL    HW2 2211   0.733   1.524   4.413
  627SOL     OW 2212   1.424   0.214   4.836
  627SOL    HW1 2213   1.476   0.149   4.891
  627SOL    HW2 2214   1.375   0.277   4.897
  628SOL     OW 2215   1.001   0.034   4.878
  628SOL    HW1 2216   0.938  -0.038   4.847
  628SOL    HW2 2217   1.094  -0.002   4.878
  629SOL     OW 2218   0.770   1.330   4.025
  629SOL    HW1 2219   0.724   1.243   4.042
  629SOL    HW2 2220   0.861   1.327   4.066
  630SOL     OW 2221   0.618   1.567   5.008
  630SOL    HW1 2222   0.613   1.649   5.065
  630SOL    HW2 2223   0.707   1.564   4.963
  631SOL     OW 2224   1.352   0.052   3.892
  631SOL    HW1 2225   1.387   0.011   3.808
  631SOL    HW2 2226   1.262   0.014   3.912
  632SOL     OW 2227   1.300   0.453   4.415
  632SOL    HW1 2228   1.241   0.533   4.419
  632SOL    HW2 2229   1.315   0.418   4.508
  633SOL     OW 2230   1.593   0.221   4.606
  633SOL    HW1 2231   1.509   0.220   4.660
  633SOL    HW2 2232   1.595   0.304   4.550
  634SOL     OW 2233   0.039   1.077   4.024
  634SOL    HW1 2234   0.138   1.066   4.015
  634SOL    HW2 2235  -0.001   0.991   4.056
  635SOL     OW 2236   0.875   1.646   4.061
  635SOL    HW1 2237   0.798   1.611   4.007
  635SOL    HW2 2238   0.843   1.717   4.123
  636SOL     OW 2239   0.230   0.628   5.699
  636SOL    HW1 2240   0.137   0.626   5.736
  636SOL    HW2 2241   0.231   0.589   5.607
  637SOL     OW 2242   0.225   0.275   6.582
  637SOL    HW1 2243   0.260   0.258   6.674
  637SOL    HW2 2244   0.137   0.230   6.570
  638SOL     OW 2245   0.019   0.368   6.233
  638SOL    HW1 2246  -0.063   0.411   6.272
  638SOL    HW2 2247  -0.009   0.295   6.170
  639SOL     OW 2248   0.569   1.275   6.751
  639SOL    HW1 2249   0.476   1.268   6.714
  639SOL    HW2 2250   0.580   1.364   6.795
  640SOL     OW 2251   1.555   1.511   6.289
  640SOL    HW1 2252   1.498   1.495   6.370
  640SOL    HW2 2253   1.496   1.521   6.209
  641SOL     OW 2254   1.135   0.703   6.303
  641SOL    HW1 2255   1.192   0.781   6.278
  641SOL    HW2 2256   1.075   0.729   6.379
  642SOL     OW 2257   1.755   0.607   5.817
  642SOL    HW1 2258   1.743   0.594   5.718
  642SOL    HW2 2259   1.725   0.526   5.866
  643SOL     OW 2260   0.768   1.144   6.609
  643SOL    HW1 2261   0.690   1.161   6.669
  643SOL    HW2 2262   0.802   1.231   6.573
  644SOL     OW 2263   0.850   0.798   7.409
  644SOL    HW1 2264   0.846   0.874   7.474
  644SOL    HW2 2265   0.872   0.834   7.318
  645SOL     OW 2266   0.685   1.012   6.251
  645SOL    HW1 2267   0.754   0.996   6.321
  645SOL    HW2 2268   0.612   1.069   6.289
  646SOL     OW 2269   0.686   1.161   7.389
  646SOL    HW1 2270   0.746   1.240   7.403
  646SOL    HW2 2271   0.600   1.192   7.348
  647SOL     OW 2272   0.335   1.435   6.647
  647SOL    HW1 2273   0.257   1.404   6.594
  647SOL    HW2 2274   0.393   1.493   6.590
  648SOL     OW 2275   0.438   0.392   7.085
  648SOL    HW1 2276   0.520   0.336   7.094
  648SOL    HW2 2277   0.357   0.334   7.089
  649SOL     OW 2278   1.603   0.447   6.323
  649SOL    HW1 2279   1.529   0.493   6.273
  649SOL    HW2 2280   1.654   0.515   6.376
  650SOL     OW 2281   0.231   1.713   6.069
  650SOL    HW1 2282   0.265   1.790   6.123
  650SOL    HW2 2283   0.275   1.713   5.979
  651SOL     OW 2284   1.127   1.341   7.276
  651SOL    HW1 2285   1.174   1.341   7.364
  651SOL    HW2 2286   1.079   1.254   7.265
  652SOL     OW 2287   0.230   1.434   6.124
  652SOL    HW1 2288   0.204   1.530   6.124
  652SOL    HW2 2289   0.159   1.380   6.169
  653SOL     OW 2290   0.240   1.091   6.472
  653SOL    HW1 2291   0.254   1.007   6.524
  653SOL    HW2 2292   0.185   1.155   6.527
  654SOL     OW 2293   0.620   1.786   7.025
  654SOL    HW1 2294   0.528   1.769   7.060
  654SOL    HW2 2295   0.648   1.878   7.051
  655SOL     OW 2296   0.606   0.964   5.709
  655SOL    HW1 2297   0.613   1.048   5.655
  655SOL    HW2 2298   0.652   0.977   5.797
  656SOL     OW 2299   1.594   0.114   7.066
  656SOL    HW1 2300   1.576   0.181   6.994
  656SOL    HW2 2301   1.591   0.160   7.155
  657SOL     OW 2302   0.122   0.643   6.149
  657SOL    HW1 2303   0.077   0.555   6.166
  657SOL    HW2 2304   0.121   0.697   6.233
  658SOL     OW 2305   0.027   1.596   5.703
  658SOL    HW1 2306   0.008   1.500   5.724
  658SOL    HW2 2307  -0.006   1.654   5.778
  659SOL     OW 2308   1.689   0.922   6.198
  659SOL    HW1 2309   1.784   0.893   6.206
  659SOL    HW2 2310   1.681   0.987   6.123
  660SOL     OW 2311   1.641   1.108   6.018
  660SOL    HW1 2312   1.727   1.110   5.966
  660SOL    HW2 2313   1.655   1.155   6.106
  661SOL     OW 2314   0.113   0.737   7.183
  661SOL    HW1 2315   0.201   0.724   7.228
  661SOL    HW2 2316   0.100   0.834   7.161
  662SOL     OW 2317   0.613   1.365   6.312
  662SOL    HW1 2318   0.564   1.278   6.321
  662SOL    HW2 2319   0.590   1.408   6.225
  663SOL     OW 2320   1.293   1.228   7.009
  663SOL    HW1 2321   1.330   1.155   6.951
  663SOL    HW2 2322   1.345   1.233   7.094
  664SOL     OW 2323   0.809   0.004   6.088
  664SOL    HW1 2324   0.849   0.095   6.079
  664SOL    HW2 2325   0.709   0.012   6.094
  665SOL     OW 2326   0.197   0.976   6.850
  665SOL    HW1 2327   0.286   0.931   6.836
  665SOL    HW2 2328   0.124   0.911   6.831
  666SOL     OW 2329   1.525   0.999   5.776
  666SOL    HW1 2330   1.462   0.923   5.789
  666SOL    HW2 2331   1.573   1.017   5.862
  667SOL     OW 2332   1.187   1.792   7.202
  667SOL    HW1 2333   1.211   1.852   7.126
  667SOL    HW2 2334   1.194   1.697   7.172
  668SOL     OW 2335   0.317   0.251   7.387
  668SOL    HW1 2336   0.388   0.322   7.393
  668SOL    HW2 2337   0.229   0.290   7.415
  669SOL     OW 2338   1.466   1.417   6.539
  669SOL    HW1 2339   1.407   1.423   6.619
  669SOL    HW2 2340   1.451   1.329   6.493
  670SOL     OW 2341   1.667   1.714   6.158
  670SOL    HW1 2342   1.626   1.691   6.070
  670SOL    HW2 2343   1.649   1.640   6.223
  671SOL     OW 2344   0.598   0.729   5.856
  671SOL    HW1 2345   0.622   0.798   5.788
  671SOL    HW2 2346   0.520   0.762   5.910
  672SOL     OW 2347   1.281   0.345   6.530
  672SOL    HW1 2348   1.195   0.295   6.517
  672SOL    HW2 2349   1.343   0.291   6.586
  673SOL     OW 2350   1.576   1.662   5.893
  673SOL    HW1 2351   1.665   1.708   5.896
  673SOL    HW2 2352   1.555   1.638   5.798
  674SOL     OW 2353   0.807   0.605   7.051
  674SOL    HW1 2354   0.760   0.602   7.140
  674SOL    HW2 2355   0.756   0.550   6.985
  675SOL     OW 2356   1.394   0.469   7.260
  675SOL    HW1 2357   1.374   0.512   7.348
  675SOL    HW2 2358   1.472   0.407   7.269
  676SOL     OW 2359   0.973   0.890   7.158
  676SOL    HW1 2360   1.019   0.806   7.129
  676SOL    HW2 2361   0.917   0.924   7.083
  677SOL     OW 2362   0.991   0.410   6.828
  677SOL    HW1 2363   0.914   0.444   6.882
  677SOL    HW2 2364   0.957   0.359   6.749
  678SOL     OW 2365   1.041   0.701   6.015
  678SOL    HW1 2366   1.067   0.697   6.111
  678SOL    HW2 2367   0.956   0.650   6.001
  679SOL     OW 2368   0.076   0.811   6.375
  679SOL    HW1 2369   0.175   0.799   6.384
  679SOL    HW2 2370   0.052   0.906   6.396
  680SOL     OW 2371   0.130   1.821   7.157
  680SOL    HW1 2372   0.120   1.806   7.256
  680SOL    HW2 2373   0.044   1.857   7.121
  681SOL     OW 2374   0.865   0.348   5.781
  681SOL    HW1 2375   0.924   0.411   5.732
  681SOL    HW2 2376   0.884   0.254   5.752
  682SOL     OW 2377   1.719   0.585   7.417
  682SOL    HW1 2378   1.693   0.674   7.381
  682SOL    HW2 2379   1.717   0.517   7.344
  683SOL     OW 2380   1.362   1.144   6.131
  683SOL    HW1 2381   1.445   1.115   6.083
  683SOL    HW2 2382   1.313   1.211   6.075
  684SOL     OW 2383   0.550   0.196   6.471
  684SOL    HW1 2384   0.545   0.191   6.571
  684SOL    HW2 2385   0.552   0.292   6.442
  685SOL     OW 2386   1.008   1.456   6.063
  685SOL    HW1 2387   0.962   1.528   6.011
  685SOL    HW2 2388   1.004   1.476   6.161
  686SOL     OW 2389   0.351   1.801   6.439
  686SOL    HW1 2390   0.401   1.715   6.445
  686SOL    HW2 2391   0.416   1.878   6.436
  687SOL     OW 2392   1.795   1.066   6.459
  687SOL    HW1 2393   1.733   1.051   6.383
  687SOL    HW2 2394   1.743   1.077   6.544
  688SOL     OW 2395   1.227   1.550   7.092
  688SOL    HW1 2396   1.233   1.473   7.156
  688SOL    HW2 2397   1.175   1.524   7.012
  689SOL     OW 2398   0.321   0.943   5.828
  689SOL    HW1 2399   0.403   0.982   5.786
  689SOL    HW2 2400   0.294   0.861   5.779
  690SOL     OW 2401   1.458   0.735   6.314
  690SOL    HW1 2402   1.453   0.670   6.389
  690SOL    HW2 2403   1.538   0.794   6.327
  691SOL     OW 2404   0.461   1.266   7.313
  691SOL    HW1 2405   0.411   1.267   7.227
  691SOL    HW2 2406   0.398   1.248   7.389
  692SOL     OW 2407   1.111   1.776   5.823
  692SOL    HW1 2408   1.051   1.714   5.873
  692SOL    HW2 2409   1.142   1.732   5.738
  693SOL     OW 2410   0.202   0.285   7.084
  693SOL    HW1 2411   0.122   0.345   7.071
  693SOL    HW2 2412   0.192   0.236   7.170
  694SOL     OW 2413   1.632   1.377   5.667
  694SOL    HW1 2414   1.600   1.471   5.657
  694SOL    HW2 2415   1.556   1.314   5.655
  695SOL     OW 2416   0.464   1.743   5.909
  695SOL    HW1 2417   0.497   1.782   5.995
  695SOL    HW2 2418   0.540   1.736   5.844
  696SOL     OW 2419   1.400   0.107   6.012
  696SOL    HW1 2420   1.376   0.070   5.922
  696SOL    HW2 2421   1.499   0.123   6.016
  697SOL     OW 2422   0.249   1.785   6.827
  697SOL    HW1 2423   0.306   1.720   6.877
  697SOL    HW2 2424   0.233   1.752   6.734
  698SOL     OW 2425   0.940   1.698   6.490
  698SOL    HW1 2426   1.020   1.641   6.511
  698SOL    HW2 2427   0.891   1.658   6.413
  699SOL     OW 2428   0.382   0.700   6.066
  699SOL    HW1 2429   0.427   0.610   6.063
  699SOL    HW2 2430   0.288   0.689   6.099
  700SOL     OW 2431   1.547   0.222   7.315
  700SOL    HW1 2432   1.542   0.259   7.407
  700SOL    HW2 2433   1.475   0.153   7.303
  701SOL     OW 2434   0.614   0.122   5.703
  701SOL    HW1 2435   0.712   0.100   5.710
  701SOL    HW2 2436   0.583   0.105   5.610
  702SOL     OW 2437   0.781   0.264   7.335
  702SOL    HW1 2438   0.848   0.203   7.378
  702SOL    HW2 2439   0.708   0.283   7.400
  703SOL     OW 2440   0.888   1.514   6.781
  703SOL    HW1 2441   0.865   1.489   6.687
  703SOL    HW2 2442   0.949   1.445   6.820
  704SOL     OW 2443   1.351   0.590   7.019
  704SOL    HW1 2444   1.379   0.547   7.104
  704SOL    HW2 2445   1.376   0.686   7.020
  705SOL     OW 2446   0.803   1.402   6.510
  705SOL    HW1 2447   0.893   1.416   6.468
  705SOL    HW2 2448   0.732   1.404   6.439
  706SOL     OW 2449   0.922   0.503   6.485
  706SOL    HW1 2450   0.897   0.494   6.389
  706SOL    HW2 2451   0.970   0.421   6.516
  707SOL     OW 2452   0.539   0.064   6.098
  707SOL    HW1 2453   0.458   0.065   6.156
  707SOL    HW2 2454   0.542   0.147   6.043
  708SOL     OW 2455   1.434   1.188   5.627
  708SOL    HW1 2456   1.466   1.112   5.684
  708SOL    HW2 2457   1.342   1.215   5.657
  709SOL     OW 2458   0.297   0.035   5.757
  709SOL    HW1 2459   0.346   0.119   5.736
  709SOL    HW2 2460   0.359  -0.030   5.802
  710SOL     OW 2461   0.935   0.236   6.066
  710SOL    HW1 2462   0.887   0.277   5.988
  710SOL    HW2 2463   1.034   0.234   6.047
  711SOL     OW 2464   1.076   0.683   7.050
  711SOL    HW1 2465   0.996   0.622   7.053
  711SOL    HW2 2466   1.157   0.630   7.026
  712SOL     OW 2467   1.227   1.570   6.379
  712SOL    HW1 2468   1.248   1.644   6.314
  712SOL    HW2 2469   1.295   1.570   6.452
  713SOL     OW 2470   0.459   1.152   6.327
  713SOL    HW1 2471   0.388   1.125   6.392
  713SOL    HW2 2472   0.433   1.124   6.234
  714SOL     OW 2473   1.271   1.797   6.177
  714SOL    HW1 2474   1.315   1.861   6.113
  714SOL    HW2 2475   1.221   1.849   6.247
  715SOL     OW 2476   1.032   0.549   5.602
  715SOL    HW1 2477   0.991   0.631   5.563
  715SOL    HW2 2478   1.096   0.575   5.675
  716SOL     OW 2479   0.078   0.556   6.972
  716SOL    HW1 2480   0.170   0.555   6.931
  716SOL    HW2 2481   0.072   0.630   7.039
  717SOL     OW 2482   0.561   0.222   6.733
  717SOL    HW1 2483   0.599   0.138   6.770
  717SOL    HW2 2484   0.473   0.241   6.777
  718SOL     OW 2485   0.866   0.454   6.228
  718SOL    HW1 2486   0.834   0.526   6.166
  718SOL    HW2 2487   0.890   0.373   6.175
  719SOL     OW 2488   1.017   0.039   6.339
  719SOL    HW1 2489   0.945   0.044   6.270
  719SOL    HW2 2490   0.993  -0.030   6.408
  720SOL     OW 2491   1.429   1.173   6.453
  720SOL    HW1 2492   1.374   1.089   6.446
  720SOL    HW2 2493   1.455   1.202   6.361
  721SOL     OW 2494   1.466   0.590   6.578
  721SOL    HW1 2495   1.436   0.495   6.585
  721SOL    HW2 2496   1.539   0.606   6.644
  722SOL     OW 2497   1.857   0.833   5.963
  722SOL    HW1 2498   1.899   0.769   6.027
  722SOL    HW2 2499   1.819   0.782   5.885
  723SOL     OW 2500   0.488   1.385   5.760
  723SOL    HW1 2501   0.401   1.370   5.807
  723SOL    HW2 2502   0.471   1.411   5.665
  724SOL     OW 2503   1.664   1.280   6.243
  724SOL    HW1 2504   1.763   1.288   6.257
  724SOL    HW2 2505   1.619   1.364   6.274
  725SOL     OW 2506   1.390   0.575   5.664
  725SOL    HW1 2507   1.336   0.554   5.745
  725SOL    HW2 2508   1.481   0.534   5.673
  726SOL     OW 2509   0.527   0.256   5.914
  726SOL    HW1 2510   0.554   0.197   5.839
  726SOL    HW2 2511   0.527   0.351   5.883
  727SOL     OW 2512   1.754   1.223   7.174
  727SOL    HW1 2513   1.845   1.184   7.161
  727SOL    HW2 2514   1.762   1.319   7.198
  728SOL     OW 2515   1.064   1.347   6.926
  728SOL    HW1 2516   0.984   1.324   6.981
  728SOL    HW2 2517   1.147   1.321   6.975
  729SOL     OW 2518   1.111   1.195   6.686
  729SOL    HW1 2519   1.071   1.239   6.767
  729SOL    HW2 2520   1.070   1.232   6.603
  730SOL     OW 2521   1.638   1.099   6.665
  730SOL    HW1 2522   1.643   1.180   6.724
  730SOL    HW2 2523   1.552   1.101   6.614
  731SOL     OW 2524   0.915   0.089   6.988
  731SOL    HW1 2525   0.940   0.069   6.893
  731SOL    HW2 2526   0.987   0.145   7.030
  732SOL     OW 2527   0.980   1.116   7.305
  732SOL    HW1 2528   0.881   1.122   7.315
  732SOL    HW2 2529   1.003   1.036   7.249
  733SOL     OW 2530   0.705   1.050   5.954
  733SOL    HW1 2531   0.691   1.057   6.053
  733SOL    HW2 2532   0.789   0.999   5.936
  734SOL     OW 2533   0.410   0.813   6.837
  734SOL    HW1 2534   0.496   0.825   6.887
  734SOL    HW2 2535   0.368   0.726   6.864
  735SOL     OW 2536   1.274   0.386   6.848
  735SOL    HW1 2537   1.295   0.460   6.912
  735SOL    HW2 2538   1.185   0.403   6.805
  736SOL     OW 2539   0.064   1.564   6.917
  736SOL    HW1 2540   0.018   1.646   6.883
  736SOL    HW2 2541   0.162   1.583   6.926
  737SOL     OW 2542   0.367   1.100   6.087
  737SOL    HW1 2543   0.360   1.183   6.031
  737SOL    HW2 2544   0.371   1.020   6.027
  738SOL     OW 2545   0.566   0.537   6.451
  738SOL    HW1 2546   0.578   0.603   6.377
  738SOL    HW2 2547   0.612   0.571   6.534
  739SOL     OW 2548   1.252   1.348   5.974
  739SOL    HW1 2549   1.302   1.425   6.014
  739SOL    HW2 2550   1.157   1.350   6.006
  740SOL     OW 2551   1.272   1.445   6.728
  740SOL    HW1 2552   1.319   1.458   6.815
  740SOL    HW2 2553   1.206   1.371   6.737
  741SOL     OW 2554   1.582   0.639   6.058
  741SOL    HW1 2555   1.551   0.700   6.131
  741SOL    HW2 2556   1.632   0.691   5.989
  742SOL     OW 2557   0.354   1.510   6.915
  742SOL    HW1 2558   0.333   1.466   6.828
  742SOL    HW2 2559   0.451   1.536   6.918
  743SOL     OW 2560   0.402   0.751   7.184
  743SOL    HW1 2561   0.470   0.806   7.137
  743SOL    HW2 2562   0.442   0.663   7.211
  744SOL     OW 2563   1.587   0.779   7.256
  744SOL    HW1 2564   1.495   0.817   7.251
  744SOL    HW2 2565   1.647   0.826   7.191
  745SOL     OW 2566   1.013   0.105   7.356
  745SOL    HW1 2567   1.019   0.190   7.304
  745SOL    HW2 2568   1.045   0.029   7.299
  746SOL     OW 2569   0.504   0.050   7.326
  746SOL    HW1 2570   0.462  -0.007   7.256
  746SOL    HW2 2571   0.438   0.119   7.358
  747SOL     OW 2572   0.573   0.870   6.615
  747SOL    HW1 2573   0.617   0.959   6.606
  747SOL    HW2 2574   0.510   0.870   6.692
  748SOL     OW 2575   1.360   0.862   6.631
  748SOL    HW1 2576   1.285   0.862   6.565
  748SOL    HW2 2577   1.397   0.770   6.640
  749SOL     OW 2578   1.209   0.525   5.861
  749SOL    HW1 2579   1.222   0.441   5.915
  749SOL    HW2 2580   1.180   0.599   5.921
  750SOL     OW 2581   0.307   0.213   6.817
  750SOL    HW1 2582   0.284   0.250   6.907
  750SOL    HW2 2583   0.277   0.118   6.811
  751SOL     OW 2584   0.037   1.310   6.868
  751SOL    HW1 2585   0.090   1.261   6.936
  751SOL    HW2 2586   0.059   1.408   6.873
  752SOL     OW 2587   0.732   0.634   6.650
  752SOL    HW1 2588   0.791   0.608   6.574
  752SOL    HW2 2589   0.704   0.730   6.639
  753SOL     OW 2590   1.728   0.935   7.440
  753SOL    HW1 2591   1.682   0.928   7.351
  753SOL    HW2 2592   1.666   0.979   7.506
  754SOL     OW 2593   0.307   0.063   6.204
  754SOL    HW1 2594   0.296   0.157   6.237
  754SOL    HW2 2595   0.302   0.000   6.281
  755SOL     OW 2596   1.622   0.367   5.960
  755SOL    HW1 2597   1.624   0.291   6.024
  755SOL    HW2 2598   1.574   0.444   6.000
  756SOL     OW 2599   1.023   0.766   6.552
  756SOL    HW1 2600   1.038   0.787   6.648
  756SOL    HW2 2601   0.993   0.671   6.543
  757SOL     OW 2602   0.980   1.573   7.286
  757SOL    HW1 2603   0.960   1.617   7.198
  757SOL    HW2 2604   1.019   1.482   7.270
  758SOL     OW 2605   0.350   0.898   7.390
  758SOL    HW1 2606   0.426   0.942   7.438
  758SOL    HW2 2607   0.385   0.851   7.308
  759SOL     OW 2608   1.540   0.274   5.711
  759SOL    HW1 2609   1.479   0.199   5.734
  759SOL    HW2 2610   1.562   0.326   5.794
  760SOL     OW 2611   1.303   0.838   5.628
  760SOL    HW1 2612   1.337   0.745   5.643
  760SOL    HW2 2613   1.321   0.865   5.533
  761SOL     OW 2614   1.068   1.333   6.435
  761SOL    HW1 2615   1.075   1.249   6.380
  761SOL    HW2 2616   1.130   1.402   6.399
  762SOL     OW 2617   0.319   0.810   6.535
  762SOL    HW1 2618   0.412   0.846   6.540
  762SOL    HW2 2619   0.313   0.725   6.587
  763SOL     OW 2620   0.339   0.509   6.592
  763SOL    HW1 2621   0.287   0.426   6.575
  763SOL    HW2 2622   0.416   0.514   6.528
  764SOL     OW 2623   1.138   0.380   7.264
  764SOL    HW1 2624   1.093   0.443   7.328
  764SOL    HW2 2625   1.231   0.411   7.247
  765SOL     OW 2626   1.160   0.207   7.063
  765SOL    HW1 2627   1.160   0.271   7.140
  765SOL    HW2 2628   1.188   0.255   6.980
  766SOL     OW 2629   0.008   1.326   5.786
  766SOL    HW1 2630  -0.085   1.347   5.755
  766SOL    HW2 2631   0.018   1.227   5.799
  767SOL     OW 2632   0.088   1.801   6.513
  767SOL    HW1 2633   0.046   1.715   6.486
  767SOL    HW2 2634   0.182   1.804   6.479
  768SOL     OW 2635   0.504   1.568   6.496
  768SOL    HW1 2636   0.570   1.642   6.505
  768SOL    HW2 2637   0.548   1.489   6.454
  769SOL     OW 2638   1.002   0.796   6.824
  769SOL    HW1 2639   1.043   0.764   6.910
  769SOL    HW2 2640   0.906   0.769   6.821
  770SOL     OW 2641   0.040   0.544   6.700
  770SOL    HW1 2642   0.125   0.511   6.659
  770SOL    HW2 2643   0.053   0.559   6.798
  771SOL     OW 2644   0.189   0.520   7.308
  771SOL    HW1 2645   0.248   0.480   7.238
  771SOL    HW2 2646   0.131   0.591   7.267
  772SOL     OW 2647   1.369   0.950   7.246
  772SOL    HW1 2648   1.408   1.039   7.266
  772SOL    HW2 2649   1.379   0.930   7.149
  773SOL     OW 2650   0.815   0.572   5.911
  773SOL    HW1 2651   0.822   0.483   5.865
  773SOL    HW2 2652   0.721   0.606   5.903
  774SOL     OW 2653   1.657   0.604   6.792
  774SOL    HW1 2654   1.619   0.535   6.854
  774SOL    HW2 2655   1.739   0.568   6.748
  775SOL     OW 2656   0.252   1.564   7.330
  775SOL    HW1 2657   0.222   1.621   7.406
  775SOL    HW2 2658   0.245   1.467   7.356
  776SOL     OW 2659   0.671   0.464   6.855
  776SOL    HW1 2660   0.637   0.375   6.825
  776SOL    HW2 2661   0.697   0.518   6.775
  777SOL     OW 2662   0.930   1.678   7.051
  777SOL    HW1 2663   0.906   1.660   6.956
  777SOL    HW2 2664   0.960   1.772   7.061
  778SOL     OW 2665   0.473   0.500   5.777
  778SOL    HW1 2666   0.534   0.580   5.781
  778SOL    HW2 2667   0.378   0.531   5.784
  779SOL     OW 2668   0.159   1.137   7.052
  779SOL    HW1 2669   0.181   1.076   7.128
  779SOL    HW2 2670   0.169   1.088   6.966
  780SOL     OW 2671   1.347   1.059   6.820
  780SOL    HW1 2672   1.371   0.996   6.746
  780SOL    HW2 2673   1.257   1.099   6.802
  781SOL     OW 2674   1.302   0.855   5.895
  781SOL    HW1 2675   1.216   0.824   5.937
  781SOL    HW2 2676   1.298   0.841   5.796
  782SOL     OW 2677   1.252   1.731   6.714
  782SOL    HW1 2678   1.336   1.736   6.660
  782SOL    HW2 2679   1.229   1.635   6.732
  783SOL     OW 2680   0.083   1.258   6.608
  783SOL    HW1 2681   0.078   1.257   6.708
  783SOL    HW2 2682   0.000   1.217   6.570
  784SOL     OW 2683   0.688   1.662   7.302
  784SOL    HW1 2684   0.632   1.743   7.311
  784SOL    HW2 2685   0.740   1.666   7.216
  785SOL     OW 2686   1.726   0.135   6.109
  785SOL    HW1 2687   1.799   0.118   6.042
  785SOL    HW2 2688   1.695   0.048   6.147
  786SOL     OW 2689   1.388   1.573   6.063
  786SOL    HW1 2690   1.455   1.585   5.989
  786SOL    HW2 2691   1.348   1.662   6.086
  787SOL     OW 2692   0.130   1.794   7.437
  787SOL    HW1 2693   0.089   1.720   7.490
  787SOL    HW2 2694   0.194   1.845   7.495
  788SOL     OW 2695   1.280   0.927   6.258
  788SOL    HW1 2696   1.340   0.846   6.260
  788SOL    HW2 2697   1.320   0.996   6.198
  789SOL     OW 2698   0.830   1.273   7.008
  789SOL    HW1 2699   0.825   1.306   7.103
  789SOL    HW2 2700   0.744   1.292   6.962
  790SOL     OW 2701   0.672   1.616   5.740
  790SOL    HW1 2702   0.681   1.626   5.641
  790SOL    HW2 2703   0.632   1.527   5.761
  791SOL     OW 2704   1.841   0.175   6.549
  791SOL    HW1 2705   1.880   0.090   6.513
  791SOL    HW2 2706   1.743   0.177   6.530
  792SOL     OW 2707   0.263   0.326   6.306
  792SOL    HW1 2708   0.184   0.377   6.272
  792SOL    HW2 2709   0.254   0.311   6.404
  793SOL     OW 2710   1.194   1.612   5.617
  793SOL    HW1 2711   1.200   1.519   5.654
  793SOL    HW2 2712   1.135   1.612   5.537
  794SOL     OW 2713   0.822   1.002   6.958
  794SOL    HW1 2714   0.862   1.001   6.866
  794SOL    HW2 2715   0.832   1.094   6.998
  795SOL     OW 2716   0.916   0.910   5.877
  795SOL    HW1 2717   0.979   0.948   5.809
  795SOL    HW2 2718   0.956   0.827   5.916
  796SOL     OW 2719   1.504   1.607   5.630
  796SOL    HW1 2720   1.412   1.644   5.637
  796SOL    HW2 2721   1.542   1.627   5.540
  797SOL     OW 2722   0.372   1.288   7.076
  797SOL    HW1 2723   0.359   1.381   7.042
  797SOL    HW2 2724   0.288   1.236   7.063
  798SOL     OW 2725   1.614   1.292   6.875
  798SOL    HW1 2726   1.674   1.295   6.955
  798SOL    HW2 2727   1.539   1.356   6.888
  799SOL     OW 2728   1.039   1.098   6.282
  799SOL    HW1 2729   0.969   1.051   6.336
  799SOL    HW2 2730   1.098   1.030   6.239
  800SOL     OW 2731   1.014   0.236   6.557
  800SOL    HW1 2732   1.006   0.200   6.464
  800SOL    HW2 2733   1.012   0.160   6.622
  801SOL     OW 2734   0.590   1.487   6.077
  801SOL    HW1 2735   0.632   1.429   6.007
  801SOL    HW2 2736   0.546   1.566   6.033
  802SOL     OW 2737   1.709   0.385   6.967
  802SOL    HW1 2738   1.782   0.454   6.971
  802SOL    HW2 2739   1.737   0.310   6.908
  803SOL     OW 2740   0.255   1.348   5.876
  803SOL    HW1 2741   0.159   1.349   5.849
  803SOL    HW2 2742   0.267   1.401   5.960
  804SOL     OW 2743   0.105   1.013   7.312
  804SOL    HW1 2744   0.028   0.980   7.366
  804SOL    HW2 2745   0.190   0.983   7.354
  805SOL     OW 2746   0.672   0.203   7.075
  805SOL    HW1 2747   0.762   0.187   7.035
  805SOL    HW2 2748   0.680   0.208   7.174
  806SOL     OW 2749   0.075   0.345   5.619
  806SOL    HW1 2750  -0.017   0.317   5.590
  806SOL    HW2 2751   0.106   0.422   5.563
  807SOL     OW 2752   1.440   0.856   6.984
  807SOL    HW1 2753   1.383   0.908   6.921
  807SOL    HW2 2754   1.536   0.868   6.960
  808SOL     OW 2755   0.072   0.166   5.904
  808SOL    HW1 2756   0.055   0.249   5.850
  808SOL    HW2 2757   0.162   0.129   5.882
  809SOL     OW 2758   1.183   1.335   5.705
  809SOL    HW1 2759   1.084   1.324   5.707
  809SOL    HW2 2760   1.217   1.350   5.798
  810SOL     OW 2761   0.613   0.842   7.017
  810SOL    HW1 2762   0.669   0.923   7.000
  810SOL    HW2 2763   0.672   0.762   7.020
  811SOL     OW 2764   0.716   0.565   7.294
  811SOL    HW1 2765   0.735   0.630   7.368
  811SOL    HW2 2766   0.776   0.485   7.303
  812SOL     OW 2767   1.450   1.220   7.219
  812SOL    HW1 2768   1.441   1.210   7.318
  812SOL    HW2 2769   1.546   1.213   7.193
  813SOL     OW 2770   0.390   1.741   7.146
  813SOL    HW1 2771   0.299   1.782   7.144
  813SOL    HW2 2772   0.383   1.647   7.178
  814SOL     OW 2773   1.674   0.883   6.840
  814SOL    HW1 2774   1.647   0.794   6.803
  814SOL    HW2 2775   1.675   0.951   6.767
  815SOL     OW 2776   1.225   0.325   6.035
  815SOL    HW1 2777   1.290   0.251   6.024
  815SOL    HW2 2778   1.245   0.375   6.119
  816SOL     OW 2779   0.594   0.745   6.238
  816SOL    HW1 2780   0.644   0.830   6.219
  816SOL    HW2 2781   0.506   0.747   6.190
  817SOL     OW 2782   1.777   0.342   7.228
  817SOL    HW1 2783   1.760   0.373   7.134
  817SOL    HW2 2784   1.693   0.305   7.266
  818SOL     OW 2785   1.730   0.934   7.103
  818SOL    HW1 2786   1.768   1.025   7.118
  818SOL    HW2 2787   1.722   0.917   7.004
  819SOL     OW 2788   0.859   1.374   5.602
  819SOL    HW1 2789   0.813   1.389   5.690
  819SOL    HW2 2790   0.903   1.459   5.572
  820SOL     OW 2791   0.661   1.790   6.539
  820SOL    HW1 2792   0.615   1.878   6.526
  820SOL    HW2 2793   0.760   1.802   6.532
  821SOL     OW 2794   0.859   0.956   6.447
  821SOL    HW1 2795   0.913   0.887   6.495
  821SOL    HW2 2796   0.827   1.025   6.513
  822SOL     OW 2797   1.083   0.984   5.673
  822SOL    HW1 2798   1.060   1.037   5.591
  822SOL    HW2 2799   1.164   0.928   5.654
  823SOL     OW 2800   1.861   1.569   6.437
  823SOL    HW1 2801   1.790   1.557   6.367
  823SOL    HW2 2802   1.862   1.490   6.497
  824SOL     OW 2803   0.221   1.314   7.430
  824SOL    HW1 2804   0.156   1.241   7.409
  824SOL    HW2 2805   0.225   1.328   7.528
  825SOL     OW 2806   0.079   1.240   6.239
  825SOL    HW1 2807   0.078   1.193   6.327
  825SOL    HW2 2808   0.161   1.212   6.188
  826SOL     OW 2809   0.672   1.391   7.210
  826SOL    HW1 2810   0.594   1.341   7.248
  826SOL    HW2 2811   0.669   1.486   7.241
  827SOL     OW 2812   1.824   0.192   6.813
  827SOL    HW1 2813   1.820   0.102   6.857
  827SOL    HW2 2814   1.827   0.181   6.714
  828SOL     OW 2815   0.428   0.424   6.106
  828SOL    HW1 2816   0.458   0.352   6.044
  828SOL    HW2 2817   0.389   0.384   6.189
  829SOL     OW 2818   0.317   0.547   6.866
  829SOL    HW1 2819   0.355   0.488   6.938
  829SOL    HW2 2820   0.357   0.521   6.778
  830SOL     OW 2821   0.812   1.586   6.273
  830SOL    HW1 2822   0.844   1.596   6.179
  830SOL    HW2 2823   0.733   1.524   6.275
  831SOL     OW 2824   1.424   0.214   6.698
  831SOL    HW1 2825   1.476   0.149   6.753
  831SOL    HW2 2826   1.375   0.277   6.759
  832SOL     OW 2827   1.001   0.034   6.740
  832SOL    HW1 2828   0.938  -0.038   6.709
  832SOL    HW2 2829   1.094  -0.002   6.740
  833SOL     OW 2830   0.770   1.330   5.887
  833SOL    HW1 2831   0.724   1.243   5.904
  833SOL    HW2 2832   0.861   1.327   5.928
  834SOL     OW 2833   0.618   1.567   6.870
  834SOL    HW1 2834   0.613   1.649   6.927
  834SOL    HW2 2835   0.707   1.564   6.825
  835SOL     OW 2836   1.352   0.052   5.754
  835SOL    HW1 2837   1.387   0.011   5.670
  835SOL    HW2 2838   1.262   0.014   5.774
  836SOL     OW 2839   1.300   0.453   6.277
  836SOL    HW1 2840   1.241   0.533   6.281
  836SOL    HW2 2841   1.315   0.418   6.370
  837SOL     OW 2842   1.593   0.221   6.468
  837SOL    HW1 2843   1.509   0.220   6.522
  837SOL    HW2 2844   1.595   0.304   6.412
  838SOL     OW 2845   0.039   1.077   5.886
  838SOL    HW1 2846   0.138   1.066   5.877
  838SOL    HW2 2847  -0.001   0.991   5.918
  839SOL     OW 2848   0.875   1.646   5.923
  839SOL    HW1 2849   0.798   1.611   5.869
  839SOL    HW2 2850   0.843   1.717   5.985
  840SOL     OW 2851   0.230   0.628   7.561
  840SOL    HW1 2852   0.137   0.626   7.598
  840SOL    HW2 2853   0.231   0.589   7.469
  841SOL     OW 2854   0.225   0.275   8.444
  841SOL    HW1 2855   0.260   0.258   8.536
  841SOL    HW2 2856   0.137   0.230   8.432
  842SOL     OW 2857   0.019   0.368   8.095
  842SOL    HW1 2858  -0.063   0.411   8.134
  842SOL    HW2 2859  -0.009   0.295   8.032
  843SOL     OW 2860   0.569   1.275   8.613
  843SOL    HW1 2861   0.476   1.268   8.576
  843SOL    HW2 2862   0.580   1.364   8.657
  844SOL     OW 2863   1.555   1.511   8.151
  844SOL    HW1 2864   1.498   1.495   8.232
  844SOL    HW2 2865   1.496   1.521   8.071
  845SOL     OW 2866   1.135   0.703   8.165
  845SOL    HW1 2867   1.192   0.781   8.140
  845SOL    HW2 2868   1.075   0.729   8.241
  846SOL     OW 2869   1.755   0.607   7.679
  846SOL    HW1 2870   1.743   0.594   7.580
  846SOL    HW2 2871   1.725   0.526   7.728
  847SOL     OW 2872   0.768   1.144   8.471
  847SOL    HW1 2873   0.690   1.161   8.531
  847SOL    HW2 2874   0.802   1.231   8.435
  848SOL     OW 2875   0.850   0.798   9.271
  848SOL    HW1 2876   0.846   0.874   9.336
  848SOL    HW2 2877   0.872   0.834   9.180
  849SOL     OW 2878   0.685   1.012   8.113
  849SOL    HW1 2879   0.754   0.996   8.183
  849SOL    HW2 2880   0.612   1.069   8.151
  850SOL     OW 2881   0.686   1.161   9.251
  850SOL    HW1 2882   0.746   1.240   9.265
  850SOL    HW2 2883   0.600   1.192   9.210
  851SOL     OW 2884   0.335   1.435   8.509
  851SOL    HW1 2885   0.257   1.404   8.456
  851SOL    HW2 2886   0.393   1.493   8.452
  852SOL     OW 2887   1.460   1.505   8.787
  852SOL    HW1 2888   1.484   1.599   8.813
  852SOL    HW2 2889   1.444   1.451   8.869
  853SOL     OW 2890   0.438   0.392   8.947
  853SOL    HW1 2891   0.520   0.336   8.956
  853SOL    HW2 2892   0.357   0.334   8.951
  854SOL     OW 2893   1.603   0.447   8.185
  854SOL    HW1 2894   1.529   0.493   8.135
  854SOL    HW2 2895   1.654   0.515   8.238
  855SOL     OW 2896   0.231   1.713   7.931
  855SOL    HW1 2897   0.265   1.790   7.985
  855SOL    HW2 2898   0.275   1.713   7.841
  856SOL     OW 2899   1.127   1.341   9.138
  856SOL    HW1 2900   1.174   1.341   9.226
  856SOL    HW2 2901   1.079   1.254   9.127
  857SOL     OW 2902   0.230   1.434   7.986
  857SOL    HW1 2903   0.204   1.530   7.986
  857SOL    HW2 2904   0.159   1.380   8.031
  858SOL     OW 2905   0.240   1.091   8.334
  858SOL    HW1 2906   0.254   1.007   8.386
  858SOL    HW2 2907   0.185   1.155   8.389
  859SOL     OW 2908   0.620   1.786   8.887
  859SOL    HW1 2909   0.528   1.769   8.922
  859SOL    HW2 2910   0.648   1.878   8.913
  860SOL     OW 2911   0.606   0.964   7.571
  860SOL    HW1 2912   0.613   1.048   7.517
  860SOL    HW2 2913   0.652   0.977   7.659
  861SOL     OW 2914   1.594   0.114   8.928
  861SOL    HW1 2915   1.576   0.181   8.856
  861SOL    HW2 2916   1.591   0.160   9.017
  862SOL     OW 2917   0.122   0.643   8.011
  862SOL    HW1 2918   0.077   0.555   8.028
  862SOL    HW2 2919   0.121   0.697   8.095
  863SOL     OW 2920   0.027   1.596   7.565
  863SOL    HW1 2921   0.008   1.500   7.586
  863SOL    HW2 2922  -0.006   1.654   7.640
  864SOL     OW 2923   1.689   0.922   8.060
  864SOL    HW1 2924   1.784   0.893   8.068
  864SOL    HW2 2925   1.681   0.987   7.985
  865SOL     OW 2926   1.641   1.108   7.880
  865SOL    HW1 2927   1.727   1.110   7.828
  865SOL    HW2 2928   1.655   1.155   7.968
  866SOL     OW 2929   0.113   0.737   9.045
  866SOL    HW1 2930   0.201   0.724   9.090
  866SOL    HW2 2931   0.100   0.834   9.023
  867SOL     OW 2932   0.613   1.365   8.174
  867SOL    HW1 2933   0.564   1.278   8.183
  867SOL    HW2 2934   0.590   1.408   8.087
  868SOL     OW 2935   1.293   1.228   8.871
  868SOL    HW1 2936   1.330   1.155   8.813
  868SOL    HW2 2937   1.345   1.233   8.956
  869SOL     OW 2938   0.809   0.004   7.950
  869SOL    HW1 2939   0.849   0.095   7.941
  869SOL    HW2 2940   0.709   0.012   7.956
  870SOL     OW 2941   0.197   0.976   8.712
  870SOL    HW1 2942   0.286   0.931   8.698
  870SOL    HW2 2943   0.124   0.911   8.693
  871SOL     OW 2944   1.525   0.999   7.638
  871SOL    HW1 2945   1.462   0.923   7.651
  871SOL    HW2 2946   1.573   1.017   7.724
  872SOL     OW 2947   1.187   1.792   9.064
  872SOL    HW1 2948   1.211   1.852   8.988
  872SOL    HW2 2949   1.194   1.697   9.034
  873SOL     OW 2950   0.317   0.251   9.249
  873SOL    HW1 2951   0.388   0.322   9.255
  873SOL    HW2 2952   0.229   0.290   9.277
  874SOL     OW 2953   1.466   1.417   8.401
  874SOL    HW1 2954   1.407   1.423   8.481
  874SOL    HW2 2955   1.451   1.329   8.355
  875SOL     OW 2956   1.667   1.714   8.020
  875SOL    HW1 2957   1.626   1.691   7.932
  875SOL    HW2 2958   1.649   1.640   8.085
  876SOL     OW 2959   0.598   0.729   7.718
  876SOL    HW1 2960   0.622   0.798   7.650
  876SOL    HW2 2961   0.520   0.762   7.772
  877SOL     OW 2962   1.281   0.345   8.392
  877SOL    HW1 2963   1.195   0.295   8.379
  877SOL    HW2 2964   1.343   0.291   8.448
  878SOL     OW 2965   1.576   1.662   7.755
  878SOL    HW1 2966   1.665   1.708   7.758
  878SOL    HW2 2967   1.555   1.638   7.660
  879SOL     OW 2968   0.807   0.605   8.913
  879SOL    HW1 2969   0.760   0.602   9.002
  879SOL    HW2 2970   0.756   0.550   8.847
  880SOL     OW 2971   1.394   0.469   9.122
  880SOL    HW1 2972   1.374   0.512   9.210
  880SOL    HW2 2973   1.472   0.407   9.131
  881SOL     OW 2974   0.973   0.890   9.020
  881SOL    HW1 2975   1.019   0.806   8.991
  881SOL    HW2 2976   0.917   0.924   8.945
  882SOL     OW 2977   0.991   0.410   8.690
  882SOL    HW1 2978   0.914   0.444   8.744
  882SOL    HW2 2979   0.957   0.359   8.611
  883SOL     OW 2980   1.041   0.701   7.877
  883SOL    HW1 2981   1.067   0.697   7.973
  883SOL    HW2 2982   0.956   0.650   7.863
  884SOL     OW 2983   0.076   0.811   8.237
  884SOL    HW1 2984   0.175   0.799   8.246
  884SOL    HW2 2985   0.052   0.906   8.258
  885SOL     OW 2986   0.130   1.821   9.019
  885SOL    HW1 2987   0.120   1.806   9.118
  885SOL    HW2 2988   0.044   1.857   8.983
  886SOL     OW 2989   0.865   0.348   7.643
  886SOL    HW1 2990   0.924   0.411   7.594
  886SOL    HW2 2991   0.884   0.254   7.614
  887SOL     OW 2992   1.719   0.585   9.279
  887SOL    HW1 2993   1.693   0.674   9.243
  887SOL    HW2 2994   1.717   0.517   9.206
  888SOL     OW 2995   1.362   1.144   7.993
  888SOL    HW1 2996   1.445   1.115   7.945
  888SOL    HW2 2997   1.313   1.211   7.937
  889SOL     OW 2998   0.550   0.196   8.333
  889SOL    HW1 2999   0.545   0.191   8.433
  889SOL    HW2 3000   0.552   0.292   8.304
  890SOL     OW 3001   1.008   1.456   7.925
  890SOL    HW1 3002   0.962   1.528   7.873
  890SOL    HW2 3003   1.004   1.476   8.023
  891SOL     OW 3004   0.351   1.801   8.301
  891SOL    HW1 3005   0.401   1.715   8.307
  891SOL    HW2 3006   0.416   1.878   8.298
  892SOL     OW 3007   1.795   1.066   8.321
  892SOL    HW1 3008   1.733   1.051   8.245
  892SOL    HW2 3009   1.743   1.077   8.406
  893SOL     OW 3010   1.227   1.550   8.954
  893SOL    HW1 3011   1.233   1.473   9.018
  893SOL    HW2 3012   1.175   1.524   8.874
  894SOL     OW 3013   0.321   0.943   7.690
  894SOL    HW1 3014   0.403   0.982   7.648
  894SOL    HW2 3015   0.294   0.861   7.641
  895SOL     OW 3016   1.458   0.735   8.176
  895SOL    HW1 3017   1.453   0.670   8.251
  895SOL    HW2 3018   1.538   0.794   8.189
  896SOL     OW 3019   0.461   1.266   9.175
  896SOL    HW1 3020   0.411   1.267   9.089
  896SOL    HW2 3021   0.398   1.248   9.251
  897SOL     OW 3022   1.111   1.776   7.685
  897SOL    HW1 3023   1.051   1.714   7.735
  897SOL    HW2 3024   1.142   1.732   7.600
  898SOL     OW 3025   0.202   0.285   8.946
  898SOL    HW1 3026   0.122   0.345   8.933
  898SOL    HW2 3027   0.192   0.236   9.032
  899SOL     OW 3028   1.632   1.377   7.529
  899SOL    HW1 3029   1.600   1.471   7.519
  899SOL    HW2 3030   1.556   1.314   7.517
  900SOL     OW 3031   0.464   1.743   7.771
  900SOL    HW1 3032   0.497   1.782   7.857
  900SOL    HW2 3033   0.540   1.736   7.706
  901SOL     OW 3034   1.400   0.107   7.874
  901SOL    HW1 3035   1.376   0.070   7.784
  901SOL    HW2 3036   1.499   0.123   7.878
  902SOL     OW 3037   0.249   1.785   8.689
  902SOL    HW1 3038   0.306   1.720   8.739
  902SOL    HW2 3039   0.233   1.752   8.596
  903SOL     OW 3040   0.940   1.698   8.352
  903SOL    HW1 3041   1.020   1.641   8.373
  903SOL    HW2 3042   0.891   1.658   8.275
  904SOL     OW 3043   0.382   0.700   7.928
  904SOL    HW1 3044   0.427   0.610   7.925
  904SOL    HW2 3045   0.288   0.689   7.961
  905SOL     OW 3046   1.547   0.222   9.177
  905SOL    HW1 3047   1.542   0.259   9.269
  905SOL    HW2 3048   1.475   0.153   9.165
  906SOL     OW 3049   0.614   0.122   7.565
  906SOL    HW1 3050   0.712   0.100   7.572
  906SOL    HW2 3051   0.583   0.105   7.472
  907SOL     OW 3052   0.781   0.264   9.197
  907SOL    HW1 3053   0.848   0.203   9.240
  907SOL    HW2 3054   0.708   0.283   9.262
  908SOL     OW 3055   0.888   1.514   8.643
  908SOL    HW1 3056   0.865   1.489   8.549
  908SOL    HW2 3057   0.949   1.445   8.682
  909SOL     OW 3058   1.351   0.590   8.881
  909SOL    HW1 3059   1.379   0.547   8.966
  909SOL    HW2 3060   1.376   0.686   8.882
  910SOL     OW 3061   0.803   1.402   8.372
  910SOL    HW1 3062   0.893   1.416   8.330
  910SOL    HW2 3063   0.732   1.404   8.301
  911SOL     OW 3064   0.922   0.503   8.347
  911SOL    HW1 3065   0.897   0.494   8.251
  911SOL    HW2 3066   0.970   0.421   8.378
  912SOL     OW 3067   0.539   0.064   7.960
  912SOL    HW1 3068   0.458   0.065   8.018
  912SOL    HW2 3069   0.542   0.147   7.905
  913SOL     OW 3070   1.434   1.188   7.489
  913SOL    HW1 3071   1.466   1.112   7.546
  913SOL    HW2 3072   1.342   1.215   7.519
  914SOL     OW 3073   0.297   0.035   7.619
  914SOL    HW1 3074   0.346   0.119   7.598
  914SOL    HW2 3075   0.359  -0.030   7.664
  915SOL     OW 3076   0.935   0.236   7.928
  915SOL    HW1 3077   0.887   0.277   7.850
  915SOL    HW2 3078   1.034   0.234   7.909
  916SOL     OW 3079   1.076   0.683   8.912
  916SOL    HW1 3080   0.996   0.622   8.915
  916SOL    HW2 3081   1.157   0.630   8.888
  917SOL     OW 3082   1.227   1.570   8.241
  917SOL    HW1 3083   1.248   1.644   8.176
  917SOL    HW2 3084   1.295   1.570   8.314
  918SOL     OW 3085   0.459   1.152   8.189
  918SOL    HW1 3086   0.388   1.125   8.254
  918SOL    HW2 3087   0.433   1.124   8.096
  919SOL     OW 3088   1.271   1.797   8.039
  919SOL    HW1 3089   1.315   1.861   7.975
  919SOL    HW2 3090   1.221   1.849   8.109
  920SOL     OW 3091   1.032   0.549   7.464
  920SOL    HW1 3092   0.991   0.631   7.425
  920SOL    HW2 3093   1.096   0.575   7.537
  921SOL     OW 3094   0.078   0.556   8.834
  921SOL    HW1 3095   0.170   0.555   8.793
  921SOL    HW2 3096   0.072   0.630   8.901
  922SOL     OW 3097   0.561   0.222   8.595
  922SOL    HW1 3098   0.599   0.138   8.632
  922SOL    HW2 3099   0.473   0.241   8.639
  923SOL     OW 3100   0.866   0.454   8.090
  923SOL    HW1 3101   0.834   0.526   8.028
  923SOL    HW2 3102   0.890   0.373   8.037
  924SOL     OW 3103   1.017   0.039   8.201
  924SOL    HW1 3104   0.945   0.044   8.132
  924SOL    HW2 3105   0.993  -0.030   8.270
  925SOL     OW 3106   1.429   1.173   8.315
  925SOL    HW1 3107   1.374   1.089   8.308
  925SOL    HW2 3108   1.455   1.202   8.223
  926SOL     OW 3109   1.466   0.590   8.440
  926SOL    HW1 3110   1.436   0.495   8.447
  926SOL    HW2 3111   1.539   0.606   8.506
  927SOL     OW 3112   1.857   0.833   7.825
  927SOL    HW1 3113   1.899   0.769   7.889
  927SOL    HW2 3114   1.819   0.782   7.747
  928SOL     OW 3115   0.488   1.385   7.622
  928SOL    HW1 3116   0.401   1.370   7.669
  928SOL    HW2 3117   0.471   1.411   7.527
  929SOL     OW 3118   1.664   1.280   8.105
  929SOL    HW1 3119   1.763   1.288   8.119
  929SOL    HW2 3120   1.619   1.364   8.136
  930SOL     OW 3121   1.390   0.575   7.526
  930SOL    HW1 3122   1.336   0.554   7.607
  930SOL    HW2 3123   1.481   0.534   7.535
  931SOL     OW 3124   0.527   0.256   7.776
  931SOL    HW1 3125   0.554   0.197   7.701
  931SOL    HW2 3126   0.527   0.351   7.745
  932SOL     OW 3127   1.754   1.223   9.036
  932SOL    HW1 3128   1.845   1.184   9.023
  932SOL    HW2 3129   1.762   1.319   9.060
  933SOL     OW 3130   1.064   1.347   8.788
  933SOL    HW1 3131   0.984   1.324   8.843
  933SOL    HW2 3132   1.147   1.321   8.837
  934SOL     OW 3133   1.592   1.629   9.073
  934SOL    HW1 3134   1.619   1.663   8.983
  934SOL    HW2 3135   1.671   1.591   9.119
  935SOL     OW 3136   1.111   1.195   8.548
  935SOL    HW1 3137   1.071   1.239   8.629
  935SOL    HW2 3138   1.070   1.232   8.465
  936SOL     OW 3139   1.638   1.099   8.527
  936SOL    HW1 3140   1.643   1.180   8.586
  936SOL    HW2 3141   1.552   1.101   8.476
  937SOL     OW 3142   0.915   0.089   8.850
  937SOL    HW1 3143   0.940   0.069   8.755
  937SOL    HW2 3144   0.987   0.145   8.892
  938SOL     OW 3145   0.980   1.116   9.167
  938SOL    HW1 3146   0.881   1.122   9.177
  938SOL    HW2 3147   1.003   1.036   9.111
  939SOL     OW 3148   0.705   1.050   7.816
  939SOL    HW1 3149   0.691   1.057   7.915
  939SOL    HW2 3150   0.789   0.999   7.798
  940SOL     OW 3151   0.410   0.813   8.699
  940SOL    HW1 3152   0.496   0.825   8.749
  940SOL    HW2 3153   0.368   0.726   8.726
  941SOL     OW 3154   1.274   0.386   8.710
  941SOL    HW1 3155   1.295   0.460   8.774
  941SOL    HW2 3156   1.185   0.403   8.667
  942SOL     OW 3157   0.064   1.564   8.779
  942SOL    HW1 3158   0.018   1.646   8.745
  942SOL    HW2 3159   0.162   1.583   8.788
  943SOL     OW 3160   0.367   1.100   7.949
  943SOL    HW1 3161   0.360   1.183   7.893
  943SOL    HW2 3162   0.371   1.020   7.889
  944SOL     OW 3163   0.566   0.537   8.313
  944SOL    HW1 3164   0.578   0.603   8.239
  944SOL    HW2 3165   0.612   0.571   8.396
  945SOL     OW 3166   1.252   1.348   7.836
  945SOL    HW1 3167   1.302   1.425   7.876
  945SOL    HW2 3168   1.157   1.350   7.868
  946SOL     OW 3169   1.272   1.445   8.590
  946SOL    HW1 3170   1.319   1.458   8.677
  946SOL    HW2 3171   1.206   1.371   8.599
  947SOL     OW 3172   1.582   0.639   7.920
  947SOL    HW1 3173   1.551   0.700   7.993
  947SOL    HW2 3174   1.632   0.691   7.851
  948SOL     OW 3175   0.354   1.510   8.777
  948SOL    HW1 3176   0.333   1.466   8.690
  948SOL    HW2 3177   0.451   1.536   8.780
  949SOL     OW 3178   0.402   0.751   9.046
  949SOL    HW1 3179   0.470   0.806   8.999
  949SOL    HW2 3180   0.442   0.663   9.073
  950SOL     OW 3181   1.587   0.779   9.118
  950SOL    HW1 3182   1.495   0.817   9.113
  950SOL    HW2 3183   1.647   0.826   9.053
  951SOL     OW 3184   1.013   0.105   9.218
  951SOL    HW1 3185   1.019   0.190   9.166
  951SOL    HW2 3186   1.045   0.029   9.161
  952SOL     OW 3187   0.504   0.050   9.188
  952SOL    HW1 3188   0.462  -0.007   9.118
  952SOL    HW2 3189   0.438   0.119   9.220
  953SOL     OW 3190   0.573   0.870   8.477
  953SOL    HW1 3191   0.617   0.959   8.468
  953SOL    HW2 3192   0.510   0.870   8.554
  954SOL     OW 3193   1.360   0.862   8.493
  954SOL    HW1 3194   1.285   0.862   8.427
  954SOL    HW2 3195   1.397   0.770   8.502
  955SOL     OW 3196   1.209   0.525   7.723
  955SOL    HW1 3197   1.222   0.441   7.777
  955SOL    HW2 3198   1.180   0.599   7.783
  956SOL     OW 3199   0.307   0.213   8.679
  956SOL    HW1 3200   0.284   0.250   8.769
  956SOL    HW2 3201   0.277   0.118   8.673
  957SOL     OW 3202   0.037   1.310   8.730
  957SOL    HW1 3203   0.090   1.261   8.798
  957SOL    HW2 3204   0.059   1.408   8.735
  958SOL     OW 3205   0.732   0.634   8.512
  958SOL    HW1 3206   0.791   0.608   8.436
  958SOL    HW2 3207   0.704   0.730   8.501
  959SOL     OW 3208   1.728   0.935   9.302
  959SOL    HW1 3209   1.682   0.928   9.213
  959SOL    HW2 3210   1.666   0.979   9.368
  960SOL     OW 3211   0.307   0.063   8.066
  960SOL    HW1 3212   0.296   0.157   8.099
  960SOL    HW2 3213   0.302   0.000   8.143
  961SOL     OW 3214   1.622   0.367   7.822
  961SOL    HW1 3215   1.624   0.291   7.886
  961SOL    HW2 3216   1.574   0.444   7.862
  962SOL     OW 3217   1.023   0.766   8.414
  962SOL    HW1 3218   1.038   0.787   8.510
  962SOL    HW2 3219   0.993   0.671   8.405
  963SOL     OW 3220   0.980   1.573   9.148
  963SOL    HW1 3221   0.960   1.617   9.060
  963SOL    HW2 3222   1.019   1.482   9.132
  964SOL     OW 3223   1.859   1.518   9.053
  964SOL    HW1 3224   1.873   1.545   8.958
  964SOL    HW2 3225   1.942   1.540   9.106
  965SOL     OW 3226   0.350   0.898   9.252
  965SOL    HW1 3227   0.426   0.942   9.300
  965SOL    HW2 3228   0.385   0.851   9.170
  966SOL     OW 3229   1.540   0.274   7.573
  966SOL    HW1 3230   1.479   0.199   7.596
  966SOL    HW2 3231   1.562   0.326   7.656
  967SOL     OW 3232   1.303   0.838   7.490
  967SOL    HW1 3233   1.337   0.745   7.505
  967SOL    HW2 3234   1.321   0.865   7.395
  968SOL     OW 3235   1.068   1.333   8.297
  968SOL    HW1 3236   1.075   1.249   8.242
  968SOL    HW2 3237   1.130   1.402   8.261
  969SOL     OW 3238   0.319   0.810   8.397
  969SOL    HW1 3239   0.412   0.846   8.402
  969SOL    HW2 3240   0.313   0.725   8.449
  970SOL     OW 3241   0.339   0.509   8.454
  970SOL    HW1 3242   0.287   0.426   8.437
  970SOL    HW2 3243   0.416   0.514   8.390
  971SOL     OW 3244   1.138   0.380   9.126
  971SOL    HW1 3245   1.093   0.443   9.190
  971SOL    HW2 3246   1.231   0.411   9.109
  972SOL     OW 3247   1.160   0.207   8.925
  972SOL    HW1 3248   1.160   0.271   9.002
  972SOL    HW2 3249   1.188   0.255   8.842
  973SOL     OW 3250   0.008   1.326   7.648
  973SOL    HW1 3251  -0.085   1.347   7.617
  973SOL    HW2 3252   0.018   1.227   7.661
  974SOL     OW 3253   0.088   1.801   8.375
  974SOL    HW1 3254   0.046   1.715   8.348
  974SOL    HW2 3255   0.182   1.804   8.341
  975SOL     OW 3256   0.504   1.568   8.358
  975SOL    HW1 3257   0.570   1.642   8.367
  975SOL    HW2 3258   0.548   1.489   8.316
  976SOL     OW 3259   1.002   0.796   8.686
  976SOL    HW1 3260   1.043   0.764   8.772
  976SOL    HW2 3261   0.906   0.769   8.683
  977SOL     OW 3262   0.040   0.544   8.562
  977SOL    HW1 3263   0.125   0.511   8.521
  977SOL    HW2 3264   0.053   0.559   8.660
  978SOL     OW 3265   0.189   0.520   9.170
  978SOL    HW1 3266   0.248   0.480   9.100
  978SOL    HW2 3267   0.131   0.591   9.129
  979SOL     OW 3268   1.369   0.950   9.108
  979SOL    HW1 3269   1.408   1.039   9.128
  979SOL    HW2 3270   1.379   0.930   9.011
  980SOL     OW 3271   0.815   0.572   7.773
  980SOL    HW1 3272   0.822   0.483   7.727
  980SOL    HW2 3273   0.721   0.606   7.765
  981SOL     OW 3274   1.657   0.604   8.654
  981SOL    HW1 3275   1.619   0.535   8.716
  981SOL    HW2 3276   1.739   0.568   8.610
  982SOL     OW 3277   0.252   1.564   9.192
  982SOL    HW1 3278   0.222   1.621   9.268
  982SOL    HW2 3279   0.245   1.467   9.218
  983SOL     OW 3280   0.671   0.464   8.717
  983SOL    HW1 3281   0.637   0.375   8.687
  983SOL    HW2 3282   0.697   0.518   8.637
  984SOL     OW 3283   0.930   1.678   8.913
  984SOL    HW1 3284   0.906   1.660   8.818
  984SOL    HW2 3285   0.960   1.772   8.923
  985SOL     OW 3286   0.473   0.500   7.639
  985SOL    HW1 3287   0.534   0.580   7.643
  985SOL    HW2 3288   0.378   0.531   7.646
  986SOL     OW 3289   0.159   1.137   8.914
  986SOL    HW1 3290   0.181   1.076   8.990
  986SOL    HW2 3291   0.169   1.088   8.828
  987SOL     OW 3292   1.347   1.059   8.682
  987SOL    HW1 3293   1.371   0.996   8.608
  987SOL    HW2 3294   1.257   1.099   8.664
  988SOL     OW 3295   1.302   0.855   7.757
  988SOL    HW1 3296   1.216   0.824   7.799
  988SOL    HW2 3297   1.298   0.841   7.658
  989SOL     OW 3298   1.759   1.747   8.602
  989SOL    HW1 3299   1.820   1.777   8.529
  989SOL    HW2 3300   1.721   1.658   8.580
  990SOL     OW 3301   1.252   1.731   8.576
  990SOL    HW1 3302   1.336   1.736   8.522
  990SOL    HW2 3303   1.229   1.635   8.594
  991SOL     OW 3304   0.083   1.258   8.470
  991SOL    HW1 3305   0.078   1.257   8.570
  991SOL    HW2 3306   0.000   1.217   8.432
  992SOL     OW 3307   0.688   1.662   9.164
  992SOL    HW1 3308   0.632   1.743   9.173
  992SOL    HW2 3309   0.740   1.666   9.078
  993SOL     OW 3310   1.726   0.135   7.971
  993SOL    HW1 3311   1.799   0.118   7.904
  993SOL    HW2 3312   1.695   0.048   8.009
  994SOL     OW 3313   1.388   1.573   7.925
  994SOL    HW1 3314   1.455   1.585   7.851
  994SOL    HW2 3315   1.348   1.662   7.948
  995SOL     OW 3316   0.130   1.794   9.299
  995SOL    HW1 3317   0.089   1.720   9.352
  995SOL    HW2 3318   0.194   1.845   9.357
  996SOL     OW 3319   1.280   0.927   8.120
  996SOL    HW1 3320   1.340   0.846   8.122
  996SOL    HW2 3321   1.320   0.996   8.060
  997SOL     OW 3322   0.830   1.273   8.870
  997SOL    HW1 3323   0.825   1.306   8.965
  997SOL    HW2 3324   0.744   1.292   8.824
  998SOL     OW 3325   0.672   1.616   7.602
  998SOL    HW1 3326   0.681   1.626   7.503
  998SOL    HW2 3327   0.632   1.527   7.623
  999SOL     OW 3328   1.650   1.720   8.842
  999SOL    HW1 3329   1.703   1.730   8.758
  999SOL    HW2 3330   1.623   1.810   8.876
 1000SOL     OW 3331   1.841   0.175   8.411
 1000SOL    HW1 3332   1.880   0.090   8.375
 1000SOL    HW2 3333   1.743   0.177   8.392
 1001SOL     OW 3334   0.263   0.326   8.168
 1001SOL    HW1 3335   0.184   0.377   8.134
 1001SOL    HW2 3336   0.254   0.311   8.266
 1002SOL     OW 3337   1.194   1.612   7.479
 1002SOL    HW1 3338   1.200   1.519   7.516
 1002SOL    HW2 3339   1.135   1.612   7.399
 1003SOL     OW 3340   0.822   1.002   8.820
 1003SOL    HW1 3341   0.862   1.001   8.728
 1003SOL    HW2 3342   0.832   1.094   8.860
 1004SOL     OW 3343   0.916   0.910   7.739
 1004SOL    HW1 3344   0.979   0.948   7.671
 1004SOL    HW2 3345   0.956   0.827   7.778
 1005SOL     OW 3346   1.504   1.607   7.492
 1005SOL    HW1 3347   1.412   1.644   7.499
 1005SOL    HW2 3348   1.542   1.627   7.402
 1006SOL     OW 3349   0.372   1.288   8.938
 1006SOL    HW1 3350   0.359   1.381   8.904
 1006SOL    HW2 3351   0.288   1.236   8.925
 1007SOL     OW 3352   1.614   1.292   8.737
 1007SOL    HW1 3353   1.674   1.295   8.817
 1007SOL    HW2 3354   1.539   1.356   8.750
 1008SOL     OW 3355   1.039   1.098   8.144
 1008SOL    HW1 3356   0.969   1.051   8.198
 1008SOL    HW2 3357   1.098   1.030   8.101
 1009SOL     OW 3358   1.014   0.236   8.419
 1009SOL    HW1 3359   1.006   0.200   8.326
 1009SOL    HW2 3360   1.012   0.160   8.484
 1010SOL     OW 3361   0.590   1.487   7.939
 1010SOL    HW1 3362   0.632   1.429   7.869
 1010SOL    HW2 3363   0.546   1.566   7.895
 1011SOL     OW 3364   1.709   0.385   8.829
 1011SOL    HW1 3365   1.782   0.454   8.833
 1011SOL    HW2 3366   1.737   0.310   8.770
 1012SOL     OW 3367   0.255   1.348   7.738
 1012SOL    HW1 3368   0.159   1.349   7.711
 1012SOL    HW2 3369   0.267   1.401   7.822
 1013SOL     OW 3370   0.105   1.013   9.174
 1013SOL    HW1 3371   0.028   0.980   9.228
 1013SOL    HW2 3372   0.190   0.983   9.216
 1014SOL     OW 3373   0.672   0.203   8.937
 1014SOL    HW1 3374   0.762   0.187   8.897
 1014SOL    HW2 3375   0.680   0.208   9.036
 1015SOL     OW 3376   0.075   0.345   7.481
 1015SOL    HW1 3377  -0.017   0.317   7.452
 1015SOL    HW2 3378   0.106   0.422   7.425
 1016SOL     OW 3379   1.440   0.856   8.846
 1016SOL    HW1 3380   1.383   0.908   8.783
 1016SOL    HW2 3381   1.536   0.868   8.822
 1017SOL     OW 3382   0.072   0.166   7.766
 1017SOL    HW1 3383   0.055   0.249   7.712
 1017SOL    HW2 3384   0.162   0.129   7.744
 1018SOL     OW 3385   1.183   1.335   7.567
 1018SOL    HW1 3386   1.084   1.324   7.569
 1018SOL    HW2 3387   1.217   1.350   7.660
 1019SOL     OW 3388   0.613   0.842   8.879
 1019SOL    HW1 3389   0.669   0.923   8.862
 1019SOL    HW2 3390   0.672   0.762   8.882
 1020SOL     OW 3391   1.493   1.767   8.407
 1020SOL    HW1 3392   1.526   1.831   8.338
 1020SOL    HW2 3393   1.559   1.761   8.482
 1021SOL     OW 3394   0.716   0.565   9.156
 1021SOL    HW1 3395   0.735   0.630   9.230
 1021SOL    HW2 3396   0.776   0.485   9.165
 1022SOL     OW 3397   1.450   1.220   9.081
 1022SOL    HW1 3398   1.441   1.210   9.180
 1022SOL    HW2 3399   1.546   1.213   9.055
 1023SOL     OW 3400   0.390   1.741   9.008
 1023SOL    HW1 3401   0.299   1.782   9.006
 1023SOL    HW2 3402   0.383   1.647   9.040
 1024SOL     OW 3403   1.674   0.883   8.702
 1024SOL    HW1 3404   1.647   0.794   8.665
 1024SOL    HW2 3405   1.675   0.951   8.629
 1025SOL     OW 3406   1.225   0.325   7.897
 1025SOL    HW1 3407   1.290   0.251   7.886
 1025SOL    HW2 3408   1.245   0.375   7.981
 1026SOL     OW 3409   0.594   0.745   8.100
 1026SOL    HW1 3410   0.644   0.830   8.081
 1026SOL    HW2 3411   0.506   0.747   8.052
 1027SOL     OW 3412   1.777   0.342   9.090
 1027SOL    HW1 3413   1.760   0.373   8.996
 1027SOL    HW2 3414   1.693   0.305   9.128
 1028SOL     OW 3415   1.730   0.934   8.965
 1028SOL    HW1 3416   1.768   1.025   8.980
 1028SOL    HW2 3417   1.722   0.917   8.866
 1029SOL     OW 3418   0.859   1.374   7.464
 1029SOL    HW1 3419   0.813   1.389   7.552
 1029SOL    HW2 3420   0.903   1.459   7.434
 1030SOL     OW 3421   0.661   1.790   8.401
 1030SOL    HW1 3422   0.615   1.878   8.388
 1030SOL    HW2 3423   0.760   1.802   8.394
 1031SOL     OW 3424   0.859   0.956   8.309
 1031SOL    HW1 3425   0.913   0.887   8.357
 1031SOL    HW2 3426   0.827   1.025   8.375
 1032SOL     OW 3427   1.083   0.984   7.535
 1032SOL    HW1 3428   1.060   1.037   7.453
 1032SOL    HW2 3429   1.164   0.928   7.516
 1033SOL     OW 3430   1.861   1.569   8.299
 1033SOL    HW1 3431   1.790   1.557   8.229
 1033SOL    HW2 3432   1.862   1.490   8.359
 1034SOL     OW 3433   0.221   1.314   9.292
 1034SOL    HW1 3434   0.156   1.241   9.271
 1034SOL    HW2 3435   0.225   1.328   9.390
 1035SOL     OW 3436   0.079   1.240   8.101
 1035SOL    HW1 3437   0.078   1.193   8.189
 1035SOL    HW2 3438   0.161   1.212   8.050
 1036SOL     OW 3439   0.672   1.391   9.072
 1036SOL    HW1 3440   0.594   1.341   9.110
 1036SOL    HW2 3441   0.669   1.486   9.103
 1037SOL     OW 3442   1.824   0.192   8.675
 1037SOL    HW1 3443   1.820   0.102   8.719
 1037SOL    HW2 3444   1.827   0.181   8.576
 1038SOL     OW 3445   0.428   0.424   7.968
 1038SOL    HW1 3446   0.458   0.352   7.906
 1038SOL    HW2 3447   0.389   0.384   8.051
 1039SOL     OW 3448   1.705   1.487   8.552
 1039SOL    HW1 3449   1.612   1.462   8.525
 1039SOL    HW2 3450   1.731   1.437   8.634
 1040SOL     OW 3451   0.317   0.547   8.728
 1040SOL    HW1 3452   0.355   0.488   8.800
 1040SOL    HW2 3453   0.357   0.521   8.640
 1041SOL     OW 3454   0.812   1.586   8.135
 1041SOL    HW1 3455   0.844   1.596   8.041
 1041SOL    HW2 3456   0.733   1.524   8.137
 1042SOL     OW 3457   1.424   0.214   8.560
 1042SOL    HW1 3458   1.476   0.149   8.615
 1042SOL    HW2 3459   1.375   0.277   8.621
 1043SOL     OW 3460   1.001   0.034   8.602
 1043SOL    HW1 3461   0.938  -0.038   8.571
 1043SOL    HW2 3462   1.094  -0.002   8.602
 1044SOL     OW 3463   0.770   1.330   7.749
 1044SOL    HW1 3464   0.724   1.243   7.766
 1044SOL    HW2 3465   0.861   1.327   7.790
 1045SOL     OW 3466   0.618   1.567   8.732
 1045SOL    HW1 3467   0.613   1.649   8.789
 1045SOL    HW2 3468   0.707   1.564   8.687
 1046SOL     OW 3469   1.352   0.052   7.616
 1046SOL    HW1 3470   1.387   0.011   7.532
 1046SOL    HW2 3471   1.262   0.014   7.636
 1047SOL     OW 3472   1.300   0.453   8.139
 1047SOL    HW1 3473   1.241   0.533   8.143
 1047SOL    HW2 3474   1.315   0.418   8.232
 1048SOL     OW 3475   1.593   0.221   8.330
 1048SOL    HW1 3476   1.509   0.220   8.384
 1048SOL    HW2 3477   1.595   0.304   8.274
 1049SOL     OW 3478   0.039   1.077   7.748
 1049SOL    HW1 3479   0.138   1.066   7.739
 1049SOL    HW2 3480  -0.001   0.991   7.780
 1050SOL     OW 3481   0.875   1.646   7.785
 1050SOL    HW1 3482   0.798   1.611   7.731
 1050SOL    HW2 3483   0.843   1.717   7.847
 1051SOL     OW 3484   0.230   0.628   9.423
 1051SOL    HW1 3485   0.137   0.626   9.460
 1051SOL    HW2 3486   0.231   0.589   9.331
 1052SOL     OW 3487   0.225   0.275  10.306
 1052SOL    HW1 3488   0.260   0.258  10.398
 1052SOL    HW2 3489   0.137   0.230  10.294
 1053SOL     OW 3490   0.019   0.368   9.957
 1053SOL    HW1 3491  -0.063   0.411   9.996
 1053SOL    HW2 3492  -0.009   0.295   9.894
 1054SOL     OW 3493   0.569   1.275  10.475
 1054SOL    HW1 3494   0.476   1.268  10.438
 1054SOL    HW2 3495   0.580   1.364  10.519
 1055SOL     OW 3496   1.555   1.511  10.013
 1055SOL    HW1 3497   1.498   1.495  10.094
 1055SOL    HW2 3498   1.496   1.521   9.933
 1056SOL     OW 3499   1.135   0.703  10.027
 1056SOL    HW1 3500   1.192   0.781  10.002
 1056SOL    HW2 3501   1.075   0.729  10.103
 1057SOL     OW 3502   1.755   0.607   9.541
 1057SOL    HW1 3503   1.743   0.594   9.442
 1057SOL    HW2 3504   1.725   0.526   9.590
 1058SOL     OW 3505   0.768   1.144  10.333
 1058SOL    HW1 3506   0.690   1.161  10.393
 1058SOL    HW2 3507   0.802   1.231  10.297
 1059SOL     OW 3508   0.850   0.798  11.133
 1059SOL    HW1 3509   0.846   0.874  11.198
 1059SOL    HW2 3510   0.872   0.834  11.042
 1060SOL     OW 3511   0.685   1.012   9.975
 1060SOL    HW1 3512   0.754   0.996  10.045
 1060SOL    HW2 3513   0.612   1.069  10.013
 1061SOL     OW 3514   0.686   1.161  11.113
 1061SOL    HW1 3515   0.746   1.240  11.127
 1061SOL    HW2 3516   0.600   1.192  11.072
 1062SOL     OW 3517   0.335   1.435  10.371
 1062SOL    HW1 3518   0.257   1.404  10.318
 1062SOL    HW2 3519   0.393   1.493  10.314
 1063SOL     OW 3520   1.460   1.505  10.649
 1063SOL    HW1 3521   1.484   1.599  10.675
 1063SOL    HW2 3522   1.444   1.451  10.731
 1064SOL     OW 3523   0.438   0.392  10.809
 1064SOL    HW1 3524   0.520   0.336  10.818
 1064SOL    HW2 3525   0.357   0.334  10.813
 1065SOL     OW 3526   1.603   0.447  10.047
 1065SOL    HW1 3527   1.529   0.493   9.997
 1065SOL    HW2 3528   1.654   0.515  10.100
 1066SOL     OW 3529   0.231   1.713   9.793
 1066SOL    HW1 3530   0.265   1.790   9.847
 1066SOL    HW2 3531   0.275   1.713   9.703
 1067SOL     OW 3532   1.127   1.341  11.000
 1067SOL    HW1 3533   1.174   1.341  11.088
 1067SOL    HW2 3534   1.079   1.254  10.989
 1068SOL     OW 3535   0.230   1.434   9.848
 1068SOL    HW1 3536   0.204   1.530   9.848
 1068SOL    HW2 3537   0.159   1.380   9.893
 1069SOL     OW 3538   0.240   1.091  10.196
 1069SOL    HW1 3539   0.254   1.007  10.248
 1069SOL    HW2 3540   0.185   1.155  10.251
 1070SOL     OW 3541   0.620   1.786  10.749
 1070SOL    HW1 3542   0.528   1.769  10.784
 1070SOL    HW2 3543   0.648   1.878  10.775
 1071SOL     OW 3544   0.606   0.964   9.433
 1071SOL    HW1 3545   0.613   1.048   9.379
 1071SOL    HW2 3546   0.652   0.977   9.521
 1072SOL     OW 3547   1.594   0.114  10.790
 1072SOL    HW1 3548   1.576   0.181  10.718
 1072SOL    HW2 3549   1.591   0.160  10.879
 1073SOL     OW 3550   0.122   0.643   9.873
 1073SOL    HW1 3551   0.077   0.555   9.890
 1073SOL    HW2 3552   0.121   0.697   9.957
 1074SOL     OW 3553   0.027   1.596   9.427
 1074SOL    HW1 3554   0.008   1.500   9.448
 1074SOL    HW2 3555  -0.006   1.654   9.502
 1075SOL     OW 3556   1.689   0.922   9.922
 1075SOL    HW1 3557   1.784   0.893   9.930
 1075SOL    HW2 3558   1.681   0.987   9.847
 1076SOL     OW 3559   1.641   1.108   9.742
 1076SOL    HW1 3560   1.727   1.110   9.690
 1076SOL    HW2 3561   1.655   1.155   9.830
 1077SOL     OW 3562   0.113   0.737  10.907
 1077SOL    HW1 3563   0.201   0.724  10.952
 1077SOL    HW2 3564   0.100   0.834  10.885
 1078SOL     OW 3565   0.613   1.365  10.036
 1078SOL    HW1 3566   0.564   1.278  10.045
 1078SOL    HW2 3567   0.590   1.408   9.949
 1079SOL     OW 3568   1.293   1.228  10.733
 1079SOL    HW1 3569   1.330   1.155  10.675
 1079SOL    HW2 3570   1.345   1.233  10.818
 1080SOL     OW 3571   0.809   0.004   9.812
 1080SOL    HW1 3572   0.849   0.095   9.803
 1080SOL    HW2 3573   0.709   0.012   9.818
 1081SOL     OW 3574   0.197   0.976  10.574
 1081SOL    HW1 3575   0.286   0.931  10.560
 1081SOL    HW2 3576   0.124   0.911  10.555
 1082SOL     OW 3577   1.525   0.999   9.500
 1082SOL    HW1 3578   1.462   0.923   9.513
 1082SOL    HW2 3579   1.573   1.017   9.586
 1083SOL     OW 3580   1.187   1.792  10.926
 1083SOL    HW1 3581   1.211   1.852  10.850
 1083SOL    HW2 3582   1.194   1.697  10.896
 1084SOL     OW 3583   0.317   0.251  11.111
 1084SOL    HW1 3584   0.388   0.322  11.117
 1084SOL    HW2 3585   0.229   0.290  11.139
 1085SOL     OW 3586   1.466   1.417  10.263
 1085SOL    HW1 3587   1.407   1.423  10.343
 1085SOL    HW2 3588   1.451   1.329  10.217
 1086SOL     OW 3589   1.667   1.714   9.882
 1086SOL    HW1 3590   1.626   1.691   9.794
 1086SOL    HW2 3591   1.649   1.640   9.947
 1087SOL     OW 3592   0.598   0.729   9.580
 1087SOL    HW1 3593   0.622   0.798   9.512
 1087SOL    HW2 3594   0.520   0.762   9.634
 1088SOL     OW 3595   1.281   0.345  10.254
 1088SOL    HW1 3596   1.195   0.295  10.241
 1088SOL    HW2 3597   1.343   0.291  10.310
 1089SOL     OW 3598   1.576   1.662   9.617
 1089SOL    HW1 3599   1.665   1.708   9.620
 1089SOL    HW2 3600   1.555   1.638   9.522
 1090SOL     OW 3601   0.807   0.605  10.775
 1090SOL    HW1 3602   0.760   0.602  10.864
 1090SOL    HW2 3603   0.756   0.550  10.709
 1091SOL     OW 3604   1.394   0.469  10.984
 1091SOL    HW1 3605   1.374   0.512  11.072
 1091SOL    HW2 3606   1.472   0.407  10.993
 1092SOL     OW 3607   0.973   0.890  10.882
 1092SOL    HW1 3608   1.019   0.806  10.853
 1092SOL    HW2 3609   0.917   0.924  10.807
 1093SOL     OW 3610   0.991   0.410  10.552
 1093SOL    HW1 3611   0.914   0.444  10.606
 1093SOL    HW2 3612   0.957   0.359  10.473
 1094SOL     OW 3613   1.041   0.701   9.739
 1094SOL    HW1 3614   1.067   0.697   9.835
 1094SOL    HW2 3615   0.956   0.650   9.725
 1095SOL     OW 3616   0.076   0.811  10.099
 1095SOL    HW1 3617   0.175   0.799  10.108
 1095SOL    HW2 3618   0.052   0.906  10.120
 1096SOL     OW 3619   0.130   1.821  10.881
 1096SOL    HW1 3620   0.120   1.806  10.980
 1096SOL    HW2 3621   0.044   1.857  10.845
 1097SOL     OW 3622   0.865   0.348   9.505
 1097SOL    HW1 3623   0.924   0.411   9.456
 1097SOL    HW2 3624   0.884   0.254   9.476
 1098SOL     OW 3625   1.719   0.585  11.141
 1098SOL    HW1 3626   1.693   0.674  11.105
 1098SOL    HW2 3627   1.717   0.517  11.068
 1099SOL     OW 3628   1.362   1.144   9.855
 1099SOL    HW1 3629   1.445   1.115   9.807
 1099SOL    HW2 3630   1.313   1.211   9.799
 1100SOL     OW 3631   0.550   0.196  10.195
 1100SOL    HW1 3632   0.545   0.191  10.295
 1100SOL    HW2 3633   0.552   0.292  10.166
 1101SOL     OW 3634   1.008   1.456   9.787
 1101SOL    HW1 3635   0.962   1.528   9.735
 1101SOL    HW2 3636   1.004   1.476   9.885
 1102SOL     OW 3637   0.351   1.801  10.163
 1102SOL    HW1 3638   0.401   1.715  10.169
 1102SOL    HW2 3639   0.416   1.878  10.160
 1103SOL     OW 3640   1.795   1.066  10.183
 1103SOL    HW1 3641   1.733   1.051  10.107
 1103SOL    HW2 3642   1.743   1.077  10.268
 1104SOL     OW 3643   1.227   1.550  10.816
 1104SOL    HW1 3644   1.233   1.473  10.880
 1104SOL    HW2 3645   1.175   1.524  10.736
 1105SOL     OW 3646   0.321   0.943   9.552
 1105SOL    HW1 3647   0.403   0.982   9.510
 1105SOL    HW2 3648   0.294   0.861   9.503
 1106SOL     OW 3649   1.458   0.735  10.038
 1106SOL    HW1 3650   1.453   0.670  10.113
 1106SOL    HW2 3651   1.538   0.794  10.051
 1107SOL     OW 3652   0.461   1.266  11.037
 1107SOL    HW1 3653   0.411   1.267  10.951
 1107SOL    HW2 3654   0.398   1.248  11.113
 1108SOL     OW 3655   1.111   1.776   9.547
 1108SOL    HW1 3656   1.051   1.714   9.597
 1108SOL    HW2 3657   1.142   1.732   9.462
 1109SOL     OW 3658   0.202   0.285  10.808
 1109SOL    HW1 3659   0.122   0.345  10.795
 1109SOL    HW2 3660   0.192   0.236  10.894
 1110SOL     OW 3661   1.632   1.377   9.391
 1110SOL    HW1 3662   1.600   1.471   9.381
 1110SOL    HW2 3663   1.556   1.314   9.379
 1111SOL     OW 3664   0.464   1.743   9.633
 1111SOL    HW1 3665   0.497   1.782   9.719
 1111SOL    HW2 3666   0.540   1.736   9.568
 1112SOL     OW 3667   1.400   0.107   9.736
 1112SOL    HW1 3668   1.376   0.070   9.646
 1112SOL    HW2 3669   1.499   0.123   9.740
 1113SOL     OW 3670   0.249   1.785  10.551
 1113SOL    HW1 3671   0.306   1.720  10.601
 1113SOL    HW2 3672   0.233   1.752  10.458
 1114SOL     OW 3673   0.940   1.698  10.214
 1114SOL    HW1 3674   1.020   1.641  10.235
 1114SOL    HW2 3675   0.891   1.658  10.137
 1115SOL     OW 3676   0.382   0.700   9.790
 1115SOL    HW1 3677   0.427   0.610   9.787
 1115SOL    HW2 3678   0.288   0.689   9.823
 1116SOL     OW 3679   1.547   0.222  11.039
 1116SOL    HW1 3680   1.542   0.259  11.131
 1116SOL    HW2 3681   1.475   0.153  11.027
 1117SOL     OW 3682   0.614   0.122   9.427
 1117SOL    HW1 3683   0.712   0.100   9.434
 1117SOL    HW2 3684   0.583   0.105   9.334
 1118SOL     OW 3685   0.781   0.264  11.059
 1118SOL    HW1 3686   0.848   0.203  11.102
 1118SOL    HW2 3687   0.708   0.283  11.124
 1119SOL     OW 3688   0.888   1.514  10.505
 1119SOL    HW1 3689   0.865   1.489  10.411
 1119SOL    HW2 3690   0.949   1.445  10.544
 1120SOL     OW 3691   1.351   0.590  10.743
 1120SOL    HW1 3692   1.379   0.547  10.828
 1120SOL    HW2 3693   1.376   0.686  10.744
 1121SOL     OW 3694   0.803   1.402  10.234
 1121SOL    HW1 3695   0.893   1.416  10.192
 1121SOL    HW2 3696   0.732   1.404  10.163
 1122SOL     OW 3697   0.922   0.503  10.209
 1122SOL    HW1 3698   0.897   0.494  10.113
 1122SOL    HW2 3699   0.970   0.421  10.240
 1123SOL     OW 3700   0.539   0.064   9.822
 1123SOL    HW1 3701   0.458   0.065   9.880
 1123SOL    HW2 3702   0.542   0.147   9.767
 1124SOL     OW 3703   1.434   1.188   9.351
 1124SOL    HW1 3704   1.466   1.112   9.408
 1124SOL    HW2 3705   1.342   1.215   9.381
 1125SOL     OW 3706   0.297   0.035   9.481
 1125SOL    HW1 3707   0.346   0.119   9.460
 1125SOL    HW2 3708   0.359  -0.030   9.526
 1126SOL     OW 3709   0.935   0.236   9.790
 1126SOL    HW1 3710   0.887   0.277   9.712
 1126SOL    HW2 3711   1.034   0.234   9.771
 1127SOL     OW 3712   1.076   0.683  10.774
 1127SOL    HW1 3713   0.996   0.622  10.777
 1127SOL    HW2 3714   1.157   0.630  10.750
 1128SOL     OW 3715   1.227   1.570  10.103
 1128SOL    HW1 3716   1.248   1.644  10.038
 1128SOL    HW2 3717   1.295   1.570  10.176
 1129SOL     OW 3718   0.459   1.152  10.051
 1129SOL    HW1 3719   0.388   1.125  10.116
 1129SOL    HW2 3720   0.433   1.124   9.958
 1130SOL     OW 3721   1.271   1.797   9.901
 1130SOL    HW1 3722   1.315   1.861   9.837
 1130SOL    HW2 3723   1.221   1.849   9.971
 1131SOL     OW 3724   1.032   0.549   9.326
 1131SOL    HW1 3725   0.991   0.631   9.287
 1131SOL    HW2 3726   1.096   0.575   9.399
 1132SOL     OW 3727   0.078   0.556  10.696
 1132SOL    HW1 3728   0.170   0.555  10.655
 1132SOL    HW2 3729   0.072   0.630  10.763
 1133SOL     OW 3730   0.561   0.222  10.457
 1133SOL    HW1 3731   0.599   0.138  10.494
 1133SOL    HW2 3732   0.473   0.241  10.501
 1134SOL     OW 3733   0.866   0.454   9.952
 1134SOL    HW1 3734   0.834   0.526   9.890
 1134SOL    HW2 3735   0.890   0.373   9.899
 1135SOL     OW 3736   1.017   0.039  10.063
 1135SOL    HW1 3737   0.945   0.044   9.994
 1135SOL    HW2 3738   0.993  -0.030  10.132
 1136SOL     OW 3739   1.429   1.173  10.177
 1136SOL    HW1 3740   1.374   1.089  10.170
 1136SOL    HW2 3741   1.455   1.202  10.085
 1137SOL     OW 3742   1.466   0.590  10.302
 1137SOL    HW1 3743   1.436   0.495  10.309
 1137SOL    HW2 3744   1.539   0.606  10.368
 1138SOL     OW 3745   1.857   0.833   9.687
 1138SOL    HW1 3746   1.899   0.769   9.751
 1138SOL    HW2 3747   1.819   0.782   9.609
 1139SOL     OW 3748   0.488   1.385   9.484
 1139SOL    HW1 3749   0.401   1.370   9.531
 1139SOL    HW2 3750   0.471   1.411   9.389
 1140SOL     OW 3751   1.664   1.280   9.967
 1140SOL    HW1 3752   1.763   1.288   9.981
 1140SOL    HW2 3753   1.619   1.364   9.998
 1141SOL     OW 3754   1.390   0.575   9.388
 1141SOL    HW1 3755   1.336   0.554   9.469
 1141SOL    HW2 3756   1.481   0.534   9.397
 1142SOL     OW 3757   0.527   0.256   9.638
 1142SOL    HW1 3758   0.554   0.197   9.563
 1142SOL    HW2 3759   0.527   0.351   9.607
 1143SOL     OW 3760   1.754   1.223  10.898
 1143SOL    HW1 3761   1.845   1.184  10.885
 1143SOL    HW2 3762   1.762   1.319  10.922
 1144SOL     OW 3763   1.064   1.347  10.650
 1144SOL    HW1 3764   0.984   1.324  10.705
 1144SOL    HW2 3765   1.147   1.321  10.699
 1145SOL     OW 3766   1.592   1.629  10.935
 1145SOL    HW1 3767   1.619   1.663  10.845
 1145SOL    HW2 3768   1.671   1.591  10.981
 1146SOL     OW 3769   1.111   1.195  10.410
 1146SOL    HW1 3770   1.071   1.239  10.491
 1146SOL    HW2 3771   1.070   1.232  10.327
 1147SOL     OW 3772   1.638   1.099  10.389
 1147SOL    HW1 3773   1.643   1.180  10.448
 1147SOL    HW2 3774   1.552   1.101  10.338
 1148SOL     OW 3775   0.915   0.089  10.712
 1148SOL    HW1 3776   0.940   0.069  10.617
 1148SOL    HW2 3777   0.987   0.145  10.754
 1149SOL     OW 3778   0.980   1.116  11.029
 1149SOL    HW1 3779   0.881   1.122  11.039
 1149SOL    HW2 3780   1.003   1.036  10.973
 1150SOL     OW 3781   0.705   1.050   9.678
 1150SOL    HW1 3782   0.691   1.057   9.777
 1150SOL    HW2 3783   0.789   0.999   9.660
 1151SOL     OW 3784   0.410   0.813  10.561
 1151SOL    HW1 3785   0.496   0.825  10.611
 1151SOL    HW2 3786   0.368   0.726  10.588
 1152SOL     OW 3787   1.274   0.386  10.572
 1152SOL    HW1 3788   1.295   0.460  10.636
 1152SOL    HW2 3789   1.185   0.403  10.529
 1153SOL     OW 3790   0.064   1.564  10.641
 1153SOL    HW1 3791   0.018   1.646  10.607
 1153SOL    HW2 3792   0.162   1.583  10.650
 1154SOL     OW 3793   0.367   1.100   9.811
 1154SOL    HW1 3794   0.360   1.183   9.755
 1154SOL    HW2 3795   0.371   1.020   9.751
 1155SOL     OW 3796   0.566   0.537  10.175
 1155SOL    HW1 3797   0.578   0.603  10.101
 1155SOL    HW2 3798   0.612   0.571  10.258
 1156SOL     OW 3799   1.252   1.348   9.698
 1156SOL    HW1 3800   1.302   1.425   9.738
 1156SOL    HW2 3801   1.157   1.350   9.730
 1157SOL     OW 3802   1.272   1.445  10.452
 1157SOL    HW1 3803   1.319   1.458  10.539
 1157SOL    HW2 3804   1.206   1.371  10.461
 1158SOL     OW 3805   1.582   0.639   9.782
 1158SOL    HW1 3806   1.551   0.700   9.855
 1158SOL    HW2 3807   1.632   0.691   9.713
 1159SOL     OW 3808   0.354   1.510  10.639
 1159SOL    HW1 3809   0.333   1.466  10.552
 1159SOL    HW2 3810   0.451   1.536  10.642
 1160SOL     OW 3811   0.402   0.751  10.908
 1160SOL    HW1 3812   0.470   0.806  10.861
 1160SOL    HW2 3813   0.442   0.663  10.935
 1161SOL     OW 3814   1.587   0.779  10.980
 1161SOL    HW1 3815   1.495   0.817  10.975
 1161SOL    HW2 3816   1.647   0.826  10.915
 1162SOL     OW 3817   1.013   0.105  11.080
 1162SOL    HW1 3818   1.019   0.190  11.028
 1162SOL    HW2 3819   1.045   0.029  11.023
 1163SOL     OW 3820   0.504   0.050  11.050
 1163SOL    HW1 3821   0.462  -0.007  10.980
 1163SOL    HW2 3822   0.438   0.119  11.082
 1164SOL     OW 3823   0.573   0.870  10.339
 1164SOL    HW1 3824   0.617   0.959  10.330
 1164SOL    HW2 3825   0.510   0.870  10.416
 1165SOL     OW 3826   1.360   0.862  10.355
 1165SOL    HW1 3827   1.285   0.862  10.289
 1165SOL    HW2 3828   1.397   0.770  10.364
 1166SOL     OW 3829   1.209   0.525   9.585
 1166SOL    HW1 3830   1.222   0.441   9.639
 1166SOL    HW2 3831   1.180   0.599   9.645
 1167SOL     OW 3832   0.307   0.213  10.541
 1167SOL    HW1 3833   0.284   0.250  10.631
 1167SOL    HW2 3834   0.277   0.118  10.535
 1168SOL     OW 3835   0.037   1.310  10.592
 1168SOL    HW1 3836   0.090   1.261  10.660
 1168SOL    HW2 3837   0.059   1.408  10.597
 1169SOL     OW 3838   0.732   0.634  10.374
 1169SOL    HW1 3839   0.791   0.608  10.298
 1169SOL    HW2 3840   0.704   0.730  10.363
 1170SOL     OW 3841   1.728   0.935  11.164
 1170SOL    HW1 3842   1.682   0.928  11.075
 1170SOL    HW2 3843   1.666   0.979  11.230
 1171SOL     OW 3844   0.307   0.063   9.928
 1171SOL    HW1 3845   0.296   0.157   9.961
 1171SOL    HW2 3846   0.302   0.000  10.005
 1172SOL     OW 3847   1.622   0.367   9.684
 1172SOL    HW1 3848   1.624   0.291   9.748
 1172SOL    HW2 3849   1.574   0.444   9.724
 1173SOL     OW 3850   1.023   0.766  10.276
 1173SOL    HW1 3851   1.038   0.787  10.372
 1173SOL    HW2 3852   0.993   0.671  10.267
 1174SOL     OW 3853   0.980   1.573  11.010
 1174SOL    HW1 3854   0.960   1.617  10.922
 1174SOL    HW2 3855   1.019   1.482  10.994
 1175SOL     OW 3856   1.859   1.518  10.915
 1175SOL    HW1 3857   1.873   1.545  10.820
 1175SOL    HW2 3858   1.942   1.540  10.968
 1176SOL     OW 3859   0.350   0.898  11.114
 1176SOL    HW1 3860   0.426   0.942  11.162
 1176SOL    HW2 3861   0.385   0.851  11.032
 1177SOL     OW 3862   1.540   0.274   9.435
 1177SOL    HW1 3863   1.479   0.199   9.458
 1177SOL    HW2 3864   1.562   0.326   9.518
 1178SOL     OW 3865   1.303   0.838   9.352
 1178SOL    HW1 3866   1.337   0.745   9.367
 1178SOL    HW2 3867   1.321   0.865   9.257
 1179SOL     OW 3868   1.068   1.333  10.159
 1179SOL    HW1 3869   1.075   1.249  10.104
 1179SOL    HW2 3870   1.130   1.402  10.123
 1180SOL     OW 3871   0.319   0.810  10.259
 1180SOL    HW1 3872   0.412   0.846  10.264
 1180SOL    HW2 3873   0.313   0.725  10.311
 1181SOL     OW 3874   0.339   0.509  10.316
 1181SOL    HW1 3875   0.287   0.426  10.299
 1181SOL    HW2 3876   0.416   0.514  10.252
 1182SOL     OW 3877   1.138   0.380  10.988
 1182SOL    HW1 3878   1.093   0.443  11.052
 1182SOL    HW2 3879   1.231   0.411  10.971
 1183SOL     OW 3880   1.160   0.207  10.787
 1183SOL    HW1 3881   1.160   0.271  10.864
 1183SOL    HW2 3882   1.188   0.255  10.704
 1184SOL     OW 3883   0.008   1.326   9.510
 1184SOL    HW1 3884  -0.085   1.347   9.479
 1184SOL    HW2 3885   0.018   1.227   9.523
 1185SOL     OW 3886   0.088   1.801  10.237
 1185SOL    HW1 3887   0.046   1.715  10.210
 1185SOL    HW2 3888   0.182   1.804  10.203
 1186SOL     OW 3889   0.504   1.568  10.220
 1186SOL    HW1 3890   0.570   1.642  10.229
 1186SOL    HW2 3891   0.548   1.489  10.178
 1187SOL     OW 3892   1.002   0.796  10.548
 1187SOL    HW1 3893   1.043   0.764  10.634
 1187SOL    HW2 3894   0.906   0.769  10.545
 1188SOL     OW 3895   0.040   0.544  10.424
 1188SOL    HW1 3896   0.125   0.511  10.383
 1188SOL    HW2 3897   0.053   0.559  10.522
 1189SOL     OW 3898   0.189   0.520  11.032
 1189SOL    HW1 3899   0.248   0.480  10.962
 1189SOL    HW2 3900   0.131   0.591  10.991
 1190SOL     OW 3901   1.369   0.950  10.970
 1190SOL    HW1 3902   1.408   1.039  10.990
 1190SOL    HW2 3903   1.379   0.930  10.873
 1191SOL     OW 3904   0.815   0.572   9.635
 1191SOL    HW1 3905   0.822   0.483   9.589
 1191SOL    HW2 3906   0.721   0.606   9.627
 1192SOL     OW 3907   1.657   0.604  10.516
 1192SOL    HW1 3908   1.619   0.535  10.578
 1192SOL    HW2 3909   1.739   0.568  10.472
 1193SOL     OW 3910   0.252   1.564  11.054
 1193SOL    HW1 3911   0.222   1.621  11.130
 1193SOL    HW2 3912   0.245   1.467  11.080
 1194SOL     OW 3913   0.671   0.464  10.579
 1194SOL    HW1 3914   0.637   0.375  10.549
 1194SOL    HW2 3915   0.697   0.518  10.499
 1195SOL     OW 3916   0.930   1.678  10.775
 1195SOL    HW1 3917   0.906   1.660  10.680
 1195SOL    HW2 3918   0.960   1.772  10.785
 1196SOL     OW 3919   0.473   0.500   9.501
 1196SOL    HW1 3920   0.534   0.580   9.505
 1196SOL    HW2 3921   0.378   0.531   9.508
 1197SOL     OW 3922   0.159   1.137  10.776
 1197SOL    HW1 3923   0.181   1.076  10.852
 1197SOL    HW2 3924   0.169   1.088  10.690
 1198SOL     OW 3925   1.347   1.059  10.544
 1198SOL    HW1 3926   1.371   0.996  10.470
 1198SOL    HW2 3927   1.257   1.099  10.526
 1199SOL     OW 3928   1.302   0.855   9.619
 1199SOL    HW1 3929   1.216   0.824   9.661
 1199SOL    HW2 3930   1.298   0.841   9.520
 1200SOL     OW 3931   1.759   1.747  10.464
 1200SOL    HW1 3932   1.820   1.777  10.391
 1200SOL    HW2 3933   1.721   1.658  10.442
 1201SOL     OW 3934   1.252   1.731  10.438
 1201SOL    HW1 3935   1.336   1.736  10.384
 1201SOL    HW2 3936   1.229   1.635  10.456
 1202SOL     OW 3937   0.083   1.258  10.332
 1202SOL    HW1 3938   0.078   1.257  10.432
 1202SOL    HW2 3939   0.000   1.217  10.294
 1203SOL     OW 3940   0.688   1.662  11.026
 1203SOL    HW1 3941   0.632   1.743  11.035
 1203SOL    HW2 3942   0.740   1.666  10.940
 1204SOL     OW 3943   1.726   0.135   9.833
 1204SOL    HW1 3944   1.799   0.118   9.766
 1204SOL    HW2 3945   1.695   0.048   9.871
 1205SOL     OW 3946   1.388   1.573   9.787
 1205SOL    HW1 3947   1.455   1.585   9.713
 1205SOL    HW2 3948   1.348   1.662   9.810
 1206SOL     OW 3949   0.130   1.794  11.161
 1206SOL    HW1 3950   0.089   1.720  11.214
 1206SOL    HW2 3951   0.194   1.845  11.219
 1207SOL     OW 3952   1.280   0.927   9.982
 1207SOL    HW1 3953   1.340   0.846   9.984
 1207SOL    HW2 3954   1.320   0.996   9.922
 1208SOL     OW 3955   0.830   1.273  10.732
 1208SOL    HW1 3956   0.825   1.306  10.827
 1208SOL    HW2 3957   0.744   1.292  10.686
 1209SOL     OW 3958   0.672   1.616   9.464
 1209SOL    HW1 3959   0.681   1.626   9.365
 1209SOL    HW2 3960   0.632   1.527   9.485
 1210SOL     OW 3961   1.650   1.720  10.704
 1210SOL    HW1 3962   1.703   1.730  10.620
 1210SOL    HW2 3963   1.623   1.810  10.738
 1211SOL     OW 3964   1.841   0.175  10.273
 1211SOL    HW1 3965   1.880   0.090  10.237
 1211SOL    HW2 3966   1.743   0.177  10.254
 1212SOL     OW 3967   0.263   0.326  10.030
 1212SOL    HW1 3968   0.184   0.377   9.996
 1212SOL    HW2 3969   0.254   0.311  10.128
 1213SOL     OW 3970   1.194   1.612   9.341
 1213SOL    HW1 3971   1.200   1.519   9.378
 1213SOL    HW2 3972   1.135   1.612   9.261
 1214SOL     OW 3973   0.822   1.002  10.682
 1214SOL    HW1 3974   0.862   1.001  10.590
 1214SOL    HW2 3975   0.832   1.094  10.722
 1215SOL     OW 3976   0.916   0.910   9.601
 1215SOL    HW1 3977   0.979   0.948   9.533
 1215SOL    HW2 3978   0.956   0.827   9.640
 1216SOL     OW 3979   1.504   1.607   9.354
 1216SOL    HW1 3980   1.412   1.644   9.361
 1216SOL    HW2 3981   1.542   1.627   9.264
 1217SOL     OW 3982   0.372   1.288  10.800
 1217SOL    HW1 3983   0.359   1.381  10.766
 1217SOL    HW2 3984   0.288   1.236  10.787
 1218SOL     OW 3985   1.614   1.292  10.599
 1218SOL    HW1 3986   1.674   1.295  10.679
 1218SOL    HW2 3987   1.539   1.356  10.612
 1219SOL     OW 3988   1.039   1.098  10.006
 1219SOL    HW1 3989   0.969   1.051  10.060
 1219SOL    HW2 3990   1.098   1.030   9.963
 1220SOL     OW 3991   1.014   0.236  10.281
 1220SOL    HW1 3992   1.006   0.200  10.188
 1220SOL    HW2 3993   1.012   0.160  10.346
 1221SOL     OW 3994   0.590   1.487   9.801
 1221SOL    HW1 3995   0.632   1.429   9.731
 1221SOL    HW2 3996   0.546   1.566   9.757
 1222SOL     OW 3997   1.709   0.385  10.691
 1222SOL    HW1 3998   1.782   0.454  10.695
 1222SOL    HW2 3999   1.737   0.310  10.632
 1223SOL     OW 4000   0.255   1.348   9.600
 1223SOL    HW1 4001   0.159   1.349   9.573
 1223SOL    HW2 4002   0.267   1.401   9.684
 1224SOL     OW 4003   0.105   1.013  11.036
 1224SOL    HW1 4004   0.028   0.980  11.090
 1224SOL    HW2 4005   0.190   0.983  11.078
 1225SOL     OW 4006   0.672   0.203  10.799
 1225SOL    HW1 4007   0.762   0.187  10.759
 1225SOL    HW2 4008   0.680   0.208  10.898
 1226SOL     OW 4009   0.075   0.345   9.343
 1226SOL    HW1 4010  -0.017   0.317   9.314
 1226SOL    HW2 4011   0.106   0.422   9.287
 1227SOL     OW 4012   1.440   0.856  10.708
 1227SOL    HW1 4013   1.383   0.908  10.645
 1227SOL    HW2 4014   1.536   0.868  10.684
 1228SOL     OW 4015   0.072   0.166   9.628
 1228SOL    HW1 4016   0.055   0.249   9.574
 1228SOL    HW2 4017   0.162   0.129   9.606
 1229SOL     OW 4018   1.183   1.335   9.429
 1229SOL    HW1 4019   1.084   1.324   9.431
 1229SOL    HW2 4020   1.217   1.350   9.522
 1230SOL     OW 4021   0.613   0.842  10.741
 1230SOL    HW1 4022   0.669   0.923  10.724
 1230SOL    HW2 4023   0.672   0.762  10.744
 1231SOL     OW 4024   1.493   1.767  10.269
 1231SOL    HW1 4025   1.526   1.831  10.200
 1231SOL    HW2 4026   1.559   1.761  10.344
 1232SOL     OW 4027   0.716   0.565  11.018
 1232SOL    HW1 4028   0.735   0.630  11.092
 1232SOL    HW2 4029   0.776   0.485  11.027
 1233SOL     OW 4030   1.450   1.220  10.943
 1233SOL    HW1 4031   1.441   1.210  11.042
 1233SOL    HW2 4032   1.546   1.213  10.917
 1234SOL     OW 4033   0.390   1.741  10.870
 1234SOL    HW1 4034   0.299   1.782  10.868
 1234SOL    HW2 4035   0.383   1.647  10.902
 1235SOL     OW 4036   1.674   0.883  10.564
 1235SOL    HW1 4037   1.647   0.794  10.527
 1235SOL    HW2 4038   1.675   0.951  10.491
 1236SOL     OW 4039   1.225   0.325   9.759
 1236SOL    HW1 4040   1.290   0.251   9.748
 1236SOL    HW2 4041   1.245   0.375   9.843
 1237SOL     OW 4042   0.594   0.745   9.962
 1237SOL    HW1 4043   0.644   0.830   9.943
 1237SOL    HW2 4044   0.506   0.747   9.914
 1238SOL     OW 4045   1.777   0.342  10.952
 1238SOL    HW1 4046   1.760   0.373  10.858
 1238SOL    HW2 4047   1.693   0.305  10.990
 1239SOL     OW 4048   1.730   0.934  10.827
 1239SOL    HW1 4049   1.768   1.025  10.842
 1239SOL    HW2 4050   1.722   0.917  10.728
 1240SOL     OW 4051   0.859   1.374   9.326
 1240SOL    HW1 4052   0.813   1.389   9.414
 1240SOL    HW2 4053   0.903   1.459   9.296
 1241SOL     OW 4054   0.661   1.790  10.263
 1241SOL    HW1 4055   0.615   1.878  10.250
 1241SOL    HW2 4056   0.760   1.802  10.256
 1242SOL     OW 4057   0.859   0.956  10.171
 1242SOL    HW1 4058   0.913   0.887  10.219
 1242SOL    HW2 4059   0.827   1.025  10.237
 1243SOL     OW 4060   1.083   0.984   9.397
 1243SOL    HW1 4061   1.060   1.037   9.315
 1243SOL    HW2 4062   1.164   0.928   9.378
 1244SOL     OW 4063   1.861   1.569  10.161
 1244SOL    HW1 4064   1.790   1.557  10.091
 1244SOL    HW2 4065   1.862   1.490  10.221
 1245SOL     OW 4066   0.221   1.314  11.154
 1245SOL    HW1 4067   0.156   1.241  11.133
 1245SOL    HW2 4068   0.225   1.328  11.252
 1246SOL     OW 4069   0.079   1.240   9.963
 1246SOL    HW1 4070   0.078   1.193  10.051
 1246SOL    HW2 4071   0.161   1.212   9.912
 1247SOL     OW 4072   0.672   1.391  10.934
 1247SOL    HW1 4073   0.594   1.341  10.972
 1247SOL    HW2 4074   0.669   1.486  10.965
 1248SOL     OW 4075   1.824   0.192  10.537
 1248SOL    HW1 4076   1.820   0.102  10.581
 1248SOL    HW2 4077   1.827   0.181  10.438
 1249SOL     OW 4078   0.428   0.424   9.830
 1249SOL    HW1 4079   0.458   0.352   9.768
 1249SOL    HW2 4080   0.389   0.384   9.913
 1250SOL     OW 4081   1.705   1.487  10.414
 1250SOL    HW1 4082   1.612   1.462  10.387
 1250SOL    HW2 4083   1.731   1.437  10.496
 1251SOL     OW 4084   0.317   0.547  10.590
 1251SOL    HW1 4085   0.355   0.488  10.662
 1251SOL    HW2 4086   0.357   0.521  10.502
 1252SOL     OW 4087   0.812   1.586   9.997
 1252SOL    HW1 4088   0.844   1.596   9.903
 1252SOL    HW2 4089   0.733   1.524   9.999
 1253SOL     OW 4090   1.424   0.214  10.422
 1253SOL    HW1 4091   1.476   0.149  10.477
 1253SOL    HW2 4092   1.375   0.277  10.483
 1254SOL     OW 4093   1.001   0.034  10.464
 1254SOL    HW1 4094   0.938  -0.038  10.433
 1254SOL    HW2 4095   1.094  -0.002  10.464
 1255SOL     OW 4096   0.770   1.330   9.611
 1255SOL    HW1 4097   0.724   1.243   9.628
 1255SOL    HW2 4098   0.861   1.327   9.652
 1256SOL     OW 4099   0.618   1.567  10.594
 1256SOL    HW1 4100   0.613   1.649  10.651
 1256SOL    HW2 4101   0.707   1.564  10.549
 1257SOL     OW 4102   1.352   0.052   9.478
 1257SOL    HW1 4103   1.387   0.011   9.394
 1257SOL    HW2 4104   1.262   0.014   9.498
 1258SOL     OW 4105   1.300   0.453  10.001
 1258SOL    HW1 4106   1.241   0.533  10.005
 1258SOL    HW2 4107   1.315   0.418  10.094
 1259SOL     OW 4108   1.593   0.221  10.192
 1259SOL    HW1 4109   1.509   0.220  10.246
 1259SOL    HW2 4110   1.595   0.304  10.136
 1260SOL     OW 4111   0.039   1.077   9.610
 1260SOL    HW1 4112   0.138   1.066   9.601
 1260SOL    HW2 4113  -0.001   0.991   9.642
 1261SOL     OW 4114   0.875   1.646   9.647
 1261SOL    HW1 4115   0.798   1.611   9.593
 1261SOL    HW2 4116   0.843   1.717   9.709
 1262SOL     OW 4117   0.230   0.628  11.285
 1262SOL    HW1 4118   0.137   0.626  11.322
 1262SOL    HW2 4119   0.231   0.589  11.193
 1263SOL     OW 4120   0.225   0.275  12.168
 1263SOL    HW1 4121   0.260   0.258  12.260
 1263SOL    HW2 4122   0.137   0.230  12.156
 1264SOL     OW 4123   0.019   0.368  11.819
 1264SOL    HW1 4124  -0.063   0.411  11.858
 1264SOL    HW2 4125  -0.009   0.295  11.756
 1265SOL     OW 4126   0.569   1.275  12.337
 1265SOL    HW1 4127   0.476   1.268  12.300
 1265SOL    HW2 4128   0.580   1.364  12.381
 1266SOL     OW 4129   1.555   1.511  11.875
 1266SOL    HW1 4130   1.498   1.495  11.956
 1266SOL    HW2 4131   1.496   1.521  11.795
 1267SOL     OW 4132   1.135   0.703  11.889
 1267SOL    HW1 4133   1.192   0.781  11.864
 1267SOL    HW2 4134   1.075   0.729  11.965
 1268SOL     OW 4135   1.755   0.607  11.403
 1268SOL    HW1 4136   1.743   0.594  11.304
 1268SOL    HW2 4137   1.725   0.526  11.452
 1269SOL     OW 4138   0.768   1.144  12.195
 1269SOL    HW1 4139   0.690   1.161  12.255
 1269SOL    HW2 4140   0.802   1.231  12.159
 1270SOL     OW 4141   0.850   0.798  12.995
 1270SOL    HW1 4142   0.846   0.874  13.060
 1270SOL    HW2 4143   0.872   0.834  12.904
 1271SOL     OW 4144   0.685   1.012  11.837
 1271SOL    HW1 4145   0.754   0.996  11.907
 1271SOL    HW2 4146   0.612   1.069  11.875
 1272SOL     OW 4147   0.686   1.161  12.975
 1272SOL    HW1 4148   0.746   1.240  12.989
 1272SOL    HW2 4149   0.600   1.192  12.934
 1273SOL     OW 4150   0.335   1.435  12.233
 1273SOL    HW1 4151   0.257   1.404  12.180
 1273SOL    HW2 4152   0.393   1.493  12.176
 1274SOL     OW 4153   1.460   1.505  12.511
 1274SOL    HW1 4154   1.484   1.599  12.537
 1274SOL    HW2 4155   1.444   1.451  12.593
 1275SOL     OW 4156   0.438   0.392  12.671
 1275SOL    HW1 4157   0.520   0.336  12.680
 1275SOL    HW2 4158   0.357   0.334  12.675
 1276SOL     OW 4159   1.603   0.447  11.909
 1276SOL    HW1 4160   1.529   0.493  11.859
 1276SOL    HW2 4161   1.654   0.515  11.962
 1277SOL     OW 4162   0.231   1.713  11.655
 1277SOL    HW1 4163   0.265   1.790  11.709
 1277SOL    HW2 4164   0.275   1.713  11.565
 1278SOL     OW 4165   1.127   1.341  12.862
 1278SOL    HW1 4166   1.174   1.341  12.950
 1278SOL    HW2 4167   1.079   1.254  12.851
 1279SOL     OW 4168   0.230   1.434  11.710
 1279SOL    HW1 4169   0.204   1.530  11.710
 1279SOL    HW2 4170   0.159   1.380  11.755
 1280SOL     OW 4171   0.240   1.091  12.058
 1280SOL    HW1 4172   0.254   1.007  12.110
 1280SOL    HW2 4173   0.185   1.155  12.113
 1281SOL     OW 4174   0.620   1.786  12.611
 1281SOL    HW1 4175   0.528   1.769  12.646
 1281SOL    HW2 4176   0.648   1.878  12.637
 1282SOL     OW 4177   0.606   0.964  11.295
 1282SOL    HW1 4178   0.613   1.048  11.241
 1282SOL    HW2 4179   0.652   0.977  11.383
 1283SOL     OW 4180   1.594   0.114  12.652
 1283SOL    HW1 4181   1.576   0.181  12.580
 1283SOL    HW2 4182   1.591   0.160  12.741
 1284SOL     OW 4183   0.122   0.643  11.735
 1284SOL    HW1 4184   0.077   0.555  11.752
 1284SOL    HW2 4185   0.121   0.697  11.819
 1285SOL     OW 4186   0.027   1.596  11.289
 1285SOL    HW1 4187   0.008   1.500  11.310
 1285SOL    HW2 4188  -0.006   1.654  11.364
 1286SOL     OW 4189   1.689   0.922  11.784
 1286SOL    HW1 4190   1.784   0.893  11.792
 1286SOL    HW2 4191   1.681   0.987  11.709
 1287SOL     OW 4192   1.641   1.108  11.604
 1287SOL    HW1 4193   1.727   1.110  11.552
 1287SOL    HW2 4194   1.655   1.155  11.692
 1288SOL     OW 4195   0.113   0.737  12.769
 1288SOL    HW1 4196   0.201   0.724  12.814
 1288SOL    HW2 4197   0.100   0.834  12.747
 1289SOL     OW 4198   0.613   1.365  11.898
 1289SOL    HW1 4199   0.564   1.278  11.907
 1289SOL    HW2 4200   0.590   1.408  11.811
 1290SOL     OW 4201   1.293   1.228  12.595
 1290SOL    HW1 4202   1.330   1.155  12.537
 1290SOL    HW2 4203   1.345   1.233  12.680
 1291SOL     OW 4204   0.809   0.004  11.674
 1291SOL    HW1 4205   0.849   0.095  11.665
 1291SOL    HW2 4206   0.709   0.012  11.680
 1292SOL     OW 4207   0.197   0.976  12.436
 1292SOL    HW1 4208   0.286   0.931  12.422
 1292SOL    HW2 4209   0.124   0.911  12.417
 1293SOL     OW 4210   1.525   0.999  11.362
 1293SOL    HW1 4211   1.462   0.923  11.375
 1293SOL    HW2 4212   1.573   1.017  11.448
 1294SOL     OW 4213   1.187   1.792  12.788
 1294SOL    HW1 4214   1.211   1.852  12.712
 1294SOL    HW2 4215   1.194   1.697  12.758
 1295SOL     OW 4216   0.317   0.251  12.973
 1295SOL    HW1 4217   0.388   0.322  12.979
 1295SOL    HW2 4218   0.229   0.290  13.001
 1296SOL     OW 4219   1.466   1.417  12.125
 1296SOL    HW1 4220   1.407   1.423  12.205
 1296SOL    HW2 4221   1.451   1.329  12.079
 1297SOL     OW 4222   1.667   1.714  11.744
 1297SOL    HW1 4223   1.626   1.691  11.656
 1297SOL    HW2 4224   1.649   1.640  11.809
 1298SOL     OW 4225   0.598   0.729  11.442
 1298SOL    HW1 4226   0.622   0.798  11.374
 1298SOL    HW2 4227   0.520   0.762  11.496
 1299SOL     OW 4228   1.281   0.345  12.116
 1299SOL    HW1 4229   1.195   0.295  12.103
 1299SOL    HW2 4230   1.343   0.291  12.172
 1300SOL     OW 4231   1.576   1.662  11.479
 1300SOL    HW1 4232   1.665   1.708  11.482
 1300SOL    HW2 4233   1.555   1.638  11.384
 1301SOL     OW 4234   0.807   0.605  12.637
 1301SOL    HW1 4235   0.760   0.602  12.726
 1301SOL    HW2 4236   0.756   0.550  12.571
 1302SOL     OW 4237   1.394   0.469  12.846
 1302SOL    HW1 4238   1.374   0.512  12.934
 1302SOL    HW2 4239   1.472   0.407  12.855
 1303SOL     OW 4240   0.973   0.890  12.744
 1303SOL    HW1 4241   1.019   0.806  12.715
 1303SOL    HW2 4242   0.917   0.924  12.669
 1304SOL     OW 4243   0.991   0.410  12.414
 1304SOL    HW1 4244   0.914   0.444  12.468
 1304SOL    HW2 4245   0.957   0.359  12.335
 1305SOL     OW 4246   1.041   0.701  11.601
 1305SOL    HW1 4247   1.067   0.697  11.697
 1305SOL    HW2 4248   0.956   0.650  11.587
 1306SOL     OW 4249   0.076   0.811  11.961
 1306SOL    HW1 4250   0.175   0.799  11.970
 1306SOL    HW2 4251   0.052   0.906  11.982
 1307SOL     OW 4252   0.130   1.821  12.743
 1307SOL    HW1 4253   0.120   1.806  12.842
 1307SOL    HW2 4254   0.044   1.857  12.707
 1308SOL     OW 4255   0.865   0.348  11.367
 1308SOL    HW1 4256   0.924   0.411  11.318
 1308SOL    HW2 4257   0.884   0.254  11.338
 1309SOL     OW 4258   1.719   0.585  13.003
 1309SOL    HW1 4259   1.693   0.674  12.967
 1309SOL    HW2 4260   1.717   0.517  12.930
 1310SOL     OW 4261   1.362   1.144  11.717
 1310SOL    HW1 4262   1.445   1.115  11.669
 1310SOL    HW2 4263   1.313   1.211  11.661
 1311SOL     OW 4264   0.550   0.196  12.057
 1311SOL    HW1 4265   0.545   0.191  12.157
 1311SOL    HW2 4266   0.552   0.292  12.028
 1312SOL     OW 4267   1.008   1.456  11.649
 1312SOL    HW1 4268   0.962   1.528  11.597
 1312SOL    HW2 4269   1.004   1.476  11.747
 1313SOL     OW 4270   0.351   1.801  12.025
 1313SOL    HW1 4271   0.401   1.715  12.031
 1313SOL    HW2 4272   0.416   1.878  12.022
 1314SOL     OW 4273   1.795   1.066  12.045
 1314SOL    HW1 4274   1.733   1.051  11.969
 1314SOL    HW2 4275   1.743   1.077  12.130
 1315SOL     OW 4276   1.227   1.550  12.678
 1315SOL    HW1 4277   1.233   1.473  12.742
 1315SOL    HW2 4278   1.175   1.524  12.598
 1316SOL     OW 4279   0.321   0.943  11.414
 1316SOL    HW1 4280   0.403   0.982  11.372
 1316SOL    HW2 4281   0.294   0.861  11.365
 1317SOL     OW 4282   1.458   0.735  11.900
 1317SOL    HW1 4283   1.453   0.670  11.975
 1317SOL    HW2 4284   1.538   0.794  11.913
 1318SOL     OW 4285   0.461   1.266  12.899
 1318SOL    HW1 4286   0.411   1.267  12.813
 1318SOL    HW2 4287   0.398   1.248  12.975
 1319SOL     OW 4288   1.111   1.776  11.409
 1319SOL    HW1 4289   1.051   1.714  11.459
 1319SOL    HW2 4290   1.142   1.732  11.324
 1320SOL     OW 4291   0.202   0.285  12.670
 1320SOL    HW1 4292   0.122   0.345  12.657
 1320SOL    HW2 4293   0.192   0.236  12.756
 1321SOL     OW 4294   1.632   1.377  11.253
 1321SOL    HW1 4295   1.600   1.471  11.243
 1321SOL    HW2 4296   1.556   1.314  11.241
 1322SOL     OW 4297   0.464   1.743  11.495
 1322SOL    HW1 4298   0.497   1.782  11.581
 1322SOL    HW2 4299   0.540   1.736  11.430
 1323SOL     OW 4300   1.400   0.107  11.598
 1323SOL    HW1 4301   1.376   0.070  11.508
 1323SOL    HW2 4302   1.499   0.123  11.602
 1324SOL     OW 4303   0.249   1.785  12.413
 1324SOL    HW1 4304   0.306   1.720  12.463
 1324SOL    HW2 4305   0.233   1.752  12.320
 1325SOL     OW 4306   0.940   1.698  12.076
 1325SOL    HW1 4307   1.020   1.641  12.097
 1325SOL    HW2 4308   0.891   1.658  11.999
 1326SOL     OW 4309   0.382   0.700  11.652
 1326SOL    HW1 4310   0.427   0.610  11.649
 1326SOL    HW2 4311   0.288   0.689  11.685
 1327SOL     OW 4312   1.547   0.222  12.901
 1327SOL    HW1 4313   1.542   0.259  12.993
 1327SOL    HW2 4314   1.475   0.153  12.889
 1328SOL     OW 4315   0.614   0.122  11.289
 1328SOL    HW1 4316   0.712   0.100  11.296
 1328SOL    HW2 4317   0.583   0.105  11.196
 1329SOL     OW 4318   0.781   0.264  12.921
 1329SOL    HW1 4319   0.848   0.203  12.964
 1329SOL    HW2 4320   0.708   0.283  12.986
 1330SOL     OW 4321   0.888   1.514  12.367
 1330SOL    HW1 4322   0.865   1.489  12.273
 1330SOL    HW2 4323   0.949   1.445  12.406
 1331SOL     OW 4324   1.351   0.590  12.605
 1331SOL    HW1 4325   1.379   0.547  12.690
 1331SOL    HW2 4326   1.376   0.686  12.606
 1332SOL     OW 4327   0.803   1.402  12.096
 1332SOL    HW1 4328   0.893   1.416  12.054
 1332SOL    HW2 4329   0.732   1.404  12.025
 1333SOL     OW 4330   0.922   0.503  12.071
 1333SOL    HW1 4331   0.897   0.494  11.975
 1333SOL    HW2 4332   0.970   0.421  12.102
 1334SOL     OW 4333   0.539   0.064  11.684
 1334SOL    HW1 4334   0.458   0.065  11.742
 1334SOL    HW2 4335   0.542   0.147  11.629
 1335SOL     OW 4336   1.434   1.188  11.213
 1335SOL    HW1 4337   1.466   1.112  11.270
 1335SOL    HW2 4338   1.342   1.215  11.243
 1336SOL     OW 4339   0.297   0.035  11.343
 1336SOL    HW1 4340   0.346   0.119  11.322
 1336SOL    HW2 4341   0.359  -0.030  11.388
 1337SOL     OW 4342   0.935   0.236  11.652
 1337SOL    HW1 4343   0.887   0.277  11.574
 1337SOL    HW2 4344   1.034   0.234  11.633
 1338SOL     OW 4345   1.076   0.683  12.636
 1338SOL    HW1 4346   0.996   0.622  12.639
 1338SOL    HW2 4347   1.157   0.630  12.612
 1339SOL     OW 4348   1.227   1.570  11.965
 1339SOL    HW1 4349   1.248   1.644  11.900
 1339SOL    HW2 4350   1.295   1.570  12.038
 1340SOL     OW 4351   0.459   1.152  11.913
 1340SOL    HW1 4352   0.388   1.125  11.978
 1340SOL    HW2 4353   0.433   1.124  11.820
 1341SOL     OW 4354   1.271   1.797  11.763
 1341SOL    HW1 4355   1.315   1.861  11.699
 1341SOL    HW2 4356   1.221   1.849  11.833
 1342SOL     OW 4357   1.032   0.549  11.188
 1342SOL    HW1 4358   0.991   0.631  11.149
 1342SOL    HW2 4359   1.096   0.575  11.261
 1343SOL     OW 4360   0.078   0.556  12.558
 1343SOL    HW1 4361   0.170   0.555  12.517
 1343SOL    HW2 4362   0.072   0.630  12.625
 1344SOL     OW 4363   0.561   0.222  12.319
 1344SOL    HW1 4364   0.599   0.138  12.356
 1344SOL    HW2 4365   0.473   0.241  12.363
 1345SOL     OW 4366   0.866   0.454  11.814
 1345SOL    HW1 4367   0.834   0.526  11.752
 1345SOL    HW2 4368   0.890   0.373  11.761
 1346SOL     OW 4369   1.017   0.039  11.925
 1346SOL    HW1 4370   0.945   0.044  11.856
 1346SOL    HW2 4371   0.993  -0.030  11.994
 1347SOL     OW 4372   1.429   1.173  12.039
 1347SOL    HW1 4373   1.374   1.089  12.032
 1347SOL    HW2 4374   1.455   1.202  11.947
 1348SOL     OW 4375   1.466   0.590  12.164
 1348SOL    HW1 4376   1.436   0.495  12.171
 1348SOL    HW2 4377   1.539   0.606  12.230
 1349SOL     OW 4378   1.857   0.833  11.549
 1349SOL    HW1 4379   1.899   0.769  11.613
 1349SOL    HW2 4380   1.819   0.782  11.471
 1350SOL     OW 4381   0.488   1.385  11.346
 1350SOL    HW1 4382   0.401   1.370  11.393
 1350SOL    HW2 4383   0.471   1.411  11.251
 1351SOL     OW 4384   1.664   1.280  11.829
 1351SOL    HW1 4385   1.763   1.288  11.843
 1351SOL    HW2 4386   1.619   1.364  11.860
 1352SOL     OW 4387   1.390   0.575  11.250
 1352SOL    HW1 4388   1.336   0.554  11.331
 1352SOL    HW2 4389   1.481   0.534  11.259
 1353SOL     OW 4390   0.527   0.256  11.500
 1353SOL    HW1 4391   0.554   0.197  11.425
 1353SOL    HW2 4392   0.527   0.351  11.469
 1354SOL     OW 4393   1.754   1.223  12.760
 1354SOL    HW1 4394   1.845   1.184  12.747
 1354SOL    HW2 4395   1.762   1.319  12.784
 1355SOL     OW 4396   1.064   1.347  12.512
 1355SOL    HW1 4397   0.984   1.324  12.567
 1355SOL    HW2 4398   1.147   1.321  12.561
 1356SOL     OW 4399   1.592   1.629  12.797
 1356SOL    HW1 4400   1.619   1.663  12.707
 1356SOL    HW2 4401   1.671   1.591  12.843
 1357SOL     OW 4402   1.111   1.195  12.272
 1357SOL    HW1 4403   1.071   1.239  12.353
 1357SOL    HW2 4404   1.070   1.232  12.189
 1358SOL     OW 4405   1.638   1.099  12.251
 1358SOL    HW1 4406   1.643   1.180  12.310
 1358SOL    HW2 4407   1.552   1.101  12.200
 1359SOL     OW 4408   0.915   0.089  12.574
 1359SOL    HW1 4409   0.940   0.069  12.479
 1359SOL    HW2 4410   0.987   0.145  12.616
 1360SOL     OW 4411   0.980   1.116  12.891
 1360SOL    HW1 4412   0.881   1.122  12.901
 1360SOL    HW2 4413   1.003   1.036  12.835
 1361SOL     OW 4414   0.705   1.050  11.540
 1361SOL    HW1 4415   0.691   1.057  11.639
 1361SOL    HW2 4416   0.789   0.999  11.522
 1362SOL     OW 4417   0.410   0.813  12.423
 1362SOL    HW1 4418   0.496   0.825  12.473
 1362SOL    HW2 4419   0.368   0.726  12.450
 1363SOL     OW 4420   1.274   0.386  12.434
 1363SOL    HW1 4421   1.295   0.460  12.498
 1363SOL    HW2 4422   1.185   0.403  12.391
 1364SOL     OW 4423   0.064   1.564  12.503
 1364SOL    HW1 4424   0.018   1.646  12.469
 1364SOL    HW2 4425   0.162   1.583  12.512
 1365SOL     OW 4426   0.367   1.100  11.673
 1365SOL    HW1 4427   0.360   1.183  11.617
 1365SOL    HW2 4428   0.371   1.020  11.613
 1366SOL     OW 4429   0.566   0.537  12.037
 1366SOL    HW1 4430   0.578   0.603  11.963
 1366SOL    HW2 4431   0.612   0.571  12.120
 1367SOL     OW 4432   1.252   1.348  11.560
 1367SOL    HW1 4433   1.302   1.425  11.600
 1367SOL    HW2 4434   1.157   1.350  11.592
 1368SOL     OW 4435   1.272   1.445  12.314
 1368SOL    HW1 4436   1.319   1.458  12.401
 1368SOL    HW2 4437   1.206   1.371  12.323
 1369SOL     OW 4438   1.582   0.639  11.644
 1369SOL    HW1 4439   1.551   0.700  11.717
 1369SOL    HW2 4440   1.632   0.691  11.575
 1370SOL     OW 4441   0.354   1.510  12.501
 1370SOL    HW1 4442   0.333   1.466  12.414
 1370SOL    HW2 4443   0.451   1.536  12.504
 1371SOL     OW 4444   0.402   0.751  12.770
 1371SOL    HW1 4445   0.470   0.806  12.723
 1371SOL    HW2 4446   0.442   0.663  12.797
 1372SOL     OW 4447   1.587   0.779  12.842
 1372SOL    HW1 4448   1.495   0.817  12.837
 1372SOL    HW2 4449   1.647   0.826  12.777
 1373SOL     OW 4450   1.013   0.105  12.942
 1373SOL    HW1 4451   1.019   0.190  12.890
 1373SOL    HW2 4452   1.045   0.029  12.885
 1374SOL     OW 4453   0.504   0.050  12.912
 1374SOL    HW1 4454   0.462  -0.007  12.842
 1374SOL    HW2 4455   0.438   0.119  12.944
 1375SOL     OW 4456   0.573   0.870  12.201
 1375SOL    HW1 4457   0.617   0.959  12.192
 1375SOL    HW2 4458   0.510   0.870  12.278
 1376SOL     OW 4459   1.360   0.862  12.217
 1376SOL    HW1 4460   1.285   0.862  12.151
 1376SOL    HW2 4461   1.397   0.770  12.226
 1377SOL     OW 4462   1.209   0.525  11.447
 1377SOL    HW1 4463   1.222   0.441  11.501
 1377SOL    HW2 4464   1.180   0.599  11.507
 1378SOL     OW 4465   0.307   0.213  12.403
 1378SOL    HW1 4466   0.284   0.250  12.493
 1378SOL    HW2 4467   0.277   0.118  12.397
 1379SOL     OW 4468   0.037   1.310  12.454
 1379SOL    HW1 4469   0.090   1.261  12.522
 1379SOL    HW2 4470   0.059   1.408  12.459
 1380SOL     OW 4471   0.732   0.634  12.236
 1380SOL    HW1 4472   0.791   0.608  12.160
 1380SOL    HW2 4473   0.704   0.730  12.225
 1381SOL     OW 4474   1.728   0.935  13.026
 1381SOL    HW1 4475   1.682   0.928  12.937
 1381SOL    HW2 4476   1.666   0.979  13.092
 1382SOL     OW 4477   0.307   0.063  11.790
 1382SOL    HW1 4478   0.296   0.157  11.823
 1382SOL    HW2 4479   0.302   0.000  11.867
 1383SOL     OW 4480   1.622   0.367  11.546
 1383SOL    HW1 4481   1.624   0.291  11.610
 1383SOL    HW2 4482   1.574   0.444  11.586
 1384SOL     OW 4483   1.023   0.766  12.138
 1384SOL    HW1 4484   1.038   0.787  12.234
 1384SOL    HW2 4485   0.993   0.671  12.129
 1385SOL     OW 4486   0.980   1.573  12.872
 1385SOL    HW1 4487   0.960   1.617  12.784
 1385SOL    HW2 4488   1.019   1.482  12.856
 1386SOL     OW 4489   1.859   1.518  12.777
 1386SOL    HW1 4490   1.873   1.545  12.682
 1386SOL    HW2 4491   1.942   1.540  12.830
 1387SOL     OW 4492   0.350   0.898  12.976
 1387SOL    HW1 4493   0.426   0.942  13.024
 1387SOL    HW2 4494   0.385   0.851  12.894
 1388SOL     OW 4495   1.540   0.274  11.297
 1388SOL    HW1 4496   1.479   0.199  11.320
 1388SOL    HW2 4497   1.562   0.326  11.380
 1389SOL     OW 4498   1.303   0.838  11.214
 1389SOL    HW1 4499   1.337   0.745  11.229
 1389SOL    HW2 4500   1.321   0.865  11.119
 1390SOL     OW 4501   1.068   1.333  12.021
 1390SOL    HW1 4502   1.075   1.249  11.966
 1390SOL    HW2 4503   1.130   1.402  11.985
 1391SOL     OW 4504   0.319   0.810  12.121
 1391SOL    HW1 4505   0.412   0.846  12.126
 1391SOL    HW2 4506   0.313   0.725  12.173
 1392SOL     OW 4507   0.339   0.509  12.178
 1392SOL    HW1 4508   0.287   0.426  12.161
 1392SOL    HW2 4509   0.416   0.514  12.114
 1393SOL     OW 4510   1.138   0.380  12.850
 1393SOL    HW1 4511   1.093   0.443  12.914
 1393SOL    HW2 4512   1.231   0.411  12.833
 1394SOL     OW 4513   1.160   0.207  12.649
 1394SOL    HW1 4514   1.160   0.271  12.726
 1394SOL    HW2 4515   1.188   0.255  12.566
 1395SOL     OW 4516   0.008   1.326  11.372
 1395SOL    HW1 4517  -0.085   1.347  11.341
 1395SOL    HW2 4518   0.018   1.227  11.385
 1396SOL     OW 4519   0.088   1.801  12.099
 1396SOL    HW1 4520   0.046   1.715  12.072
 1396SOL    HW2 4521   0.182   1.804  12.065
 1397SOL     OW 4522   0.504   1.568  12.082
 1397SOL    HW1 4523   0.570   1.642  12.091
 1397SOL    HW2 4524   0.548   1.489  12.040
 1398SOL     OW 4525   1.002   0.796  12.410
 1398SOL    HW1 4526   1.043   0.764  12.496
 1398SOL    HW2 4527   0.906   0.769  12.407
 1399SOL     OW 4528   0.040   0.544  12.286
 1399SOL    HW1 4529   0.125   0.511  12.245
 1399SOL    HW2 4530   0.053   0.559  12.384
 1400SOL     OW 4531   0.189   0.520  12.894
 1400SOL    HW1 4532   0.248   0.480  12.824
 1400SOL    HW2 4533   0.131   0.591  12.853
 1401SOL     OW 4534   1.369   0.950  12.832
 1401SOL    HW1 4535   1.408   1.039  12.852
 1401SOL    HW2 4536   1.379   0.930  12.735
 1402SOL     OW 4537   0.815   0.572  11.497
 1402SOL    HW1 4538   0.822   0.483  11.451
 1402SOL    HW2 4539   0.721   0.606  11.489
 1403SOL     OW 4540   1.657   0.604  12.378
 1403SOL    HW1 4541   1.619   0.535  12.440
 1403SOL    HW2 4542   1.739   0.568  12.334
 1404SOL     OW 4543   0.252   1.564  12.916
 1404SOL    HW1 4544   0.222   1.621  12.992
 1404SOL    HW2 4545   0.245   1.467  12.942
 1405SOL     OW 4546   0.671   0.464  12.441
 1405SOL    HW1 4547   0.637   0.375  12.411
 1405SOL    HW2 4548   0.697   0.518  12.361
 1406SOL     OW 4549   0.930   1.678  12.637
 1406SOL    HW1 4550   0.906   1.660  12.542
 1406SOL    HW2 4551   0.960   1.772  12.647
 1407SOL     OW 4552   0.473   0.500  11.363
 1407SOL    HW1 4553   0.534   0.580  11.367
 1407SOL    HW2 4554   0.378   0.531  11.370
 1408SOL     OW 4555   0.159   1.137  12.638
 1408SOL    HW1 4556   0.181   1.076  12.714
 1408SOL    HW2 4557   0.169   1.088  12.552
 1409SOL     OW 4558   1.347   1.059  12.406
 1409SOL    HW1 4559   1.371   0.996  12.332
 1409SOL    HW2 4560   1.257   1.099  12.388
 1410SOL     OW 4561   1.302   0.855  11.481
 1410SOL    HW1 4562   1.216   0.824  11.523
 1410SOL    HW2 4563   1.298   0.841  11.382
 1411SOL     OW 4564   1.759   1.747  12.326
 1411SOL    HW1 4565   1.820   1.777  12.253
 1411SOL    HW2 4566   1.721   1.658  12.304
 1412SOL     OW 4567   1.252   1.731  12.300
 1412SOL    HW1 4568   1.336   1.736  12.246
 1412SOL    HW2 4569   1.229   1.635  12.318
 1413SOL     OW 4570   0.083   1.258  12.194
 1413SOL    HW1 4571   0.078   1.257  12.294
 1413SOL    HW2 4572   0.000   1.217  12.156
 1414SOL     OW 4573   0.688   1.662  12.888
 1414SOL    HW1 4574   0.632   1.743  12.897
 1414SOL    HW2 4575   0.740   1.666  12.802
 1415SOL     OW 4576   1.726   0.135  11.695
 1415SOL    HW1 4577   1.799   0.118  11.628
 1415SOL    HW2 4578   1.695   0.048  11.733
 1416SOL     OW 4579   1.388   1.573  11.649
 1416SOL    HW1 4580   1.455   1.585  11.575
 1416SOL    HW2 4581   1.348   1.662  11.672
 1417SOL     OW 4582   0.130   1.794  13.023
 1417SOL    HW1 4583   0.089   1.720  13.076
 1417SOL    HW2 4584   0.194   1.845  13.081
 1418SOL     OW 4585   1.280   0.927  11.844
 1418SOL    HW1 4586   1.340   0.846  11.846
 1418SOL    HW2 4587   1.320   0.996  11.784
 1419SOL     OW 4588   0.830   1.273  12.594
 1419SOL    HW1 4589   0.825   1.306  12.689
 1419SOL    HW2 4590   0.744   1.292  12.548
 1420SOL     OW 4591   0.672   1.616  11.326
 1420SOL    HW1 4592   0.681   1.626  11.227
 1420SOL    HW2 4593   0.632   1.527  11.347
 1421SOL     OW 4594   1.650   1.720  12.566
 1421SOL    HW1 4595   1.703   1.730  12.482
 1421SOL    HW2 4596   1.623   1.810  12.600
 1422SOL     OW 4597   1.841   0.175  12.135
 1422SOL    HW1 4598   1.880   0.090  12.099
 1422SOL    HW2 4599   1.743   0.177  12.116
 1423SOL     OW 4600   0.263   0.326  11.892
 1423SOL    HW1 4601   0.184   0.377  11.858
 1423SOL    HW2 4602   0.254   0.311  11.990
 1424SOL     OW 4603   1.194   1.612  11.203
 1424SOL    HW1 4604   1.200   1.519  11.240
 1424SOL    HW2 4605   1.135   1.612  11.123
 1425SOL     OW 4606   0.822   1.002  12.544
 1425SOL    HW1 4607   0.862   1.001  12.452
 1425SOL    HW2 4608   0.832   1.094  12.584
 1426SOL     OW 4609   0.916   0.910  11.463
 1426SOL    HW1 4610   0.979   0.948  11.395
 1426SOL    HW2 4611   0.956   0.827  11.502
 1427SOL     OW 4612   1.504   1.607  11.216
 1427SOL    HW1 4613   1.412   1.644  11.223
 1427SOL    HW2 4614   1.542   1.627  11.126
 1428SOL     OW 4615   0.372   1.288  12.662
 1428SOL    HW1 4616   0.359   1.381  12.628
 1428SOL    HW2 4617   0.288   1.236  12.649
 1429SOL     OW 4618   1.614   1.292  12.461
 1429SOL    HW1 4619   1.674   1.295  12.541
 1429SOL    HW2 4620   1.539   1.356  12.474
 1430SOL     OW 4621   1.039   1.098  11.868
 1430SOL    HW1 4622   0.969   1.051  11.922
 1430SOL    HW2 4623   1.098   1.030  11.825
 1431SOL     OW 4624   1.014   0.236  12.143
 1431SOL    HW1 4625   1.006   0.200  12.050
 1431SOL    HW2 4626   1.012   0.160  12.208
 1432SOL     OW 4627   0.590   1.487  11.663
 1432SOL    HW1 4628   0.632   1.429  11.593
 1432SOL    HW2 4629   0.546   1.566  11.619
 1433SOL     OW 4630   1.709   0.385  12.553
 1433SOL    HW1 4631   1.782   0.454  12.557
 1433SOL    HW2 4632   1.737   0.310  12.494
 1434SOL     OW 4633   0.255   1.348  11.462
 1434SOL    HW1 4634   0.159   1.349  11.435
 1434SOL    HW2 4635   0.267   1.401  11.546
 1435SOL     OW 4636   0.105   1.013  12.898
 1435SOL    HW1 4637   0.028   0.980  12.952
 1435SOL    HW2 4638   0.190   0.983  12.940
 1436SOL     OW 4639   0.672   0.203  12.661
 1436SOL    HW1 4640   0.762   0.187  12.621
 1436SOL    HW2 4641   0.680   0.208  12.760
 1437SOL     OW 4642   0.075   0.345  11.205
 1437SOL    HW1 4643  -0.017   0.317  11.176
 1437SOL    HW2 4644   0.106   0.422  11.149
 1438SOL     OW 4645   1.440   0.856  12.570
 1438SOL    HW1 4646   1.383   0.908  12.507
 1438SOL    HW2 4647   1.536   0.868  12.546
 1439SOL     OW 4648   0.072   0.166  11.490
 1439SOL    HW1 4649   0.055   0.249  11.436
 1439SOL    HW2 4650   0.162   0.129  11.468
 1440SOL     OW 4651   1.183   1.335  11.291
 1440SOL    HW1 4652   1.084   1.324  11.293
 1440SOL    HW2 4653   1.217   1.350  11.384
 1441SOL     OW 4654   0.613   0.842  12.603
 1441SOL    HW1 4655   0.669   0.923  12.586
 1441SOL    HW2 4656   0.672   0.762  12.606
 1442SOL     OW 4657   1.493   1.767  12.131
 1442SOL    HW1 4658   1.526   1.831  12.062
 1442SOL    HW2 4659   1.559   1.761  12.206
 1443SOL     OW 4660   0.716   0.565  12.880
 1443SOL    HW1 4661   0.735   0.630  12.954
 1443SOL    HW2 4662   0.776   0.485  12.889
 1444SOL     OW 4663   1.450   1.220  12.805
 1444SOL    HW1 4664   1.441   1.210  12.904
 1444SOL    HW2 4665   1.546   1.213  12.779
 1445SOL     OW 4666   0.390   1.741  12.732
 1445SOL    HW1 4667   0.299   1.782  12.730
 1445SOL    HW2 4668   0.383   1.647  12.764
 1446SOL     OW 4669   1.674   0.883  12.426
 1446SOL    HW1 4670   1.647   0.794  12.389
 1446SOL    HW2 4671   1.675   0.951  12.353
 1447SOL     OW 4672   1.225   0.325  11.621
 1447SOL    HW1 4673   1.290   0.251  11.610
 1447SOL    HW2 4674   1.245   0.375  11.705
 1448SOL     OW 4675   0.594   0.745  11.824
 1448SOL    HW1 4676   0.644   0.830  11.805
 1448SOL    HW2 4677   0.506   0.747  11.776
 1449SOL     OW 4678   1.777   0.342  12.814
 1449SOL    HW1 4679   1.760   0.373  12.720
 1449SOL    HW2 4680   1.693   0.305  12.852
 1450SOL     OW 4681   1.730   0.934  12.689
 1450SOL    HW1 4682   1.768   1.025  12.704
 1450SOL    HW2 4683   1.722   0.917  12.590
 1451SOL     OW 4684   0.859   1.374  11.188
 1451SOL    HW1 4685   0.813   1.389  11.276
 1451SOL    HW2 4686   0.903   1.459  11.158
 1452SOL     OW 4687   0.661   1.790  12.125
 1452SOL    HW1 4688   0.615   1.878  12.112
 1452SOL    HW2 4689   0.760   1.802  12.118
 1453SOL     OW 4690   0.859   0.956  12.033
 1453SOL    HW1 4691   0.913   0.887  12.081
 1453SOL    HW2 4692   0.827   1.025  12.099
 1454SOL     OW 4693   1.083   0.984  11.259
 1454SOL    HW1 4694   1.060   1.037  11.177
 1454SOL    HW2 4695   1.164   0.928  11.240
 1455SOL     OW 4696   1.861   1.569  12.023
 1455SOL    HW1 4697   1.790   1.557  11.953
 1455SOL    HW2 4698   1.862   1.490  12.083
 1456SOL     OW 4699   0.221   1.314  13.016
 1456SOL    HW1 4700   0.156   1.241  12.995
 1456SOL    HW2 4701   0.225   1.328  13.114
 1457SOL     OW 4702   0.079   1.240  11.825
 1457SOL    HW1 4703   0.078   1.193  11.913
 1457SOL    HW2 4704   0.161   1.212  11.774
 1458SOL     OW 4705   0.672   1.391  12.796
 1458SOL    HW1 4706   0.594   1.341  12.834
 1458SOL    HW2 4707   0.669   1.486  12.827
 1459SOL     OW 4708   1.824   0.192  12.399
 1459SOL    HW1 4709   1.820   0.102  12.443
 1459SOL    HW2 4710   1.827   0.181  12.300
 1460SOL     OW 4711   0.428   0.424  11.692
 1460SOL    HW1 4712   0.458   0.352  11.630
 1460SOL    HW2 4713   0.389   0.384  11.775
 1461SOL     OW 4714   1.705   1.487  12.276
 1461SOL    HW1 4715   1.612   1.462  12.249
 1461SOL    HW2 4716   1.731   1.437  12.358
 1462SOL     OW 4717   0.317   0.547  12.452
 1462SOL    HW1 4718   0.355   0.488  12.524
 1462SOL    HW2 4719   0.357   0.521  12.364
 1463SOL     OW 4720   0.812   1.586  11.859
 1463SOL    HW1 4721   0.844   1.596  11.765
 1463SOL    HW2 4722   0.733   1.524  11.861
 1464SOL     OW 4723   1.424   0.214  12.284
 1464SOL    HW1 4724   1.476   0.149  12.339
 1464SOL    HW2 4725   1.375   0.277  12.345
 1465SOL     OW 4726   1.001   0.034  12.326
 1465SOL    HW1 4727   0.938  -0.038  12.295
 1465SOL    HW2 4728   1.094  -0.002  12.326
 1466SOL     OW 4729   0.770   1.330  11.473
 1466SOL    HW1 4730   0.724   1.243  11.490
 1466SOL    HW2 4731   0.861   1.327  11.514
 1467SOL     OW 4732   0.618   1.567  12.456
 1467SOL    HW1 4733   0.613   1.649  12.513
 1467SOL    HW2 4734   0.707   1.564  12.411
 1468SOL     OW 4735   1.352   0.052  11.340
 1468SOL    HW1 4736   1.387   0.011  11.256
 1468SOL    HW2 4737   1.262   0.014  11.360
 1469SOL     OW 4738   1.300   0.453  11.863
 1469SOL    HW1 4739   1.241   0.533  11.867
 1469SOL    HW2 4740   1.315   0.418  11.956
 1470SOL     OW 4741   1.593   0.221  12.054
 1470SOL    HW1 4742   1.509   0.220  12.108
 1470SOL    HW2 4743   1.595   0.304  11.998
 1471SOL     OW 4744   0.039   1.077  11.472
 1471SOL    HW1 4745   0.138   1.066  11.463
 1471SOL    HW2 4746  -0.001   0.991  11.504
 1472SOL     OW 4747   0.875   1.646  11.509
 1472SOL    HW1 4748   0.798   1.611  11.455
 1472SOL    HW2 4749   0.843   1.717  11.571
 1473SOL     OW 4750   0.230   0.628  13.147
 1473SOL    HW1 4751   0.137   0.626  13.184
 1473SOL    HW2 4752   0.231   0.589  13.055
 1474SOL     OW 4753   0.225   0.275  14.030
 1474SOL    HW1 4754   0.260   0.258  14.122
 1474SOL    HW2 4755   0.137   0.230  14.018
 1475SOL     OW 4756   0.019   0.368  13.681
 1475SOL    HW1 4757  -0.063   0.411  13.720
 1475SOL    HW2 4758  -0.009   0.295  13.618
 1476SOL     OW 4759   1.555   1.511  13.737
 1476SOL    HW1 4760   1.498   1.495  13.818
 1476SOL    HW2 4761   1.496   1.521  13.657
 1477SOL     OW 4762   1.135   0.703  13.751
 1477SOL    HW1 4763   1.192   0.781  13.726
 1477SOL    HW2 4764   1.075   0.729  13.827
 1478SOL     OW 4765   1.755   0.607  13.265
 1478SOL    HW1 4766   1.743   0.594  13.166
 1478SOL    HW2 4767   1.725   0.526  13.314
 1479SOL     OW 4768   0.685   1.012  13.699
 1479SOL    HW1 4769   0.754   0.996  13.769
 1479SOL    HW2 4770   0.612   1.069  13.737
 1480SOL     OW 4771   1.603   0.447  13.771
 1480SOL    HW1 4772   1.529   0.493  13.721
 1480SOL    HW2 4773   1.654   0.515  13.824
 1481SOL     OW 4774   0.231   1.713  13.517
 1481SOL    HW1 4775   0.265   1.790  13.571
 1481SOL    HW2 4776   0.275   1.713  13.427
 1482SOL     OW 4777   0.230   1.434  13.572
 1482SOL    HW1 4778   0.204   1.530  13.572
 1482SOL    HW2 4779   0.159   1.380  13.617
 1483SOL     OW 4780   0.240   1.091  13.920
 1483SOL    HW1 4781   0.254   1.007  13.972
 1483SOL    HW2 4782   0.185   1.155  13.975
 1484SOL     OW 4783   0.606   0.964  13.157
 1484SOL    HW1 4784   0.613   1.048  13.103
 1484SOL    HW2 4785   0.652   0.977  13.245
 1485SOL     OW 4786   0.122   0.643  13.597
 1485SOL    HW1 4787   0.077   0.555  13.614
 1485SOL    HW2 4788   0.121   0.697  13.681
 1486SOL     OW 4789   0.027   1.596  13.151
 1486SOL    HW1 4790   0.008   1.500  13.172
 1486SOL    HW2 4791  -0.006   1.654  13.226
 1487SOL     OW 4792   1.689   0.922  13.646
 1487SOL    HW1 4793   1.784   0.893  13.654
 1487SOL    HW2 4794   1.681   0.987  13.571
 1488SOL     OW 4795   1.641   1.108  13.466
 1488SOL    HW1 4796   1.727   1.110  13.414
 1488SOL    HW2 4797   1.655   1.155  13.554
 1489SOL     OW 4798   0.613   1.365  13.760
 1489SOL    HW1 4799   0.564   1.278  13.769
 1489SOL    HW2 4800   0.590   1.408  13.673
 1490SOL     OW 4801   0.809   0.004  13.536
 1490SOL    HW1 4802   0.849   0.095  13.527
 1490SOL    HW2 4803   0.709   0.012  13.542
 1491SOL     OW 4804   1.525   0.999  13.224
 1491SOL    HW1 4805   1.462   0.923  13.237
 1491SOL    HW2 4806   1.573   1.017  13.310
 1492SOL     OW 4807   1.667   1.714  13.606
 1492SOL    HW1 4808   1.626   1.691  13.518
 1492SOL    HW2 4809   1.649   1.640  13.671
 1493SOL     OW 4810   0.598   0.729  13.304
 1493SOL    HW1 4811   0.622   0.798  13.236
 1493SOL    HW2 4812   0.520   0.762  13.358
 1494SOL     OW 4813   1.281   0.345  13.978
 1494SOL    HW1 4814   1.195   0.295  13.965
 1494SOL    HW2 4815   1.343   0.291  14.034
 1495SOL     OW 4816   1.576   1.662  13.341
 1495SOL    HW1 4817   1.665   1.708  13.344
 1495SOL    HW2 4818   1.555   1.638  13.246
 1496SOL     OW 4819   1.041   0.701  13.463
 1496SOL    HW1 4820   1.067   0.697  13.559
 1496SOL    HW2 4821   0.956   0.650  13.449
 1497SOL     OW 4822   0.076   0.811  13.823
 1497SOL    HW1 4823   0.175   0.799  13.832
 1497SOL    HW2 4824   0.052   0.906  13.844
 1498SOL     OW 4825   0.865   0.348  13.229
 1498SOL    HW1 4826   0.924   0.411  13.180
 1498SOL    HW2 4827   0.884   0.254  13.200
 1499SOL     OW 4828   1.362   1.144  13.579
 1499SOL    HW1 4829   1.445   1.115  13.531
 1499SOL    HW2 4830   1.313   1.211  13.523
 1500SOL     OW 4831   1.008   1.456  13.511
 1500SOL    HW1 4832   0.962   1.528  13.459
 1500SOL    HW2 4833   1.004   1.476  13.609
 1501SOL     OW 4834   0.351   1.801  13.887
 1501SOL    HW1 4835   0.401   1.715  13.893
 1501SOL    HW2 4836   0.416   1.878  13.884
 1502SOL     OW 4837   1.795   1.066  13.907
 1502SOL    HW1 4838   1.733   1.051  13.831
 1502SOL    HW2 4839   1.743   1.077  13.992
 1503SOL     OW 4840   0.321   0.943  13.276
 1503SOL    HW1 4841   0.403   0.982  13.234
 1503SOL    HW2 4842   0.294   0.861  13.227
 1504SOL     OW 4843   1.458   0.735  13.762
 1504SOL    HW1 4844   1.453   0.670  13.837
 1504SOL    HW2 4845   1.538   0.794  13.775
 1505SOL     OW 4846   1.111   1.776  13.271
 1505SOL    HW1 4847   1.051   1.714  13.321
 1505SOL    HW2 4848   1.142   1.732  13.186
 1506SOL     OW 4849   1.632   1.377  13.115
 1506SOL    HW1 4850   1.600   1.471  13.105
 1506SOL    HW2 4851   1.556   1.314  13.103
 1507SOL     OW 4852   0.464   1.743  13.357
 1507SOL    HW1 4853   0.497   1.782  13.443
 1507SOL    HW2 4854   0.540   1.736  13.292
 1508SOL     OW 4855   1.400   0.107  13.460
 1508SOL    HW1 4856   1.376   0.070  13.370
 1508SOL    HW2 4857   1.499   0.123  13.464
 1509SOL     OW 4858   0.940   1.698  13.938
 1509SOL    HW1 4859   1.020   1.641  13.959
 1509SOL    HW2 4860   0.891   1.658  13.861
 1510SOL     OW 4861   0.382   0.700  13.514
 1510SOL    HW1 4862   0.427   0.610  13.511
 1510SOL    HW2 4863   0.288   0.689  13.547
 1511SOL     OW 4864   0.614   0.122  13.151
 1511SOL    HW1 4865   0.712   0.100  13.158
 1511SOL    HW2 4866   0.583   0.105  13.058
 1512SOL     OW 4867   0.539   0.064  13.546
 1512SOL    HW1 4868   0.458   0.065  13.604
 1512SOL    HW2 4869   0.542   0.147  13.491
 1513SOL     OW 4870   1.434   1.188  13.075
 1513SOL    HW1 4871   1.466   1.112  13.132
 1513SOL    HW2 4872   1.342   1.215  13.105
 1514SOL     OW 4873   0.297   0.035  13.205
 1514SOL    HW1 4874   0.346   0.119  13.184
 1514SOL    HW2 4875   0.359  -0.030  13.250
 1515SOL     OW 4876   0.935   0.236  13.514
 1515SOL    HW1 4877   0.887   0.277  13.436
 1515SOL    HW2 4878   1.034   0.234  13.495
 1516SOL     OW 4879   0.459   1.152  13.775
 1516SOL    HW1 4880   0.388   1.125  13.840
 1516SOL    HW2 4881   0.433   1.124  13.682
 1517SOL     OW 4882   1.271   1.797  13.625
 1517SOL    HW1 4883   1.315   1.861  13.561
 1517SOL    HW2 4884   1.221   1.849  13.695
 1518SOL     OW 4885   1.032   0.549  13.050
 1518SOL    HW1 4886   0.991   0.631  13.011
 1518SOL    HW2 4887   1.096   0.575  13.123
 1519SOL     OW 4888   0.866   0.454  13.676
 1519SOL    HW1 4889   0.834   0.526  13.614
 1519SOL    HW2 4890   0.890   0.373  13.623
 1520SOL     OW 4891   1.017   0.039  13.787
 1520SOL    HW1 4892   0.945   0.044  13.718
 1520SOL    HW2 4893   0.993  -0.030  13.856
 1521SOL     OW 4894   1.857   0.833  13.411
 1521SOL    HW1 4895   1.899   0.769  13.475
 1521SOL    HW2 4896   1.819   0.782  13.333
 1522SOL     OW 4897   0.488   1.385  13.208
 1522SOL    HW1 4898   0.401   1.370  13.255
 1522SOL    HW2 4899   0.471   1.411  13.113
 1523SOL     OW 4900   1.664   1.280  13.691
 1523SOL    HW1 4901   1.763   1.288  13.705
 1523SOL    HW2 4902   1.619   1.364  13.722
 1524SOL     OW 4903   1.390   0.575  13.112
 1524SOL    HW1 4904   1.336   0.554  13.193
 1524SOL    HW2 4905   1.481   0.534  13.121
 1525SOL     OW 4906   0.527   0.256  13.362
 1525SOL    HW1 4907   0.554   0.197  13.287
 1525SOL    HW2 4908   0.527   0.351  13.331
 1526SOL     OW 4909   0.705   1.050  13.402
 1526SOL    HW1 4910   0.691   1.057  13.501
 1526SOL    HW2 4911   0.789   0.999  13.384
 1527SOL     OW 4912   0.367   1.100  13.535
 1527SOL    HW1 4913   0.360   1.183  13.479
 1527SOL    HW2 4914   0.371   1.020  13.475
 1528SOL     OW 4915   0.566   0.537  13.899
 1528SOL    HW1 4916   0.578   0.603  13.825
 1528SOL    HW2 4917   0.612   0.571  13.982
 1529SOL     OW 4918   1.252   1.348  13.422
 1529SOL    HW1 4919   1.302   1.425  13.462
 1529SOL    HW2 4920   1.157   1.350  13.454
 1530SOL     OW 4921   1.582   0.639  13.506
 1530SOL    HW1 4922   1.551   0.700  13.579
 1530SOL    HW2 4923   1.632   0.691  13.437
 1531SOL     OW 4924   1.209   0.525  13.309
 1531SOL    HW1 4925   1.222   0.441  13.363
 1531SOL    HW2 4926   1.180   0.599  13.369
 1532SOL     OW 4927   0.307   0.063  13.652
 1532SOL    HW1 4928   0.296   0.157  13.685
 1532SOL    HW2 4929   0.302   0.000  13.729
 1533SOL     OW 4930   1.622   0.367  13.408
 1533SOL    HW1 4931   1.624   0.291  13.472
 1533SOL    HW2 4932   1.574   0.444  13.448
 1534SOL     OW 4933   1.540   0.274  13.159
 1534SOL    HW1 4934   1.479   0.199  13.182
 1534SOL    HW2 4935   1.562   0.326  13.242
 1535SOL     OW 4936   1.303   0.838  13.076
 1535SOL    HW1 4937   1.337   0.745  13.091
 1535SOL    HW2 4938   1.321   0.865  12.981
 1536SOL     OW 4939   0.008   1.326  13.234
 1536SOL    HW1 4940  -0.085   1.347  13.203
 1536SOL    HW2 4941   0.018   1.227  13.247
 1537SOL     OW 4942   0.815   0.572  13.359
 1537SOL    HW1 4943   0.822   0.483  13.313
 1537SOL    HW2 4944   0.721   0.606  13.351
 1538SOL     OW 4945   0.473   0.500  13.225
 1538SOL    HW1 4946   0.534   0.580  13.229
 1538SOL    HW2 4947   0.378   0.531  13.232
 1539SOL     OW 4948   1.302   0.855  13.343
 1539SOL    HW1 4949   1.216   0.824  13.385
 1539SOL    HW2 4950   1.298   0.841  13.244
 1540SOL     OW 4951   1.726   0.135  13.557
 1540SOL    HW1 4952   1.799   0.118  13.490
 1540SOL    HW2 4953   1.695   0.048  13.595
 1541SOL     OW 4954   1.388   1.573  13.511
 1541SOL    HW1 4955   1.455   1.585  13.437
 1541SOL    HW2 4956   1.348   1.662  13.534
 1542SOL     OW 4957   1.280   0.927  13.706
 1542SOL    HW1 4958   1.340   0.846  13.708
 1542SOL    HW2 4959   1.320   0.996  13.646
 1543SOL     OW 4960   0.672   1.616  13.188
 1543SOL    HW1 4961   0.681   1.626  13.089
 1543SOL    HW2 4962   0.632   1.527  13.209
 1544SOL     OW 4963   1.841   0.175  13.997
 1544SOL    HW1 4964   1.880   0.090  13.961
 1544SOL    HW2 4965   1.743   0.177  13.978
 1545SOL     OW 4966   0.263   0.326  13.754
 1545SOL    HW1 4967   0.184   0.377  13.720
 1545SOL    HW2 4968   0.254   0.311  13.852
 1546SOL     OW 4969   1.194   1.612  13.065
 1546SOL    HW1 4970   1.200   1.519  13.102
 1546SOL    HW2 4971   1.135   1.612  12.985
 1547SOL     OW 4972   0.916   0.910  13.325
 1547SOL    HW1 4973   0.979   0.948  13.257
 1547SOL    HW2 4974   0.956   0.827  13.364
 1548SOL     OW 4975   1.504   1.607  13.078
 1548SOL    HW1 4976   1.412   1.644  13.085
 1548SOL    HW2 4977   1.542   1.627  12.988
 1549SOL     OW 4978   1.039   1.098  13.730
 1549SOL    HW1 4979   0.969   1.051  13.784
 1549SOL    HW2 4980   1.098   1.030  13.687
 1550SOL     OW 4981   0.590   1.487  13.525
 1550SOL    HW1 4982   0.632   1.429  13.455
 1550SOL    HW2 4983   0.546   1.566  13.481
 1551SOL     OW 4984   0.255   1.348  13.324
 1551SOL    HW1 4985   0.159   1.349  13.297
 1551SOL    HW2 4986   0.267   1.401  13.408
 1552SOL     OW 4987   0.075   0.345  13.067
 1552SOL    HW1 4988  -0.017   0.317  13.038
 1552SOL    HW2 4989   0.106   0.422  13.011
 1553SOL     OW 4990   0.072   0.166  13.352
 1553SOL    HW1 4991   0.055   0.249  13.298
 1553SOL    HW2 4992   0.162   0.129  13.330
 1554SOL     OW 4993   1.183   1.335  13.153
 1554SOL    HW1 4994   1.084   1.324  13.155
 1554SOL    HW2 4995   1.217   1.350  13.246
 1555SOL     OW 4996   1.225   0.325  13.483
 1555SOL    HW1 4997   1.290   0.251  13.472
 1555SOL    HW2 4998   1.245   0.375  13.567
 1556SOL     OW 4999   0.594   0.745  13.686
 1556SOL    HW1 5000   0.644   0.830  13.667
 1556SOL    HW2 5001   0.506   0.747  13.638
 1557SOL     OW 5002   0.859   1.374  13.050
 1557SOL    HW1 5003   0.813   1.389  13.138
 1557SOL    HW2 5004   0.903   1.459  13.020
 1558SOL     OW 5005   0.661   1.790  13.987
 1558SOL    HW1 5006   0.615   1.878  13.974
 1558SOL    HW2 5007   0.760   1.802  13.980
 1559SOL     OW 5008   0.859   0.956  13.895
 1559SOL    HW1 5009   0.913   0.887  13.943
 1559SOL    HW2 5010   0.827   1.025  13.961
 1560SOL     OW 5011   1.083   0.984  13.121
 1560SOL    HW1 5012   1.060   1.037  13.039
 1560SOL    HW2 5013   1.164   0.928  13.102
 1561SOL     OW 5014   0.079   1.240  13.687
 1561SOL    HW1 5015   0.078   1.193  13.775
 1561SOL    HW2 5016   0.161   1.212  13.636
 1562SOL     OW 5017   0.428   0.424  13.554
 1562SOL    HW1 5018   0.458   0.352  13.492
 1562SOL    HW2 5019   0.389   0.384  13.637
 1563SOL     OW 5020   1.705   1.487  14.138
 1563SOL    HW1 5021   1.612   1.462  14.111
 1563SOL    HW2 5022   1.731   1.437  14.220
 1564SOL     OW 5023   0.812   1.586  13.721
 1564SOL    HW1 5024   0.844   1.596  13.627
 1564SOL    HW2 5025   0.733   1.524  13.723
 1565SOL     OW 5026   0.770   1.330  13.335
 1565SOL    HW1 5027   0.724   1.243  13.352
 1565SOL    HW2 5028   0.861   1.327  13.376
 1566SOL     OW 5029   1.352   0.052  13.202
 1566SOL    HW1 5030   1.387   0.011  13.118
 1566SOL    HW2 5031   1.262   0.014  13.222
 1567SOL     OW 5032   1.300   0.453  13.725
 1567SOL    HW1 5033   1.241   0.533  13.729
 1567SOL    HW2 5034   1.315   0.418  13.818
 1568SOL     OW 5035   0.039   1.077  13.334
 1568SOL    HW1 5036   0.138   1.066  13.325
 1568SOL    HW2 5037  -0.001   0.991  13.366
 1569SOL     OW 5038   0.875   1.646  13.371
 1569SOL    HW1 5039   0.798   1.611  13.317
 1569SOL    HW2 5040   0.843   1.717  13.433
 1570SOL     OW 5041   0.230   2.490   0.113
 1570SOL    HW1 5042   0.137   2.488   0.150
 1570SOL    HW2 5043   0.231   2.451   0.021
 1571SOL     OW 5044   0.225   2.137   0.996
 1571SOL    HW1 5045   0.260   2.120   1.088
 1571SOL    HW2 5046   0.137   2.092   0.984
 1572SOL     OW 5047   0.019   2.230   0.647
 1572SOL    HW1 5048  -0.063   2.273   0.686
 1572SOL    HW2 5049  -0.009   2.157   0.584
 1573SOL     OW 5050   0.569   3.137   1.165
 1573SOL    HW1 5051   0.476   3.130   1.128
 1573SOL    HW2 5052   0.580   3.226   1.209
 1574SOL     OW 5053   1.555   3.373   0.703
 1574SOL    HW1 5054   1.498   3.357   0.784
 1574SOL    HW2 5055   1.496   3.383   0.623
 1575SOL     OW 5056   1.135   2.565   0.717
 1575SOL    HW1 5057   1.192   2.643   0.692
 1575SOL    HW2 5058   1.075   2.591   0.793
 1576SOL     OW 5059   1.755   2.469   0.231
 1576SOL    HW1 5060   1.743   2.456   0.132
 1576SOL    HW2 5061   1.725   2.388   0.280
 1577SOL     OW 5062   0.768   3.006   1.023
 1577SOL    HW1 5063   0.690   3.023   1.083
 1577SOL    HW2 5064   0.802   3.093   0.987
 1578SOL     OW 5065   0.850   2.660   1.823
 1578SOL    HW1 5066   0.846   2.736   1.888
 1578SOL    HW2 5067   0.872   2.696   1.732
 1579SOL     OW 5068   0.685   2.874   0.665
 1579SOL    HW1 5069   0.754   2.858   0.735
 1579SOL    HW2 5070   0.612   2.931   0.703
 1580SOL     OW 5071   0.686   3.023   1.803
 1580SOL    HW1 5072   0.746   3.102   1.817
 1580SOL    HW2 5073   0.600   3.054   1.762
 1581SOL     OW 5074   0.335   3.297   1.061
 1581SOL    HW1 5075   0.257   3.266   1.008
 1581SOL    HW2 5076   0.393   3.355   1.004
 1582SOL     OW 5077   1.460   3.367   1.339
 1582SOL    HW1 5078   1.484   3.461   1.365
 1582SOL    HW2 5079   1.444   3.313   1.421
 1583SOL     OW 5080   0.438   2.254   1.499
 1583SOL    HW1 5081   0.520   2.198   1.508
 1583SOL    HW2 5082   0.357   2.196   1.503
 1584SOL     OW 5083   1.603   2.309   0.737
 1584SOL    HW1 5084   1.529   2.355   0.687
 1584SOL    HW2 5085   1.654   2.377   0.790
 1585SOL     OW 5086   0.231   3.575   0.483
 1585SOL    HW1 5087   0.265   3.652   0.537
 1585SOL    HW2 5088   0.275   3.575   0.393
 1586SOL     OW 5089   1.127   3.203   1.690
 1586SOL    HW1 5090   1.174   3.203   1.778
 1586SOL    HW2 5091   1.079   3.116   1.679
 1587SOL     OW 5092   0.230   3.296   0.538
 1587SOL    HW1 5093   0.204   3.392   0.538
 1587SOL    HW2 5094   0.159   3.242   0.583
 1588SOL     OW 5095   0.240   2.953   0.886
 1588SOL    HW1 5096   0.254   2.869   0.938
 1588SOL    HW2 5097   0.185   3.017   0.941
 1589SOL     OW 5098   0.620   3.648   1.439
 1589SOL    HW1 5099   0.528   3.631   1.474
 1589SOL    HW2 5100   0.648   3.740   1.465
 1590SOL     OW 5101   0.606   2.826   0.123
 1590SOL    HW1 5102   0.613   2.910   0.069
 1590SOL    HW2 5103   0.652   2.839   0.211
 1591SOL     OW 5104   1.594   1.976   1.480
 1591SOL    HW1 5105   1.576   2.043   1.408
 1591SOL    HW2 5106   1.591   2.022   1.569
 1592SOL     OW 5107   0.122   2.505   0.563
 1592SOL    HW1 5108   0.077   2.417   0.580
 1592SOL    HW2 5109   0.121   2.559   0.647
 1593SOL     OW 5110   1.842   3.629   0.359
 1593SOL    HW1 5111   1.896   3.600   0.439
 1593SOL    HW2 5112   1.872   3.719   0.330
 1594SOL     OW 5113   0.027   3.458   0.117
 1594SOL    HW1 5114   0.008   3.362   0.138
 1594SOL    HW2 5115  -0.006   3.516   0.192
 1595SOL     OW 5116   1.689   2.784   0.612
 1595SOL    HW1 5117   1.784   2.755   0.620
 1595SOL    HW2 5118   1.681   2.849   0.537
 1596SOL     OW 5119   1.641   2.970   0.432
 1596SOL    HW1 5120   1.727   2.972   0.380
 1596SOL    HW2 5121   1.655   3.017   0.520
 1597SOL     OW 5122   0.113   2.599   1.597
 1597SOL    HW1 5123   0.201   2.586   1.642
 1597SOL    HW2 5124   0.100   2.696   1.575
 1598SOL     OW 5125   0.613   3.227   0.726
 1598SOL    HW1 5126   0.564   3.140   0.735
 1598SOL    HW2 5127   0.590   3.270   0.639
 1599SOL     OW 5128   1.293   3.090   1.423
 1599SOL    HW1 5129   1.330   3.017   1.365
 1599SOL    HW2 5130   1.345   3.095   1.508
 1600SOL     OW 5131   0.809   1.866   0.502
 1600SOL    HW1 5132   0.849   1.957   0.493
 1600SOL    HW2 5133   0.709   1.874   0.508
 1601SOL     OW 5134   0.197   2.838   1.264
 1601SOL    HW1 5135   0.286   2.793   1.250
 1601SOL    HW2 5136   0.124   2.773   1.245
 1602SOL     OW 5137   1.525   2.861   0.190
 1602SOL    HW1 5138   1.462   2.785   0.203
 1602SOL    HW2 5139   1.573   2.879   0.276
 1603SOL     OW 5140   1.187   3.654   1.616
 1603SOL    HW1 5141   1.211   3.714   1.540
 1603SOL    HW2 5142   1.194   3.559   1.586
 1604SOL     OW 5143   0.317   2.113   1.801
 1604SOL    HW1 5144   0.388   2.184   1.807
 1604SOL    HW2 5145   0.229   2.152   1.829
 1605SOL     OW 5146   1.466   3.279   0.953
 1605SOL    HW1 5147   1.407   3.285   1.033
 1605SOL    HW2 5148   1.451   3.191   0.907
 1606SOL     OW 5149   1.667   3.576   0.572
 1606SOL    HW1 5150   1.626   3.553   0.484
 1606SOL    HW2 5151   1.649   3.502   0.637
 1607SOL     OW 5152   0.598   2.591   0.270
 1607SOL    HW1 5153   0.622   2.660   0.202
 1607SOL    HW2 5154   0.520   2.624   0.324
 1608SOL     OW 5155   1.281   2.207   0.944
 1608SOL    HW1 5156   1.195   2.157   0.931
 1608SOL    HW2 5157   1.343   2.153   1.000
 1609SOL     OW 5158   1.576   3.524   0.307
 1609SOL    HW1 5159   1.665   3.570   0.310
 1609SOL    HW2 5160   1.555   3.500   0.212
 1610SOL     OW 5161   0.807   2.467   1.465
 1610SOL    HW1 5162   0.760   2.464   1.554
 1610SOL    HW2 5163   0.756   2.412   1.399
 1611SOL     OW 5164   1.394   2.331   1.674
 1611SOL    HW1 5165   1.374   2.374   1.762
 1611SOL    HW2 5166   1.472   2.269   1.683
 1612SOL     OW 5167   0.973   2.752   1.572
 1612SOL    HW1 5168   1.019   2.668   1.543
 1612SOL    HW2 5169   0.917   2.786   1.497
 1613SOL     OW 5170   0.991   2.272   1.242
 1613SOL    HW1 5171   0.914   2.306   1.296
 1613SOL    HW2 5172   0.957   2.221   1.163
 1614SOL     OW 5173   1.041   2.563   0.429
 1614SOL    HW1 5174   1.067   2.559   0.525
 1614SOL    HW2 5175   0.956   2.512   0.415
 1615SOL     OW 5176   0.076   2.673   0.789
 1615SOL    HW1 5177   0.175   2.661   0.798
 1615SOL    HW2 5178   0.052   2.768   0.810
 1616SOL     OW 5179   0.130   3.683   1.571
 1616SOL    HW1 5180   0.120   3.668   1.670
 1616SOL    HW2 5181   0.044   3.719   1.535
 1617SOL     OW 5182   0.865   2.210   0.195
 1617SOL    HW1 5183   0.924   2.273   0.146
 1617SOL    HW2 5184   0.884   2.116   0.166
 1618SOL     OW 5185   1.719   2.447   1.831
 1618SOL    HW1 5186   1.693   2.536   1.795
 1618SOL    HW2 5187   1.717   2.379   1.758
 1619SOL     OW 5188   1.362   3.006   0.545
 1619SOL    HW1 5189   1.445   2.977   0.497
 1619SOL    HW2 5190   1.313   3.073   0.489
 1620SOL     OW 5191   0.550   2.058   0.885
 1620SOL    HW1 5192   0.545   2.053   0.985
 1620SOL    HW2 5193   0.552   2.154   0.856
 1621SOL     OW 5194   1.008   3.318   0.477
 1621SOL    HW1 5195   0.962   3.390   0.425
 1621SOL    HW2 5196   1.004   3.338   0.575
 1622SOL     OW 5197   0.351   3.663   0.853
 1622SOL    HW1 5198   0.401   3.577   0.859
 1622SOL    HW2 5199   0.416   3.740   0.850
 1623SOL     OW 5200   1.795   2.928   0.873
 1623SOL    HW1 5201   1.733   2.913   0.797
 1623SOL    HW2 5202   1.743   2.939   0.958
 1624SOL     OW 5203   1.227   3.412   1.506
 1624SOL    HW1 5204   1.233   3.335   1.570
 1624SOL    HW2 5205   1.175   3.386   1.426
 1625SOL     OW 5206   0.321   2.805   0.242
 1625SOL    HW1 5207   0.403   2.844   0.200
 1625SOL    HW2 5208   0.294   2.723   0.193
 1626SOL     OW 5209   1.458   2.597   0.728
 1626SOL    HW1 5210   1.453   2.532   0.803
 1626SOL    HW2 5211   1.538   2.656   0.741
 1627SOL     OW 5212   0.461   3.128   1.727
 1627SOL    HW1 5213   0.411   3.129   1.641
 1627SOL    HW2 5214   0.398   3.110   1.803
 1628SOL     OW 5215   1.111   3.638   0.237
 1628SOL    HW1 5216   1.051   3.576   0.287
 1628SOL    HW2 5217   1.142   3.594   0.152
 1629SOL     OW 5218   0.202   2.147   1.498
 1629SOL    HW1 5219   0.122   2.207   1.485
 1629SOL    HW2 5220   0.192   2.098   1.584
 1630SOL     OW 5221   1.632   3.239   0.081
 1630SOL    HW1 5222   1.600   3.333   0.071
 1630SOL    HW2 5223   1.556   3.176   0.069
 1631SOL     OW 5224   0.464   3.605   0.323
 1631SOL    HW1 5225   0.497   3.644   0.409
 1631SOL    HW2 5226   0.540   3.598   0.258
 1632SOL     OW 5227   1.400   1.969   0.426
 1632SOL    HW1 5228   1.376   1.932   0.336
 1632SOL    HW2 5229   1.499   1.985   0.430
 1633SOL     OW 5230   0.249   3.647   1.241
 1633SOL    HW1 5231   0.306   3.582   1.291
 1633SOL    HW2 5232   0.233   3.614   1.148
 1634SOL     OW 5233   0.940   3.560   0.904
 1634SOL    HW1 5234   1.020   3.503   0.925
 1634SOL    HW2 5235   0.891   3.520   0.827
 1635SOL     OW 5236   0.382   2.562   0.480
 1635SOL    HW1 5237   0.427   2.472   0.477
 1635SOL    HW2 5238   0.288   2.551   0.513
 1636SOL     OW 5239   1.547   2.084   1.729
 1636SOL    HW1 5240   1.542   2.121   1.821
 1636SOL    HW2 5241   1.475   2.015   1.717
 1637SOL     OW 5242   0.781   2.126   1.749
 1637SOL    HW1 5243   0.848   2.065   1.792
 1637SOL    HW2 5244   0.708   2.145   1.814
 1638SOL     OW 5245   0.888   3.376   1.195
 1638SOL    HW1 5246   0.865   3.351   1.101
 1638SOL    HW2 5247   0.949   3.307   1.234
 1639SOL     OW 5248   1.351   2.452   1.433
 1639SOL    HW1 5249   1.379   2.409   1.518
 1639SOL    HW2 5250   1.376   2.548   1.434
 1640SOL     OW 5251   0.803   3.264   0.924
 1640SOL    HW1 5252   0.893   3.278   0.882
 1640SOL    HW2 5253   0.732   3.266   0.853
 1641SOL     OW 5254   0.922   2.365   0.899
 1641SOL    HW1 5255   0.897   2.356   0.803
 1641SOL    HW2 5256   0.970   2.283   0.930
 1642SOL     OW 5257   0.539   1.926   0.512
 1642SOL    HW1 5258   0.458   1.927   0.570
 1642SOL    HW2 5259   0.542   2.009   0.457
 1643SOL     OW 5260   1.434   3.050   0.041
 1643SOL    HW1 5261   1.466   2.974   0.098
 1643SOL    HW2 5262   1.342   3.077   0.071
 1644SOL     OW 5263   0.297   1.897   0.171
 1644SOL    HW1 5264   0.346   1.981   0.150
 1644SOL    HW2 5265   0.359   1.832   0.216
 1645SOL     OW 5266   0.935   2.098   0.480
 1645SOL    HW1 5267   0.887   2.139   0.402
 1645SOL    HW2 5268   1.034   2.096   0.461
 1646SOL     OW 5269   1.076   2.545   1.464
 1646SOL    HW1 5270   0.996   2.484   1.467
 1646SOL    HW2 5271   1.157   2.492   1.440
 1647SOL     OW 5272   1.227   3.432   0.793
 1647SOL    HW1 5273   1.248   3.506   0.728
 1647SOL    HW2 5274   1.295   3.432   0.866
 1648SOL     OW 5275   0.459   3.014   0.741
 1648SOL    HW1 5276   0.388   2.987   0.806
 1648SOL    HW2 5277   0.433   2.986   0.648
 1649SOL     OW 5278   1.271   3.659   0.591
 1649SOL    HW1 5279   1.315   3.723   0.527
 1649SOL    HW2 5280   1.221   3.711   0.661
 1650SOL     OW 5281   1.032   2.411   0.016
 1650SOL    HW1 5282   0.991   2.493  -0.023
 1650SOL    HW2 5283   1.096   2.437   0.089
 1651SOL     OW 5284   0.078   2.418   1.386
 1651SOL    HW1 5285   0.170   2.417   1.345
 1651SOL    HW2 5286   0.072   2.492   1.453
 1652SOL     OW 5287   0.561   2.084   1.147
 1652SOL    HW1 5288   0.599   2.000   1.184
 1652SOL    HW2 5289   0.473   2.103   1.191
 1653SOL     OW 5290   0.866   2.316   0.642
 1653SOL    HW1 5291   0.834   2.388   0.580
 1653SOL    HW2 5292   0.890   2.235   0.589
 1654SOL     OW 5293   1.017   1.901   0.753
 1654SOL    HW1 5294   0.945   1.906   0.684
 1654SOL    HW2 5295   0.993   1.832   0.822
 1655SOL     OW 5296   1.429   3.035   0.867
 1655SOL    HW1 5297   1.374   2.951   0.860
 1655SOL    HW2 5298   1.455   3.064   0.775
 1656SOL     OW 5299   1.466   2.452   0.992
 1656SOL    HW1 5300   1.436   2.357   0.999
 1656SOL    HW2 5301   1.539   2.468   1.058
 1657SOL     OW 5302   1.857   2.695   0.377
 1657SOL    HW1 5303   1.899   2.631   0.441
 1657SOL    HW2 5304   1.819   2.644   0.299
 1658SOL     OW 5305   0.488   3.247   0.174
 1658SOL    HW1 5306   0.401   3.232   0.221
 1658SOL    HW2 5307   0.471   3.273   0.079
 1659SOL     OW 5308   1.664   3.142   0.657
 1659SOL    HW1 5309   1.763   3.150   0.671
 1659SOL    HW2 5310   1.619   3.226   0.688
 1660SOL     OW 5311   1.390   2.437   0.078
 1660SOL    HW1 5312   1.336   2.416   0.159
 1660SOL    HW2 5313   1.481   2.396   0.087
 1661SOL     OW 5314   0.527   2.118   0.328
 1661SOL    HW1 5315   0.554   2.059   0.253
 1661SOL    HW2 5316   0.527   2.213   0.297
 1662SOL     OW 5317   1.754   3.085   1.588
 1662SOL    HW1 5318   1.845   3.046   1.575
 1662SOL    HW2 5319   1.762   3.181   1.612
 1663SOL     OW 5320   1.064   3.209   1.340
 1663SOL    HW1 5321   0.984   3.186   1.395
 1663SOL    HW2 5322   1.147   3.183   1.389
 1664SOL     OW 5323   1.592   3.491   1.625
 1664SOL    HW1 5324   1.619   3.525   1.535
 1664SOL    HW2 5325   1.671   3.453   1.671
 1665SOL     OW 5326   1.111   3.057   1.100
 1665SOL    HW1 5327   1.071   3.101   1.181
 1665SOL    HW2 5328   1.070   3.094   1.017
 1666SOL     OW 5329   1.638   2.961   1.079
 1666SOL    HW1 5330   1.643   3.042   1.138
 1666SOL    HW2 5331   1.552   2.963   1.028
 1667SOL     OW 5332   0.915   1.951   1.402
 1667SOL    HW1 5333   0.940   1.931   1.307
 1667SOL    HW2 5334   0.987   2.007   1.444
 1668SOL     OW 5335   0.980   2.978   1.719
 1668SOL    HW1 5336   0.881   2.984   1.729
 1668SOL    HW2 5337   1.003   2.898   1.663
 1669SOL     OW 5338   0.705   2.912   0.368
 1669SOL    HW1 5339   0.691   2.919   0.467
 1669SOL    HW2 5340   0.789   2.861   0.350
 1670SOL     OW 5341   0.410   2.675   1.251
 1670SOL    HW1 5342   0.496   2.687   1.301
 1670SOL    HW2 5343   0.368   2.588   1.278
 1671SOL     OW 5344   1.274   2.248   1.262
 1671SOL    HW1 5345   1.295   2.322   1.326
 1671SOL    HW2 5346   1.185   2.265   1.219
 1672SOL     OW 5347   0.064   3.426   1.331
 1672SOL    HW1 5348   0.018   3.508   1.297
 1672SOL    HW2 5349   0.162   3.445   1.340
 1673SOL     OW 5350   0.367   2.962   0.501
 1673SOL    HW1 5351   0.360   3.045   0.445
 1673SOL    HW2 5352   0.371   2.882   0.441
 1674SOL     OW 5353   0.566   2.399   0.865
 1674SOL    HW1 5354   0.578   2.465   0.791
 1674SOL    HW2 5355   0.612   2.433   0.948
 1675SOL     OW 5356   1.252   3.210   0.388
 1675SOL    HW1 5357   1.302   3.287   0.428
 1675SOL    HW2 5358   1.157   3.212   0.420
 1676SOL     OW 5359   1.272   3.307   1.142
 1676SOL    HW1 5360   1.319   3.320   1.229
 1676SOL    HW2 5361   1.206   3.233   1.151
 1677SOL     OW 5362   1.582   2.501   0.472
 1677SOL    HW1 5363   1.551   2.562   0.545
 1677SOL    HW2 5364   1.632   2.553   0.403
 1678SOL     OW 5365   0.354   3.372   1.329
 1678SOL    HW1 5366   0.333   3.328   1.242
 1678SOL    HW2 5367   0.451   3.398   1.332
 1679SOL     OW 5368   0.402   2.613   1.598
 1679SOL    HW1 5369   0.470   2.668   1.551
 1679SOL    HW2 5370   0.442   2.525   1.625
 1680SOL     OW 5371   1.587   2.641   1.670
 1680SOL    HW1 5372   1.495   2.679   1.665
 1680SOL    HW2 5373   1.647   2.688   1.605
 1681SOL     OW 5374   1.013   1.967   1.770
 1681SOL    HW1 5375   1.019   2.052   1.718
 1681SOL    HW2 5376   1.045   1.891   1.713
 1682SOL     OW 5377   0.504   1.912   1.740
 1682SOL    HW1 5378   0.462   1.855   1.670
 1682SOL    HW2 5379   0.438   1.981   1.772
 1683SOL     OW 5380   0.573   2.732   1.029
 1683SOL    HW1 5381   0.617   2.821   1.020
 1683SOL    HW2 5382   0.510   2.732   1.106
 1684SOL     OW 5383   1.360   2.724   1.045
 1684SOL    HW1 5384   1.285   2.724   0.979
 1684SOL    HW2 5385   1.397   2.632   1.054
 1685SOL     OW 5386   1.209   2.387   0.275
 1685SOL    HW1 5387   1.222   2.303   0.329
 1685SOL    HW2 5388   1.180   2.461   0.335
 1686SOL     OW 5389   0.307   2.075   1.231
 1686SOL    HW1 5390   0.284   2.112   1.321
 1686SOL    HW2 5391   0.277   1.980   1.225
 1687SOL     OW 5392   0.037   3.172   1.282
 1687SOL    HW1 5393   0.090   3.123   1.350
 1687SOL    HW2 5394   0.059   3.270   1.287
 1688SOL     OW 5395   0.732   2.496   1.064
 1688SOL    HW1 5396   0.791   2.470   0.988
 1688SOL    HW2 5397   0.704   2.592   1.053
 1689SOL     OW 5398   1.728   2.797   1.854
 1689SOL    HW1 5399   1.682   2.790   1.765
 1689SOL    HW2 5400   1.666   2.841   1.920
 1690SOL     OW 5401   0.307   1.925   0.618
 1690SOL    HW1 5402   0.296   2.019   0.651
 1690SOL    HW2 5403   0.302   1.862   0.695
 1691SOL     OW 5404   1.622   2.229   0.374
 1691SOL    HW1 5405   1.624   2.153   0.438
 1691SOL    HW2 5406   1.574   2.306   0.414
 1692SOL     OW 5407   1.023   2.628   0.966
 1692SOL    HW1 5408   1.038   2.649   1.062
 1692SOL    HW2 5409   0.993   2.533   0.957
 1693SOL     OW 5410   0.980   3.435   1.700
 1693SOL    HW1 5411   0.960   3.479   1.612
 1693SOL    HW2 5412   1.019   3.344   1.684
 1694SOL     OW 5413   1.859   3.380   1.605
 1694SOL    HW1 5414   1.873   3.407   1.510
 1694SOL    HW2 5415   1.942   3.402   1.658
 1695SOL     OW 5416   0.350   2.760   1.804
 1695SOL    HW1 5417   0.426   2.804   1.852
 1695SOL    HW2 5418   0.385   2.713   1.722
 1696SOL     OW 5419   1.540   2.136   0.125
 1696SOL    HW1 5420   1.479   2.061   0.148
 1696SOL    HW2 5421   1.562   2.188   0.208
 1697SOL     OW 5422   1.303   2.700   0.042
 1697SOL    HW1 5423   1.337   2.607   0.057
 1697SOL    HW2 5424   1.321   2.727  -0.053
 1698SOL     OW 5425   1.068   3.195   0.849
 1698SOL    HW1 5426   1.075   3.111   0.794
 1698SOL    HW2 5427   1.130   3.264   0.813
 1699SOL     OW 5428   0.319   2.672   0.949
 1699SOL    HW1 5429   0.412   2.708   0.954
 1699SOL    HW2 5430   0.313   2.587   1.001
 1700SOL     OW 5431   0.339   2.371   1.006
 1700SOL    HW1 5432   0.287   2.288   0.989
 1700SOL    HW2 5433   0.416   2.376   0.942
 1701SOL     OW 5434   1.138   2.242   1.678
 1701SOL    HW1 5435   1.093   2.305   1.742
 1701SOL    HW2 5436   1.231   2.273   1.661
 1702SOL     OW 5437   1.160   2.069   1.477
 1702SOL    HW1 5438   1.160   2.133   1.554
 1702SOL    HW2 5439   1.188   2.117   1.394
 1703SOL     OW 5440   0.008   3.188   0.200
 1703SOL    HW1 5441  -0.085   3.209   0.169
 1703SOL    HW2 5442   0.018   3.089   0.213
 1704SOL     OW 5443   0.088   3.663   0.927
 1704SOL    HW1 5444   0.046   3.577   0.900
 1704SOL    HW2 5445   0.182   3.666   0.893
 1705SOL     OW 5446   0.504   3.430   0.910
 1705SOL    HW1 5447   0.570   3.504   0.919
 1705SOL    HW2 5448   0.548   3.351   0.868
 1706SOL     OW 5449   1.002   2.658   1.238
 1706SOL    HW1 5450   1.043   2.626   1.324
 1706SOL    HW2 5451   0.906   2.631   1.235
 1707SOL     OW 5452   0.040   2.406   1.114
 1707SOL    HW1 5453   0.125   2.373   1.073
 1707SOL    HW2 5454   0.053   2.421   1.212
 1708SOL     OW 5455   0.189   2.382   1.722
 1708SOL    HW1 5456   0.248   2.342   1.652
 1708SOL    HW2 5457   0.131   2.453   1.681
 1709SOL     OW 5458   1.369   2.812   1.660
 1709SOL    HW1 5459   1.408   2.901   1.680
 1709SOL    HW2 5460   1.379   2.792   1.563
 1710SOL     OW 5461   0.815   2.434   0.325
 1710SOL    HW1 5462   0.822   2.345   0.279
 1710SOL    HW2 5463   0.721   2.468   0.317
 1711SOL     OW 5464   1.657   2.466   1.206
 1711SOL    HW1 5465   1.619   2.397   1.268
 1711SOL    HW2 5466   1.739   2.430   1.162
 1712SOL     OW 5467   0.252   3.426   1.744
 1712SOL    HW1 5468   0.222   3.483   1.820
 1712SOL    HW2 5469   0.245   3.329   1.770
 1713SOL     OW 5470   0.671   2.326   1.269
 1713SOL    HW1 5471   0.637   2.237   1.239
 1713SOL    HW2 5472   0.697   2.380   1.189
 1714SOL     OW 5473   0.930   3.540   1.465
 1714SOL    HW1 5474   0.906   3.522   1.370
 1714SOL    HW2 5475   0.960   3.634   1.475
 1715SOL     OW 5476   0.473   2.362   0.191
 1715SOL    HW1 5477   0.534   2.442   0.195
 1715SOL    HW2 5478   0.378   2.393   0.198
 1716SOL     OW 5479   0.159   2.999   1.466
 1716SOL    HW1 5480   0.181   2.938   1.542
 1716SOL    HW2 5481   0.169   2.950   1.380
 1717SOL     OW 5482   1.347   2.921   1.234
 1717SOL    HW1 5483   1.371   2.858   1.160
 1717SOL    HW2 5484   1.257   2.961   1.216
 1718SOL     OW 5485   1.302   2.717   0.309
 1718SOL    HW1 5486   1.216   2.686   0.351
 1718SOL    HW2 5487   1.298   2.703   0.210
 1719SOL     OW 5488   1.759   3.609   1.154
 1719SOL    HW1 5489   1.820   3.639   1.081
 1719SOL    HW2 5490   1.721   3.520   1.132
 1720SOL     OW 5491   1.252   3.593   1.128
 1720SOL    HW1 5492   1.336   3.598   1.074
 1720SOL    HW2 5493   1.229   3.497   1.146
 1721SOL     OW 5494   0.083   3.120   1.022
 1721SOL    HW1 5495   0.078   3.119   1.122
 1721SOL    HW2 5496   0.000   3.079   0.984
 1722SOL     OW 5497   0.688   3.524   1.716
 1722SOL    HW1 5498   0.632   3.605   1.725
 1722SOL    HW2 5499   0.740   3.528   1.630
 1723SOL     OW 5500   0.903   1.948   0.133
 1723SOL    HW1 5501   0.954   1.949   0.047
 1723SOL    HW2 5502   0.959   1.906   0.204
 1724SOL     OW 5503   1.388   3.435   0.477
 1724SOL    HW1 5504   1.455   3.447   0.403
 1724SOL    HW2 5505   1.348   3.524   0.500
 1725SOL     OW 5506   0.130   3.656   1.851
 1725SOL    HW1 5507   0.089   3.582   1.904
 1725SOL    HW2 5508   0.194   3.707   1.909
 1726SOL     OW 5509   1.280   2.789   0.672
 1726SOL    HW1 5510   1.340   2.708   0.674
 1726SOL    HW2 5511   1.320   2.858   0.612
 1727SOL     OW 5512   0.830   3.135   1.422
 1727SOL    HW1 5513   0.825   3.168   1.517
 1727SOL    HW2 5514   0.744   3.154   1.376
 1728SOL     OW 5515   0.672   3.478   0.154
 1728SOL    HW1 5516   0.681   3.488   0.055
 1728SOL    HW2 5517   0.632   3.389   0.175
 1729SOL     OW 5518   1.650   3.582   1.394
 1729SOL    HW1 5519   1.703   3.592   1.310
 1729SOL    HW2 5520   1.623   3.672   1.428
 1730SOL     OW 5521   0.263   2.188   0.720
 1730SOL    HW1 5522   0.184   2.239   0.686
 1730SOL    HW2 5523   0.254   2.173   0.818
 1731SOL     OW 5524   1.194   3.474   0.031
 1731SOL    HW1 5525   1.200   3.381   0.068
 1731SOL    HW2 5526   1.135   3.474  -0.049
 1732SOL     OW 5527   0.822   2.864   1.372
 1732SOL    HW1 5528   0.862   2.863   1.280
 1732SOL    HW2 5529   0.832   2.956   1.412
 1733SOL     OW 5530   0.916   2.772   0.291
 1733SOL    HW1 5531   0.979   2.810   0.223
 1733SOL    HW2 5532   0.956   2.689   0.330
 1734SOL     OW 5533   1.504   3.469   0.044
 1734SOL    HW1 5534   1.412   3.506   0.051
 1734SOL    HW2 5535   1.542   3.489  -0.046
 1735SOL     OW 5536   0.372   3.150   1.490
 1735SOL    HW1 5537   0.359   3.243   1.456
 1735SOL    HW2 5538   0.288   3.098   1.477
 1736SOL     OW 5539   1.614   3.154   1.289
 1736SOL    HW1 5540   1.674   3.157   1.369
 1736SOL    HW2 5541   1.539   3.218   1.302
 1737SOL     OW 5542   1.039   2.960   0.696
 1737SOL    HW1 5543   0.969   2.913   0.750
 1737SOL    HW2 5544   1.098   2.892   0.653
 1738SOL     OW 5545   1.014   2.098   0.971
 1738SOL    HW1 5546   1.006   2.062   0.878
 1738SOL    HW2 5547   1.012   2.022   1.036
 1739SOL     OW 5548   0.590   3.349   0.491
 1739SOL    HW1 5549   0.632   3.291   0.421
 1739SOL    HW2 5550   0.546   3.428   0.447
 1740SOL     OW 5551   1.709   2.247   1.381
 1740SOL    HW1 5552   1.782   2.316   1.385
 1740SOL    HW2 5553   1.737   2.172   1.322
 1741SOL     OW 5554   0.255   3.210   0.290
 1741SOL    HW1 5555   0.159   3.211   0.263
 1741SOL    HW2 5556   0.267   3.263   0.374
 1742SOL     OW 5557   0.105   2.875   1.726
 1742SOL    HW1 5558   0.028   2.842   1.780
 1742SOL    HW2 5559   0.190   2.845   1.768
 1743SOL     OW 5560   0.672   2.065   1.489
 1743SOL    HW1 5561   0.762   2.049   1.449
 1743SOL    HW2 5562   0.680   2.070   1.588
 1744SOL     OW 5563   0.075   2.207   0.033
 1744SOL    HW1 5564  -0.017   2.179   0.004
 1744SOL    HW2 5565   0.106   2.284  -0.023
 1745SOL     OW 5566   1.440   2.718   1.398
 1745SOL    HW1 5567   1.383   2.770   1.335
 1745SOL    HW2 5568   1.536   2.730   1.374
 1746SOL     OW 5569   0.072   2.028   0.318
 1746SOL    HW1 5570   0.055   2.111   0.264
 1746SOL    HW2 5571   0.162   1.991   0.296
 1747SOL     OW 5572   1.183   3.197   0.119
 1747SOL    HW1 5573   1.084   3.186   0.121
 1747SOL    HW2 5574   1.217   3.212   0.212
 1748SOL     OW 5575   0.613   2.704   1.431
 1748SOL    HW1 5576   0.669   2.785   1.414
 1748SOL    HW2 5577   0.672   2.624   1.434
 1749SOL     OW 5578   1.493   3.629   0.959
 1749SOL    HW1 5579   1.526   3.693   0.890
 1749SOL    HW2 5580   1.559   3.623   1.034
 1750SOL     OW 5581   0.716   2.427   1.708
 1750SOL    HW1 5582   0.735   2.492   1.782
 1750SOL    HW2 5583   0.776   2.347   1.717
 1751SOL     OW 5584   1.450   3.082   1.633
 1751SOL    HW1 5585   1.441   3.072   1.732
 1751SOL    HW2 5586   1.546   3.075   1.607
 1752SOL     OW 5587   0.390   3.603   1.560
 1752SOL    HW1 5588   0.299   3.644   1.558
 1752SOL    HW2 5589   0.383   3.509   1.592
 1753SOL     OW 5590   1.674   2.745   1.254
 1753SOL    HW1 5591   1.647   2.656   1.217
 1753SOL    HW2 5592   1.675   2.813   1.181
 1754SOL     OW 5593   1.225   2.187   0.449
 1754SOL    HW1 5594   1.290   2.113   0.438
 1754SOL    HW2 5595   1.245   2.237   0.533
 1755SOL     OW 5596   0.594   2.607   0.652
 1755SOL    HW1 5597   0.644   2.692   0.633
 1755SOL    HW2 5598   0.506   2.609   0.604
 1756SOL     OW 5599   1.777   2.204   1.642
 1756SOL    HW1 5600   1.760   2.235   1.548
 1756SOL    HW2 5601   1.693   2.167   1.680
 1757SOL     OW 5602   1.730   2.796   1.517
 1757SOL    HW1 5603   1.768   2.887   1.532
 1757SOL    HW2 5604   1.722   2.779   1.418
 1758SOL     OW 5605   0.859   3.236   0.016
 1758SOL    HW1 5606   0.813   3.251   0.104
 1758SOL    HW2 5607   0.903   3.321  -0.014
 1759SOL     OW 5608   0.661   3.652   0.953
 1759SOL    HW1 5609   0.615   3.740   0.940
 1759SOL    HW2 5610   0.760   3.664   0.946
 1760SOL     OW 5611   0.859   2.818   0.861
 1760SOL    HW1 5612   0.913   2.749   0.909
 1760SOL    HW2 5613   0.827   2.887   0.927
 1761SOL     OW 5614   1.083   2.846   0.087
 1761SOL    HW1 5615   1.060   2.899   0.005
 1761SOL    HW2 5616   1.164   2.790   0.068
 1762SOL     OW 5617   1.861   3.431   0.851
 1762SOL    HW1 5618   1.790   3.419   0.781
 1762SOL    HW2 5619   1.862   3.352   0.911
 1763SOL     OW 5620   0.221   3.176   1.844
 1763SOL    HW1 5621   0.156   3.103   1.823
 1763SOL    HW2 5622   0.225   3.190   1.942
 1764SOL     OW 5623   0.079   3.102   0.653
 1764SOL    HW1 5624   0.078   3.055   0.741
 1764SOL    HW2 5625   0.161   3.074   0.602
 1765SOL     OW 5626   0.672   3.253   1.624
 1765SOL    HW1 5627   0.594   3.203   1.662
 1765SOL    HW2 5628   0.669   3.348   1.655
 1766SOL     OW 5629   0.428   2.286   0.520
 1766SOL    HW1 5630   0.458   2.214   0.458
 1766SOL    HW2 5631   0.389   2.246   0.603
 1767SOL     OW 5632   1.705   3.349   1.104
 1767SOL    HW1 5633   1.612   3.324   1.077
 1767SOL    HW2 5634   1.731   3.299   1.186
 1768SOL     OW 5635   0.317   2.409   1.280
 1768SOL    HW1 5636   0.355   2.350   1.352
 1768SOL    HW2 5637   0.357   2.383   1.192
 1769SOL     OW 5638   0.812   3.448   0.687
 1769SOL    HW1 5639   0.844   3.458   0.593
 1769SOL    HW2 5640   0.733   3.386   0.689
 1770SOL     OW 5641   1.424   2.076   1.112
 1770SOL    HW1 5642   1.476   2.011   1.167
 1770SOL    HW2 5643   1.375   2.139   1.173
 1771SOL     OW 5644   1.001   1.896   1.154
 1771SOL    HW1 5645   0.938   1.824   1.123
 1771SOL    HW2 5646   1.094   1.860   1.154
 1772SOL     OW 5647   0.770   3.192   0.301
 1772SOL    HW1 5648   0.724   3.105   0.318
 1772SOL    HW2 5649   0.861   3.189   0.342
 1773SOL     OW 5650   0.618   3.429   1.284
 1773SOL    HW1 5651   0.613   3.511   1.341
 1773SOL    HW2 5652   0.707   3.426   1.239
 1774SOL     OW 5653   1.352   1.914   0.168
 1774SOL    HW1 5654   1.387   1.873   0.084
 1774SOL    HW2 5655   1.262   1.876   0.188
 1775SOL     OW 5656   1.300   2.315   0.691
 1775SOL    HW1 5657   1.241   2.395   0.695
 1775SOL    HW2 5658   1.315   2.280   0.784
 1776SOL     OW 5659   1.593   2.083   0.882
 1776SOL    HW1 5660   1.509   2.082   0.936
 1776SOL    HW2 5661   1.595   2.166   0.826
 1777SOL     OW 5662   0.039   2.939   0.300
 1777SOL    HW1 5663   0.138   2.928   0.291
 1777SOL    HW2 5664  -0.001   2.853   0.332
 1778SOL     OW 5665   0.875   3.508   0.337
 1778SOL    HW1 5666   0.798   3.473   0.283
 1778SOL    HW2 5667   0.843   3.579   0.399
 1779SOL     OW 5668   0.230   2.490   1.975
 1779SOL    HW1 5669   0.137   2.488   2.012
 1779SOL    HW2 5670   0.231   2.451   1.883
 1780SOL     OW 5671   0.225   2.137   2.858
 1780SOL    HW1 5672   0.260   2.120   2.950
 1780SOL    HW2 5673   0.137   2.092   2.846
 1781SOL     OW 5674   0.019   2.230   2.509
 1781SOL    HW1 5675  -0.063   2.273   2.548
 1781SOL    HW2 5676  -0.009   2.157   2.446
 1782SOL     OW 5677   0.569   3.137   3.027
 1782SOL    HW1 5678   0.476   3.130   2.990
 1782SOL    HW2 5679   0.580   3.226   3.071
 1783SOL     OW 5680   1.555   3.373   2.565
 1783SOL    HW1 5681   1.498   3.357   2.646
 1783SOL    HW2 5682   1.496   3.383   2.485
 1784SOL     OW 5683   1.135   2.565   2.579
 1784SOL    HW1 5684   1.192   2.643   2.554
 1784SOL    HW2 5685   1.075   2.591   2.655
 1785SOL     OW 5686   1.755   2.469   2.093
 1785SOL    HW1 5687   1.743   2.456   1.994
 1785SOL    HW2 5688   1.725   2.388   2.142
 1786SOL     OW 5689   0.768   3.006   2.885
 1786SOL    HW1 5690   0.690   3.023   2.945
 1786SOL    HW2 5691   0.802   3.093   2.849
 1787SOL     OW 5692   0.850   2.660   3.685
 1787SOL    HW1 5693   0.846   2.736   3.750
 1787SOL    HW2 5694   0.872   2.696   3.594
 1788SOL     OW 5695   0.685   2.874   2.527
 1788SOL    HW1 5696   0.754   2.858   2.597
 1788SOL    HW2 5697   0.612   2.931   2.565
 1789SOL     OW 5698   0.686   3.023   3.665
 1789SOL    HW1 5699   0.746   3.102   3.679
 1789SOL    HW2 5700   0.600   3.054   3.624
 1790SOL     OW 5701   0.335   3.297   2.923
 1790SOL    HW1 5702   0.257   3.266   2.870
 1790SOL    HW2 5703   0.393   3.355   2.866
 1791SOL     OW 5704   1.460   3.367   3.201
 1791SOL    HW1 5705   1.484   3.461   3.227
 1791SOL    HW2 5706   1.444   3.313   3.283
 1792SOL     OW 5707   0.438   2.254   3.361
 1792SOL    HW1 5708   0.520   2.198   3.370
 1792SOL    HW2 5709   0.357   2.196   3.365
 1793SOL     OW 5710   1.603   2.309   2.599
 1793SOL    HW1 5711   1.529   2.355   2.549
 1793SOL    HW2 5712   1.654   2.377   2.652
 1794SOL     OW 5713   0.231   3.575   2.345
 1794SOL    HW1 5714   0.265   3.652   2.399
 1794SOL    HW2 5715   0.275   3.575   2.255
 1795SOL     OW 5716   1.127   3.203   3.552
 1795SOL    HW1 5717   1.174   3.203   3.640
 1795SOL    HW2 5718   1.079   3.116   3.541
 1796SOL     OW 5719   0.230   3.296   2.400
 1796SOL    HW1 5720   0.204   3.392   2.400
 1796SOL    HW2 5721   0.159   3.242   2.445
 1797SOL     OW 5722   0.240   2.953   2.748
 1797SOL    HW1 5723   0.254   2.869   2.800
 1797SOL    HW2 5724   0.185   3.017   2.803
 1798SOL     OW 5725   0.620   3.648   3.301
 1798SOL    HW1 5726   0.528   3.631   3.336
 1798SOL    HW2 5727   0.648   3.740   3.327
 1799SOL     OW 5728   0.606   2.826   1.985
 1799SOL    HW1 5729   0.613   2.910   1.931
 1799SOL    HW2 5730   0.652   2.839   2.073
 1800SOL     OW 5731   1.594   1.976   3.342
 1800SOL    HW1 5732   1.576   2.043   3.270
 1800SOL    HW2 5733   1.591   2.022   3.431
 1801SOL     OW 5734   0.122   2.505   2.425
 1801SOL    HW1 5735   0.077   2.417   2.442
 1801SOL    HW2 5736   0.121   2.559   2.509
 1802SOL     OW 5737   1.842   3.629   2.221
 1802SOL    HW1 5738   1.896   3.600   2.301
 1802SOL    HW2 5739   1.872   3.719   2.192
 1803SOL     OW 5740   0.027   3.458   1.979
 1803SOL    HW1 5741   0.008   3.362   2.000
 1803SOL    HW2 5742  -0.006   3.516   2.054
 1804SOL     OW 5743   1.689   2.784   2.474
 1804SOL    HW1 5744   1.784   2.755   2.482
 1804SOL    HW2 5745   1.681   2.849   2.399
 1805SOL     OW 5746   1.641   2.970   2.294
 1805SOL    HW1 5747   1.727   2.972   2.242
 1805SOL    HW2 5748   1.655   3.017   2.382
 1806SOL     OW 5749   0.113   2.599   3.459
 1806SOL    HW1 5750   0.201   2.586   3.504
 1806SOL    HW2 5751   0.100   2.696   3.437
 1807SOL     OW 5752   0.613   3.227   2.588
 1807SOL    HW1 5753   0.564   3.140   2.597
 1807SOL    HW2 5754   0.590   3.270   2.501
 1808SOL     OW 5755   1.293   3.090   3.285
 1808SOL    HW1 5756   1.330   3.017   3.227
 1808SOL    HW2 5757   1.345   3.095   3.370
 1809SOL     OW 5758   0.809   1.866   2.364
 1809SOL    HW1 5759   0.849   1.957   2.355
 1809SOL    HW2 5760   0.709   1.874   2.370
 1810SOL     OW 5761   0.197   2.838   3.126
 1810SOL    HW1 5762   0.286   2.793   3.112
 1810SOL    HW2 5763   0.124   2.773   3.107
 1811SOL     OW 5764   1.525   2.861   2.052
 1811SOL    HW1 5765   1.462   2.785   2.065
 1811SOL    HW2 5766   1.573   2.879   2.138
 1812SOL     OW 5767   1.187   3.654   3.478
 1812SOL    HW1 5768   1.211   3.714   3.402
 1812SOL    HW2 5769   1.194   3.559   3.448
 1813SOL     OW 5770   0.317   2.113   3.663
 1813SOL    HW1 5771   0.388   2.184   3.669
 1813SOL    HW2 5772   0.229   2.152   3.691
 1814SOL     OW 5773   1.466   3.279   2.815
 1814SOL    HW1 5774   1.407   3.285   2.895
 1814SOL    HW2 5775   1.451   3.191   2.769
 1815SOL     OW 5776   1.667   3.576   2.434
 1815SOL    HW1 5777   1.626   3.553   2.346
 1815SOL    HW2 5778   1.649   3.502   2.499
 1816SOL     OW 5779   0.598   2.591   2.132
 1816SOL    HW1 5780   0.622   2.660   2.064
 1816SOL    HW2 5781   0.520   2.624   2.186
 1817SOL     OW 5782   1.281   2.207   2.806
 1817SOL    HW1 5783   1.195   2.157   2.793
 1817SOL    HW2 5784   1.343   2.153   2.862
 1818SOL     OW 5785   1.576   3.524   2.169
 1818SOL    HW1 5786   1.665   3.570   2.172
 1818SOL    HW2 5787   1.555   3.500   2.074
 1819SOL     OW 5788   0.807   2.467   3.327
 1819SOL    HW1 5789   0.760   2.464   3.416
 1819SOL    HW2 5790   0.756   2.412   3.261
 1820SOL     OW 5791   1.394   2.331   3.536
 1820SOL    HW1 5792   1.374   2.374   3.624
 1820SOL    HW2 5793   1.472   2.269   3.545
 1821SOL     OW 5794   0.973   2.752   3.434
 1821SOL    HW1 5795   1.019   2.668   3.405
 1821SOL    HW2 5796   0.917   2.786   3.359
 1822SOL     OW 5797   0.991   2.272   3.104
 1822SOL    HW1 5798   0.914   2.306   3.158
 1822SOL    HW2 5799   0.957   2.221   3.025
 1823SOL     OW 5800   1.041   2.563   2.291
 1823SOL    HW1 5801   1.067   2.559   2.387
 1823SOL    HW2 5802   0.956   2.512   2.277
 1824SOL     OW 5803   0.076   2.673   2.651
 1824SOL    HW1 5804   0.175   2.661   2.660
 1824SOL    HW2 5805   0.052   2.768   2.672
 1825SOL     OW 5806   0.130   3.683   3.433
 1825SOL    HW1 5807   0.120   3.668   3.532
 1825SOL    HW2 5808   0.044   3.719   3.397
 1826SOL     OW 5809   0.865   2.210   2.057
 1826SOL    HW1 5810   0.924   2.273   2.008
 1826SOL    HW2 5811   0.884   2.116   2.028
 1827SOL     OW 5812   1.719   2.447   3.693
 1827SOL    HW1 5813   1.693   2.536   3.657
 1827SOL    HW2 5814   1.717   2.379   3.620
 1828SOL     OW 5815   1.362   3.006   2.407
 1828SOL    HW1 5816   1.445   2.977   2.359
 1828SOL    HW2 5817   1.313   3.073   2.351
 1829SOL     OW 5818   0.550   2.058   2.747
 1829SOL    HW1 5819   0.545   2.053   2.847
 1829SOL    HW2 5820   0.552   2.154   2.718
 1830SOL     OW 5821   1.008   3.318   2.339
 1830SOL    HW1 5822   0.962   3.390   2.287
 1830SOL    HW2 5823   1.004   3.338   2.437
 1831SOL     OW 5824   0.351   3.663   2.715
 1831SOL    HW1 5825   0.401   3.577   2.721
 1831SOL    HW2 5826   0.416   3.740   2.712
 1832SOL     OW 5827   1.795   2.928   2.735
 1832SOL    HW1 5828   1.733   2.913   2.659
 1832SOL    HW2 5829   1.743   2.939   2.820
 1833SOL     OW 5830   1.227   3.412   3.368
 1833SOL    HW1 5831   1.233   3.335   3.432
 1833SOL    HW2 5832   1.175   3.386   3.288
 1834SOL     OW 5833   0.321   2.805   2.104
 1834SOL    HW1 5834   0.403   2.844   2.062
 1834SOL    HW2 5835   0.294   2.723   2.055
 1835SOL     OW 5836   1.458   2.597   2.590
 1835SOL    HW1 5837   1.453   2.532   2.665
 1835SOL    HW2 5838   1.538   2.656   2.603
 1836SOL     OW 5839   0.461   3.128   3.589
 1836SOL    HW1 5840   0.411   3.129   3.503
 1836SOL    HW2 5841   0.398   3.110   3.665
 1837SOL     OW 5842   1.111   3.638   2.099
 1837SOL    HW1 5843   1.051   3.576   2.149
 1837SOL    HW2 5844   1.142   3.594   2.014
 1838SOL     OW 5845   0.202   2.147   3.360
 1838SOL    HW1 5846   0.122   2.207   3.347
 1838SOL    HW2 5847   0.192   2.098   3.446
 1839SOL     OW 5848   1.632   3.239   1.943
 1839SOL    HW1 5849   1.600   3.333   1.933
 1839SOL    HW2 5850   1.556   3.176   1.931
 1840SOL     OW 5851   0.464   3.605   2.185
 1840SOL    HW1 5852   0.497   3.644   2.271
 1840SOL    HW2 5853   0.540   3.598   2.120
 1841SOL     OW 5854   1.400   1.969   2.288
 1841SOL    HW1 5855   1.376   1.932   2.198
 1841SOL    HW2 5856   1.499   1.985   2.292
 1842SOL     OW 5857   0.249   3.647   3.103
 1842SOL    HW1 5858   0.306   3.582   3.153
 1842SOL    HW2 5859   0.233   3.614   3.010
 1843SOL     OW 5860   0.940   3.560   2.766
 1843SOL    HW1 5861   1.020   3.503   2.787
 1843SOL    HW2 5862   0.891   3.520   2.689
 1844SOL     OW 5863   0.382   2.562   2.342
 1844SOL    HW1 5864   0.427   2.472   2.339
 1844SOL    HW2 5865   0.288   2.551   2.375
 1845SOL     OW 5866   1.547   2.084   3.591
 1845SOL    HW1 5867   1.542   2.121   3.683
 1845SOL    HW2 5868   1.475   2.015   3.579
 1846SOL     OW 5869   0.614   1.984   1.979
 1846SOL    HW1 5870   0.712   1.962   1.986
 1846SOL    HW2 5871   0.583   1.967   1.886
 1847SOL     OW 5872   0.781   2.126   3.611
 1847SOL    HW1 5873   0.848   2.065   3.654
 1847SOL    HW2 5874   0.708   2.145   3.676
 1848SOL     OW 5875   0.888   3.376   3.057
 1848SOL    HW1 5876   0.865   3.351   2.963
 1848SOL    HW2 5877   0.949   3.307   3.096
 1849SOL     OW 5878   1.351   2.452   3.295
 1849SOL    HW1 5879   1.379   2.409   3.380
 1849SOL    HW2 5880   1.376   2.548   3.296
 1850SOL     OW 5881   0.803   3.264   2.786
 1850SOL    HW1 5882   0.893   3.278   2.744
 1850SOL    HW2 5883   0.732   3.266   2.715
 1851SOL     OW 5884   0.922   2.365   2.761
 1851SOL    HW1 5885   0.897   2.356   2.665
 1851SOL    HW2 5886   0.970   2.283   2.792
 1852SOL     OW 5887   0.539   1.926   2.374
 1852SOL    HW1 5888   0.458   1.927   2.432
 1852SOL    HW2 5889   0.542   2.009   2.319
 1853SOL     OW 5890   1.434   3.050   1.903
 1853SOL    HW1 5891   1.466   2.974   1.960
 1853SOL    HW2 5892   1.342   3.077   1.933
 1854SOL     OW 5893   0.297   1.897   2.033
 1854SOL    HW1 5894   0.346   1.981   2.012
 1854SOL    HW2 5895   0.359   1.832   2.078
 1855SOL     OW 5896   0.935   2.098   2.342
 1855SOL    HW1 5897   0.887   2.139   2.264
 1855SOL    HW2 5898   1.034   2.096   2.323
 1856SOL     OW 5899   1.076   2.545   3.326
 1856SOL    HW1 5900   0.996   2.484   3.329
 1856SOL    HW2 5901   1.157   2.492   3.302
 1857SOL     OW 5902   1.227   3.432   2.655
 1857SOL    HW1 5903   1.248   3.506   2.590
 1857SOL    HW2 5904   1.295   3.432   2.728
 1858SOL     OW 5905   0.459   3.014   2.603
 1858SOL    HW1 5906   0.388   2.987   2.668
 1858SOL    HW2 5907   0.433   2.986   2.510
 1859SOL     OW 5908   1.271   3.659   2.453
 1859SOL    HW1 5909   1.315   3.723   2.389
 1859SOL    HW2 5910   1.221   3.711   2.523
 1860SOL     OW 5911   1.032   2.411   1.878
 1860SOL    HW1 5912   0.991   2.493   1.839
 1860SOL    HW2 5913   1.096   2.437   1.951
 1861SOL     OW 5914   0.078   2.418   3.248
 1861SOL    HW1 5915   0.170   2.417   3.207
 1861SOL    HW2 5916   0.072   2.492   3.315
 1862SOL     OW 5917   0.561   2.084   3.009
 1862SOL    HW1 5918   0.599   2.000   3.046
 1862SOL    HW2 5919   0.473   2.103   3.053
 1863SOL     OW 5920   0.866   2.316   2.504
 1863SOL    HW1 5921   0.834   2.388   2.442
 1863SOL    HW2 5922   0.890   2.235   2.451
 1864SOL     OW 5923   1.017   1.901   2.615
 1864SOL    HW1 5924   0.945   1.906   2.546
 1864SOL    HW2 5925   0.993   1.832   2.684
 1865SOL     OW 5926   1.429   3.035   2.729
 1865SOL    HW1 5927   1.374   2.951   2.722
 1865SOL    HW2 5928   1.455   3.064   2.637
 1866SOL     OW 5929   1.466   2.452   2.854
 1866SOL    HW1 5930   1.436   2.357   2.861
 1866SOL    HW2 5931   1.539   2.468   2.920
 1867SOL     OW 5932   1.857   2.695   2.239
 1867SOL    HW1 5933   1.899   2.631   2.303
 1867SOL    HW2 5934   1.819   2.644   2.161
 1868SOL     OW 5935   0.488   3.247   2.036
 1868SOL    HW1 5936   0.401   3.232   2.083
 1868SOL    HW2 5937   0.471   3.273   1.941
 1869SOL     OW 5938   1.664   3.142   2.519
 1869SOL    HW1 5939   1.763   3.150   2.533
 1869SOL    HW2 5940   1.619   3.226   2.550
 1870SOL     OW 5941   1.390   2.437   1.940
 1870SOL    HW1 5942   1.336   2.416   2.021
 1870SOL    HW2 5943   1.481   2.396   1.949
 1871SOL     OW 5944   0.527   2.118   2.190
 1871SOL    HW1 5945   0.554   2.059   2.115
 1871SOL    HW2 5946   0.527   2.213   2.159
 1872SOL     OW 5947   1.754   3.085   3.450
 1872SOL    HW1 5948   1.845   3.046   3.437
 1872SOL    HW2 5949   1.762   3.181   3.474
 1873SOL     OW 5950   1.064   3.209   3.202
 1873SOL    HW1 5951   0.984   3.186   3.257
 1873SOL    HW2 5952   1.147   3.183   3.251
 1874SOL     OW 5953   1.592   3.491   3.487
 1874SOL    HW1 5954   1.619   3.525   3.397
 1874SOL    HW2 5955   1.671   3.453   3.533
 1875SOL     OW 5956   1.111   3.057   2.962
 1875SOL    HW1 5957   1.071   3.101   3.043
 1875SOL    HW2 5958   1.070   3.094   2.879
 1876SOL     OW 5959   1.638   2.961   2.941
 1876SOL    HW1 5960   1.643   3.042   3.000
 1876SOL    HW2 5961   1.552   2.963   2.890
 1877SOL     OW 5962   0.915   1.951   3.264
 1877SOL    HW1 5963   0.940   1.931   3.169
 1877SOL    HW2 5964   0.987   2.007   3.306
 1878SOL     OW 5965   0.980   2.978   3.581
 1878SOL    HW1 5966   0.881   2.984   3.591
 1878SOL    HW2 5967   1.003   2.898   3.525
 1879SOL     OW 5968   0.705   2.912   2.230
 1879SOL    HW1 5969   0.691   2.919   2.329
 1879SOL    HW2 5970   0.789   2.861   2.212
 1880SOL     OW 5971   0.410   2.675   3.113
 1880SOL    HW1 5972   0.496   2.687   3.163
 1880SOL    HW2 5973   0.368   2.588   3.140
 1881SOL     OW 5974   1.274   2.248   3.124
 1881SOL    HW1 5975   1.295   2.322   3.188
 1881SOL    HW2 5976   1.185   2.265   3.081
 1882SOL     OW 5977   0.064   3.426   3.193
 1882SOL    HW1 5978   0.018   3.508   3.159
 1882SOL    HW2 5979   0.162   3.445   3.202
 1883SOL     OW 5980   0.367   2.962   2.363
 1883SOL    HW1 5981   0.360   3.045   2.307
 1883SOL    HW2 5982   0.371   2.882   2.303
 1884SOL     OW 5983   0.566   2.399   2.727
 1884SOL    HW1 5984   0.578   2.465   2.653
 1884SOL    HW2 5985   0.612   2.433   2.810
 1885SOL     OW 5986   1.252   3.210   2.250
 1885SOL    HW1 5987   1.302   3.287   2.290
 1885SOL    HW2 5988   1.157   3.212   2.282
 1886SOL     OW 5989   1.272   3.307   3.004
 1886SOL    HW1 5990   1.319   3.320   3.091
 1886SOL    HW2 5991   1.206   3.233   3.013
 1887SOL     OW 5992   1.582   2.501   2.334
 1887SOL    HW1 5993   1.551   2.562   2.407
 1887SOL    HW2 5994   1.632   2.553   2.265
 1888SOL     OW 5995   0.354   3.372   3.191
 1888SOL    HW1 5996   0.333   3.328   3.104
 1888SOL    HW2 5997   0.451   3.398   3.194
 1889SOL     OW 5998   0.402   2.613   3.460
 1889SOL    HW1 5999   0.470   2.668   3.413
 1889SOL    HW2 6000   0.442   2.525   3.487
 1890SOL     OW 6001   1.587   2.641   3.532
 1890SOL    HW1 6002   1.495   2.679   3.527
 1890SOL    HW2 6003   1.647   2.688   3.467
 1891SOL     OW 6004   1.013   1.967   3.632
 1891SOL    HW1 6005   1.019   2.052   3.580
 1891SOL    HW2 6006   1.045   1.891   3.575
 1892SOL     OW 6007   0.504   1.912   3.602
 1892SOL    HW1 6008   0.462   1.855   3.532
 1892SOL    HW2 6009   0.438   1.981   3.634
 1893SOL     OW 6010   0.573   2.732   2.891
 1893SOL    HW1 6011   0.617   2.821   2.882
 1893SOL    HW2 6012   0.510   2.732   2.968
 1894SOL     OW 6013   1.360   2.724   2.907
 1894SOL    HW1 6014   1.285   2.724   2.841
 1894SOL    HW2 6015   1.397   2.632   2.916
 1895SOL     OW 6016   1.209   2.387   2.137
 1895SOL    HW1 6017   1.222   2.303   2.191
 1895SOL    HW2 6018   1.180   2.461   2.197
 1896SOL     OW 6019   0.307   2.075   3.093
 1896SOL    HW1 6020   0.284   2.112   3.183
 1896SOL    HW2 6021   0.277   1.980   3.087
 1897SOL     OW 6022   0.037   3.172   3.144
 1897SOL    HW1 6023   0.090   3.123   3.212
 1897SOL    HW2 6024   0.059   3.270   3.149
 1898SOL     OW 6025   0.732   2.496   2.926
 1898SOL    HW1 6026   0.791   2.470   2.850
 1898SOL    HW2 6027   0.704   2.592   2.915
 1899SOL     OW 6028   1.728   2.797   3.716
 1899SOL    HW1 6029   1.682   2.790   3.627
 1899SOL    HW2 6030   1.666   2.841   3.782
 1900SOL     OW 6031   0.307   1.925   2.480
 1900SOL    HW1 6032   0.296   2.019   2.513
 1900SOL    HW2 6033   0.302   1.862   2.557
 1901SOL     OW 6034   1.622   2.229   2.236
 1901SOL    HW1 6035   1.624   2.153   2.300
 1901SOL    HW2 6036   1.574   2.306   2.276
 1902SOL     OW 6037   1.023   2.628   2.828
 1902SOL    HW1 6038   1.038   2.649   2.924
 1902SOL    HW2 6039   0.993   2.533   2.819
 1903SOL     OW 6040   0.980   3.435   3.562
 1903SOL    HW1 6041   0.960   3.479   3.474
 1903SOL    HW2 6042   1.019   3.344   3.546
 1904SOL     OW 6043   1.859   3.380   3.467
 1904SOL    HW1 6044   1.873   3.407   3.372
 1904SOL    HW2 6045   1.942   3.402   3.520
 1905SOL     OW 6046   0.350   2.760   3.666
 1905SOL    HW1 6047   0.426   2.804   3.714
 1905SOL    HW2 6048   0.385   2.713   3.584
 1906SOL     OW 6049   1.540   2.136   1.987
 1906SOL    HW1 6050   1.479   2.061   2.010
 1906SOL    HW2 6051   1.562   2.188   2.070
 1907SOL     OW 6052   1.303   2.700   1.904
 1907SOL    HW1 6053   1.337   2.607   1.919
 1907SOL    HW2 6054   1.321   2.727   1.809
 1908SOL     OW 6055   1.068   3.195   2.711
 1908SOL    HW1 6056   1.075   3.111   2.656
 1908SOL    HW2 6057   1.130   3.264   2.675
 1909SOL     OW 6058   0.319   2.672   2.811
 1909SOL    HW1 6059   0.412   2.708   2.816
 1909SOL    HW2 6060   0.313   2.587   2.863
 1910SOL     OW 6061   0.339   2.371   2.868
 1910SOL    HW1 6062   0.287   2.288   2.851
 1910SOL    HW2 6063   0.416   2.376   2.804
 1911SOL     OW 6064   1.138   2.242   3.540
 1911SOL    HW1 6065   1.093   2.305   3.604
 1911SOL    HW2 6066   1.231   2.273   3.523
 1912SOL     OW 6067   1.160   2.069   3.339
 1912SOL    HW1 6068   1.160   2.133   3.416
 1912SOL    HW2 6069   1.188   2.117   3.256
 1913SOL     OW 6070   0.008   3.188   2.062
 1913SOL    HW1 6071  -0.085   3.209   2.031
 1913SOL    HW2 6072   0.018   3.089   2.075
 1914SOL     OW 6073   0.088   3.663   2.789
 1914SOL    HW1 6074   0.046   3.577   2.762
 1914SOL    HW2 6075   0.182   3.666   2.755
 1915SOL     OW 6076   0.504   3.430   2.772
 1915SOL    HW1 6077   0.570   3.504   2.781
 1915SOL    HW2 6078   0.548   3.351   2.730
 1916SOL     OW 6079   1.002   2.658   3.100
 1916SOL    HW1 6080   1.043   2.626   3.186
 1916SOL    HW2 6081   0.906   2.631   3.097
 1917SOL     OW 6082   0.040   2.406   2.976
 1917SOL    HW1 6083   0.125   2.373   2.935
 1917SOL    HW2 6084   0.053   2.421   3.074
 1918SOL     OW 6085   0.189   2.382   3.584
 1918SOL    HW1 6086   0.248   2.342   3.514
 1918SOL    HW2 6087   0.131   2.453   3.543
 1919SOL     OW 6088   1.369   2.812   3.522
 1919SOL    HW1 6089   1.408   2.901   3.542
 1919SOL    HW2 6090   1.379   2.792   3.425
 1920SOL     OW 6091   0.815   2.434   2.187
 1920SOL    HW1 6092   0.822   2.345   2.141
 1920SOL    HW2 6093   0.721   2.468   2.179
 1921SOL     OW 6094   1.657   2.466   3.068
 1921SOL    HW1 6095   1.619   2.397   3.130
 1921SOL    HW2 6096   1.739   2.430   3.024
 1922SOL     OW 6097   0.252   3.426   3.606
 1922SOL    HW1 6098   0.222   3.483   3.682
 1922SOL    HW2 6099   0.245   3.329   3.632
 1923SOL     OW 6100   0.671   2.326   3.131
 1923SOL    HW1 6101   0.637   2.237   3.101
 1923SOL    HW2 6102   0.697   2.380   3.051
 1924SOL     OW 6103   0.930   3.540   3.327
 1924SOL    HW1 6104   0.906   3.522   3.232
 1924SOL    HW2 6105   0.960   3.634   3.337
 1925SOL     OW 6106   0.473   2.362   2.053
 1925SOL    HW1 6107   0.534   2.442   2.057
 1925SOL    HW2 6108   0.378   2.393   2.060
 1926SOL     OW 6109   0.159   2.999   3.328
 1926SOL    HW1 6110   0.181   2.938   3.404
 1926SOL    HW2 6111   0.169   2.950   3.242
 1927SOL     OW 6112   1.347   2.921   3.096
 1927SOL    HW1 6113   1.371   2.858   3.022
 1927SOL    HW2 6114   1.257   2.961   3.078
 1928SOL     OW 6115   1.302   2.717   2.171
 1928SOL    HW1 6116   1.216   2.686   2.213
 1928SOL    HW2 6117   1.298   2.703   2.072
 1929SOL     OW 6118   1.759   3.609   3.016
 1929SOL    HW1 6119   1.820   3.639   2.943
 1929SOL    HW2 6120   1.721   3.520   2.994
 1930SOL     OW 6121   1.252   3.593   2.990
 1930SOL    HW1 6122   1.336   3.598   2.936
 1930SOL    HW2 6123   1.229   3.497   3.008
 1931SOL     OW 6124   0.083   3.120   2.884
 1931SOL    HW1 6125   0.078   3.119   2.984
 1931SOL    HW2 6126   0.000   3.079   2.846
 1932SOL     OW 6127   0.688   3.524   3.578
 1932SOL    HW1 6128   0.632   3.605   3.587
 1932SOL    HW2 6129   0.740   3.528   3.492
 1933SOL     OW 6130   1.388   3.435   2.339
 1933SOL    HW1 6131   1.455   3.447   2.265
 1933SOL    HW2 6132   1.348   3.524   2.362
 1934SOL     OW 6133   0.130   3.656   3.713
 1934SOL    HW1 6134   0.089   3.582   3.766
 1934SOL    HW2 6135   0.194   3.707   3.771
 1935SOL     OW 6136   1.280   2.789   2.534
 1935SOL    HW1 6137   1.340   2.708   2.536
 1935SOL    HW2 6138   1.320   2.858   2.474
 1936SOL     OW 6139   0.830   3.135   3.284
 1936SOL    HW1 6140   0.825   3.168   3.379
 1936SOL    HW2 6141   0.744   3.154   3.238
 1937SOL     OW 6142   0.672   3.478   2.016
 1937SOL    HW1 6143   0.681   3.488   1.917
 1937SOL    HW2 6144   0.632   3.389   2.037
 1938SOL     OW 6145   1.650   3.582   3.256
 1938SOL    HW1 6146   1.703   3.592   3.172
 1938SOL    HW2 6147   1.623   3.672   3.290
 1939SOL     OW 6148   0.263   2.188   2.582
 1939SOL    HW1 6149   0.184   2.239   2.548
 1939SOL    HW2 6150   0.254   2.173   2.680
 1940SOL     OW 6151   1.194   3.474   1.893
 1940SOL    HW1 6152   1.200   3.381   1.930
 1940SOL    HW2 6153   1.135   3.474   1.813
 1941SOL     OW 6154   0.822   2.864   3.234
 1941SOL    HW1 6155   0.862   2.863   3.142
 1941SOL    HW2 6156   0.832   2.956   3.274
 1942SOL     OW 6157   0.916   2.772   2.153
 1942SOL    HW1 6158   0.979   2.810   2.085
 1942SOL    HW2 6159   0.956   2.689   2.192
 1943SOL     OW 6160   1.504   3.469   1.906
 1943SOL    HW1 6161   1.412   3.506   1.913
 1943SOL    HW2 6162   1.542   3.489   1.816
 1944SOL     OW 6163   0.372   3.150   3.352
 1944SOL    HW1 6164   0.359   3.243   3.318
 1944SOL    HW2 6165   0.288   3.098   3.339
 1945SOL     OW 6166   1.614   3.154   3.151
 1945SOL    HW1 6167   1.674   3.157   3.231
 1945SOL    HW2 6168   1.539   3.218   3.164
 1946SOL     OW 6169   1.039   2.960   2.558
 1946SOL    HW1 6170   0.969   2.913   2.612
 1946SOL    HW2 6171   1.098   2.892   2.515
 1947SOL     OW 6172   1.014   2.098   2.833
 1947SOL    HW1 6173   1.006   2.062   2.740
 1947SOL    HW2 6174   1.012   2.022   2.898
 1948SOL     OW 6175   0.590   3.349   2.353
 1948SOL    HW1 6176   0.632   3.291   2.283
 1948SOL    HW2 6177   0.546   3.428   2.309
 1949SOL     OW 6178   1.709   2.247   3.243
 1949SOL    HW1 6179   1.782   2.316   3.247
 1949SOL    HW2 6180   1.737   2.172   3.184
 1950SOL     OW 6181   0.255   3.210   2.152
 1950SOL    HW1 6182   0.159   3.211   2.125
 1950SOL    HW2 6183   0.267   3.263   2.236
 1951SOL     OW 6184   0.105   2.875   3.588
 1951SOL    HW1 6185   0.028   2.842   3.642
 1951SOL    HW2 6186   0.190   2.845   3.630
 1952SOL     OW 6187   0.672   2.065   3.351
 1952SOL    HW1 6188   0.762   2.049   3.311
 1952SOL    HW2 6189   0.680   2.070   3.450
 1953SOL     OW 6190   0.075   2.207   1.895
 1953SOL    HW1 6191  -0.017   2.179   1.866
 1953SOL    HW2 6192   0.106   2.284   1.839
 1954SOL     OW 6193   1.440   2.718   3.260
 1954SOL    HW1 6194   1.383   2.770   3.197
 1954SOL    HW2 6195   1.536   2.730   3.236
 1955SOL     OW 6196   0.072   2.028   2.180
 1955SOL    HW1 6197   0.055   2.111   2.126
 1955SOL    HW2 6198   0.162   1.991   2.158
 1956SOL     OW 6199   1.183   3.197   1.981
 1956SOL    HW1 6200   1.084   3.186   1.983
 1956SOL    HW2 6201   1.217   3.212   2.074
 1957SOL     OW 6202   0.613   2.704   3.293
 1957SOL    HW1 6203   0.669   2.785   3.276
 1957SOL    HW2 6204   0.672   2.624   3.296
 1958SOL     OW 6205   1.493   3.629   2.821
 1958SOL    HW1 6206   1.526   3.693   2.752
 1958SOL    HW2 6207   1.559   3.623   2.896
 1959SOL     OW 6208   0.716   2.427   3.570
 1959SOL    HW1 6209   0.735   2.492   3.644
 1959SOL    HW2 6210   0.776   2.347   3.579
 1960SOL     OW 6211   1.450   3.082   3.495
 1960SOL    HW1 6212   1.441   3.072   3.594
 1960SOL    HW2 6213   1.546   3.075   3.469
 1961SOL     OW 6214   0.390   3.603   3.422
 1961SOL    HW1 6215   0.299   3.644   3.420
 1961SOL    HW2 6216   0.383   3.509   3.454
 1962SOL     OW 6217   1.674   2.745   3.116
 1962SOL    HW1 6218   1.647   2.656   3.079
 1962SOL    HW2 6219   1.675   2.813   3.043
 1963SOL     OW 6220   1.225   2.187   2.311
 1963SOL    HW1 6221   1.290   2.113   2.300
 1963SOL    HW2 6222   1.245   2.237   2.395
 1964SOL     OW 6223   0.594   2.607   2.514
 1964SOL    HW1 6224   0.644   2.692   2.495
 1964SOL    HW2 6225   0.506   2.609   2.466
 1965SOL     OW 6226   1.777   2.204   3.504
 1965SOL    HW1 6227   1.760   2.235   3.410
 1965SOL    HW2 6228   1.693   2.167   3.542
 1966SOL     OW 6229   1.730   2.796   3.379
 1966SOL    HW1 6230   1.768   2.887   3.394
 1966SOL    HW2 6231   1.722   2.779   3.280
 1967SOL     OW 6232   0.859   3.236   1.878
 1967SOL    HW1 6233   0.813   3.251   1.966
 1967SOL    HW2 6234   0.903   3.321   1.848
 1968SOL     OW 6235   0.661   3.652   2.815
 1968SOL    HW1 6236   0.615   3.740   2.802
 1968SOL    HW2 6237   0.760   3.664   2.808
 1969SOL     OW 6238   0.859   2.818   2.723
 1969SOL    HW1 6239   0.913   2.749   2.771
 1969SOL    HW2 6240   0.827   2.887   2.789
 1970SOL     OW 6241   1.083   2.846   1.949
 1970SOL    HW1 6242   1.060   2.899   1.867
 1970SOL    HW2 6243   1.164   2.790   1.930
 1971SOL     OW 6244   1.861   3.431   2.713
 1971SOL    HW1 6245   1.790   3.419   2.643
 1971SOL    HW2 6246   1.862   3.352   2.773
 1972SOL     OW 6247   0.221   3.176   3.706
 1972SOL    HW1 6248   0.156   3.103   3.685
 1972SOL    HW2 6249   0.225   3.190   3.804
 1973SOL     OW 6250   0.079   3.102   2.515
 1973SOL    HW1 6251   0.078   3.055   2.603
 1973SOL    HW2 6252   0.161   3.074   2.464
 1974SOL     OW 6253   0.672   3.253   3.486
 1974SOL    HW1 6254   0.594   3.203   3.524
 1974SOL    HW2 6255   0.669   3.348   3.517
 1975SOL     OW 6256   0.428   2.286   2.382
 1975SOL    HW1 6257   0.458   2.214   2.320
 1975SOL    HW2 6258   0.389   2.246   2.465
 1976SOL     OW 6259   1.705   3.349   2.966
 1976SOL    HW1 6260   1.612   3.324   2.939
 1976SOL    HW2 6261   1.731   3.299   3.048
 1977SOL     OW 6262   0.317   2.409   3.142
 1977SOL    HW1 6263   0.355   2.350   3.214
 1977SOL    HW2 6264   0.357   2.383   3.054
 1978SOL     OW 6265   0.812   3.448   2.549
 1978SOL    HW1 6266   0.844   3.458   2.455
 1978SOL    HW2 6267   0.733   3.386   2.551
 1979SOL     OW 6268   1.424   2.076   2.974
 1979SOL    HW1 6269   1.476   2.011   3.029
 1979SOL    HW2 6270   1.375   2.139   3.035
 1980SOL     OW 6271   1.001   1.896   3.016
 1980SOL    HW1 6272   0.938   1.824   2.985
 1980SOL    HW2 6273   1.094   1.860   3.016
 1981SOL     OW 6274   0.770   3.192   2.163
 1981SOL    HW1 6275   0.724   3.105   2.180
 1981SOL    HW2 6276   0.861   3.189   2.204
 1982SOL     OW 6277   0.618   3.429   3.146
 1982SOL    HW1 6278   0.613   3.511   3.203
 1982SOL    HW2 6279   0.707   3.426   3.101
 1983SOL     OW 6280   1.352   1.914   2.030
 1983SOL    HW1 6281   1.387   1.873   1.946
 1983SOL    HW2 6282   1.262   1.876   2.050
 1984SOL     OW 6283   1.300   2.315   2.553
 1984SOL    HW1 6284   1.241   2.395   2.557
 1984SOL    HW2 6285   1.315   2.280   2.646
 1985SOL     OW 6286   1.593   2.083   2.744
 1985SOL    HW1 6287   1.509   2.082   2.798
 1985SOL    HW2 6288   1.595   2.166   2.688
 1986SOL     OW 6289   0.039   2.939   2.162
 1986SOL    HW1 6290   0.138   2.928   2.153
 1986SOL    HW2 6291  -0.001   2.853   2.194
 1987SOL     OW 6292   0.875   3.508   2.199
 1987SOL    HW1 6293   0.798   3.473   2.145
 1987SOL    HW2 6294   0.843   3.579   2.261
 1988SOL     OW 6295   0.230   2.490   3.837
 1988SOL    HW1 6296   0.137   2.488   3.874
 1988SOL    HW2 6297   0.231   2.451   3.745
 1989SOL     OW 6298   0.225   2.137   4.720
 1989SOL    HW1 6299   0.260   2.120   4.812
 1989SOL    HW2 6300   0.137   2.092   4.708
 1990SOL     OW 6301   0.019   2.230   4.371
 1990SOL    HW1 6302  -0.063   2.273   4.410
 1990SOL    HW2 6303  -0.009   2.157   4.308
 1991SOL     OW 6304   0.569   3.137   4.889
 1991SOL    HW1 6305   0.476   3.130   4.852
 1991SOL    HW2 6306   0.580   3.226   4.933
 1992SOL     OW 6307   1.555   3.373   4.427
 1992SOL    HW1 6308   1.498   3.357   4.508
 1992SOL    HW2 6309   1.496   3.383   4.347
 1993SOL     OW 6310   1.135   2.565   4.441
 1993SOL    HW1 6311   1.192   2.643   4.416
 1993SOL    HW2 6312   1.075   2.591   4.517
 1994SOL     OW 6313   1.755   2.469   3.955
 1994SOL    HW1 6314   1.743   2.456   3.856
 1994SOL    HW2 6315   1.725   2.388   4.004
 1995SOL     OW 6316   0.768   3.006   4.747
 1995SOL    HW1 6317   0.690   3.023   4.807
 1995SOL    HW2 6318   0.802   3.093   4.711
 1996SOL     OW 6319   0.850   2.660   5.547
 1996SOL    HW1 6320   0.846   2.736   5.612
 1996SOL    HW2 6321   0.872   2.696   5.456
 1997SOL     OW 6322   0.685   2.874   4.389
 1997SOL    HW1 6323   0.754   2.858   4.459
 1997SOL    HW2 6324   0.612   2.931   4.427
 1998SOL     OW 6325   0.686   3.023   5.527
 1998SOL    HW1 6326   0.746   3.102   5.541
 1998SOL    HW2 6327   0.600   3.054   5.486
 1999SOL     OW 6328   0.335   3.297   4.785
 1999SOL    HW1 6329   0.257   3.266   4.732
 1999SOL    HW2 6330   0.393   3.355   4.728
 2000SOL     OW 6331   1.460   3.367   5.063
 2000SOL    HW1 6332   1.484   3.461   5.089
 2000SOL    HW2 6333   1.444   3.313   5.145
 2001SOL     OW 6334   0.438   2.254   5.223
 2001SOL    HW1 6335   0.520   2.198   5.232
 2001SOL    HW2 6336   0.357   2.196   5.227
 2002SOL     OW 6337   1.603   2.309   4.461
 2002SOL    HW1 6338   1.529   2.355   4.411
 2002SOL    HW2 6339   1.654   2.377   4.514
 2003SOL     OW 6340   0.231   3.575   4.207
 2003SOL    HW1 6341   0.265   3.652   4.261
 2003SOL    HW2 6342   0.275   3.575   4.117
 2004SOL     OW 6343   1.127   3.203   5.414
 2004SOL    HW1 6344   1.174   3.203   5.502
 2004SOL    HW2 6345   1.079   3.116   5.403
 2005SOL     OW 6346   0.230   3.296   4.262
 2005SOL    HW1 6347   0.204   3.392   4.262
 2005SOL    HW2 6348   0.159   3.242   4.307
 2006SOL     OW 6349   0.240   2.953   4.610
 2006SOL    HW1 6350   0.254   2.869   4.662
 2006SOL    HW2 6351   0.185   3.017   4.665
 2007SOL     OW 6352   0.620   3.648   5.163
 2007SOL    HW1 6353   0.528   3.631   5.198
 2007SOL    HW2 6354   0.648   3.740   5.189
 2008SOL     OW 6355   0.606   2.826   3.847
 2008SOL    HW1 6356   0.613   2.910   3.793
 2008SOL    HW2 6357   0.652   2.839   3.935
 2009SOL     OW 6358   1.594   1.976   5.204
 2009SOL    HW1 6359   1.576   2.043   5.132
 2009SOL    HW2 6360   1.591   2.022   5.293
 2010SOL     OW 6361   0.122   2.505   4.287
 2010SOL    HW1 6362   0.077   2.417   4.304
 2010SOL    HW2 6363   0.121   2.559   4.371
 2011SOL     OW 6364   1.842   3.629   4.083
 2011SOL    HW1 6365   1.896   3.600   4.163
 2011SOL    HW2 6366   1.872   3.719   4.054
 2012SOL     OW 6367   0.027   3.458   3.841
 2012SOL    HW1 6368   0.008   3.362   3.862
 2012SOL    HW2 6369  -0.006   3.516   3.916
 2013SOL     OW 6370   1.689   2.784   4.336
 2013SOL    HW1 6371   1.784   2.755   4.344
 2013SOL    HW2 6372   1.681   2.849   4.261
 2014SOL     OW 6373   1.641   2.970   4.156
 2014SOL    HW1 6374   1.727   2.972   4.104
 2014SOL    HW2 6375   1.655   3.017   4.244
 2015SOL     OW 6376   0.113   2.599   5.321
 2015SOL    HW1 6377   0.201   2.586   5.366
 2015SOL    HW2 6378   0.100   2.696   5.299
 2016SOL     OW 6379   0.613   3.227   4.450
 2016SOL    HW1 6380   0.564   3.140   4.459
 2016SOL    HW2 6381   0.590   3.270   4.363
 2017SOL     OW 6382   1.293   3.090   5.147
 2017SOL    HW1 6383   1.330   3.017   5.089
 2017SOL    HW2 6384   1.345   3.095   5.232
 2018SOL     OW 6385   0.809   1.866   4.226
 2018SOL    HW1 6386   0.849   1.957   4.217
 2018SOL    HW2 6387   0.709   1.874   4.232
 2019SOL     OW 6388   0.197   2.838   4.988
 2019SOL    HW1 6389   0.286   2.793   4.974
 2019SOL    HW2 6390   0.124   2.773   4.969
 2020SOL     OW 6391   1.525   2.861   3.914
 2020SOL    HW1 6392   1.462   2.785   3.927
 2020SOL    HW2 6393   1.573   2.879   4.000
 2021SOL     OW 6394   1.187   3.654   5.340
 2021SOL    HW1 6395   1.211   3.714   5.264
 2021SOL    HW2 6396   1.194   3.559   5.310
 2022SOL     OW 6397   0.317   2.113   5.525
 2022SOL    HW1 6398   0.388   2.184   5.531
 2022SOL    HW2 6399   0.229   2.152   5.553
 2023SOL     OW 6400   1.466   3.279   4.677
 2023SOL    HW1 6401   1.407   3.285   4.757
 2023SOL    HW2 6402   1.451   3.191   4.631
 2024SOL     OW 6403   1.667   3.576   4.296
 2024SOL    HW1 6404   1.626   3.553   4.208
 2024SOL    HW2 6405   1.649   3.502   4.361
 2025SOL     OW 6406   0.598   2.591   3.994
 2025SOL    HW1 6407   0.622   2.660   3.926
 2025SOL    HW2 6408   0.520   2.624   4.048
 2026SOL     OW 6409   1.281   2.207   4.668
 2026SOL    HW1 6410   1.195   2.157   4.655
 2026SOL    HW2 6411   1.343   2.153   4.724
 2027SOL     OW 6412   1.576   3.524   4.031
 2027SOL    HW1 6413   1.665   3.570   4.034
 2027SOL    HW2 6414   1.555   3.500   3.936
 2028SOL     OW 6415   0.807   2.467   5.189
 2028SOL    HW1 6416   0.760   2.464   5.278
 2028SOL    HW2 6417   0.756   2.412   5.123
 2029SOL     OW 6418   1.394   2.331   5.398
 2029SOL    HW1 6419   1.374   2.374   5.486
 2029SOL    HW2 6420   1.472   2.269   5.407
 2030SOL     OW 6421   0.973   2.752   5.296
 2030SOL    HW1 6422   1.019   2.668   5.267
 2030SOL    HW2 6423   0.917   2.786   5.221
 2031SOL     OW 6424   0.991   2.272   4.966
 2031SOL    HW1 6425   0.914   2.306   5.020
 2031SOL    HW2 6426   0.957   2.221   4.887
 2032SOL     OW 6427   1.041   2.563   4.153
 2032SOL    HW1 6428   1.067   2.559   4.249
 2032SOL    HW2 6429   0.956   2.512   4.139
 2033SOL     OW 6430   0.076   2.673   4.513
 2033SOL    HW1 6431   0.175   2.661   4.522
 2033SOL    HW2 6432   0.052   2.768   4.534
 2034SOL     OW 6433   0.130   3.683   5.295
 2034SOL    HW1 6434   0.120   3.668   5.394
 2034SOL    HW2 6435   0.044   3.719   5.259
 2035SOL     OW 6436   0.865   2.210   3.919
 2035SOL    HW1 6437   0.924   2.273   3.870
 2035SOL    HW2 6438   0.884   2.116   3.890
 2036SOL     OW 6439   1.719   2.447   5.555
 2036SOL    HW1 6440   1.693   2.536   5.519
 2036SOL    HW2 6441   1.717   2.379   5.482
 2037SOL     OW 6442   1.362   3.006   4.269
 2037SOL    HW1 6443   1.445   2.977   4.221
 2037SOL    HW2 6444   1.313   3.073   4.213
 2038SOL     OW 6445   0.550   2.058   4.609
 2038SOL    HW1 6446   0.545   2.053   4.709
 2038SOL    HW2 6447   0.552   2.154   4.580
 2039SOL     OW 6448   1.008   3.318   4.201
 2039SOL    HW1 6449   0.962   3.390   4.149
 2039SOL    HW2 6450   1.004   3.338   4.299
 2040SOL     OW 6451   0.351   3.663   4.577
 2040SOL    HW1 6452   0.401   3.577   4.583
 2040SOL    HW2 6453   0.416   3.740   4.574
 2041SOL     OW 6454   1.795   2.928   4.597
 2041SOL    HW1 6455   1.733   2.913   4.521
 2041SOL    HW2 6456   1.743   2.939   4.682
 2042SOL     OW 6457   1.227   3.412   5.230
 2042SOL    HW1 6458   1.233   3.335   5.294
 2042SOL    HW2 6459   1.175   3.386   5.150
 2043SOL     OW 6460   0.321   2.805   3.966
 2043SOL    HW1 6461   0.403   2.844   3.924
 2043SOL    HW2 6462   0.294   2.723   3.917
 2044SOL     OW 6463   1.458   2.597   4.452
 2044SOL    HW1 6464   1.453   2.532   4.527
 2044SOL    HW2 6465   1.538   2.656   4.465
 2045SOL     OW 6466   0.461   3.128   5.451
 2045SOL    HW1 6467   0.411   3.129   5.365
 2045SOL    HW2 6468   0.398   3.110   5.527
 2046SOL     OW 6469   1.111   3.638   3.961
 2046SOL    HW1 6470   1.051   3.576   4.011
 2046SOL    HW2 6471   1.142   3.594   3.876
 2047SOL     OW 6472   0.202   2.147   5.222
 2047SOL    HW1 6473   0.122   2.207   5.209
 2047SOL    HW2 6474   0.192   2.098   5.308
 2048SOL     OW 6475   1.632   3.239   3.805
 2048SOL    HW1 6476   1.600   3.333   3.795
 2048SOL    HW2 6477   1.556   3.176   3.793
 2049SOL     OW 6478   0.464   3.605   4.047
 2049SOL    HW1 6479   0.497   3.644   4.133
 2049SOL    HW2 6480   0.540   3.598   3.982
 2050SOL     OW 6481   1.400   1.969   4.150
 2050SOL    HW1 6482   1.376   1.932   4.060
 2050SOL    HW2 6483   1.499   1.985   4.154
 2051SOL     OW 6484   0.249   3.647   4.965
 2051SOL    HW1 6485   0.306   3.582   5.015
 2051SOL    HW2 6486   0.233   3.614   4.872
 2052SOL     OW 6487   0.940   3.560   4.628
 2052SOL    HW1 6488   1.020   3.503   4.649
 2052SOL    HW2 6489   0.891   3.520   4.551
 2053SOL     OW 6490   0.382   2.562   4.204
 2053SOL    HW1 6491   0.427   2.472   4.201
 2053SOL    HW2 6492   0.288   2.551   4.237
 2054SOL     OW 6493   1.547   2.084   5.453
 2054SOL    HW1 6494   1.542   2.121   5.545
 2054SOL    HW2 6495   1.475   2.015   5.441
 2055SOL     OW 6496   0.614   1.984   3.841
 2055SOL    HW1 6497   0.712   1.962   3.848
 2055SOL    HW2 6498   0.583   1.967   3.748
 2056SOL     OW 6499   0.781   2.126   5.473
 2056SOL    HW1 6500   0.848   2.065   5.516
 2056SOL    HW2 6501   0.708   2.145   5.538
 2057SOL     OW 6502   0.888   3.376   4.919
 2057SOL    HW1 6503   0.865   3.351   4.825
 2057SOL    HW2 6504   0.949   3.307   4.958
 2058SOL     OW 6505   1.351   2.452   5.157
 2058SOL    HW1 6506   1.379   2.409   5.242
 2058SOL    HW2 6507   1.376   2.548   5.158
 2059SOL     OW 6508   0.803   3.264   4.648
 2059SOL    HW1 6509   0.893   3.278   4.606
 2059SOL    HW2 6510   0.732   3.266   4.577
 2060SOL     OW 6511   0.922   2.365   4.623
 2060SOL    HW1 6512   0.897   2.356   4.527
 2060SOL    HW2 6513   0.970   2.283   4.654
 2061SOL     OW 6514   0.539   1.926   4.236
 2061SOL    HW1 6515   0.458   1.927   4.294
 2061SOL    HW2 6516   0.542   2.009   4.181
 2062SOL     OW 6517   1.434   3.050   3.765
 2062SOL    HW1 6518   1.466   2.974   3.822
 2062SOL    HW2 6519   1.342   3.077   3.795
 2063SOL     OW 6520   0.297   1.897   3.895
 2063SOL    HW1 6521   0.346   1.981   3.874
 2063SOL    HW2 6522   0.359   1.832   3.940
 2064SOL     OW 6523   0.935   2.098   4.204
 2064SOL    HW1 6524   0.887   2.139   4.126
 2064SOL    HW2 6525   1.034   2.096   4.185
 2065SOL     OW 6526   1.076   2.545   5.188
 2065SOL    HW1 6527   0.996   2.484   5.191
 2065SOL    HW2 6528   1.157   2.492   5.164
 2066SOL     OW 6529   1.227   3.432   4.517
 2066SOL    HW1 6530   1.248   3.506   4.452
 2066SOL    HW2 6531   1.295   3.432   4.590
 2067SOL     OW 6532   0.459   3.014   4.465
 2067SOL    HW1 6533   0.388   2.987   4.530
 2067SOL    HW2 6534   0.433   2.986   4.372
 2068SOL     OW 6535   1.271   3.659   4.315
 2068SOL    HW1 6536   1.315   3.723   4.251
 2068SOL    HW2 6537   1.221   3.711   4.385
 2069SOL     OW 6538   1.032   2.411   3.740
 2069SOL    HW1 6539   0.991   2.493   3.701
 2069SOL    HW2 6540   1.096   2.437   3.813
 2070SOL     OW 6541   0.078   2.418   5.110
 2070SOL    HW1 6542   0.170   2.417   5.069
 2070SOL    HW2 6543   0.072   2.492   5.177
 2071SOL     OW 6544   0.561   2.084   4.871
 2071SOL    HW1 6545   0.599   2.000   4.908
 2071SOL    HW2 6546   0.473   2.103   4.915
 2072SOL     OW 6547   0.866   2.316   4.366
 2072SOL    HW1 6548   0.834   2.388   4.304
 2072SOL    HW2 6549   0.890   2.235   4.313
 2073SOL     OW 6550   1.017   1.901   4.477
 2073SOL    HW1 6551   0.945   1.906   4.408
 2073SOL    HW2 6552   0.993   1.832   4.546
 2074SOL     OW 6553   1.429   3.035   4.591
 2074SOL    HW1 6554   1.374   2.951   4.584
 2074SOL    HW2 6555   1.455   3.064   4.499
 2075SOL     OW 6556   1.466   2.452   4.716
 2075SOL    HW1 6557   1.436   2.357   4.723
 2075SOL    HW2 6558   1.539   2.468   4.782
 2076SOL     OW 6559   1.857   2.695   4.101
 2076SOL    HW1 6560   1.899   2.631   4.165
 2076SOL    HW2 6561   1.819   2.644   4.023
 2077SOL     OW 6562   0.488   3.247   3.898
 2077SOL    HW1 6563   0.401   3.232   3.945
 2077SOL    HW2 6564   0.471   3.273   3.803
 2078SOL     OW 6565   1.664   3.142   4.381
 2078SOL    HW1 6566   1.763   3.150   4.395
 2078SOL    HW2 6567   1.619   3.226   4.412
 2079SOL     OW 6568   1.390   2.437   3.802
 2079SOL    HW1 6569   1.336   2.416   3.883
 2079SOL    HW2 6570   1.481   2.396   3.811
 2080SOL     OW 6571   0.527   2.118   4.052
 2080SOL    HW1 6572   0.554   2.059   3.977
 2080SOL    HW2 6573   0.527   2.213   4.021
 2081SOL     OW 6574   1.754   3.085   5.312
 2081SOL    HW1 6575   1.845   3.046   5.299
 2081SOL    HW2 6576   1.762   3.181   5.336
 2082SOL     OW 6577   1.064   3.209   5.064
 2082SOL    HW1 6578   0.984   3.186   5.119
 2082SOL    HW2 6579   1.147   3.183   5.113
 2083SOL     OW 6580   1.592   3.491   5.349
 2083SOL    HW1 6581   1.619   3.525   5.259
 2083SOL    HW2 6582   1.671   3.453   5.395
 2084SOL     OW 6583   1.111   3.057   4.824
 2084SOL    HW1 6584   1.071   3.101   4.905
 2084SOL    HW2 6585   1.070   3.094   4.741
 2085SOL     OW 6586   1.638   2.961   4.803
 2085SOL    HW1 6587   1.643   3.042   4.862
 2085SOL    HW2 6588   1.552   2.963   4.752
 2086SOL     OW 6589   0.915   1.951   5.126
 2086SOL    HW1 6590   0.940   1.931   5.031
 2086SOL    HW2 6591   0.987   2.007   5.168
 2087SOL     OW 6592   0.980   2.978   5.443
 2087SOL    HW1 6593   0.881   2.984   5.453
 2087SOL    HW2 6594   1.003   2.898   5.387
 2088SOL     OW 6595   0.705   2.912   4.092
 2088SOL    HW1 6596   0.691   2.919   4.191
 2088SOL    HW2 6597   0.789   2.861   4.074
 2089SOL     OW 6598   0.410   2.675   4.975
 2089SOL    HW1 6599   0.496   2.687   5.025
 2089SOL    HW2 6600   0.368   2.588   5.002
 2090SOL     OW 6601   1.274   2.248   4.986
 2090SOL    HW1 6602   1.295   2.322   5.050
 2090SOL    HW2 6603   1.185   2.265   4.943
 2091SOL     OW 6604   0.064   3.426   5.055
 2091SOL    HW1 6605   0.018   3.508   5.021
 2091SOL    HW2 6606   0.162   3.445   5.064
 2092SOL     OW 6607   0.367   2.962   4.225
 2092SOL    HW1 6608   0.360   3.045   4.169
 2092SOL    HW2 6609   0.371   2.882   4.165
 2093SOL     OW 6610   0.566   2.399   4.589
 2093SOL    HW1 6611   0.578   2.465   4.515
 2093SOL    HW2 6612   0.612   2.433   4.672
 2094SOL     OW 6613   1.252   3.210   4.112
 2094SOL    HW1 6614   1.302   3.287   4.152
 2094SOL    HW2 6615   1.157   3.212   4.144
 2095SOL     OW 6616   1.272   3.307   4.866
 2095SOL    HW1 6617   1.319   3.320   4.953
 2095SOL    HW2 6618   1.206   3.233   4.875
 2096SOL     OW 6619   1.582   2.501   4.196
 2096SOL    HW1 6620   1.551   2.562   4.269
 2096SOL    HW2 6621   1.632   2.553   4.127
 2097SOL     OW 6622   0.354   3.372   5.053
 2097SOL    HW1 6623   0.333   3.328   4.966
 2097SOL    HW2 6624   0.451   3.398   5.056
 2098SOL     OW 6625   0.402   2.613   5.322
 2098SOL    HW1 6626   0.470   2.668   5.275
 2098SOL    HW2 6627   0.442   2.525   5.349
 2099SOL     OW 6628   1.587   2.641   5.394
 2099SOL    HW1 6629   1.495   2.679   5.389
 2099SOL    HW2 6630   1.647   2.688   5.329
 2100SOL     OW 6631   1.013   1.967   5.494
 2100SOL    HW1 6632   1.019   2.052   5.442
 2100SOL    HW2 6633   1.045   1.891   5.437
 2101SOL     OW 6634   0.504   1.912   5.464
 2101SOL    HW1 6635   0.462   1.855   5.394
 2101SOL    HW2 6636   0.438   1.981   5.496
 2102SOL     OW 6637   0.573   2.732   4.753
 2102SOL    HW1 6638   0.617   2.821   4.744
 2102SOL    HW2 6639   0.510   2.732   4.830
 2103SOL     OW 6640   1.360   2.724   4.769
 2103SOL    HW1 6641   1.285   2.724   4.703
 2103SOL    HW2 6642   1.397   2.632   4.778
 2104SOL     OW 6643   1.209   2.387   3.999
 2104SOL    HW1 6644   1.222   2.303   4.053
 2104SOL    HW2 6645   1.180   2.461   4.059
 2105SOL     OW 6646   0.307   2.075   4.955
 2105SOL    HW1 6647   0.284   2.112   5.045
 2105SOL    HW2 6648   0.277   1.980   4.949
 2106SOL     OW 6649   0.037   3.172   5.006
 2106SOL    HW1 6650   0.090   3.123   5.074
 2106SOL    HW2 6651   0.059   3.270   5.011
 2107SOL     OW 6652   0.732   2.496   4.788
 2107SOL    HW1 6653   0.791   2.470   4.712
 2107SOL    HW2 6654   0.704   2.592   4.777
 2108SOL     OW 6655   1.728   2.797   5.578
 2108SOL    HW1 6656   1.682   2.790   5.489
 2108SOL    HW2 6657   1.666   2.841   5.644
 2109SOL     OW 6658   0.307   1.925   4.342
 2109SOL    HW1 6659   0.296   2.019   4.375
 2109SOL    HW2 6660   0.302   1.862   4.419
 2110SOL     OW 6661   1.622   2.229   4.098
 2110SOL    HW1 6662   1.624   2.153   4.162
 2110SOL    HW2 6663   1.574   2.306   4.138
 2111SOL     OW 6664   1.023   2.628   4.690
 2111SOL    HW1 6665   1.038   2.649   4.786
 2111SOL    HW2 6666   0.993   2.533   4.681
 2112SOL     OW 6667   0.980   3.435   5.424
 2112SOL    HW1 6668   0.960   3.479   5.336
 2112SOL    HW2 6669   1.019   3.344   5.408
 2113SOL     OW 6670   1.859   3.380   5.329
 2113SOL    HW1 6671   1.873   3.407   5.234
 2113SOL    HW2 6672   1.942   3.402   5.382
 2114SOL     OW 6673   0.350   2.760   5.528
 2114SOL    HW1 6674   0.426   2.804   5.576
 2114SOL    HW2 6675   0.385   2.713   5.446
 2115SOL     OW 6676   1.540   2.136   3.849
 2115SOL    HW1 6677   1.479   2.061   3.872
 2115SOL    HW2 6678   1.562   2.188   3.932
 2116SOL     OW 6679   1.303   2.700   3.766
 2116SOL    HW1 6680   1.337   2.607   3.781
 2116SOL    HW2 6681   1.321   2.727   3.671
 2117SOL     OW 6682   1.068   3.195   4.573
 2117SOL    HW1 6683   1.075   3.111   4.518
 2117SOL    HW2 6684   1.130   3.264   4.537
 2118SOL     OW 6685   0.319   2.672   4.673
 2118SOL    HW1 6686   0.412   2.708   4.678
 2118SOL    HW2 6687   0.313   2.587   4.725
 2119SOL     OW 6688   0.339   2.371   4.730
 2119SOL    HW1 6689   0.287   2.288   4.713
 2119SOL    HW2 6690   0.416   2.376   4.666
 2120SOL     OW 6691   1.138   2.242   5.402
 2120SOL    HW1 6692   1.093   2.305   5.466
 2120SOL    HW2 6693   1.231   2.273   5.385
 2121SOL     OW 6694   1.160   2.069   5.201
 2121SOL    HW1 6695   1.160   2.133   5.278
 2121SOL    HW2 6696   1.188   2.117   5.118
 2122SOL     OW 6697   0.008   3.188   3.924
 2122SOL    HW1 6698  -0.085   3.209   3.893
 2122SOL    HW2 6699   0.018   3.089   3.937
 2123SOL     OW 6700   0.088   3.663   4.651
 2123SOL    HW1 6701   0.046   3.577   4.624
 2123SOL    HW2 6702   0.182   3.666   4.617
 2124SOL     OW 6703   0.504   3.430   4.634
 2124SOL    HW1 6704   0.570   3.504   4.643
 2124SOL    HW2 6705   0.548   3.351   4.592
 2125SOL     OW 6706   1.002   2.658   4.962
 2125SOL    HW1 6707   1.043   2.626   5.048
 2125SOL    HW2 6708   0.906   2.631   4.959
 2126SOL     OW 6709   0.040   2.406   4.838
 2126SOL    HW1 6710   0.125   2.373   4.797
 2126SOL    HW2 6711   0.053   2.421   4.936
 2127SOL     OW 6712   0.189   2.382   5.446
 2127SOL    HW1 6713   0.248   2.342   5.376
 2127SOL    HW2 6714   0.131   2.453   5.405
 2128SOL     OW 6715   1.369   2.812   5.384
 2128SOL    HW1 6716   1.408   2.901   5.404
 2128SOL    HW2 6717   1.379   2.792   5.287
 2129SOL     OW 6718   0.815   2.434   4.049
 2129SOL    HW1 6719   0.822   2.345   4.003
 2129SOL    HW2 6720   0.721   2.468   4.041
 2130SOL     OW 6721   1.657   2.466   4.930
 2130SOL    HW1 6722   1.619   2.397   4.992
 2130SOL    HW2 6723   1.739   2.430   4.886
 2131SOL     OW 6724   0.252   3.426   5.468
 2131SOL    HW1 6725   0.222   3.483   5.544
 2131SOL    HW2 6726   0.245   3.329   5.494
 2132SOL     OW 6727   0.671   2.326   4.993
 2132SOL    HW1 6728   0.637   2.237   4.963
 2132SOL    HW2 6729   0.697   2.380   4.913
 2133SOL     OW 6730   0.930   3.540   5.189
 2133SOL    HW1 6731   0.906   3.522   5.094
 2133SOL    HW2 6732   0.960   3.634   5.199
 2134SOL     OW 6733   0.473   2.362   3.915
 2134SOL    HW1 6734   0.534   2.442   3.919
 2134SOL    HW2 6735   0.378   2.393   3.922
 2135SOL     OW 6736   0.159   2.999   5.190
 2135SOL    HW1 6737   0.181   2.938   5.266
 2135SOL    HW2 6738   0.169   2.950   5.104
 2136SOL     OW 6739   1.347   2.921   4.958
 2136SOL    HW1 6740   1.371   2.858   4.884
 2136SOL    HW2 6741   1.257   2.961   4.940
 2137SOL     OW 6742   1.302   2.717   4.033
 2137SOL    HW1 6743   1.216   2.686   4.075
 2137SOL    HW2 6744   1.298   2.703   3.934
 2138SOL     OW 6745   1.759   3.609   4.878
 2138SOL    HW1 6746   1.820   3.639   4.805
 2138SOL    HW2 6747   1.721   3.520   4.856
 2139SOL     OW 6748   1.252   3.593   4.852
 2139SOL    HW1 6749   1.336   3.598   4.798
 2139SOL    HW2 6750   1.229   3.497   4.870
 2140SOL     OW 6751   0.083   3.120   4.746
 2140SOL    HW1 6752   0.078   3.119   4.846
 2140SOL    HW2 6753   0.000   3.079   4.708
 2141SOL     OW 6754   0.688   3.524   5.440
 2141SOL    HW1 6755   0.632   3.605   5.449
 2141SOL    HW2 6756   0.740   3.528   5.354
 2142SOL     OW 6757   1.388   3.435   4.201
 2142SOL    HW1 6758   1.455   3.447   4.127
 2142SOL    HW2 6759   1.348   3.524   4.224
 2143SOL     OW 6760   0.130   3.656   5.575
 2143SOL    HW1 6761   0.089   3.582   5.628
 2143SOL    HW2 6762   0.194   3.707   5.633
 2144SOL     OW 6763   1.280   2.789   4.396
 2144SOL    HW1 6764   1.340   2.708   4.398
 2144SOL    HW2 6765   1.320   2.858   4.336
 2145SOL     OW 6766   0.830   3.135   5.146
 2145SOL    HW1 6767   0.825   3.168   5.241
 2145SOL    HW2 6768   0.744   3.154   5.100
 2146SOL     OW 6769   0.672   3.478   3.878
 2146SOL    HW1 6770   0.681   3.488   3.779
 2146SOL    HW2 6771   0.632   3.389   3.899
 2147SOL     OW 6772   1.650   3.582   5.118
 2147SOL    HW1 6773   1.703   3.592   5.034
 2147SOL    HW2 6774   1.623   3.672   5.152
 2148SOL     OW 6775   0.263   2.188   4.444
 2148SOL    HW1 6776   0.184   2.239   4.410
 2148SOL    HW2 6777   0.254   2.173   4.542
 2149SOL     OW 6778   1.194   3.474   3.755
 2149SOL    HW1 6779   1.200   3.381   3.792
 2149SOL    HW2 6780   1.135   3.474   3.675
 2150SOL     OW 6781   0.822   2.864   5.096
 2150SOL    HW1 6782   0.862   2.863   5.004
 2150SOL    HW2 6783   0.832   2.956   5.136
 2151SOL     OW 6784   0.916   2.772   4.015
 2151SOL    HW1 6785   0.979   2.810   3.947
 2151SOL    HW2 6786   0.956   2.689   4.054
 2152SOL     OW 6787   1.504   3.469   3.768
 2152SOL    HW1 6788   1.412   3.506   3.775
 2152SOL    HW2 6789   1.542   3.489   3.678
 2153SOL     OW 6790   0.372   3.150   5.214
 2153SOL    HW1 6791   0.359   3.243   5.180
 2153SOL    HW2 6792   0.288   3.098   5.201
 2154SOL     OW 6793   1.614   3.154   5.013
 2154SOL    HW1 6794   1.674   3.157   5.093
 2154SOL    HW2 6795   1.539   3.218   5.026
 2155SOL     OW 6796   1.039   2.960   4.420
 2155SOL    HW1 6797   0.969   2.913   4.474
 2155SOL    HW2 6798   1.098   2.892   4.377
 2156SOL     OW 6799   1.014   2.098   4.695
 2156SOL    HW1 6800   1.006   2.062   4.602
 2156SOL    HW2 6801   1.012   2.022   4.760
 2157SOL     OW 6802   0.590   3.349   4.215
 2157SOL    HW1 6803   0.632   3.291   4.145
 2157SOL    HW2 6804   0.546   3.428   4.171
 2158SOL     OW 6805   1.709   2.247   5.105
 2158SOL    HW1 6806   1.782   2.316   5.109
 2158SOL    HW2 6807   1.737   2.172   5.046
 2159SOL     OW 6808   0.255   3.210   4.014
 2159SOL    HW1 6809   0.159   3.211   3.987
 2159SOL    HW2 6810   0.267   3.263   4.098
 2160SOL     OW 6811   0.105   2.875   5.450
 2160SOL    HW1 6812   0.028   2.842   5.504
 2160SOL    HW2 6813   0.190   2.845   5.492
 2161SOL     OW 6814   0.672   2.065   5.213
 2161SOL    HW1 6815   0.762   2.049   5.173
 2161SOL    HW2 6816   0.680   2.070   5.312
 2162SOL     OW 6817   0.075   2.207   3.757
 2162SOL    HW1 6818  -0.017   2.179   3.728
 2162SOL    HW2 6819   0.106   2.284   3.701
 2163SOL     OW 6820   1.440   2.718   5.122
 2163SOL    HW1 6821   1.383   2.770   5.059
 2163SOL    HW2 6822   1.536   2.730   5.098
 2164SOL     OW 6823   0.072   2.028   4.042
 2164SOL    HW1 6824   0.055   2.111   3.988
 2164SOL    HW2 6825   0.162   1.991   4.020
 2165SOL     OW 6826   1.183   3.197   3.843
 2165SOL    HW1 6827   1.084   3.186   3.845
 2165SOL    HW2 6828   1.217   3.212   3.936
 2166SOL     OW 6829   0.613   2.704   5.155
 2166SOL    HW1 6830   0.669   2.785   5.138
 2166SOL    HW2 6831   0.672   2.624   5.158
 2167SOL     OW 6832   1.493   3.629   4.683
 2167SOL    HW1 6833   1.526   3.693   4.614
 2167SOL    HW2 6834   1.559   3.623   4.758
 2168SOL     OW 6835   0.716   2.427   5.432
 2168SOL    HW1 6836   0.735   2.492   5.506
 2168SOL    HW2 6837   0.776   2.347   5.441
 2169SOL     OW 6838   1.450   3.082   5.357
 2169SOL    HW1 6839   1.441   3.072   5.456
 2169SOL    HW2 6840   1.546   3.075   5.331
 2170SOL     OW 6841   0.390   3.603   5.284
 2170SOL    HW1 6842   0.299   3.644   5.282
 2170SOL    HW2 6843   0.383   3.509   5.316
 2171SOL     OW 6844   1.674   2.745   4.978
 2171SOL    HW1 6845   1.647   2.656   4.941
 2171SOL    HW2 6846   1.675   2.813   4.905
 2172SOL     OW 6847   1.225   2.187   4.173
 2172SOL    HW1 6848   1.290   2.113   4.162
 2172SOL    HW2 6849   1.245   2.237   4.257
 2173SOL     OW 6850   0.594   2.607   4.376
 2173SOL    HW1 6851   0.644   2.692   4.357
 2173SOL    HW2 6852   0.506   2.609   4.328
 2174SOL     OW 6853   1.777   2.204   5.366
 2174SOL    HW1 6854   1.760   2.235   5.272
 2174SOL    HW2 6855   1.693   2.167   5.404
 2175SOL     OW 6856   1.730   2.796   5.241
 2175SOL    HW1 6857   1.768   2.887   5.256
 2175SOL    HW2 6858   1.722   2.779   5.142
 2176SOL     OW 6859   0.859   3.236   3.740
 2176SOL    HW1 6860   0.813   3.251   3.828
 2176SOL    HW2 6861   0.903   3.321   3.710
 2177SOL     OW 6862   0.661   3.652   4.677
 2177SOL    HW1 6863   0.615   3.740   4.664
 2177SOL    HW2 6864   0.760   3.664   4.670
 2178SOL     OW 6865   0.859   2.818   4.585
 2178SOL    HW1 6866   0.913   2.749   4.633
 2178SOL    HW2 6867   0.827   2.887   4.651
 2179SOL     OW 6868   1.083   2.846   3.811
 2179SOL    HW1 6869   1.060   2.899   3.729
 2179SOL    HW2 6870   1.164   2.790   3.792
 2180SOL     OW 6871   1.861   3.431   4.575
 2180SOL    HW1 6872   1.790   3.419   4.505
 2180SOL    HW2 6873   1.862   3.352   4.635
 2181SOL     OW 6874   0.221   3.176   5.568
 2181SOL    HW1 6875   0.156   3.103   5.547
 2181SOL    HW2 6876   0.225   3.190   5.666
 2182SOL     OW 6877   0.079   3.102   4.377
 2182SOL    HW1 6878   0.078   3.055   4.465
 2182SOL    HW2 6879   0.161   3.074   4.326
 2183SOL     OW 6880   0.672   3.253   5.348
 2183SOL    HW1 6881   0.594   3.203   5.386
 2183SOL    HW2 6882   0.669   3.348   5.379
 2184SOL     OW 6883   0.428   2.286   4.244
 2184SOL    HW1 6884   0.458   2.214   4.182
 2184SOL    HW2 6885   0.389   2.246   4.327
 2185SOL     OW 6886   1.705   3.349   4.828
 2185SOL    HW1 6887   1.612   3.324   4.801
 2185SOL    HW2 6888   1.731   3.299   4.910
 2186SOL     OW 6889   0.317   2.409   5.004
 2186SOL    HW1 6890   0.355   2.350   5.076
 2186SOL    HW2 6891   0.357   2.383   4.916
 2187SOL     OW 6892   0.812   3.448   4.411
 2187SOL    HW1 6893   0.844   3.458   4.317
 2187SOL    HW2 6894   0.733   3.386   4.413
 2188SOL     OW 6895   1.424   2.076   4.836
 2188SOL    HW1 6896   1.476   2.011   4.891
 2188SOL    HW2 6897   1.375   2.139   4.897
 2189SOL     OW 6898   1.001   1.896   4.878
 2189SOL    HW1 6899   0.938   1.824   4.847
 2189SOL    HW2 6900   1.094   1.860   4.878
 2190SOL     OW 6901   0.770   3.192   4.025
 2190SOL    HW1 6902   0.724   3.105   4.042
 2190SOL    HW2 6903   0.861   3.189   4.066
 2191SOL     OW 6904   0.618   3.429   5.008
 2191SOL    HW1 6905   0.613   3.511   5.065
 2191SOL    HW2 6906   0.707   3.426   4.963
 2192SOL     OW 6907   1.352   1.914   3.892
 2192SOL    HW1 6908   1.387   1.873   3.808
 2192SOL    HW2 6909   1.262   1.876   3.912
 2193SOL     OW 6910   1.300   2.315   4.415
 2193SOL    HW1 6911   1.241   2.395   4.419
 2193SOL    HW2 6912   1.315   2.280   4.508
 2194SOL     OW 6913   1.593   2.083   4.606
 2194SOL    HW1 6914   1.509   2.082   4.660
 2194SOL    HW2 6915   1.595   2.166   4.550
 2195SOL     OW 6916   0.039   2.939   4.024
 2195SOL    HW1 6917   0.138   2.928   4.015
 2195SOL    HW2 6918  -0.001   2.853   4.056
 2196SOL     OW 6919   0.875   3.508   4.061
 2196SOL    HW1 6920   0.798   3.473   4.007
 2196SOL    HW2 6921   0.843   3.579   4.123
 2197SOL     OW 6922   0.230   2.490   5.699
 2197SOL    HW1 6923   0.137   2.488   5.736
 2197SOL    HW2 6924   0.231   2.451   5.607
 2198SOL     OW 6925   0.225   2.137   6.582
 2198SOL    HW1 6926   0.260   2.120   6.674
 2198SOL    HW2 6927   0.137   2.092   6.570
 2199SOL     OW 6928   0.019   2.230   6.233
 2199SOL    HW1 6929  -0.063   2.273   6.272
 2199SOL    HW2 6930  -0.009   2.157   6.170
 2200SOL     OW 6931   0.569   3.137   6.751
 2200SOL    HW1 6932   0.476   3.130   6.714
 2200SOL    HW2 6933   0.580   3.226   6.795
 2201SOL     OW 6934   1.555   3.373   6.289
 2201SOL    HW1 6935   1.498   3.357   6.370
 2201SOL    HW2 6936   1.496   3.383   6.209
 2202SOL     OW 6937   1.135   2.565   6.303
 2202SOL    HW1 6938   1.192   2.643   6.278
 2202SOL    HW2 6939   1.075   2.591   6.379
 2203SOL     OW 6940   1.755   2.469   5.817
 2203SOL    HW1 6941   1.743   2.456   5.718
 2203SOL    HW2 6942   1.725   2.388   5.866
 2204SOL     OW 6943   0.768   3.006   6.609
 2204SOL    HW1 6944   0.690   3.023   6.669
 2204SOL    HW2 6945   0.802   3.093   6.573
 2205SOL     OW 6946   0.850   2.660   7.409
 2205SOL    HW1 6947   0.846   2.736   7.474
 2205SOL    HW2 6948   0.872   2.696   7.318
 2206SOL     OW 6949   0.685   2.874   6.251
 2206SOL    HW1 6950   0.754   2.858   6.321
 2206SOL    HW2 6951   0.612   2.931   6.289
 2207SOL     OW 6952   0.686   3.023   7.389
 2207SOL    HW1 6953   0.746   3.102   7.403
 2207SOL    HW2 6954   0.600   3.054   7.348
 2208SOL     OW 6955   0.335   3.297   6.647
 2208SOL    HW1 6956   0.257   3.266   6.594
 2208SOL    HW2 6957   0.393   3.355   6.590
 2209SOL     OW 6958   1.460   3.367   6.925
 2209SOL    HW1 6959   1.484   3.461   6.951
 2209SOL    HW2 6960   1.444   3.313   7.007
 2210SOL     OW 6961   0.438   2.254   7.085
 2210SOL    HW1 6962   0.520   2.198   7.094
 2210SOL    HW2 6963   0.357   2.196   7.089
 2211SOL     OW 6964   1.603   2.309   6.323
 2211SOL    HW1 6965   1.529   2.355   6.273
 2211SOL    HW2 6966   1.654   2.377   6.376
 2212SOL     OW 6967   0.231   3.575   6.069
 2212SOL    HW1 6968   0.265   3.652   6.123
 2212SOL    HW2 6969   0.275   3.575   5.979
 2213SOL     OW 6970   1.127   3.203   7.276
 2213SOL    HW1 6971   1.174   3.203   7.364
 2213SOL    HW2 6972   1.079   3.116   7.265
 2214SOL     OW 6973   0.230   3.296   6.124
 2214SOL    HW1 6974   0.204   3.392   6.124
 2214SOL    HW2 6975   0.159   3.242   6.169
 2215SOL     OW 6976   0.240   2.953   6.472
 2215SOL    HW1 6977   0.254   2.869   6.524
 2215SOL    HW2 6978   0.185   3.017   6.527
 2216SOL     OW 6979   0.620   3.648   7.025
 2216SOL    HW1 6980   0.528   3.631   7.060
 2216SOL    HW2 6981   0.648   3.740   7.051
 2217SOL     OW 6982   0.606   2.826   5.709
 2217SOL    HW1 6983   0.613   2.910   5.655
 2217SOL    HW2 6984   0.652   2.839   5.797
 2218SOL     OW 6985   0.122   2.505   6.149
 2218SOL    HW1 6986   0.077   2.417   6.166
 2218SOL    HW2 6987   0.121   2.559   6.233
 2219SOL     OW 6988   1.842   3.629   5.945
 2219SOL    HW1 6989   1.896   3.600   6.025
 2219SOL    HW2 6990   1.872   3.719   5.916
 2220SOL     OW 6991   0.027   3.458   5.703
 2220SOL    HW1 6992   0.008   3.362   5.724
 2220SOL    HW2 6993  -0.006   3.516   5.778
 2221SOL     OW 6994   1.689   2.784   6.198
 2221SOL    HW1 6995   1.784   2.755   6.206
 2221SOL    HW2 6996   1.681   2.849   6.123
 2222SOL     OW 6997   1.641   2.970   6.018
 2222SOL    HW1 6998   1.727   2.972   5.966
 2222SOL    HW2 6999   1.655   3.017   6.106
 2223SOL     OW 7000   0.113   2.599   7.183
 2223SOL    HW1 7001   0.201   2.586   7.228
 2223SOL    HW2 7002   0.100   2.696   7.161
 2224SOL     OW 7003   0.613   3.227   6.312
 2224SOL    HW1 7004   0.564   3.140   6.321
 2224SOL    HW2 7005   0.590   3.270   6.225
 2225SOL     OW 7006   1.293   3.090   7.009
 2225SOL    HW1 7007   1.330   3.017   6.951
 2225SOL    HW2 7008   1.345   3.095   7.094
 2226SOL     OW 7009   0.809   1.866   6.088
 2226SOL    HW1 7010   0.849   1.957   6.079
 2226SOL    HW2 7011   0.709   1.874   6.094
 2227SOL     OW 7012   0.197   2.838   6.850
 2227SOL    HW1 7013   0.286   2.793   6.836
 2227SOL    HW2 7014   0.124   2.773   6.831
 2228SOL     OW 7015   1.525   2.861   5.776
 2228SOL    HW1 7016   1.462   2.785   5.789
 2228SOL    HW2 7017   1.573   2.879   5.862
 2229SOL     OW 7018   1.187   3.654   7.202
 2229SOL    HW1 7019   1.211   3.714   7.126
 2229SOL    HW2 7020   1.194   3.559   7.172
 2230SOL     OW 7021   0.317   2.113   7.387
 2230SOL    HW1 7022   0.388   2.184   7.393
 2230SOL    HW2 7023   0.229   2.152   7.415
 2231SOL     OW 7024   1.466   3.279   6.539
 2231SOL    HW1 7025   1.407   3.285   6.619
 2231SOL    HW2 7026   1.451   3.191   6.493
 2232SOL     OW 7027   1.667   3.576   6.158
 2232SOL    HW1 7028   1.626   3.553   6.070
 2232SOL    HW2 7029   1.649   3.502   6.223
 2233SOL     OW 7030   0.598   2.591   5.856
 2233SOL    HW1 7031   0.622   2.660   5.788
 2233SOL    HW2 7032   0.520   2.624   5.910
 2234SOL     OW 7033   1.281   2.207   6.530
 2234SOL    HW1 7034   1.195   2.157   6.517
 2234SOL    HW2 7035   1.343   2.153   6.586
 2235SOL     OW 7036   1.576   3.524   5.893
 2235SOL    HW1 7037   1.665   3.570   5.896
 2235SOL    HW2 7038   1.555   3.500   5.798
 2236SOL     OW 7039   0.807   2.467   7.051
 2236SOL    HW1 7040   0.760   2.464   7.140
 2236SOL    HW2 7041   0.756   2.412   6.985
 2237SOL     OW 7042   0.973   2.752   7.158
 2237SOL    HW1 7043   1.019   2.668   7.129
 2237SOL    HW2 7044   0.917   2.786   7.083
 2238SOL     OW 7045   0.991   2.272   6.828
 2238SOL    HW1 7046   0.914   2.306   6.882
 2238SOL    HW2 7047   0.957   2.221   6.749
 2239SOL     OW 7048   1.041   2.563   6.015
 2239SOL    HW1 7049   1.067   2.559   6.111
 2239SOL    HW2 7050   0.956   2.512   6.001
 2240SOL     OW 7051   0.076   2.673   6.375
 2240SOL    HW1 7052   0.175   2.661   6.384
 2240SOL    HW2 7053   0.052   2.768   6.396
 2241SOL     OW 7054   0.130   3.683   7.157
 2241SOL    HW1 7055   0.120   3.668   7.256
 2241SOL    HW2 7056   0.044   3.719   7.121
 2242SOL     OW 7057   0.865   2.210   5.781
 2242SOL    HW1 7058   0.924   2.273   5.732
 2242SOL    HW2 7059   0.884   2.116   5.752
 2243SOL     OW 7060   1.719   2.447   7.417
 2243SOL    HW1 7061   1.693   2.536   7.381
 2243SOL    HW2 7062   1.717   2.379   7.344
 2244SOL     OW 7063   1.362   3.006   6.131
 2244SOL    HW1 7064   1.445   2.977   6.083
 2244SOL    HW2 7065   1.313   3.073   6.075
 2245SOL     OW 7066   0.550   2.058   6.471
 2245SOL    HW1 7067   0.545   2.053   6.571
 2245SOL    HW2 7068   0.552   2.154   6.442
 2246SOL     OW 7069   1.008   3.318   6.063
 2246SOL    HW1 7070   0.962   3.390   6.011
 2246SOL    HW2 7071   1.004   3.338   6.161
 2247SOL     OW 7072   0.351   3.663   6.439
 2247SOL    HW1 7073   0.401   3.577   6.445
 2247SOL    HW2 7074   0.416   3.740   6.436
 2248SOL     OW 7075   1.795   2.928   6.459
 2248SOL    HW1 7076   1.733   2.913   6.383
 2248SOL    HW2 7077   1.743   2.939   6.544
 2249SOL     OW 7078   1.227   3.412   7.092
 2249SOL    HW1 7079   1.233   3.335   7.156
 2249SOL    HW2 7080   1.175   3.386   7.012
 2250SOL     OW 7081   0.321   2.805   5.828
 2250SOL    HW1 7082   0.403   2.844   5.786
 2250SOL    HW2 7083   0.294   2.723   5.779
 2251SOL     OW 7084   1.458   2.597   6.314
 2251SOL    HW1 7085   1.453   2.532   6.389
 2251SOL    HW2 7086   1.538   2.656   6.327
 2252SOL     OW 7087   0.461   3.128   7.313
 2252SOL    HW1 7088   0.411   3.129   7.227
 2252SOL    HW2 7089   0.398   3.110   7.389
 2253SOL     OW 7090   1.111   3.638   5.823
 2253SOL    HW1 7091   1.051   3.576   5.873
 2253SOL    HW2 7092   1.142   3.594   5.738
 2254SOL     OW 7093   0.202   2.147   7.084
 2254SOL    HW1 7094   0.122   2.207   7.071
 2254SOL    HW2 7095   0.192   2.098   7.170
 2255SOL     OW 7096   1.632   3.239   5.667
 2255SOL    HW1 7097   1.600   3.333   5.657
 2255SOL    HW2 7098   1.556   3.176   5.655
 2256SOL     OW 7099   0.464   3.605   5.909
 2256SOL    HW1 7100   0.497   3.644   5.995
 2256SOL    HW2 7101   0.540   3.598   5.844
 2257SOL     OW 7102   1.400   1.969   6.012
 2257SOL    HW1 7103   1.376   1.932   5.922
 2257SOL    HW2 7104   1.499   1.985   6.016
 2258SOL     OW 7105   0.249   3.647   6.827
 2258SOL    HW1 7106   0.306   3.582   6.877
 2258SOL    HW2 7107   0.233   3.614   6.734
 2259SOL     OW 7108   0.940   3.560   6.490
 2259SOL    HW1 7109   1.020   3.503   6.511
 2259SOL    HW2 7110   0.891   3.520   6.413
 2260SOL     OW 7111   0.382   2.562   6.066
 2260SOL    HW1 7112   0.427   2.472   6.063
 2260SOL    HW2 7113   0.288   2.551   6.099
 2261SOL     OW 7114   0.614   1.984   5.703
 2261SOL    HW1 7115   0.712   1.962   5.710
 2261SOL    HW2 7116   0.583   1.967   5.610
 2262SOL     OW 7117   0.781   2.126   7.335
 2262SOL    HW1 7118   0.848   2.065   7.378
 2262SOL    HW2 7119   0.708   2.145   7.400
 2263SOL     OW 7120   0.888   3.376   6.781
 2263SOL    HW1 7121   0.865   3.351   6.687
 2263SOL    HW2 7122   0.949   3.307   6.820
 2264SOL     OW 7123   0.803   3.264   6.510
 2264SOL    HW1 7124   0.893   3.278   6.468
 2264SOL    HW2 7125   0.732   3.266   6.439
 2265SOL     OW 7126   0.922   2.365   6.485
 2265SOL    HW1 7127   0.897   2.356   6.389
 2265SOL    HW2 7128   0.970   2.283   6.516
 2266SOL     OW 7129   0.539   1.926   6.098
 2266SOL    HW1 7130   0.458   1.927   6.156
 2266SOL    HW2 7131   0.542   2.009   6.043
 2267SOL     OW 7132   1.434   3.050   5.627
 2267SOL    HW1 7133   1.466   2.974   5.684
 2267SOL    HW2 7134   1.342   3.077   5.657
 2268SOL     OW 7135   0.297   1.897   5.757
 2268SOL    HW1 7136   0.346   1.981   5.736
 2268SOL    HW2 7137   0.359   1.832   5.802
 2269SOL     OW 7138   0.935   2.098   6.066
 2269SOL    HW1 7139   0.887   2.139   5.988
 2269SOL    HW2 7140   1.034   2.096   6.047
 2270SOL     OW 7141   1.076   2.545   7.050
 2270SOL    HW1 7142   0.996   2.484   7.053
 2270SOL    HW2 7143   1.157   2.492   7.026
 2271SOL     OW 7144   1.227   3.432   6.379
 2271SOL    HW1 7145   1.248   3.506   6.314
 2271SOL    HW2 7146   1.295   3.432   6.452
 2272SOL     OW 7147   0.459   3.014   6.327
 2272SOL    HW1 7148   0.388   2.987   6.392
 2272SOL    HW2 7149   0.433   2.986   6.234
 2273SOL     OW 7150   1.271   3.659   6.177
 2273SOL    HW1 7151   1.315   3.723   6.113
 2273SOL    HW2 7152   1.221   3.711   6.247
 2274SOL     OW 7153   1.032   2.411   5.602
 2274SOL    HW1 7154   0.991   2.493   5.563
 2274SOL    HW2 7155   1.096   2.437   5.675
 2275SOL     OW 7156   0.078   2.418   6.972
 2275SOL    HW1 7157   0.170   2.417   6.931
 2275SOL    HW2 7158   0.072   2.492   7.039
 2276SOL     OW 7159   0.561   2.084   6.733
 2276SOL    HW1 7160   0.599   2.000   6.770
 2276SOL    HW2 7161   0.473   2.103   6.777
 2277SOL     OW 7162   0.866   2.316   6.228
 2277SOL    HW1 7163   0.834   2.388   6.166
 2277SOL    HW2 7164   0.890   2.235   6.175
 2278SOL     OW 7165   1.017   1.901   6.339
 2278SOL    HW1 7166   0.945   1.906   6.270
 2278SOL    HW2 7167   0.993   1.832   6.408
 2279SOL     OW 7168   1.429   3.035   6.453
 2279SOL    HW1 7169   1.374   2.951   6.446
 2279SOL    HW2 7170   1.455   3.064   6.361
 2280SOL     OW 7171   1.466   2.452   6.578
 2280SOL    HW1 7172   1.436   2.357   6.585
 2280SOL    HW2 7173   1.539   2.468   6.644
 2281SOL     OW 7174   1.857   2.695   5.963
 2281SOL    HW1 7175   1.899   2.631   6.027
 2281SOL    HW2 7176   1.819   2.644   5.885
 2282SOL     OW 7177   0.488   3.247   5.760
 2282SOL    HW1 7178   0.401   3.232   5.807
 2282SOL    HW2 7179   0.471   3.273   5.665
 2283SOL     OW 7180   1.664   3.142   6.243
 2283SOL    HW1 7181   1.763   3.150   6.257
 2283SOL    HW2 7182   1.619   3.226   6.274
 2284SOL     OW 7183   1.390   2.437   5.664
 2284SOL    HW1 7184   1.336   2.416   5.745
 2284SOL    HW2 7185   1.481   2.396   5.673
 2285SOL     OW 7186   0.527   2.118   5.914
 2285SOL    HW1 7187   0.554   2.059   5.839
 2285SOL    HW2 7188   0.527   2.213   5.883
 2286SOL     OW 7189   1.754   3.085   7.174
 2286SOL    HW1 7190   1.845   3.046   7.161
 2286SOL    HW2 7191   1.762   3.181   7.198
 2287SOL     OW 7192   1.064   3.209   6.926
 2287SOL    HW1 7193   0.984   3.186   6.981
 2287SOL    HW2 7194   1.147   3.183   6.975
 2288SOL     OW 7195   1.592   3.491   7.211
 2288SOL    HW1 7196   1.619   3.525   7.121
 2288SOL    HW2 7197   1.671   3.453   7.257
 2289SOL     OW 7198   1.111   3.057   6.686
 2289SOL    HW1 7199   1.071   3.101   6.767
 2289SOL    HW2 7200   1.070   3.094   6.603
 2290SOL     OW 7201   1.638   2.961   6.665
 2290SOL    HW1 7202   1.643   3.042   6.724
 2290SOL    HW2 7203   1.552   2.963   6.614
 2291SOL     OW 7204   0.915   1.951   6.988
 2291SOL    HW1 7205   0.940   1.931   6.893
 2291SOL    HW2 7206   0.987   2.007   7.030
 2292SOL     OW 7207   0.980   2.978   7.305
 2292SOL    HW1 7208   0.881   2.984   7.315
 2292SOL    HW2 7209   1.003   2.898   7.249
 2293SOL     OW 7210   0.705   2.912   5.954
 2293SOL    HW1 7211   0.691   2.919   6.053
 2293SOL    HW2 7212   0.789   2.861   5.936
 2294SOL     OW 7213   0.410   2.675   6.837
 2294SOL    HW1 7214   0.496   2.687   6.887
 2294SOL    HW2 7215   0.368   2.588   6.864
 2295SOL     OW 7216   0.064   3.426   6.917
 2295SOL    HW1 7217   0.018   3.508   6.883
 2295SOL    HW2 7218   0.162   3.445   6.926
 2296SOL     OW 7219   0.367   2.962   6.087
 2296SOL    HW1 7220   0.360   3.045   6.031
 2296SOL    HW2 7221   0.371   2.882   6.027
 2297SOL     OW 7222   0.566   2.399   6.451
 2297SOL    HW1 7223   0.578   2.465   6.377
 2297SOL    HW2 7224   0.612   2.433   6.534
 2298SOL     OW 7225   1.252   3.210   5.974
 2298SOL    HW1 7226   1.302   3.287   6.014
 2298SOL    HW2 7227   1.157   3.212   6.006
 2299SOL     OW 7228   1.272   3.307   6.728
 2299SOL    HW1 7229   1.319   3.320   6.815
 2299SOL    HW2 7230   1.206   3.233   6.737
 2300SOL     OW 7231   1.582   2.501   6.058
 2300SOL    HW1 7232   1.551   2.562   6.131
 2300SOL    HW2 7233   1.632   2.553   5.989
 2301SOL     OW 7234   0.354   3.372   6.915
 2301SOL    HW1 7235   0.333   3.328   6.828
 2301SOL    HW2 7236   0.451   3.398   6.918
 2302SOL     OW 7237   0.402   2.613   7.184
 2302SOL    HW1 7238   0.470   2.668   7.137
 2302SOL    HW2 7239   0.442   2.525   7.211
 2303SOL     OW 7240   1.587   2.641   7.256
 2303SOL    HW1 7241   1.495   2.679   7.251
 2303SOL    HW2 7242   1.647   2.688   7.191
 2304SOL     OW 7243   1.013   1.967   7.356
 2304SOL    HW1 7244   1.019   2.052   7.304
 2304SOL    HW2 7245   1.045   1.891   7.299
 2305SOL     OW 7246   0.504   1.912   7.326
 2305SOL    HW1 7247   0.462   1.855   7.256
 2305SOL    HW2 7248   0.438   1.981   7.358
 2306SOL     OW 7249   0.573   2.732   6.615
 2306SOL    HW1 7250   0.617   2.821   6.606
 2306SOL    HW2 7251   0.510   2.732   6.692
 2307SOL     OW 7252   1.360   2.724   6.631
 2307SOL    HW1 7253   1.285   2.724   6.565
 2307SOL    HW2 7254   1.397   2.632   6.640
 2308SOL     OW 7255   1.209   2.387   5.861
 2308SOL    HW1 7256   1.222   2.303   5.915
 2308SOL    HW2 7257   1.180   2.461   5.921
 2309SOL     OW 7258   0.307   2.075   6.817
 2309SOL    HW1 7259   0.284   2.112   6.907
 2309SOL    HW2 7260   0.277   1.980   6.811
 2310SOL     OW 7261   0.037   3.172   6.868
 2310SOL    HW1 7262   0.090   3.123   6.936
 2310SOL    HW2 7263   0.059   3.270   6.873
 2311SOL     OW 7264   0.732   2.496   6.650
 2311SOL    HW1 7265   0.791   2.470   6.574
 2311SOL    HW2 7266   0.704   2.592   6.639
 2312SOL     OW 7267   1.728   2.797   7.440
 2312SOL    HW1 7268   1.682   2.790   7.351
 2312SOL    HW2 7269   1.666   2.841   7.506
 2313SOL     OW 7270   0.307   1.925   6.204
 2313SOL    HW1 7271   0.296   2.019   6.237
 2313SOL    HW2 7272   0.302   1.862   6.281
 2314SOL     OW 7273   1.622   2.229   5.960
 2314SOL    HW1 7274   1.624   2.153   6.024
 2314SOL    HW2 7275   1.574   2.306   6.000
 2315SOL     OW 7276   1.023   2.628   6.552
 2315SOL    HW1 7277   1.038   2.649   6.648
 2315SOL    HW2 7278   0.993   2.533   6.543
 2316SOL     OW 7279   0.980   3.435   7.286
 2316SOL    HW1 7280   0.960   3.479   7.198
 2316SOL    HW2 7281   1.019   3.344   7.270
 2317SOL     OW 7282   1.859   3.380   7.191
 2317SOL    HW1 7283   1.873   3.407   7.096
 2317SOL    HW2 7284   1.942   3.402   7.244
 2318SOL     OW 7285   0.350   2.760   7.390
 2318SOL    HW1 7286   0.426   2.804   7.438
 2318SOL    HW2 7287   0.385   2.713   7.308
 2319SOL     OW 7288   1.540   2.136   5.711
 2319SOL    HW1 7289   1.479   2.061   5.734
 2319SOL    HW2 7290   1.562   2.188   5.794
 2320SOL     OW 7291   1.303   2.700   5.628
 2320SOL    HW1 7292   1.337   2.607   5.643
 2320SOL    HW2 7293   1.321   2.727   5.533
 2321SOL     OW 7294   1.068   3.195   6.435
 2321SOL    HW1 7295   1.075   3.111   6.380
 2321SOL    HW2 7296   1.130   3.264   6.399
 2322SOL     OW 7297   0.319   2.672   6.535
 2322SOL    HW1 7298   0.412   2.708   6.540
 2322SOL    HW2 7299   0.313   2.587   6.587
 2323SOL     OW 7300   0.339   2.371   6.592
 2323SOL    HW1 7301   0.287   2.288   6.575
 2323SOL    HW2 7302   0.416   2.376   6.528
 2324SOL     OW 7303   1.138   2.242   7.264
 2324SOL    HW1 7304   1.093   2.305   7.328
 2324SOL    HW2 7305   1.231   2.273   7.247
 2325SOL     OW 7306   1.160   2.069   7.063
 2325SOL    HW1 7307   1.160   2.133   7.140
 2325SOL    HW2 7308   1.188   2.117   6.980
 2326SOL     OW 7309   0.008   3.188   5.786
 2326SOL    HW1 7310  -0.085   3.209   5.755
 2326SOL    HW2 7311   0.018   3.089   5.799
 2327SOL     OW 7312   0.088   3.663   6.513
 2327SOL    HW1 7313   0.046   3.577   6.486
 2327SOL    HW2 7314   0.182   3.666   6.479
 2328SOL     OW 7315   0.504   3.430   6.496
 2328SOL    HW1 7316   0.570   3.504   6.505
 2328SOL    HW2 7317   0.548   3.351   6.454
 2329SOL     OW 7318   1.002   2.658   6.824
 2329SOL    HW1 7319   1.043   2.626   6.910
 2329SOL    HW2 7320   0.906   2.631   6.821
 2330SOL     OW 7321   0.040   2.406   6.700
 2330SOL    HW1 7322   0.125   2.373   6.659
 2330SOL    HW2 7323   0.053   2.421   6.798
 2331SOL     OW 7324   0.189   2.382   7.308
 2331SOL    HW1 7325   0.248   2.342   7.238
 2331SOL    HW2 7326   0.131   2.453   7.267
 2332SOL     OW 7327   1.369   2.812   7.246
 2332SOL    HW1 7328   1.408   2.901   7.266
 2332SOL    HW2 7329   1.379   2.792   7.149
 2333SOL     OW 7330   0.815   2.434   5.911
 2333SOL    HW1 7331   0.822   2.345   5.865
 2333SOL    HW2 7332   0.721   2.468   5.903
 2334SOL     OW 7333   0.252   3.426   7.330
 2334SOL    HW1 7334   0.222   3.483   7.406
 2334SOL    HW2 7335   0.245   3.329   7.356
 2335SOL     OW 7336   0.671   2.326   6.855
 2335SOL    HW1 7337   0.637   2.237   6.825
 2335SOL    HW2 7338   0.697   2.380   6.775
 2336SOL     OW 7339   0.930   3.540   7.051
 2336SOL    HW1 7340   0.906   3.522   6.956
 2336SOL    HW2 7341   0.960   3.634   7.061
 2337SOL     OW 7342   0.473   2.362   5.777
 2337SOL    HW1 7343   0.534   2.442   5.781
 2337SOL    HW2 7344   0.378   2.393   5.784
 2338SOL     OW 7345   0.159   2.999   7.052
 2338SOL    HW1 7346   0.181   2.938   7.128
 2338SOL    HW2 7347   0.169   2.950   6.966
 2339SOL     OW 7348   1.347   2.921   6.820
 2339SOL    HW1 7349   1.371   2.858   6.746
 2339SOL    HW2 7350   1.257   2.961   6.802
 2340SOL     OW 7351   1.302   2.717   5.895
 2340SOL    HW1 7352   1.216   2.686   5.937
 2340SOL    HW2 7353   1.298   2.703   5.796
 2341SOL     OW 7354   1.759   3.609   6.740
 2341SOL    HW1 7355   1.820   3.639   6.667
 2341SOL    HW2 7356   1.721   3.520   6.718
 2342SOL     OW 7357   1.252   3.593   6.714
 2342SOL    HW1 7358   1.336   3.598   6.660
 2342SOL    HW2 7359   1.229   3.497   6.732
 2343SOL     OW 7360   0.083   3.120   6.608
 2343SOL    HW1 7361   0.078   3.119   6.708
 2343SOL    HW2 7362   0.000   3.079   6.570
 2344SOL     OW 7363   0.688   3.524   7.302
 2344SOL    HW1 7364   0.632   3.605   7.311
 2344SOL    HW2 7365   0.740   3.528   7.216
 2345SOL     OW 7366   1.726   1.997   6.109
 2345SOL    HW1 7367   1.799   1.980   6.042
 2345SOL    HW2 7368   1.695   1.910   6.147
 2346SOL     OW 7369   1.388   3.435   6.063
 2346SOL    HW1 7370   1.455   3.447   5.989
 2346SOL    HW2 7371   1.348   3.524   6.086
 2347SOL     OW 7372   0.130   3.656   7.437
 2347SOL    HW1 7373   0.089   3.582   7.490
 2347SOL    HW2 7374   0.194   3.707   7.495
 2348SOL     OW 7375   1.280   2.789   6.258
 2348SOL    HW1 7376   1.340   2.708   6.260
 2348SOL    HW2 7377   1.320   2.858   6.198
 2349SOL     OW 7378   0.830   3.135   7.008
 2349SOL    HW1 7379   0.825   3.168   7.103
 2349SOL    HW2 7380   0.744   3.154   6.962
 2350SOL     OW 7381   0.672   3.478   5.740
 2350SOL    HW1 7382   0.681   3.488   5.641
 2350SOL    HW2 7383   0.632   3.389   5.761
 2351SOL     OW 7384   1.650   3.582   6.980
 2351SOL    HW1 7385   1.703   3.592   6.896
 2351SOL    HW2 7386   1.623   3.672   7.014
 2352SOL     OW 7387   0.263   2.188   6.306
 2352SOL    HW1 7388   0.184   2.239   6.272
 2352SOL    HW2 7389   0.254   2.173   6.404
 2353SOL     OW 7390   1.194   3.474   5.617
 2353SOL    HW1 7391   1.200   3.381   5.654
 2353SOL    HW2 7392   1.135   3.474   5.537
 2354SOL     OW 7393   0.822   2.864   6.958
 2354SOL    HW1 7394   0.862   2.863   6.866
 2354SOL    HW2 7395   0.832   2.956   6.998
 2355SOL     OW 7396   0.916   2.772   5.877
 2355SOL    HW1 7397   0.979   2.810   5.809
 2355SOL    HW2 7398   0.956   2.689   5.916
 2356SOL     OW 7399   1.504   3.469   5.630
 2356SOL    HW1 7400   1.412   3.506   5.637
 2356SOL    HW2 7401   1.542   3.489   5.540
 2357SOL     OW 7402   0.372   3.150   7.076
 2357SOL    HW1 7403   0.359   3.243   7.042
 2357SOL    HW2 7404   0.288   3.098   7.063
 2358SOL     OW 7405   1.614   3.154   6.875
 2358SOL    HW1 7406   1.674   3.157   6.955
 2358SOL    HW2 7407   1.539   3.218   6.888
 2359SOL     OW 7408   1.039   2.960   6.282
 2359SOL    HW1 7409   0.969   2.913   6.336
 2359SOL    HW2 7410   1.098   2.892   6.239
 2360SOL     OW 7411   1.014   2.098   6.557
 2360SOL    HW1 7412   1.006   2.062   6.464
 2360SOL    HW2 7413   1.012   2.022   6.622
 2361SOL     OW 7414   0.590   3.349   6.077
 2361SOL    HW1 7415   0.632   3.291   6.007
 2361SOL    HW2 7416   0.546   3.428   6.033
 2362SOL     OW 7417   0.255   3.210   5.876
 2362SOL    HW1 7418   0.159   3.211   5.849
 2362SOL    HW2 7419   0.267   3.263   5.960
 2363SOL     OW 7420   0.105   2.875   7.312
 2363SOL    HW1 7421   0.028   2.842   7.366
 2363SOL    HW2 7422   0.190   2.845   7.354
 2364SOL     OW 7423   0.672   2.065   7.075
 2364SOL    HW1 7424   0.762   2.049   7.035
 2364SOL    HW2 7425   0.680   2.070   7.174
 2365SOL     OW 7426   0.075   2.207   5.619
 2365SOL    HW1 7427  -0.017   2.179   5.590
 2365SOL    HW2 7428   0.106   2.284   5.563
 2366SOL     OW 7429   1.440   2.718   6.984
 2366SOL    HW1 7430   1.383   2.770   6.921
 2366SOL    HW2 7431   1.536   2.730   6.960
 2367SOL     OW 7432   0.072   2.028   5.904
 2367SOL    HW1 7433   0.055   2.111   5.850
 2367SOL    HW2 7434   0.162   1.991   5.882
 2368SOL     OW 7435   1.183   3.197   5.705
 2368SOL    HW1 7436   1.084   3.186   5.707
 2368SOL    HW2 7437   1.217   3.212   5.798
 2369SOL     OW 7438   0.613   2.704   7.017
 2369SOL    HW1 7439   0.669   2.785   7.000
 2369SOL    HW2 7440   0.672   2.624   7.020
 2370SOL     OW 7441   1.493   3.629   6.545
 2370SOL    HW1 7442   1.526   3.693   6.476
 2370SOL    HW2 7443   1.559   3.623   6.620
 2371SOL     OW 7444   0.716   2.427   7.294
 2371SOL    HW1 7445   0.735   2.492   7.368
 2371SOL    HW2 7446   0.776   2.347   7.303
 2372SOL     OW 7447   1.450   3.082   7.219
 2372SOL    HW1 7448   1.441   3.072   7.318
 2372SOL    HW2 7449   1.546   3.075   7.193
 2373SOL     OW 7450   0.390   3.603   7.146
 2373SOL    HW1 7451   0.299   3.644   7.144
 2373SOL    HW2 7452   0.383   3.509   7.178
 2374SOL     OW 7453   1.674   2.745   6.840
 2374SOL    HW1 7454   1.647   2.656   6.803
 2374SOL    HW2 7455   1.675   2.813   6.767
 2375SOL     OW 7456   1.225   2.187   6.035
 2375SOL    HW1 7457   1.290   2.113   6.024
 2375SOL    HW2 7458   1.245   2.237   6.119
 2376SOL     OW 7459   0.594   2.607   6.238
 2376SOL    HW1 7460   0.644   2.692   6.219
 2376SOL    HW2 7461   0.506   2.609   6.190
 2377SOL     OW 7462   1.730   2.796   7.103
 2377SOL    HW1 7463   1.768   2.887   7.118
 2377SOL    HW2 7464   1.722   2.779   7.004
 2378SOL     OW 7465   0.859   3.236   5.602
 2378SOL    HW1 7466   0.813   3.251   5.690
 2378SOL    HW2 7467   0.903   3.321   5.572
 2379SOL     OW 7468   0.661   3.652   6.539
 2379SOL    HW1 7469   0.615   3.740   6.526
 2379SOL    HW2 7470   0.760   3.664   6.532
 2380SOL     OW 7471   0.859   2.818   6.447
 2380SOL    HW1 7472   0.913   2.749   6.495
 2380SOL    HW2 7473   0.827   2.887   6.513
 2381SOL     OW 7474   1.083   2.846   5.673
 2381SOL    HW1 7475   1.060   2.899   5.591
 2381SOL    HW2 7476   1.164   2.790   5.654
 2382SOL     OW 7477   1.861   3.431   6.437
 2382SOL    HW1 7478   1.790   3.419   6.367
 2382SOL    HW2 7479   1.862   3.352   6.497
 2383SOL     OW 7480   0.221   3.176   7.430
 2383SOL    HW1 7481   0.156   3.103   7.409
 2383SOL    HW2 7482   0.225   3.190   7.528
 2384SOL     OW 7483   0.079   3.102   6.239
 2384SOL    HW1 7484   0.078   3.055   6.327
 2384SOL    HW2 7485   0.161   3.074   6.188
 2385SOL     OW 7486   0.672   3.253   7.210
 2385SOL    HW1 7487   0.594   3.203   7.248
 2385SOL    HW2 7488   0.669   3.348   7.241
 2386SOL     OW 7489   0.428   2.286   6.106
 2386SOL    HW1 7490   0.458   2.214   6.044
 2386SOL    HW2 7491   0.389   2.246   6.189
 2387SOL     OW 7492   1.705   3.349   6.690
 2387SOL    HW1 7493   1.612   3.324   6.663
 2387SOL    HW2 7494   1.731   3.299   6.772
 2388SOL     OW 7495   0.317   2.409   6.866
 2388SOL    HW1 7496   0.355   2.350   6.938
 2388SOL    HW2 7497   0.357   2.383   6.778
 2389SOL     OW 7498   0.812   3.448   6.273
 2389SOL    HW1 7499   0.844   3.458   6.179
 2389SOL    HW2 7500   0.733   3.386   6.275
 2390SOL     OW 7501   1.001   1.896   6.740
 2390SOL    HW1 7502   0.938   1.824   6.709
 2390SOL    HW2 7503   1.094   1.860   6.740
 2391SOL     OW 7504   0.770   3.192   5.887
 2391SOL    HW1 7505   0.724   3.105   5.904
 2391SOL    HW2 7506   0.861   3.189   5.928
 2392SOL     OW 7507   0.618   3.429   6.870
 2392SOL    HW1 7508   0.613   3.511   6.927
 2392SOL    HW2 7509   0.707   3.426   6.825
 2393SOL     OW 7510   1.352   1.914   5.754
 2393SOL    HW1 7511   1.387   1.873   5.670
 2393SOL    HW2 7512   1.262   1.876   5.774
 2394SOL     OW 7513   1.300   2.315   6.277
 2394SOL    HW1 7514   1.241   2.395   6.281
 2394SOL    HW2 7515   1.315   2.280   6.370
 2395SOL     OW 7516   1.593   2.083   6.468
 2395SOL    HW1 7517   1.509   2.082   6.522
 2395SOL    HW2 7518   1.595   2.166   6.412
 2396SOL     OW 7519   0.039   2.939   5.886
 2396SOL    HW1 7520   0.138   2.928   5.877
 2396SOL    HW2 7521  -0.001   2.853   5.918
 2397SOL     OW 7522   0.875   3.508   5.923
 2397SOL    HW1 7523   0.798   3.473   5.869
 2397SOL    HW2 7524   0.843   3.579   5.985
 2398SOL     OW 7525   0.230   2.490   7.561
 2398SOL    HW1 7526   0.137   2.488   7.598
 2398SOL    HW2 7527   0.231   2.451   7.469
 2399SOL     OW 7528   0.225   2.137   8.444
 2399SOL    HW1 7529   0.260   2.120   8.536
 2399SOL    HW2 7530   0.137   2.092   8.432
 2400SOL     OW 7531   0.019   2.230   8.095
 2400SOL    HW1 7532  -0.063   2.273   8.134
 2400SOL    HW2 7533  -0.009   2.157   8.032
 2401SOL     OW 7534   0.569   3.137   8.613
 2401SOL    HW1 7535   0.476   3.130   8.576
 2401SOL    HW2 7536   0.580   3.226   8.657
 2402SOL     OW 7537   1.555   3.373   8.151
 2402SOL    HW1 7538   1.498   3.357   8.232
 2402SOL    HW2 7539   1.496   3.383   8.071
 2403SOL     OW 7540   1.135   2.565   8.165
 2403SOL    HW1 7541   1.192   2.643   8.140
 2403SOL    HW2 7542   1.075   2.591   8.241
 2404SOL     OW 7543   1.755   2.469   7.679
 2404SOL    HW1 7544   1.743   2.456   7.580
 2404SOL    HW2 7545   1.725   2.388   7.728
 2405SOL     OW 7546   0.768   3.006   8.471
 2405SOL    HW1 7547   0.690   3.023   8.531
 2405SOL    HW2 7548   0.802   3.093   8.435
 2406SOL     OW 7549   0.850   2.660   9.271
 2406SOL    HW1 7550   0.846   2.736   9.336
 2406SOL    HW2 7551   0.872   2.696   9.180
 2407SOL     OW 7552   0.685   2.874   8.113
 2407SOL    HW1 7553   0.754   2.858   8.183
 2407SOL    HW2 7554   0.612   2.931   8.151
 2408SOL     OW 7555   0.686   3.023   9.251
 2408SOL    HW1 7556   0.746   3.102   9.265
 2408SOL    HW2 7557   0.600   3.054   9.210
 2409SOL     OW 7558   0.335   3.297   8.509
 2409SOL    HW1 7559   0.257   3.266   8.456
 2409SOL    HW2 7560   0.393   3.355   8.452
 2410SOL     OW 7561   1.460   3.367   8.787
 2410SOL    HW1 7562   1.484   3.461   8.813
 2410SOL    HW2 7563   1.444   3.313   8.869
 2411SOL     OW 7564   0.438   2.254   8.947
 2411SOL    HW1 7565   0.520   2.198   8.956
 2411SOL    HW2 7566   0.357   2.196   8.951
 2412SOL     OW 7567   1.603   2.309   8.185
 2412SOL    HW1 7568   1.529   2.355   8.135
 2412SOL    HW2 7569   1.654   2.377   8.238
 2413SOL     OW 7570   0.231   3.575   7.931
 2413SOL    HW1 7571   0.265   3.652   7.985
 2413SOL    HW2 7572   0.275   3.575   7.841
 2414SOL     OW 7573   1.127   3.203   9.138
 2414SOL    HW1 7574   1.174   3.203   9.226
 2414SOL    HW2 7575   1.079   3.116   9.127
 2415SOL     OW 7576   0.230   3.296   7.986
 2415SOL    HW1 7577   0.204   3.392   7.986
 2415SOL    HW2 7578   0.159   3.242   8.031
 2416SOL     OW 7579   0.240   2.953   8.334
 2416SOL    HW1 7580   0.254   2.869   8.386
 2416SOL    HW2 7581   0.185   3.017   8.389
 2417SOL     OW 7582   0.620   3.648   8.887
 2417SOL    HW1 7583   0.528   3.631   8.922
 2417SOL    HW2 7584   0.648   3.740   8.913
 2418SOL     OW 7585   0.606   2.826   7.571
 2418SOL    HW1 7586   0.613   2.910   7.517
 2418SOL    HW2 7587   0.652   2.839   7.659
 2419SOL     OW 7588   1.594   1.976   8.928
 2419SOL    HW1 7589   1.576   2.043   8.856
 2419SOL    HW2 7590   1.591   2.022   9.017
 2420SOL     OW 7591   0.122   2.505   8.011
 2420SOL    HW1 7592   0.077   2.417   8.028
 2420SOL    HW2 7593   0.121   2.559   8.095
 2421SOL     OW 7594   1.842   3.629   7.807
 2421SOL    HW1 7595   1.896   3.600   7.887
 2421SOL    HW2 7596   1.872   3.719   7.778
 2422SOL     OW 7597   0.027   3.458   7.565
 2422SOL    HW1 7598   0.008   3.362   7.586
 2422SOL    HW2 7599  -0.006   3.516   7.640
 2423SOL     OW 7600   1.689   2.784   8.060
 2423SOL    HW1 7601   1.784   2.755   8.068
 2423SOL    HW2 7602   1.681   2.849   7.985
 2424SOL     OW 7603   1.641   2.970   7.880
 2424SOL    HW1 7604   1.727   2.972   7.828
 2424SOL    HW2 7605   1.655   3.017   7.968
 2425SOL     OW 7606   0.113   2.599   9.045
 2425SOL    HW1 7607   0.201   2.586   9.090
 2425SOL    HW2 7608   0.100   2.696   9.023
 2426SOL     OW 7609   0.613   3.227   8.174
 2426SOL    HW1 7610   0.564   3.140   8.183
 2426SOL    HW2 7611   0.590   3.270   8.087
 2427SOL     OW 7612   1.293   3.090   8.871
 2427SOL    HW1 7613   1.330   3.017   8.813
 2427SOL    HW2 7614   1.345   3.095   8.956
 2428SOL     OW 7615   0.809   1.866   7.950
 2428SOL    HW1 7616   0.849   1.957   7.941
 2428SOL    HW2 7617   0.709   1.874   7.956
 2429SOL     OW 7618   0.197   2.838   8.712
 2429SOL    HW1 7619   0.286   2.793   8.698
 2429SOL    HW2 7620   0.124   2.773   8.693
 2430SOL     OW 7621   1.525   2.861   7.638
 2430SOL    HW1 7622   1.462   2.785   7.651
 2430SOL    HW2 7623   1.573   2.879   7.724
 2431SOL     OW 7624   1.187   3.654   9.064
 2431SOL    HW1 7625   1.211   3.714   8.988
 2431SOL    HW2 7626   1.194   3.559   9.034
 2432SOL     OW 7627   0.317   2.113   9.249
 2432SOL    HW1 7628   0.388   2.184   9.255
 2432SOL    HW2 7629   0.229   2.152   9.277
 2433SOL     OW 7630   1.466   3.279   8.401
 2433SOL    HW1 7631   1.407   3.285   8.481
 2433SOL    HW2 7632   1.451   3.191   8.355
 2434SOL     OW 7633   1.667   3.576   8.020
 2434SOL    HW1 7634   1.626   3.553   7.932
 2434SOL    HW2 7635   1.649   3.502   8.085
 2435SOL     OW 7636   0.598   2.591   7.718
 2435SOL    HW1 7637   0.622   2.660   7.650
 2435SOL    HW2 7638   0.520   2.624   7.772
 2436SOL     OW 7639   1.281   2.207   8.392
 2436SOL    HW1 7640   1.195   2.157   8.379
 2436SOL    HW2 7641   1.343   2.153   8.448
 2437SOL     OW 7642   1.576   3.524   7.755
 2437SOL    HW1 7643   1.665   3.570   7.758
 2437SOL    HW2 7644   1.555   3.500   7.660
 2438SOL     OW 7645   0.807   2.467   8.913
 2438SOL    HW1 7646   0.760   2.464   9.002
 2438SOL    HW2 7647   0.756   2.412   8.847
 2439SOL     OW 7648   1.394   2.331   9.122
 2439SOL    HW1 7649   1.374   2.374   9.210
 2439SOL    HW2 7650   1.472   2.269   9.131
 2440SOL     OW 7651   0.973   2.752   9.020
 2440SOL    HW1 7652   1.019   2.668   8.991
 2440SOL    HW2 7653   0.917   2.786   8.945
 2441SOL     OW 7654   0.991   2.272   8.690
 2441SOL    HW1 7655   0.914   2.306   8.744
 2441SOL    HW2 7656   0.957   2.221   8.611
 2442SOL     OW 7657   1.041   2.563   7.877
 2442SOL    HW1 7658   1.067   2.559   7.973
 2442SOL    HW2 7659   0.956   2.512   7.863
 2443SOL     OW 7660   0.076   2.673   8.237
 2443SOL    HW1 7661   0.175   2.661   8.246
 2443SOL    HW2 7662   0.052   2.768   8.258
 2444SOL     OW 7663   0.130   3.683   9.019
 2444SOL    HW1 7664   0.120   3.668   9.118
 2444SOL    HW2 7665   0.044   3.719   8.983
 2445SOL     OW 7666   0.865   2.210   7.643
 2445SOL    HW1 7667   0.924   2.273   7.594
 2445SOL    HW2 7668   0.884   2.116   7.614
 2446SOL     OW 7669   1.719   2.447   9.279
 2446SOL    HW1 7670   1.693   2.536   9.243
 2446SOL    HW2 7671   1.717   2.379   9.206
 2447SOL     OW 7672   1.362   3.006   7.993
 2447SOL    HW1 7673   1.445   2.977   7.945
 2447SOL    HW2 7674   1.313   3.073   7.937
 2448SOL     OW 7675   0.550   2.058   8.333
 2448SOL    HW1 7676   0.545   2.053   8.433
 2448SOL    HW2 7677   0.552   2.154   8.304
 2449SOL     OW 7678   1.008   3.318   7.925
 2449SOL    HW1 7679   0.962   3.390   7.873
 2449SOL    HW2 7680   1.004   3.338   8.023
 2450SOL     OW 7681   0.351   3.663   8.301
 2450SOL    HW1 7682   0.401   3.577   8.307
 2450SOL    HW2 7683   0.416   3.740   8.298
 2451SOL     OW 7684   1.795   2.928   8.321
 2451SOL    HW1 7685   1.733   2.913   8.245
 2451SOL    HW2 7686   1.743   2.939   8.406
 2452SOL     OW 7687   1.227   3.412   8.954
 2452SOL    HW1 7688   1.233   3.335   9.018
 2452SOL    HW2 7689   1.175   3.386   8.874
 2453SOL     OW 7690   0.321   2.805   7.690
 2453SOL    HW1 7691   0.403   2.844   7.648
 2453SOL    HW2 7692   0.294   2.723   7.641
 2454SOL     OW 7693   1.458   2.597   8.176
 2454SOL    HW1 7694   1.453   2.532   8.251
 2454SOL    HW2 7695   1.538   2.656   8.189
 2455SOL     OW 7696   0.461   3.128   9.175
 2455SOL    HW1 7697   0.411   3.129   9.089
 2455SOL    HW2 7698   0.398   3.110   9.251
 2456SOL     OW 7699   1.111   3.638   7.685
 2456SOL    HW1 7700   1.051   3.576   7.735
 2456SOL    HW2 7701   1.142   3.594   7.600
 2457SOL     OW 7702   0.202   2.147   8.946
 2457SOL    HW1 7703   0.122   2.207   8.933
 2457SOL    HW2 7704   0.192   2.098   9.032
 2458SOL     OW 7705   1.632   3.239   7.529
 2458SOL    HW1 7706   1.600   3.333   7.519
 2458SOL    HW2 7707   1.556   3.176   7.517
 2459SOL     OW 7708   0.464   3.605   7.771
 2459SOL    HW1 7709   0.497   3.644   7.857
 2459SOL    HW2 7710   0.540   3.598   7.706
 2460SOL     OW 7711   1.400   1.969   7.874
 2460SOL    HW1 7712   1.376   1.932   7.784
 2460SOL    HW2 7713   1.499   1.985   7.878
 2461SOL     OW 7714   0.249   3.647   8.689
 2461SOL    HW1 7715   0.306   3.582   8.739
 2461SOL    HW2 7716   0.233   3.614   8.596
 2462SOL     OW 7717   0.940   3.560   8.352
 2462SOL    HW1 7718   1.020   3.503   8.373
 2462SOL    HW2 7719   0.891   3.520   8.275
 2463SOL     OW 7720   0.382   2.562   7.928
 2463SOL    HW1 7721   0.427   2.472   7.925
 2463SOL    HW2 7722   0.288   2.551   7.961
 2464SOL     OW 7723   1.547   2.084   9.177
 2464SOL    HW1 7724   1.542   2.121   9.269
 2464SOL    HW2 7725   1.475   2.015   9.165
 2465SOL     OW 7726   0.614   1.984   7.565
 2465SOL    HW1 7727   0.712   1.962   7.572
 2465SOL    HW2 7728   0.583   1.967   7.472
 2466SOL     OW 7729   0.781   2.126   9.197
 2466SOL    HW1 7730   0.848   2.065   9.240
 2466SOL    HW2 7731   0.708   2.145   9.262
 2467SOL     OW 7732   0.888   3.376   8.643
 2467SOL    HW1 7733   0.865   3.351   8.549
 2467SOL    HW2 7734   0.949   3.307   8.682
 2468SOL     OW 7735   1.351   2.452   8.881
 2468SOL    HW1 7736   1.379   2.409   8.966
 2468SOL    HW2 7737   1.376   2.548   8.882
 2469SOL     OW 7738   0.803   3.264   8.372
 2469SOL    HW1 7739   0.893   3.278   8.330
 2469SOL    HW2 7740   0.732   3.266   8.301
 2470SOL     OW 7741   0.922   2.365   8.347
 2470SOL    HW1 7742   0.897   2.356   8.251
 2470SOL    HW2 7743   0.970   2.283   8.378
 2471SOL     OW 7744   0.539   1.926   7.960
 2471SOL    HW1 7745   0.458   1.927   8.018
 2471SOL    HW2 7746   0.542   2.009   7.905
 2472SOL     OW 7747   1.434   3.050   7.489
 2472SOL    HW1 7748   1.466   2.974   7.546
 2472SOL    HW2 7749   1.342   3.077   7.519
 2473SOL     OW 7750   0.297   1.897   7.619
 2473SOL    HW1 7751   0.346   1.981   7.598
 2473SOL    HW2 7752   0.359   1.832   7.664
 2474SOL     OW 7753   0.935   2.098   7.928
 2474SOL    HW1 7754   0.887   2.139   7.850
 2474SOL    HW2 7755   1.034   2.096   7.909
 2475SOL     OW 7756   1.076   2.545   8.912
 2475SOL    HW1 7757   0.996   2.484   8.915
 2475SOL    HW2 7758   1.157   2.492   8.888
 2476SOL     OW 7759   1.227   3.432   8.241
 2476SOL    HW1 7760   1.248   3.506   8.176
 2476SOL    HW2 7761   1.295   3.432   8.314
 2477SOL     OW 7762   0.459   3.014   8.189
 2477SOL    HW1 7763   0.388   2.987   8.254
 2477SOL    HW2 7764   0.433   2.986   8.096
 2478SOL     OW 7765   1.271   3.659   8.039
 2478SOL    HW1 7766   1.315   3.723   7.975
 2478SOL    HW2 7767   1.221   3.711   8.109
 2479SOL     OW 7768   1.032   2.411   7.464
 2479SOL    HW1 7769   0.991   2.493   7.425
 2479SOL    HW2 7770   1.096   2.437   7.537
 2480SOL     OW 7771   0.078   2.418   8.834
 2480SOL    HW1 7772   0.170   2.417   8.793
 2480SOL    HW2 7773   0.072   2.492   8.901
 2481SOL     OW 7774   0.561   2.084   8.595
 2481SOL    HW1 7775   0.599   2.000   8.632
 2481SOL    HW2 7776   0.473   2.103   8.639
 2482SOL     OW 7777   0.866   2.316   8.090
 2482SOL    HW1 7778   0.834   2.388   8.028
 2482SOL    HW2 7779   0.890   2.235   8.037
 2483SOL     OW 7780   1.017   1.901   8.201
 2483SOL    HW1 7781   0.945   1.906   8.132
 2483SOL    HW2 7782   0.993   1.832   8.270
 2484SOL     OW 7783   1.429   3.035   8.315
 2484SOL    HW1 7784   1.374   2.951   8.308
 2484SOL    HW2 7785   1.455   3.064   8.223
 2485SOL     OW 7786   1.466   2.452   8.440
 2485SOL    HW1 7787   1.436   2.357   8.447
 2485SOL    HW2 7788   1.539   2.468   8.506
 2486SOL     OW 7789   1.857   2.695   7.825
 2486SOL    HW1 7790   1.899   2.631   7.889
 2486SOL    HW2 7791   1.819   2.644   7.747
 2487SOL     OW 7792   0.488   3.247   7.622
 2487SOL    HW1 7793   0.401   3.232   7.669
 2487SOL    HW2 7794   0.471   3.273   7.527
 2488SOL     OW 7795   1.664   3.142   8.105
 2488SOL    HW1 7796   1.763   3.150   8.119
 2488SOL    HW2 7797   1.619   3.226   8.136
 2489SOL     OW 7798   1.390   2.437   7.526
 2489SOL    HW1 7799   1.336   2.416   7.607
 2489SOL    HW2 7800   1.481   2.396   7.535
 2490SOL     OW 7801   0.527   2.118   7.776
 2490SOL    HW1 7802   0.554   2.059   7.701
 2490SOL    HW2 7803   0.527   2.213   7.745
 2491SOL     OW 7804   1.754   3.085   9.036
 2491SOL    HW1 7805   1.845   3.046   9.023
 2491SOL    HW2 7806   1.762   3.181   9.060
 2492SOL     OW 7807   1.064   3.209   8.788
 2492SOL    HW1 7808   0.984   3.186   8.843
 2492SOL    HW2 7809   1.147   3.183   8.837
 2493SOL     OW 7810   1.592   3.491   9.073
 2493SOL    HW1 7811   1.619   3.525   8.983
 2493SOL    HW2 7812   1.671   3.453   9.119
 2494SOL     OW 7813   1.111   3.057   8.548
 2494SOL    HW1 7814   1.071   3.101   8.629
 2494SOL    HW2 7815   1.070   3.094   8.465
 2495SOL     OW 7816   1.638   2.961   8.527
 2495SOL    HW1 7817   1.643   3.042   8.586
 2495SOL    HW2 7818   1.552   2.963   8.476
 2496SOL     OW 7819   0.915   1.951   8.850
 2496SOL    HW1 7820   0.940   1.931   8.755
 2496SOL    HW2 7821   0.987   2.007   8.892
 2497SOL     OW 7822   0.980   2.978   9.167
 2497SOL    HW1 7823   0.881   2.984   9.177
 2497SOL    HW2 7824   1.003   2.898   9.111
 2498SOL     OW 7825   0.705   2.912   7.816
 2498SOL    HW1 7826   0.691   2.919   7.915
 2498SOL    HW2 7827   0.789   2.861   7.798
 2499SOL     OW 7828   0.410   2.675   8.699
 2499SOL    HW1 7829   0.496   2.687   8.749
 2499SOL    HW2 7830   0.368   2.588   8.726
 2500SOL     OW 7831   1.274   2.248   8.710
 2500SOL    HW1 7832   1.295   2.322   8.774
 2500SOL    HW2 7833   1.185   2.265   8.667
 2501SOL     OW 7834   0.064   3.426   8.779
 2501SOL    HW1 7835   0.018   3.508   8.745
 2501SOL    HW2 7836   0.162   3.445   8.788
 2502SOL     OW 7837   0.367   2.962   7.949
 2502SOL    HW1 7838   0.360   3.045   7.893
 2502SOL    HW2 7839   0.371   2.882   7.889
 2503SOL     OW 7840   0.566   2.399   8.313
 2503SOL    HW1 7841   0.578   2.465   8.239
 2503SOL    HW2 7842   0.612   2.433   8.396
 2504SOL     OW 7843   1.252   3.210   7.836
 2504SOL    HW1 7844   1.302   3.287   7.876
 2504SOL    HW2 7845   1.157   3.212   7.868
 2505SOL     OW 7846   1.272   3.307   8.590
 2505SOL    HW1 7847   1.319   3.320   8.677
 2505SOL    HW2 7848   1.206   3.233   8.599
 2506SOL     OW 7849   1.582   2.501   7.920
 2506SOL    HW1 7850   1.551   2.562   7.993
 2506SOL    HW2 7851   1.632   2.553   7.851
 2507SOL     OW 7852   0.354   3.372   8.777
 2507SOL    HW1 7853   0.333   3.328   8.690
 2507SOL    HW2 7854   0.451   3.398   8.780
 2508SOL     OW 7855   0.402   2.613   9.046
 2508SOL    HW1 7856   0.470   2.668   8.999
 2508SOL    HW2 7857   0.442   2.525   9.073
 2509SOL     OW 7858   1.587   2.641   9.118
 2509SOL    HW1 7859   1.495   2.679   9.113
 2509SOL    HW2 7860   1.647   2.688   9.053
 2510SOL     OW 7861   1.013   1.967   9.218
 2510SOL    HW1 7862   1.019   2.052   9.166
 2510SOL    HW2 7863   1.045   1.891   9.161
 2511SOL     OW 7864   0.504   1.912   9.188
 2511SOL    HW1 7865   0.462   1.855   9.118
 2511SOL    HW2 7866   0.438   1.981   9.220
 2512SOL     OW 7867   0.573   2.732   8.477
 2512SOL    HW1 7868   0.617   2.821   8.468
 2512SOL    HW2 7869   0.510   2.732   8.554
 2513SOL     OW 7870   1.360   2.724   8.493
 2513SOL    HW1 7871   1.285   2.724   8.427
 2513SOL    HW2 7872   1.397   2.632   8.502
 2514SOL     OW 7873   1.209   2.387   7.723
 2514SOL    HW1 7874   1.222   2.303   7.777
 2514SOL    HW2 7875   1.180   2.461   7.783
 2515SOL     OW 7876   0.307   2.075   8.679
 2515SOL    HW1 7877   0.284   2.112   8.769
 2515SOL    HW2 7878   0.277   1.980   8.673
 2516SOL     OW 7879   0.037   3.172   8.730
 2516SOL    HW1 7880   0.090   3.123   8.798
 2516SOL    HW2 7881   0.059   3.270   8.735
 2517SOL     OW 7882   0.732   2.496   8.512
 2517SOL    HW1 7883   0.791   2.470   8.436
 2517SOL    HW2 7884   0.704   2.592   8.501
 2518SOL     OW 7885   1.728   2.797   9.302
 2518SOL    HW1 7886   1.682   2.790   9.213
 2518SOL    HW2 7887   1.666   2.841   9.368
 2519SOL     OW 7888   0.307   1.925   8.066
 2519SOL    HW1 7889   0.296   2.019   8.099
 2519SOL    HW2 7890   0.302   1.862   8.143
 2520SOL     OW 7891   1.622   2.229   7.822
 2520SOL    HW1 7892   1.624   2.153   7.886
 2520SOL    HW2 7893   1.574   2.306   7.862
 2521SOL     OW 7894   1.023   2.628   8.414
 2521SOL    HW1 7895   1.038   2.649   8.510
 2521SOL    HW2 7896   0.993   2.533   8.405
 2522SOL     OW 7897   0.980   3.435   9.148
 2522SOL    HW1 7898   0.960   3.479   9.060
 2522SOL    HW2 7899   1.019   3.344   9.132
 2523SOL     OW 7900   1.859   3.380   9.053
 2523SOL    HW1 7901   1.873   3.407   8.958
 2523SOL    HW2 7902   1.942   3.402   9.106
 2524SOL     OW 7903   0.350   2.760   9.252
 2524SOL    HW1 7904   0.426   2.804   9.300
 2524SOL    HW2 7905   0.385   2.713   9.170
 2525SOL     OW 7906   1.540   2.136   7.573
 2525SOL    HW1 7907   1.479   2.061   7.596
 2525SOL    HW2 7908   1.562   2.188   7.656
 2526SOL     OW 7909   1.303   2.700   7.490
 2526SOL    HW1 7910   1.337   2.607   7.505
 2526SOL    HW2 7911   1.321   2.727   7.395
 2527SOL     OW 7912   1.068   3.195   8.297
 2527SOL    HW1 7913   1.075   3.111   8.242
 2527SOL    HW2 7914   1.130   3.264   8.261
 2528SOL     OW 7915   0.319   2.672   8.397
 2528SOL    HW1 7916   0.412   2.708   8.402
 2528SOL    HW2 7917   0.313   2.587   8.449
 2529SOL     OW 7918   0.339   2.371   8.454
 2529SOL    HW1 7919   0.287   2.288   8.437
 2529SOL    HW2 7920   0.416   2.376   8.390
 2530SOL     OW 7921   1.138   2.242   9.126
 2530SOL    HW1 7922   1.093   2.305   9.190
 2530SOL    HW2 7923   1.231   2.273   9.109
 2531SOL     OW 7924   1.160   2.069   8.925
 2531SOL    HW1 7925   1.160   2.133   9.002
 2531SOL    HW2 7926   1.188   2.117   8.842
 2532SOL     OW 7927   0.008   3.188   7.648
 2532SOL    HW1 7928  -0.085   3.209   7.617
 2532SOL    HW2 7929   0.018   3.089   7.661
 2533SOL     OW 7930   0.088   3.663   8.375
 2533SOL    HW1 7931   0.046   3.577   8.348
 2533SOL    HW2 7932   0.182   3.666   8.341
 2534SOL     OW 7933   0.504   3.430   8.358
 2534SOL    HW1 7934   0.570   3.504   8.367
 2534SOL    HW2 7935   0.548   3.351   8.316
 2535SOL     OW 7936   1.002   2.658   8.686
 2535SOL    HW1 7937   1.043   2.626   8.772
 2535SOL    HW2 7938   0.906   2.631   8.683
 2536SOL     OW 7939   0.040   2.406   8.562
 2536SOL    HW1 7940   0.125   2.373   8.521
 2536SOL    HW2 7941   0.053   2.421   8.660
 2537SOL     OW 7942   0.189   2.382   9.170
 2537SOL    HW1 7943   0.248   2.342   9.100
 2537SOL    HW2 7944   0.131   2.453   9.129
 2538SOL     OW 7945   1.369   2.812   9.108
 2538SOL    HW1 7946   1.408   2.901   9.128
 2538SOL    HW2 7947   1.379   2.792   9.011
 2539SOL     OW 7948   0.815   2.434   7.773
 2539SOL    HW1 7949   0.822   2.345   7.727
 2539SOL    HW2 7950   0.721   2.468   7.765
 2540SOL     OW 7951   1.657   2.466   8.654
 2540SOL    HW1 7952   1.619   2.397   8.716
 2540SOL    HW2 7953   1.739   2.430   8.610
 2541SOL     OW 7954   0.252   3.426   9.192
 2541SOL    HW1 7955   0.222   3.483   9.268
 2541SOL    HW2 7956   0.245   3.329   9.218
 2542SOL     OW 7957   0.671   2.326   8.717
 2542SOL    HW1 7958   0.637   2.237   8.687
 2542SOL    HW2 7959   0.697   2.380   8.637
 2543SOL     OW 7960   0.930   3.540   8.913
 2543SOL    HW1 7961   0.906   3.522   8.818
 2543SOL    HW2 7962   0.960   3.634   8.923
 2544SOL     OW 7963   0.473   2.362   7.639
 2544SOL    HW1 7964   0.534   2.442   7.643
 2544SOL    HW2 7965   0.378   2.393   7.646
 2545SOL     OW 7966   0.159   2.999   8.914
 2545SOL    HW1 7967   0.181   2.938   8.990
 2545SOL    HW2 7968   0.169   2.950   8.828
 2546SOL     OW 7969   1.347   2.921   8.682
 2546SOL    HW1 7970   1.371   2.858   8.608
 2546SOL    HW2 7971   1.257   2.961   8.664
 2547SOL     OW 7972   1.302   2.717   7.757
 2547SOL    HW1 7973   1.216   2.686   7.799
 2547SOL    HW2 7974   1.298   2.703   7.658
 2548SOL     OW 7975   1.759   3.609   8.602
 2548SOL    HW1 7976   1.820   3.639   8.529
 2548SOL    HW2 7977   1.721   3.520   8.580
 2549SOL     OW 7978   1.252   3.593   8.576
 2549SOL    HW1 7979   1.336   3.598   8.522
 2549SOL    HW2 7980   1.229   3.497   8.594
 2550SOL     OW 7981   0.083   3.120   8.470
 2550SOL    HW1 7982   0.078   3.119   8.570
 2550SOL    HW2 7983   0.000   3.079   8.432
 2551SOL     OW 7984   0.688   3.524   9.164
 2551SOL    HW1 7985   0.632   3.605   9.173
 2551SOL    HW2 7986   0.740   3.528   9.078
 2552SOL     OW 7987   1.726   1.997   7.971
 2552SOL    HW1 7988   1.799   1.980   7.904
 2552SOL    HW2 7989   1.695   1.910   8.009
 2553SOL     OW 7990   1.388   3.435   7.925
 2553SOL    HW1 7991   1.455   3.447   7.851
 2553SOL    HW2 7992   1.348   3.524   7.948
 2554SOL     OW 7993   0.130   3.656   9.299
 2554SOL    HW1 7994   0.089   3.582   9.352
 2554SOL    HW2 7995   0.194   3.707   9.357
 2555SOL     OW 7996   1.280   2.789   8.120
 2555SOL    HW1 7997   1.340   2.708   8.122
 2555SOL    HW2 7998   1.320   2.858   8.060
 2556SOL     OW 7999   0.830   3.135   8.870
 2556SOL    HW1 8000   0.825   3.168   8.965
 2556SOL    HW2 8001   0.744   3.154   8.824
 2557SOL     OW 8002   0.672   3.478   7.602
 2557SOL    HW1 8003   0.681   3.488   7.503
 2557SOL    HW2 8004   0.632   3.389   7.623
 2558SOL     OW 8005   1.650   3.582   8.842
 2558SOL    HW1 8006   1.703   3.592   8.758
 2558SOL    HW2 8007   1.623   3.672   8.876
 2559SOL     OW 8008   0.263   2.188   8.168
 2559SOL    HW1 8009   0.184   2.239   8.134
 2559SOL    HW2 8010   0.254   2.173   8.266
 2560SOL     OW 8011   1.194   3.474   7.479
 2560SOL    HW1 8012   1.200   3.381   7.516
 2560SOL    HW2 8013   1.135   3.474   7.399
 2561SOL     OW 8014   0.822   2.864   8.820
 2561SOL    HW1 8015   0.862   2.863   8.728
 2561SOL    HW2 8016   0.832   2.956   8.860
 2562SOL     OW 8017   0.916   2.772   7.739
 2562SOL    HW1 8018   0.979   2.810   7.671
 2562SOL    HW2 8019   0.956   2.689   7.778
 2563SOL     OW 8020   1.504   3.469   7.492
 2563SOL    HW1 8021   1.412   3.506   7.499
 2563SOL    HW2 8022   1.542   3.489   7.402
 2564SOL     OW 8023   0.372   3.150   8.938
 2564SOL    HW1 8024   0.359   3.243   8.904
 2564SOL    HW2 8025   0.288   3.098   8.925
 2565SOL     OW 8026   1.614   3.154   8.737
 2565SOL    HW1 8027   1.674   3.157   8.817
 2565SOL    HW2 8028   1.539   3.218   8.750
 2566SOL     OW 8029   1.039   2.960   8.144
 2566SOL    HW1 8030   0.969   2.913   8.198
 2566SOL    HW2 8031   1.098   2.892   8.101
 2567SOL     OW 8032   1.014   2.098   8.419
 2567SOL    HW1 8033   1.006   2.062   8.326
 2567SOL    HW2 8034   1.012   2.022   8.484
 2568SOL     OW 8035   0.590   3.349   7.939
 2568SOL    HW1 8036   0.632   3.291   7.869
 2568SOL    HW2 8037   0.546   3.428   7.895
 2569SOL     OW 8038   1.709   2.247   8.829
 2569SOL    HW1 8039   1.782   2.316   8.833
 2569SOL    HW2 8040   1.737   2.172   8.770
 2570SOL     OW 8041   0.255   3.210   7.738
 2570SOL    HW1 8042   0.159   3.211   7.711
 2570SOL    HW2 8043   0.267   3.263   7.822
 2571SOL     OW 8044   0.105   2.875   9.174
 2571SOL    HW1 8045   0.028   2.842   9.228
 2571SOL    HW2 8046   0.190   2.845   9.216
 2572SOL     OW 8047   0.672   2.065   8.937
 2572SOL    HW1 8048   0.762   2.049   8.897
 2572SOL    HW2 8049   0.680   2.070   9.036
 2573SOL     OW 8050   0.075   2.207   7.481
 2573SOL    HW1 8051  -0.017   2.179   7.452
 2573SOL    HW2 8052   0.106   2.284   7.425
 2574SOL     OW 8053   1.440   2.718   8.846
 2574SOL    HW1 8054   1.383   2.770   8.783
 2574SOL    HW2 8055   1.536   2.730   8.822
 2575SOL     OW 8056   0.072   2.028   7.766
 2575SOL    HW1 8057   0.055   2.111   7.712
 2575SOL    HW2 8058   0.162   1.991   7.744
 2576SOL     OW 8059   1.183   3.197   7.567
 2576SOL    HW1 8060   1.084   3.186   7.569
 2576SOL    HW2 8061   1.217   3.212   7.660
 2577SOL     OW 8062   0.613   2.704   8.879
 2577SOL    HW1 8063   0.669   2.785   8.862
 2577SOL    HW2 8064   0.672   2.624   8.882
 2578SOL     OW 8065   1.493   3.629   8.407
 2578SOL    HW1 8066   1.526   3.693   8.338
 2578SOL    HW2 8067   1.559   3.623   8.482
 2579SOL     OW 8068   0.716   2.427   9.156
 2579SOL    HW1 8069   0.735   2.492   9.230
 2579SOL    HW2 8070   0.776   2.347   9.165
 2580SOL     OW 8071   1.450   3.082   9.081
 2580SOL    HW1 8072   1.441   3.072   9.180
 2580SOL    HW2 8073   1.546   3.075   9.055
 2581SOL     OW 8074   0.390   3.603   9.008
 2581SOL    HW1 8075   0.299   3.644   9.006
 2581SOL    HW2 8076   0.383   3.509   9.040
 2582SOL     OW 8077   1.674   2.745   8.702
 2582SOL    HW1 8078   1.647   2.656   8.665
 2582SOL    HW2 8079   1.675   2.813   8.629
 2583SOL     OW 8080   1.225   2.187   7.897
 2583SOL    HW1 8081   1.290   2.113   7.886
 2583SOL    HW2 8082   1.245   2.237   7.981
 2584SOL     OW 8083   0.594   2.607   8.100
 2584SOL    HW1 8084   0.644   2.692   8.081
 2584SOL    HW2 8085   0.506   2.609   8.052
 2585SOL     OW 8086   1.777   2.204   9.090
 2585SOL    HW1 8087   1.760   2.235   8.996
 2585SOL    HW2 8088   1.693   2.167   9.128
 2586SOL     OW 8089   1.730   2.796   8.965
 2586SOL    HW1 8090   1.768   2.887   8.980
 2586SOL    HW2 8091   1.722   2.779   8.866
 2587SOL     OW 8092   0.859   3.236   7.464
 2587SOL    HW1 8093   0.813   3.251   7.552
 2587SOL    HW2 8094   0.903   3.321   7.434
 2588SOL     OW 8095   0.661   3.652   8.401
 2588SOL    HW1 8096   0.615   3.740   8.388
 2588SOL    HW2 8097   0.760   3.664   8.394
 2589SOL     OW 8098   0.859   2.818   8.309
 2589SOL    HW1 8099   0.913   2.749   8.357
 2589SOL    HW2 8100   0.827   2.887   8.375
 2590SOL     OW 8101   1.083   2.846   7.535
 2590SOL    HW1 8102   1.060   2.899   7.453
 2590SOL    HW2 8103   1.164   2.790   7.516
 2591SOL     OW 8104   1.861   3.431   8.299
 2591SOL    HW1 8105   1.790   3.419   8.229
 2591SOL    HW2 8106   1.862   3.352   8.359
 2592SOL     OW 8107   0.221   3.176   9.292
 2592SOL    HW1 8108   0.156   3.103   9.271
 2592SOL    HW2 8109   0.225   3.190   9.390
 2593SOL     OW 8110   0.079   3.102   8.101
 2593SOL    HW1 8111   0.078   3.055   8.189
 2593SOL    HW2 8112   0.161   3.074   8.050
 2594SOL     OW 8113   0.672   3.253   9.072
 2594SOL    HW1 8114   0.594   3.203   9.110
 2594SOL    HW2 8115   0.669   3.348   9.103
 2595SOL     OW 8116   0.428   2.286   7.968
 2595SOL    HW1 8117   0.458   2.214   7.906
 2595SOL    HW2 8118   0.389   2.246   8.051
 2596SOL     OW 8119   1.705   3.349   8.552
 2596SOL    HW1 8120   1.612   3.324   8.525
 2596SOL    HW2 8121   1.731   3.299   8.634
 2597SOL     OW 8122   0.317   2.409   8.728
 2597SOL    HW1 8123   0.355   2.350   8.800
 2597SOL    HW2 8124   0.357   2.383   8.640
 2598SOL     OW 8125   0.812   3.448   8.135
 2598SOL    HW1 8126   0.844   3.458   8.041
 2598SOL    HW2 8127   0.733   3.386   8.137
 2599SOL     OW 8128   1.424   2.076   8.560
 2599SOL    HW1 8129   1.476   2.011   8.615
 2599SOL    HW2 8130   1.375   2.139   8.621
 2600SOL     OW 8131   1.001   1.896   8.602
 2600SOL    HW1 8132   0.938   1.824   8.571
 2600SOL    HW2 8133   1.094   1.860   8.602
 2601SOL     OW 8134   0.770   3.192   7.749
 2601SOL    HW1 8135   0.724   3.105   7.766
 2601SOL    HW2 8136   0.861   3.189   7.790
 2602SOL     OW 8137   0.618   3.429   8.732
 2602SOL    HW1 8138   0.613   3.511   8.789
 2602SOL    HW2 8139   0.707   3.426   8.687
 2603SOL     OW 8140   1.352   1.914   7.616
 2603SOL    HW1 8141   1.387   1.873   7.532
 2603SOL    HW2 8142   1.262   1.876   7.636
 2604SOL     OW 8143   1.300   2.315   8.139
 2604SOL    HW1 8144   1.241   2.395   8.143
 2604SOL    HW2 8145   1.315   2.280   8.232
 2605SOL     OW 8146   1.593   2.083   8.330
 2605SOL    HW1 8147   1.509   2.082   8.384
 2605SOL    HW2 8148   1.595   2.166   8.274
 2606SOL     OW 8149   0.039   2.939   7.748
 2606SOL    HW1 8150   0.138   2.928   7.739
 2606SOL    HW2 8151  -0.001   2.853   7.780
 2607SOL     OW 8152   0.875   3.508   7.785
 2607SOL    HW1 8153   0.798   3.473   7.731
 2607SOL    HW2 8154   0.843   3.579   7.847
 2608SOL     OW 8155   0.230   2.490   9.423
 2608SOL    HW1 8156   0.137   2.488   9.460
 2608SOL    HW2 8157   0.231   2.451   9.331
 2609SOL     OW 8158   0.225   2.137  10.306
 2609SOL    HW1 8159   0.260   2.120  10.398
 2609SOL    HW2 8160   0.137   2.092  10.294
 2610SOL     OW 8161   0.019   2.230   9.957
 2610SOL    HW1 8162  -0.063   2.273   9.996
 2610SOL    HW2 8163  -0.009   2.157   9.894
 2611SOL     OW 8164   0.569   3.137  10.475
 2611SOL    HW1 8165   0.476   3.130  10.438
 2611SOL    HW2 8166   0.580   3.226  10.519
 2612SOL     OW 8167   1.555   3.373  10.013
 2612SOL    HW1 8168   1.498   3.357  10.094
 2612SOL    HW2 8169   1.496   3.383   9.933
 2613SOL     OW 8170   1.135   2.565  10.027
 2613SOL    HW1 8171   1.192   2.643  10.002
 2613SOL    HW2 8172   1.075   2.591  10.103
 2614SOL     OW 8173   1.755   2.469   9.541
 2614SOL    HW1 8174   1.743   2.456   9.442
 2614SOL    HW2 8175   1.725   2.388   9.590
 2615SOL     OW 8176   0.768   3.006  10.333
 2615SOL    HW1 8177   0.690   3.023  10.393
 2615SOL    HW2 8178   0.802   3.093  10.297
 2616SOL     OW 8179   0.850   2.660  11.133
 2616SOL    HW1 8180   0.846   2.736  11.198
 2616SOL    HW2 8181   0.872   2.696  11.042
 2617SOL     OW 8182   0.685   2.874   9.975
 2617SOL    HW1 8183   0.754   2.858  10.045
 2617SOL    HW2 8184   0.612   2.931  10.013
 2618SOL     OW 8185   0.686   3.023  11.113
 2618SOL    HW1 8186   0.746   3.102  11.127
 2618SOL    HW2 8187   0.600   3.054  11.072
 2619SOL     OW 8188   0.335   3.297  10.371
 2619SOL    HW1 8189   0.257   3.266  10.318
 2619SOL    HW2 8190   0.393   3.355  10.314
 2620SOL     OW 8191   1.460   3.367  10.649
 2620SOL    HW1 8192   1.484   3.461  10.675
 2620SOL    HW2 8193   1.444   3.313  10.731
 2621SOL     OW 8194   0.438   2.254  10.809
 2621SOL    HW1 8195   0.520   2.198  10.818
 2621SOL    HW2 8196   0.357   2.196  10.813
 2622SOL     OW 8197   1.603   2.309  10.047
 2622SOL    HW1 8198   1.529   2.355   9.997
 2622SOL    HW2 8199   1.654   2.377  10.100
 2623SOL     OW 8200   0.231   3.575   9.793
 2623SOL    HW1 8201   0.265   3.652   9.847
 2623SOL    HW2 8202   0.275   3.575   9.703
 2624SOL     OW 8203   1.127   3.203  11.000
 2624SOL    HW1 8204   1.174   3.203  11.088
 2624SOL    HW2 8205   1.079   3.116  10.989
 2625SOL     OW 8206   0.230   3.296   9.848
 2625SOL    HW1 8207   0.204   3.392   9.848
 2625SOL    HW2 8208   0.159   3.242   9.893
 2626SOL     OW 8209   0.240   2.953  10.196
 2626SOL    HW1 8210   0.254   2.869  10.248
 2626SOL    HW2 8211   0.185   3.017  10.251
 2627SOL     OW 8212   0.620   3.648  10.749
 2627SOL    HW1 8213   0.528   3.631  10.784
 2627SOL    HW2 8214   0.648   3.740  10.775
 2628SOL     OW 8215   0.606   2.826   9.433
 2628SOL    HW1 8216   0.613   2.910   9.379
 2628SOL    HW2 8217   0.652   2.839   9.521
 2629SOL     OW 8218   1.594   1.976  10.790
 2629SOL    HW1 8219   1.576   2.043  10.718
 2629SOL    HW2 8220   1.591   2.022  10.879
 2630SOL     OW 8221   0.122   2.505   9.873
 2630SOL    HW1 8222   0.077   2.417   9.890
 2630SOL    HW2 8223   0.121   2.559   9.957
 2631SOL     OW 8224   1.842   3.629   9.669
 2631SOL    HW1 8225   1.896   3.600   9.749
 2631SOL    HW2 8226   1.872   3.719   9.640
 2632SOL     OW 8227   0.027   3.458   9.427
 2632SOL    HW1 8228   0.008   3.362   9.448
 2632SOL    HW2 8229  -0.006   3.516   9.502
 2633SOL     OW 8230   1.689   2.784   9.922
 2633SOL    HW1 8231   1.784   2.755   9.930
 2633SOL    HW2 8232   1.681   2.849   9.847
 2634SOL     OW 8233   1.641   2.970   9.742
 2634SOL    HW1 8234   1.727   2.972   9.690
 2634SOL    HW2 8235   1.655   3.017   9.830
 2635SOL     OW 8236   0.113   2.599  10.907
 2635SOL    HW1 8237   0.201   2.586  10.952
 2635SOL    HW2 8238   0.100   2.696  10.885
 2636SOL     OW 8239   0.613   3.227  10.036
 2636SOL    HW1 8240   0.564   3.140  10.045
 2636SOL    HW2 8241   0.590   3.270   9.949
 2637SOL     OW 8242   1.293   3.090  10.733
 2637SOL    HW1 8243   1.330   3.017  10.675
 2637SOL    HW2 8244   1.345   3.095  10.818
 2638SOL     OW 8245   0.809   1.866   9.812
 2638SOL    HW1 8246   0.849   1.957   9.803
 2638SOL    HW2 8247   0.709   1.874   9.818
 2639SOL     OW 8248   0.197   2.838  10.574
 2639SOL    HW1 8249   0.286   2.793  10.560
 2639SOL    HW2 8250   0.124   2.773  10.555
 2640SOL     OW 8251   1.525   2.861   9.500
 2640SOL    HW1 8252   1.462   2.785   9.513
 2640SOL    HW2 8253   1.573   2.879   9.586
 2641SOL     OW 8254   1.187   3.654  10.926
 2641SOL    HW1 8255   1.211   3.714  10.850
 2641SOL    HW2 8256   1.194   3.559  10.896
 2642SOL     OW 8257   0.317   2.113  11.111
 2642SOL    HW1 8258   0.388   2.184  11.117
 2642SOL    HW2 8259   0.229   2.152  11.139
 2643SOL     OW 8260   1.466   3.279  10.263
 2643SOL    HW1 8261   1.407   3.285  10.343
 2643SOL    HW2 8262   1.451   3.191  10.217
 2644SOL     OW 8263   1.667   3.576   9.882
 2644SOL    HW1 8264   1.626   3.553   9.794
 2644SOL    HW2 8265   1.649   3.502   9.947
 2645SOL     OW 8266   0.598   2.591   9.580
 2645SOL    HW1 8267   0.622   2.660   9.512
 2645SOL    HW2 8268   0.520   2.624   9.634
 2646SOL     OW 8269   1.281   2.207  10.254
 2646SOL    HW1 8270   1.195   2.157  10.241
 2646SOL    HW2 8271   1.343   2.153  10.310
 2647SOL     OW 8272   1.576   3.524   9.617
 2647SOL    HW1 8273   1.665   3.570   9.620
 2647SOL    HW2 8274   1.555   3.500   9.522
 2648SOL     OW 8275   0.807   2.467  10.775
 2648SOL    HW1 8276   0.760   2.464  10.864
 2648SOL    HW2 8277   0.756   2.412  10.709
 2649SOL     OW 8278   1.394   2.331  10.984
 2649SOL    HW1 8279   1.374   2.374  11.072
 2649SOL    HW2 8280   1.472   2.269  10.993
 2650SOL     OW 8281   0.973   2.752  10.882
 2650SOL    HW1 8282   1.019   2.668  10.853
 2650SOL    HW2 8283   0.917   2.786  10.807
 2651SOL     OW 8284   0.991   2.272  10.552
 2651SOL    HW1 8285   0.914   2.306  10.606
 2651SOL    HW2 8286   0.957   2.221  10.473
 2652SOL     OW 8287   1.041   2.563   9.739
 2652SOL    HW1 8288   1.067   2.559   9.835
 2652SOL    HW2 8289   0.956   2.512   9.725
 2653SOL     OW 8290   0.076   2.673  10.099
 2653SOL    HW1 8291   0.175   2.661  10.108
 2653SOL    HW2 8292   0.052   2.768  10.120
 2654SOL     OW 8293   0.130   3.683  10.881
 2654SOL    HW1 8294   0.120   3.668  10.980
 2654SOL    HW2 8295   0.044   3.719  10.845
 2655SOL     OW 8296   0.865   2.210   9.505
 2655SOL    HW1 8297   0.924   2.273   9.456
 2655SOL    HW2 8298   0.884   2.116   9.476
 2656SOL     OW 8299   1.719   2.447  11.141
 2656SOL    HW1 8300   1.693   2.536  11.105
 2656SOL    HW2 8301   1.717   2.379  11.068
 2657SOL     OW 8302   1.362   3.006   9.855
 2657SOL    HW1 8303   1.445   2.977   9.807
 2657SOL    HW2 8304   1.313   3.073   9.799
 2658SOL     OW 8305   0.550   2.058  10.195
 2658SOL    HW1 8306   0.545   2.053  10.295
 2658SOL    HW2 8307   0.552   2.154  10.166
 2659SOL     OW 8308   1.008   3.318   9.787
 2659SOL    HW1 8309   0.962   3.390   9.735
 2659SOL    HW2 8310   1.004   3.338   9.885
 2660SOL     OW 8311   0.351   3.663  10.163
 2660SOL    HW1 8312   0.401   3.577  10.169
 2660SOL    HW2 8313   0.416   3.740  10.160
 2661SOL     OW 8314   1.795   2.928  10.183
 2661SOL    HW1 8315   1.733   2.913  10.107
 2661SOL    HW2 8316   1.743   2.939  10.268
 2662SOL     OW 8317   1.227   3.412  10.816
 2662SOL    HW1 8318   1.233   3.335  10.880
 2662SOL    HW2 8319   1.175   3.386  10.736
 2663SOL     OW 8320   0.321   2.805   9.552
 2663SOL    HW1 8321   0.403   2.844   9.510
 2663SOL    HW2 8322   0.294   2.723   9.503
 2664SOL     OW 8323   1.458   2.597  10.038
 2664SOL    HW1 8324   1.453   2.532  10.113
 2664SOL    HW2 8325   1.538   2.656  10.051
 2665SOL     OW 8326   0.461   3.128  11.037
 2665SOL    HW1 8327   0.411   3.129  10.951
 2665SOL    HW2 8328   0.398   3.110  11.113
 2666SOL     OW 8329   1.111   3.638   9.547
 2666SOL    HW1 8330   1.051   3.576   9.597
 2666SOL    HW2 8331   1.142   3.594   9.462
 2667SOL     OW 8332   0.202   2.147  10.808
 2667SOL    HW1 8333   0.122   2.207  10.795
 2667SOL    HW2 8334   0.192   2.098  10.894
 2668SOL     OW 8335   1.632   3.239   9.391
 2668SOL    HW1 8336   1.600   3.333   9.381
 2668SOL    HW2 8337   1.556   3.176   9.379
 2669SOL     OW 8338   0.464   3.605   9.633
 2669SOL    HW1 8339   0.497   3.644   9.719
 2669SOL    HW2 8340   0.540   3.598   9.568
 2670SOL     OW 8341   1.400   1.969   9.736
 2670SOL    HW1 8342   1.376   1.932   9.646
 2670SOL    HW2 8343   1.499   1.985   9.740
 2671SOL     OW 8344   0.249   3.647  10.551
 2671SOL    HW1 8345   0.306   3.582  10.601
 2671SOL    HW2 8346   0.233   3.614  10.458
 2672SOL     OW 8347   0.940   3.560  10.214
 2672SOL    HW1 8348   1.020   3.503  10.235
 2672SOL    HW2 8349   0.891   3.520  10.137
 2673SOL     OW 8350   0.382   2.562   9.790
 2673SOL    HW1 8351   0.427   2.472   9.787
 2673SOL    HW2 8352   0.288   2.551   9.823
 2674SOL     OW 8353   1.547   2.084  11.039
 2674SOL    HW1 8354   1.542   2.121  11.131
 2674SOL    HW2 8355   1.475   2.015  11.027
 2675SOL     OW 8356   0.614   1.984   9.427
 2675SOL    HW1 8357   0.712   1.962   9.434
 2675SOL    HW2 8358   0.583   1.967   9.334
 2676SOL     OW 8359   0.781   2.126  11.059
 2676SOL    HW1 8360   0.848   2.065  11.102
 2676SOL    HW2 8361   0.708   2.145  11.124
 2677SOL     OW 8362   0.888   3.376  10.505
 2677SOL    HW1 8363   0.865   3.351  10.411
 2677SOL    HW2 8364   0.949   3.307  10.544
 2678SOL     OW 8365   1.351   2.452  10.743
 2678SOL    HW1 8366   1.379   2.409  10.828
 2678SOL    HW2 8367   1.376   2.548  10.744
 2679SOL     OW 8368   0.803   3.264  10.234
 2679SOL    HW1 8369   0.893   3.278  10.192
 2679SOL    HW2 8370   0.732   3.266  10.163
 2680SOL     OW 8371   0.922   2.365  10.209
 2680SOL    HW1 8372   0.897   2.356  10.113
 2680SOL    HW2 8373   0.970   2.283  10.240
 2681SOL     OW 8374   0.539   1.926   9.822
 2681SOL    HW1 8375   0.458   1.927   9.880
 2681SOL    HW2 8376   0.542   2.009   9.767
 2682SOL     OW 8377   1.434   3.050   9.351
 2682SOL    HW1 8378   1.466   2.974   9.408
 2682SOL    HW2 8379   1.342   3.077   9.381
 2683SOL     OW 8380   0.297   1.897   9.481
 2683SOL    HW1 8381   0.346   1.981   9.460
 2683SOL    HW2 8382   0.359   1.832   9.526
 2684SOL     OW 8383   0.935   2.098   9.790
 2684SOL    HW1 8384   0.887   2.139   9.712
 2684SOL    HW2 8385   1.034   2.096   9.771
 2685SOL     OW 8386   1.076   2.545  10.774
 2685SOL    HW1 8387   0.996   2.484  10.777
 2685SOL    HW2 8388   1.157   2.492  10.750
 2686SOL     OW 8389   1.227   3.432  10.103
 2686SOL    HW1 8390   1.248   3.506  10.038
 2686SOL    HW2 8391   1.295   3.432  10.176
 2687SOL     OW 8392   0.459   3.014  10.051
 2687SOL    HW1 8393   0.388   2.987  10.116
 2687SOL    HW2 8394   0.433   2.986   9.958
 2688SOL     OW 8395   1.271   3.659   9.901
 2688SOL    HW1 8396   1.315   3.723   9.837
 2688SOL    HW2 8397   1.221   3.711   9.971
 2689SOL     OW 8398   1.032   2.411   9.326
 2689SOL    HW1 8399   0.991   2.493   9.287
 2689SOL    HW2 8400   1.096   2.437   9.399
 2690SOL     OW 8401   0.078   2.418  10.696
 2690SOL    HW1 8402   0.170   2.417  10.655
 2690SOL    HW2 8403   0.072   2.492  10.763
 2691SOL     OW 8404   0.561   2.084  10.457
 2691SOL    HW1 8405   0.599   2.000  10.494
 2691SOL    HW2 8406   0.473   2.103  10.501
 2692SOL     OW 8407   0.866   2.316   9.952
 2692SOL    HW1 8408   0.834   2.388   9.890
 2692SOL    HW2 8409   0.890   2.235   9.899
 2693SOL     OW 8410   1.017   1.901  10.063
 2693SOL    HW1 8411   0.945   1.906   9.994
 2693SOL    HW2 8412   0.993   1.832  10.132
 2694SOL     OW 8413   1.429   3.035  10.177
 2694SOL    HW1 8414   1.374   2.951  10.170
 2694SOL    HW2 8415   1.455   3.064  10.085
 2695SOL     OW 8416   1.466   2.452  10.302
 2695SOL    HW1 8417   1.436   2.357  10.309
 2695SOL    HW2 8418   1.539   2.468  10.368
 2696SOL     OW 8419   1.857   2.695   9.687
 2696SOL    HW1 8420   1.899   2.631   9.751
 2696SOL    HW2 8421   1.819   2.644   9.609
 2697SOL     OW 8422   0.488   3.247   9.484
 2697SOL    HW1 8423   0.401   3.232   9.531
 2697SOL    HW2 8424   0.471   3.273   9.389
 2698SOL     OW 8425   1.664   3.142   9.967
 2698SOL    HW1 8426   1.763   3.150   9.981
 2698SOL    HW2 8427   1.619   3.226   9.998
 2699SOL     OW 8428   1.390   2.437   9.388
 2699SOL    HW1 8429   1.336   2.416   9.469
 2699SOL    HW2 8430   1.481   2.396   9.397
 2700SOL     OW 8431   0.527   2.118   9.638
 2700SOL    HW1 8432   0.554   2.059   9.563
 2700SOL    HW2 8433   0.527   2.213   9.607
 2701SOL     OW 8434   1.754   3.085  10.898
 2701SOL    HW1 8435   1.845   3.046  10.885
 2701SOL    HW2 8436   1.762   3.181  10.922
 2702SOL     OW 8437   1.064   3.209  10.650
 2702SOL    HW1 8438   0.984   3.186  10.705
 2702SOL    HW2 8439   1.147   3.183  10.699
 2703SOL     OW 8440   1.592   3.491  10.935
 2703SOL    HW1 8441   1.619   3.525  10.845
 2703SOL    HW2 8442   1.671   3.453  10.981
 2704SOL     OW 8443   1.111   3.057  10.410
 2704SOL    HW1 8444   1.071   3.101  10.491
 2704SOL    HW2 8445   1.070   3.094  10.327
 2705SOL     OW 8446   1.638   2.961  10.389
 2705SOL    HW1 8447   1.643   3.042  10.448
 2705SOL    HW2 8448   1.552   2.963  10.338
 2706SOL     OW 8449   0.915   1.951  10.712
 2706SOL    HW1 8450   0.940   1.931  10.617
 2706SOL    HW2 8451   0.987   2.007  10.754
 2707SOL     OW 8452   0.980   2.978  11.029
 2707SOL    HW1 8453   0.881   2.984  11.039
 2707SOL    HW2 8454   1.003   2.898  10.973
 2708SOL     OW 8455   0.705   2.912   9.678
 2708SOL    HW1 8456   0.691   2.919   9.777
 2708SOL    HW2 8457   0.789   2.861   9.660
 2709SOL     OW 8458   0.410   2.675  10.561
 2709SOL    HW1 8459   0.496   2.687  10.611
 2709SOL    HW2 8460   0.368   2.588  10.588
 2710SOL     OW 8461   1.274   2.248  10.572
 2710SOL    HW1 8462   1.295   2.322  10.636
 2710SOL    HW2 8463   1.185   2.265  10.529
 2711SOL     OW 8464   0.064   3.426  10.641
 2711SOL    HW1 8465   0.018   3.508  10.607
 2711SOL    HW2 8466   0.162   3.445  10.650
 2712SOL     OW 8467   0.367   2.962   9.811
 2712SOL    HW1 8468   0.360   3.045   9.755
 2712SOL    HW2 8469   0.371   2.882   9.751
 2713SOL     OW 8470   0.566   2.399  10.175
 2713SOL    HW1 8471   0.578   2.465  10.101
 2713SOL    HW2 8472   0.612   2.433  10.258
 2714SOL     OW 8473   1.252   3.210   9.698
 2714SOL    HW1 8474   1.302   3.287   9.738
 2714SOL    HW2 8475   1.157   3.212   9.730
 2715SOL     OW 8476   1.272   3.307  10.452
 2715SOL    HW1 8477   1.319   3.320  10.539
 2715SOL    HW2 8478   1.206   3.233  10.461
 2716SOL     OW 8479   1.582   2.501   9.782
 2716SOL    HW1 8480   1.551   2.562   9.855
 2716SOL    HW2 8481   1.632   2.553   9.713
 2717SOL     OW 8482   0.354   3.372  10.639
 2717SOL    HW1 8483   0.333   3.328  10.552
 2717SOL    HW2 8484   0.451   3.398  10.642
 2718SOL     OW 8485   0.402   2.613  10.908
 2718SOL    HW1 8486   0.470   2.668  10.861
 2718SOL    HW2 8487   0.442   2.525  10.935
 2719SOL     OW 8488   1.587   2.641  10.980
 2719SOL    HW1 8489   1.495   2.679  10.975
 2719SOL    HW2 8490   1.647   2.688  10.915
 2720SOL     OW 8491   1.013   1.967  11.080
 2720SOL    HW1 8492   1.019   2.052  11.028
 2720SOL    HW2 8493   1.045   1.891  11.023
 2721SOL     OW 8494   0.504   1.912  11.050
 2721SOL    HW1 8495   0.462   1.855  10.980
 2721SOL    HW2 8496   0.438   1.981  11.082
 2722SOL     OW 8497   0.573   2.732  10.339
 2722SOL    HW1 8498   0.617   2.821  10.330
 2722SOL    HW2 8499   0.510   2.732  10.416
 2723SOL     OW 8500   1.360   2.724  10.355
 2723SOL    HW1 8501   1.285   2.724  10.289
 2723SOL    HW2 8502   1.397   2.632  10.364
 2724SOL     OW 8503   1.209   2.387   9.585
 2724SOL    HW1 8504   1.222   2.303   9.639
 2724SOL    HW2 8505   1.180   2.461   9.645
 2725SOL     OW 8506   0.307   2.075  10.541
 2725SOL    HW1 8507   0.284   2.112  10.631
 2725SOL    HW2 8508   0.277   1.980  10.535
 2726SOL     OW 8509   0.037   3.172  10.592
 2726SOL    HW1 8510   0.090   3.123  10.660
 2726SOL    HW2 8511   0.059   3.270  10.597
 2727SOL     OW 8512   0.732   2.496  10.374
 2727SOL    HW1 8513   0.791   2.470  10.298
 2727SOL    HW2 8514   0.704   2.592  10.363
 2728SOL     OW 8515   1.728   2.797  11.164
 2728SOL    HW1 8516   1.682   2.790  11.075
 2728SOL    HW2 8517   1.666   2.841  11.230
 2729SOL     OW 8518   0.307   1.925   9.928
 2729SOL    HW1 8519   0.296   2.019   9.961
 2729SOL    HW2 8520   0.302   1.862  10.005
 2730SOL     OW 8521   1.622   2.229   9.684
 2730SOL    HW1 8522   1.624   2.153   9.748
 2730SOL    HW2 8523   1.574   2.306   9.724
 2731SOL     OW 8524   1.023   2.628  10.276
 2731SOL    HW1 8525   1.038   2.649  10.372
 2731SOL    HW2 8526   0.993   2.533  10.267
 2732SOL     OW 8527   0.980   3.435  11.010
 2732SOL    HW1 8528   0.960   3.479  10.922
 2732SOL    HW2 8529   1.019   3.344  10.994
 2733SOL     OW 8530   1.859   3.380  10.915
 2733SOL    HW1 8531   1.873   3.407  10.820
 2733SOL    HW2 8532   1.942   3.402  10.968
 2734SOL     OW 8533   0.350   2.760  11.114
 2734SOL    HW1 8534   0.426   2.804  11.162
 2734SOL    HW2 8535   0.385   2.713  11.032
 2735SOL     OW 8536   1.540   2.136   9.435
 2735SOL    HW1 8537   1.479   2.061   9.458
 2735SOL    HW2 8538   1.562   2.188   9.518
 2736SOL     OW 8539   1.303   2.700   9.352
 2736SOL    HW1 8540   1.337   2.607   9.367
 2736SOL    HW2 8541   1.321   2.727   9.257
 2737SOL     OW 8542   1.068   3.195  10.159
 2737SOL    HW1 8543   1.075   3.111  10.104
 2737SOL    HW2 8544   1.130   3.264  10.123
 2738SOL     OW 8545   0.319   2.672  10.259
 2738SOL    HW1 8546   0.412   2.708  10.264
 2738SOL    HW2 8547   0.313   2.587  10.311
 2739SOL     OW 8548   0.339   2.371  10.316
 2739SOL    HW1 8549   0.287   2.288  10.299
 2739SOL    HW2 8550   0.416   2.376  10.252
 2740SOL     OW 8551   1.138   2.242  10.988
 2740SOL    HW1 8552   1.093   2.305  11.052
 2740SOL    HW2 8553   1.231   2.273  10.971
 2741SOL     OW 8554   1.160   2.069  10.787
 2741SOL    HW1 8555   1.160   2.133  10.864
 2741SOL    HW2 8556   1.188   2.117  10.704
 2742SOL     OW 8557   0.008   3.188   9.510
 2742SOL    HW1 8558  -0.085   3.209   9.479
 2742SOL    HW2 8559   0.018   3.089   9.523
 2743SOL     OW 8560   0.088   3.663  10.237
 2743SOL    HW1 8561   0.046   3.577  10.210
 2743SOL    HW2 8562   0.182   3.666  10.203
 2744SOL     OW 8563   0.504   3.430  10.220
 2744SOL    HW1 8564   0.570   3.504  10.229
 2744SOL    HW2 8565   0.548   3.351  10.178
 2745SOL     OW 8566   1.002   2.658  10.548
 2745SOL    HW1 8567   1.043   2.626  10.634
 2745SOL    HW2 8568   0.906   2.631  10.545
 2746SOL     OW 8569   0.040   2.406  10.424
 2746SOL    HW1 8570   0.125   2.373  10.383
 2746SOL    HW2 8571   0.053   2.421  10.522
 2747SOL     OW 8572   0.189   2.382  11.032
 2747SOL    HW1 8573   0.248   2.342  10.962
 2747SOL    HW2 8574   0.131   2.453  10.991
 2748SOL     OW 8575   1.369   2.812  10.970
 2748SOL    HW1 8576   1.408   2.901  10.990
 2748SOL    HW2 8577   1.379   2.792  10.873
 2749SOL     OW 8578   0.815   2.434   9.635
 2749SOL    HW1 8579   0.822   2.345   9.589
 2749SOL    HW2 8580   0.721   2.468   9.627
 2750SOL     OW 8581   1.657   2.466  10.516
 2750SOL    HW1 8582   1.619   2.397  10.578
 2750SOL    HW2 8583   1.739   2.430  10.472
 2751SOL     OW 8584   0.252   3.426  11.054
 2751SOL    HW1 8585   0.222   3.483  11.130
 2751SOL    HW2 8586   0.245   3.329  11.080
 2752SOL     OW 8587   0.671   2.326  10.579
 2752SOL    HW1 8588   0.637   2.237  10.549
 2752SOL    HW2 8589   0.697   2.380  10.499
 2753SOL     OW 8590   0.930   3.540  10.775
 2753SOL    HW1 8591   0.906   3.522  10.680
 2753SOL    HW2 8592   0.960   3.634  10.785
 2754SOL     OW 8593   0.473   2.362   9.501
 2754SOL    HW1 8594   0.534   2.442   9.505
 2754SOL    HW2 8595   0.378   2.393   9.508
 2755SOL     OW 8596   0.159   2.999  10.776
 2755SOL    HW1 8597   0.181   2.938  10.852
 2755SOL    HW2 8598   0.169   2.950  10.690
 2756SOL     OW 8599   1.347   2.921  10.544
 2756SOL    HW1 8600   1.371   2.858  10.470
 2756SOL    HW2 8601   1.257   2.961  10.526
 2757SOL     OW 8602   1.302   2.717   9.619
 2757SOL    HW1 8603   1.216   2.686   9.661
 2757SOL    HW2 8604   1.298   2.703   9.520
 2758SOL     OW 8605   1.759   3.609  10.464
 2758SOL    HW1 8606   1.820   3.639  10.391
 2758SOL    HW2 8607   1.721   3.520  10.442
 2759SOL     OW 8608   1.252   3.593  10.438
 2759SOL    HW1 8609   1.336   3.598  10.384
 2759SOL    HW2 8610   1.229   3.497  10.456
 2760SOL     OW 8611   0.083   3.120  10.332
 2760SOL    HW1 8612   0.078   3.119  10.432
 2760SOL    HW2 8613   0.000   3.079  10.294
 2761SOL     OW 8614   0.688   3.524  11.026
 2761SOL    HW1 8615   0.632   3.605  11.035
 2761SOL    HW2 8616   0.740   3.528  10.940
 2762SOL     OW 8617   1.388   3.435   9.787
 2762SOL    HW1 8618   1.455   3.447   9.713
 2762SOL    HW2 8619   1.348   3.524   9.810
 2763SOL     OW 8620   0.130   3.656  11.161
 2763SOL    HW1 8621   0.089   3.582  11.214
 2763SOL    HW2 8622   0.194   3.707  11.219
 2764SOL     OW 8623   1.280   2.789   9.982
 2764SOL    HW1 8624   1.340   2.708   9.984
 2764SOL    HW2 8625   1.320   2.858   9.922
 2765SOL     OW 8626   0.830   3.135  10.732
 2765SOL    HW1 8627   0.825   3.168  10.827
 2765SOL    HW2 8628   0.744   3.154  10.686
 2766SOL     OW 8629   0.672   3.478   9.464
 2766SOL    HW1 8630   0.681   3.488   9.365
 2766SOL    HW2 8631   0.632   3.389   9.485
 2767SOL     OW 8632   1.650   3.582  10.704
 2767SOL    HW1 8633   1.703   3.592  10.620
 2767SOL    HW2 8634   1.623   3.672  10.738
 2768SOL     OW 8635   0.263   2.188  10.030
 2768SOL    HW1 8636   0.184   2.239   9.996
 2768SOL    HW2 8637   0.254   2.173  10.128
 2769SOL     OW 8638   1.194   3.474   9.341
 2769SOL    HW1 8639   1.200   3.381   9.378
 2769SOL    HW2 8640   1.135   3.474   9.261
 2770SOL     OW 8641   0.822   2.864  10.682
 2770SOL    HW1 8642   0.862   2.863  10.590
 2770SOL    HW2 8643   0.832   2.956  10.722
 2771SOL     OW 8644   0.916   2.772   9.601
 2771SOL    HW1 8645   0.979   2.810   9.533
 2771SOL    HW2 8646   0.956   2.689   9.640
 2772SOL     OW 8647   1.504   3.469   9.354
 2772SOL    HW1 8648   1.412   3.506   9.361
 2772SOL    HW2 8649   1.542   3.489   9.264
 2773SOL     OW 8650   0.372   3.150  10.800
 2773SOL    HW1 8651   0.359   3.243  10.766
 2773SOL    HW2 8652   0.288   3.098  10.787
 2774SOL     OW 8653   1.614   3.154  10.599
 2774SOL    HW1 8654   1.674   3.157  10.679
 2774SOL    HW2 8655   1.539   3.218  10.612
 2775SOL     OW 8656   1.039   2.960  10.006
 2775SOL    HW1 8657   0.969   2.913  10.060
 2775SOL    HW2 8658   1.098   2.892   9.963
 2776SOL     OW 8659   1.014   2.098  10.281
 2776SOL    HW1 8660   1.006   2.062  10.188
 2776SOL    HW2 8661   1.012   2.022  10.346
 2777SOL     OW 8662   0.590   3.349   9.801
 2777SOL    HW1 8663   0.632   3.291   9.731
 2777SOL    HW2 8664   0.546   3.428   9.757
 2778SOL     OW 8665   1.709   2.247  10.691
 2778SOL    HW1 8666   1.782   2.316  10.695
 2778SOL    HW2 8667   1.737   2.172  10.632
 2779SOL     OW 8668   0.255   3.210   9.600
 2779SOL    HW1 8669   0.159   3.211   9.573
 2779SOL    HW2 8670   0.267   3.263   9.684
 2780SOL     OW 8671   0.105   2.875  11.036
 2780SOL    HW1 8672   0.028   2.842  11.090
 2780SOL    HW2 8673   0.190   2.845  11.078
 2781SOL     OW 8674   0.672   2.065  10.799
 2781SOL    HW1 8675   0.762   2.049  10.759
 2781SOL    HW2 8676   0.680   2.070  10.898
 2782SOL     OW 8677   0.075   2.207   9.343
 2782SOL    HW1 8678  -0.017   2.179   9.314
 2782SOL    HW2 8679   0.106   2.284   9.287
 2783SOL     OW 8680   1.440   2.718  10.708
 2783SOL    HW1 8681   1.383   2.770  10.645
 2783SOL    HW2 8682   1.536   2.730  10.684
 2784SOL     OW 8683   0.072   2.028   9.628
 2784SOL    HW1 8684   0.055   2.111   9.574
 2784SOL    HW2 8685   0.162   1.991   9.606
 2785SOL     OW 8686   1.183   3.197   9.429
 2785SOL    HW1 8687   1.084   3.186   9.431
 2785SOL    HW2 8688   1.217   3.212   9.522
 2786SOL     OW 8689   0.613   2.704  10.741
 2786SOL    HW1 8690   0.669   2.785  10.724
 2786SOL    HW2 8691   0.672   2.624  10.744
 2787SOL     OW 8692   1.493   3.629  10.269
 2787SOL    HW1 8693   1.526   3.693  10.200
 2787SOL    HW2 8694   1.559   3.623  10.344
 2788SOL     OW 8695   0.716   2.427  11.018
 2788SOL    HW1 8696   0.735   2.492  11.092
 2788SOL    HW2 8697   0.776   2.347  11.027
 2789SOL     OW 8698   1.450   3.082  10.943
 2789SOL    HW1 8699   1.441   3.072  11.042
 2789SOL    HW2 8700   1.546   3.075  10.917
 2790SOL     OW 8701   0.390   3.603  10.870
 2790SOL    HW1 8702   0.299   3.644  10.868
 2790SOL    HW2 8703   0.383   3.509  10.902
 2791SOL     OW 8704   1.674   2.745  10.564
 2791SOL    HW1 8705   1.647   2.656  10.527
 2791SOL    HW2 8706   1.675   2.813  10.491
 2792SOL     OW 8707   1.225   2.187   9.759
 2792SOL    HW1 8708   1.290   2.113   9.748
 2792SOL    HW2 8709   1.245   2.237   9.843
 2793SOL     OW 8710   0.594   2.607   9.962
 2793SOL    HW1 8711   0.644   2.692   9.943
 2793SOL    HW2 8712   0.506   2.609   9.914
 2794SOL     OW 8713   1.777   2.204  10.952
 2794SOL    HW1 8714   1.760   2.235  10.858
 2794SOL    HW2 8715   1.693   2.167  10.990
 2795SOL     OW 8716   1.730   2.796  10.827
 2795SOL    HW1 8717   1.768   2.887  10.842
 2795SOL    HW2 8718   1.722   2.779  10.728
 2796SOL     OW 8719   0.859   3.236   9.326
 2796SOL    HW1 8720   0.813   3.251   9.414
 2796SOL    HW2 8721   0.903   3.321   9.296
 2797SOL     OW 8722   0.661   3.652  10.263
 2797SOL    HW1 8723   0.615   3.740  10.250
 2797SOL    HW2 8724   0.760   3.664  10.256
 2798SOL     OW 8725   0.859   2.818  10.171
 2798SOL    HW1 8726   0.913   2.749  10.219
 2798SOL    HW2 8727   0.827   2.887  10.237
 2799SOL     OW 8728   1.083   2.846   9.397
 2799SOL    HW1 8729   1.060   2.899   9.315
 2799SOL    HW2 8730   1.164   2.790   9.378
 2800SOL     OW 8731   1.861   3.431  10.161
 2800SOL    HW1 8732   1.790   3.419  10.091
 2800SOL    HW2 8733   1.862   3.352  10.221
 2801SOL     OW 8734   0.221   3.176  11.154
 2801SOL    HW1 8735   0.156   3.103  11.133
 2801SOL    HW2 8736   0.225   3.190  11.252
 2802SOL     OW 8737   0.079   3.102   9.963
 2802SOL    HW1 8738   0.078   3.055  10.051
 2802SOL    HW2 8739   0.161   3.074   9.912
 2803SOL     OW 8740   0.672   3.253  10.934
 2803SOL    HW1 8741   0.594   3.203  10.972
 2803SOL    HW2 8742   0.669   3.348  10.965
 2804SOL     OW 8743   0.428   2.286   9.830
 2804SOL    HW1 8744   0.458   2.214   9.768
 2804SOL    HW2 8745   0.389   2.246   9.913
 2805SOL     OW 8746   1.705   3.349  10.414
 2805SOL    HW1 8747   1.612   3.324  10.387
 2805SOL    HW2 8748   1.731   3.299  10.496
 2806SOL     OW 8749   0.317   2.409  10.590
 2806SOL    HW1 8750   0.355   2.350  10.662
 2806SOL    HW2 8751   0.357   2.383  10.502
 2807SOL     OW 8752   0.812   3.448   9.997
 2807SOL    HW1 8753   0.844   3.458   9.903
 2807SOL    HW2 8754   0.733   3.386   9.999
 2808SOL     OW 8755   1.424   2.076  10.422
 2808SOL    HW1 8756   1.476   2.011  10.477
 2808SOL    HW2 8757   1.375   2.139  10.483
 2809SOL     OW 8758   1.001   1.896  10.464
 2809SOL    HW1 8759   0.938   1.824  10.433
 2809SOL    HW2 8760   1.094   1.860  10.464
 2810SOL     OW 8761   0.770   3.192   9.611
 2810SOL    HW1 8762   0.724   3.105   9.628
 2810SOL    HW2 8763   0.861   3.189   9.652
 2811SOL     OW 8764   0.618   3.429  10.594
 2811SOL    HW1 8765   0.613   3.511  10.651
 2811SOL    HW2 8766   0.707   3.426  10.549
 2812SOL     OW 8767   1.352   1.914   9.478
 2812SOL    HW1 8768   1.387   1.873   9.394
 2812SOL    HW2 8769   1.262   1.876   9.498
 2813SOL     OW 8770   1.300   2.315  10.001
 2813SOL    HW1 8771   1.241   2.395  10.005
 2813SOL    HW2 8772   1.315   2.280  10.094
 2814SOL     OW 8773   1.593   2.083  10.192
 2814SOL    HW1 8774   1.509   2.082  10.246
 2814SOL    HW2 8775   1.595   2.166  10.136
 2815SOL     OW 8776   0.039   2.939   9.610
 2815SOL    HW1 8777   0.138   2.928   9.601
 2815SOL    HW2 8778  -0.001   2.853   9.642
 2816SOL     OW 8779   0.875   3.508   9.647
 2816SOL    HW1 8780   0.798   3.473   9.593
 2816SOL    HW2 8781   0.843   3.579   9.709
 2817SOL     OW 8782   0.230   2.490  11.285
 2817SOL    HW1 8783   0.137   2.488  11.322
 2817SOL    HW2 8784   0.231   2.451  11.193
 2818SOL     OW 8785   0.225   2.137  12.168
 2818SOL    HW1 8786   0.260   2.120  12.260
 2818SOL    HW2 8787   0.137   2.092  12.156
 2819SOL     OW 8788   0.019   2.230  11.819
 2819SOL    HW1 8789  -0.063   2.273  11.858
 2819SOL    HW2 8790  -0.009   2.157  11.756
 2820SOL     OW 8791   0.569   3.137  12.337
 2820SOL    HW1 8792   0.476   3.130  12.300
 2820SOL    HW2 8793   0.580   3.226  12.381
 2821SOL     OW 8794   1.555   3.373  11.875
 2821SOL    HW1 8795   1.498   3.357  11.956
 2821SOL    HW2 8796   1.496   3.383  11.795
 2822SOL     OW 8797   1.135   2.565  11.889
 2822SOL    HW1 8798   1.192   2.643  11.864
 2822SOL    HW2 8799   1.075   2.591  11.965
 2823SOL     OW 8800   1.755   2.469  11.403
 2823SOL    HW1 8801   1.743   2.456  11.304
 2823SOL    HW2 8802   1.725   2.388  11.452
 2824SOL     OW 8803   0.768   3.006  12.195
 2824SOL    HW1 8804   0.690   3.023  12.255
 2824SOL    HW2 8805   0.802   3.093  12.159
 2825SOL     OW 8806   0.850   2.660  12.995
 2825SOL    HW1 8807   0.846   2.736  13.060
 2825SOL    HW2 8808   0.872   2.696  12.904
 2826SOL     OW 8809   0.685   2.874  11.837
 2826SOL    HW1 8810   0.754   2.858  11.907
 2826SOL    HW2 8811   0.612   2.931  11.875
 2827SOL     OW 8812   0.686   3.023  12.975
 2827SOL    HW1 8813   0.746   3.102  12.989
 2827SOL    HW2 8814   0.600   3.054  12.934
 2828SOL     OW 8815   0.335   3.297  12.233
 2828SOL    HW1 8816   0.257   3.266  12.180
 2828SOL    HW2 8817   0.393   3.355  12.176
 2829SOL     OW 8818   1.460   3.367  12.511
 2829SOL    HW1 8819   1.484   3.461  12.537
 2829SOL    HW2 8820   1.444   3.313  12.593
 2830SOL     OW 8821   0.438   2.254  12.671
 2830SOL    HW1 8822   0.520   2.198  12.680
 2830SOL    HW2 8823   0.357   2.196  12.675
 2831SOL     OW 8824   1.603   2.309  11.909
 2831SOL    HW1 8825   1.529   2.355  11.859
 2831SOL    HW2 8826   1.654   2.377  11.962
 2832SOL     OW 8827   0.231   3.575  11.655
 2832SOL    HW1 8828   0.265   3.652  11.709
 2832SOL    HW2 8829   0.275   3.575  11.565
 2833SOL     OW 8830   1.127   3.203  12.862
 2833SOL    HW1 8831   1.174   3.203  12.950
 2833SOL    HW2 8832   1.079   3.116  12.851
 2834SOL     OW 8833   0.230   3.296  11.710
 2834SOL    HW1 8834   0.204   3.392  11.710
 2834SOL    HW2 8835   0.159   3.242  11.755
 2835SOL     OW 8836   0.240   2.953  12.058
 2835SOL    HW1 8837   0.254   2.869  12.110
 2835SOL    HW2 8838   0.185   3.017  12.113
 2836SOL     OW 8839   0.620   3.648  12.611
 2836SOL    HW1 8840   0.528   3.631  12.646
 2836SOL    HW2 8841   0.648   3.740  12.637
 2837SOL     OW 8842   0.606   2.826  11.295
 2837SOL    HW1 8843   0.613   2.910  11.241
 2837SOL    HW2 8844   0.652   2.839  11.383
 2838SOL     OW 8845   1.594   1.976  12.652
 2838SOL    HW1 8846   1.576   2.043  12.580
 2838SOL    HW2 8847   1.591   2.022  12.741
 2839SOL     OW 8848   0.122   2.505  11.735
 2839SOL    HW1 8849   0.077   2.417  11.752
 2839SOL    HW2 8850   0.121   2.559  11.819
 2840SOL     OW 8851   1.842   3.629  11.531
 2840SOL    HW1 8852   1.896   3.600  11.611
 2840SOL    HW2 8853   1.872   3.719  11.502
 2841SOL     OW 8854   0.027   3.458  11.289
 2841SOL    HW1 8855   0.008   3.362  11.310
 2841SOL    HW2 8856  -0.006   3.516  11.364
 2842SOL     OW 8857   1.689   2.784  11.784
 2842SOL    HW1 8858   1.784   2.755  11.792
 2842SOL    HW2 8859   1.681   2.849  11.709
 2843SOL     OW 8860   1.641   2.970  11.604
 2843SOL    HW1 8861   1.727   2.972  11.552
 2843SOL    HW2 8862   1.655   3.017  11.692
 2844SOL     OW 8863   0.113   2.599  12.769
 2844SOL    HW1 8864   0.201   2.586  12.814
 2844SOL    HW2 8865   0.100   2.696  12.747
 2845SOL     OW 8866   0.613   3.227  11.898
 2845SOL    HW1 8867   0.564   3.140  11.907
 2845SOL    HW2 8868   0.590   3.270  11.811
 2846SOL     OW 8869   1.293   3.090  12.595
 2846SOL    HW1 8870   1.330   3.017  12.537
 2846SOL    HW2 8871   1.345   3.095  12.680
 2847SOL     OW 8872   0.809   1.866  11.674
 2847SOL    HW1 8873   0.849   1.957  11.665
 2847SOL    HW2 8874   0.709   1.874  11.680
 2848SOL     OW 8875   0.197   2.838  12.436
 2848SOL    HW1 8876   0.286   2.793  12.422
 2848SOL    HW2 8877   0.124   2.773  12.417
 2849SOL     OW 8878   1.525   2.861  11.362
 2849SOL    HW1 8879   1.462   2.785  11.375
 2849SOL    HW2 8880   1.573   2.879  11.448
 2850SOL     OW 8881   1.187   3.654  12.788
 2850SOL    HW1 8882   1.211   3.714  12.712
 2850SOL    HW2 8883   1.194   3.559  12.758
 2851SOL     OW 8884   0.317   2.113  12.973
 2851SOL    HW1 8885   0.388   2.184  12.979
 2851SOL    HW2 8886   0.229   2.152  13.001
 2852SOL     OW 8887   1.466   3.279  12.125
 2852SOL    HW1 8888   1.407   3.285  12.205
 2852SOL    HW2 8889   1.451   3.191  12.079
 2853SOL     OW 8890   1.667   3.576  11.744
 2853SOL    HW1 8891   1.626   3.553  11.656
 2853SOL    HW2 8892   1.649   3.502  11.809
 2854SOL     OW 8893   0.598   2.591  11.442
 2854SOL    HW1 8894   0.622   2.660  11.374
 2854SOL    HW2 8895   0.520   2.624  11.496
 2855SOL     OW 8896   1.281   2.207  12.116
 2855SOL    HW1 8897   1.195   2.157  12.103
 2855SOL    HW2 8898   1.343   2.153  12.172
 2856SOL     OW 8899   1.576   3.524  11.479
 2856SOL    HW1 8900   1.665   3.570  11.482
 2856SOL    HW2 8901   1.555   3.500  11.384
 2857SOL     OW 8902   0.807   2.467  12.637
 2857SOL    HW1 8903   0.760   2.464  12.726
 2857SOL    HW2 8904   0.756   2.412  12.571
 2858SOL     OW 8905   1.394   2.331  12.846
 2858SOL    HW1 8906   1.374   2.374  12.934
 2858SOL    HW2 8907   1.472   2.269  12.855
 2859SOL     OW 8908   0.973   2.752  12.744
 2859SOL    HW1 8909   1.019   2.668  12.715
 2859SOL    HW2 8910   0.917   2.786  12.669
 2860SOL     OW 8911   0.991   2.272  12.414
 2860SOL    HW1 8912   0.914   2.306  12.468
 2860SOL    HW2 8913   0.957   2.221  12.335
 2861SOL     OW 8914   1.041   2.563  11.601
 2861SOL    HW1 8915   1.067   2.559  11.697
 2861SOL    HW2 8916   0.956   2.512  11.587
 2862SOL     OW 8917   0.076   2.673  11.961
 2862SOL    HW1 8918   0.175   2.661  11.970
 2862SOL    HW2 8919   0.052   2.768  11.982
 2863SOL     OW 8920   0.130   3.683  12.743
 2863SOL    HW1 8921   0.120   3.668  12.842
 2863SOL    HW2 8922   0.044   3.719  12.707
 2864SOL     OW 8923   0.865   2.210  11.367
 2864SOL    HW1 8924   0.924   2.273  11.318
 2864SOL    HW2 8925   0.884   2.116  11.338
 2865SOL     OW 8926   1.719   2.447  13.003
 2865SOL    HW1 8927   1.693   2.536  12.967
 2865SOL    HW2 8928   1.717   2.379  12.930
 2866SOL     OW 8929   1.362   3.006  11.717
 2866SOL    HW1 8930   1.445   2.977  11.669
 2866SOL    HW2 8931   1.313   3.073  11.661
 2867SOL     OW 8932   0.550   2.058  12.057
 2867SOL    HW1 8933   0.545   2.053  12.157
 2867SOL    HW2 8934   0.552   2.154  12.028
 2868SOL     OW 8935   1.008   3.318  11.649
 2868SOL    HW1 8936   0.962   3.390  11.597
 2868SOL    HW2 8937   1.004   3.338  11.747
 2869SOL     OW 8938   0.351   3.663  12.025
 2869SOL    HW1 8939   0.401   3.577  12.031
 2869SOL    HW2 8940   0.416   3.740  12.022
 2870SOL     OW 8941   1.795   2.928  12.045
 2870SOL    HW1 8942   1.733   2.913  11.969
 2870SOL    HW2 8943   1.743   2.939  12.130
 2871SOL     OW 8944   1.227   3.412  12.678
 2871SOL    HW1 8945   1.233   3.335  12.742
 2871SOL    HW2 8946   1.175   3.386  12.598
 2872SOL     OW 8947   0.321   2.805  11.414
 2872SOL    HW1 8948   0.403   2.844  11.372
 2872SOL    HW2 8949   0.294   2.723  11.365
 2873SOL     OW 8950   1.458   2.597  11.900
 2873SOL    HW1 8951   1.453   2.532  11.975
 2873SOL    HW2 8952   1.538   2.656  11.913
 2874SOL     OW 8953   0.461   3.128  12.899
 2874SOL    HW1 8954   0.411   3.129  12.813
 2874SOL    HW2 8955   0.398   3.110  12.975
 2875SOL     OW 8956   1.111   3.638  11.409
 2875SOL    HW1 8957   1.051   3.576  11.459
 2875SOL    HW2 8958   1.142   3.594  11.324
 2876SOL     OW 8959   0.202   2.147  12.670
 2876SOL    HW1 8960   0.122   2.207  12.657
 2876SOL    HW2 8961   0.192   2.098  12.756
 2877SOL     OW 8962   1.632   3.239  11.253
 2877SOL    HW1 8963   1.600   3.333  11.243
 2877SOL    HW2 8964   1.556   3.176  11.241
 2878SOL     OW 8965   0.464   3.605  11.495
 2878SOL    HW1 8966   0.497   3.644  11.581
 2878SOL    HW2 8967   0.540   3.598  11.430
 2879SOL     OW 8968   1.400   1.969  11.598
 2879SOL    HW1 8969   1.376   1.932  11.508
 2879SOL    HW2 8970   1.499   1.985  11.602
 2880SOL     OW 8971   0.249   3.647  12.413
 2880SOL    HW1 8972   0.306   3.582  12.463
 2880SOL    HW2 8973   0.233   3.614  12.320
 2881SOL     OW 8974   0.940   3.560  12.076
 2881SOL    HW1 8975   1.020   3.503  12.097
 2881SOL    HW2 8976   0.891   3.520  11.999
 2882SOL     OW 8977   0.382   2.562  11.652
 2882SOL    HW1 8978   0.427   2.472  11.649
 2882SOL    HW2 8979   0.288   2.551  11.685
 2883SOL     OW 8980   1.547   2.084  12.901
 2883SOL    HW1 8981   1.542   2.121  12.993
 2883SOL    HW2 8982   1.475   2.015  12.889
 2884SOL     OW 8983   0.614   1.984  11.289
 2884SOL    HW1 8984   0.712   1.962  11.296
 2884SOL    HW2 8985   0.583   1.967  11.196
 2885SOL     OW 8986   0.781   2.126  12.921
 2885SOL    HW1 8987   0.848   2.065  12.964
 2885SOL    HW2 8988   0.708   2.145  12.986
 2886SOL     OW 8989   0.888   3.376  12.367
 2886SOL    HW1 8990   0.865   3.351  12.273
 2886SOL    HW2 8991   0.949   3.307  12.406
 2887SOL     OW 8992   1.351   2.452  12.605
 2887SOL    HW1 8993   1.379   2.409  12.690
 2887SOL    HW2 8994   1.376   2.548  12.606
 2888SOL     OW 8995   0.803   3.264  12.096
 2888SOL    HW1 8996   0.893   3.278  12.054
 2888SOL    HW2 8997   0.732   3.266  12.025
 2889SOL     OW 8998   0.922   2.365  12.071
 2889SOL    HW1 8999   0.897   2.356  11.975
 2889SOL    HW2 9000   0.970   2.283  12.102
 2890SOL     OW 9001   0.539   1.926  11.684
 2890SOL    HW1 9002   0.458   1.927  11.742
 2890SOL    HW2 9003   0.542   2.009  11.629
 2891SOL     OW 9004   1.434   3.050  11.213
 2891SOL    HW1 9005   1.466   2.974  11.270
 2891SOL    HW2 9006   1.342   3.077  11.243
 2892SOL     OW 9007   0.297   1.897  11.343
 2892SOL    HW1 9008   0.346   1.981  11.322
 2892SOL    HW2 9009   0.359   1.832  11.388
 2893SOL     OW 9010   0.935   2.098  11.652
 2893SOL    HW1 9011   0.887   2.139  11.574
 2893SOL    HW2 9012   1.034   2.096  11.633
 2894SOL     OW 9013   1.076   2.545  12.636
 2894SOL    HW1 9014   0.996   2.484  12.639
 2894SOL    HW2 9015   1.157   2.492  12.612
 2895SOL     OW 9016   1.227   3.432  11.965
 2895SOL    HW1 9017   1.248   3.506  11.900
 2895SOL    HW2 9018   1.295   3.432  12.038
 2896SOL     OW 9019   0.459   3.014  11.913
 2896SOL    HW1 9020   0.388   2.987  11.978
 2896SOL    HW2 9021   0.433   2.986  11.820
 2897SOL     OW 9022   1.271   3.659  11.763
 2897SOL    HW1 9023   1.315   3.723  11.699
 2897SOL    HW2 9024   1.221   3.711  11.833
 2898SOL     OW 9025   1.032   2.411  11.188
 2898SOL    HW1 9026   0.991   2.493  11.149
 2898SOL    HW2 9027   1.096   2.437  11.261
 2899SOL     OW 9028   0.078   2.418  12.558
 2899SOL    HW1 9029   0.170   2.417  12.517
 2899SOL    HW2 9030   0.072   2.492  12.625
 2900SOL     OW 9031   0.561   2.084  12.319
 2900SOL    HW1 9032   0.599   2.000  12.356
 2900SOL    HW2 9033   0.473   2.103  12.363
 2901SOL     OW 9034   0.866   2.316  11.814
 2901SOL    HW1 9035   0.834   2.388  11.752
 2901SOL    HW2 9036   0.890   2.235  11.761
 2902SOL     OW 9037   1.017   1.901  11.925
 2902SOL    HW1 9038   0.945   1.906  11.856
 2902SOL    HW2 9039   0.993   1.832  11.994
 2903SOL     OW 9040   1.429   3.035  12.039
 2903SOL    HW1 9041   1.374   2.951  12.032
 2903SOL    HW2 9042   1.455   3.064  11.947
 2904SOL     OW 9043   1.466   2.452  12.164
 2904SOL    HW1 9044   1.436   2.357  12.171
 2904SOL    HW2 9045   1.539   2.468  12.230
 2905SOL     OW 9046   1.857   2.695  11.549
 2905SOL    HW1 9047   1.899   2.631  11.613
 2905SOL    HW2 9048   1.819   2.644  11.471
 2906SOL     OW 9049   0.488   3.247  11.346
 2906SOL    HW1 9050   0.401   3.232  11.393
 2906SOL    HW2 9051   0.471   3.273  11.251
 2907SOL     OW 9052   1.664   3.142  11.829
 2907SOL    HW1 9053   1.763   3.150  11.843
 2907SOL    HW2 9054   1.619   3.226  11.860
 2908SOL     OW 9055   1.390   2.437  11.250
 2908SOL    HW1 9056   1.336   2.416  11.331
 2908SOL    HW2 9057   1.481   2.396  11.259
 2909SOL     OW 9058   0.527   2.118  11.500
 2909SOL    HW1 9059   0.554   2.059  11.425
 2909SOL    HW2 9060   0.527   2.213  11.469
 2910SOL     OW 9061   1.754   3.085  12.760
 2910SOL    HW1 9062   1.845   3.046  12.747
 2910SOL    HW2 9063   1.762   3.181  12.784
 2911SOL     OW 9064   1.064   3.209  12.512
 2911SOL    HW1 9065   0.984   3.186  12.567
 2911SOL    HW2 9066   1.147   3.183  12.561
 2912SOL     OW 9067   1.592   3.491  12.797
 2912SOL    HW1 9068   1.619   3.525  12.707
 2912SOL    HW2 9069   1.671   3.453  12.843
 2913SOL     OW 9070   1.111   3.057  12.272
 2913SOL    HW1 9071   1.071   3.101  12.353
 2913SOL    HW2 9072   1.070   3.094  12.189
 2914SOL     OW 9073   1.638   2.961  12.251
 2914SOL    HW1 9074   1.643   3.042  12.310
 2914SOL    HW2 9075   1.552   2.963  12.200
 2915SOL     OW 9076   0.915   1.951  12.574
 2915SOL    HW1 9077   0.940   1.931  12.479
 2915SOL    HW2 9078   0.987   2.007  12.616
 2916SOL     OW 9079   0.980   2.978  12.891
 2916SOL    HW1 9080   0.881   2.984  12.901
 2916SOL    HW2 9081   1.003   2.898  12.835
 2917SOL     OW 9082   0.705   2.912  11.540
 2917SOL    HW1 9083   0.691   2.919  11.639
 2917SOL    HW2 9084   0.789   2.861  11.522
 2918SOL     OW 9085   0.410   2.675  12.423
 2918SOL    HW1 9086   0.496   2.687  12.473
 2918SOL    HW2 9087   0.368   2.588  12.450
 2919SOL     OW 9088   1.274   2.248  12.434
 2919SOL    HW1 9089   1.295   2.322  12.498
 2919SOL    HW2 9090   1.185   2.265  12.391
 2920SOL     OW 9091   0.064   3.426  12.503
 2920SOL    HW1 9092   0.018   3.508  12.469
 2920SOL    HW2 9093   0.162   3.445  12.512
 2921SOL     OW 9094   0.367   2.962  11.673
 2921SOL    HW1 9095   0.360   3.045  11.617
 2921SOL    HW2 9096   0.371   2.882  11.613
 2922SOL     OW 9097   0.566   2.399  12.037
 2922SOL    HW1 9098   0.578   2.465  11.963
 2922SOL    HW2 9099   0.612   2.433  12.120
 2923SOL     OW 9100   1.252   3.210  11.560
 2923SOL    HW1 9101   1.302   3.287  11.600
 2923SOL    HW2 9102   1.157   3.212  11.592
 2924SOL     OW 9103   1.272   3.307  12.314
 2924SOL    HW1 9104   1.319   3.320  12.401
 2924SOL    HW2 9105   1.206   3.233  12.323
 2925SOL     OW 9106   1.582   2.501  11.644
 2925SOL    HW1 9107   1.551   2.562  11.717
 2925SOL    HW2 9108   1.632   2.553  11.575
 2926SOL     OW 9109   0.354   3.372  12.501
 2926SOL    HW1 9110   0.333   3.328  12.414
 2926SOL    HW2 9111   0.451   3.398  12.504
 2927SOL     OW 9112   0.402   2.613  12.770
 2927SOL    HW1 9113   0.470   2.668  12.723
 2927SOL    HW2 9114   0.442   2.525  12.797
 2928SOL     OW 9115   1.587   2.641  12.842
 2928SOL    HW1 9116   1.495   2.679  12.837
 2928SOL    HW2 9117   1.647   2.688  12.777
 2929SOL     OW 9118   1.013   1.967  12.942
 2929SOL    HW1 9119   1.019   2.052  12.890
 2929SOL    HW2 9120   1.045   1.891  12.885
 2930SOL     OW 9121   0.504   1.912  12.912
 2930SOL    HW1 9122   0.462   1.855  12.842
 2930SOL    HW2 9123   0.438   1.981  12.944
 2931SOL     OW 9124   0.573   2.732  12.201
 2931SOL    HW1 9125   0.617   2.821  12.192
 2931SOL    HW2 9126   0.510   2.732  12.278
 2932SOL     OW 9127   1.360   2.724  12.217
 2932SOL    HW1 9128   1.285   2.724  12.151
 2932SOL    HW2 9129   1.397   2.632  12.226
 2933SOL     OW 9130   1.209   2.387  11.447
 2933SOL    HW1 9131   1.222   2.303  11.501
 2933SOL    HW2 9132   1.180   2.461  11.507
 2934SOL     OW 9133   0.307   2.075  12.403
 2934SOL    HW1 9134   0.284   2.112  12.493
 2934SOL    HW2 9135   0.277   1.980  12.397
 2935SOL     OW 9136   0.037   3.172  12.454
 2935SOL    HW1 9137   0.090   3.123  12.522
 2935SOL    HW2 9138   0.059   3.270  12.459
 2936SOL     OW 9139   0.732   2.496  12.236
 2936SOL    HW1 9140   0.791   2.470  12.160
 2936SOL    HW2 9141   0.704   2.592  12.225
 2937SOL     OW 9142   1.728   2.797  13.026
 2937SOL    HW1 9143   1.682   2.790  12.937
 2937SOL    HW2 9144   1.666   2.841  13.092
 2938SOL     OW 9145   0.307   1.925  11.790
 2938SOL    HW1 9146   0.296   2.019  11.823
 2938SOL    HW2 9147   0.302   1.862  11.867
 2939SOL     OW 9148   1.622   2.229  11.546
 2939SOL    HW1 9149   1.624   2.153  11.610
 2939SOL    HW2 9150   1.574   2.306  11.586
 2940SOL     OW 9151   1.023   2.628  12.138
 2940SOL    HW1 9152   1.038   2.649  12.234
 2940SOL    HW2 9153   0.993   2.533  12.129
 2941SOL     OW 9154   0.980   3.435  12.872
 2941SOL    HW1 9155   0.960   3.479  12.784
 2941SOL    HW2 9156   1.019   3.344  12.856
 2942SOL     OW 9157   1.859   3.380  12.777
 2942SOL    HW1 9158   1.873   3.407  12.682
 2942SOL    HW2 9159   1.942   3.402  12.830
 2943SOL     OW 9160   0.350   2.760  12.976
 2943SOL    HW1 9161   0.426   2.804  13.024
 2943SOL    HW2 9162   0.385   2.713  12.894
 2944SOL     OW 9163   1.540   2.136  11.297
 2944SOL    HW1 9164   1.479   2.061  11.320
 2944SOL    HW2 9165   1.562   2.188  11.380
 2945SOL     OW 9166   1.303   2.700  11.214
 2945SOL    HW1 9167   1.337   2.607  11.229
 2945SOL    HW2 9168   1.321   2.727  11.119
 2946SOL     OW 9169   1.068   3.195  12.021
 2946SOL    HW1 9170   1.075   3.111  11.966
 2946SOL    HW2 9171   1.130   3.264  11.985
 2947SOL     OW 9172   0.319   2.672  12.121
 2947SOL    HW1 9173   0.412   2.708  12.126
 2947SOL    HW2 9174   0.313   2.587  12.173
 2948SOL     OW 9175   0.339   2.371  12.178
 2948SOL    HW1 9176   0.287   2.288  12.161
 2948SOL    HW2 9177   0.416   2.376  12.114
 2949SOL     OW 9178   1.138   2.242  12.850
 2949SOL    HW1 9179   1.093   2.305  12.914
 2949SOL    HW2 9180   1.231   2.273  12.833
 2950SOL     OW 9181   1.160   2.069  12.649
 2950SOL    HW1 9182   1.160   2.133  12.726
 2950SOL    HW2 9183   1.188   2.117  12.566
 2951SOL     OW 9184   0.008   3.188  11.372
 2951SOL    HW1 9185  -0.085   3.209  11.341
 2951SOL    HW2 9186   0.018   3.089  11.385
 2952SOL     OW 9187   0.088   3.663  12.099
 2952SOL    HW1 9188   0.046   3.577  12.072
 2952SOL    HW2 9189   0.182   3.666  12.065
 2953SOL     OW 9190   0.504   3.430  12.082
 2953SOL    HW1 9191   0.570   3.504  12.091
 2953SOL    HW2 9192   0.548   3.351  12.040
 2954SOL     OW 9193   1.002   2.658  12.410
 2954SOL    HW1 9194   1.043   2.626  12.496
 2954SOL    HW2 9195   0.906   2.631  12.407
 2955SOL     OW 9196   0.040   2.406  12.286
 2955SOL    HW1 9197   0.125   2.373  12.245
 2955SOL    HW2 9198   0.053   2.421  12.384
 2956SOL     OW 9199   0.189   2.382  12.894
 2956SOL    HW1 9200   0.248   2.342  12.824
 2956SOL    HW2 9201   0.131   2.453  12.853
 2957SOL     OW 9202   1.369   2.812  12.832
 2957SOL    HW1 9203   1.408   2.901  12.852
 2957SOL    HW2 9204   1.379   2.792  12.735
 2958SOL     OW 9205   0.815   2.434  11.497
 2958SOL    HW1 9206   0.822   2.345  11.451
 2958SOL    HW2 9207   0.721   2.468  11.489
 2959SOL     OW 9208   1.657   2.466  12.378
 2959SOL    HW1 9209   1.619   2.397  12.440
 2959SOL    HW2 9210   1.739   2.430  12.334
 2960SOL     OW 9211   0.252   3.426  12.916
 2960SOL    HW1 9212   0.222   3.483  12.992
 2960SOL    HW2 9213   0.245   3.329  12.942
 2961SOL     OW 9214   0.671   2.326  12.441
 2961SOL    HW1 9215   0.637   2.237  12.411
 2961SOL    HW2 9216   0.697   2.380  12.361
 2962SOL     OW 9217   0.930   3.540  12.637
 2962SOL    HW1 9218   0.906   3.522  12.542
 2962SOL    HW2 9219   0.960   3.634  12.647
 2963SOL     OW 9220   0.473   2.362  11.363
 2963SOL    HW1 9221   0.534   2.442  11.367
 2963SOL    HW2 9222   0.378   2.393  11.370
 2964SOL     OW 9223   0.159   2.999  12.638
 2964SOL    HW1 9224   0.181   2.938  12.714
 2964SOL    HW2 9225   0.169   2.950  12.552
 2965SOL     OW 9226   1.347   2.921  12.406
 2965SOL    HW1 9227   1.371   2.858  12.332
 2965SOL    HW2 9228   1.257   2.961  12.388
 2966SOL     OW 9229   1.302   2.717  11.481
 2966SOL    HW1 9230   1.216   2.686  11.523
 2966SOL    HW2 9231   1.298   2.703  11.382
 2967SOL     OW 9232   1.759   3.609  12.326
 2967SOL    HW1 9233   1.820   3.639  12.253
 2967SOL    HW2 9234   1.721   3.520  12.304
 2968SOL     OW 9235   1.252   3.593  12.300
 2968SOL    HW1 9236   1.336   3.598  12.246
 2968SOL    HW2 9237   1.229   3.497  12.318
 2969SOL     OW 9238   0.083   3.120  12.194
 2969SOL    HW1 9239   0.078   3.119  12.294
 2969SOL    HW2 9240   0.000   3.079  12.156
 2970SOL     OW 9241   0.688   3.524  12.888
 2970SOL    HW1 9242   0.632   3.605  12.897
 2970SOL    HW2 9243   0.740   3.528  12.802
 2971SOL     OW 9244   1.388   3.435  11.649
 2971SOL    HW1 9245   1.455   3.447  11.575
 2971SOL    HW2 9246   1.348   3.524  11.672
 2972SOL     OW 9247   0.130   3.656  13.023
 2972SOL    HW1 9248   0.089   3.582  13.076
 2972SOL    HW2 9249   0.194   3.707  13.081
 2973SOL     OW 9250   1.280   2.789  11.844
 2973SOL    HW1 9251   1.340   2.708  11.846
 2973SOL    HW2 9252   1.320   2.858  11.784
 2974SOL     OW 9253   0.830   3.135  12.594
 2974SOL    HW1 9254   0.825   3.168  12.689
 2974SOL    HW2 9255   0.744   3.154  12.548
 2975SOL     OW 9256   0.672   3.478  11.326
 2975SOL    HW1 9257   0.681   3.488  11.227
 2975SOL    HW2 9258   0.632   3.389  11.347
 2976SOL     OW 9259   1.650   3.582  12.566
 2976SOL    HW1 9260   1.703   3.592  12.482
 2976SOL    HW2 9261   1.623   3.672  12.600
 2977SOL     OW 9262   0.263   2.188  11.892
 2977SOL    HW1 9263   0.184   2.239  11.858
 2977SOL    HW2 9264   0.254   2.173  11.990
 2978SOL     OW 9265   1.194   3.474  11.203
 2978SOL    HW1 9266   1.200   3.381  11.240
 2978SOL    HW2 9267   1.135   3.474  11.123
 2979SOL     OW 9268   0.822   2.864  12.544
 2979SOL    HW1 9269   0.862   2.863  12.452
 2979SOL    HW2 9270   0.832   2.956  12.584
 2980SOL     OW 9271   0.916   2.772  11.463
 2980SOL    HW1 9272   0.979   2.810  11.395
 2980SOL    HW2 9273   0.956   2.689  11.502
 2981SOL     OW 9274   1.504   3.469  11.216
 2981SOL    HW1 9275   1.412   3.506  11.223
 2981SOL    HW2 9276   1.542   3.489  11.126
 2982SOL     OW 9277   0.372   3.150  12.662
 2982SOL    HW1 9278   0.359   3.243  12.628
 2982SOL    HW2 9279   0.288   3.098  12.649
 2983SOL     OW 9280   1.614   3.154  12.461
 2983SOL    HW1 9281   1.674   3.157  12.541
 2983SOL    HW2 9282   1.539   3.218  12.474
 2984SOL     OW 9283   1.039   2.960  11.868
 2984SOL    HW1 9284   0.969   2.913  11.922
 2984SOL    HW2 9285   1.098   2.892  11.825
 2985SOL     OW 9286   1.014   2.098  12.143
 2985SOL    HW1 9287   1.006   2.062  12.050
 2985SOL    HW2 9288   1.012   2.022  12.208
 2986SOL     OW 9289   0.590   3.349  11.663
 2986SOL    HW1 9290   0.632   3.291  11.593
 2986SOL    HW2 9291   0.546   3.428  11.619
 2987SOL     OW 9292   1.709   2.247  12.553
 2987SOL    HW1 9293   1.782   2.316  12.557
 2987SOL    HW2 9294   1.737   2.172  12.494
 2988SOL     OW 9295   0.255   3.210  11.462
 2988SOL    HW1 9296   0.159   3.211  11.435
 2988SOL    HW2 9297   0.267   3.263  11.546
 2989SOL     OW 9298   0.105   2.875  12.898
 2989SOL    HW1 9299   0.028   2.842  12.952
 2989SOL    HW2 9300   0.190   2.845  12.940
 2990SOL     OW 9301   0.672   2.065  12.661
 2990SOL    HW1 9302   0.762   2.049  12.621
 2990SOL    HW2 9303   0.680   2.070  12.760
 2991SOL     OW 9304   0.075   2.207  11.205
 2991SOL    HW1 9305  -0.017   2.179  11.176
 2991SOL    HW2 9306   0.106   2.284  11.149
 2992SOL     OW 9307   1.440   2.718  12.570
 2992SOL    HW1 9308   1.383   2.770  12.507
 2992SOL    HW2 9309   1.536   2.730  12.546
 2993SOL     OW 9310   0.072   2.028  11.490
 2993SOL    HW1 9311   0.055   2.111  11.436
 2993SOL    HW2 9312   0.162   1.991  11.468
 2994SOL     OW 9313   1.183   3.197  11.291
 2994SOL    HW1 9314   1.084   3.186  11.293
 2994SOL    HW2 9315   1.217   3.212  11.384
 2995SOL     OW 9316   0.613   2.704  12.603
 2995SOL    HW1 9317   0.669   2.785  12.586
 2995SOL    HW2 9318   0.672   2.624  12.606
 2996SOL     OW 9319   1.493   3.629  12.131
 2996SOL    HW1 9320   1.526   3.693  12.062
 2996SOL    HW2 9321   1.559   3.623  12.206
 2997SOL     OW 9322   0.716   2.427  12.880
 2997SOL    HW1 9323   0.735   2.492  12.954
 2997SOL    HW2 9324   0.776   2.347  12.889
 2998SOL     OW 9325   1.450   3.082  12.805
 2998SOL    HW1 9326   1.441   3.072  12.904
 2998SOL    HW2 9327   1.546   3.075  12.779
 2999SOL     OW 9328   0.390   3.603  12.732
 2999SOL    HW1 9329   0.299   3.644  12.730
 2999SOL    HW2 9330   0.383   3.509  12.764
 3000SOL     OW 9331   1.674   2.745  12.426
 3000SOL    HW1 9332   1.647   2.656  12.389
 3000SOL    HW2 9333   1.675   2.813  12.353
 3001SOL     OW 9334   1.225   2.187  11.621
 3001SOL    HW1 9335   1.290   2.113  11.610
 3001SOL    HW2 9336   1.245   2.237  11.705
 3002SOL     OW 9337   0.594   2.607  11.824
 3002SOL    HW1 9338   0.644   2.692  11.805
 3002SOL    HW2 9339   0.506   2.609  11.776
 3003SOL     OW 9340   1.777   2.204  12.814
 3003SOL    HW1 9341   1.760   2.235  12.720
 3003SOL    HW2 9342   1.693   2.167  12.852
 3004SOL     OW 9343   1.730   2.796  12.689
 3004SOL    HW1 9344   1.768   2.887  12.704
 3004SOL    HW2 9345   1.722   2.779  12.590
 3005SOL     OW 9346   0.859   3.236  11.188
 3005SOL    HW1 9347   0.813   3.251  11.276
 3005SOL    HW2 9348   0.903   3.321  11.158
 3006SOL     OW 9349   0.661   3.652  12.125
 3006SOL    HW1 9350   0.615   3.740  12.112
 3006SOL    HW2 9351   0.760   3.664  12.118
 3007SOL     OW 9352   0.859   2.818  12.033
 3007SOL    HW1 9353   0.913   2.749  12.081
 3007SOL    HW2 9354   0.827   2.887  12.099
 3008SOL     OW 9355   1.083   2.846  11.259
 3008SOL    HW1 9356   1.060   2.899  11.177
 3008SOL    HW2 9357   1.164   2.790  11.240
 3009SOL     OW 9358   1.861   3.431  12.023
 3009SOL    HW1 9359   1.790   3.419  11.953
 3009SOL    HW2 9360   1.862   3.352  12.083
 3010SOL     OW 9361   0.221   3.176  13.016
 3010SOL    HW1 9362   0.156   3.103  12.995
 3010SOL    HW2 9363   0.225   3.190  13.114
 3011SOL     OW 9364   0.079   3.102  11.825
 3011SOL    HW1 9365   0.078   3.055  11.913
 3011SOL    HW2 9366   0.161   3.074  11.774
 3012SOL     OW 9367   0.672   3.253  12.796
 3012SOL    HW1 9368   0.594   3.203  12.834
 3012SOL    HW2 9369   0.669   3.348  12.827
 3013SOL     OW 9370   0.428   2.286  11.692
 3013SOL    HW1 9371   0.458   2.214  11.630
 3013SOL    HW2 9372   0.389   2.246  11.775
 3014SOL     OW 9373   1.705   3.349  12.276
 3014SOL    HW1 9374   1.612   3.324  12.249
 3014SOL    HW2 9375   1.731   3.299  12.358
 3015SOL     OW 9376   0.317   2.409  12.452
 3015SOL    HW1 9377   0.355   2.350  12.524
 3015SOL    HW2 9378   0.357   2.383  12.364
 3016SOL     OW 9379   0.812   3.448  11.859
 3016SOL    HW1 9380   0.844   3.458  11.765
 3016SOL    HW2 9381   0.733   3.386  11.861
 3017SOL     OW 9382   1.424   2.076  12.284
 3017SOL    HW1 9383   1.476   2.011  12.339
 3017SOL    HW2 9384   1.375   2.139  12.345
 3018SOL     OW 9385   1.001   1.896  12.326
 3018SOL    HW1 9386   0.938   1.824  12.295
 3018SOL    HW2 9387   1.094   1.860  12.326
 3019SOL     OW 9388   0.770   3.192  11.473
 3019SOL    HW1 9389   0.724   3.105  11.490
 3019SOL    HW2 9390   0.861   3.189  11.514
 3020SOL     OW 9391   0.618   3.429  12.456
 3020SOL    HW1 9392   0.613   3.511  12.513
 3020SOL    HW2 9393   0.707   3.426  12.411
 3021SOL     OW 9394   1.352   1.914  11.340
 3021SOL    HW1 9395   1.387   1.873  11.256
 3021SOL    HW2 9396   1.262   1.876  11.360
 3022SOL     OW 9397   1.300   2.315  11.863
 3022SOL    HW1 9398   1.241   2.395  11.867
 3022SOL    HW2 9399   1.315   2.280  11.956
 3023SOL     OW 9400   1.593   2.083  12.054
 3023SOL    HW1 9401   1.509   2.082  12.108
 3023SOL    HW2 9402   1.595   2.166  11.998
 3024SOL     OW 9403   0.039   2.939  11.472
 3024SOL    HW1 9404   0.138   2.928  11.463
 3024SOL    HW2 9405  -0.001   2.853  11.504
 3025SOL     OW 9406   0.875   3.508  11.509
 3025SOL    HW1 9407   0.798   3.473  11.455
 3025SOL    HW2 9408   0.843   3.579  11.571
 3026SOL     OW 9409   0.230   2.490  13.147
 3026SOL    HW1 9410   0.137   2.488  13.184
 3026SOL    HW2 9411   0.231   2.451  13.055
 3027SOL     OW 9412   0.225   2.137  14.030
 3027SOL    HW1 9413   0.260   2.120  14.122
 3027SOL    HW2 9414   0.137   2.092  14.018
 3028SOL     OW 9415   0.019   2.230  13.681
 3028SOL    HW1 9416  -0.063   2.273  13.720
 3028SOL    HW2 9417  -0.009   2.157  13.618
 3029SOL     OW 9418   1.555   3.373  13.737
 3029SOL    HW1 9419   1.498   3.357  13.818
 3029SOL    HW2 9420   1.496   3.383  13.657
 3030SOL     OW 9421   1.135   2.565  13.751
 3030SOL    HW1 9422   1.192   2.643  13.726
 3030SOL    HW2 9423   1.075   2.591  13.827
 3031SOL     OW 9424   1.755   2.469  13.265
 3031SOL    HW1 9425   1.743   2.456  13.166
 3031SOL    HW2 9426   1.725   2.388  13.314
 3032SOL     OW 9427   0.685   2.874  13.699
 3032SOL    HW1 9428   0.754   2.858  13.769
 3032SOL    HW2 9429   0.612   2.931  13.737
 3033SOL     OW 9430   1.603   2.309  13.771
 3033SOL    HW1 9431   1.529   2.355  13.721
 3033SOL    HW2 9432   1.654   2.377  13.824
 3034SOL     OW 9433   0.231   3.575  13.517
 3034SOL    HW1 9434   0.265   3.652  13.571
 3034SOL    HW2 9435   0.275   3.575  13.427
 3035SOL     OW 9436   0.230   3.296  13.572
 3035SOL    HW1 9437   0.204   3.392  13.572
 3035SOL    HW2 9438   0.159   3.242  13.617
 3036SOL     OW 9439   0.240   2.953  13.920
 3036SOL    HW1 9440   0.254   2.869  13.972
 3036SOL    HW2 9441   0.185   3.017  13.975
 3037SOL     OW 9442   0.606   2.826  13.157
 3037SOL    HW1 9443   0.613   2.910  13.103
 3037SOL    HW2 9444   0.652   2.839  13.245
 3038SOL     OW 9445   0.122   2.505  13.597
 3038SOL    HW1 9446   0.077   2.417  13.614
 3038SOL    HW2 9447   0.121   2.559  13.681
 3039SOL     OW 9448   1.842   3.629  13.393
 3039SOL    HW1 9449   1.896   3.600  13.473
 3039SOL    HW2 9450   1.872   3.719  13.364
 3040SOL     OW 9451   0.027   3.458  13.151
 3040SOL    HW1 9452   0.008   3.362  13.172
 3040SOL    HW2 9453  -0.006   3.516  13.226
 3041SOL     OW 9454   1.689   2.784  13.646
 3041SOL    HW1 9455   1.784   2.755  13.654
 3041SOL    HW2 9456   1.681   2.849  13.571
 3042SOL     OW 9457   1.641   2.970  13.466
 3042SOL    HW1 9458   1.727   2.972  13.414
 3042SOL    HW2 9459   1.655   3.017  13.554
 3043SOL     OW 9460   0.613   3.227  13.760
 3043SOL    HW1 9461   0.564   3.140  13.769
 3043SOL    HW2 9462   0.590   3.270  13.673
 3044SOL     OW 9463   0.809   1.866  13.536
 3044SOL    HW1 9464   0.849   1.957  13.527
 3044SOL    HW2 9465   0.709   1.874  13.542
 3045SOL     OW 9466   1.525   2.861  13.224
 3045SOL    HW1 9467   1.462   2.785  13.237
 3045SOL    HW2 9468   1.573   2.879  13.310
 3046SOL     OW 9469   1.667   3.576  13.606
 3046SOL    HW1 9470   1.626   3.553  13.518
 3046SOL    HW2 9471   1.649   3.502  13.671
 3047SOL     OW 9472   0.598   2.591  13.304
 3047SOL    HW1 9473   0.622   2.660  13.236
 3047SOL    HW2 9474   0.520   2.624  13.358
 3048SOL     OW 9475   1.281   2.207  13.978
 3048SOL    HW1 9476   1.195   2.157  13.965
 3048SOL    HW2 9477   1.343   2.153  14.034
 3049SOL     OW 9478   1.576   3.524  13.341
 3049SOL    HW1 9479   1.665   3.570  13.344
 3049SOL    HW2 9480   1.555   3.500  13.246
 3050SOL     OW 9481   1.041   2.563  13.463
 3050SOL    HW1 9482   1.067   2.559  13.559
 3050SOL    HW2 9483   0.956   2.512  13.449
 3051SOL     OW 9484   0.076   2.673  13.823
 3051SOL    HW1 9485   0.175   2.661  13.832
 3051SOL    HW2 9486   0.052   2.768  13.844
 3052SOL     OW 9487   0.865   2.210  13.229
 3052SOL    HW1 9488   0.924   2.273  13.180
 3052SOL    HW2 9489   0.884   2.116  13.200
 3053SOL     OW 9490   1.362   3.006  13.579
 3053SOL    HW1 9491   1.445   2.977  13.531
 3053SOL    HW2 9492   1.313   3.073  13.523
 3054SOL     OW 9493   1.008   3.318  13.511
 3054SOL    HW1 9494   0.962   3.390  13.459
 3054SOL    HW2 9495   1.004   3.338  13.609
 3055SOL     OW 9496   0.351   3.663  13.887
 3055SOL    HW1 9497   0.401   3.577  13.893
 3055SOL    HW2 9498   0.416   3.740  13.884
 3056SOL     OW 9499   1.795   2.928  13.907
 3056SOL    HW1 9500   1.733   2.913  13.831
 3056SOL    HW2 9501   1.743   2.939  13.992
 3057SOL     OW 9502   0.321   2.805  13.276
 3057SOL    HW1 9503   0.403   2.844  13.234
 3057SOL    HW2 9504   0.294   2.723  13.227
 3058SOL     OW 9505   1.458   2.597  13.762
 3058SOL    HW1 9506   1.453   2.532  13.837
 3058SOL    HW2 9507   1.538   2.656  13.775
 3059SOL     OW 9508   1.111   3.638  13.271
 3059SOL    HW1 9509   1.051   3.576  13.321
 3059SOL    HW2 9510   1.142   3.594  13.186
 3060SOL     OW 9511   1.632   3.239  13.115
 3060SOL    HW1 9512   1.600   3.333  13.105
 3060SOL    HW2 9513   1.556   3.176  13.103
 3061SOL     OW 9514   0.464   3.605  13.357
 3061SOL    HW1 9515   0.497   3.644  13.443
 3061SOL    HW2 9516   0.540   3.598  13.292
 3062SOL     OW 9517   1.400   1.969  13.460
 3062SOL    HW1 9518   1.376   1.932  13.370
 3062SOL    HW2 9519   1.499   1.985  13.464
 3063SOL     OW 9520   0.940   3.560  13.938
 3063SOL    HW1 9521   1.020   3.503  13.959
 3063SOL    HW2 9522   0.891   3.520  13.861
 3064SOL     OW 9523   0.382   2.562  13.514
 3064SOL    HW1 9524   0.427   2.472  13.511
 3064SOL    HW2 9525   0.288   2.551  13.547
 3065SOL     OW 9526   0.614   1.984  13.151
 3065SOL    HW1 9527   0.712   1.962  13.158
 3065SOL    HW2 9528   0.583   1.967  13.058
 3066SOL     OW 9529   0.539   1.926  13.546
 3066SOL    HW1 9530   0.458   1.927  13.604
 3066SOL    HW2 9531   0.542   2.009  13.491
 3067SOL     OW 9532   1.434   3.050  13.075
 3067SOL    HW1 9533   1.466   2.974  13.132
 3067SOL    HW2 9534   1.342   3.077  13.105
 3068SOL     OW 9535   0.297   1.897  13.205
 3068SOL    HW1 9536   0.346   1.981  13.184
 3068SOL    HW2 9537   0.359   1.832  13.250
 3069SOL     OW 9538   0.935   2.098  13.514
 3069SOL    HW1 9539   0.887   2.139  13.436
 3069SOL    HW2 9540   1.034   2.096  13.495
 3070SOL     OW 9541   0.459   3.014  13.775
 3070SOL    HW1 9542   0.388   2.987  13.840
 3070SOL    HW2 9543   0.433   2.986  13.682
 3071SOL     OW 9544   1.271   3.659  13.625
 3071SOL    HW1 9545   1.315   3.723  13.561
 3071SOL    HW2 9546   1.221   3.711  13.695
 3072SOL     OW 9547   1.032   2.411  13.050
 3072SOL    HW1 9548   0.991   2.493  13.011
 3072SOL    HW2 9549   1.096   2.437  13.123
 3073SOL     OW 9550   0.866   2.316  13.676
 3073SOL    HW1 9551   0.834   2.388  13.614
 3073SOL    HW2 9552   0.890   2.235  13.623
 3074SOL     OW 9553   1.017   1.901  13.787
 3074SOL    HW1 9554   0.945   1.906  13.718
 3074SOL    HW2 9555   0.993   1.832  13.856
 3075SOL     OW 9556   1.857   2.695  13.411
 3075SOL    HW1 9557   1.899   2.631  13.475
 3075SOL    HW2 9558   1.819   2.644  13.333
 3076SOL     OW 9559   0.488   3.247  13.208
 3076SOL    HW1 9560   0.401   3.232  13.255
 3076SOL    HW2 9561   0.471   3.273  13.113
 3077SOL     OW 9562   1.664   3.142  13.691
 3077SOL    HW1 9563   1.763   3.150  13.705
 3077SOL    HW2 9564   1.619   3.226  13.722
 3078SOL     OW 9565   1.390   2.437  13.112
 3078SOL    HW1 9566   1.336   2.416  13.193
 3078SOL    HW2 9567   1.481   2.396  13.121
 3079SOL     OW 9568   0.527   2.118  13.362
 3079SOL    HW1 9569   0.554   2.059  13.287
 3079SOL    HW2 9570   0.527   2.213  13.331
 3080SOL     OW 9571   0.705   2.912  13.402
 3080SOL    HW1 9572   0.691   2.919  13.501
 3080SOL    HW2 9573   0.789   2.861  13.384
 3081SOL     OW 9574   0.367   2.962  13.535
 3081SOL    HW1 9575   0.360   3.045  13.479
 3081SOL    HW2 9576   0.371   2.882  13.475
 3082SOL     OW 9577   0.566   2.399  13.899
 3082SOL    HW1 9578   0.578   2.465  13.825
 3082SOL    HW2 9579   0.612   2.433  13.982
 3083SOL     OW 9580   1.252   3.210  13.422
 3083SOL    HW1 9581   1.302   3.287  13.462
 3083SOL    HW2 9582   1.157   3.212  13.454
 3084SOL     OW 9583   1.582   2.501  13.506
 3084SOL    HW1 9584   1.551   2.562  13.579
 3084SOL    HW2 9585   1.632   2.553  13.437
 3085SOL     OW 9586   1.209   2.387  13.309
 3085SOL    HW1 9587   1.222   2.303  13.363
 3085SOL    HW2 9588   1.180   2.461  13.369
 3086SOL     OW 9589   0.307   1.925  13.652
 3086SOL    HW1 9590   0.296   2.019  13.685
 3086SOL    HW2 9591   0.302   1.862  13.729
 3087SOL     OW 9592   1.622   2.229  13.408
 3087SOL    HW1 9593   1.624   2.153  13.472
 3087SOL    HW2 9594   1.574   2.306  13.448
 3088SOL     OW 9595   1.540   2.136  13.159
 3088SOL    HW1 9596   1.479   2.061  13.182
 3088SOL    HW2 9597   1.562   2.188  13.242
 3089SOL     OW 9598   1.303   2.700  13.076
 3089SOL    HW1 9599   1.337   2.607  13.091
 3089SOL    HW2 9600   1.321   2.727  12.981
 3090SOL     OW 9601   0.008   3.188  13.234
 3090SOL    HW1 9602  -0.085   3.209  13.203
 3090SOL    HW2 9603   0.018   3.089  13.247
 3091SOL     OW 9604   0.815   2.434  13.359
 3091SOL    HW1 9605   0.822   2.345  13.313
 3091SOL    HW2 9606   0.721   2.468  13.351
 3092SOL     OW 9607   0.473   2.362  13.225
 3092SOL    HW1 9608   0.534   2.442  13.229
 3092SOL    HW2 9609   0.378   2.393  13.232
 3093SOL     OW 9610   1.302   2.717  13.343
 3093SOL    HW1 9611   1.216   2.686  13.385
 3093SOL    HW2 9612   1.298   2.703  13.244
 3094SOL     OW 9613   1.388   3.435  13.511
 3094SOL    HW1 9614   1.455   3.447  13.437
 3094SOL    HW2 9615   1.348   3.524  13.534
 3095SOL     OW 9616   1.280   2.789  13.706
 3095SOL    HW1 9617   1.340   2.708  13.708
 3095SOL    HW2 9618   1.320   2.858  13.646
 3096SOL     OW 9619   0.672   3.478  13.188
 3096SOL    HW1 9620   0.681   3.488  13.089
 3096SOL    HW2 9621   0.632   3.389  13.209
 3097SOL     OW 9622   0.263   2.188  13.754
 3097SOL    HW1 9623   0.184   2.239  13.720
 3097SOL    HW2 9624   0.254   2.173  13.852
 3098SOL     OW 9625   1.194   3.474  13.065
 3098SOL    HW1 9626   1.200   3.381  13.102
 3098SOL    HW2 9627   1.135   3.474  12.985
 3099SOL     OW 9628   0.916   2.772  13.325
 3099SOL    HW1 9629   0.979   2.810  13.257
 3099SOL    HW2 9630   0.956   2.689  13.364
 3100SOL     OW 9631   1.504   3.469  13.078
 3100SOL    HW1 9632   1.412   3.506  13.085
 3100SOL    HW2 9633   1.542   3.489  12.988
 3101SOL     OW 9634   1.039   2.960  13.730
 3101SOL    HW1 9635   0.969   2.913  13.784
 3101SOL    HW2 9636   1.098   2.892  13.687
 3102SOL     OW 9637   0.590   3.349  13.525
 3102SOL    HW1 9638   0.632   3.291  13.455
 3102SOL    HW2 9639   0.546   3.428  13.481
 3103SOL     OW 9640   0.255   3.210  13.324
 3103SOL    HW1 9641   0.159   3.211  13.297
 3103SOL    HW2 9642   0.267   3.263  13.408
 3104SOL     OW 9643   0.075   2.207  13.067
 3104SOL    HW1 9644  -0.017   2.179  13.038
 3104SOL    HW2 9645   0.106   2.284  13.011
 3105SOL     OW 9646   0.072   2.028  13.352
 3105SOL    HW1 9647   0.055   2.111  13.298
 3105SOL    HW2 9648   0.162   1.991  13.330
 3106SOL     OW 9649   1.183   3.197  13.153
 3106SOL    HW1 9650   1.084   3.186  13.155
 3106SOL    HW2 9651   1.217   3.212  13.246
 3107SOL     OW 9652   1.225   2.187  13.483
 3107SOL    HW1 9653   1.290   2.113  13.472
 3107SOL    HW2 9654   1.245   2.237  13.567
 3108SOL     OW 9655   0.594   2.607  13.686
 3108SOL    HW1 9656   0.644   2.692  13.667
 3108SOL    HW2 9657   0.506   2.609  13.638
 3109SOL     OW 9658   0.859   3.236  13.050
 3109SOL    HW1 9659   0.813   3.251  13.138
 3109SOL    HW2 9660   0.903   3.321  13.020
 3110SOL     OW 9661   0.661   3.652  13.987
 3110SOL    HW1 9662   0.615   3.740  13.974
 3110SOL    HW2 9663   0.760   3.664  13.980
 3111SOL     OW 9664   0.859   2.818  13.895
 3111SOL    HW1 9665   0.913   2.749  13.943
 3111SOL    HW2 9666   0.827   2.887  13.961
 3112SOL     OW 9667   1.083   2.846  13.121
 3112SOL    HW1 9668   1.060   2.899  13.039
 3112SOL    HW2 9669   1.164   2.790  13.102
 3113SOL     OW 9670   0.079   3.102  13.687
 3113SOL    HW1 9671   0.078   3.055  13.775
 3113SOL    HW2 9672   0.161   3.074  13.636
 3114SOL     OW 9673   0.428   2.286  13.554
 3114SOL    HW1 9674   0.458   2.214  13.492
 3114SOL    HW2 9675   0.389   2.246  13.637
 3115SOL     OW 9676   1.705   3.349  14.138
 3115SOL    HW1 9677   1.612   3.324  14.111
 3115SOL    HW2 9678   1.731   3.299  14.220
 3116SOL     OW 9679   0.812   3.448  13.721
 3116SOL    HW1 9680   0.844   3.458  13.627
 3116SOL    HW2 9681   0.733   3.386  13.723
 3117SOL     OW 9682   0.770   3.192  13.335
 3117SOL    HW1 9683   0.724   3.105  13.352
 3117SOL    HW2 9684   0.861   3.189  13.376
 3118SOL     OW 9685   1.352   1.914  13.202
 3118SOL    HW1 9686   1.387   1.873  13.118
 3118SOL    HW2 9687   1.262   1.876  13.222
 3119SOL     OW 9688   1.300   2.315  13.725
 3119SOL    HW1 9689   1.241   2.395  13.729
 3119SOL    HW2 9690   1.315   2.280  13.818
 3120SOL     OW 9691   0.039   2.939  13.334
 3120SOL    HW1 9692   0.138   2.928  13.325
 3120SOL    HW2 9693  -0.001   2.853  13.366
 3121SOL     OW 9694   0.875   3.508  13.371
 3121SOL    HW1 9695   0.798   3.473  13.317
 3121SOL    HW2 9696   0.843   3.579  13.433
 3122SOL     OW 9697   0.225   3.999   0.996
 3122SOL    HW1 9698   0.260   3.982   1.088
 3122SOL    HW2 9699   0.137   3.954   0.984
 3123SOL     OW 9700   0.019   4.092   0.647
 3123SOL    HW1 9701  -0.063   4.135   0.686
 3123SOL    HW2 9702  -0.009   4.019   0.584
 3124SOL     OW 9703   1.755   4.331   0.231
 3124SOL    HW1 9704   1.743   4.318   0.132
 3124SOL    HW2 9705   1.725   4.250   0.280
 3125SOL     OW 9706   0.438   4.116   1.499
 3125SOL    HW1 9707   0.520   4.060   1.508
 3125SOL    HW2 9708   0.357   4.058   1.503
 3126SOL     OW 9709   1.594   3.838   1.480
 3126SOL    HW1 9710   1.576   3.905   1.408
 3126SOL    HW2 9711   1.591   3.884   1.569
 3127SOL     OW 9712   0.809   3.728   0.502
 3127SOL    HW1 9713   0.849   3.819   0.493
 3127SOL    HW2 9714   0.709   3.736   0.508
 3128SOL     OW 9715   1.281   4.069   0.944
 3128SOL    HW1 9716   1.195   4.019   0.931
 3128SOL    HW2 9717   1.343   4.015   1.000
 3129SOL     OW 9718   0.550   3.920   0.885
 3129SOL    HW1 9719   0.545   3.915   0.985
 3129SOL    HW2 9720   0.552   4.016   0.856
 3130SOL     OW 9721   0.202   4.009   1.498
 3130SOL    HW1 9722   0.122   4.069   1.485
 3130SOL    HW2 9723   0.192   3.960   1.584
 3131SOL     OW 9724   1.400   3.831   0.426
 3131SOL    HW1 9725   1.376   3.794   0.336
 3131SOL    HW2 9726   1.499   3.847   0.430
 3132SOL     OW 9727   1.547   3.946   1.729
 3132SOL    HW1 9728   1.542   3.983   1.821
 3132SOL    HW2 9729   1.475   3.877   1.717
 3133SOL     OW 9730   0.781   3.988   1.749
 3133SOL    HW1 9731   0.848   3.927   1.792
 3133SOL    HW2 9732   0.708   4.007   1.814
 3134SOL     OW 9733   0.539   3.788   0.512
 3134SOL    HW1 9734   0.458   3.789   0.570
 3134SOL    HW2 9735   0.542   3.871   0.457
 3135SOL     OW 9736   0.297   3.759   0.171
 3135SOL    HW1 9737   0.346   3.843   0.150
 3135SOL    HW2 9738   0.359   3.694   0.216
 3136SOL     OW 9739   0.561   3.946   1.147
 3136SOL    HW1 9740   0.599   3.862   1.184
 3136SOL    HW2 9741   0.473   3.965   1.191
 3137SOL     OW 9742   1.017   3.763   0.753
 3137SOL    HW1 9743   0.945   3.768   0.684
 3137SOL    HW2 9744   0.993   3.694   0.822
 3138SOL     OW 9745   0.915   3.813   1.402
 3138SOL    HW1 9746   0.940   3.793   1.307
 3138SOL    HW2 9747   0.987   3.869   1.444
 3139SOL     OW 9748   1.274   4.110   1.262
 3139SOL    HW1 9749   1.295   4.184   1.326
 3139SOL    HW2 9750   1.185   4.127   1.219
 3140SOL     OW 9751   0.504   3.774   1.740
 3140SOL    HW1 9752   0.462   3.717   1.670
 3140SOL    HW2 9753   0.438   3.843   1.772
 3141SOL     OW 9754   0.307   3.937   1.231
 3141SOL    HW1 9755   0.284   3.974   1.321
 3141SOL    HW2 9756   0.277   3.842   1.225
 3142SOL     OW 9757   1.540   3.998   0.125
 3142SOL    HW1 9758   1.479   3.923   0.148
 3142SOL    HW2 9759   1.562   4.050   0.208
 3143SOL     OW 9760   1.160   3.931   1.477
 3143SOL    HW1 9761   1.160   3.995   1.554
 3143SOL    HW2 9762   1.188   3.979   1.394
 3144SOL     OW 9763   0.903   3.810   0.133
 3144SOL    HW1 9764   0.954   3.811   0.047
 3144SOL    HW2 9765   0.959   3.768   0.204
 3145SOL     OW 9766   1.726   3.859   0.523
 3145SOL    HW1 9767   1.799   3.842   0.456
 3145SOL    HW2 9768   1.695   3.772   0.561
 3146SOL     OW 9769   1.841   3.899   0.963
 3146SOL    HW1 9770   1.880   3.814   0.927
 3146SOL    HW2 9771   1.743   3.901   0.944
 3147SOL     OW 9772   0.672   3.927   1.489
 3147SOL    HW1 9773   0.762   3.911   1.449
 3147SOL    HW2 9774   0.680   3.932   1.588
 3148SOL     OW 9775   0.075   4.069   0.033
 3148SOL    HW1 9776  -0.017   4.041   0.004
 3148SOL    HW2 9777   0.106   4.146  -0.023
 3149SOL     OW 9778   0.072   3.890   0.318
 3149SOL    HW1 9779   0.055   3.973   0.264
 3149SOL    HW2 9780   0.162   3.853   0.296
 3150SOL     OW 9781   1.225   4.049   0.449
 3150SOL    HW1 9782   1.290   3.975   0.438
 3150SOL    HW2 9783   1.245   4.099   0.533
 3151SOL     OW 9784   1.777   4.066   1.642
 3151SOL    HW1 9785   1.760   4.097   1.548
 3151SOL    HW2 9786   1.693   4.029   1.680
 3152SOL     OW 9787   1.824   3.916   1.227
 3152SOL    HW1 9788   1.820   3.826   1.271
 3152SOL    HW2 9789   1.827   3.905   1.128
 3153SOL     OW 9790   1.424   3.938   1.112
 3153SOL    HW1 9791   1.476   3.873   1.167
 3153SOL    HW2 9792   1.375   4.001   1.173
 3154SOL     OW 9793   1.001   3.758   1.154
 3154SOL    HW1 9794   0.938   3.686   1.123
 3154SOL    HW2 9795   1.094   3.722   1.154
 3155SOL     OW 9796   1.352   3.776   0.168
 3155SOL    HW1 9797   1.387   3.735   0.084
 3155SOL    HW2 9798   1.262   3.738   0.188
 3156SOL     OW 9799   1.300   4.177   0.691
 3156SOL    HW1 9800   1.241   4.257   0.695
 3156SOL    HW2 9801   1.315   4.142   0.784
 3157SOL     OW 9802   1.593   3.945   0.882
 3157SOL    HW1 9803   1.509   3.944   0.936
 3157SOL    HW2 9804   1.595   4.028   0.826
 3158SOL     OW 9805   0.225   3.999   2.858
 3158SOL    HW1 9806   0.260   3.982   2.950
 3158SOL    HW2 9807   0.137   3.954   2.846
 3159SOL     OW 9808   0.019   4.092   2.509
 3159SOL    HW1 9809  -0.063   4.135   2.548
 3159SOL    HW2 9810  -0.009   4.019   2.446
 3160SOL     OW 9811   1.755   4.331   2.093
 3160SOL    HW1 9812   1.743   4.318   1.994
 3160SOL    HW2 9813   1.725   4.250   2.142
 3161SOL     OW 9814   0.438   4.116   3.361
 3161SOL    HW1 9815   0.520   4.060   3.370
 3161SOL    HW2 9816   0.357   4.058   3.365
 3162SOL     OW 9817   1.594   3.838   3.342
 3162SOL    HW1 9818   1.576   3.905   3.270
 3162SOL    HW2 9819   1.591   3.884   3.431
 3163SOL     OW 9820   0.809   3.728   2.364
 3163SOL    HW1 9821   0.849   3.819   2.355
 3163SOL    HW2 9822   0.709   3.736   2.370
 3164SOL     OW 9823   1.281   4.069   2.806
 3164SOL    HW1 9824   1.195   4.019   2.793
 3164SOL    HW2 9825   1.343   4.015   2.862
 3165SOL     OW 9826   0.550   3.920   2.747
 3165SOL    HW1 9827   0.545   3.915   2.847
 3165SOL    HW2 9828   0.552   4.016   2.718
 3166SOL     OW 9829   0.202   4.009   3.360
 3166SOL    HW1 9830   0.122   4.069   3.347
 3166SOL    HW2 9831   0.192   3.960   3.446
 3167SOL     OW 9832   1.400   3.831   2.288
 3167SOL    HW1 9833   1.376   3.794   2.198
 3167SOL    HW2 9834   1.499   3.847   2.292
 3168SOL     OW 9835   1.547   3.946   3.591
 3168SOL    HW1 9836   1.542   3.983   3.683
 3168SOL    HW2 9837   1.475   3.877   3.579
 3169SOL     OW 9838   0.614   3.846   1.979
 3169SOL    HW1 9839   0.712   3.824   1.986
 3169SOL    HW2 9840   0.583   3.829   1.886
 3170SOL     OW 9841   0.781   3.988   3.611
 3170SOL    HW1 9842   0.848   3.927   3.654
 3170SOL    HW2 9843   0.708   4.007   3.676
 3171SOL     OW 9844   0.539   3.788   2.374
 3171SOL    HW1 9845   0.458   3.789   2.432
 3171SOL    HW2 9846   0.542   3.871   2.319
 3172SOL     OW 9847   0.297   3.759   2.033
 3172SOL    HW1 9848   0.346   3.843   2.012
 3172SOL    HW2 9849   0.359   3.694   2.078
 3173SOL     OW 9850   0.561   3.946   3.009
 3173SOL    HW1 9851   0.599   3.862   3.046
 3173SOL    HW2 9852   0.473   3.965   3.053
 3174SOL     OW 9853   1.017   3.763   2.615
 3174SOL    HW1 9854   0.945   3.768   2.546
 3174SOL    HW2 9855   0.993   3.694   2.684
 3175SOL     OW 9856   0.915   3.813   3.264
 3175SOL    HW1 9857   0.940   3.793   3.169
 3175SOL    HW2 9858   0.987   3.869   3.306
 3176SOL     OW 9859   1.274   4.110   3.124
 3176SOL    HW1 9860   1.295   4.184   3.188
 3176SOL    HW2 9861   1.185   4.127   3.081
 3177SOL     OW 9862   0.504   3.774   3.602
 3177SOL    HW1 9863   0.462   3.717   3.532
 3177SOL    HW2 9864   0.438   3.843   3.634
 3178SOL     OW 9865   0.307   3.937   3.093
 3178SOL    HW1 9866   0.284   3.974   3.183
 3178SOL    HW2 9867   0.277   3.842   3.087
 3179SOL     OW 9868   1.540   3.998   1.987
 3179SOL    HW1 9869   1.479   3.923   2.010
 3179SOL    HW2 9870   1.562   4.050   2.070
 3180SOL     OW 9871   1.160   3.931   3.339
 3180SOL    HW1 9872   1.160   3.995   3.416
 3180SOL    HW2 9873   1.188   3.979   3.256
 3181SOL     OW 9874   0.903   3.810   1.995
 3181SOL    HW1 9875   0.954   3.811   1.909
 3181SOL    HW2 9876   0.959   3.768   2.066
 3182SOL     OW 9877   1.726   3.859   2.385
 3182SOL    HW1 9878   1.799   3.842   2.318
 3182SOL    HW2 9879   1.695   3.772   2.423
 3183SOL     OW 9880   1.841   3.899   2.825
 3183SOL    HW1 9881   1.880   3.814   2.789
 3183SOL    HW2 9882   1.743   3.901   2.806
 3184SOL     OW 9883   0.672   3.927   3.351
 3184SOL    HW1 9884   0.762   3.911   3.311
 3184SOL    HW2 9885   0.680   3.932   3.450
 3185SOL     OW 9886   0.075   4.069   1.895
 3185SOL    HW1 9887  -0.017   4.041   1.866
 3185SOL    HW2 9888   0.106   4.146   1.839
 3186SOL     OW 9889   0.072   3.890   2.180
 3186SOL    HW1 9890   0.055   3.973   2.126
 3186SOL    HW2 9891   0.162   3.853   2.158
 3187SOL     OW 9892   1.225   4.049   2.311
 3187SOL    HW1 9893   1.290   3.975   2.300
 3187SOL    HW2 9894   1.245   4.099   2.395
 3188SOL     OW 9895   1.777   4.066   3.504
 3188SOL    HW1 9896   1.760   4.097   3.410
 3188SOL    HW2 9897   1.693   4.029   3.542
 3189SOL     OW 9898   1.824   3.916   3.089
 3189SOL    HW1 9899   1.820   3.826   3.133
 3189SOL    HW2 9900   1.827   3.905   2.990
 3190SOL     OW 9901   1.424   3.938   2.974
 3190SOL    HW1 9902   1.476   3.873   3.029
 3190SOL    HW2 9903   1.375   4.001   3.035
 3191SOL     OW 9904   1.001   3.758   3.016
 3191SOL    HW1 9905   0.938   3.686   2.985
 3191SOL    HW2 9906   1.094   3.722   3.016
 3192SOL     OW 9907   1.352   3.776   2.030
 3192SOL    HW1 9908   1.387   3.735   1.946
 3192SOL    HW2 9909   1.262   3.738   2.050
 3193SOL     OW 9910   1.300   4.177   2.553
 3193SOL    HW1 9911   1.241   4.257   2.557
 3193SOL    HW2 9912   1.315   4.142   2.646
 3194SOL     OW 9913   1.593   3.945   2.744
 3194SOL    HW1 9914   1.509   3.944   2.798
 3194SOL    HW2 9915   1.595   4.028   2.688
 3195SOL     OW 9916   0.225   3.999   4.720
 3195SOL    HW1 9917   0.260   3.982   4.812
 3195SOL    HW2 9918   0.137   3.954   4.708
 3196SOL     OW 9919   0.019   4.092   4.371
 3196SOL    HW1 9920  -0.063   4.135   4.410
 3196SOL    HW2 9921  -0.009   4.019   4.308
 3197SOL     OW 9922   1.755   4.331   3.955
 3197SOL    HW1 9923   1.743   4.318   3.856
 3197SOL    HW2 9924   1.725   4.250   4.004
 3198SOL     OW 9925   0.438   4.116   5.223
 3198SOL    HW1 9926   0.520   4.060   5.232
 3198SOL    HW2 9927   0.357   4.058   5.227
 3199SOL     OW 9928   1.594   3.838   5.204
 3199SOL    HW1 9929   1.576   3.905   5.132
 3199SOL    HW2 9930   1.591   3.884   5.293
 3200SOL     OW 9931   0.809   3.728   4.226
 3200SOL    HW1 9932   0.849   3.819   4.217
 3200SOL    HW2 9933   0.709   3.736   4.232
 3201SOL     OW 9934   1.281   4.069   4.668
 3201SOL    HW1 9935   1.195   4.019   4.655
 3201SOL    HW2 9936   1.343   4.015   4.724
 3202SOL     OW 9937   0.550   3.920   4.609
 3202SOL    HW1 9938   0.545   3.915   4.709
 3202SOL    HW2 9939   0.552   4.016   4.580
 3203SOL     OW 9940   0.202   4.009   5.222
 3203SOL    HW1 9941   0.122   4.069   5.209
 3203SOL    HW2 9942   0.192   3.960   5.308
 3204SOL     OW 9943   1.400   3.831   4.150
 3204SOL    HW1 9944   1.376   3.794   4.060
 3204SOL    HW2 9945   1.499   3.847   4.154
 3205SOL     OW 9946   1.547   3.946   5.453
 3205SOL    HW1 9947   1.542   3.983   5.545
 3205SOL    HW2 9948   1.475   3.877   5.441
 3206SOL     OW 9949   0.614   3.846   3.841
 3206SOL    HW1 9950   0.712   3.824   3.848
 3206SOL    HW2 9951   0.583   3.829   3.748
 3207SOL     OW 9952   0.781   3.988   5.473
 3207SOL    HW1 9953   0.848   3.927   5.516
 3207SOL    HW2 9954   0.708   4.007   5.538
 3208SOL     OW 9955   0.539   3.788   4.236
 3208SOL    HW1 9956   0.458   3.789   4.294
 3208SOL    HW2 9957   0.542   3.871   4.181
 3209SOL     OW 9958   0.297   3.759   3.895
 3209SOL    HW1 9959   0.346   3.843   3.874
 3209SOL    HW2 9960   0.359   3.694   3.940
 3210SOL     OW 9961   0.561   3.946   4.871
 3210SOL    HW1 9962   0.599   3.862   4.908
 3210SOL    HW2 9963   0.473   3.965   4.915
 3211SOL     OW 9964   1.017   3.763   4.477
 3211SOL    HW1 9965   0.945   3.768   4.408
 3211SOL    HW2 9966   0.993   3.694   4.546
 3212SOL     OW 9967   0.915   3.813   5.126
 3212SOL    HW1 9968   0.940   3.793   5.031
 3212SOL    HW2 9969   0.987   3.869   5.168
 3213SOL     OW 9970   1.274   4.110   4.986
 3213SOL    HW1 9971   1.295   4.184   5.050
 3213SOL    HW2 9972   1.185   4.127   4.943
 3214SOL     OW 9973   0.504   3.774   5.464
 3214SOL    HW1 9974   0.462   3.717   5.394
 3214SOL    HW2 9975   0.438   3.843   5.496
 3215SOL     OW 9976   0.307   3.937   4.955
 3215SOL    HW1 9977   0.284   3.974   5.045
 3215SOL    HW2 9978   0.277   3.842   4.949
 3216SOL     OW 9979   1.540   3.998   3.849
 3216SOL    HW1 9980   1.479   3.923   3.872
 3216SOL    HW2 9981   1.562   4.050   3.932
 3217SOL     OW 9982   1.160   3.931   5.201
 3217SOL    HW1 9983   1.160   3.995   5.278
 3217SOL    HW2 9984   1.188   3.979   5.118
 3218SOL     OW 9985   0.903   3.810   3.857
 3218SOL    HW1 9986   0.954   3.811   3.771
 3218SOL    HW2 9987   0.959   3.768   3.928
 3219SOL     OW 9988   1.726   3.859   4.247
 3219SOL    HW1 9989   1.799   3.842   4.180
 3219SOL    HW2 9990   1.695   3.772   4.285
 3220SOL     OW 9991   1.841   3.899   4.687
 3220SOL    HW1 9992   1.880   3.814   4.651
 3220SOL    HW2 9993   1.743   3.901   4.668
 3221SOL     OW 9994   0.672   3.927   5.213
 3221SOL    HW1 9995   0.762   3.911   5.173
 3221SOL    HW2 9996   0.680   3.932   5.312
 3222SOL     OW 9997   0.075   4.069   3.757
 3222SOL    HW1 9998  -0.017   4.041   3.728
 3222SOL    HW2 9999   0.106   4.146   3.701
 3223SOL     OW10000   0.072   3.890   4.042
 3223SOL    HW110001   0.055   3.973   3.988
 3223SOL    HW210002   0.162   3.853   4.020
 3224SOL     OW10003   1.225   4.049   4.173
 3224SOL    HW110004   1.290   3.975   4.162
 3224SOL    HW210005   1.245   4.099   4.257
 3225SOL     OW10006   1.777   4.066   5.366
 3225SOL    HW110007   1.760   4.097   5.272
 3225SOL    HW210008   1.693   4.029   5.404
 3226SOL     OW10009   1.824   3.916   4.951
 3226SOL    HW110010   1.820   3.826   4.995
 3226SOL    HW210011   1.827   3.905   4.852
 3227SOL     OW10012   1.424   3.938   4.836
 3227SOL    HW110013   1.476   3.873   4.891
 3227SOL    HW210014   1.375   4.001   4.897
 3228SOL     OW10015   1.001   3.758   4.878
 3228SOL    HW110016   0.938   3.686   4.847
 3228SOL    HW210017   1.094   3.722   4.878
 3229SOL     OW10018   1.352   3.776   3.892
 3229SOL    HW110019   1.387   3.735   3.808
 3229SOL    HW210020   1.262   3.738   3.912
 3230SOL     OW10021   1.300   4.177   4.415
 3230SOL    HW110022   1.241   4.257   4.419
 3230SOL    HW210023   1.315   4.142   4.508
 3231SOL     OW10024   1.593   3.945   4.606
 3231SOL    HW110025   1.509   3.944   4.660
 3231SOL    HW210026   1.595   4.028   4.550
 3232SOL     OW10027   0.225   3.999   6.582
 3232SOL    HW110028   0.260   3.982   6.674
 3232SOL    HW210029   0.137   3.954   6.570
 3233SOL     OW10030   0.019   4.092   6.233
 3233SOL    HW110031  -0.063   4.135   6.272
 3233SOL    HW210032  -0.009   4.019   6.170
 3234SOL     OW10033   1.755   4.331   5.817
 3234SOL    HW110034   1.743   4.318   5.718
 3234SOL    HW210035   1.725   4.250   5.866
 3235SOL     OW10036   0.438   4.116   7.085
 3235SOL    HW110037   0.520   4.060   7.094
 3235SOL    HW210038   0.357   4.058   7.089
 3236SOL     OW10039   1.594   3.838   7.066
 3236SOL    HW110040   1.576   3.905   6.994
 3236SOL    HW210041   1.591   3.884   7.155
 3237SOL     OW10042   0.809   3.728   6.088
 3237SOL    HW110043   0.849   3.819   6.079
 3237SOL    HW210044   0.709   3.736   6.094
 3238SOL     OW10045   1.281   4.069   6.530
 3238SOL    HW110046   1.195   4.019   6.517
 3238SOL    HW210047   1.343   4.015   6.586
 3239SOL     OW10048   0.550   3.920   6.471
 3239SOL    HW110049   0.545   3.915   6.571
 3239SOL    HW210050   0.552   4.016   6.442
 3240SOL     OW10051   0.202   4.009   7.084
 3240SOL    HW110052   0.122   4.069   7.071
 3240SOL    HW210053   0.192   3.960   7.170
 3241SOL     OW10054   1.400   3.831   6.012
 3241SOL    HW110055   1.376   3.794   5.922
 3241SOL    HW210056   1.499   3.847   6.016
 3242SOL     OW10057   1.547   3.946   7.315
 3242SOL    HW110058   1.542   3.983   7.407
 3242SOL    HW210059   1.475   3.877   7.303
 3243SOL     OW10060   0.614   3.846   5.703
 3243SOL    HW110061   0.712   3.824   5.710
 3243SOL    HW210062   0.583   3.829   5.610
 3244SOL     OW10063   0.781   3.988   7.335
 3244SOL    HW110064   0.848   3.927   7.378
 3244SOL    HW210065   0.708   4.007   7.400
 3245SOL     OW10066   0.539   3.788   6.098
 3245SOL    HW110067   0.458   3.789   6.156
 3245SOL    HW210068   0.542   3.871   6.043
 3246SOL     OW10069   0.297   3.759   5.757
 3246SOL    HW110070   0.346   3.843   5.736
 3246SOL    HW210071   0.359   3.694   5.802
 3247SOL     OW10072   0.561   3.946   6.733
 3247SOL    HW110073   0.599   3.862   6.770
 3247SOL    HW210074   0.473   3.965   6.777
 3248SOL     OW10075   1.017   3.763   6.339
 3248SOL    HW110076   0.945   3.768   6.270
 3248SOL    HW210077   0.993   3.694   6.408
 3249SOL     OW10078   0.915   3.813   6.988
 3249SOL    HW110079   0.940   3.793   6.893
 3249SOL    HW210080   0.987   3.869   7.030
 3250SOL     OW10081   1.274   4.110   6.848
 3250SOL    HW110082   1.295   4.184   6.912
 3250SOL    HW210083   1.185   4.127   6.805
 3251SOL     OW10084   0.504   3.774   7.326
 3251SOL    HW110085   0.462   3.717   7.256
 3251SOL    HW210086   0.438   3.843   7.358
 3252SOL     OW10087   0.307   3.937   6.817
 3252SOL    HW110088   0.284   3.974   6.907
 3252SOL    HW210089   0.277   3.842   6.811
 3253SOL     OW10090   1.540   3.998   5.711
 3253SOL    HW110091   1.479   3.923   5.734
 3253SOL    HW210092   1.562   4.050   5.794
 3254SOL     OW10093   1.160   3.931   7.063
 3254SOL    HW110094   1.160   3.995   7.140
 3254SOL    HW210095   1.188   3.979   6.980
 3255SOL     OW10096   0.903   3.810   5.719
 3255SOL    HW110097   0.954   3.811   5.633
 3255SOL    HW210098   0.959   3.768   5.790
 3256SOL     OW10099   1.726   3.859   6.109
 3256SOL    HW110100   1.799   3.842   6.042
 3256SOL    HW210101   1.695   3.772   6.147
 3257SOL     OW10102   1.841   3.899   6.549
 3257SOL    HW110103   1.880   3.814   6.513
 3257SOL    HW210104   1.743   3.901   6.530
 3258SOL     OW10105   0.672   3.927   7.075
 3258SOL    HW110106   0.762   3.911   7.035
 3258SOL    HW210107   0.680   3.932   7.174
 3259SOL     OW10108   0.075   4.069   5.619
 3259SOL    HW110109  -0.017   4.041   5.590
 3259SOL    HW210110   0.106   4.146   5.563
 3260SOL     OW10111   0.072   3.890   5.904
 3260SOL    HW110112   0.055   3.973   5.850
 3260SOL    HW210113   0.162   3.853   5.882
 3261SOL     OW10114   1.225   4.049   6.035
 3261SOL    HW110115   1.290   3.975   6.024
 3261SOL    HW210116   1.245   4.099   6.119
 3262SOL     OW10117   1.777   4.066   7.228
 3262SOL    HW110118   1.760   4.097   7.134
 3262SOL    HW210119   1.693   4.029   7.266
 3263SOL     OW10120   1.824   3.916   6.813
 3263SOL    HW110121   1.820   3.826   6.857
 3263SOL    HW210122   1.827   3.905   6.714
 3264SOL     OW10123   1.424   3.938   6.698
 3264SOL    HW110124   1.476   3.873   6.753
 3264SOL    HW210125   1.375   4.001   6.759
 3265SOL     OW10126   1.001   3.758   6.740
 3265SOL    HW110127   0.938   3.686   6.709
 3265SOL    HW210128   1.094   3.722   6.740
 3266SOL     OW10129   1.352   3.776   5.754
 3266SOL    HW110130   1.387   3.735   5.670
 3266SOL    HW210131   1.262   3.738   5.774
 3267SOL     OW10132   1.300   4.177   6.277
 3267SOL    HW110133   1.241   4.257   6.281
 3267SOL    HW210134   1.315   4.142   6.370
 3268SOL     OW10135   1.593   3.945   6.468
 3268SOL    HW110136   1.509   3.944   6.522
 3268SOL    HW210137   1.595   4.028   6.412
 3269SOL     OW10138   0.225   3.999   8.444
 3269SOL    HW110139   0.260   3.982   8.536
 3269SOL    HW210140   0.137   3.954   8.432
 3270SOL     OW10141   0.019   4.092   8.095
 3270SOL    HW110142  -0.063   4.135   8.134
 3270SOL    HW210143  -0.009   4.019   8.032
 3271SOL     OW10144   1.755   4.331   7.679
 3271SOL    HW110145   1.743   4.318   7.580
 3271SOL    HW210146   1.725   4.250   7.728
 3272SOL     OW10147   0.438   4.116   8.947
 3272SOL    HW110148   0.520   4.060   8.956
 3272SOL    HW210149   0.357   4.058   8.951
 3273SOL     OW10150   1.594   3.838   8.928
 3273SOL    HW110151   1.576   3.905   8.856
 3273SOL    HW210152   1.591   3.884   9.017
 3274SOL     OW10153   0.809   3.728   7.950
 3274SOL    HW110154   0.849   3.819   7.941
 3274SOL    HW210155   0.709   3.736   7.956
 3275SOL     OW10156   1.281   4.069   8.392
 3275SOL    HW110157   1.195   4.019   8.379
 3275SOL    HW210158   1.343   4.015   8.448
 3276SOL     OW10159   0.550   3.920   8.333
 3276SOL    HW110160   0.545   3.915   8.433
 3276SOL    HW210161   0.552   4.016   8.304
 3277SOL     OW10162   0.202   4.009   8.946
 3277SOL    HW110163   0.122   4.069   8.933
 3277SOL    HW210164   0.192   3.960   9.032
 3278SOL     OW10165   1.400   3.831   7.874
 3278SOL    HW110166   1.376   3.794   7.784
 3278SOL    HW210167   1.499   3.847   7.878
 3279SOL     OW10168   1.547   3.946   9.177
 3279SOL    HW110169   1.542   3.983   9.269
 3279SOL    HW210170   1.475   3.877   9.165
 3280SOL     OW10171   0.614   3.846   7.565
 3280SOL    HW110172   0.712   3.824   7.572
 3280SOL    HW210173   0.583   3.829   7.472
 3281SOL     OW10174   0.781   3.988   9.197
 3281SOL    HW110175   0.848   3.927   9.240
 3281SOL    HW210176   0.708   4.007   9.262
 3282SOL     OW10177   0.539   3.788   7.960
 3282SOL    HW110178   0.458   3.789   8.018
 3282SOL    HW210179   0.542   3.871   7.905
 3283SOL     OW10180   0.297   3.759   7.619
 3283SOL    HW110181   0.346   3.843   7.598
 3283SOL    HW210182   0.359   3.694   7.664
 3284SOL     OW10183   0.561   3.946   8.595
 3284SOL    HW110184   0.599   3.862   8.632
 3284SOL    HW210185   0.473   3.965   8.639
 3285SOL     OW10186   1.017   3.763   8.201
 3285SOL    HW110187   0.945   3.768   8.132
 3285SOL    HW210188   0.993   3.694   8.270
 3286SOL     OW10189   0.915   3.813   8.850
 3286SOL    HW110190   0.940   3.793   8.755
 3286SOL    HW210191   0.987   3.869   8.892
 3287SOL     OW10192   1.274   4.110   8.710
 3287SOL    HW110193   1.295   4.184   8.774
 3287SOL    HW210194   1.185   4.127   8.667
 3288SOL     OW10195   0.504   3.774   9.188
 3288SOL    HW110196   0.462   3.717   9.118
 3288SOL    HW210197   0.438   3.843   9.220
 3289SOL     OW10198   0.307   3.937   8.679
 3289SOL    HW110199   0.284   3.974   8.769
 3289SOL    HW210200   0.277   3.842   8.673
 3290SOL     OW10201   1.540   3.998   7.573
 3290SOL    HW110202   1.479   3.923   7.596
 3290SOL    HW210203   1.562   4.050   7.656
 3291SOL     OW10204   1.160   3.931   8.925
 3291SOL    HW110205   1.160   3.995   9.002
 3291SOL    HW210206   1.188   3.979   8.842
 3292SOL     OW10207   0.903   3.810   7.581
 3292SOL    HW110208   0.954   3.811   7.495
 3292SOL    HW210209   0.959   3.768   7.652
 3293SOL     OW10210   1.726   3.859   7.971
 3293SOL    HW110211   1.799   3.842   7.904
 3293SOL    HW210212   1.695   3.772   8.009
 3294SOL     OW10213   1.841   3.899   8.411
 3294SOL    HW110214   1.880   3.814   8.375
 3294SOL    HW210215   1.743   3.901   8.392
 3295SOL     OW10216   0.672   3.927   8.937
 3295SOL    HW110217   0.762   3.911   8.897
 3295SOL    HW210218   0.680   3.932   9.036
 3296SOL     OW10219   0.075   4.069   7.481
 3296SOL    HW110220  -0.017   4.041   7.452
 3296SOL    HW210221   0.106   4.146   7.425
 3297SOL     OW10222   0.072   3.890   7.766
 3297SOL    HW110223   0.055   3.973   7.712
 3297SOL    HW210224   0.162   3.853   7.744
 3298SOL     OW10225   1.225   4.049   7.897
 3298SOL    HW110226   1.290   3.975   7.886
 3298SOL    HW210227   1.245   4.099   7.981
 3299SOL     OW10228   1.777   4.066   9.090
 3299SOL    HW110229   1.760   4.097   8.996
 3299SOL    HW210230   1.693   4.029   9.128
 3300SOL     OW10231   1.824   3.916   8.675
 3300SOL    HW110232   1.820   3.826   8.719
 3300SOL    HW210233   1.827   3.905   8.576
 3301SOL     OW10234   1.424   3.938   8.560
 3301SOL    HW110235   1.476   3.873   8.615
 3301SOL    HW210236   1.375   4.001   8.621
 3302SOL     OW10237   1.001   3.758   8.602
 3302SOL    HW110238   0.938   3.686   8.571
 3302SOL    HW210239   1.094   3.722   8.602
 3303SOL     OW10240   1.352   3.776   7.616
 3303SOL    HW110241   1.387   3.735   7.532
 3303SOL    HW210242   1.262   3.738   7.636
 3304SOL     OW10243   1.300   4.177   8.139
 3304SOL    HW110244   1.241   4.257   8.143
 3304SOL    HW210245   1.315   4.142   8.232
 3305SOL     OW10246   1.593   3.945   8.330
 3305SOL    HW110247   1.509   3.944   8.384
 3305SOL    HW210248   1.595   4.028   8.274
 3306SOL     OW10249   0.225   3.999  10.306
 3306SOL    HW110250   0.260   3.982  10.398
 3306SOL    HW210251   0.137   3.954  10.294
 3307SOL     OW10252   0.019   4.092   9.957
 3307SOL    HW110253  -0.063   4.135   9.996
 3307SOL    HW210254  -0.009   4.019   9.894
 3308SOL     OW10255   1.755   4.331   9.541
 3308SOL    HW110256   1.743   4.318   9.442
 3308SOL    HW210257   1.725   4.250   9.590
 3309SOL     OW10258   0.438   4.116  10.809
 3309SOL    HW110259   0.520   4.060  10.818
 3309SOL    HW210260   0.357   4.058  10.813
 3310SOL     OW10261   1.594   3.838  10.790
 3310SOL    HW110262   1.576   3.905  10.718
 3310SOL    HW210263   1.591   3.884  10.879
 3311SOL     OW10264   0.809   3.728   9.812
 3311SOL    HW110265   0.849   3.819   9.803
 3311SOL    HW210266   0.709   3.736   9.818
 3312SOL     OW10267   1.281   4.069  10.254
 3312SOL    HW110268   1.195   4.019  10.241
 3312SOL    HW210269   1.343   4.015  10.310
 3313SOL     OW10270   0.550   3.920  10.195
 3313SOL    HW110271   0.545   3.915  10.295
 3313SOL    HW210272   0.552   4.016  10.166
 3314SOL     OW10273   0.202   4.009  10.808
 3314SOL    HW110274   0.122   4.069  10.795
 3314SOL    HW210275   0.192   3.960  10.894
 3315SOL     OW10276   1.400   3.831   9.736
 3315SOL    HW110277   1.376   3.794   9.646
 3315SOL    HW210278   1.499   3.847   9.740
 3316SOL     OW10279   1.547   3.946  11.039
 3316SOL    HW110280   1.542   3.983  11.131
 3316SOL    HW210281   1.475   3.877  11.027
 3317SOL     OW10282   0.614   3.846   9.427
 3317SOL    HW110283   0.712   3.824   9.434
 3317SOL    HW210284   0.583   3.829   9.334
 3318SOL     OW10285   0.781   3.988  11.059
 3318SOL    HW110286   0.848   3.927  11.102
 3318SOL    HW210287   0.708   4.007  11.124
 3319SOL     OW10288   0.539   3.788   9.822
 3319SOL    HW110289   0.458   3.789   9.880
 3319SOL    HW210290   0.542   3.871   9.767
 3320SOL     OW10291   0.297   3.759   9.481
 3320SOL    HW110292   0.346   3.843   9.460
 3320SOL    HW210293   0.359   3.694   9.526
 3321SOL     OW10294   0.561   3.946  10.457
 3321SOL    HW110295   0.599   3.862  10.494
 3321SOL    HW210296   0.473   3.965  10.501
 3322SOL     OW10297   1.017   3.763  10.063
 3322SOL    HW110298   0.945   3.768   9.994
 3322SOL    HW210299   0.993   3.694  10.132
 3323SOL     OW10300   0.915   3.813  10.712
 3323SOL    HW110301   0.940   3.793  10.617
 3323SOL    HW210302   0.987   3.869  10.754
 3324SOL     OW10303   1.274   4.110  10.572
 3324SOL    HW110304   1.295   4.184  10.636
 3324SOL    HW210305   1.185   4.127  10.529
 3325SOL     OW10306   0.504   3.774  11.050
 3325SOL    HW110307   0.462   3.717  10.980
 3325SOL    HW210308   0.438   3.843  11.082
 3326SOL     OW10309   0.307   3.937  10.541
 3326SOL    HW110310   0.284   3.974  10.631
 3326SOL    HW210311   0.277   3.842  10.535
 3327SOL     OW10312   1.540   3.998   9.435
 3327SOL    HW110313   1.479   3.923   9.458
 3327SOL    HW210314   1.562   4.050   9.518
 3328SOL     OW10315   1.160   3.931  10.787
 3328SOL    HW110316   1.160   3.995  10.864
 3328SOL    HW210317   1.188   3.979  10.704
 3329SOL     OW10318   0.903   3.810   9.443
 3329SOL    HW110319   0.954   3.811   9.357
 3329SOL    HW210320   0.959   3.768   9.514
 3330SOL     OW10321   1.726   3.859   9.833
 3330SOL    HW110322   1.799   3.842   9.766
 3330SOL    HW210323   1.695   3.772   9.871
 3331SOL     OW10324   1.841   3.899  10.273
 3331SOL    HW110325   1.880   3.814  10.237
 3331SOL    HW210326   1.743   3.901  10.254
 3332SOL     OW10327   0.672   3.927  10.799
 3332SOL    HW110328   0.762   3.911  10.759
 3332SOL    HW210329   0.680   3.932  10.898
 3333SOL     OW10330   0.075   4.069   9.343
 3333SOL    HW110331  -0.017   4.041   9.314
 3333SOL    HW210332   0.106   4.146   9.287
 3334SOL     OW10333   0.072   3.890   9.628
 3334SOL    HW110334   0.055   3.973   9.574
 3334SOL    HW210335   0.162   3.853   9.606
 3335SOL     OW10336   1.225   4.049   9.759
 3335SOL    HW110337   1.290   3.975   9.748
 3335SOL    HW210338   1.245   4.099   9.843
 3336SOL     OW10339   1.777   4.066  10.952
 3336SOL    HW110340   1.760   4.097  10.858
 3336SOL    HW210341   1.693   4.029  10.990
 3337SOL     OW10342   1.824   3.916  10.537
 3337SOL    HW110343   1.820   3.826  10.581
 3337SOL    HW210344   1.827   3.905  10.438
 3338SOL     OW10345   1.424   3.938  10.422
 3338SOL    HW110346   1.476   3.873  10.477
 3338SOL    HW210347   1.375   4.001  10.483
 3339SOL     OW10348   1.001   3.758  10.464
 3339SOL    HW110349   0.938   3.686  10.433
 3339SOL    HW210350   1.094   3.722  10.464
 3340SOL     OW10351   1.352   3.776   9.478
 3340SOL    HW110352   1.387   3.735   9.394
 3340SOL    HW210353   1.262   3.738   9.498
 3341SOL     OW10354   1.300   4.177  10.001
 3341SOL    HW110355   1.241   4.257  10.005
 3341SOL    HW210356   1.315   4.142  10.094
 3342SOL     OW10357   1.593   3.945  10.192
 3342SOL    HW110358   1.509   3.944  10.246
 3342SOL    HW210359   1.595   4.028  10.136
 3343SOL     OW10360   0.225   3.999  12.168
 3343SOL    HW110361   0.260   3.982  12.260
 3343SOL    HW210362   0.137   3.954  12.156
 3344SOL     OW10363   0.019   4.092  11.819
 3344SOL    HW110364  -0.063   4.135  11.858
 3344SOL    HW210365  -0.009   4.019  11.756
 3345SOL     OW10366   1.755   4.331  11.403
 3345SOL    HW110367   1.743   4.318  11.304
 3345SOL    HW210368   1.725   4.250  11.452
 3346SOL     OW10369   0.438   4.116  12.671
 3346SOL    HW110370   0.520   4.060  12.680
 3346SOL    HW210371   0.357   4.058  12.675
 3347SOL     OW10372   1.594   3.838  12.652
 3347SOL    HW110373   1.576   3.905  12.580
 3347SOL    HW210374   1.591   3.884  12.741
 3348SOL     OW10375   0.809   3.728  11.674
 3348SOL    HW110376   0.849   3.819  11.665
 3348SOL    HW210377   0.709   3.736  11.680
 3349SOL     OW10378   1.281   4.069  12.116
 3349SOL    HW110379   1.195   4.019  12.103
 3349SOL    HW210380   1.343   4.015  12.172
 3350SOL     OW10381   0.550   3.920  12.057
 3350SOL    HW110382   0.545   3.915  12.157
 3350SOL    HW210383   0.552   4.016  12.028
 3351SOL     OW10384   0.202   4.009  12.670
 3351SOL    HW110385   0.122   4.069  12.657
 3351SOL    HW210386   0.192   3.960  12.756
 3352SOL     OW10387   1.400   3.831  11.598
 3352SOL    HW110388   1.376   3.794  11.508
 3352SOL    HW210389   1.499   3.847  11.602
 3353SOL     OW10390   1.547   3.946  12.901
 3353SOL    HW110391   1.542   3.983  12.993
 3353SOL    HW210392   1.475   3.877  12.889
 3354SOL     OW10393   0.614   3.846  11.289
 3354SOL    HW110394   0.712   3.824  11.296
 3354SOL    HW210395   0.583   3.829  11.196
 3355SOL     OW10396   0.781   3.988  12.921
 3355SOL    HW110397   0.848   3.927  12.964
 3355SOL    HW210398   0.708   4.007  12.986
 3356SOL     OW10399   0.539   3.788  11.684
 3356SOL    HW110400   0.458   3.789  11.742
 3356SOL    HW210401   0.542   3.871  11.629
 3357SOL     OW10402   0.297   3.759  11.343
 3357SOL    HW110403   0.346   3.843  11.322
 3357SOL    HW210404   0.359   3.694  11.388
 3358SOL     OW10405   0.561   3.946  12.319
 3358SOL    HW110406   0.599   3.862  12.356
 3358SOL    HW210407   0.473   3.965  12.363
 3359SOL     OW10408   1.017   3.763  11.925
 3359SOL    HW110409   0.945   3.768  11.856
 3359SOL    HW210410   0.993   3.694  11.994
 3360SOL     OW10411   0.915   3.813  12.574
 3360SOL    HW110412   0.940   3.793  12.479
 3360SOL    HW210413   0.987   3.869  12.616
 3361SOL     OW10414   1.274   4.110  12.434
 3361SOL    HW110415   1.295   4.184  12.498
 3361SOL    HW210416   1.185   4.127  12.391
 3362SOL     OW10417   0.504   3.774  12.912
 3362SOL    HW110418   0.462   3.717  12.842
 3362SOL    HW210419   0.438   3.843  12.944
 3363SOL     OW10420   0.307   3.937  12.403
 3363SOL    HW110421   0.284   3.974  12.493
 3363SOL    HW210422   0.277   3.842  12.397
 3364SOL     OW10423   1.540   3.998  11.297
 3364SOL    HW110424   1.479   3.923  11.320
 3364SOL    HW210425   1.562   4.050  11.380
 3365SOL     OW10426   1.160   3.931  12.649
 3365SOL    HW110427   1.160   3.995  12.726
 3365SOL    HW210428   1.188   3.979  12.566
 3366SOL     OW10429   0.903   3.810  11.305
 3366SOL    HW110430   0.954   3.811  11.219
 3366SOL    HW210431   0.959   3.768  11.376
 3367SOL     OW10432   1.726   3.859  11.695
 3367SOL    HW110433   1.799   3.842  11.628
 3367SOL    HW210434   1.695   3.772  11.733
 3368SOL     OW10435   1.841   3.899  12.135
 3368SOL    HW110436   1.880   3.814  12.099
 3368SOL    HW210437   1.743   3.901  12.116
 3369SOL     OW10438   0.672   3.927  12.661
 3369SOL    HW110439   0.762   3.911  12.621
 3369SOL    HW210440   0.680   3.932  12.760
 3370SOL     OW10441   0.075   4.069  11.205
 3370SOL    HW110442  -0.017   4.041  11.176
 3370SOL    HW210443   0.106   4.146  11.149
 3371SOL     OW10444   0.072   3.890  11.490
 3371SOL    HW110445   0.055   3.973  11.436
 3371SOL    HW210446   0.162   3.853  11.468
 3372SOL     OW10447   1.225   4.049  11.621
 3372SOL    HW110448   1.290   3.975  11.610
 3372SOL    HW210449   1.245   4.099  11.705
 3373SOL     OW10450   1.777   4.066  12.814
 3373SOL    HW110451   1.760   4.097  12.720
 3373SOL    HW210452   1.693   4.029  12.852
 3374SOL     OW10453   1.824   3.916  12.399
 3374SOL    HW110454   1.820   3.826  12.443
 3374SOL    HW210455   1.827   3.905  12.300
 3375SOL     OW10456   1.424   3.938  12.284
 3375SOL    HW110457   1.476   3.873  12.339
 3375SOL    HW210458   1.375   4.001  12.345
 3376SOL     OW10459   1.001   3.758  12.326
 3376SOL    HW110460   0.938   3.686  12.295
 3376SOL    HW210461   1.094   3.722  12.326
 3377SOL     OW10462   1.352   3.776  11.340
 3377SOL    HW110463   1.387   3.735  11.256
 3377SOL    HW210464   1.262   3.738  11.360
 3378SOL     OW10465   1.300   4.177  11.863
 3378SOL    HW110466   1.241   4.257  11.867
 3378SOL    HW210467   1.315   4.142  11.956
 3379SOL     OW10468   1.593   3.945  12.054
 3379SOL    HW110469   1.509   3.944  12.108
 3379SOL    HW210470   1.595   4.028  11.998
 3380SOL     OW10471   0.019   4.092  13.681
 3380SOL    HW110472  -0.063   4.135  13.720
 3380SOL    HW210473  -0.009   4.019  13.618
 3381SOL     OW10474   1.755   4.331  13.265
 3381SOL    HW110475   1.743   4.318  13.166
 3381SOL    HW210476   1.725   4.250  13.314
 3382SOL     OW10477   1.603   4.171  13.771
 3382SOL    HW110478   1.529   4.217  13.721
 3382SOL    HW210479   1.654   4.239  13.824
 3383SOL     OW10480   0.809   3.728  13.536
 3383SOL    HW110481   0.849   3.819  13.527
 3383SOL    HW210482   0.709   3.736  13.542
 3384SOL     OW10483   1.400   3.831  13.460
 3384SOL    HW110484   1.376   3.794  13.370
 3384SOL    HW210485   1.499   3.847  13.464
 3385SOL     OW10486   0.614   3.846  13.151
 3385SOL    HW110487   0.712   3.824  13.158
 3385SOL    HW210488   0.583   3.829  13.058
 3386SOL     OW10489   0.539   3.788  13.546
 3386SOL    HW110490   0.458   3.789  13.604
 3386SOL    HW210491   0.542   3.871  13.491
 3387SOL     OW10492   0.297   3.759  13.205
 3387SOL    HW110493   0.346   3.843  13.184
 3387SOL    HW210494   0.359   3.694  13.250
 3388SOL     OW10495   1.017   3.763  13.787
 3388SOL    HW110496   0.945   3.768  13.718
 3388SOL    HW210497   0.993   3.694  13.856
 3389SOL     OW10498   1.540   3.998  13.159
 3389SOL    HW110499   1.479   3.923  13.182
 3389SOL    HW210500   1.562   4.050  13.242
 3390SOL     OW10501   0.903   3.810  13.167
 3390SOL    HW110502   0.954   3.811  13.081
 3390SOL    HW210503   0.959   3.768  13.238
 3391SOL     OW10504   1.726   3.859  13.557
 3391SOL    HW110505   1.799   3.842  13.490
 3391SOL    HW210506   1.695   3.772  13.595
 3392SOL     OW10507   1.841   3.899  13.997
 3392SOL    HW110508   1.880   3.814  13.961
 3392SOL    HW210509   1.743   3.901  13.978
 3393SOL     OW10510   0.075   4.069  13.067
 3393SOL    HW110511  -0.017   4.041  13.038
 3393SOL    HW210512   0.106   4.146  13.011
 3394SOL     OW10513   0.072   3.890  13.352
 3394SOL    HW110514   0.055   3.973  13.298
 3394SOL    HW210515   0.162   3.853  13.330
 3395SOL     OW10516   1.225   4.049  13.483
 3395SOL    HW110517   1.290   3.975  13.472
 3395SOL    HW210518   1.245   4.099  13.567
 3396SOL     OW10519   1.352   3.776  13.202
 3396SOL    HW110520   1.387   3.735  13.118
 3396SOL    HW210521   1.262   3.738  13.222
 3397SOL     OW10522   1.300   4.177  13.725
 3397SOL    HW110523   1.241   4.257  13.729
 3397SOL    HW210524   1.315   4.142  13.818
 3398SOL     OW10525   2.092   0.628   0.113
 3398SOL    HW110526   1.999   0.626   0.150
 3398SOL    HW210527   2.093   0.589   0.021
 3399SOL     OW10528   2.087   0.275   0.996
 3399SOL    HW110529   2.122   0.258   1.088
 3399SOL    HW210530   1.999   0.230   0.984
 3400SOL     OW10531   1.881   0.368   0.647
 3400SOL    HW110532   1.799   0.411   0.686
 3400SOL    HW210533   1.853   0.295   0.584
 3401SOL     OW10534   2.431   1.275   1.165
 3401SOL    HW110535   2.338   1.268   1.128
 3401SOL    HW210536   2.442   1.364   1.209
 3402SOL     OW10537   3.417   1.511   0.703
 3402SOL    HW110538   3.360   1.495   0.784
 3402SOL    HW210539   3.358   1.521   0.623
 3403SOL     OW10540   2.997   0.703   0.717
 3403SOL    HW110541   3.054   0.781   0.692
 3403SOL    HW210542   2.937   0.729   0.793
 3404SOL     OW10543   3.617   0.607   0.231
 3404SOL    HW110544   3.605   0.594   0.132
 3404SOL    HW210545   3.587   0.526   0.280
 3405SOL     OW10546   2.630   1.144   1.023
 3405SOL    HW110547   2.552   1.161   1.083
 3405SOL    HW210548   2.664   1.231   0.987
 3406SOL     OW10549   2.712   0.798   1.823
 3406SOL    HW110550   2.708   0.874   1.888
 3406SOL    HW210551   2.734   0.834   1.732
 3407SOL     OW10552   2.547   1.012   0.665
 3407SOL    HW110553   2.616   0.996   0.735
 3407SOL    HW210554   2.474   1.069   0.703
 3408SOL     OW10555   2.548   1.161   1.803
 3408SOL    HW110556   2.608   1.240   1.817
 3408SOL    HW210557   2.462   1.192   1.762
 3409SOL     OW10558   2.197   1.435   1.061
 3409SOL    HW110559   2.119   1.404   1.008
 3409SOL    HW210560   2.255   1.493   1.004
 3410SOL     OW10561   3.322   1.505   1.339
 3410SOL    HW110562   3.346   1.599   1.365
 3410SOL    HW210563   3.306   1.451   1.421
 3411SOL     OW10564   2.300   0.392   1.499
 3411SOL    HW110565   2.382   0.336   1.508
 3411SOL    HW210566   2.219   0.334   1.503
 3412SOL     OW10567   3.465   0.447   0.737
 3412SOL    HW110568   3.391   0.493   0.687
 3412SOL    HW210569   3.516   0.515   0.790
 3413SOL     OW10570   2.093   1.713   0.483
 3413SOL    HW110571   2.127   1.790   0.537
 3413SOL    HW210572   2.137   1.713   0.393
 3414SOL     OW10573   2.989   1.341   1.690
 3414SOL    HW110574   3.036   1.341   1.778
 3414SOL    HW210575   2.941   1.254   1.679
 3415SOL     OW10576   2.092   1.434   0.538
 3415SOL    HW110577   2.066   1.530   0.538
 3415SOL    HW210578   2.021   1.380   0.583
 3416SOL     OW10579   2.102   1.091   0.886
 3416SOL    HW110580   2.116   1.007   0.938
 3416SOL    HW210581   2.047   1.155   0.941
 3417SOL     OW10582   2.482   1.786   1.439
 3417SOL    HW110583   2.390   1.769   1.474
 3417SOL    HW210584   2.510   1.878   1.465
 3418SOL     OW10585   2.468   0.964   0.123
 3418SOL    HW110586   2.475   1.048   0.069
 3418SOL    HW210587   2.514   0.977   0.211
 3419SOL     OW10588   3.456   0.114   1.480
 3419SOL    HW110589   3.438   0.181   1.408
 3419SOL    HW210590   3.453   0.160   1.569
 3420SOL     OW10591   1.984   0.643   0.563
 3420SOL    HW110592   1.939   0.555   0.580
 3420SOL    HW210593   1.983   0.697   0.647
 3421SOL     OW10594   3.704   1.767   0.359
 3421SOL    HW110595   3.758   1.738   0.439
 3421SOL    HW210596   3.734   1.857   0.330
 3422SOL     OW10597   1.889   1.596   0.117
 3422SOL    HW110598   1.870   1.500   0.138
 3422SOL    HW210599   1.856   1.654   0.192
 3423SOL     OW10600   3.551   0.922   0.612
 3423SOL    HW110601   3.646   0.893   0.620
 3423SOL    HW210602   3.543   0.987   0.537
 3424SOL     OW10603   3.503   1.108   0.432
 3424SOL    HW110604   3.589   1.110   0.380
 3424SOL    HW210605   3.517   1.155   0.520
 3425SOL     OW10606   1.975   0.737   1.597
 3425SOL    HW110607   2.063   0.724   1.642
 3425SOL    HW210608   1.962   0.834   1.575
 3426SOL     OW10609   2.475   1.365   0.726
 3426SOL    HW110610   2.426   1.278   0.735
 3426SOL    HW210611   2.452   1.408   0.639
 3427SOL     OW10612   3.155   1.228   1.423
 3427SOL    HW110613   3.192   1.155   1.365
 3427SOL    HW210614   3.207   1.233   1.508
 3428SOL     OW10615   2.671   0.004   0.502
 3428SOL    HW110616   2.711   0.095   0.493
 3428SOL    HW210617   2.571   0.012   0.508
 3429SOL     OW10618   2.059   0.976   1.264
 3429SOL    HW110619   2.148   0.931   1.250
 3429SOL    HW210620   1.986   0.911   1.245
 3430SOL     OW10621   3.387   0.999   0.190
 3430SOL    HW110622   3.324   0.923   0.203
 3430SOL    HW210623   3.435   1.017   0.276
 3431SOL     OW10624   3.049   1.792   1.616
 3431SOL    HW110625   3.073   1.852   1.540
 3431SOL    HW210626   3.056   1.697   1.586
 3432SOL     OW10627   2.179   0.251   1.801
 3432SOL    HW110628   2.250   0.322   1.807
 3432SOL    HW210629   2.091   0.290   1.829
 3433SOL     OW10630   3.328   1.417   0.953
 3433SOL    HW110631   3.269   1.423   1.033
 3433SOL    HW210632   3.313   1.329   0.907
 3434SOL     OW10633   3.529   1.714   0.572
 3434SOL    HW110634   3.488   1.691   0.484
 3434SOL    HW210635   3.511   1.640   0.637
 3435SOL     OW10636   2.460   0.729   0.270
 3435SOL    HW110637   2.484   0.798   0.202
 3435SOL    HW210638   2.382   0.762   0.324
 3436SOL     OW10639   3.143   0.345   0.944
 3436SOL    HW110640   3.057   0.295   0.931
 3436SOL    HW210641   3.205   0.291   1.000
 3437SOL     OW10642   3.438   1.662   0.307
 3437SOL    HW110643   3.527   1.708   0.310
 3437SOL    HW210644   3.417   1.638   0.212
 3438SOL     OW10645   2.669   0.605   1.465
 3438SOL    HW110646   2.622   0.602   1.554
 3438SOL    HW210647   2.618   0.550   1.399
 3439SOL     OW10648   3.256   0.469   1.674
 3439SOL    HW110649   3.236   0.512   1.762
 3439SOL    HW210650   3.334   0.407   1.683
 3440SOL     OW10651   2.835   0.890   1.572
 3440SOL    HW110652   2.881   0.806   1.543
 3440SOL    HW210653   2.779   0.924   1.497
 3441SOL     OW10654   2.853   0.410   1.242
 3441SOL    HW110655   2.776   0.444   1.296
 3441SOL    HW210656   2.819   0.359   1.163
 3442SOL     OW10657   2.903   0.701   0.429
 3442SOL    HW110658   2.929   0.697   0.525
 3442SOL    HW210659   2.818   0.650   0.415
 3443SOL     OW10660   1.938   0.811   0.789
 3443SOL    HW110661   2.037   0.799   0.798
 3443SOL    HW210662   1.914   0.906   0.810
 3444SOL     OW10663   2.727   0.348   0.195
 3444SOL    HW110664   2.786   0.411   0.146
 3444SOL    HW210665   2.746   0.254   0.166
 3445SOL     OW10666   3.581   0.585   1.831
 3445SOL    HW110667   3.555   0.674   1.795
 3445SOL    HW210668   3.579   0.517   1.758
 3446SOL     OW10669   3.224   1.144   0.545
 3446SOL    HW110670   3.307   1.115   0.497
 3446SOL    HW210671   3.175   1.211   0.489
 3447SOL     OW10672   2.412   0.196   0.885
 3447SOL    HW110673   2.407   0.191   0.985
 3447SOL    HW210674   2.414   0.292   0.856
 3448SOL     OW10675   2.870   1.456   0.477
 3448SOL    HW110676   2.824   1.528   0.425
 3448SOL    HW210677   2.866   1.476   0.575
 3449SOL     OW10678   2.213   1.801   0.853
 3449SOL    HW110679   2.263   1.715   0.859
 3449SOL    HW210680   2.278   1.878   0.850
 3450SOL     OW10681   3.657   1.066   0.873
 3450SOL    HW110682   3.595   1.051   0.797
 3450SOL    HW210683   3.605   1.077   0.958
 3451SOL     OW10684   3.089   1.550   1.506
 3451SOL    HW110685   3.095   1.473   1.570
 3451SOL    HW210686   3.037   1.524   1.426
 3452SOL     OW10687   2.183   0.943   0.242
 3452SOL    HW110688   2.265   0.982   0.200
 3452SOL    HW210689   2.156   0.861   0.193
 3453SOL     OW10690   3.320   0.735   0.728
 3453SOL    HW110691   3.315   0.670   0.803
 3453SOL    HW210692   3.400   0.794   0.741
 3454SOL     OW10693   2.323   1.266   1.727
 3454SOL    HW110694   2.273   1.267   1.641
 3454SOL    HW210695   2.260   1.248   1.803
 3455SOL     OW10696   2.973   1.776   0.237
 3455SOL    HW110697   2.913   1.714   0.287
 3455SOL    HW210698   3.004   1.732   0.152
 3456SOL     OW10699   2.064   0.285   1.498
 3456SOL    HW110700   1.984   0.345   1.485
 3456SOL    HW210701   2.054   0.236   1.584
 3457SOL     OW10702   3.494   1.377   0.081
 3457SOL    HW110703   3.462   1.471   0.071
 3457SOL    HW210704   3.418   1.314   0.069
 3458SOL     OW10705   2.326   1.743   0.323
 3458SOL    HW110706   2.359   1.782   0.409
 3458SOL    HW210707   2.402   1.736   0.258
 3459SOL     OW10708   3.262   0.107   0.426
 3459SOL    HW110709   3.238   0.070   0.336
 3459SOL    HW210710   3.361   0.123   0.430
 3460SOL     OW10711   2.111   1.785   1.241
 3460SOL    HW110712   2.168   1.720   1.291
 3460SOL    HW210713   2.095   1.752   1.148
 3461SOL     OW10714   2.802   1.698   0.904
 3461SOL    HW110715   2.882   1.641   0.925
 3461SOL    HW210716   2.753   1.658   0.827
 3462SOL     OW10717   2.244   0.700   0.480
 3462SOL    HW110718   2.289   0.610   0.477
 3462SOL    HW210719   2.150   0.689   0.513
 3463SOL     OW10720   3.409   0.222   1.729
 3463SOL    HW110721   3.404   0.259   1.821
 3463SOL    HW210722   3.337   0.153   1.717
 3464SOL     OW10723   2.476   0.122   0.117
 3464SOL    HW110724   2.574   0.100   0.124
 3464SOL    HW210725   2.445   0.105   0.024
 3465SOL     OW10726   2.643   0.264   1.749
 3465SOL    HW110727   2.710   0.203   1.792
 3465SOL    HW210728   2.570   0.283   1.814
 3466SOL     OW10729   2.750   1.514   1.195
 3466SOL    HW110730   2.727   1.489   1.101
 3466SOL    HW210731   2.811   1.445   1.234
 3467SOL     OW10732   3.213   0.590   1.433
 3467SOL    HW110733   3.241   0.547   1.518
 3467SOL    HW210734   3.238   0.686   1.434
 3468SOL     OW10735   2.665   1.402   0.924
 3468SOL    HW110736   2.755   1.416   0.882
 3468SOL    HW210737   2.594   1.404   0.853
 3469SOL     OW10738   2.784   0.503   0.899
 3469SOL    HW110739   2.759   0.494   0.803
 3469SOL    HW210740   2.832   0.421   0.930
 3470SOL     OW10741   2.401   0.064   0.512
 3470SOL    HW110742   2.320   0.065   0.570
 3470SOL    HW210743   2.404   0.147   0.457
 3471SOL     OW10744   3.296   1.188   0.041
 3471SOL    HW110745   3.328   1.112   0.098
 3471SOL    HW210746   3.204   1.215   0.071
 3472SOL     OW10747   2.159   0.035   0.171
 3472SOL    HW110748   2.208   0.119   0.150
 3472SOL    HW210749   2.221  -0.030   0.216
 3473SOL     OW10750   2.797   0.236   0.480
 3473SOL    HW110751   2.749   0.277   0.402
 3473SOL    HW210752   2.896   0.234   0.461
 3474SOL     OW10753   2.938   0.683   1.464
 3474SOL    HW110754   2.858   0.622   1.467
 3474SOL    HW210755   3.019   0.630   1.440
 3475SOL     OW10756   3.089   1.570   0.793
 3475SOL    HW110757   3.110   1.644   0.728
 3475SOL    HW210758   3.157   1.570   0.866
 3476SOL     OW10759   2.321   1.152   0.741
 3476SOL    HW110760   2.250   1.125   0.806
 3476SOL    HW210761   2.295   1.124   0.648
 3477SOL     OW10762   3.133   1.797   0.591
 3477SOL    HW110763   3.177   1.861   0.527
 3477SOL    HW210764   3.083   1.849   0.661
 3478SOL     OW10765   2.894   0.549   0.016
 3478SOL    HW110766   2.853   0.631  -0.023
 3478SOL    HW210767   2.958   0.575   0.089
 3479SOL     OW10768   1.940   0.556   1.386
 3479SOL    HW110769   2.032   0.555   1.345
 3479SOL    HW210770   1.934   0.630   1.453
 3480SOL     OW10771   2.423   0.222   1.147
 3480SOL    HW110772   2.461   0.138   1.184
 3480SOL    HW210773   2.335   0.241   1.191
 3481SOL     OW10774   2.728   0.454   0.642
 3481SOL    HW110775   2.696   0.526   0.580
 3481SOL    HW210776   2.752   0.373   0.589
 3482SOL     OW10777   2.879   0.039   0.753
 3482SOL    HW110778   2.807   0.044   0.684
 3482SOL    HW210779   2.855  -0.030   0.822
 3483SOL     OW10780   3.291   1.173   0.867
 3483SOL    HW110781   3.236   1.089   0.860
 3483SOL    HW210782   3.317   1.202   0.775
 3484SOL     OW10783   3.328   0.590   0.992
 3484SOL    HW110784   3.298   0.495   0.999
 3484SOL    HW210785   3.401   0.606   1.058
 3485SOL     OW10786   3.719   0.833   0.377
 3485SOL    HW110787   3.761   0.769   0.441
 3485SOL    HW210788   3.681   0.782   0.299
 3486SOL     OW10789   2.350   1.385   0.174
 3486SOL    HW110790   2.263   1.370   0.221
 3486SOL    HW210791   2.333   1.411   0.079
 3487SOL     OW10792   3.526   1.280   0.657
 3487SOL    HW110793   3.625   1.288   0.671
 3487SOL    HW210794   3.481   1.364   0.688
 3488SOL     OW10795   3.252   0.575   0.078
 3488SOL    HW110796   3.198   0.554   0.159
 3488SOL    HW210797   3.343   0.534   0.087
 3489SOL     OW10798   2.389   0.256   0.328
 3489SOL    HW110799   2.416   0.197   0.253
 3489SOL    HW210800   2.389   0.351   0.297
 3490SOL     OW10801   3.616   1.223   1.588
 3490SOL    HW110802   3.707   1.184   1.575
 3490SOL    HW210803   3.624   1.319   1.612
 3491SOL     OW10804   2.926   1.347   1.340
 3491SOL    HW110805   2.846   1.324   1.395
 3491SOL    HW210806   3.009   1.321   1.389
 3492SOL     OW10807   3.454   1.629   1.625
 3492SOL    HW110808   3.481   1.663   1.535
 3492SOL    HW210809   3.533   1.591   1.671
 3493SOL     OW10810   2.973   1.195   1.100
 3493SOL    HW110811   2.933   1.239   1.181
 3493SOL    HW210812   2.932   1.232   1.017
 3494SOL     OW10813   3.500   1.099   1.079
 3494SOL    HW110814   3.505   1.180   1.138
 3494SOL    HW210815   3.414   1.101   1.028
 3495SOL     OW10816   2.777   0.089   1.402
 3495SOL    HW110817   2.802   0.069   1.307
 3495SOL    HW210818   2.849   0.145   1.444
 3496SOL     OW10819   2.842   1.116   1.719
 3496SOL    HW110820   2.743   1.122   1.729
 3496SOL    HW210821   2.865   1.036   1.663
 3497SOL     OW10822   2.567   1.050   0.368
 3497SOL    HW110823   2.553   1.057   0.467
 3497SOL    HW210824   2.651   0.999   0.350
 3498SOL     OW10825   2.272   0.813   1.251
 3498SOL    HW110826   2.358   0.825   1.301
 3498SOL    HW210827   2.230   0.726   1.278
 3499SOL     OW10828   3.136   0.386   1.262
 3499SOL    HW110829   3.157   0.460   1.326
 3499SOL    HW210830   3.047   0.403   1.219
 3500SOL     OW10831   1.926   1.564   1.331
 3500SOL    HW110832   1.880   1.646   1.297
 3500SOL    HW210833   2.024   1.583   1.340
 3501SOL     OW10834   2.229   1.100   0.501
 3501SOL    HW110835   2.222   1.183   0.445
 3501SOL    HW210836   2.233   1.020   0.441
 3502SOL     OW10837   2.428   0.537   0.865
 3502SOL    HW110838   2.440   0.603   0.791
 3502SOL    HW210839   2.474   0.571   0.948
 3503SOL     OW10840   3.114   1.348   0.388
 3503SOL    HW110841   3.164   1.425   0.428
 3503SOL    HW210842   3.019   1.350   0.420
 3504SOL     OW10843   3.134   1.445   1.142
 3504SOL    HW110844   3.181   1.458   1.229
 3504SOL    HW210845   3.068   1.371   1.151
 3505SOL     OW10846   3.444   0.639   0.472
 3505SOL    HW110847   3.413   0.700   0.545
 3505SOL    HW210848   3.494   0.691   0.403
 3506SOL     OW10849   2.216   1.510   1.329
 3506SOL    HW110850   2.195   1.466   1.242
 3506SOL    HW210851   2.313   1.536   1.332
 3507SOL     OW10852   2.264   0.751   1.598
 3507SOL    HW110853   2.332   0.806   1.551
 3507SOL    HW210854   2.304   0.663   1.625
 3508SOL     OW10855   3.449   0.779   1.670
 3508SOL    HW110856   3.357   0.817   1.665
 3508SOL    HW210857   3.509   0.826   1.605
 3509SOL     OW10858   2.875   0.105   1.770
 3509SOL    HW110859   2.881   0.190   1.718
 3509SOL    HW210860   2.907   0.029   1.713
 3510SOL     OW10861   2.366   0.050   1.740
 3510SOL    HW110862   2.324  -0.007   1.670
 3510SOL    HW210863   2.300   0.119   1.772
 3511SOL     OW10864   2.435   0.870   1.029
 3511SOL    HW110865   2.479   0.959   1.020
 3511SOL    HW210866   2.372   0.870   1.106
 3512SOL     OW10867   3.222   0.862   1.045
 3512SOL    HW110868   3.147   0.862   0.979
 3512SOL    HW210869   3.259   0.770   1.054
 3513SOL     OW10870   3.071   0.525   0.275
 3513SOL    HW110871   3.084   0.441   0.329
 3513SOL    HW210872   3.042   0.599   0.335
 3514SOL     OW10873   2.169   0.213   1.231
 3514SOL    HW110874   2.146   0.250   1.321
 3514SOL    HW210875   2.139   0.118   1.225
 3515SOL     OW10876   1.899   1.310   1.282
 3515SOL    HW110877   1.952   1.261   1.350
 3515SOL    HW210878   1.921   1.408   1.287
 3516SOL     OW10879   2.594   0.634   1.064
 3516SOL    HW110880   2.653   0.608   0.988
 3516SOL    HW210881   2.566   0.730   1.053
 3517SOL     OW10882   3.590   0.935   1.854
 3517SOL    HW110883   3.544   0.928   1.765
 3517SOL    HW210884   3.528   0.979   1.920
 3518SOL     OW10885   2.169   0.063   0.618
 3518SOL    HW110886   2.158   0.157   0.651
 3518SOL    HW210887   2.164   0.000   0.695
 3519SOL     OW10888   3.484   0.367   0.374
 3519SOL    HW110889   3.486   0.291   0.438
 3519SOL    HW210890   3.436   0.444   0.414
 3520SOL     OW10891   2.885   0.766   0.966
 3520SOL    HW110892   2.900   0.787   1.062
 3520SOL    HW210893   2.855   0.671   0.957
 3521SOL     OW10894   2.842   1.573   1.700
 3521SOL    HW110895   2.822   1.617   1.612
 3521SOL    HW210896   2.881   1.482   1.684
 3522SOL     OW10897   3.721   1.518   1.605
 3522SOL    HW110898   3.735   1.545   1.510
 3522SOL    HW210899   3.804   1.540   1.658
 3523SOL     OW10900   2.212   0.898   1.804
 3523SOL    HW110901   2.288   0.942   1.852
 3523SOL    HW210902   2.247   0.851   1.722
 3524SOL     OW10903   3.402   0.274   0.125
 3524SOL    HW110904   3.341   0.199   0.148
 3524SOL    HW210905   3.424   0.326   0.208
 3525SOL     OW10906   3.165   0.838   0.042
 3525SOL    HW110907   3.199   0.745   0.057
 3525SOL    HW210908   3.183   0.865  -0.053
 3526SOL     OW10909   2.930   1.333   0.849
 3526SOL    HW110910   2.937   1.249   0.794
 3526SOL    HW210911   2.992   1.402   0.813
 3527SOL     OW10912   2.181   0.810   0.949
 3527SOL    HW110913   2.274   0.846   0.954
 3527SOL    HW210914   2.175   0.725   1.001
 3528SOL     OW10915   2.201   0.509   1.006
 3528SOL    HW110916   2.149   0.426   0.989
 3528SOL    HW210917   2.278   0.514   0.942
 3529SOL     OW10918   3.000   0.380   1.678
 3529SOL    HW110919   2.955   0.443   1.742
 3529SOL    HW210920   3.093   0.411   1.661
 3530SOL     OW10921   3.022   0.207   1.477
 3530SOL    HW110922   3.022   0.271   1.554
 3530SOL    HW210923   3.050   0.255   1.394
 3531SOL     OW10924   1.870   1.326   0.200
 3531SOL    HW110925   1.777   1.347   0.169
 3531SOL    HW210926   1.880   1.227   0.213
 3532SOL     OW10927   1.950   1.801   0.927
 3532SOL    HW110928   1.908   1.715   0.900
 3532SOL    HW210929   2.044   1.804   0.893
 3533SOL     OW10930   2.366   1.568   0.910
 3533SOL    HW110931   2.432   1.642   0.919
 3533SOL    HW210932   2.410   1.489   0.868
 3534SOL     OW10933   2.864   0.796   1.238
 3534SOL    HW110934   2.905   0.764   1.324
 3534SOL    HW210935   2.768   0.769   1.235
 3535SOL     OW10936   1.902   0.544   1.114
 3535SOL    HW110937   1.987   0.511   1.073
 3535SOL    HW210938   1.915   0.559   1.212
 3536SOL     OW10939   2.051   0.520   1.722
 3536SOL    HW110940   2.110   0.480   1.652
 3536SOL    HW210941   1.993   0.591   1.681
 3537SOL     OW10942   3.231   0.950   1.660
 3537SOL    HW110943   3.270   1.039   1.680
 3537SOL    HW210944   3.241   0.930   1.563
 3538SOL     OW10945   2.677   0.572   0.325
 3538SOL    HW110946   2.684   0.483   0.279
 3538SOL    HW210947   2.583   0.606   0.317
 3539SOL     OW10948   3.519   0.604   1.206
 3539SOL    HW110949   3.481   0.535   1.268
 3539SOL    HW210950   3.601   0.568   1.162
 3540SOL     OW10951   2.114   1.564   1.744
 3540SOL    HW110952   2.084   1.621   1.820
 3540SOL    HW210953   2.107   1.467   1.770
 3541SOL     OW10954   2.533   0.464   1.269
 3541SOL    HW110955   2.499   0.375   1.239
 3541SOL    HW210956   2.559   0.518   1.189
 3542SOL     OW10957   2.792   1.678   1.465
 3542SOL    HW110958   2.768   1.660   1.370
 3542SOL    HW210959   2.822   1.772   1.475
 3543SOL     OW10960   2.335   0.500   0.191
 3543SOL    HW110961   2.396   0.580   0.195
 3543SOL    HW210962   2.240   0.531   0.198
 3544SOL     OW10963   2.021   1.137   1.466
 3544SOL    HW110964   2.043   1.076   1.542
 3544SOL    HW210965   2.031   1.088   1.380
 3545SOL     OW10966   3.209   1.059   1.234
 3545SOL    HW110967   3.233   0.996   1.160
 3545SOL    HW210968   3.119   1.099   1.216
 3546SOL     OW10969   3.164   0.855   0.309
 3546SOL    HW110970   3.078   0.824   0.351
 3546SOL    HW210971   3.160   0.841   0.210
 3547SOL     OW10972   3.621   1.747   1.154
 3547SOL    HW110973   3.682   1.777   1.081
 3547SOL    HW210974   3.583   1.658   1.132
 3548SOL     OW10975   3.114   1.731   1.128
 3548SOL    HW110976   3.198   1.736   1.074
 3548SOL    HW210977   3.091   1.635   1.146
 3549SOL     OW10978   1.945   1.258   1.022
 3549SOL    HW110979   1.940   1.257   1.122
 3549SOL    HW210980   1.862   1.217   0.984
 3550SOL     OW10981   2.550   1.662   1.716
 3550SOL    HW110982   2.494   1.743   1.725
 3550SOL    HW210983   2.602   1.666   1.630
 3551SOL     OW10984   2.765   0.086   0.133
 3551SOL    HW110985   2.816   0.087   0.047
 3551SOL    HW210986   2.821   0.044   0.204
 3552SOL     OW10987   3.588   0.135   0.523
 3552SOL    HW110988   3.661   0.118   0.456
 3552SOL    HW210989   3.557   0.048   0.561
 3553SOL     OW10990   3.250   1.573   0.477
 3553SOL    HW110991   3.317   1.585   0.403
 3553SOL    HW210992   3.210   1.662   0.500
 3554SOL     OW10993   1.992   1.794   1.851
 3554SOL    HW110994   1.951   1.720   1.904
 3554SOL    HW210995   2.056   1.845   1.909
 3555SOL     OW10996   3.142   0.927   0.672
 3555SOL    HW110997   3.202   0.846   0.674
 3555SOL    HW210998   3.182   0.996   0.612
 3556SOL     OW10999   2.692   1.273   1.422
 3556SOL    HW111000   2.687   1.306   1.517
 3556SOL    HW211001   2.606   1.292   1.376
 3557SOL     OW11002   2.534   1.616   0.154
 3557SOL    HW111003   2.543   1.626   0.055
 3557SOL    HW211004   2.494   1.527   0.175
 3558SOL     OW11005   3.512   1.720   1.394
 3558SOL    HW111006   3.565   1.730   1.310
 3558SOL    HW211007   3.485   1.810   1.428
 3559SOL     OW11008   3.703   0.175   0.963
 3559SOL    HW111009   3.742   0.090   0.927
 3559SOL    HW211010   3.605   0.177   0.944
 3560SOL     OW11011   2.125   0.326   0.720
 3560SOL    HW111012   2.046   0.377   0.686
 3560SOL    HW211013   2.116   0.311   0.818
 3561SOL     OW11014   3.056   1.612   0.031
 3561SOL    HW111015   3.062   1.519   0.068
 3561SOL    HW211016   2.997   1.612  -0.049
 3562SOL     OW11017   2.684   1.002   1.372
 3562SOL    HW111018   2.724   1.001   1.280
 3562SOL    HW211019   2.694   1.094   1.412
 3563SOL     OW11020   2.778   0.910   0.291
 3563SOL    HW111021   2.841   0.948   0.223
 3563SOL    HW211022   2.818   0.827   0.330
 3564SOL     OW11023   3.366   1.607   0.044
 3564SOL    HW111024   3.274   1.644   0.051
 3564SOL    HW211025   3.404   1.627  -0.046
 3565SOL     OW11026   2.234   1.288   1.490
 3565SOL    HW111027   2.221   1.381   1.456
 3565SOL    HW211028   2.150   1.236   1.477
 3566SOL     OW11029   3.476   1.292   1.289
 3566SOL    HW111030   3.536   1.295   1.369
 3566SOL    HW211031   3.401   1.356   1.302
 3567SOL     OW11032   2.901   1.098   0.696
 3567SOL    HW111033   2.831   1.051   0.750
 3567SOL    HW211034   2.960   1.030   0.653
 3568SOL     OW11035   2.876   0.236   0.971
 3568SOL    HW111036   2.868   0.200   0.878
 3568SOL    HW211037   2.874   0.160   1.036
 3569SOL     OW11038   2.452   1.487   0.491
 3569SOL    HW111039   2.494   1.429   0.421
 3569SOL    HW211040   2.408   1.566   0.447
 3570SOL     OW11041   3.571   0.385   1.381
 3570SOL    HW111042   3.644   0.454   1.385
 3570SOL    HW211043   3.599   0.310   1.322
 3571SOL     OW11044   2.117   1.348   0.290
 3571SOL    HW111045   2.021   1.349   0.263
 3571SOL    HW211046   2.129   1.401   0.374
 3572SOL     OW11047   1.967   1.013   1.726
 3572SOL    HW111048   1.890   0.980   1.780
 3572SOL    HW211049   2.052   0.983   1.768
 3573SOL     OW11050   2.534   0.203   1.489
 3573SOL    HW111051   2.624   0.187   1.449
 3573SOL    HW211052   2.542   0.208   1.588
 3574SOL     OW11053   1.937   0.345   0.033
 3574SOL    HW111054   1.845   0.317   0.004
 3574SOL    HW211055   1.968   0.422  -0.023
 3575SOL     OW11056   3.302   0.856   1.398
 3575SOL    HW111057   3.245   0.908   1.335
 3575SOL    HW211058   3.398   0.868   1.374
 3576SOL     OW11059   1.934   0.166   0.318
 3576SOL    HW111060   1.917   0.249   0.264
 3576SOL    HW211061   2.024   0.129   0.296
 3577SOL     OW11062   3.045   1.335   0.119
 3577SOL    HW111063   2.946   1.324   0.121
 3577SOL    HW211064   3.079   1.350   0.212
 3578SOL     OW11065   2.475   0.842   1.431
 3578SOL    HW111066   2.531   0.923   1.414
 3578SOL    HW211067   2.534   0.762   1.434
 3579SOL     OW11068   3.355   1.767   0.959
 3579SOL    HW111069   3.388   1.831   0.890
 3579SOL    HW211070   3.421   1.761   1.034
 3580SOL     OW11071   2.578   0.565   1.708
 3580SOL    HW111072   2.597   0.630   1.782
 3580SOL    HW211073   2.638   0.485   1.717
 3581SOL     OW11074   3.312   1.220   1.633
 3581SOL    HW111075   3.303   1.210   1.732
 3581SOL    HW211076   3.408   1.213   1.607
 3582SOL     OW11077   2.252   1.741   1.560
 3582SOL    HW111078   2.161   1.782   1.558
 3582SOL    HW211079   2.245   1.647   1.592
 3583SOL     OW11080   3.536   0.883   1.254
 3583SOL    HW111081   3.509   0.794   1.217
 3583SOL    HW211082   3.537   0.951   1.181
 3584SOL     OW11083   3.087   0.325   0.449
 3584SOL    HW111084   3.152   0.251   0.438
 3584SOL    HW211085   3.107   0.375   0.533
 3585SOL     OW11086   2.456   0.745   0.652
 3585SOL    HW111087   2.506   0.830   0.633
 3585SOL    HW211088   2.368   0.747   0.604
 3586SOL     OW11089   3.639   0.342   1.642
 3586SOL    HW111090   3.622   0.373   1.548
 3586SOL    HW211091   3.555   0.305   1.680
 3587SOL     OW11092   3.592   0.934   1.517
 3587SOL    HW111093   3.630   1.025   1.532
 3587SOL    HW211094   3.584   0.917   1.418
 3588SOL     OW11095   2.721   1.374   0.016
 3588SOL    HW111096   2.675   1.389   0.104
 3588SOL    HW211097   2.765   1.459  -0.014
 3589SOL     OW11098   2.523   1.790   0.953
 3589SOL    HW111099   2.477   1.878   0.940
 3589SOL    HW211100   2.622   1.802   0.946
 3590SOL     OW11101   2.721   0.956   0.861
 3590SOL    HW111102   2.775   0.887   0.909
 3590SOL    HW211103   2.689   1.025   0.927
 3591SOL     OW11104   2.945   0.984   0.087
 3591SOL    HW111105   2.922   1.037   0.005
 3591SOL    HW211106   3.026   0.928   0.068
 3592SOL     OW11107   3.723   1.569   0.851
 3592SOL    HW111108   3.652   1.557   0.781
 3592SOL    HW211109   3.724   1.490   0.911
 3593SOL     OW11110   2.083   1.314   1.844
 3593SOL    HW111111   2.018   1.241   1.823
 3593SOL    HW211112   2.087   1.328   1.942
 3594SOL     OW11113   1.941   1.240   0.653
 3594SOL    HW111114   1.940   1.193   0.741
 3594SOL    HW211115   2.023   1.212   0.602
 3595SOL     OW11116   2.534   1.391   1.624
 3595SOL    HW111117   2.456   1.341   1.662
 3595SOL    HW211118   2.531   1.486   1.655
 3596SOL     OW11119   3.686   0.192   1.227
 3596SOL    HW111120   3.682   0.102   1.271
 3596SOL    HW211121   3.689   0.181   1.128
 3597SOL     OW11122   2.290   0.424   0.520
 3597SOL    HW111123   2.320   0.352   0.458
 3597SOL    HW211124   2.251   0.384   0.603
 3598SOL     OW11125   3.567   1.487   1.104
 3598SOL    HW111126   3.474   1.462   1.077
 3598SOL    HW211127   3.593   1.437   1.186
 3599SOL     OW11128   2.179   0.547   1.280
 3599SOL    HW111129   2.217   0.488   1.352
 3599SOL    HW211130   2.219   0.521   1.192
 3600SOL     OW11131   2.674   1.586   0.687
 3600SOL    HW111132   2.706   1.596   0.593
 3600SOL    HW211133   2.595   1.524   0.689
 3601SOL     OW11134   3.286   0.214   1.112
 3601SOL    HW111135   3.338   0.149   1.167
 3601SOL    HW211136   3.237   0.277   1.173
 3602SOL     OW11137   2.863   0.034   1.154
 3602SOL    HW111138   2.800  -0.038   1.123
 3602SOL    HW211139   2.956  -0.002   1.154
 3603SOL     OW11140   2.632   1.330   0.301
 3603SOL    HW111141   2.586   1.243   0.318
 3603SOL    HW211142   2.723   1.327   0.342
 3604SOL     OW11143   2.480   1.567   1.284
 3604SOL    HW111144   2.475   1.649   1.341
 3604SOL    HW211145   2.569   1.564   1.239
 3605SOL     OW11146   3.214   0.052   0.168
 3605SOL    HW111147   3.249   0.011   0.084
 3605SOL    HW211148   3.124   0.014   0.188
 3606SOL     OW11149   3.162   0.453   0.691
 3606SOL    HW111150   3.103   0.533   0.695
 3606SOL    HW211151   3.177   0.418   0.784
 3607SOL     OW11152   3.455   0.221   0.882
 3607SOL    HW111153   3.371   0.220   0.936
 3607SOL    HW211154   3.457   0.304   0.826
 3608SOL     OW11155   1.901   1.077   0.300
 3608SOL    HW111156   2.000   1.066   0.291
 3608SOL    HW211157   1.861   0.991   0.332
 3609SOL     OW11158   2.737   1.646   0.337
 3609SOL    HW111159   2.660   1.611   0.283
 3609SOL    HW211160   2.705   1.717   0.399
 3610SOL     OW11161   2.092   0.628   1.975
 3610SOL    HW111162   1.999   0.626   2.012
 3610SOL    HW211163   2.093   0.589   1.883
 3611SOL     OW11164   2.087   0.275   2.858
 3611SOL    HW111165   2.122   0.258   2.950
 3611SOL    HW211166   1.999   0.230   2.846
 3612SOL     OW11167   1.881   0.368   2.509
 3612SOL    HW111168   1.799   0.411   2.548
 3612SOL    HW211169   1.853   0.295   2.446
 3613SOL     OW11170   2.431   1.275   3.027
 3613SOL    HW111171   2.338   1.268   2.990
 3613SOL    HW211172   2.442   1.364   3.071
 3614SOL     OW11173   3.417   1.511   2.565
 3614SOL    HW111174   3.360   1.495   2.646
 3614SOL    HW211175   3.358   1.521   2.485
 3615SOL     OW11176   2.997   0.703   2.579
 3615SOL    HW111177   3.054   0.781   2.554
 3615SOL    HW211178   2.937   0.729   2.655
 3616SOL     OW11179   3.617   0.607   2.093
 3616SOL    HW111180   3.605   0.594   1.994
 3616SOL    HW211181   3.587   0.526   2.142
 3617SOL     OW11182   2.630   1.144   2.885
 3617SOL    HW111183   2.552   1.161   2.945
 3617SOL    HW211184   2.664   1.231   2.849
 3618SOL     OW11185   2.712   0.798   3.685
 3618SOL    HW111186   2.708   0.874   3.750
 3618SOL    HW211187   2.734   0.834   3.594
 3619SOL     OW11188   2.547   1.012   2.527
 3619SOL    HW111189   2.616   0.996   2.597
 3619SOL    HW211190   2.474   1.069   2.565
 3620SOL     OW11191   2.548   1.161   3.665
 3620SOL    HW111192   2.608   1.240   3.679
 3620SOL    HW211193   2.462   1.192   3.624
 3621SOL     OW11194   2.197   1.435   2.923
 3621SOL    HW111195   2.119   1.404   2.870
 3621SOL    HW211196   2.255   1.493   2.866
 3622SOL     OW11197   3.322   1.505   3.201
 3622SOL    HW111198   3.346   1.599   3.227
 3622SOL    HW211199   3.306   1.451   3.283
 3623SOL     OW11200   2.300   0.392   3.361
 3623SOL    HW111201   2.382   0.336   3.370
 3623SOL    HW211202   2.219   0.334   3.365
 3624SOL     OW11203   3.465   0.447   2.599
 3624SOL    HW111204   3.391   0.493   2.549
 3624SOL    HW211205   3.516   0.515   2.652
 3625SOL     OW11206   2.093   1.713   2.345
 3625SOL    HW111207   2.127   1.790   2.399
 3625SOL    HW211208   2.137   1.713   2.255
 3626SOL     OW11209   2.989   1.341   3.552
 3626SOL    HW111210   3.036   1.341   3.640
 3626SOL    HW211211   2.941   1.254   3.541
 3627SOL     OW11212   2.092   1.434   2.400
 3627SOL    HW111213   2.066   1.530   2.400
 3627SOL    HW211214   2.021   1.380   2.445
 3628SOL     OW11215   2.102   1.091   2.748
 3628SOL    HW111216   2.116   1.007   2.800
 3628SOL    HW211217   2.047   1.155   2.803
 3629SOL     OW11218   2.482   1.786   3.301
 3629SOL    HW111219   2.390   1.769   3.336
 3629SOL    HW211220   2.510   1.878   3.327
 3630SOL     OW11221   2.468   0.964   1.985
 3630SOL    HW111222   2.475   1.048   1.931
 3630SOL    HW211223   2.514   0.977   2.073
 3631SOL     OW11224   3.456   0.114   3.342
 3631SOL    HW111225   3.438   0.181   3.270
 3631SOL    HW211226   3.453   0.160   3.431
 3632SOL     OW11227   1.984   0.643   2.425
 3632SOL    HW111228   1.939   0.555   2.442
 3632SOL    HW211229   1.983   0.697   2.509
 3633SOL     OW11230   3.704   1.767   2.221
 3633SOL    HW111231   3.758   1.738   2.301
 3633SOL    HW211232   3.734   1.857   2.192
 3634SOL     OW11233   1.889   1.596   1.979
 3634SOL    HW111234   1.870   1.500   2.000
 3634SOL    HW211235   1.856   1.654   2.054
 3635SOL     OW11236   3.551   0.922   2.474
 3635SOL    HW111237   3.646   0.893   2.482
 3635SOL    HW211238   3.543   0.987   2.399
 3636SOL     OW11239   3.503   1.108   2.294
 3636SOL    HW111240   3.589   1.110   2.242
 3636SOL    HW211241   3.517   1.155   2.382
 3637SOL     OW11242   1.975   0.737   3.459
 3637SOL    HW111243   2.063   0.724   3.504
 3637SOL    HW211244   1.962   0.834   3.437
 3638SOL     OW11245   2.475   1.365   2.588
 3638SOL    HW111246   2.426   1.278   2.597
 3638SOL    HW211247   2.452   1.408   2.501
 3639SOL     OW11248   3.155   1.228   3.285
 3639SOL    HW111249   3.192   1.155   3.227
 3639SOL    HW211250   3.207   1.233   3.370
 3640SOL     OW11251   2.671   0.004   2.364
 3640SOL    HW111252   2.711   0.095   2.355
 3640SOL    HW211253   2.571   0.012   2.370
 3641SOL     OW11254   2.059   0.976   3.126
 3641SOL    HW111255   2.148   0.931   3.112
 3641SOL    HW211256   1.986   0.911   3.107
 3642SOL     OW11257   3.387   0.999   2.052
 3642SOL    HW111258   3.324   0.923   2.065
 3642SOL    HW211259   3.435   1.017   2.138
 3643SOL     OW11260   3.049   1.792   3.478
 3643SOL    HW111261   3.073   1.852   3.402
 3643SOL    HW211262   3.056   1.697   3.448
 3644SOL     OW11263   2.179   0.251   3.663
 3644SOL    HW111264   2.250   0.322   3.669
 3644SOL    HW211265   2.091   0.290   3.691
 3645SOL     OW11266   3.328   1.417   2.815
 3645SOL    HW111267   3.269   1.423   2.895
 3645SOL    HW211268   3.313   1.329   2.769
 3646SOL     OW11269   3.529   1.714   2.434
 3646SOL    HW111270   3.488   1.691   2.346
 3646SOL    HW211271   3.511   1.640   2.499
 3647SOL     OW11272   2.460   0.729   2.132
 3647SOL    HW111273   2.484   0.798   2.064
 3647SOL    HW211274   2.382   0.762   2.186
 3648SOL     OW11275   3.143   0.345   2.806
 3648SOL    HW111276   3.057   0.295   2.793
 3648SOL    HW211277   3.205   0.291   2.862
 3649SOL     OW11278   3.438   1.662   2.169
 3649SOL    HW111279   3.527   1.708   2.172
 3649SOL    HW211280   3.417   1.638   2.074
 3650SOL     OW11281   2.669   0.605   3.327
 3650SOL    HW111282   2.622   0.602   3.416
 3650SOL    HW211283   2.618   0.550   3.261
 3651SOL     OW11284   3.256   0.469   3.536
 3651SOL    HW111285   3.236   0.512   3.624
 3651SOL    HW211286   3.334   0.407   3.545
 3652SOL     OW11287   2.835   0.890   3.434
 3652SOL    HW111288   2.881   0.806   3.405
 3652SOL    HW211289   2.779   0.924   3.359
 3653SOL     OW11290   2.853   0.410   3.104
 3653SOL    HW111291   2.776   0.444   3.158
 3653SOL    HW211292   2.819   0.359   3.025
 3654SOL     OW11293   2.903   0.701   2.291
 3654SOL    HW111294   2.929   0.697   2.387
 3654SOL    HW211295   2.818   0.650   2.277
 3655SOL     OW11296   1.938   0.811   2.651
 3655SOL    HW111297   2.037   0.799   2.660
 3655SOL    HW211298   1.914   0.906   2.672
 3656SOL     OW11299   2.727   0.348   2.057
 3656SOL    HW111300   2.786   0.411   2.008
 3656SOL    HW211301   2.746   0.254   2.028
 3657SOL     OW11302   3.581   0.585   3.693
 3657SOL    HW111303   3.555   0.674   3.657
 3657SOL    HW211304   3.579   0.517   3.620
 3658SOL     OW11305   3.224   1.144   2.407
 3658SOL    HW111306   3.307   1.115   2.359
 3658SOL    HW211307   3.175   1.211   2.351
 3659SOL     OW11308   2.412   0.196   2.747
 3659SOL    HW111309   2.407   0.191   2.847
 3659SOL    HW211310   2.414   0.292   2.718
 3660SOL     OW11311   2.870   1.456   2.339
 3660SOL    HW111312   2.824   1.528   2.287
 3660SOL    HW211313   2.866   1.476   2.437
 3661SOL     OW11314   2.213   1.801   2.715
 3661SOL    HW111315   2.263   1.715   2.721
 3661SOL    HW211316   2.278   1.878   2.712
 3662SOL     OW11317   3.657   1.066   2.735
 3662SOL    HW111318   3.595   1.051   2.659
 3662SOL    HW211319   3.605   1.077   2.820
 3663SOL     OW11320   3.089   1.550   3.368
 3663SOL    HW111321   3.095   1.473   3.432
 3663SOL    HW211322   3.037   1.524   3.288
 3664SOL     OW11323   2.183   0.943   2.104
 3664SOL    HW111324   2.265   0.982   2.062
 3664SOL    HW211325   2.156   0.861   2.055
 3665SOL     OW11326   3.320   0.735   2.590
 3665SOL    HW111327   3.315   0.670   2.665
 3665SOL    HW211328   3.400   0.794   2.603
 3666SOL     OW11329   2.323   1.266   3.589
 3666SOL    HW111330   2.273   1.267   3.503
 3666SOL    HW211331   2.260   1.248   3.665
 3667SOL     OW11332   2.973   1.776   2.099
 3667SOL    HW111333   2.913   1.714   2.149
 3667SOL    HW211334   3.004   1.732   2.014
 3668SOL     OW11335   2.064   0.285   3.360
 3668SOL    HW111336   1.984   0.345   3.347
 3668SOL    HW211337   2.054   0.236   3.446
 3669SOL     OW11338   3.494   1.377   1.943
 3669SOL    HW111339   3.462   1.471   1.933
 3669SOL    HW211340   3.418   1.314   1.931
 3670SOL     OW11341   2.326   1.743   2.185
 3670SOL    HW111342   2.359   1.782   2.271
 3670SOL    HW211343   2.402   1.736   2.120
 3671SOL     OW11344   3.262   0.107   2.288
 3671SOL    HW111345   3.238   0.070   2.198
 3671SOL    HW211346   3.361   0.123   2.292
 3672SOL     OW11347   2.111   1.785   3.103
 3672SOL    HW111348   2.168   1.720   3.153
 3672SOL    HW211349   2.095   1.752   3.010
 3673SOL     OW11350   2.802   1.698   2.766
 3673SOL    HW111351   2.882   1.641   2.787
 3673SOL    HW211352   2.753   1.658   2.689
 3674SOL     OW11353   2.244   0.700   2.342
 3674SOL    HW111354   2.289   0.610   2.339
 3674SOL    HW211355   2.150   0.689   2.375
 3675SOL     OW11356   3.409   0.222   3.591
 3675SOL    HW111357   3.404   0.259   3.683
 3675SOL    HW211358   3.337   0.153   3.579
 3676SOL     OW11359   2.476   0.122   1.979
 3676SOL    HW111360   2.574   0.100   1.986
 3676SOL    HW211361   2.445   0.105   1.886
 3677SOL     OW11362   2.643   0.264   3.611
 3677SOL    HW111363   2.710   0.203   3.654
 3677SOL    HW211364   2.570   0.283   3.676
 3678SOL     OW11365   2.750   1.514   3.057
 3678SOL    HW111366   2.727   1.489   2.963
 3678SOL    HW211367   2.811   1.445   3.096
 3679SOL     OW11368   3.213   0.590   3.295
 3679SOL    HW111369   3.241   0.547   3.380
 3679SOL    HW211370   3.238   0.686   3.296
 3680SOL     OW11371   2.665   1.402   2.786
 3680SOL    HW111372   2.755   1.416   2.744
 3680SOL    HW211373   2.594   1.404   2.715
 3681SOL     OW11374   2.784   0.503   2.761
 3681SOL    HW111375   2.759   0.494   2.665
 3681SOL    HW211376   2.832   0.421   2.792
 3682SOL     OW11377   2.401   0.064   2.374
 3682SOL    HW111378   2.320   0.065   2.432
 3682SOL    HW211379   2.404   0.147   2.319
 3683SOL     OW11380   3.296   1.188   1.903
 3683SOL    HW111381   3.328   1.112   1.960
 3683SOL    HW211382   3.204   1.215   1.933
 3684SOL     OW11383   2.159   0.035   2.033
 3684SOL    HW111384   2.208   0.119   2.012
 3684SOL    HW211385   2.221  -0.030   2.078
 3685SOL     OW11386   2.797   0.236   2.342
 3685SOL    HW111387   2.749   0.277   2.264
 3685SOL    HW211388   2.896   0.234   2.323
 3686SOL     OW11389   2.938   0.683   3.326
 3686SOL    HW111390   2.858   0.622   3.329
 3686SOL    HW211391   3.019   0.630   3.302
 3687SOL     OW11392   3.089   1.570   2.655
 3687SOL    HW111393   3.110   1.644   2.590
 3687SOL    HW211394   3.157   1.570   2.728
 3688SOL     OW11395   2.321   1.152   2.603
 3688SOL    HW111396   2.250   1.125   2.668
 3688SOL    HW211397   2.295   1.124   2.510
 3689SOL     OW11398   3.133   1.797   2.453
 3689SOL    HW111399   3.177   1.861   2.389
 3689SOL    HW211400   3.083   1.849   2.523
 3690SOL     OW11401   2.894   0.549   1.878
 3690SOL    HW111402   2.853   0.631   1.839
 3690SOL    HW211403   2.958   0.575   1.951
 3691SOL     OW11404   1.940   0.556   3.248
 3691SOL    HW111405   2.032   0.555   3.207
 3691SOL    HW211406   1.934   0.630   3.315
 3692SOL     OW11407   2.423   0.222   3.009
 3692SOL    HW111408   2.461   0.138   3.046
 3692SOL    HW211409   2.335   0.241   3.053
 3693SOL     OW11410   2.728   0.454   2.504
 3693SOL    HW111411   2.696   0.526   2.442
 3693SOL    HW211412   2.752   0.373   2.451
 3694SOL     OW11413   2.879   0.039   2.615
 3694SOL    HW111414   2.807   0.044   2.546
 3694SOL    HW211415   2.855  -0.030   2.684
 3695SOL     OW11416   3.291   1.173   2.729
 3695SOL    HW111417   3.236   1.089   2.722
 3695SOL    HW211418   3.317   1.202   2.637
 3696SOL     OW11419   3.328   0.590   2.854
 3696SOL    HW111420   3.298   0.495   2.861
 3696SOL    HW211421   3.401   0.606   2.920
 3697SOL     OW11422   3.719   0.833   2.239
 3697SOL    HW111423   3.761   0.769   2.303
 3697SOL    HW211424   3.681   0.782   2.161
 3698SOL     OW11425   2.350   1.385   2.036
 3698SOL    HW111426   2.263   1.370   2.083
 3698SOL    HW211427   2.333   1.411   1.941
 3699SOL     OW11428   3.526   1.280   2.519
 3699SOL    HW111429   3.625   1.288   2.533
 3699SOL    HW211430   3.481   1.364   2.550
 3700SOL     OW11431   3.252   0.575   1.940
 3700SOL    HW111432   3.198   0.554   2.021
 3700SOL    HW211433   3.343   0.534   1.949
 3701SOL     OW11434   2.389   0.256   2.190
 3701SOL    HW111435   2.416   0.197   2.115
 3701SOL    HW211436   2.389   0.351   2.159
 3702SOL     OW11437   3.616   1.223   3.450
 3702SOL    HW111438   3.707   1.184   3.437
 3702SOL    HW211439   3.624   1.319   3.474
 3703SOL     OW11440   2.926   1.347   3.202
 3703SOL    HW111441   2.846   1.324   3.257
 3703SOL    HW211442   3.009   1.321   3.251
 3704SOL     OW11443   3.454   1.629   3.487
 3704SOL    HW111444   3.481   1.663   3.397
 3704SOL    HW211445   3.533   1.591   3.533
 3705SOL     OW11446   2.973   1.195   2.962
 3705SOL    HW111447   2.933   1.239   3.043
 3705SOL    HW211448   2.932   1.232   2.879
 3706SOL     OW11449   3.500   1.099   2.941
 3706SOL    HW111450   3.505   1.180   3.000
 3706SOL    HW211451   3.414   1.101   2.890
 3707SOL     OW11452   2.777   0.089   3.264
 3707SOL    HW111453   2.802   0.069   3.169
 3707SOL    HW211454   2.849   0.145   3.306
 3708SOL     OW11455   2.842   1.116   3.581
 3708SOL    HW111456   2.743   1.122   3.591
 3708SOL    HW211457   2.865   1.036   3.525
 3709SOL     OW11458   2.567   1.050   2.230
 3709SOL    HW111459   2.553   1.057   2.329
 3709SOL    HW211460   2.651   0.999   2.212
 3710SOL     OW11461   2.272   0.813   3.113
 3710SOL    HW111462   2.358   0.825   3.163
 3710SOL    HW211463   2.230   0.726   3.140
 3711SOL     OW11464   3.136   0.386   3.124
 3711SOL    HW111465   3.157   0.460   3.188
 3711SOL    HW211466   3.047   0.403   3.081
 3712SOL     OW11467   1.926   1.564   3.193
 3712SOL    HW111468   1.880   1.646   3.159
 3712SOL    HW211469   2.024   1.583   3.202
 3713SOL     OW11470   2.229   1.100   2.363
 3713SOL    HW111471   2.222   1.183   2.307
 3713SOL    HW211472   2.233   1.020   2.303
 3714SOL     OW11473   2.428   0.537   2.727
 3714SOL    HW111474   2.440   0.603   2.653
 3714SOL    HW211475   2.474   0.571   2.810
 3715SOL     OW11476   3.114   1.348   2.250
 3715SOL    HW111477   3.164   1.425   2.290
 3715SOL    HW211478   3.019   1.350   2.282
 3716SOL     OW11479   3.134   1.445   3.004
 3716SOL    HW111480   3.181   1.458   3.091
 3716SOL    HW211481   3.068   1.371   3.013
 3717SOL     OW11482   3.444   0.639   2.334
 3717SOL    HW111483   3.413   0.700   2.407
 3717SOL    HW211484   3.494   0.691   2.265
 3718SOL     OW11485   2.216   1.510   3.191
 3718SOL    HW111486   2.195   1.466   3.104
 3718SOL    HW211487   2.313   1.536   3.194
 3719SOL     OW11488   2.264   0.751   3.460
 3719SOL    HW111489   2.332   0.806   3.413
 3719SOL    HW211490   2.304   0.663   3.487
 3720SOL     OW11491   3.449   0.779   3.532
 3720SOL    HW111492   3.357   0.817   3.527
 3720SOL    HW211493   3.509   0.826   3.467
 3721SOL     OW11494   2.875   0.105   3.632
 3721SOL    HW111495   2.881   0.190   3.580
 3721SOL    HW211496   2.907   0.029   3.575
 3722SOL     OW11497   2.366   0.050   3.602
 3722SOL    HW111498   2.324  -0.007   3.532
 3722SOL    HW211499   2.300   0.119   3.634
 3723SOL     OW11500   2.435   0.870   2.891
 3723SOL    HW111501   2.479   0.959   2.882
 3723SOL    HW211502   2.372   0.870   2.968
 3724SOL     OW11503   3.222   0.862   2.907
 3724SOL    HW111504   3.147   0.862   2.841
 3724SOL    HW211505   3.259   0.770   2.916
 3725SOL     OW11506   3.071   0.525   2.137
 3725SOL    HW111507   3.084   0.441   2.191
 3725SOL    HW211508   3.042   0.599   2.197
 3726SOL     OW11509   2.169   0.213   3.093
 3726SOL    HW111510   2.146   0.250   3.183
 3726SOL    HW211511   2.139   0.118   3.087
 3727SOL     OW11512   1.899   1.310   3.144
 3727SOL    HW111513   1.952   1.261   3.212
 3727SOL    HW211514   1.921   1.408   3.149
 3728SOL     OW11515   2.594   0.634   2.926
 3728SOL    HW111516   2.653   0.608   2.850
 3728SOL    HW211517   2.566   0.730   2.915
 3729SOL     OW11518   3.590   0.935   3.716
 3729SOL    HW111519   3.544   0.928   3.627
 3729SOL    HW211520   3.528   0.979   3.782
 3730SOL     OW11521   2.169   0.063   2.480
 3730SOL    HW111522   2.158   0.157   2.513
 3730SOL    HW211523   2.164   0.000   2.557
 3731SOL     OW11524   3.484   0.367   2.236
 3731SOL    HW111525   3.486   0.291   2.300
 3731SOL    HW211526   3.436   0.444   2.276
 3732SOL     OW11527   2.885   0.766   2.828
 3732SOL    HW111528   2.900   0.787   2.924
 3732SOL    HW211529   2.855   0.671   2.819
 3733SOL     OW11530   2.842   1.573   3.562
 3733SOL    HW111531   2.822   1.617   3.474
 3733SOL    HW211532   2.881   1.482   3.546
 3734SOL     OW11533   3.721   1.518   3.467
 3734SOL    HW111534   3.735   1.545   3.372
 3734SOL    HW211535   3.804   1.540   3.520
 3735SOL     OW11536   2.212   0.898   3.666
 3735SOL    HW111537   2.288   0.942   3.714
 3735SOL    HW211538   2.247   0.851   3.584
 3736SOL     OW11539   3.402   0.274   1.987
 3736SOL    HW111540   3.341   0.199   2.010
 3736SOL    HW211541   3.424   0.326   2.070
 3737SOL     OW11542   3.165   0.838   1.904
 3737SOL    HW111543   3.199   0.745   1.919
 3737SOL    HW211544   3.183   0.865   1.809
 3738SOL     OW11545   2.930   1.333   2.711
 3738SOL    HW111546   2.937   1.249   2.656
 3738SOL    HW211547   2.992   1.402   2.675
 3739SOL     OW11548   2.181   0.810   2.811
 3739SOL    HW111549   2.274   0.846   2.816
 3739SOL    HW211550   2.175   0.725   2.863
 3740SOL     OW11551   2.201   0.509   2.868
 3740SOL    HW111552   2.149   0.426   2.851
 3740SOL    HW211553   2.278   0.514   2.804
 3741SOL     OW11554   3.000   0.380   3.540
 3741SOL    HW111555   2.955   0.443   3.604
 3741SOL    HW211556   3.093   0.411   3.523
 3742SOL     OW11557   3.022   0.207   3.339
 3742SOL    HW111558   3.022   0.271   3.416
 3742SOL    HW211559   3.050   0.255   3.256
 3743SOL     OW11560   1.870   1.326   2.062
 3743SOL    HW111561   1.777   1.347   2.031
 3743SOL    HW211562   1.880   1.227   2.075
 3744SOL     OW11563   1.950   1.801   2.789
 3744SOL    HW111564   1.908   1.715   2.762
 3744SOL    HW211565   2.044   1.804   2.755
 3745SOL     OW11566   2.366   1.568   2.772
 3745SOL    HW111567   2.432   1.642   2.781
 3745SOL    HW211568   2.410   1.489   2.730
 3746SOL     OW11569   2.864   0.796   3.100
 3746SOL    HW111570   2.905   0.764   3.186
 3746SOL    HW211571   2.768   0.769   3.097
 3747SOL     OW11572   1.902   0.544   2.976
 3747SOL    HW111573   1.987   0.511   2.935
 3747SOL    HW211574   1.915   0.559   3.074
 3748SOL     OW11575   2.051   0.520   3.584
 3748SOL    HW111576   2.110   0.480   3.514
 3748SOL    HW211577   1.993   0.591   3.543
 3749SOL     OW11578   3.231   0.950   3.522
 3749SOL    HW111579   3.270   1.039   3.542
 3749SOL    HW211580   3.241   0.930   3.425
 3750SOL     OW11581   2.677   0.572   2.187
 3750SOL    HW111582   2.684   0.483   2.141
 3750SOL    HW211583   2.583   0.606   2.179
 3751SOL     OW11584   3.519   0.604   3.068
 3751SOL    HW111585   3.481   0.535   3.130
 3751SOL    HW211586   3.601   0.568   3.024
 3752SOL     OW11587   2.114   1.564   3.606
 3752SOL    HW111588   2.084   1.621   3.682
 3752SOL    HW211589   2.107   1.467   3.632
 3753SOL     OW11590   2.533   0.464   3.131
 3753SOL    HW111591   2.499   0.375   3.101
 3753SOL    HW211592   2.559   0.518   3.051
 3754SOL     OW11593   2.792   1.678   3.327
 3754SOL    HW111594   2.768   1.660   3.232
 3754SOL    HW211595   2.822   1.772   3.337
 3755SOL     OW11596   2.335   0.500   2.053
 3755SOL    HW111597   2.396   0.580   2.057
 3755SOL    HW211598   2.240   0.531   2.060
 3756SOL     OW11599   2.021   1.137   3.328
 3756SOL    HW111600   2.043   1.076   3.404
 3756SOL    HW211601   2.031   1.088   3.242
 3757SOL     OW11602   3.209   1.059   3.096
 3757SOL    HW111603   3.233   0.996   3.022
 3757SOL    HW211604   3.119   1.099   3.078
 3758SOL     OW11605   3.164   0.855   2.171
 3758SOL    HW111606   3.078   0.824   2.213
 3758SOL    HW211607   3.160   0.841   2.072
 3759SOL     OW11608   3.621   1.747   3.016
 3759SOL    HW111609   3.682   1.777   2.943
 3759SOL    HW211610   3.583   1.658   2.994
 3760SOL     OW11611   3.114   1.731   2.990
 3760SOL    HW111612   3.198   1.736   2.936
 3760SOL    HW211613   3.091   1.635   3.008
 3761SOL     OW11614   1.945   1.258   2.884
 3761SOL    HW111615   1.940   1.257   2.984
 3761SOL    HW211616   1.862   1.217   2.846
 3762SOL     OW11617   2.550   1.662   3.578
 3762SOL    HW111618   2.494   1.743   3.587
 3762SOL    HW211619   2.602   1.666   3.492
 3763SOL     OW11620   3.588   0.135   2.385
 3763SOL    HW111621   3.661   0.118   2.318
 3763SOL    HW211622   3.557   0.048   2.423
 3764SOL     OW11623   3.250   1.573   2.339
 3764SOL    HW111624   3.317   1.585   2.265
 3764SOL    HW211625   3.210   1.662   2.362
 3765SOL     OW11626   1.992   1.794   3.713
 3765SOL    HW111627   1.951   1.720   3.766
 3765SOL    HW211628   2.056   1.845   3.771
 3766SOL     OW11629   3.142   0.927   2.534
 3766SOL    HW111630   3.202   0.846   2.536
 3766SOL    HW211631   3.182   0.996   2.474
 3767SOL     OW11632   2.692   1.273   3.284
 3767SOL    HW111633   2.687   1.306   3.379
 3767SOL    HW211634   2.606   1.292   3.238
 3768SOL     OW11635   2.534   1.616   2.016
 3768SOL    HW111636   2.543   1.626   1.917
 3768SOL    HW211637   2.494   1.527   2.037
 3769SOL     OW11638   3.512   1.720   3.256
 3769SOL    HW111639   3.565   1.730   3.172
 3769SOL    HW211640   3.485   1.810   3.290
 3770SOL     OW11641   3.703   0.175   2.825
 3770SOL    HW111642   3.742   0.090   2.789
 3770SOL    HW211643   3.605   0.177   2.806
 3771SOL     OW11644   2.125   0.326   2.582
 3771SOL    HW111645   2.046   0.377   2.548
 3771SOL    HW211646   2.116   0.311   2.680
 3772SOL     OW11647   3.056   1.612   1.893
 3772SOL    HW111648   3.062   1.519   1.930
 3772SOL    HW211649   2.997   1.612   1.813
 3773SOL     OW11650   2.684   1.002   3.234
 3773SOL    HW111651   2.724   1.001   3.142
 3773SOL    HW211652   2.694   1.094   3.274
 3774SOL     OW11653   2.778   0.910   2.153
 3774SOL    HW111654   2.841   0.948   2.085
 3774SOL    HW211655   2.818   0.827   2.192
 3775SOL     OW11656   3.366   1.607   1.906
 3775SOL    HW111657   3.274   1.644   1.913
 3775SOL    HW211658   3.404   1.627   1.816
 3776SOL     OW11659   2.234   1.288   3.352
 3776SOL    HW111660   2.221   1.381   3.318
 3776SOL    HW211661   2.150   1.236   3.339
 3777SOL     OW11662   3.476   1.292   3.151
 3777SOL    HW111663   3.536   1.295   3.231
 3777SOL    HW211664   3.401   1.356   3.164
 3778SOL     OW11665   2.901   1.098   2.558
 3778SOL    HW111666   2.831   1.051   2.612
 3778SOL    HW211667   2.960   1.030   2.515
 3779SOL     OW11668   2.876   0.236   2.833
 3779SOL    HW111669   2.868   0.200   2.740
 3779SOL    HW211670   2.874   0.160   2.898
 3780SOL     OW11671   2.452   1.487   2.353
 3780SOL    HW111672   2.494   1.429   2.283
 3780SOL    HW211673   2.408   1.566   2.309
 3781SOL     OW11674   3.571   0.385   3.243
 3781SOL    HW111675   3.644   0.454   3.247
 3781SOL    HW211676   3.599   0.310   3.184
 3782SOL     OW11677   2.117   1.348   2.152
 3782SOL    HW111678   2.021   1.349   2.125
 3782SOL    HW211679   2.129   1.401   2.236
 3783SOL     OW11680   1.967   1.013   3.588
 3783SOL    HW111681   1.890   0.980   3.642
 3783SOL    HW211682   2.052   0.983   3.630
 3784SOL     OW11683   2.534   0.203   3.351
 3784SOL    HW111684   2.624   0.187   3.311
 3784SOL    HW211685   2.542   0.208   3.450
 3785SOL     OW11686   1.937   0.345   1.895
 3785SOL    HW111687   1.845   0.317   1.866
 3785SOL    HW211688   1.968   0.422   1.839
 3786SOL     OW11689   3.302   0.856   3.260
 3786SOL    HW111690   3.245   0.908   3.197
 3786SOL    HW211691   3.398   0.868   3.236
 3787SOL     OW11692   1.934   0.166   2.180
 3787SOL    HW111693   1.917   0.249   2.126
 3787SOL    HW211694   2.024   0.129   2.158
 3788SOL     OW11695   3.045   1.335   1.981
 3788SOL    HW111696   2.946   1.324   1.983
 3788SOL    HW211697   3.079   1.350   2.074
 3789SOL     OW11698   2.475   0.842   3.293
 3789SOL    HW111699   2.531   0.923   3.276
 3789SOL    HW211700   2.534   0.762   3.296
 3790SOL     OW11701   3.355   1.767   2.821
 3790SOL    HW111702   3.388   1.831   2.752
 3790SOL    HW211703   3.421   1.761   2.896
 3791SOL     OW11704   2.578   0.565   3.570
 3791SOL    HW111705   2.597   0.630   3.644
 3791SOL    HW211706   2.638   0.485   3.579
 3792SOL     OW11707   3.312   1.220   3.495
 3792SOL    HW111708   3.303   1.210   3.594
 3792SOL    HW211709   3.408   1.213   3.469
 3793SOL     OW11710   2.252   1.741   3.422
 3793SOL    HW111711   2.161   1.782   3.420
 3793SOL    HW211712   2.245   1.647   3.454
 3794SOL     OW11713   3.536   0.883   3.116
 3794SOL    HW111714   3.509   0.794   3.079
 3794SOL    HW211715   3.537   0.951   3.043
 3795SOL     OW11716   3.087   0.325   2.311
 3795SOL    HW111717   3.152   0.251   2.300
 3795SOL    HW211718   3.107   0.375   2.395
 3796SOL     OW11719   2.456   0.745   2.514
 3796SOL    HW111720   2.506   0.830   2.495
 3796SOL    HW211721   2.368   0.747   2.466
 3797SOL     OW11722   3.639   0.342   3.504
 3797SOL    HW111723   3.622   0.373   3.410
 3797SOL    HW211724   3.555   0.305   3.542
 3798SOL     OW11725   3.592   0.934   3.379
 3798SOL    HW111726   3.630   1.025   3.394
 3798SOL    HW211727   3.584   0.917   3.280
 3799SOL     OW11728   2.721   1.374   1.878
 3799SOL    HW111729   2.675   1.389   1.966
 3799SOL    HW211730   2.765   1.459   1.848
 3800SOL     OW11731   2.523   1.790   2.815
 3800SOL    HW111732   2.477   1.878   2.802
 3800SOL    HW211733   2.622   1.802   2.808
 3801SOL     OW11734   2.721   0.956   2.723
 3801SOL    HW111735   2.775   0.887   2.771
 3801SOL    HW211736   2.689   1.025   2.789
 3802SOL     OW11737   2.945   0.984   1.949
 3802SOL    HW111738   2.922   1.037   1.867
 3802SOL    HW211739   3.026   0.928   1.930
 3803SOL     OW11740   3.723   1.569   2.713
 3803SOL    HW111741   3.652   1.557   2.643
 3803SOL    HW211742   3.724   1.490   2.773
 3804SOL     OW11743   2.083   1.314   3.706
 3804SOL    HW111744   2.018   1.241   3.685
 3804SOL    HW211745   2.087   1.328   3.804
 3805SOL     OW11746   1.941   1.240   2.515
 3805SOL    HW111747   1.940   1.193   2.603
 3805SOL    HW211748   2.023   1.212   2.464
 3806SOL     OW11749   2.534   1.391   3.486
 3806SOL    HW111750   2.456   1.341   3.524
 3806SOL    HW211751   2.531   1.486   3.517
 3807SOL     OW11752   3.686   0.192   3.089
 3807SOL    HW111753   3.682   0.102   3.133
 3807SOL    HW211754   3.689   0.181   2.990
 3808SOL     OW11755   2.290   0.424   2.382
 3808SOL    HW111756   2.320   0.352   2.320
 3808SOL    HW211757   2.251   0.384   2.465
 3809SOL     OW11758   3.567   1.487   2.966
 3809SOL    HW111759   3.474   1.462   2.939
 3809SOL    HW211760   3.593   1.437   3.048
 3810SOL     OW11761   2.179   0.547   3.142
 3810SOL    HW111762   2.217   0.488   3.214
 3810SOL    HW211763   2.219   0.521   3.054
 3811SOL     OW11764   2.674   1.586   2.549
 3811SOL    HW111765   2.706   1.596   2.455
 3811SOL    HW211766   2.595   1.524   2.551
 3812SOL     OW11767   3.286   0.214   2.974
 3812SOL    HW111768   3.338   0.149   3.029
 3812SOL    HW211769   3.237   0.277   3.035
 3813SOL     OW11770   2.863   0.034   3.016
 3813SOL    HW111771   2.800  -0.038   2.985
 3813SOL    HW211772   2.956  -0.002   3.016
 3814SOL     OW11773   2.632   1.330   2.163
 3814SOL    HW111774   2.586   1.243   2.180
 3814SOL    HW211775   2.723   1.327   2.204
 3815SOL     OW11776   2.480   1.567   3.146
 3815SOL    HW111777   2.475   1.649   3.203
 3815SOL    HW211778   2.569   1.564   3.101
 3816SOL     OW11779   3.214   0.052   2.030
 3816SOL    HW111780   3.249   0.011   1.946
 3816SOL    HW211781   3.124   0.014   2.050
 3817SOL     OW11782   3.162   0.453   2.553
 3817SOL    HW111783   3.103   0.533   2.557
 3817SOL    HW211784   3.177   0.418   2.646
 3818SOL     OW11785   3.455   0.221   2.744
 3818SOL    HW111786   3.371   0.220   2.798
 3818SOL    HW211787   3.457   0.304   2.688
 3819SOL     OW11788   1.901   1.077   2.162
 3819SOL    HW111789   2.000   1.066   2.153
 3819SOL    HW211790   1.861   0.991   2.194
 3820SOL     OW11791   2.737   1.646   2.199
 3820SOL    HW111792   2.660   1.611   2.145
 3820SOL    HW211793   2.705   1.717   2.261
 3821SOL     OW11794   2.092   0.628   3.837
 3821SOL    HW111795   1.999   0.626   3.874
 3821SOL    HW211796   2.093   0.589   3.745
 3822SOL     OW11797   2.087   0.275   4.720
 3822SOL    HW111798   2.122   0.258   4.812
 3822SOL    HW211799   1.999   0.230   4.708
 3823SOL     OW11800   1.881   0.368   4.371
 3823SOL    HW111801   1.799   0.411   4.410
 3823SOL    HW211802   1.853   0.295   4.308
 3824SOL     OW11803   2.431   1.275   4.889
 3824SOL    HW111804   2.338   1.268   4.852
 3824SOL    HW211805   2.442   1.364   4.933
 3825SOL     OW11806   3.417   1.511   4.427
 3825SOL    HW111807   3.360   1.495   4.508
 3825SOL    HW211808   3.358   1.521   4.347
 3826SOL     OW11809   2.997   0.703   4.441
 3826SOL    HW111810   3.054   0.781   4.416
 3826SOL    HW211811   2.937   0.729   4.517
 3827SOL     OW11812   3.617   0.607   3.955
 3827SOL    HW111813   3.605   0.594   3.856
 3827SOL    HW211814   3.587   0.526   4.004
 3828SOL     OW11815   2.630   1.144   4.747
 3828SOL    HW111816   2.552   1.161   4.807
 3828SOL    HW211817   2.664   1.231   4.711
 3829SOL     OW11818   2.712   0.798   5.547
 3829SOL    HW111819   2.708   0.874   5.612
 3829SOL    HW211820   2.734   0.834   5.456
 3830SOL     OW11821   2.547   1.012   4.389
 3830SOL    HW111822   2.616   0.996   4.459
 3830SOL    HW211823   2.474   1.069   4.427
 3831SOL     OW11824   2.548   1.161   5.527
 3831SOL    HW111825   2.608   1.240   5.541
 3831SOL    HW211826   2.462   1.192   5.486
 3832SOL     OW11827   2.197   1.435   4.785
 3832SOL    HW111828   2.119   1.404   4.732
 3832SOL    HW211829   2.255   1.493   4.728
 3833SOL     OW11830   3.322   1.505   5.063
 3833SOL    HW111831   3.346   1.599   5.089
 3833SOL    HW211832   3.306   1.451   5.145
 3834SOL     OW11833   2.300   0.392   5.223
 3834SOL    HW111834   2.382   0.336   5.232
 3834SOL    HW211835   2.219   0.334   5.227
 3835SOL     OW11836   3.465   0.447   4.461
 3835SOL    HW111837   3.391   0.493   4.411
 3835SOL    HW211838   3.516   0.515   4.514
 3836SOL     OW11839   2.093   1.713   4.207
 3836SOL    HW111840   2.127   1.790   4.261
 3836SOL    HW211841   2.137   1.713   4.117
 3837SOL     OW11842   2.989   1.341   5.414
 3837SOL    HW111843   3.036   1.341   5.502
 3837SOL    HW211844   2.941   1.254   5.403
 3838SOL     OW11845   2.092   1.434   4.262
 3838SOL    HW111846   2.066   1.530   4.262
 3838SOL    HW211847   2.021   1.380   4.307
 3839SOL     OW11848   2.102   1.091   4.610
 3839SOL    HW111849   2.116   1.007   4.662
 3839SOL    HW211850   2.047   1.155   4.665
 3840SOL     OW11851   2.482   1.786   5.163
 3840SOL    HW111852   2.390   1.769   5.198
 3840SOL    HW211853   2.510   1.878   5.189
 3841SOL     OW11854   2.468   0.964   3.847
 3841SOL    HW111855   2.475   1.048   3.793
 3841SOL    HW211856   2.514   0.977   3.935
 3842SOL     OW11857   3.456   0.114   5.204
 3842SOL    HW111858   3.438   0.181   5.132
 3842SOL    HW211859   3.453   0.160   5.293
 3843SOL     OW11860   1.984   0.643   4.287
 3843SOL    HW111861   1.939   0.555   4.304
 3843SOL    HW211862   1.983   0.697   4.371
 3844SOL     OW11863   3.704   1.767   4.083
 3844SOL    HW111864   3.758   1.738   4.163
 3844SOL    HW211865   3.734   1.857   4.054
 3845SOL     OW11866   1.889   1.596   3.841
 3845SOL    HW111867   1.870   1.500   3.862
 3845SOL    HW211868   1.856   1.654   3.916
 3846SOL     OW11869   3.551   0.922   4.336
 3846SOL    HW111870   3.646   0.893   4.344
 3846SOL    HW211871   3.543   0.987   4.261
 3847SOL     OW11872   3.503   1.108   4.156
 3847SOL    HW111873   3.589   1.110   4.104
 3847SOL    HW211874   3.517   1.155   4.244
 3848SOL     OW11875   1.975   0.737   5.321
 3848SOL    HW111876   2.063   0.724   5.366
 3848SOL    HW211877   1.962   0.834   5.299
 3849SOL     OW11878   2.475   1.365   4.450
 3849SOL    HW111879   2.426   1.278   4.459
 3849SOL    HW211880   2.452   1.408   4.363
 3850SOL     OW11881   3.155   1.228   5.147
 3850SOL    HW111882   3.192   1.155   5.089
 3850SOL    HW211883   3.207   1.233   5.232
 3851SOL     OW11884   2.671   0.004   4.226
 3851SOL    HW111885   2.711   0.095   4.217
 3851SOL    HW211886   2.571   0.012   4.232
 3852SOL     OW11887   2.059   0.976   4.988
 3852SOL    HW111888   2.148   0.931   4.974
 3852SOL    HW211889   1.986   0.911   4.969
 3853SOL     OW11890   3.387   0.999   3.914
 3853SOL    HW111891   3.324   0.923   3.927
 3853SOL    HW211892   3.435   1.017   4.000
 3854SOL     OW11893   3.049   1.792   5.340
 3854SOL    HW111894   3.073   1.852   5.264
 3854SOL    HW211895   3.056   1.697   5.310
 3855SOL     OW11896   2.179   0.251   5.525
 3855SOL    HW111897   2.250   0.322   5.531
 3855SOL    HW211898   2.091   0.290   5.553
 3856SOL     OW11899   3.328   1.417   4.677
 3856SOL    HW111900   3.269   1.423   4.757
 3856SOL    HW211901   3.313   1.329   4.631
 3857SOL     OW11902   3.529   1.714   4.296
 3857SOL    HW111903   3.488   1.691   4.208
 3857SOL    HW211904   3.511   1.640   4.361
 3858SOL     OW11905   2.460   0.729   3.994
 3858SOL    HW111906   2.484   0.798   3.926
 3858SOL    HW211907   2.382   0.762   4.048
 3859SOL     OW11908   3.143   0.345   4.668
 3859SOL    HW111909   3.057   0.295   4.655
 3859SOL    HW211910   3.205   0.291   4.724
 3860SOL     OW11911   3.438   1.662   4.031
 3860SOL    HW111912   3.527   1.708   4.034
 3860SOL    HW211913   3.417   1.638   3.936
 3861SOL     OW11914   2.669   0.605   5.189
 3861SOL    HW111915   2.622   0.602   5.278
 3861SOL    HW211916   2.618   0.550   5.123
 3862SOL     OW11917   3.256   0.469   5.398
 3862SOL    HW111918   3.236   0.512   5.486
 3862SOL    HW211919   3.334   0.407   5.407
 3863SOL     OW11920   2.835   0.890   5.296
 3863SOL    HW111921   2.881   0.806   5.267
 3863SOL    HW211922   2.779   0.924   5.221
 3864SOL     OW11923   2.853   0.410   4.966
 3864SOL    HW111924   2.776   0.444   5.020
 3864SOL    HW211925   2.819   0.359   4.887
 3865SOL     OW11926   2.903   0.701   4.153
 3865SOL    HW111927   2.929   0.697   4.249
 3865SOL    HW211928   2.818   0.650   4.139
 3866SOL     OW11929   1.938   0.811   4.513
 3866SOL    HW111930   2.037   0.799   4.522
 3866SOL    HW211931   1.914   0.906   4.534
 3867SOL     OW11932   2.727   0.348   3.919
 3867SOL    HW111933   2.786   0.411   3.870
 3867SOL    HW211934   2.746   0.254   3.890
 3868SOL     OW11935   3.581   0.585   5.555
 3868SOL    HW111936   3.555   0.674   5.519
 3868SOL    HW211937   3.579   0.517   5.482
 3869SOL     OW11938   3.224   1.144   4.269
 3869SOL    HW111939   3.307   1.115   4.221
 3869SOL    HW211940   3.175   1.211   4.213
 3870SOL     OW11941   2.412   0.196   4.609
 3870SOL    HW111942   2.407   0.191   4.709
 3870SOL    HW211943   2.414   0.292   4.580
 3871SOL     OW11944   2.870   1.456   4.201
 3871SOL    HW111945   2.824   1.528   4.149
 3871SOL    HW211946   2.866   1.476   4.299
 3872SOL     OW11947   2.213   1.801   4.577
 3872SOL    HW111948   2.263   1.715   4.583
 3872SOL    HW211949   2.278   1.878   4.574
 3873SOL     OW11950   3.657   1.066   4.597
 3873SOL    HW111951   3.595   1.051   4.521
 3873SOL    HW211952   3.605   1.077   4.682
 3874SOL     OW11953   3.089   1.550   5.230
 3874SOL    HW111954   3.095   1.473   5.294
 3874SOL    HW211955   3.037   1.524   5.150
 3875SOL     OW11956   2.183   0.943   3.966
 3875SOL    HW111957   2.265   0.982   3.924
 3875SOL    HW211958   2.156   0.861   3.917
 3876SOL     OW11959   3.320   0.735   4.452
 3876SOL    HW111960   3.315   0.670   4.527
 3876SOL    HW211961   3.400   0.794   4.465
 3877SOL     OW11962   2.323   1.266   5.451
 3877SOL    HW111963   2.273   1.267   5.365
 3877SOL    HW211964   2.260   1.248   5.527
 3878SOL     OW11965   2.973   1.776   3.961
 3878SOL    HW111966   2.913   1.714   4.011
 3878SOL    HW211967   3.004   1.732   3.876
 3879SOL     OW11968   2.064   0.285   5.222
 3879SOL    HW111969   1.984   0.345   5.209
 3879SOL    HW211970   2.054   0.236   5.308
 3880SOL     OW11971   3.494   1.377   3.805
 3880SOL    HW111972   3.462   1.471   3.795
 3880SOL    HW211973   3.418   1.314   3.793
 3881SOL     OW11974   2.326   1.743   4.047
 3881SOL    HW111975   2.359   1.782   4.133
 3881SOL    HW211976   2.402   1.736   3.982
 3882SOL     OW11977   3.262   0.107   4.150
 3882SOL    HW111978   3.238   0.070   4.060
 3882SOL    HW211979   3.361   0.123   4.154
 3883SOL     OW11980   2.111   1.785   4.965
 3883SOL    HW111981   2.168   1.720   5.015
 3883SOL    HW211982   2.095   1.752   4.872
 3884SOL     OW11983   2.802   1.698   4.628
 3884SOL    HW111984   2.882   1.641   4.649
 3884SOL    HW211985   2.753   1.658   4.551
 3885SOL     OW11986   2.244   0.700   4.204
 3885SOL    HW111987   2.289   0.610   4.201
 3885SOL    HW211988   2.150   0.689   4.237
 3886SOL     OW11989   3.409   0.222   5.453
 3886SOL    HW111990   3.404   0.259   5.545
 3886SOL    HW211991   3.337   0.153   5.441
 3887SOL     OW11992   2.476   0.122   3.841
 3887SOL    HW111993   2.574   0.100   3.848
 3887SOL    HW211994   2.445   0.105   3.748
 3888SOL     OW11995   2.643   0.264   5.473
 3888SOL    HW111996   2.710   0.203   5.516
 3888SOL    HW211997   2.570   0.283   5.538
 3889SOL     OW11998   2.750   1.514   4.919
 3889SOL    HW111999   2.727   1.489   4.825
 3889SOL    HW212000   2.811   1.445   4.958
 3890SOL     OW12001   3.213   0.590   5.157
 3890SOL    HW112002   3.241   0.547   5.242
 3890SOL    HW212003   3.238   0.686   5.158
 3891SOL     OW12004   2.665   1.402   4.648
 3891SOL    HW112005   2.755   1.416   4.606
 3891SOL    HW212006   2.594   1.404   4.577
 3892SOL     OW12007   2.784   0.503   4.623
 3892SOL    HW112008   2.759   0.494   4.527
 3892SOL    HW212009   2.832   0.421   4.654
 3893SOL     OW12010   2.401   0.064   4.236
 3893SOL    HW112011   2.320   0.065   4.294
 3893SOL    HW212012   2.404   0.147   4.181
 3894SOL     OW12013   3.296   1.188   3.765
 3894SOL    HW112014   3.328   1.112   3.822
 3894SOL    HW212015   3.204   1.215   3.795
 3895SOL     OW12016   2.159   0.035   3.895
 3895SOL    HW112017   2.208   0.119   3.874
 3895SOL    HW212018   2.221  -0.030   3.940
 3896SOL     OW12019   2.797   0.236   4.204
 3896SOL    HW112020   2.749   0.277   4.126
 3896SOL    HW212021   2.896   0.234   4.185
 3897SOL     OW12022   2.938   0.683   5.188
 3897SOL    HW112023   2.858   0.622   5.191
 3897SOL    HW212024   3.019   0.630   5.164
 3898SOL     OW12025   3.089   1.570   4.517
 3898SOL    HW112026   3.110   1.644   4.452
 3898SOL    HW212027   3.157   1.570   4.590
 3899SOL     OW12028   2.321   1.152   4.465
 3899SOL    HW112029   2.250   1.125   4.530
 3899SOL    HW212030   2.295   1.124   4.372
 3900SOL     OW12031   3.133   1.797   4.315
 3900SOL    HW112032   3.177   1.861   4.251
 3900SOL    HW212033   3.083   1.849   4.385
 3901SOL     OW12034   2.894   0.549   3.740
 3901SOL    HW112035   2.853   0.631   3.701
 3901SOL    HW212036   2.958   0.575   3.813
 3902SOL     OW12037   1.940   0.556   5.110
 3902SOL    HW112038   2.032   0.555   5.069
 3902SOL    HW212039   1.934   0.630   5.177
 3903SOL     OW12040   2.423   0.222   4.871
 3903SOL    HW112041   2.461   0.138   4.908
 3903SOL    HW212042   2.335   0.241   4.915
 3904SOL     OW12043   2.728   0.454   4.366
 3904SOL    HW112044   2.696   0.526   4.304
 3904SOL    HW212045   2.752   0.373   4.313
 3905SOL     OW12046   2.879   0.039   4.477
 3905SOL    HW112047   2.807   0.044   4.408
 3905SOL    HW212048   2.855  -0.030   4.546
 3906SOL     OW12049   3.291   1.173   4.591
 3906SOL    HW112050   3.236   1.089   4.584
 3906SOL    HW212051   3.317   1.202   4.499
 3907SOL     OW12052   3.328   0.590   4.716
 3907SOL    HW112053   3.298   0.495   4.723
 3907SOL    HW212054   3.401   0.606   4.782
 3908SOL     OW12055   3.719   0.833   4.101
 3908SOL    HW112056   3.761   0.769   4.165
 3908SOL    HW212057   3.681   0.782   4.023
 3909SOL     OW12058   2.350   1.385   3.898
 3909SOL    HW112059   2.263   1.370   3.945
 3909SOL    HW212060   2.333   1.411   3.803
 3910SOL     OW12061   3.526   1.280   4.381
 3910SOL    HW112062   3.625   1.288   4.395
 3910SOL    HW212063   3.481   1.364   4.412
 3911SOL     OW12064   3.252   0.575   3.802
 3911SOL    HW112065   3.198   0.554   3.883
 3911SOL    HW212066   3.343   0.534   3.811
 3912SOL     OW12067   2.389   0.256   4.052
 3912SOL    HW112068   2.416   0.197   3.977
 3912SOL    HW212069   2.389   0.351   4.021
 3913SOL     OW12070   3.616   1.223   5.312
 3913SOL    HW112071   3.707   1.184   5.299
 3913SOL    HW212072   3.624   1.319   5.336
 3914SOL     OW12073   2.926   1.347   5.064
 3914SOL    HW112074   2.846   1.324   5.119
 3914SOL    HW212075   3.009   1.321   5.113
 3915SOL     OW12076   3.454   1.629   5.349
 3915SOL    HW112077   3.481   1.663   5.259
 3915SOL    HW212078   3.533   1.591   5.395
 3916SOL     OW12079   2.973   1.195   4.824
 3916SOL    HW112080   2.933   1.239   4.905
 3916SOL    HW212081   2.932   1.232   4.741
 3917SOL     OW12082   3.500   1.099   4.803
 3917SOL    HW112083   3.505   1.180   4.862
 3917SOL    HW212084   3.414   1.101   4.752
 3918SOL     OW12085   2.777   0.089   5.126
 3918SOL    HW112086   2.802   0.069   5.031
 3918SOL    HW212087   2.849   0.145   5.168
 3919SOL     OW12088   2.842   1.116   5.443
 3919SOL    HW112089   2.743   1.122   5.453
 3919SOL    HW212090   2.865   1.036   5.387
 3920SOL     OW12091   2.567   1.050   4.092
 3920SOL    HW112092   2.553   1.057   4.191
 3920SOL    HW212093   2.651   0.999   4.074
 3921SOL     OW12094   2.272   0.813   4.975
 3921SOL    HW112095   2.358   0.825   5.025
 3921SOL    HW212096   2.230   0.726   5.002
 3922SOL     OW12097   3.136   0.386   4.986
 3922SOL    HW112098   3.157   0.460   5.050
 3922SOL    HW212099   3.047   0.403   4.943
 3923SOL     OW12100   1.926   1.564   5.055
 3923SOL    HW112101   1.880   1.646   5.021
 3923SOL    HW212102   2.024   1.583   5.064
 3924SOL     OW12103   2.229   1.100   4.225
 3924SOL    HW112104   2.222   1.183   4.169
 3924SOL    HW212105   2.233   1.020   4.165
 3925SOL     OW12106   2.428   0.537   4.589
 3925SOL    HW112107   2.440   0.603   4.515
 3925SOL    HW212108   2.474   0.571   4.672
 3926SOL     OW12109   3.114   1.348   4.112
 3926SOL    HW112110   3.164   1.425   4.152
 3926SOL    HW212111   3.019   1.350   4.144
 3927SOL     OW12112   3.134   1.445   4.866
 3927SOL    HW112113   3.181   1.458   4.953
 3927SOL    HW212114   3.068   1.371   4.875
 3928SOL     OW12115   3.444   0.639   4.196
 3928SOL    HW112116   3.413   0.700   4.269
 3928SOL    HW212117   3.494   0.691   4.127
 3929SOL     OW12118   2.216   1.510   5.053
 3929SOL    HW112119   2.195   1.466   4.966
 3929SOL    HW212120   2.313   1.536   5.056
 3930SOL     OW12121   2.264   0.751   5.322
 3930SOL    HW112122   2.332   0.806   5.275
 3930SOL    HW212123   2.304   0.663   5.349
 3931SOL     OW12124   3.449   0.779   5.394
 3931SOL    HW112125   3.357   0.817   5.389
 3931SOL    HW212126   3.509   0.826   5.329
 3932SOL     OW12127   2.875   0.105   5.494
 3932SOL    HW112128   2.881   0.190   5.442
 3932SOL    HW212129   2.907   0.029   5.437
 3933SOL     OW12130   2.366   0.050   5.464
 3933SOL    HW112131   2.324  -0.007   5.394
 3933SOL    HW212132   2.300   0.119   5.496
 3934SOL     OW12133   2.435   0.870   4.753
 3934SOL    HW112134   2.479   0.959   4.744
 3934SOL    HW212135   2.372   0.870   4.830
 3935SOL     OW12136   3.222   0.862   4.769
 3935SOL    HW112137   3.147   0.862   4.703
 3935SOL    HW212138   3.259   0.770   4.778
 3936SOL     OW12139   3.071   0.525   3.999
 3936SOL    HW112140   3.084   0.441   4.053
 3936SOL    HW212141   3.042   0.599   4.059
 3937SOL     OW12142   2.169   0.213   4.955
 3937SOL    HW112143   2.146   0.250   5.045
 3937SOL    HW212144   2.139   0.118   4.949
 3938SOL     OW12145   1.899   1.310   5.006
 3938SOL    HW112146   1.952   1.261   5.074
 3938SOL    HW212147   1.921   1.408   5.011
 3939SOL     OW12148   2.594   0.634   4.788
 3939SOL    HW112149   2.653   0.608   4.712
 3939SOL    HW212150   2.566   0.730   4.777
 3940SOL     OW12151   3.590   0.935   5.578
 3940SOL    HW112152   3.544   0.928   5.489
 3940SOL    HW212153   3.528   0.979   5.644
 3941SOL     OW12154   2.169   0.063   4.342
 3941SOL    HW112155   2.158   0.157   4.375
 3941SOL    HW212156   2.164   0.000   4.419
 3942SOL     OW12157   3.484   0.367   4.098
 3942SOL    HW112158   3.486   0.291   4.162
 3942SOL    HW212159   3.436   0.444   4.138
 3943SOL     OW12160   2.885   0.766   4.690
 3943SOL    HW112161   2.900   0.787   4.786
 3943SOL    HW212162   2.855   0.671   4.681
 3944SOL     OW12163   2.842   1.573   5.424
 3944SOL    HW112164   2.822   1.617   5.336
 3944SOL    HW212165   2.881   1.482   5.408
 3945SOL     OW12166   3.721   1.518   5.329
 3945SOL    HW112167   3.735   1.545   5.234
 3945SOL    HW212168   3.804   1.540   5.382
 3946SOL     OW12169   2.212   0.898   5.528
 3946SOL    HW112170   2.288   0.942   5.576
 3946SOL    HW212171   2.247   0.851   5.446
 3947SOL     OW12172   3.402   0.274   3.849
 3947SOL    HW112173   3.341   0.199   3.872
 3947SOL    HW212174   3.424   0.326   3.932
 3948SOL     OW12175   3.165   0.838   3.766
 3948SOL    HW112176   3.199   0.745   3.781
 3948SOL    HW212177   3.183   0.865   3.671
 3949SOL     OW12178   2.930   1.333   4.573
 3949SOL    HW112179   2.937   1.249   4.518
 3949SOL    HW212180   2.992   1.402   4.537
 3950SOL     OW12181   2.181   0.810   4.673
 3950SOL    HW112182   2.274   0.846   4.678
 3950SOL    HW212183   2.175   0.725   4.725
 3951SOL     OW12184   2.201   0.509   4.730
 3951SOL    HW112185   2.149   0.426   4.713
 3951SOL    HW212186   2.278   0.514   4.666
 3952SOL     OW12187   3.000   0.380   5.402
 3952SOL    HW112188   2.955   0.443   5.466
 3952SOL    HW212189   3.093   0.411   5.385
 3953SOL     OW12190   3.022   0.207   5.201
 3953SOL    HW112191   3.022   0.271   5.278
 3953SOL    HW212192   3.050   0.255   5.118
 3954SOL     OW12193   1.870   1.326   3.924
 3954SOL    HW112194   1.777   1.347   3.893
 3954SOL    HW212195   1.880   1.227   3.937
 3955SOL     OW12196   1.950   1.801   4.651
 3955SOL    HW112197   1.908   1.715   4.624
 3955SOL    HW212198   2.044   1.804   4.617
 3956SOL     OW12199   2.366   1.568   4.634
 3956SOL    HW112200   2.432   1.642   4.643
 3956SOL    HW212201   2.410   1.489   4.592
 3957SOL     OW12202   2.864   0.796   4.962
 3957SOL    HW112203   2.905   0.764   5.048
 3957SOL    HW212204   2.768   0.769   4.959
 3958SOL     OW12205   1.902   0.544   4.838
 3958SOL    HW112206   1.987   0.511   4.797
 3958SOL    HW212207   1.915   0.559   4.936
 3959SOL     OW12208   2.051   0.520   5.446
 3959SOL    HW112209   2.110   0.480   5.376
 3959SOL    HW212210   1.993   0.591   5.405
 3960SOL     OW12211   3.231   0.950   5.384
 3960SOL    HW112212   3.270   1.039   5.404
 3960SOL    HW212213   3.241   0.930   5.287
 3961SOL     OW12214   2.677   0.572   4.049
 3961SOL    HW112215   2.684   0.483   4.003
 3961SOL    HW212216   2.583   0.606   4.041
 3962SOL     OW12217   3.519   0.604   4.930
 3962SOL    HW112218   3.481   0.535   4.992
 3962SOL    HW212219   3.601   0.568   4.886
 3963SOL     OW12220   2.114   1.564   5.468
 3963SOL    HW112221   2.084   1.621   5.544
 3963SOL    HW212222   2.107   1.467   5.494
 3964SOL     OW12223   2.533   0.464   4.993
 3964SOL    HW112224   2.499   0.375   4.963
 3964SOL    HW212225   2.559   0.518   4.913
 3965SOL     OW12226   2.792   1.678   5.189
 3965SOL    HW112227   2.768   1.660   5.094
 3965SOL    HW212228   2.822   1.772   5.199
 3966SOL     OW12229   2.335   0.500   3.915
 3966SOL    HW112230   2.396   0.580   3.919
 3966SOL    HW212231   2.240   0.531   3.922
 3967SOL     OW12232   2.021   1.137   5.190
 3967SOL    HW112233   2.043   1.076   5.266
 3967SOL    HW212234   2.031   1.088   5.104
 3968SOL     OW12235   3.209   1.059   4.958
 3968SOL    HW112236   3.233   0.996   4.884
 3968SOL    HW212237   3.119   1.099   4.940
 3969SOL     OW12238   3.164   0.855   4.033
 3969SOL    HW112239   3.078   0.824   4.075
 3969SOL    HW212240   3.160   0.841   3.934
 3970SOL     OW12241   3.621   1.747   4.878
 3970SOL    HW112242   3.682   1.777   4.805
 3970SOL    HW212243   3.583   1.658   4.856
 3971SOL     OW12244   3.114   1.731   4.852
 3971SOL    HW112245   3.198   1.736   4.798
 3971SOL    HW212246   3.091   1.635   4.870
 3972SOL     OW12247   1.945   1.258   4.746
 3972SOL    HW112248   1.940   1.257   4.846
 3972SOL    HW212249   1.862   1.217   4.708
 3973SOL     OW12250   2.550   1.662   5.440
 3973SOL    HW112251   2.494   1.743   5.449
 3973SOL    HW212252   2.602   1.666   5.354
 3974SOL     OW12253   3.588   0.135   4.247
 3974SOL    HW112254   3.661   0.118   4.180
 3974SOL    HW212255   3.557   0.048   4.285
 3975SOL     OW12256   3.250   1.573   4.201
 3975SOL    HW112257   3.317   1.585   4.127
 3975SOL    HW212258   3.210   1.662   4.224
 3976SOL     OW12259   1.992   1.794   5.575
 3976SOL    HW112260   1.951   1.720   5.628
 3976SOL    HW212261   2.056   1.845   5.633
 3977SOL     OW12262   3.142   0.927   4.396
 3977SOL    HW112263   3.202   0.846   4.398
 3977SOL    HW212264   3.182   0.996   4.336
 3978SOL     OW12265   2.692   1.273   5.146
 3978SOL    HW112266   2.687   1.306   5.241
 3978SOL    HW212267   2.606   1.292   5.100
 3979SOL     OW12268   2.534   1.616   3.878
 3979SOL    HW112269   2.543   1.626   3.779
 3979SOL    HW212270   2.494   1.527   3.899
 3980SOL     OW12271   3.512   1.720   5.118
 3980SOL    HW112272   3.565   1.730   5.034
 3980SOL    HW212273   3.485   1.810   5.152
 3981SOL     OW12274   3.703   0.175   4.687
 3981SOL    HW112275   3.742   0.090   4.651
 3981SOL    HW212276   3.605   0.177   4.668
 3982SOL     OW12277   2.125   0.326   4.444
 3982SOL    HW112278   2.046   0.377   4.410
 3982SOL    HW212279   2.116   0.311   4.542
 3983SOL     OW12280   3.056   1.612   3.755
 3983SOL    HW112281   3.062   1.519   3.792
 3983SOL    HW212282   2.997   1.612   3.675
 3984SOL     OW12283   2.684   1.002   5.096
 3984SOL    HW112284   2.724   1.001   5.004
 3984SOL    HW212285   2.694   1.094   5.136
 3985SOL     OW12286   2.778   0.910   4.015
 3985SOL    HW112287   2.841   0.948   3.947
 3985SOL    HW212288   2.818   0.827   4.054
 3986SOL     OW12289   3.366   1.607   3.768
 3986SOL    HW112290   3.274   1.644   3.775
 3986SOL    HW212291   3.404   1.627   3.678
 3987SOL     OW12292   2.234   1.288   5.214
 3987SOL    HW112293   2.221   1.381   5.180
 3987SOL    HW212294   2.150   1.236   5.201
 3988SOL     OW12295   3.476   1.292   5.013
 3988SOL    HW112296   3.536   1.295   5.093
 3988SOL    HW212297   3.401   1.356   5.026
 3989SOL     OW12298   2.901   1.098   4.420
 3989SOL    HW112299   2.831   1.051   4.474
 3989SOL    HW212300   2.960   1.030   4.377
 3990SOL     OW12301   2.876   0.236   4.695
 3990SOL    HW112302   2.868   0.200   4.602
 3990SOL    HW212303   2.874   0.160   4.760
 3991SOL     OW12304   2.452   1.487   4.215
 3991SOL    HW112305   2.494   1.429   4.145
 3991SOL    HW212306   2.408   1.566   4.171
 3992SOL     OW12307   3.571   0.385   5.105
 3992SOL    HW112308   3.644   0.454   5.109
 3992SOL    HW212309   3.599   0.310   5.046
 3993SOL     OW12310   2.117   1.348   4.014
 3993SOL    HW112311   2.021   1.349   3.987
 3993SOL    HW212312   2.129   1.401   4.098
 3994SOL     OW12313   1.967   1.013   5.450
 3994SOL    HW112314   1.890   0.980   5.504
 3994SOL    HW212315   2.052   0.983   5.492
 3995SOL     OW12316   2.534   0.203   5.213
 3995SOL    HW112317   2.624   0.187   5.173
 3995SOL    HW212318   2.542   0.208   5.312
 3996SOL     OW12319   1.937   0.345   3.757
 3996SOL    HW112320   1.845   0.317   3.728
 3996SOL    HW212321   1.968   0.422   3.701
 3997SOL     OW12322   3.302   0.856   5.122
 3997SOL    HW112323   3.245   0.908   5.059
 3997SOL    HW212324   3.398   0.868   5.098
 3998SOL     OW12325   1.934   0.166   4.042
 3998SOL    HW112326   1.917   0.249   3.988
 3998SOL    HW212327   2.024   0.129   4.020
 3999SOL     OW12328   3.045   1.335   3.843
 3999SOL    HW112329   2.946   1.324   3.845
 3999SOL    HW212330   3.079   1.350   3.936
 4000SOL     OW12331   2.475   0.842   5.155
 4000SOL    HW112332   2.531   0.923   5.138
 4000SOL    HW212333   2.534   0.762   5.158
 4001SOL     OW12334   3.355   1.767   4.683
 4001SOL    HW112335   3.388   1.831   4.614
 4001SOL    HW212336   3.421   1.761   4.758
 4002SOL     OW12337   2.578   0.565   5.432
 4002SOL    HW112338   2.597   0.630   5.506
 4002SOL    HW212339   2.638   0.485   5.441
 4003SOL     OW12340   3.312   1.220   5.357
 4003SOL    HW112341   3.303   1.210   5.456
 4003SOL    HW212342   3.408   1.213   5.331
 4004SOL     OW12343   2.252   1.741   5.284
 4004SOL    HW112344   2.161   1.782   5.282
 4004SOL    HW212345   2.245   1.647   5.316
 4005SOL     OW12346   3.536   0.883   4.978
 4005SOL    HW112347   3.509   0.794   4.941
 4005SOL    HW212348   3.537   0.951   4.905
 4006SOL     OW12349   3.087   0.325   4.173
 4006SOL    HW112350   3.152   0.251   4.162
 4006SOL    HW212351   3.107   0.375   4.257
 4007SOL     OW12352   2.456   0.745   4.376
 4007SOL    HW112353   2.506   0.830   4.357
 4007SOL    HW212354   2.368   0.747   4.328
 4008SOL     OW12355   3.639   0.342   5.366
 4008SOL    HW112356   3.622   0.373   5.272
 4008SOL    HW212357   3.555   0.305   5.404
 4009SOL     OW12358   3.592   0.934   5.241
 4009SOL    HW112359   3.630   1.025   5.256
 4009SOL    HW212360   3.584   0.917   5.142
 4010SOL     OW12361   2.721   1.374   3.740
 4010SOL    HW112362   2.675   1.389   3.828
 4010SOL    HW212363   2.765   1.459   3.710
 4011SOL     OW12364   2.523   1.790   4.677
 4011SOL    HW112365   2.477   1.878   4.664
 4011SOL    HW212366   2.622   1.802   4.670
 4012SOL     OW12367   2.721   0.956   4.585
 4012SOL    HW112368   2.775   0.887   4.633
 4012SOL    HW212369   2.689   1.025   4.651
 4013SOL     OW12370   2.945   0.984   3.811
 4013SOL    HW112371   2.922   1.037   3.729
 4013SOL    HW212372   3.026   0.928   3.792
 4014SOL     OW12373   3.723   1.569   4.575
 4014SOL    HW112374   3.652   1.557   4.505
 4014SOL    HW212375   3.724   1.490   4.635
 4015SOL     OW12376   2.083   1.314   5.568
 4015SOL    HW112377   2.018   1.241   5.547
 4015SOL    HW212378   2.087   1.328   5.666
 4016SOL     OW12379   1.941   1.240   4.377
 4016SOL    HW112380   1.940   1.193   4.465
 4016SOL    HW212381   2.023   1.212   4.326
 4017SOL     OW12382   2.534   1.391   5.348
 4017SOL    HW112383   2.456   1.341   5.386
 4017SOL    HW212384   2.531   1.486   5.379
 4018SOL     OW12385   3.686   0.192   4.951
 4018SOL    HW112386   3.682   0.102   4.995
 4018SOL    HW212387   3.689   0.181   4.852
 4019SOL     OW12388   2.290   0.424   4.244
 4019SOL    HW112389   2.320   0.352   4.182
 4019SOL    HW212390   2.251   0.384   4.327
 4020SOL     OW12391   3.567   1.487   4.828
 4020SOL    HW112392   3.474   1.462   4.801
 4020SOL    HW212393   3.593   1.437   4.910
 4021SOL     OW12394   2.179   0.547   5.004
 4021SOL    HW112395   2.217   0.488   5.076
 4021SOL    HW212396   2.219   0.521   4.916
 4022SOL     OW12397   2.674   1.586   4.411
 4022SOL    HW112398   2.706   1.596   4.317
 4022SOL    HW212399   2.595   1.524   4.413
 4023SOL     OW12400   3.286   0.214   4.836
 4023SOL    HW112401   3.338   0.149   4.891
 4023SOL    HW212402   3.237   0.277   4.897
 4024SOL     OW12403   2.863   0.034   4.878
 4024SOL    HW112404   2.800  -0.038   4.847
 4024SOL    HW212405   2.956  -0.002   4.878
 4025SOL     OW12406   2.632   1.330   4.025
 4025SOL    HW112407   2.586   1.243   4.042
 4025SOL    HW212408   2.723   1.327   4.066
 4026SOL     OW12409   2.480   1.567   5.008
 4026SOL    HW112410   2.475   1.649   5.065
 4026SOL    HW212411   2.569   1.564   4.963
 4027SOL     OW12412   3.214   0.052   3.892
 4027SOL    HW112413   3.249   0.011   3.808
 4027SOL    HW212414   3.124   0.014   3.912
 4028SOL     OW12415   3.162   0.453   4.415
 4028SOL    HW112416   3.103   0.533   4.419
 4028SOL    HW212417   3.177   0.418   4.508
 4029SOL     OW12418   3.455   0.221   4.606
 4029SOL    HW112419   3.371   0.220   4.660
 4029SOL    HW212420   3.457   0.304   4.550
 4030SOL     OW12421   1.901   1.077   4.024
 4030SOL    HW112422   2.000   1.066   4.015
 4030SOL    HW212423   1.861   0.991   4.056
 4031SOL     OW12424   2.737   1.646   4.061
 4031SOL    HW112425   2.660   1.611   4.007
 4031SOL    HW212426   2.705   1.717   4.123
 4032SOL     OW12427   2.092   0.628   5.699
 4032SOL    HW112428   1.999   0.626   5.736
 4032SOL    HW212429   2.093   0.589   5.607
 4033SOL     OW12430   2.087   0.275   6.582
 4033SOL    HW112431   2.122   0.258   6.674
 4033SOL    HW212432   1.999   0.230   6.570
 4034SOL     OW12433   1.881   0.368   6.233
 4034SOL    HW112434   1.799   0.411   6.272
 4034SOL    HW212435   1.853   0.295   6.170
 4035SOL     OW12436   2.431   1.275   6.751
 4035SOL    HW112437   2.338   1.268   6.714
 4035SOL    HW212438   2.442   1.364   6.795
 4036SOL     OW12439   3.417   1.511   6.289
 4036SOL    HW112440   3.360   1.495   6.370
 4036SOL    HW212441   3.358   1.521   6.209
 4037SOL     OW12442   2.997   0.703   6.303
 4037SOL    HW112443   3.054   0.781   6.278
 4037SOL    HW212444   2.937   0.729   6.379
 4038SOL     OW12445   3.617   0.607   5.817
 4038SOL    HW112446   3.605   0.594   5.718
 4038SOL    HW212447   3.587   0.526   5.866
 4039SOL     OW12448   2.630   1.144   6.609
 4039SOL    HW112449   2.552   1.161   6.669
 4039SOL    HW212450   2.664   1.231   6.573
 4040SOL     OW12451   2.712   0.798   7.409
 4040SOL    HW112452   2.708   0.874   7.474
 4040SOL    HW212453   2.734   0.834   7.318
 4041SOL     OW12454   2.547   1.012   6.251
 4041SOL    HW112455   2.616   0.996   6.321
 4041SOL    HW212456   2.474   1.069   6.289
 4042SOL     OW12457   2.548   1.161   7.389
 4042SOL    HW112458   2.608   1.240   7.403
 4042SOL    HW212459   2.462   1.192   7.348
 4043SOL     OW12460   3.322   1.505   6.925
 4043SOL    HW112461   3.346   1.599   6.951
 4043SOL    HW212462   3.306   1.451   7.007
 4044SOL     OW12463   2.300   0.392   7.085
 4044SOL    HW112464   2.382   0.336   7.094
 4044SOL    HW212465   2.219   0.334   7.089
 4045SOL     OW12466   3.465   0.447   6.323
 4045SOL    HW112467   3.391   0.493   6.273
 4045SOL    HW212468   3.516   0.515   6.376
 4046SOL     OW12469   2.093   1.713   6.069
 4046SOL    HW112470   2.127   1.790   6.123
 4046SOL    HW212471   2.137   1.713   5.979
 4047SOL     OW12472   2.989   1.341   7.276
 4047SOL    HW112473   3.036   1.341   7.364
 4047SOL    HW212474   2.941   1.254   7.265
 4048SOL     OW12475   2.092   1.434   6.124
 4048SOL    HW112476   2.066   1.530   6.124
 4048SOL    HW212477   2.021   1.380   6.169
 4049SOL     OW12478   2.102   1.091   6.472
 4049SOL    HW112479   2.116   1.007   6.524
 4049SOL    HW212480   2.047   1.155   6.527
 4050SOL     OW12481   2.468   0.964   5.709
 4050SOL    HW112482   2.475   1.048   5.655
 4050SOL    HW212483   2.514   0.977   5.797
 4051SOL     OW12484   3.456   0.114   7.066
 4051SOL    HW112485   3.438   0.181   6.994
 4051SOL    HW212486   3.453   0.160   7.155
 4052SOL     OW12487   1.984   0.643   6.149
 4052SOL    HW112488   1.939   0.555   6.166
 4052SOL    HW212489   1.983   0.697   6.233
 4053SOL     OW12490   3.704   1.767   5.945
 4053SOL    HW112491   3.758   1.738   6.025
 4053SOL    HW212492   3.734   1.857   5.916
 4054SOL     OW12493   1.889   1.596   5.703
 4054SOL    HW112494   1.870   1.500   5.724
 4054SOL    HW212495   1.856   1.654   5.778
 4055SOL     OW12496   3.551   0.922   6.198
 4055SOL    HW112497   3.646   0.893   6.206
 4055SOL    HW212498   3.543   0.987   6.123
 4056SOL     OW12499   3.503   1.108   6.018
 4056SOL    HW112500   3.589   1.110   5.966
 4056SOL    HW212501   3.517   1.155   6.106
 4057SOL     OW12502   1.975   0.737   7.183
 4057SOL    HW112503   2.063   0.724   7.228
 4057SOL    HW212504   1.962   0.834   7.161
 4058SOL     OW12505   2.475   1.365   6.312
 4058SOL    HW112506   2.426   1.278   6.321
 4058SOL    HW212507   2.452   1.408   6.225
 4059SOL     OW12508   3.155   1.228   7.009
 4059SOL    HW112509   3.192   1.155   6.951
 4059SOL    HW212510   3.207   1.233   7.094
 4060SOL     OW12511   2.671   0.004   6.088
 4060SOL    HW112512   2.711   0.095   6.079
 4060SOL    HW212513   2.571   0.012   6.094
 4061SOL     OW12514   2.059   0.976   6.850
 4061SOL    HW112515   2.148   0.931   6.836
 4061SOL    HW212516   1.986   0.911   6.831
 4062SOL     OW12517   3.387   0.999   5.776
 4062SOL    HW112518   3.324   0.923   5.789
 4062SOL    HW212519   3.435   1.017   5.862
 4063SOL     OW12520   3.049   1.792   7.202
 4063SOL    HW112521   3.073   1.852   7.126
 4063SOL    HW212522   3.056   1.697   7.172
 4064SOL     OW12523   2.179   0.251   7.387
 4064SOL    HW112524   2.250   0.322   7.393
 4064SOL    HW212525   2.091   0.290   7.415
 4065SOL     OW12526   3.328   1.417   6.539
 4065SOL    HW112527   3.269   1.423   6.619
 4065SOL    HW212528   3.313   1.329   6.493
 4066SOL     OW12529   3.529   1.714   6.158
 4066SOL    HW112530   3.488   1.691   6.070
 4066SOL    HW212531   3.511   1.640   6.223
 4067SOL     OW12532   2.460   0.729   5.856
 4067SOL    HW112533   2.484   0.798   5.788
 4067SOL    HW212534   2.382   0.762   5.910
 4068SOL     OW12535   3.143   0.345   6.530
 4068SOL    HW112536   3.057   0.295   6.517
 4068SOL    HW212537   3.205   0.291   6.586
 4069SOL     OW12538   3.438   1.662   5.893
 4069SOL    HW112539   3.527   1.708   5.896
 4069SOL    HW212540   3.417   1.638   5.798
 4070SOL     OW12541   2.669   0.605   7.051
 4070SOL    HW112542   2.622   0.602   7.140
 4070SOL    HW212543   2.618   0.550   6.985
 4071SOL     OW12544   3.256   0.469   7.260
 4071SOL    HW112545   3.236   0.512   7.348
 4071SOL    HW212546   3.334   0.407   7.269
 4072SOL     OW12547   2.835   0.890   7.158
 4072SOL    HW112548   2.881   0.806   7.129
 4072SOL    HW212549   2.779   0.924   7.083
 4073SOL     OW12550   2.853   0.410   6.828
 4073SOL    HW112551   2.776   0.444   6.882
 4073SOL    HW212552   2.819   0.359   6.749
 4074SOL     OW12553   2.903   0.701   6.015
 4074SOL    HW112554   2.929   0.697   6.111
 4074SOL    HW212555   2.818   0.650   6.001
 4075SOL     OW12556   1.938   0.811   6.375
 4075SOL    HW112557   2.037   0.799   6.384
 4075SOL    HW212558   1.914   0.906   6.396
 4076SOL     OW12559   2.727   0.348   5.781
 4076SOL    HW112560   2.786   0.411   5.732
 4076SOL    HW212561   2.746   0.254   5.752
 4077SOL     OW12562   3.581   0.585   7.417
 4077SOL    HW112563   3.555   0.674   7.381
 4077SOL    HW212564   3.579   0.517   7.344
 4078SOL     OW12565   3.224   1.144   6.131
 4078SOL    HW112566   3.307   1.115   6.083
 4078SOL    HW212567   3.175   1.211   6.075
 4079SOL     OW12568   2.412   0.196   6.471
 4079SOL    HW112569   2.407   0.191   6.571
 4079SOL    HW212570   2.414   0.292   6.442
 4080SOL     OW12571   2.870   1.456   6.063
 4080SOL    HW112572   2.824   1.528   6.011
 4080SOL    HW212573   2.866   1.476   6.161
 4081SOL     OW12574   2.213   1.801   6.439
 4081SOL    HW112575   2.263   1.715   6.445
 4081SOL    HW212576   2.278   1.878   6.436
 4082SOL     OW12577   3.657   1.066   6.459
 4082SOL    HW112578   3.595   1.051   6.383
 4082SOL    HW212579   3.605   1.077   6.544
 4083SOL     OW12580   3.089   1.550   7.092
 4083SOL    HW112581   3.095   1.473   7.156
 4083SOL    HW212582   3.037   1.524   7.012
 4084SOL     OW12583   2.183   0.943   5.828
 4084SOL    HW112584   2.265   0.982   5.786
 4084SOL    HW212585   2.156   0.861   5.779
 4085SOL     OW12586   3.320   0.735   6.314
 4085SOL    HW112587   3.315   0.670   6.389
 4085SOL    HW212588   3.400   0.794   6.327
 4086SOL     OW12589   2.323   1.266   7.313
 4086SOL    HW112590   2.273   1.267   7.227
 4086SOL    HW212591   2.260   1.248   7.389
 4087SOL     OW12592   2.973   1.776   5.823
 4087SOL    HW112593   2.913   1.714   5.873
 4087SOL    HW212594   3.004   1.732   5.738
 4088SOL     OW12595   2.064   0.285   7.084
 4088SOL    HW112596   1.984   0.345   7.071
 4088SOL    HW212597   2.054   0.236   7.170
 4089SOL     OW12598   3.494   1.377   5.667
 4089SOL    HW112599   3.462   1.471   5.657
 4089SOL    HW212600   3.418   1.314   5.655
 4090SOL     OW12601   2.326   1.743   5.909
 4090SOL    HW112602   2.359   1.782   5.995
 4090SOL    HW212603   2.402   1.736   5.844
 4091SOL     OW12604   3.262   0.107   6.012
 4091SOL    HW112605   3.238   0.070   5.922
 4091SOL    HW212606   3.361   0.123   6.016
 4092SOL     OW12607   2.802   1.698   6.490
 4092SOL    HW112608   2.882   1.641   6.511
 4092SOL    HW212609   2.753   1.658   6.413
 4093SOL     OW12610   2.244   0.700   6.066
 4093SOL    HW112611   2.289   0.610   6.063
 4093SOL    HW212612   2.150   0.689   6.099
 4094SOL     OW12613   3.409   0.222   7.315
 4094SOL    HW112614   3.404   0.259   7.407
 4094SOL    HW212615   3.337   0.153   7.303
 4095SOL     OW12616   2.476   0.122   5.703
 4095SOL    HW112617   2.574   0.100   5.710
 4095SOL    HW212618   2.445   0.105   5.610
 4096SOL     OW12619   2.643   0.264   7.335
 4096SOL    HW112620   2.710   0.203   7.378
 4096SOL    HW212621   2.570   0.283   7.400
 4097SOL     OW12622   2.750   1.514   6.781
 4097SOL    HW112623   2.727   1.489   6.687
 4097SOL    HW212624   2.811   1.445   6.820
 4098SOL     OW12625   3.213   0.590   7.019
 4098SOL    HW112626   3.241   0.547   7.104
 4098SOL    HW212627   3.238   0.686   7.020
 4099SOL     OW12628   2.665   1.402   6.510
 4099SOL    HW112629   2.755   1.416   6.468
 4099SOL    HW212630   2.594   1.404   6.439
 4100SOL     OW12631   2.784   0.503   6.485
 4100SOL    HW112632   2.759   0.494   6.389
 4100SOL    HW212633   2.832   0.421   6.516
 4101SOL     OW12634   2.401   0.064   6.098
 4101SOL    HW112635   2.320   0.065   6.156
 4101SOL    HW212636   2.404   0.147   6.043
 4102SOL     OW12637   3.296   1.188   5.627
 4102SOL    HW112638   3.328   1.112   5.684
 4102SOL    HW212639   3.204   1.215   5.657
 4103SOL     OW12640   2.159   0.035   5.757
 4103SOL    HW112641   2.208   0.119   5.736
 4103SOL    HW212642   2.221  -0.030   5.802
 4104SOL     OW12643   2.797   0.236   6.066
 4104SOL    HW112644   2.749   0.277   5.988
 4104SOL    HW212645   2.896   0.234   6.047
 4105SOL     OW12646   2.938   0.683   7.050
 4105SOL    HW112647   2.858   0.622   7.053
 4105SOL    HW212648   3.019   0.630   7.026
 4106SOL     OW12649   3.089   1.570   6.379
 4106SOL    HW112650   3.110   1.644   6.314
 4106SOL    HW212651   3.157   1.570   6.452
 4107SOL     OW12652   2.321   1.152   6.327
 4107SOL    HW112653   2.250   1.125   6.392
 4107SOL    HW212654   2.295   1.124   6.234
 4108SOL     OW12655   3.133   1.797   6.177
 4108SOL    HW112656   3.177   1.861   6.113
 4108SOL    HW212657   3.083   1.849   6.247
 4109SOL     OW12658   2.894   0.549   5.602
 4109SOL    HW112659   2.853   0.631   5.563
 4109SOL    HW212660   2.958   0.575   5.675
 4110SOL     OW12661   1.940   0.556   6.972
 4110SOL    HW112662   2.032   0.555   6.931
 4110SOL    HW212663   1.934   0.630   7.039
 4111SOL     OW12664   2.423   0.222   6.733
 4111SOL    HW112665   2.461   0.138   6.770
 4111SOL    HW212666   2.335   0.241   6.777
 4112SOL     OW12667   2.728   0.454   6.228
 4112SOL    HW112668   2.696   0.526   6.166
 4112SOL    HW212669   2.752   0.373   6.175
 4113SOL     OW12670   2.879   0.039   6.339
 4113SOL    HW112671   2.807   0.044   6.270
 4113SOL    HW212672   2.855  -0.030   6.408
 4114SOL     OW12673   3.291   1.173   6.453
 4114SOL    HW112674   3.236   1.089   6.446
 4114SOL    HW212675   3.317   1.202   6.361
 4115SOL     OW12676   3.328   0.590   6.578
 4115SOL    HW112677   3.298   0.495   6.585
 4115SOL    HW212678   3.401   0.606   6.644
 4116SOL     OW12679   3.719   0.833   5.963
 4116SOL    HW112680   3.761   0.769   6.027
 4116SOL    HW212681   3.681   0.782   5.885
 4117SOL     OW12682   2.350   1.385   5.760
 4117SOL    HW112683   2.263   1.370   5.807
 4117SOL    HW212684   2.333   1.411   5.665
 4118SOL     OW12685   3.526   1.280   6.243
 4118SOL    HW112686   3.625   1.288   6.257
 4118SOL    HW212687   3.481   1.364   6.274
 4119SOL     OW12688   3.252   0.575   5.664
 4119SOL    HW112689   3.198   0.554   5.745
 4119SOL    HW212690   3.343   0.534   5.673
 4120SOL     OW12691   2.389   0.256   5.914
 4120SOL    HW112692   2.416   0.197   5.839
 4120SOL    HW212693   2.389   0.351   5.883
 4121SOL     OW12694   3.616   1.223   7.174
 4121SOL    HW112695   3.707   1.184   7.161
 4121SOL    HW212696   3.624   1.319   7.198
 4122SOL     OW12697   2.926   1.347   6.926
 4122SOL    HW112698   2.846   1.324   6.981
 4122SOL    HW212699   3.009   1.321   6.975
 4123SOL     OW12700   3.454   1.629   7.211
 4123SOL    HW112701   3.481   1.663   7.121
 4123SOL    HW212702   3.533   1.591   7.257
 4124SOL     OW12703   2.973   1.195   6.686
 4124SOL    HW112704   2.933   1.239   6.767
 4124SOL    HW212705   2.932   1.232   6.603
 4125SOL     OW12706   3.500   1.099   6.665
 4125SOL    HW112707   3.505   1.180   6.724
 4125SOL    HW212708   3.414   1.101   6.614
 4126SOL     OW12709   2.777   0.089   6.988
 4126SOL    HW112710   2.802   0.069   6.893
 4126SOL    HW212711   2.849   0.145   7.030
 4127SOL     OW12712   2.842   1.116   7.305
 4127SOL    HW112713   2.743   1.122   7.315
 4127SOL    HW212714   2.865   1.036   7.249
 4128SOL     OW12715   2.567   1.050   5.954
 4128SOL    HW112716   2.553   1.057   6.053
 4128SOL    HW212717   2.651   0.999   5.936
 4129SOL     OW12718   2.272   0.813   6.837
 4129SOL    HW112719   2.358   0.825   6.887
 4129SOL    HW212720   2.230   0.726   6.864
 4130SOL     OW12721   3.136   0.386   6.848
 4130SOL    HW112722   3.157   0.460   6.912
 4130SOL    HW212723   3.047   0.403   6.805
 4131SOL     OW12724   2.229   1.100   6.087
 4131SOL    HW112725   2.222   1.183   6.031
 4131SOL    HW212726   2.233   1.020   6.027
 4132SOL     OW12727   2.428   0.537   6.451
 4132SOL    HW112728   2.440   0.603   6.377
 4132SOL    HW212729   2.474   0.571   6.534
 4133SOL     OW12730   3.114   1.348   5.974
 4133SOL    HW112731   3.164   1.425   6.014
 4133SOL    HW212732   3.019   1.350   6.006
 4134SOL     OW12733   3.134   1.445   6.728
 4134SOL    HW112734   3.181   1.458   6.815
 4134SOL    HW212735   3.068   1.371   6.737
 4135SOL     OW12736   3.444   0.639   6.058
 4135SOL    HW112737   3.413   0.700   6.131
 4135SOL    HW212738   3.494   0.691   5.989
 4136SOL     OW12739   2.264   0.751   7.184
 4136SOL    HW112740   2.332   0.806   7.137
 4136SOL    HW212741   2.304   0.663   7.211
 4137SOL     OW12742   3.449   0.779   7.256
 4137SOL    HW112743   3.357   0.817   7.251
 4137SOL    HW212744   3.509   0.826   7.191
 4138SOL     OW12745   2.875   0.105   7.356
 4138SOL    HW112746   2.881   0.190   7.304
 4138SOL    HW212747   2.907   0.029   7.299
 4139SOL     OW12748   2.366   0.050   7.326
 4139SOL    HW112749   2.324  -0.007   7.256
 4139SOL    HW212750   2.300   0.119   7.358
 4140SOL     OW12751   2.435   0.870   6.615
 4140SOL    HW112752   2.479   0.959   6.606
 4140SOL    HW212753   2.372   0.870   6.692
 4141SOL     OW12754   3.222   0.862   6.631
 4141SOL    HW112755   3.147   0.862   6.565
 4141SOL    HW212756   3.259   0.770   6.640
 4142SOL     OW12757   3.071   0.525   5.861
 4142SOL    HW112758   3.084   0.441   5.915
 4142SOL    HW212759   3.042   0.599   5.921
 4143SOL     OW12760   2.169   0.213   6.817
 4143SOL    HW112761   2.146   0.250   6.907
 4143SOL    HW212762   2.139   0.118   6.811
 4144SOL     OW12763   2.594   0.634   6.650
 4144SOL    HW112764   2.653   0.608   6.574
 4144SOL    HW212765   2.566   0.730   6.639
 4145SOL     OW12766   3.590   0.935   7.440
 4145SOL    HW112767   3.544   0.928   7.351
 4145SOL    HW212768   3.528   0.979   7.506
 4146SOL     OW12769   2.169   0.063   6.204
 4146SOL    HW112770   2.158   0.157   6.237
 4146SOL    HW212771   2.164   0.000   6.281
 4147SOL     OW12772   3.484   0.367   5.960
 4147SOL    HW112773   3.486   0.291   6.024
 4147SOL    HW212774   3.436   0.444   6.000
 4148SOL     OW12775   2.885   0.766   6.552
 4148SOL    HW112776   2.900   0.787   6.648
 4148SOL    HW212777   2.855   0.671   6.543
 4149SOL     OW12778   2.842   1.573   7.286
 4149SOL    HW112779   2.822   1.617   7.198
 4149SOL    HW212780   2.881   1.482   7.270
 4150SOL     OW12781   3.721   1.518   7.191
 4150SOL    HW112782   3.735   1.545   7.096
 4150SOL    HW212783   3.804   1.540   7.244
 4151SOL     OW12784   2.212   0.898   7.390
 4151SOL    HW112785   2.288   0.942   7.438
 4151SOL    HW212786   2.247   0.851   7.308
 4152SOL     OW12787   3.402   0.274   5.711
 4152SOL    HW112788   3.341   0.199   5.734
 4152SOL    HW212789   3.424   0.326   5.794
 4153SOL     OW12790   3.165   0.838   5.628
 4153SOL    HW112791   3.199   0.745   5.643
 4153SOL    HW212792   3.183   0.865   5.533
 4154SOL     OW12793   2.930   1.333   6.435
 4154SOL    HW112794   2.937   1.249   6.380
 4154SOL    HW212795   2.992   1.402   6.399
 4155SOL     OW12796   2.181   0.810   6.535
 4155SOL    HW112797   2.274   0.846   6.540
 4155SOL    HW212798   2.175   0.725   6.587
 4156SOL     OW12799   2.201   0.509   6.592
 4156SOL    HW112800   2.149   0.426   6.575
 4156SOL    HW212801   2.278   0.514   6.528
 4157SOL     OW12802   3.000   0.380   7.264
 4157SOL    HW112803   2.955   0.443   7.328
 4157SOL    HW212804   3.093   0.411   7.247
 4158SOL     OW12805   3.022   0.207   7.063
 4158SOL    HW112806   3.022   0.271   7.140
 4158SOL    HW212807   3.050   0.255   6.980
 4159SOL     OW12808   1.870   1.326   5.786
 4159SOL    HW112809   1.777   1.347   5.755
 4159SOL    HW212810   1.880   1.227   5.799
 4160SOL     OW12811   1.950   1.801   6.513
 4160SOL    HW112812   1.908   1.715   6.486
 4160SOL    HW212813   2.044   1.804   6.479
 4161SOL     OW12814   2.366   1.568   6.496
 4161SOL    HW112815   2.432   1.642   6.505
 4161SOL    HW212816   2.410   1.489   6.454
 4162SOL     OW12817   2.864   0.796   6.824
 4162SOL    HW112818   2.905   0.764   6.910
 4162SOL    HW212819   2.768   0.769   6.821
 4163SOL     OW12820   1.902   0.544   6.700
 4163SOL    HW112821   1.987   0.511   6.659
 4163SOL    HW212822   1.915   0.559   6.798
 4164SOL     OW12823   2.051   0.520   7.308
 4164SOL    HW112824   2.110   0.480   7.238
 4164SOL    HW212825   1.993   0.591   7.267
 4165SOL     OW12826   3.231   0.950   7.246
 4165SOL    HW112827   3.270   1.039   7.266
 4165SOL    HW212828   3.241   0.930   7.149
 4166SOL     OW12829   2.677   0.572   5.911
 4166SOL    HW112830   2.684   0.483   5.865
 4166SOL    HW212831   2.583   0.606   5.903
 4167SOL     OW12832   3.519   0.604   6.792
 4167SOL    HW112833   3.481   0.535   6.854
 4167SOL    HW212834   3.601   0.568   6.748
 4168SOL     OW12835   2.533   0.464   6.855
 4168SOL    HW112836   2.499   0.375   6.825
 4168SOL    HW212837   2.559   0.518   6.775
 4169SOL     OW12838   2.792   1.678   7.051
 4169SOL    HW112839   2.768   1.660   6.956
 4169SOL    HW212840   2.822   1.772   7.061
 4170SOL     OW12841   2.335   0.500   5.777
 4170SOL    HW112842   2.396   0.580   5.781
 4170SOL    HW212843   2.240   0.531   5.784
 4171SOL     OW12844   2.021   1.137   7.052
 4171SOL    HW112845   2.043   1.076   7.128
 4171SOL    HW212846   2.031   1.088   6.966
 4172SOL     OW12847   3.209   1.059   6.820
 4172SOL    HW112848   3.233   0.996   6.746
 4172SOL    HW212849   3.119   1.099   6.802
 4173SOL     OW12850   3.164   0.855   5.895
 4173SOL    HW112851   3.078   0.824   5.937
 4173SOL    HW212852   3.160   0.841   5.796
 4174SOL     OW12853   3.621   1.747   6.740
 4174SOL    HW112854   3.682   1.777   6.667
 4174SOL    HW212855   3.583   1.658   6.718
 4175SOL     OW12856   3.114   1.731   6.714
 4175SOL    HW112857   3.198   1.736   6.660
 4175SOL    HW212858   3.091   1.635   6.732
 4176SOL     OW12859   1.945   1.258   6.608
 4176SOL    HW112860   1.940   1.257   6.708
 4176SOL    HW212861   1.862   1.217   6.570
 4177SOL     OW12862   3.588   0.135   6.109
 4177SOL    HW112863   3.661   0.118   6.042
 4177SOL    HW212864   3.557   0.048   6.147
 4178SOL     OW12865   3.250   1.573   6.063
 4178SOL    HW112866   3.317   1.585   5.989
 4178SOL    HW212867   3.210   1.662   6.086
 4179SOL     OW12868   3.142   0.927   6.258
 4179SOL    HW112869   3.202   0.846   6.260
 4179SOL    HW212870   3.182   0.996   6.198
 4180SOL     OW12871   2.692   1.273   7.008
 4180SOL    HW112872   2.687   1.306   7.103
 4180SOL    HW212873   2.606   1.292   6.962
 4181SOL     OW12874   2.534   1.616   5.740
 4181SOL    HW112875   2.543   1.626   5.641
 4181SOL    HW212876   2.494   1.527   5.761
 4182SOL     OW12877   3.512   1.720   6.980
 4182SOL    HW112878   3.565   1.730   6.896
 4182SOL    HW212879   3.485   1.810   7.014
 4183SOL     OW12880   3.703   0.175   6.549
 4183SOL    HW112881   3.742   0.090   6.513
 4183SOL    HW212882   3.605   0.177   6.530
 4184SOL     OW12883   2.125   0.326   6.306
 4184SOL    HW112884   2.046   0.377   6.272
 4184SOL    HW212885   2.116   0.311   6.404
 4185SOL     OW12886   3.056   1.612   5.617
 4185SOL    HW112887   3.062   1.519   5.654
 4185SOL    HW212888   2.997   1.612   5.537
 4186SOL     OW12889   2.684   1.002   6.958
 4186SOL    HW112890   2.724   1.001   6.866
 4186SOL    HW212891   2.694   1.094   6.998
 4187SOL     OW12892   2.778   0.910   5.877
 4187SOL    HW112893   2.841   0.948   5.809
 4187SOL    HW212894   2.818   0.827   5.916
 4188SOL     OW12895   3.366   1.607   5.630
 4188SOL    HW112896   3.274   1.644   5.637
 4188SOL    HW212897   3.404   1.627   5.540
 4189SOL     OW12898   2.234   1.288   7.076
 4189SOL    HW112899   2.221   1.381   7.042
 4189SOL    HW212900   2.150   1.236   7.063
 4190SOL     OW12901   3.476   1.292   6.875
 4190SOL    HW112902   3.536   1.295   6.955
 4190SOL    HW212903   3.401   1.356   6.888
 4191SOL     OW12904   2.901   1.098   6.282
 4191SOL    HW112905   2.831   1.051   6.336
 4191SOL    HW212906   2.960   1.030   6.239
 4192SOL     OW12907   2.876   0.236   6.557
 4192SOL    HW112908   2.868   0.200   6.464
 4192SOL    HW212909   2.874   0.160   6.622
 4193SOL     OW12910   2.452   1.487   6.077
 4193SOL    HW112911   2.494   1.429   6.007
 4193SOL    HW212912   2.408   1.566   6.033
 4194SOL     OW12913   3.571   0.385   6.967
 4194SOL    HW112914   3.644   0.454   6.971
 4194SOL    HW212915   3.599   0.310   6.908
 4195SOL     OW12916   2.117   1.348   5.876
 4195SOL    HW112917   2.021   1.349   5.849
 4195SOL    HW212918   2.129   1.401   5.960
 4196SOL     OW12919   1.967   1.013   7.312
 4196SOL    HW112920   1.890   0.980   7.366
 4196SOL    HW212921   2.052   0.983   7.354
 4197SOL     OW12922   2.534   0.203   7.075
 4197SOL    HW112923   2.624   0.187   7.035
 4197SOL    HW212924   2.542   0.208   7.174
 4198SOL     OW12925   1.937   0.345   5.619
 4198SOL    HW112926   1.845   0.317   5.590
 4198SOL    HW212927   1.968   0.422   5.563
 4199SOL     OW12928   3.302   0.856   6.984
 4199SOL    HW112929   3.245   0.908   6.921
 4199SOL    HW212930   3.398   0.868   6.960
 4200SOL     OW12931   1.934   0.166   5.904
 4200SOL    HW112932   1.917   0.249   5.850
 4200SOL    HW212933   2.024   0.129   5.882
 4201SOL     OW12934   3.045   1.335   5.705
 4201SOL    HW112935   2.946   1.324   5.707
 4201SOL    HW212936   3.079   1.350   5.798
 4202SOL     OW12937   2.475   0.842   7.017
 4202SOL    HW112938   2.531   0.923   7.000
 4202SOL    HW212939   2.534   0.762   7.020
 4203SOL     OW12940   3.355   1.767   6.545
 4203SOL    HW112941   3.388   1.831   6.476
 4203SOL    HW212942   3.421   1.761   6.620
 4204SOL     OW12943   2.578   0.565   7.294
 4204SOL    HW112944   2.597   0.630   7.368
 4204SOL    HW212945   2.638   0.485   7.303
 4205SOL     OW12946   3.312   1.220   7.219
 4205SOL    HW112947   3.303   1.210   7.318
 4205SOL    HW212948   3.408   1.213   7.193
 4206SOL     OW12949   3.536   0.883   6.840
 4206SOL    HW112950   3.509   0.794   6.803
 4206SOL    HW212951   3.537   0.951   6.767
 4207SOL     OW12952   3.087   0.325   6.035
 4207SOL    HW112953   3.152   0.251   6.024
 4207SOL    HW212954   3.107   0.375   6.119
 4208SOL     OW12955   2.456   0.745   6.238
 4208SOL    HW112956   2.506   0.830   6.219
 4208SOL    HW212957   2.368   0.747   6.190
 4209SOL     OW12958   3.639   0.342   7.228
 4209SOL    HW112959   3.622   0.373   7.134
 4209SOL    HW212960   3.555   0.305   7.266
 4210SOL     OW12961   3.592   0.934   7.103
 4210SOL    HW112962   3.630   1.025   7.118
 4210SOL    HW212963   3.584   0.917   7.004
 4211SOL     OW12964   2.721   1.374   5.602
 4211SOL    HW112965   2.675   1.389   5.690
 4211SOL    HW212966   2.765   1.459   5.572
 4212SOL     OW12967   2.721   0.956   6.447
 4212SOL    HW112968   2.775   0.887   6.495
 4212SOL    HW212969   2.689   1.025   6.513
 4213SOL     OW12970   2.945   0.984   5.673
 4213SOL    HW112971   2.922   1.037   5.591
 4213SOL    HW212972   3.026   0.928   5.654
 4214SOL     OW12973   3.723   1.569   6.437
 4214SOL    HW112974   3.652   1.557   6.367
 4214SOL    HW212975   3.724   1.490   6.497
 4215SOL     OW12976   2.083   1.314   7.430
 4215SOL    HW112977   2.018   1.241   7.409
 4215SOL    HW212978   2.087   1.328   7.528
 4216SOL     OW12979   1.941   1.240   6.239
 4216SOL    HW112980   1.940   1.193   6.327
 4216SOL    HW212981   2.023   1.212   6.188
 4217SOL     OW12982   2.534   1.391   7.210
 4217SOL    HW112983   2.456   1.341   7.248
 4217SOL    HW212984   2.531   1.486   7.241
 4218SOL     OW12985   3.686   0.192   6.813
 4218SOL    HW112986   3.682   0.102   6.857
 4218SOL    HW212987   3.689   0.181   6.714
 4219SOL     OW12988   2.290   0.424   6.106
 4219SOL    HW112989   2.320   0.352   6.044
 4219SOL    HW212990   2.251   0.384   6.189
 4220SOL     OW12991   3.567   1.487   6.690
 4220SOL    HW112992   3.474   1.462   6.663
 4220SOL    HW212993   3.593   1.437   6.772
 4221SOL     OW12994   2.179   0.547   6.866
 4221SOL    HW112995   2.217   0.488   6.938
 4221SOL    HW212996   2.219   0.521   6.778
 4222SOL     OW12997   2.674   1.586   6.273
 4222SOL    HW112998   2.706   1.596   6.179
 4222SOL    HW212999   2.595   1.524   6.275
 4223SOL     OW13000   3.286   0.214   6.698
 4223SOL    HW113001   3.338   0.149   6.753
 4223SOL    HW213002   3.237   0.277   6.759
 4224SOL     OW13003   2.863   0.034   6.740
 4224SOL    HW113004   2.800  -0.038   6.709
 4224SOL    HW213005   2.956  -0.002   6.740
 4225SOL     OW13006   2.632   1.330   5.887
 4225SOL    HW113007   2.586   1.243   5.904
 4225SOL    HW213008   2.723   1.327   5.928
 4226SOL     OW13009   3.214   0.052   5.754
 4226SOL    HW113010   3.249   0.011   5.670
 4226SOL    HW213011   3.124   0.014   5.774
 4227SOL     OW13012   3.162   0.453   6.277
 4227SOL    HW113013   3.103   0.533   6.281
 4227SOL    HW213014   3.177   0.418   6.370
 4228SOL     OW13015   3.455   0.221   6.468
 4228SOL    HW113016   3.371   0.220   6.522
 4228SOL    HW213017   3.457   0.304   6.412
 4229SOL     OW13018   1.901   1.077   5.886
 4229SOL    HW113019   2.000   1.066   5.877
 4229SOL    HW213020   1.861   0.991   5.918
 4230SOL     OW13021   2.737   1.646   5.923
 4230SOL    HW113022   2.660   1.611   5.869
 4230SOL    HW213023   2.705   1.717   5.985
 4231SOL     OW13024   2.092   0.628   7.561
 4231SOL    HW113025   1.999   0.626   7.598
 4231SOL    HW213026   2.093   0.589   7.469
 4232SOL     OW13027   2.087   0.275   8.444
 4232SOL    HW113028   2.122   0.258   8.536
 4232SOL    HW213029   1.999   0.230   8.432
 4233SOL     OW13030   1.881   0.368   8.095
 4233SOL    HW113031   1.799   0.411   8.134
 4233SOL    HW213032   1.853   0.295   8.032
 4234SOL     OW13033   2.431   1.275   8.613
 4234SOL    HW113034   2.338   1.268   8.576
 4234SOL    HW213035   2.442   1.364   8.657
 4235SOL     OW13036   3.417   1.511   8.151
 4235SOL    HW113037   3.360   1.495   8.232
 4235SOL    HW213038   3.358   1.521   8.071
 4236SOL     OW13039   2.997   0.703   8.165
 4236SOL    HW113040   3.054   0.781   8.140
 4236SOL    HW213041   2.937   0.729   8.241
 4237SOL     OW13042   3.617   0.607   7.679
 4237SOL    HW113043   3.605   0.594   7.580
 4237SOL    HW213044   3.587   0.526   7.728
 4238SOL     OW13045   2.630   1.144   8.471
 4238SOL    HW113046   2.552   1.161   8.531
 4238SOL    HW213047   2.664   1.231   8.435
 4239SOL     OW13048   2.712   0.798   9.271
 4239SOL    HW113049   2.708   0.874   9.336
 4239SOL    HW213050   2.734   0.834   9.180
 4240SOL     OW13051   2.547   1.012   8.113
 4240SOL    HW113052   2.616   0.996   8.183
 4240SOL    HW213053   2.474   1.069   8.151
 4241SOL     OW13054   2.548   1.161   9.251
 4241SOL    HW113055   2.608   1.240   9.265
 4241SOL    HW213056   2.462   1.192   9.210
 4242SOL     OW13057   2.197   1.435   8.509
 4242SOL    HW113058   2.119   1.404   8.456
 4242SOL    HW213059   2.255   1.493   8.452
 4243SOL     OW13060   3.322   1.505   8.787
 4243SOL    HW113061   3.346   1.599   8.813
 4243SOL    HW213062   3.306   1.451   8.869
 4244SOL     OW13063   2.300   0.392   8.947
 4244SOL    HW113064   2.382   0.336   8.956
 4244SOL    HW213065   2.219   0.334   8.951
 4245SOL     OW13066   3.465   0.447   8.185
 4245SOL    HW113067   3.391   0.493   8.135
 4245SOL    HW213068   3.516   0.515   8.238
 4246SOL     OW13069   2.093   1.713   7.931
 4246SOL    HW113070   2.127   1.790   7.985
 4246SOL    HW213071   2.137   1.713   7.841
 4247SOL     OW13072   2.989   1.341   9.138
 4247SOL    HW113073   3.036   1.341   9.226
 4247SOL    HW213074   2.941   1.254   9.127
 4248SOL     OW13075   2.092   1.434   7.986
 4248SOL    HW113076   2.066   1.530   7.986
 4248SOL    HW213077   2.021   1.380   8.031
 4249SOL     OW13078   2.102   1.091   8.334
 4249SOL    HW113079   2.116   1.007   8.386
 4249SOL    HW213080   2.047   1.155   8.389
 4250SOL     OW13081   2.482   1.786   8.887
 4250SOL    HW113082   2.390   1.769   8.922
 4250SOL    HW213083   2.510   1.878   8.913
 4251SOL     OW13084   2.468   0.964   7.571
 4251SOL    HW113085   2.475   1.048   7.517
 4251SOL    HW213086   2.514   0.977   7.659
 4252SOL     OW13087   3.456   0.114   8.928
 4252SOL    HW113088   3.438   0.181   8.856
 4252SOL    HW213089   3.453   0.160   9.017
 4253SOL     OW13090   1.984   0.643   8.011
 4253SOL    HW113091   1.939   0.555   8.028
 4253SOL    HW213092   1.983   0.697   8.095
 4254SOL     OW13093   3.704   1.767   7.807
 4254SOL    HW113094   3.758   1.738   7.887
 4254SOL    HW213095   3.734   1.857   7.778
 4255SOL     OW13096   1.889   1.596   7.565
 4255SOL    HW113097   1.870   1.500   7.586
 4255SOL    HW213098   1.856   1.654   7.640
 4256SOL     OW13099   3.551   0.922   8.060
 4256SOL    HW113100   3.646   0.893   8.068
 4256SOL    HW213101   3.543   0.987   7.985
 4257SOL     OW13102   3.503   1.108   7.880
 4257SOL    HW113103   3.589   1.110   7.828
 4257SOL    HW213104   3.517   1.155   7.968
 4258SOL     OW13105   1.975   0.737   9.045
 4258SOL    HW113106   2.063   0.724   9.090
 4258SOL    HW213107   1.962   0.834   9.023
 4259SOL     OW13108   2.475   1.365   8.174
 4259SOL    HW113109   2.426   1.278   8.183
 4259SOL    HW213110   2.452   1.408   8.087
 4260SOL     OW13111   3.155   1.228   8.871
 4260SOL    HW113112   3.192   1.155   8.813
 4260SOL    HW213113   3.207   1.233   8.956
 4261SOL     OW13114   2.671   0.004   7.950
 4261SOL    HW113115   2.711   0.095   7.941
 4261SOL    HW213116   2.571   0.012   7.956
 4262SOL     OW13117   2.059   0.976   8.712
 4262SOL    HW113118   2.148   0.931   8.698
 4262SOL    HW213119   1.986   0.911   8.693
 4263SOL     OW13120   3.387   0.999   7.638
 4263SOL    HW113121   3.324   0.923   7.651
 4263SOL    HW213122   3.435   1.017   7.724
 4264SOL     OW13123   3.049   1.792   9.064
 4264SOL    HW113124   3.073   1.852   8.988
 4264SOL    HW213125   3.056   1.697   9.034
 4265SOL     OW13126   2.179   0.251   9.249
 4265SOL    HW113127   2.250   0.322   9.255
 4265SOL    HW213128   2.091   0.290   9.277
 4266SOL     OW13129   3.328   1.417   8.401
 4266SOL    HW113130   3.269   1.423   8.481
 4266SOL    HW213131   3.313   1.329   8.355
 4267SOL     OW13132   3.529   1.714   8.020
 4267SOL    HW113133   3.488   1.691   7.932
 4267SOL    HW213134   3.511   1.640   8.085
 4268SOL     OW13135   2.460   0.729   7.718
 4268SOL    HW113136   2.484   0.798   7.650
 4268SOL    HW213137   2.382   0.762   7.772
 4269SOL     OW13138   3.143   0.345   8.392
 4269SOL    HW113139   3.057   0.295   8.379
 4269SOL    HW213140   3.205   0.291   8.448
 4270SOL     OW13141   3.438   1.662   7.755
 4270SOL    HW113142   3.527   1.708   7.758
 4270SOL    HW213143   3.417   1.638   7.660
 4271SOL     OW13144   2.669   0.605   8.913
 4271SOL    HW113145   2.622   0.602   9.002
 4271SOL    HW213146   2.618   0.550   8.847
 4272SOL     OW13147   3.256   0.469   9.122
 4272SOL    HW113148   3.236   0.512   9.210
 4272SOL    HW213149   3.334   0.407   9.131
 4273SOL     OW13150   2.835   0.890   9.020
 4273SOL    HW113151   2.881   0.806   8.991
 4273SOL    HW213152   2.779   0.924   8.945
 4274SOL     OW13153   2.853   0.410   8.690
 4274SOL    HW113154   2.776   0.444   8.744
 4274SOL    HW213155   2.819   0.359   8.611
 4275SOL     OW13156   2.903   0.701   7.877
 4275SOL    HW113157   2.929   0.697   7.973
 4275SOL    HW213158   2.818   0.650   7.863
 4276SOL     OW13159   1.938   0.811   8.237
 4276SOL    HW113160   2.037   0.799   8.246
 4276SOL    HW213161   1.914   0.906   8.258
 4277SOL     OW13162   2.727   0.348   7.643
 4277SOL    HW113163   2.786   0.411   7.594
 4277SOL    HW213164   2.746   0.254   7.614
 4278SOL     OW13165   3.581   0.585   9.279
 4278SOL    HW113166   3.555   0.674   9.243
 4278SOL    HW213167   3.579   0.517   9.206
 4279SOL     OW13168   3.224   1.144   7.993
 4279SOL    HW113169   3.307   1.115   7.945
 4279SOL    HW213170   3.175   1.211   7.937
 4280SOL     OW13171   2.412   0.196   8.333
 4280SOL    HW113172   2.407   0.191   8.433
 4280SOL    HW213173   2.414   0.292   8.304
 4281SOL     OW13174   2.870   1.456   7.925
 4281SOL    HW113175   2.824   1.528   7.873
 4281SOL    HW213176   2.866   1.476   8.023
 4282SOL     OW13177   2.213   1.801   8.301
 4282SOL    HW113178   2.263   1.715   8.307
 4282SOL    HW213179   2.278   1.878   8.298
 4283SOL     OW13180   3.657   1.066   8.321
 4283SOL    HW113181   3.595   1.051   8.245
 4283SOL    HW213182   3.605   1.077   8.406
 4284SOL     OW13183   3.089   1.550   8.954
 4284SOL    HW113184   3.095   1.473   9.018
 4284SOL    HW213185   3.037   1.524   8.874
 4285SOL     OW13186   2.183   0.943   7.690
 4285SOL    HW113187   2.265   0.982   7.648
 4285SOL    HW213188   2.156   0.861   7.641
 4286SOL     OW13189   3.320   0.735   8.176
 4286SOL    HW113190   3.315   0.670   8.251
 4286SOL    HW213191   3.400   0.794   8.189
 4287SOL     OW13192   2.323   1.266   9.175
 4287SOL    HW113193   2.273   1.267   9.089
 4287SOL    HW213194   2.260   1.248   9.251
 4288SOL     OW13195   2.973   1.776   7.685
 4288SOL    HW113196   2.913   1.714   7.735
 4288SOL    HW213197   3.004   1.732   7.600
 4289SOL     OW13198   2.064   0.285   8.946
 4289SOL    HW113199   1.984   0.345   8.933
 4289SOL    HW213200   2.054   0.236   9.032
 4290SOL     OW13201   3.494   1.377   7.529
 4290SOL    HW113202   3.462   1.471   7.519
 4290SOL    HW213203   3.418   1.314   7.517
 4291SOL     OW13204   2.326   1.743   7.771
 4291SOL    HW113205   2.359   1.782   7.857
 4291SOL    HW213206   2.402   1.736   7.706
 4292SOL     OW13207   3.262   0.107   7.874
 4292SOL    HW113208   3.238   0.070   7.784
 4292SOL    HW213209   3.361   0.123   7.878
 4293SOL     OW13210   2.111   1.785   8.689
 4293SOL    HW113211   2.168   1.720   8.739
 4293SOL    HW213212   2.095   1.752   8.596
 4294SOL     OW13213   2.802   1.698   8.352
 4294SOL    HW113214   2.882   1.641   8.373
 4294SOL    HW213215   2.753   1.658   8.275
 4295SOL     OW13216   2.244   0.700   7.928
 4295SOL    HW113217   2.289   0.610   7.925
 4295SOL    HW213218   2.150   0.689   7.961
 4296SOL     OW13219   3.409   0.222   9.177
 4296SOL    HW113220   3.404   0.259   9.269
 4296SOL    HW213221   3.337   0.153   9.165
 4297SOL     OW13222   2.476   0.122   7.565
 4297SOL    HW113223   2.574   0.100   7.572
 4297SOL    HW213224   2.445   0.105   7.472
 4298SOL     OW13225   2.643   0.264   9.197
 4298SOL    HW113226   2.710   0.203   9.240
 4298SOL    HW213227   2.570   0.283   9.262
 4299SOL     OW13228   2.750   1.514   8.643
 4299SOL    HW113229   2.727   1.489   8.549
 4299SOL    HW213230   2.811   1.445   8.682
 4300SOL     OW13231   3.213   0.590   8.881
 4300SOL    HW113232   3.241   0.547   8.966
 4300SOL    HW213233   3.238   0.686   8.882
 4301SOL     OW13234   2.665   1.402   8.372
 4301SOL    HW113235   2.755   1.416   8.330
 4301SOL    HW213236   2.594   1.404   8.301
 4302SOL     OW13237   2.784   0.503   8.347
 4302SOL    HW113238   2.759   0.494   8.251
 4302SOL    HW213239   2.832   0.421   8.378
 4303SOL     OW13240   2.401   0.064   7.960
 4303SOL    HW113241   2.320   0.065   8.018
 4303SOL    HW213242   2.404   0.147   7.905
 4304SOL     OW13243   3.296   1.188   7.489
 4304SOL    HW113244   3.328   1.112   7.546
 4304SOL    HW213245   3.204   1.215   7.519
 4305SOL     OW13246   2.159   0.035   7.619
 4305SOL    HW113247   2.208   0.119   7.598
 4305SOL    HW213248   2.221  -0.030   7.664
 4306SOL     OW13249   2.797   0.236   7.928
 4306SOL    HW113250   2.749   0.277   7.850
 4306SOL    HW213251   2.896   0.234   7.909
 4307SOL     OW13252   2.938   0.683   8.912
 4307SOL    HW113253   2.858   0.622   8.915
 4307SOL    HW213254   3.019   0.630   8.888
 4308SOL     OW13255   3.089   1.570   8.241
 4308SOL    HW113256   3.110   1.644   8.176
 4308SOL    HW213257   3.157   1.570   8.314
 4309SOL     OW13258   2.321   1.152   8.189
 4309SOL    HW113259   2.250   1.125   8.254
 4309SOL    HW213260   2.295   1.124   8.096
 4310SOL     OW13261   3.133   1.797   8.039
 4310SOL    HW113262   3.177   1.861   7.975
 4310SOL    HW213263   3.083   1.849   8.109
 4311SOL     OW13264   2.894   0.549   7.464
 4311SOL    HW113265   2.853   0.631   7.425
 4311SOL    HW213266   2.958   0.575   7.537
 4312SOL     OW13267   1.940   0.556   8.834
 4312SOL    HW113268   2.032   0.555   8.793
 4312SOL    HW213269   1.934   0.630   8.901
 4313SOL     OW13270   2.423   0.222   8.595
 4313SOL    HW113271   2.461   0.138   8.632
 4313SOL    HW213272   2.335   0.241   8.639
 4314SOL     OW13273   2.728   0.454   8.090
 4314SOL    HW113274   2.696   0.526   8.028
 4314SOL    HW213275   2.752   0.373   8.037
 4315SOL     OW13276   2.879   0.039   8.201
 4315SOL    HW113277   2.807   0.044   8.132
 4315SOL    HW213278   2.855  -0.030   8.270
 4316SOL     OW13279   3.291   1.173   8.315
 4316SOL    HW113280   3.236   1.089   8.308
 4316SOL    HW213281   3.317   1.202   8.223
 4317SOL     OW13282   3.328   0.590   8.440
 4317SOL    HW113283   3.298   0.495   8.447
 4317SOL    HW213284   3.401   0.606   8.506
 4318SOL     OW13285   3.719   0.833   7.825
 4318SOL    HW113286   3.761   0.769   7.889
 4318SOL    HW213287   3.681   0.782   7.747
 4319SOL     OW13288   2.350   1.385   7.622
 4319SOL    HW113289   2.263   1.370   7.669
 4319SOL    HW213290   2.333   1.411   7.527
 4320SOL     OW13291   3.526   1.280   8.105
 4320SOL    HW113292   3.625   1.288   8.119
 4320SOL    HW213293   3.481   1.364   8.136
 4321SOL     OW13294   3.252   0.575   7.526
 4321SOL    HW113295   3.198   0.554   7.607
 4321SOL    HW213296   3.343   0.534   7.535
 4322SOL     OW13297   2.389   0.256   7.776
 4322SOL    HW113298   2.416   0.197   7.701
 4322SOL    HW213299   2.389   0.351   7.745
 4323SOL     OW13300   3.616   1.223   9.036
 4323SOL    HW113301   3.707   1.184   9.023
 4323SOL    HW213302   3.624   1.319   9.060
 4324SOL     OW13303   2.926   1.347   8.788
 4324SOL    HW113304   2.846   1.324   8.843
 4324SOL    HW213305   3.009   1.321   8.837
 4325SOL     OW13306   3.454   1.629   9.073
 4325SOL    HW113307   3.481   1.663   8.983
 4325SOL    HW213308   3.533   1.591   9.119
 4326SOL     OW13309   2.973   1.195   8.548
 4326SOL    HW113310   2.933   1.239   8.629
 4326SOL    HW213311   2.932   1.232   8.465
 4327SOL     OW13312   3.500   1.099   8.527
 4327SOL    HW113313   3.505   1.180   8.586
 4327SOL    HW213314   3.414   1.101   8.476
 4328SOL     OW13315   2.777   0.089   8.850
 4328SOL    HW113316   2.802   0.069   8.755
 4328SOL    HW213317   2.849   0.145   8.892
 4329SOL     OW13318   2.842   1.116   9.167
 4329SOL    HW113319   2.743   1.122   9.177
 4329SOL    HW213320   2.865   1.036   9.111
 4330SOL     OW13321   2.567   1.050   7.816
 4330SOL    HW113322   2.553   1.057   7.915
 4330SOL    HW213323   2.651   0.999   7.798
 4331SOL     OW13324   2.272   0.813   8.699
 4331SOL    HW113325   2.358   0.825   8.749
 4331SOL    HW213326   2.230   0.726   8.726
 4332SOL     OW13327   3.136   0.386   8.710
 4332SOL    HW113328   3.157   0.460   8.774
 4332SOL    HW213329   3.047   0.403   8.667
 4333SOL     OW13330   1.926   1.564   8.779
 4333SOL    HW113331   1.880   1.646   8.745
 4333SOL    HW213332   2.024   1.583   8.788
 4334SOL     OW13333   2.229   1.100   7.949
 4334SOL    HW113334   2.222   1.183   7.893
 4334SOL    HW213335   2.233   1.020   7.889
 4335SOL     OW13336   2.428   0.537   8.313
 4335SOL    HW113337   2.440   0.603   8.239
 4335SOL    HW213338   2.474   0.571   8.396
 4336SOL     OW13339   3.114   1.348   7.836
 4336SOL    HW113340   3.164   1.425   7.876
 4336SOL    HW213341   3.019   1.350   7.868
 4337SOL     OW13342   3.134   1.445   8.590
 4337SOL    HW113343   3.181   1.458   8.677
 4337SOL    HW213344   3.068   1.371   8.599
 4338SOL     OW13345   3.444   0.639   7.920
 4338SOL    HW113346   3.413   0.700   7.993
 4338SOL    HW213347   3.494   0.691   7.851
 4339SOL     OW13348   2.216   1.510   8.777
 4339SOL    HW113349   2.195   1.466   8.690
 4339SOL    HW213350   2.313   1.536   8.780
 4340SOL     OW13351   2.264   0.751   9.046
 4340SOL    HW113352   2.332   0.806   8.999
 4340SOL    HW213353   2.304   0.663   9.073
 4341SOL     OW13354   3.449   0.779   9.118
 4341SOL    HW113355   3.357   0.817   9.113
 4341SOL    HW213356   3.509   0.826   9.053
 4342SOL     OW13357   2.875   0.105   9.218
 4342SOL    HW113358   2.881   0.190   9.166
 4342SOL    HW213359   2.907   0.029   9.161
 4343SOL     OW13360   2.366   0.050   9.188
 4343SOL    HW113361   2.324  -0.007   9.118
 4343SOL    HW213362   2.300   0.119   9.220
 4344SOL     OW13363   2.435   0.870   8.477
 4344SOL    HW113364   2.479   0.959   8.468
 4344SOL    HW213365   2.372   0.870   8.554
 4345SOL     OW13366   3.222   0.862   8.493
 4345SOL    HW113367   3.147   0.862   8.427
 4345SOL    HW213368   3.259   0.770   8.502
 4346SOL     OW13369   3.071   0.525   7.723
 4346SOL    HW113370   3.084   0.441   7.777
 4346SOL    HW213371   3.042   0.599   7.783
 4347SOL     OW13372   2.169   0.213   8.679
 4347SOL    HW113373   2.146   0.250   8.769
 4347SOL    HW213374   2.139   0.118   8.673
 4348SOL     OW13375   1.899   1.310   8.730
 4348SOL    HW113376   1.952   1.261   8.798
 4348SOL    HW213377   1.921   1.408   8.735
 4349SOL     OW13378   2.594   0.634   8.512
 4349SOL    HW113379   2.653   0.608   8.436
 4349SOL    HW213380   2.566   0.730   8.501
 4350SOL     OW13381   3.590   0.935   9.302
 4350SOL    HW113382   3.544   0.928   9.213
 4350SOL    HW213383   3.528   0.979   9.368
 4351SOL     OW13384   2.169   0.063   8.066
 4351SOL    HW113385   2.158   0.157   8.099
 4351SOL    HW213386   2.164   0.000   8.143
 4352SOL     OW13387   3.484   0.367   7.822
 4352SOL    HW113388   3.486   0.291   7.886
 4352SOL    HW213389   3.436   0.444   7.862
 4353SOL     OW13390   2.885   0.766   8.414
 4353SOL    HW113391   2.900   0.787   8.510
 4353SOL    HW213392   2.855   0.671   8.405
 4354SOL     OW13393   2.842   1.573   9.148
 4354SOL    HW113394   2.822   1.617   9.060
 4354SOL    HW213395   2.881   1.482   9.132
 4355SOL     OW13396   3.721   1.518   9.053
 4355SOL    HW113397   3.735   1.545   8.958
 4355SOL    HW213398   3.804   1.540   9.106
 4356SOL     OW13399   2.212   0.898   9.252
 4356SOL    HW113400   2.288   0.942   9.300
 4356SOL    HW213401   2.247   0.851   9.170
 4357SOL     OW13402   3.402   0.274   7.573
 4357SOL    HW113403   3.341   0.199   7.596
 4357SOL    HW213404   3.424   0.326   7.656
 4358SOL     OW13405   3.165   0.838   7.490
 4358SOL    HW113406   3.199   0.745   7.505
 4358SOL    HW213407   3.183   0.865   7.395
 4359SOL     OW13408   2.930   1.333   8.297
 4359SOL    HW113409   2.937   1.249   8.242
 4359SOL    HW213410   2.992   1.402   8.261
 4360SOL     OW13411   2.181   0.810   8.397
 4360SOL    HW113412   2.274   0.846   8.402
 4360SOL    HW213413   2.175   0.725   8.449
 4361SOL     OW13414   2.201   0.509   8.454
 4361SOL    HW113415   2.149   0.426   8.437
 4361SOL    HW213416   2.278   0.514   8.390
 4362SOL     OW13417   3.000   0.380   9.126
 4362SOL    HW113418   2.955   0.443   9.190
 4362SOL    HW213419   3.093   0.411   9.109
 4363SOL     OW13420   3.022   0.207   8.925
 4363SOL    HW113421   3.022   0.271   9.002
 4363SOL    HW213422   3.050   0.255   8.842
 4364SOL     OW13423   1.870   1.326   7.648
 4364SOL    HW113424   1.777   1.347   7.617
 4364SOL    HW213425   1.880   1.227   7.661
 4365SOL     OW13426   1.950   1.801   8.375
 4365SOL    HW113427   1.908   1.715   8.348
 4365SOL    HW213428   2.044   1.804   8.341
 4366SOL     OW13429   2.366   1.568   8.358
 4366SOL    HW113430   2.432   1.642   8.367
 4366SOL    HW213431   2.410   1.489   8.316
 4367SOL     OW13432   2.864   0.796   8.686
 4367SOL    HW113433   2.905   0.764   8.772
 4367SOL    HW213434   2.768   0.769   8.683
 4368SOL     OW13435   1.902   0.544   8.562
 4368SOL    HW113436   1.987   0.511   8.521
 4368SOL    HW213437   1.915   0.559   8.660
 4369SOL     OW13438   2.051   0.520   9.170
 4369SOL    HW113439   2.110   0.480   9.100
 4369SOL    HW213440   1.993   0.591   9.129
 4370SOL     OW13441   3.231   0.950   9.108
 4370SOL    HW113442   3.270   1.039   9.128
 4370SOL    HW213443   3.241   0.930   9.011
 4371SOL     OW13444   2.677   0.572   7.773
 4371SOL    HW113445   2.684   0.483   7.727
 4371SOL    HW213446   2.583   0.606   7.765
 4372SOL     OW13447   3.519   0.604   8.654
 4372SOL    HW113448   3.481   0.535   8.716
 4372SOL    HW213449   3.601   0.568   8.610
 4373SOL     OW13450   2.114   1.564   9.192
 4373SOL    HW113451   2.084   1.621   9.268
 4373SOL    HW213452   2.107   1.467   9.218
 4374SOL     OW13453   2.533   0.464   8.717
 4374SOL    HW113454   2.499   0.375   8.687
 4374SOL    HW213455   2.559   0.518   8.637
 4375SOL     OW13456   2.792   1.678   8.913
 4375SOL    HW113457   2.768   1.660   8.818
 4375SOL    HW213458   2.822   1.772   8.923
 4376SOL     OW13459   2.335   0.500   7.639
 4376SOL    HW113460   2.396   0.580   7.643
 4376SOL    HW213461   2.240   0.531   7.646
 4377SOL     OW13462   2.021   1.137   8.914
 4377SOL    HW113463   2.043   1.076   8.990
 4377SOL    HW213464   2.031   1.088   8.828
 4378SOL     OW13465   3.209   1.059   8.682
 4378SOL    HW113466   3.233   0.996   8.608
 4378SOL    HW213467   3.119   1.099   8.664
 4379SOL     OW13468   3.164   0.855   7.757
 4379SOL    HW113469   3.078   0.824   7.799
 4379SOL    HW213470   3.160   0.841   7.658
 4380SOL     OW13471   3.621   1.747   8.602
 4380SOL    HW113472   3.682   1.777   8.529
 4380SOL    HW213473   3.583   1.658   8.580
 4381SOL     OW13474   3.114   1.731   8.576
 4381SOL    HW113475   3.198   1.736   8.522
 4381SOL    HW213476   3.091   1.635   8.594
 4382SOL     OW13477   1.945   1.258   8.470
 4382SOL    HW113478   1.940   1.257   8.570
 4382SOL    HW213479   1.862   1.217   8.432
 4383SOL     OW13480   2.550   1.662   9.164
 4383SOL    HW113481   2.494   1.743   9.173
 4383SOL    HW213482   2.602   1.666   9.078
 4384SOL     OW13483   3.588   0.135   7.971
 4384SOL    HW113484   3.661   0.118   7.904
 4384SOL    HW213485   3.557   0.048   8.009
 4385SOL     OW13486   3.250   1.573   7.925
 4385SOL    HW113487   3.317   1.585   7.851
 4385SOL    HW213488   3.210   1.662   7.948
 4386SOL     OW13489   1.992   1.794   9.299
 4386SOL    HW113490   1.951   1.720   9.352
 4386SOL    HW213491   2.056   1.845   9.357
 4387SOL     OW13492   3.142   0.927   8.120
 4387SOL    HW113493   3.202   0.846   8.122
 4387SOL    HW213494   3.182   0.996   8.060
 4388SOL     OW13495   2.692   1.273   8.870
 4388SOL    HW113496   2.687   1.306   8.965
 4388SOL    HW213497   2.606   1.292   8.824
 4389SOL     OW13498   2.534   1.616   7.602
 4389SOL    HW113499   2.543   1.626   7.503
 4389SOL    HW213500   2.494   1.527   7.623
 4390SOL     OW13501   3.512   1.720   8.842
 4390SOL    HW113502   3.565   1.730   8.758
 4390SOL    HW213503   3.485   1.810   8.876
 4391SOL     OW13504   3.703   0.175   8.411
 4391SOL    HW113505   3.742   0.090   8.375
 4391SOL    HW213506   3.605   0.177   8.392
 4392SOL     OW13507   2.125   0.326   8.168
 4392SOL    HW113508   2.046   0.377   8.134
 4392SOL    HW213509   2.116   0.311   8.266
 4393SOL     OW13510   3.056   1.612   7.479
 4393SOL    HW113511   3.062   1.519   7.516
 4393SOL    HW213512   2.997   1.612   7.399
 4394SOL     OW13513   2.684   1.002   8.820
 4394SOL    HW113514   2.724   1.001   8.728
 4394SOL    HW213515   2.694   1.094   8.860
 4395SOL     OW13516   2.778   0.910   7.739
 4395SOL    HW113517   2.841   0.948   7.671
 4395SOL    HW213518   2.818   0.827   7.778
 4396SOL     OW13519   3.366   1.607   7.492
 4396SOL    HW113520   3.274   1.644   7.499
 4396SOL    HW213521   3.404   1.627   7.402
 4397SOL     OW13522   2.234   1.288   8.938
 4397SOL    HW113523   2.221   1.381   8.904
 4397SOL    HW213524   2.150   1.236   8.925
 4398SOL     OW13525   3.476   1.292   8.737
 4398SOL    HW113526   3.536   1.295   8.817
 4398SOL    HW213527   3.401   1.356   8.750
 4399SOL     OW13528   2.901   1.098   8.144
 4399SOL    HW113529   2.831   1.051   8.198
 4399SOL    HW213530   2.960   1.030   8.101
 4400SOL     OW13531   2.876   0.236   8.419
 4400SOL    HW113532   2.868   0.200   8.326
 4400SOL    HW213533   2.874   0.160   8.484
 4401SOL     OW13534   2.452   1.487   7.939
 4401SOL    HW113535   2.494   1.429   7.869
 4401SOL    HW213536   2.408   1.566   7.895
 4402SOL     OW13537   3.571   0.385   8.829
 4402SOL    HW113538   3.644   0.454   8.833
 4402SOL    HW213539   3.599   0.310   8.770
 4403SOL     OW13540   2.117   1.348   7.738
 4403SOL    HW113541   2.021   1.349   7.711
 4403SOL    HW213542   2.129   1.401   7.822
 4404SOL     OW13543   1.967   1.013   9.174
 4404SOL    HW113544   1.890   0.980   9.228
 4404SOL    HW213545   2.052   0.983   9.216
 4405SOL     OW13546   2.534   0.203   8.937
 4405SOL    HW113547   2.624   0.187   8.897
 4405SOL    HW213548   2.542   0.208   9.036
 4406SOL     OW13549   1.937   0.345   7.481
 4406SOL    HW113550   1.845   0.317   7.452
 4406SOL    HW213551   1.968   0.422   7.425
 4407SOL     OW13552   3.302   0.856   8.846
 4407SOL    HW113553   3.245   0.908   8.783
 4407SOL    HW213554   3.398   0.868   8.822
 4408SOL     OW13555   1.934   0.166   7.766
 4408SOL    HW113556   1.917   0.249   7.712
 4408SOL    HW213557   2.024   0.129   7.744
 4409SOL     OW13558   3.045   1.335   7.567
 4409SOL    HW113559   2.946   1.324   7.569
 4409SOL    HW213560   3.079   1.350   7.660
 4410SOL     OW13561   2.475   0.842   8.879
 4410SOL    HW113562   2.531   0.923   8.862
 4410SOL    HW213563   2.534   0.762   8.882
 4411SOL     OW13564   3.355   1.767   8.407
 4411SOL    HW113565   3.388   1.831   8.338
 4411SOL    HW213566   3.421   1.761   8.482
 4412SOL     OW13567   2.578   0.565   9.156
 4412SOL    HW113568   2.597   0.630   9.230
 4412SOL    HW213569   2.638   0.485   9.165
 4413SOL     OW13570   3.312   1.220   9.081
 4413SOL    HW113571   3.303   1.210   9.180
 4413SOL    HW213572   3.408   1.213   9.055
 4414SOL     OW13573   2.252   1.741   9.008
 4414SOL    HW113574   2.161   1.782   9.006
 4414SOL    HW213575   2.245   1.647   9.040
 4415SOL     OW13576   3.536   0.883   8.702
 4415SOL    HW113577   3.509   0.794   8.665
 4415SOL    HW213578   3.537   0.951   8.629
 4416SOL     OW13579   3.087   0.325   7.897
 4416SOL    HW113580   3.152   0.251   7.886
 4416SOL    HW213581   3.107   0.375   7.981
 4417SOL     OW13582   2.456   0.745   8.100
 4417SOL    HW113583   2.506   0.830   8.081
 4417SOL    HW213584   2.368   0.747   8.052
 4418SOL     OW13585   3.639   0.342   9.090
 4418SOL    HW113586   3.622   0.373   8.996
 4418SOL    HW213587   3.555   0.305   9.128
 4419SOL     OW13588   3.592   0.934   8.965
 4419SOL    HW113589   3.630   1.025   8.980
 4419SOL    HW213590   3.584   0.917   8.866
 4420SOL     OW13591   2.721   1.374   7.464
 4420SOL    HW113592   2.675   1.389   7.552
 4420SOL    HW213593   2.765   1.459   7.434
 4421SOL     OW13594   2.523   1.790   8.401
 4421SOL    HW113595   2.477   1.878   8.388
 4421SOL    HW213596   2.622   1.802   8.394
 4422SOL     OW13597   2.721   0.956   8.309
 4422SOL    HW113598   2.775   0.887   8.357
 4422SOL    HW213599   2.689   1.025   8.375
 4423SOL     OW13600   2.945   0.984   7.535
 4423SOL    HW113601   2.922   1.037   7.453
 4423SOL    HW213602   3.026   0.928   7.516
 4424SOL     OW13603   3.723   1.569   8.299
 4424SOL    HW113604   3.652   1.557   8.229
 4424SOL    HW213605   3.724   1.490   8.359
 4425SOL     OW13606   2.083   1.314   9.292
 4425SOL    HW113607   2.018   1.241   9.271
 4425SOL    HW213608   2.087   1.328   9.390
 4426SOL     OW13609   1.941   1.240   8.101
 4426SOL    HW113610   1.940   1.193   8.189
 4426SOL    HW213611   2.023   1.212   8.050
 4427SOL     OW13612   2.534   1.391   9.072
 4427SOL    HW113613   2.456   1.341   9.110
 4427SOL    HW213614   2.531   1.486   9.103
 4428SOL     OW13615   3.686   0.192   8.675
 4428SOL    HW113616   3.682   0.102   8.719
 4428SOL    HW213617   3.689   0.181   8.576
 4429SOL     OW13618   2.290   0.424   7.968
 4429SOL    HW113619   2.320   0.352   7.906
 4429SOL    HW213620   2.251   0.384   8.051
 4430SOL     OW13621   3.567   1.487   8.552
 4430SOL    HW113622   3.474   1.462   8.525
 4430SOL    HW213623   3.593   1.437   8.634
 4431SOL     OW13624   2.179   0.547   8.728
 4431SOL    HW113625   2.217   0.488   8.800
 4431SOL    HW213626   2.219   0.521   8.640
 4432SOL     OW13627   2.674   1.586   8.135
 4432SOL    HW113628   2.706   1.596   8.041
 4432SOL    HW213629   2.595   1.524   8.137
 4433SOL     OW13630   3.286   0.214   8.560
 4433SOL    HW113631   3.338   0.149   8.615
 4433SOL    HW213632   3.237   0.277   8.621
 4434SOL     OW13633   2.863   0.034   8.602
 4434SOL    HW113634   2.800  -0.038   8.571
 4434SOL    HW213635   2.956  -0.002   8.602
 4435SOL     OW13636   2.632   1.330   7.749
 4435SOL    HW113637   2.586   1.243   7.766
 4435SOL    HW213638   2.723   1.327   7.790
 4436SOL     OW13639   2.480   1.567   8.732
 4436SOL    HW113640   2.475   1.649   8.789
 4436SOL    HW213641   2.569   1.564   8.687
 4437SOL     OW13642   3.214   0.052   7.616
 4437SOL    HW113643   3.249   0.011   7.532
 4437SOL    HW213644   3.124   0.014   7.636
 4438SOL     OW13645   3.162   0.453   8.139
 4438SOL    HW113646   3.103   0.533   8.143
 4438SOL    HW213647   3.177   0.418   8.232
 4439SOL     OW13648   3.455   0.221   8.330
 4439SOL    HW113649   3.371   0.220   8.384
 4439SOL    HW213650   3.457   0.304   8.274
 4440SOL     OW13651   1.901   1.077   7.748
 4440SOL    HW113652   2.000   1.066   7.739
 4440SOL    HW213653   1.861   0.991   7.780
 4441SOL     OW13654   2.737   1.646   7.785
 4441SOL    HW113655   2.660   1.611   7.731
 4441SOL    HW213656   2.705   1.717   7.847
 4442SOL     OW13657   2.092   0.628   9.423
 4442SOL    HW113658   1.999   0.626   9.460
 4442SOL    HW213659   2.093   0.589   9.331
 4443SOL     OW13660   2.087   0.275  10.306
 4443SOL    HW113661   2.122   0.258  10.398
 4443SOL    HW213662   1.999   0.230  10.294
 4444SOL     OW13663   1.881   0.368   9.957
 4444SOL    HW113664   1.799   0.411   9.996
 4444SOL    HW213665   1.853   0.295   9.894
 4445SOL     OW13666   2.431   1.275  10.475
 4445SOL    HW113667   2.338   1.268  10.438
 4445SOL    HW213668   2.442   1.364  10.519
 4446SOL     OW13669   3.417   1.511  10.013
 4446SOL    HW113670   3.360   1.495  10.094
 4446SOL    HW213671   3.358   1.521   9.933
 4447SOL     OW13672   2.997   0.703  10.027
 4447SOL    HW113673   3.054   0.781  10.002
 4447SOL    HW213674   2.937   0.729  10.103
 4448SOL     OW13675   3.617   0.607   9.541
 4448SOL    HW113676   3.605   0.594   9.442
 4448SOL    HW213677   3.587   0.526   9.590
 4449SOL     OW13678   2.630   1.144  10.333
 4449SOL    HW113679   2.552   1.161  10.393
 4449SOL    HW213680   2.664   1.231  10.297
 4450SOL     OW13681   2.712   0.798  11.133
 4450SOL    HW113682   2.708   0.874  11.198
 4450SOL    HW213683   2.734   0.834  11.042
 4451SOL     OW13684   2.547   1.012   9.975
 4451SOL    HW113685   2.616   0.996  10.045
 4451SOL    HW213686   2.474   1.069  10.013
 4452SOL     OW13687   2.548   1.161  11.113
 4452SOL    HW113688   2.608   1.240  11.127
 4452SOL    HW213689   2.462   1.192  11.072
 4453SOL     OW13690   2.197   1.435  10.371
 4453SOL    HW113691   2.119   1.404  10.318
 4453SOL    HW213692   2.255   1.493  10.314
 4454SOL     OW13693   3.322   1.505  10.649
 4454SOL    HW113694   3.346   1.599  10.675
 4454SOL    HW213695   3.306   1.451  10.731
 4455SOL     OW13696   2.300   0.392  10.809
 4455SOL    HW113697   2.382   0.336  10.818
 4455SOL    HW213698   2.219   0.334  10.813
 4456SOL     OW13699   3.465   0.447  10.047
 4456SOL    HW113700   3.391   0.493   9.997
 4456SOL    HW213701   3.516   0.515  10.100
 4457SOL     OW13702   2.093   1.713   9.793
 4457SOL    HW113703   2.127   1.790   9.847
 4457SOL    HW213704   2.137   1.713   9.703
 4458SOL     OW13705   2.989   1.341  11.000
 4458SOL    HW113706   3.036   1.341  11.088
 4458SOL    HW213707   2.941   1.254  10.989
 4459SOL     OW13708   2.092   1.434   9.848
 4459SOL    HW113709   2.066   1.530   9.848
 4459SOL    HW213710   2.021   1.380   9.893
 4460SOL     OW13711   2.102   1.091  10.196
 4460SOL    HW113712   2.116   1.007  10.248
 4460SOL    HW213713   2.047   1.155  10.251
 4461SOL     OW13714   2.482   1.786  10.749
 4461SOL    HW113715   2.390   1.769  10.784
 4461SOL    HW213716   2.510   1.878  10.775
 4462SOL     OW13717   2.468   0.964   9.433
 4462SOL    HW113718   2.475   1.048   9.379
 4462SOL    HW213719   2.514   0.977   9.521
 4463SOL     OW13720   3.456   0.114  10.790
 4463SOL    HW113721   3.438   0.181  10.718
 4463SOL    HW213722   3.453   0.160  10.879
 4464SOL     OW13723   1.984   0.643   9.873
 4464SOL    HW113724   1.939   0.555   9.890
 4464SOL    HW213725   1.983   0.697   9.957
 4465SOL     OW13726   3.704   1.767   9.669
 4465SOL    HW113727   3.758   1.738   9.749
 4465SOL    HW213728   3.734   1.857   9.640
 4466SOL     OW13729   1.889   1.596   9.427
 4466SOL    HW113730   1.870   1.500   9.448
 4466SOL    HW213731   1.856   1.654   9.502
 4467SOL     OW13732   3.551   0.922   9.922
 4467SOL    HW113733   3.646   0.893   9.930
 4467SOL    HW213734   3.543   0.987   9.847
 4468SOL     OW13735   3.503   1.108   9.742
 4468SOL    HW113736   3.589   1.110   9.690
 4468SOL    HW213737   3.517   1.155   9.830
 4469SOL     OW13738   1.975   0.737  10.907
 4469SOL    HW113739   2.063   0.724  10.952
 4469SOL    HW213740   1.962   0.834  10.885
 4470SOL     OW13741   2.475   1.365  10.036
 4470SOL    HW113742   2.426   1.278  10.045
 4470SOL    HW213743   2.452   1.408   9.949
 4471SOL     OW13744   3.155   1.228  10.733
 4471SOL    HW113745   3.192   1.155  10.675
 4471SOL    HW213746   3.207   1.233  10.818
 4472SOL     OW13747   2.671   0.004   9.812
 4472SOL    HW113748   2.711   0.095   9.803
 4472SOL    HW213749   2.571   0.012   9.818
 4473SOL     OW13750   2.059   0.976  10.574
 4473SOL    HW113751   2.148   0.931  10.560
 4473SOL    HW213752   1.986   0.911  10.555
 4474SOL     OW13753   3.387   0.999   9.500
 4474SOL    HW113754   3.324   0.923   9.513
 4474SOL    HW213755   3.435   1.017   9.586
 4475SOL     OW13756   3.049   1.792  10.926
 4475SOL    HW113757   3.073   1.852  10.850
 4475SOL    HW213758   3.056   1.697  10.896
 4476SOL     OW13759   2.179   0.251  11.111
 4476SOL    HW113760   2.250   0.322  11.117
 4476SOL    HW213761   2.091   0.290  11.139
 4477SOL     OW13762   3.328   1.417  10.263
 4477SOL    HW113763   3.269   1.423  10.343
 4477SOL    HW213764   3.313   1.329  10.217
 4478SOL     OW13765   3.529   1.714   9.882
 4478SOL    HW113766   3.488   1.691   9.794
 4478SOL    HW213767   3.511   1.640   9.947
 4479SOL     OW13768   2.460   0.729   9.580
 4479SOL    HW113769   2.484   0.798   9.512
 4479SOL    HW213770   2.382   0.762   9.634
 4480SOL     OW13771   3.143   0.345  10.254
 4480SOL    HW113772   3.057   0.295  10.241
 4480SOL    HW213773   3.205   0.291  10.310
 4481SOL     OW13774   3.438   1.662   9.617
 4481SOL    HW113775   3.527   1.708   9.620
 4481SOL    HW213776   3.417   1.638   9.522
 4482SOL     OW13777   2.669   0.605  10.775
 4482SOL    HW113778   2.622   0.602  10.864
 4482SOL    HW213779   2.618   0.550  10.709
 4483SOL     OW13780   3.256   0.469  10.984
 4483SOL    HW113781   3.236   0.512  11.072
 4483SOL    HW213782   3.334   0.407  10.993
 4484SOL     OW13783   2.835   0.890  10.882
 4484SOL    HW113784   2.881   0.806  10.853
 4484SOL    HW213785   2.779   0.924  10.807
 4485SOL     OW13786   2.853   0.410  10.552
 4485SOL    HW113787   2.776   0.444  10.606
 4485SOL    HW213788   2.819   0.359  10.473
 4486SOL     OW13789   2.903   0.701   9.739
 4486SOL    HW113790   2.929   0.697   9.835
 4486SOL    HW213791   2.818   0.650   9.725
 4487SOL     OW13792   1.938   0.811  10.099
 4487SOL    HW113793   2.037   0.799  10.108
 4487SOL    HW213794   1.914   0.906  10.120
 4488SOL     OW13795   2.727   0.348   9.505
 4488SOL    HW113796   2.786   0.411   9.456
 4488SOL    HW213797   2.746   0.254   9.476
 4489SOL     OW13798   3.581   0.585  11.141
 4489SOL    HW113799   3.555   0.674  11.105
 4489SOL    HW213800   3.579   0.517  11.068
 4490SOL     OW13801   3.224   1.144   9.855
 4490SOL    HW113802   3.307   1.115   9.807
 4490SOL    HW213803   3.175   1.211   9.799
 4491SOL     OW13804   2.412   0.196  10.195
 4491SOL    HW113805   2.407   0.191  10.295
 4491SOL    HW213806   2.414   0.292  10.166
 4492SOL     OW13807   2.870   1.456   9.787
 4492SOL    HW113808   2.824   1.528   9.735
 4492SOL    HW213809   2.866   1.476   9.885
 4493SOL     OW13810   2.213   1.801  10.163
 4493SOL    HW113811   2.263   1.715  10.169
 4493SOL    HW213812   2.278   1.878  10.160
 4494SOL     OW13813   3.657   1.066  10.183
 4494SOL    HW113814   3.595   1.051  10.107
 4494SOL    HW213815   3.605   1.077  10.268
 4495SOL     OW13816   3.089   1.550  10.816
 4495SOL    HW113817   3.095   1.473  10.880
 4495SOL    HW213818   3.037   1.524  10.736
 4496SOL     OW13819   2.183   0.943   9.552
 4496SOL    HW113820   2.265   0.982   9.510
 4496SOL    HW213821   2.156   0.861   9.503
 4497SOL     OW13822   3.320   0.735  10.038
 4497SOL    HW113823   3.315   0.670  10.113
 4497SOL    HW213824   3.400   0.794  10.051
 4498SOL     OW13825   2.323   1.266  11.037
 4498SOL    HW113826   2.273   1.267  10.951
 4498SOL    HW213827   2.260   1.248  11.113
 4499SOL     OW13828   2.973   1.776   9.547
 4499SOL    HW113829   2.913   1.714   9.597
 4499SOL    HW213830   3.004   1.732   9.462
 4500SOL     OW13831   2.064   0.285  10.808
 4500SOL    HW113832   1.984   0.345  10.795
 4500SOL    HW213833   2.054   0.236  10.894
 4501SOL     OW13834   3.494   1.377   9.391
 4501SOL    HW113835   3.462   1.471   9.381
 4501SOL    HW213836   3.418   1.314   9.379
 4502SOL     OW13837   2.326   1.743   9.633
 4502SOL    HW113838   2.359   1.782   9.719
 4502SOL    HW213839   2.402   1.736   9.568
 4503SOL     OW13840   3.262   0.107   9.736
 4503SOL    HW113841   3.238   0.070   9.646
 4503SOL    HW213842   3.361   0.123   9.740
 4504SOL     OW13843   2.111   1.785  10.551
 4504SOL    HW113844   2.168   1.720  10.601
 4504SOL    HW213845   2.095   1.752  10.458
 4505SOL     OW13846   2.802   1.698  10.214
 4505SOL    HW113847   2.882   1.641  10.235
 4505SOL    HW213848   2.753   1.658  10.137
 4506SOL     OW13849   2.244   0.700   9.790
 4506SOL    HW113850   2.289   0.610   9.787
 4506SOL    HW213851   2.150   0.689   9.823
 4507SOL     OW13852   3.409   0.222  11.039
 4507SOL    HW113853   3.404   0.259  11.131
 4507SOL    HW213854   3.337   0.153  11.027
 4508SOL     OW13855   2.476   0.122   9.427
 4508SOL    HW113856   2.574   0.100   9.434
 4508SOL    HW213857   2.445   0.105   9.334
 4509SOL     OW13858   2.643   0.264  11.059
 4509SOL    HW113859   2.710   0.203  11.102
 4509SOL    HW213860   2.570   0.283  11.124
 4510SOL     OW13861   2.750   1.514  10.505
 4510SOL    HW113862   2.727   1.489  10.411
 4510SOL    HW213863   2.811   1.445  10.544
 4511SOL     OW13864   3.213   0.590  10.743
 4511SOL    HW113865   3.241   0.547  10.828
 4511SOL    HW213866   3.238   0.686  10.744
 4512SOL     OW13867   2.665   1.402  10.234
 4512SOL    HW113868   2.755   1.416  10.192
 4512SOL    HW213869   2.594   1.404  10.163
 4513SOL     OW13870   2.784   0.503  10.209
 4513SOL    HW113871   2.759   0.494  10.113
 4513SOL    HW213872   2.832   0.421  10.240
 4514SOL     OW13873   2.401   0.064   9.822
 4514SOL    HW113874   2.320   0.065   9.880
 4514SOL    HW213875   2.404   0.147   9.767
 4515SOL     OW13876   3.296   1.188   9.351
 4515SOL    HW113877   3.328   1.112   9.408
 4515SOL    HW213878   3.204   1.215   9.381
 4516SOL     OW13879   2.159   0.035   9.481
 4516SOL    HW113880   2.208   0.119   9.460
 4516SOL    HW213881   2.221  -0.030   9.526
 4517SOL     OW13882   2.797   0.236   9.790
 4517SOL    HW113883   2.749   0.277   9.712
 4517SOL    HW213884   2.896   0.234   9.771
 4518SOL     OW13885   2.938   0.683  10.774
 4518SOL    HW113886   2.858   0.622  10.777
 4518SOL    HW213887   3.019   0.630  10.750
 4519SOL     OW13888   3.089   1.570  10.103
 4519SOL    HW113889   3.110   1.644  10.038
 4519SOL    HW213890   3.157   1.570  10.176
 4520SOL     OW13891   2.321   1.152  10.051
 4520SOL    HW113892   2.250   1.125  10.116
 4520SOL    HW213893   2.295   1.124   9.958
 4521SOL     OW13894   3.133   1.797   9.901
 4521SOL    HW113895   3.177   1.861   9.837
 4521SOL    HW213896   3.083   1.849   9.971
 4522SOL     OW13897   2.894   0.549   9.326
 4522SOL    HW113898   2.853   0.631   9.287
 4522SOL    HW213899   2.958   0.575   9.399
 4523SOL     OW13900   1.940   0.556  10.696
 4523SOL    HW113901   2.032   0.555  10.655
 4523SOL    HW213902   1.934   0.630  10.763
 4524SOL     OW13903   2.423   0.222  10.457
 4524SOL    HW113904   2.461   0.138  10.494
 4524SOL    HW213905   2.335   0.241  10.501
 4525SOL     OW13906   2.728   0.454   9.952
 4525SOL    HW113907   2.696   0.526   9.890
 4525SOL    HW213908   2.752   0.373   9.899
 4526SOL     OW13909   2.879   0.039  10.063
 4526SOL    HW113910   2.807   0.044   9.994
 4526SOL    HW213911   2.855  -0.030  10.132
 4527SOL     OW13912   3.291   1.173  10.177
 4527SOL    HW113913   3.236   1.089  10.170
 4527SOL    HW213914   3.317   1.202  10.085
 4528SOL     OW13915   3.328   0.590  10.302
 4528SOL    HW113916   3.298   0.495  10.309
 4528SOL    HW213917   3.401   0.606  10.368
 4529SOL     OW13918   3.719   0.833   9.687
 4529SOL    HW113919   3.761   0.769   9.751
 4529SOL    HW213920   3.681   0.782   9.609
 4530SOL     OW13921   2.350   1.385   9.484
 4530SOL    HW113922   2.263   1.370   9.531
 4530SOL    HW213923   2.333   1.411   9.389
 4531SOL     OW13924   3.526   1.280   9.967
 4531SOL    HW113925   3.625   1.288   9.981
 4531SOL    HW213926   3.481   1.364   9.998
 4532SOL     OW13927   3.252   0.575   9.388
 4532SOL    HW113928   3.198   0.554   9.469
 4532SOL    HW213929   3.343   0.534   9.397
 4533SOL     OW13930   2.389   0.256   9.638
 4533SOL    HW113931   2.416   0.197   9.563
 4533SOL    HW213932   2.389   0.351   9.607
 4534SOL     OW13933   3.616   1.223  10.898
 4534SOL    HW113934   3.707   1.184  10.885
 4534SOL    HW213935   3.624   1.319  10.922
 4535SOL     OW13936   2.926   1.347  10.650
 4535SOL    HW113937   2.846   1.324  10.705
 4535SOL    HW213938   3.009   1.321  10.699
 4536SOL     OW13939   3.454   1.629  10.935
 4536SOL    HW113940   3.481   1.663  10.845
 4536SOL    HW213941   3.533   1.591  10.981
 4537SOL     OW13942   2.973   1.195  10.410
 4537SOL    HW113943   2.933   1.239  10.491
 4537SOL    HW213944   2.932   1.232  10.327
 4538SOL     OW13945   3.500   1.099  10.389
 4538SOL    HW113946   3.505   1.180  10.448
 4538SOL    HW213947   3.414   1.101  10.338
 4539SOL     OW13948   2.777   0.089  10.712
 4539SOL    HW113949   2.802   0.069  10.617
 4539SOL    HW213950   2.849   0.145  10.754
 4540SOL     OW13951   2.842   1.116  11.029
 4540SOL    HW113952   2.743   1.122  11.039
 4540SOL    HW213953   2.865   1.036  10.973
 4541SOL     OW13954   2.567   1.050   9.678
 4541SOL    HW113955   2.553   1.057   9.777
 4541SOL    HW213956   2.651   0.999   9.660
 4542SOL     OW13957   2.272   0.813  10.561
 4542SOL    HW113958   2.358   0.825  10.611
 4542SOL    HW213959   2.230   0.726  10.588
 4543SOL     OW13960   3.136   0.386  10.572
 4543SOL    HW113961   3.157   0.460  10.636
 4543SOL    HW213962   3.047   0.403  10.529
 4544SOL     OW13963   1.926   1.564  10.641
 4544SOL    HW113964   1.880   1.646  10.607
 4544SOL    HW213965   2.024   1.583  10.650
 4545SOL     OW13966   2.229   1.100   9.811
 4545SOL    HW113967   2.222   1.183   9.755
 4545SOL    HW213968   2.233   1.020   9.751
 4546SOL     OW13969   2.428   0.537  10.175
 4546SOL    HW113970   2.440   0.603  10.101
 4546SOL    HW213971   2.474   0.571  10.258
 4547SOL     OW13972   3.114   1.348   9.698
 4547SOL    HW113973   3.164   1.425   9.738
 4547SOL    HW213974   3.019   1.350   9.730
 4548SOL     OW13975   3.134   1.445  10.452
 4548SOL    HW113976   3.181   1.458  10.539
 4548SOL    HW213977   3.068   1.371  10.461
 4549SOL     OW13978   3.444   0.639   9.782
 4549SOL    HW113979   3.413   0.700   9.855
 4549SOL    HW213980   3.494   0.691   9.713
 4550SOL     OW13981   2.216   1.510  10.639
 4550SOL    HW113982   2.195   1.466  10.552
 4550SOL    HW213983   2.313   1.536  10.642
 4551SOL     OW13984   2.264   0.751  10.908
 4551SOL    HW113985   2.332   0.806  10.861
 4551SOL    HW213986   2.304   0.663  10.935
 4552SOL     OW13987   3.449   0.779  10.980
 4552SOL    HW113988   3.357   0.817  10.975
 4552SOL    HW213989   3.509   0.826  10.915
 4553SOL     OW13990   2.875   0.105  11.080
 4553SOL    HW113991   2.881   0.190  11.028
 4553SOL    HW213992   2.907   0.029  11.023
 4554SOL     OW13993   2.366   0.050  11.050
 4554SOL    HW113994   2.324  -0.007  10.980
 4554SOL    HW213995   2.300   0.119  11.082
 4555SOL     OW13996   2.435   0.870  10.339
 4555SOL    HW113997   2.479   0.959  10.330
 4555SOL    HW213998   2.372   0.870  10.416
 4556SOL     OW13999   3.222   0.862  10.355
 4556SOL    HW114000   3.147   0.862  10.289
 4556SOL    HW214001   3.259   0.770  10.364
 4557SOL     OW14002   3.071   0.525   9.585
 4557SOL    HW114003   3.084   0.441   9.639
 4557SOL    HW214004   3.042   0.599   9.645
 4558SOL     OW14005   2.169   0.213  10.541
 4558SOL    HW114006   2.146   0.250  10.631
 4558SOL    HW214007   2.139   0.118  10.535
 4559SOL     OW14008   1.899   1.310  10.592
 4559SOL    HW114009   1.952   1.261  10.660
 4559SOL    HW214010   1.921   1.408  10.597
 4560SOL     OW14011   2.594   0.634  10.374
 4560SOL    HW114012   2.653   0.608  10.298
 4560SOL    HW214013   2.566   0.730  10.363
 4561SOL     OW14014   3.590   0.935  11.164
 4561SOL    HW114015   3.544   0.928  11.075
 4561SOL    HW214016   3.528   0.979  11.230
 4562SOL     OW14017   2.169   0.063   9.928
 4562SOL    HW114018   2.158   0.157   9.961
 4562SOL    HW214019   2.164   0.000  10.005
 4563SOL     OW14020   3.484   0.367   9.684
 4563SOL    HW114021   3.486   0.291   9.748
 4563SOL    HW214022   3.436   0.444   9.724
 4564SOL     OW14023   2.885   0.766  10.276
 4564SOL    HW114024   2.900   0.787  10.372
 4564SOL    HW214025   2.855   0.671  10.267
 4565SOL     OW14026   2.842   1.573  11.010
 4565SOL    HW114027   2.822   1.617  10.922
 4565SOL    HW214028   2.881   1.482  10.994
 4566SOL     OW14029   3.721   1.518  10.915
 4566SOL    HW114030   3.735   1.545  10.820
 4566SOL    HW214031   3.804   1.540  10.968
 4567SOL     OW14032   2.212   0.898  11.114
 4567SOL    HW114033   2.288   0.942  11.162
 4567SOL    HW214034   2.247   0.851  11.032
 4568SOL     OW14035   3.402   0.274   9.435
 4568SOL    HW114036   3.341   0.199   9.458
 4568SOL    HW214037   3.424   0.326   9.518
 4569SOL     OW14038   3.165   0.838   9.352
 4569SOL    HW114039   3.199   0.745   9.367
 4569SOL    HW214040   3.183   0.865   9.257
 4570SOL     OW14041   2.930   1.333  10.159
 4570SOL    HW114042   2.937   1.249  10.104
 4570SOL    HW214043   2.992   1.402  10.123
 4571SOL     OW14044   2.181   0.810  10.259
 4571SOL    HW114045   2.274   0.846  10.264
 4571SOL    HW214046   2.175   0.725  10.311
 4572SOL     OW14047   2.201   0.509  10.316
 4572SOL    HW114048   2.149   0.426  10.299
 4572SOL    HW214049   2.278   0.514  10.252
 4573SOL     OW14050   3.000   0.380  10.988
 4573SOL    HW114051   2.955   0.443  11.052
 4573SOL    HW214052   3.093   0.411  10.971
 4574SOL     OW14053   3.022   0.207  10.787
 4574SOL    HW114054   3.022   0.271  10.864
 4574SOL    HW214055   3.050   0.255  10.704
 4575SOL     OW14056   1.870   1.326   9.510
 4575SOL    HW114057   1.777   1.347   9.479
 4575SOL    HW214058   1.880   1.227   9.523
 4576SOL     OW14059   1.950   1.801  10.237
 4576SOL    HW114060   1.908   1.715  10.210
 4576SOL    HW214061   2.044   1.804  10.203
 4577SOL     OW14062   2.366   1.568  10.220
 4577SOL    HW114063   2.432   1.642  10.229
 4577SOL    HW214064   2.410   1.489  10.178
 4578SOL     OW14065   2.864   0.796  10.548
 4578SOL    HW114066   2.905   0.764  10.634
 4578SOL    HW214067   2.768   0.769  10.545
 4579SOL     OW14068   1.902   0.544  10.424
 4579SOL    HW114069   1.987   0.511  10.383
 4579SOL    HW214070   1.915   0.559  10.522
 4580SOL     OW14071   2.051   0.520  11.032
 4580SOL    HW114072   2.110   0.480  10.962
 4580SOL    HW214073   1.993   0.591  10.991
 4581SOL     OW14074   3.231   0.950  10.970
 4581SOL    HW114075   3.270   1.039  10.990
 4581SOL    HW214076   3.241   0.930  10.873
 4582SOL     OW14077   2.677   0.572   9.635
 4582SOL    HW114078   2.684   0.483   9.589
 4582SOL    HW214079   2.583   0.606   9.627
 4583SOL     OW14080   3.519   0.604  10.516
 4583SOL    HW114081   3.481   0.535  10.578
 4583SOL    HW214082   3.601   0.568  10.472
 4584SOL     OW14083   2.114   1.564  11.054
 4584SOL    HW114084   2.084   1.621  11.130
 4584SOL    HW214085   2.107   1.467  11.080
 4585SOL     OW14086   2.533   0.464  10.579
 4585SOL    HW114087   2.499   0.375  10.549
 4585SOL    HW214088   2.559   0.518  10.499
 4586SOL     OW14089   2.792   1.678  10.775
 4586SOL    HW114090   2.768   1.660  10.680
 4586SOL    HW214091   2.822   1.772  10.785
 4587SOL     OW14092   2.335   0.500   9.501
 4587SOL    HW114093   2.396   0.580   9.505
 4587SOL    HW214094   2.240   0.531   9.508
 4588SOL     OW14095   2.021   1.137  10.776
 4588SOL    HW114096   2.043   1.076  10.852
 4588SOL    HW214097   2.031   1.088  10.690
 4589SOL     OW14098   3.209   1.059  10.544
 4589SOL    HW114099   3.233   0.996  10.470
 4589SOL    HW214100   3.119   1.099  10.526
 4590SOL     OW14101   3.164   0.855   9.619
 4590SOL    HW114102   3.078   0.824   9.661
 4590SOL    HW214103   3.160   0.841   9.520
 4591SOL     OW14104   3.621   1.747  10.464
 4591SOL    HW114105   3.682   1.777  10.391
 4591SOL    HW214106   3.583   1.658  10.442
 4592SOL     OW14107   3.114   1.731  10.438
 4592SOL    HW114108   3.198   1.736  10.384
 4592SOL    HW214109   3.091   1.635  10.456
 4593SOL     OW14110   1.945   1.258  10.332
 4593SOL    HW114111   1.940   1.257  10.432
 4593SOL    HW214112   1.862   1.217  10.294
 4594SOL     OW14113   2.550   1.662  11.026
 4594SOL    HW114114   2.494   1.743  11.035
 4594SOL    HW214115   2.602   1.666  10.940
 4595SOL     OW14116   3.588   0.135   9.833
 4595SOL    HW114117   3.661   0.118   9.766
 4595SOL    HW214118   3.557   0.048   9.871
 4596SOL     OW14119   3.250   1.573   9.787
 4596SOL    HW114120   3.317   1.585   9.713
 4596SOL    HW214121   3.210   1.662   9.810
 4597SOL     OW14122   1.992   1.794  11.161
 4597SOL    HW114123   1.951   1.720  11.214
 4597SOL    HW214124   2.056   1.845  11.219
 4598SOL     OW14125   3.142   0.927   9.982
 4598SOL    HW114126   3.202   0.846   9.984
 4598SOL    HW214127   3.182   0.996   9.922
 4599SOL     OW14128   2.692   1.273  10.732
 4599SOL    HW114129   2.687   1.306  10.827
 4599SOL    HW214130   2.606   1.292  10.686
 4600SOL     OW14131   2.534   1.616   9.464
 4600SOL    HW114132   2.543   1.626   9.365
 4600SOL    HW214133   2.494   1.527   9.485
 4601SOL     OW14134   3.512   1.720  10.704
 4601SOL    HW114135   3.565   1.730  10.620
 4601SOL    HW214136   3.485   1.810  10.738
 4602SOL     OW14137   3.703   0.175  10.273
 4602SOL    HW114138   3.742   0.090  10.237
 4602SOL    HW214139   3.605   0.177  10.254
 4603SOL     OW14140   2.125   0.326  10.030
 4603SOL    HW114141   2.046   0.377   9.996
 4603SOL    HW214142   2.116   0.311  10.128
 4604SOL     OW14143   3.056   1.612   9.341
 4604SOL    HW114144   3.062   1.519   9.378
 4604SOL    HW214145   2.997   1.612   9.261
 4605SOL     OW14146   2.684   1.002  10.682
 4605SOL    HW114147   2.724   1.001  10.590
 4605SOL    HW214148   2.694   1.094  10.722
 4606SOL     OW14149   2.778   0.910   9.601
 4606SOL    HW114150   2.841   0.948   9.533
 4606SOL    HW214151   2.818   0.827   9.640
 4607SOL     OW14152   3.366   1.607   9.354
 4607SOL    HW114153   3.274   1.644   9.361
 4607SOL    HW214154   3.404   1.627   9.264
 4608SOL     OW14155   2.234   1.288  10.800
 4608SOL    HW114156   2.221   1.381  10.766
 4608SOL    HW214157   2.150   1.236  10.787
 4609SOL     OW14158   3.476   1.292  10.599
 4609SOL    HW114159   3.536   1.295  10.679
 4609SOL    HW214160   3.401   1.356  10.612
 4610SOL     OW14161   2.901   1.098  10.006
 4610SOL    HW114162   2.831   1.051  10.060
 4610SOL    HW214163   2.960   1.030   9.963
 4611SOL     OW14164   2.876   0.236  10.281
 4611SOL    HW114165   2.868   0.200  10.188
 4611SOL    HW214166   2.874   0.160  10.346
 4612SOL     OW14167   2.452   1.487   9.801
 4612SOL    HW114168   2.494   1.429   9.731
 4612SOL    HW214169   2.408   1.566   9.757
 4613SOL     OW14170   3.571   0.385  10.691
 4613SOL    HW114171   3.644   0.454  10.695
 4613SOL    HW214172   3.599   0.310  10.632
 4614SOL     OW14173   2.117   1.348   9.600
 4614SOL    HW114174   2.021   1.349   9.573
 4614SOL    HW214175   2.129   1.401   9.684
 4615SOL     OW14176   1.967   1.013  11.036
 4615SOL    HW114177   1.890   0.980  11.090
 4615SOL    HW214178   2.052   0.983  11.078
 4616SOL     OW14179   2.534   0.203  10.799
 4616SOL    HW114180   2.624   0.187  10.759
 4616SOL    HW214181   2.542   0.208  10.898
 4617SOL     OW14182   1.937   0.345   9.343
 4617SOL    HW114183   1.845   0.317   9.314
 4617SOL    HW214184   1.968   0.422   9.287
 4618SOL     OW14185   3.302   0.856  10.708
 4618SOL    HW114186   3.245   0.908  10.645
 4618SOL    HW214187   3.398   0.868  10.684
 4619SOL     OW14188   1.934   0.166   9.628
 4619SOL    HW114189   1.917   0.249   9.574
 4619SOL    HW214190   2.024   0.129   9.606
 4620SOL     OW14191   3.045   1.335   9.429
 4620SOL    HW114192   2.946   1.324   9.431
 4620SOL    HW214193   3.079   1.350   9.522
 4621SOL     OW14194   2.475   0.842  10.741
 4621SOL    HW114195   2.531   0.923  10.724
 4621SOL    HW214196   2.534   0.762  10.744
 4622SOL     OW14197   3.355   1.767  10.269
 4622SOL    HW114198   3.388   1.831  10.200
 4622SOL    HW214199   3.421   1.761  10.344
 4623SOL     OW14200   2.578   0.565  11.018
 4623SOL    HW114201   2.597   0.630  11.092
 4623SOL    HW214202   2.638   0.485  11.027
 4624SOL     OW14203   3.312   1.220  10.943
 4624SOL    HW114204   3.303   1.210  11.042
 4624SOL    HW214205   3.408   1.213  10.917
 4625SOL     OW14206   2.252   1.741  10.870
 4625SOL    HW114207   2.161   1.782  10.868
 4625SOL    HW214208   2.245   1.647  10.902
 4626SOL     OW14209   3.536   0.883  10.564
 4626SOL    HW114210   3.509   0.794  10.527
 4626SOL    HW214211   3.537   0.951  10.491
 4627SOL     OW14212   3.087   0.325   9.759
 4627SOL    HW114213   3.152   0.251   9.748
 4627SOL    HW214214   3.107   0.375   9.843
 4628SOL     OW14215   2.456   0.745   9.962
 4628SOL    HW114216   2.506   0.830   9.943
 4628SOL    HW214217   2.368   0.747   9.914
 4629SOL     OW14218   3.639   0.342  10.952
 4629SOL    HW114219   3.622   0.373  10.858
 4629SOL    HW214220   3.555   0.305  10.990
 4630SOL     OW14221   3.592   0.934  10.827
 4630SOL    HW114222   3.630   1.025  10.842
 4630SOL    HW214223   3.584   0.917  10.728
 4631SOL     OW14224   2.721   1.374   9.326
 4631SOL    HW114225   2.675   1.389   9.414
 4631SOL    HW214226   2.765   1.459   9.296
 4632SOL     OW14227   2.523   1.790  10.263
 4632SOL    HW114228   2.477   1.878  10.250
 4632SOL    HW214229   2.622   1.802  10.256
 4633SOL     OW14230   2.721   0.956  10.171
 4633SOL    HW114231   2.775   0.887  10.219
 4633SOL    HW214232   2.689   1.025  10.237
 4634SOL     OW14233   2.945   0.984   9.397
 4634SOL    HW114234   2.922   1.037   9.315
 4634SOL    HW214235   3.026   0.928   9.378
 4635SOL     OW14236   3.723   1.569  10.161
 4635SOL    HW114237   3.652   1.557  10.091
 4635SOL    HW214238   3.724   1.490  10.221
 4636SOL     OW14239   2.083   1.314  11.154
 4636SOL    HW114240   2.018   1.241  11.133
 4636SOL    HW214241   2.087   1.328  11.252
 4637SOL     OW14242   1.941   1.240   9.963
 4637SOL    HW114243   1.940   1.193  10.051
 4637SOL    HW214244   2.023   1.212   9.912
 4638SOL     OW14245   2.534   1.391  10.934
 4638SOL    HW114246   2.456   1.341  10.972
 4638SOL    HW214247   2.531   1.486  10.965
 4639SOL     OW14248   3.686   0.192  10.537
 4639SOL    HW114249   3.682   0.102  10.581
 4639SOL    HW214250   3.689   0.181  10.438
 4640SOL     OW14251   2.290   0.424   9.830
 4640SOL    HW114252   2.320   0.352   9.768
 4640SOL    HW214253   2.251   0.384   9.913
 4641SOL     OW14254   3.567   1.487  10.414
 4641SOL    HW114255   3.474   1.462  10.387
 4641SOL    HW214256   3.593   1.437  10.496
 4642SOL     OW14257   2.179   0.547  10.590
 4642SOL    HW114258   2.217   0.488  10.662
 4642SOL    HW214259   2.219   0.521  10.502
 4643SOL     OW14260   2.674   1.586   9.997
 4643SOL    HW114261   2.706   1.596   9.903
 4643SOL    HW214262   2.595   1.524   9.999
 4644SOL     OW14263   3.286   0.214  10.422
 4644SOL    HW114264   3.338   0.149  10.477
 4644SOL    HW214265   3.237   0.277  10.483
 4645SOL     OW14266   2.863   0.034  10.464
 4645SOL    HW114267   2.800  -0.038  10.433
 4645SOL    HW214268   2.956  -0.002  10.464
 4646SOL     OW14269   2.632   1.330   9.611
 4646SOL    HW114270   2.586   1.243   9.628
 4646SOL    HW214271   2.723   1.327   9.652
 4647SOL     OW14272   2.480   1.567  10.594
 4647SOL    HW114273   2.475   1.649  10.651
 4647SOL    HW214274   2.569   1.564  10.549
 4648SOL     OW14275   3.214   0.052   9.478
 4648SOL    HW114276   3.249   0.011   9.394
 4648SOL    HW214277   3.124   0.014   9.498
 4649SOL     OW14278   3.162   0.453  10.001
 4649SOL    HW114279   3.103   0.533  10.005
 4649SOL    HW214280   3.177   0.418  10.094
 4650SOL     OW14281   3.455   0.221  10.192
 4650SOL    HW114282   3.371   0.220  10.246
 4650SOL    HW214283   3.457   0.304  10.136
 4651SOL     OW14284   1.901   1.077   9.610
 4651SOL    HW114285   2.000   1.066   9.601
 4651SOL    HW214286   1.861   0.991   9.642
 4652SOL     OW14287   2.737   1.646   9.647
 4652SOL    HW114288   2.660   1.611   9.593
 4652SOL    HW214289   2.705   1.717   9.709
 4653SOL     OW14290   2.092   0.628  11.285
 4653SOL    HW114291   1.999   0.626  11.322
 4653SOL    HW214292   2.093   0.589  11.193
 4654SOL     OW14293   2.087   0.275  12.168
 4654SOL    HW114294   2.122   0.258  12.260
 4654SOL    HW214295   1.999   0.230  12.156
 4655SOL     OW14296   1.881   0.368  11.819
 4655SOL    HW114297   1.799   0.411  11.858
 4655SOL    HW214298   1.853   0.295  11.756
 4656SOL     OW14299   2.431   1.275  12.337
 4656SOL    HW114300   2.338   1.268  12.300
 4656SOL    HW214301   2.442   1.364  12.381
 4657SOL     OW14302   3.417   1.511  11.875
 4657SOL    HW114303   3.360   1.495  11.956
 4657SOL    HW214304   3.358   1.521  11.795
 4658SOL     OW14305   2.997   0.703  11.889
 4658SOL    HW114306   3.054   0.781  11.864
 4658SOL    HW214307   2.937   0.729  11.965
 4659SOL     OW14308   3.617   0.607  11.403
 4659SOL    HW114309   3.605   0.594  11.304
 4659SOL    HW214310   3.587   0.526  11.452
 4660SOL     OW14311   2.630   1.144  12.195
 4660SOL    HW114312   2.552   1.161  12.255
 4660SOL    HW214313   2.664   1.231  12.159
 4661SOL     OW14314   2.712   0.798  12.995
 4661SOL    HW114315   2.708   0.874  13.060
 4661SOL    HW214316   2.734   0.834  12.904
 4662SOL     OW14317   2.547   1.012  11.837
 4662SOL    HW114318   2.616   0.996  11.907
 4662SOL    HW214319   2.474   1.069  11.875
 4663SOL     OW14320   2.548   1.161  12.975
 4663SOL    HW114321   2.608   1.240  12.989
 4663SOL    HW214322   2.462   1.192  12.934
 4664SOL     OW14323   2.197   1.435  12.233
 4664SOL    HW114324   2.119   1.404  12.180
 4664SOL    HW214325   2.255   1.493  12.176
 4665SOL     OW14326   3.322   1.505  12.511
 4665SOL    HW114327   3.346   1.599  12.537
 4665SOL    HW214328   3.306   1.451  12.593
 4666SOL     OW14329   2.300   0.392  12.671
 4666SOL    HW114330   2.382   0.336  12.680
 4666SOL    HW214331   2.219   0.334  12.675
 4667SOL     OW14332   3.465   0.447  11.909
 4667SOL    HW114333   3.391   0.493  11.859
 4667SOL    HW214334   3.516   0.515  11.962
 4668SOL     OW14335   2.093   1.713  11.655
 4668SOL    HW114336   2.127   1.790  11.709
 4668SOL    HW214337   2.137   1.713  11.565
 4669SOL     OW14338   2.989   1.341  12.862
 4669SOL    HW114339   3.036   1.341  12.950
 4669SOL    HW214340   2.941   1.254  12.851
 4670SOL     OW14341   2.092   1.434  11.710
 4670SOL    HW114342   2.066   1.530  11.710
 4670SOL    HW214343   2.021   1.380  11.755
 4671SOL     OW14344   2.102   1.091  12.058
 4671SOL    HW114345   2.116   1.007  12.110
 4671SOL    HW214346   2.047   1.155  12.113
 4672SOL     OW14347   2.482   1.786  12.611
 4672SOL    HW114348   2.390   1.769  12.646
 4672SOL    HW214349   2.510   1.878  12.637
 4673SOL     OW14350   2.468   0.964  11.295
 4673SOL    HW114351   2.475   1.048  11.241
 4673SOL    HW214352   2.514   0.977  11.383
 4674SOL     OW14353   3.456   0.114  12.652
 4674SOL    HW114354   3.438   0.181  12.580
 4674SOL    HW214355   3.453   0.160  12.741
 4675SOL     OW14356   1.984   0.643  11.735
 4675SOL    HW114357   1.939   0.555  11.752
 4675SOL    HW214358   1.983   0.697  11.819
 4676SOL     OW14359   3.704   1.767  11.531
 4676SOL    HW114360   3.758   1.738  11.611
 4676SOL    HW214361   3.734   1.857  11.502
 4677SOL     OW14362   1.889   1.596  11.289
 4677SOL    HW114363   1.870   1.500  11.310
 4677SOL    HW214364   1.856   1.654  11.364
 4678SOL     OW14365   3.551   0.922  11.784
 4678SOL    HW114366   3.646   0.893  11.792
 4678SOL    HW214367   3.543   0.987  11.709
 4679SOL     OW14368   3.503   1.108  11.604
 4679SOL    HW114369   3.589   1.110  11.552
 4679SOL    HW214370   3.517   1.155  11.692
 4680SOL     OW14371   1.975   0.737  12.769
 4680SOL    HW114372   2.063   0.724  12.814
 4680SOL    HW214373   1.962   0.834  12.747
 4681SOL     OW14374   2.475   1.365  11.898
 4681SOL    HW114375   2.426   1.278  11.907
 4681SOL    HW214376   2.452   1.408  11.811
 4682SOL     OW14377   3.155   1.228  12.595
 4682SOL    HW114378   3.192   1.155  12.537
 4682SOL    HW214379   3.207   1.233  12.680
 4683SOL     OW14380   2.671   0.004  11.674
 4683SOL    HW114381   2.711   0.095  11.665
 4683SOL    HW214382   2.571   0.012  11.680
 4684SOL     OW14383   2.059   0.976  12.436
 4684SOL    HW114384   2.148   0.931  12.422
 4684SOL    HW214385   1.986   0.911  12.417
 4685SOL     OW14386   3.387   0.999  11.362
 4685SOL    HW114387   3.324   0.923  11.375
 4685SOL    HW214388   3.435   1.017  11.448
 4686SOL     OW14389   3.049   1.792  12.788
 4686SOL    HW114390   3.073   1.852  12.712
 4686SOL    HW214391   3.056   1.697  12.758
 4687SOL     OW14392   2.179   0.251  12.973
 4687SOL    HW114393   2.250   0.322  12.979
 4687SOL    HW214394   2.091   0.290  13.001
 4688SOL     OW14395   3.328   1.417  12.125
 4688SOL    HW114396   3.269   1.423  12.205
 4688SOL    HW214397   3.313   1.329  12.079
 4689SOL     OW14398   3.529   1.714  11.744
 4689SOL    HW114399   3.488   1.691  11.656
 4689SOL    HW214400   3.511   1.640  11.809
 4690SOL     OW14401   2.460   0.729  11.442
 4690SOL    HW114402   2.484   0.798  11.374
 4690SOL    HW214403   2.382   0.762  11.496
 4691SOL     OW14404   3.143   0.345  12.116
 4691SOL    HW114405   3.057   0.295  12.103
 4691SOL    HW214406   3.205   0.291  12.172
 4692SOL     OW14407   3.438   1.662  11.479
 4692SOL    HW114408   3.527   1.708  11.482
 4692SOL    HW214409   3.417   1.638  11.384
 4693SOL     OW14410   2.669   0.605  12.637
 4693SOL    HW114411   2.622   0.602  12.726
 4693SOL    HW214412   2.618   0.550  12.571
 4694SOL     OW14413   3.256   0.469  12.846
 4694SOL    HW114414   3.236   0.512  12.934
 4694SOL    HW214415   3.334   0.407  12.855
 4695SOL     OW14416   2.835   0.890  12.744
 4695SOL    HW114417   2.881   0.806  12.715
 4695SOL    HW214418   2.779   0.924  12.669
 4696SOL     OW14419   2.853   0.410  12.414
 4696SOL    HW114420   2.776   0.444  12.468
 4696SOL    HW214421   2.819   0.359  12.335
 4697SOL     OW14422   2.903   0.701  11.601
 4697SOL    HW114423   2.929   0.697  11.697
 4697SOL    HW214424   2.818   0.650  11.587
 4698SOL     OW14425   1.938   0.811  11.961
 4698SOL    HW114426   2.037   0.799  11.970
 4698SOL    HW214427   1.914   0.906  11.982
 4699SOL     OW14428   2.727   0.348  11.367
 4699SOL    HW114429   2.786   0.411  11.318
 4699SOL    HW214430   2.746   0.254  11.338
 4700SOL     OW14431   3.581   0.585  13.003
 4700SOL    HW114432   3.555   0.674  12.967
 4700SOL    HW214433   3.579   0.517  12.930
 4701SOL     OW14434   3.224   1.144  11.717
 4701SOL    HW114435   3.307   1.115  11.669
 4701SOL    HW214436   3.175   1.211  11.661
 4702SOL     OW14437   2.412   0.196  12.057
 4702SOL    HW114438   2.407   0.191  12.157
 4702SOL    HW214439   2.414   0.292  12.028
 4703SOL     OW14440   2.870   1.456  11.649
 4703SOL    HW114441   2.824   1.528  11.597
 4703SOL    HW214442   2.866   1.476  11.747
 4704SOL     OW14443   2.213   1.801  12.025
 4704SOL    HW114444   2.263   1.715  12.031
 4704SOL    HW214445   2.278   1.878  12.022
 4705SOL     OW14446   3.657   1.066  12.045
 4705SOL    HW114447   3.595   1.051  11.969
 4705SOL    HW214448   3.605   1.077  12.130
 4706SOL     OW14449   3.089   1.550  12.678
 4706SOL    HW114450   3.095   1.473  12.742
 4706SOL    HW214451   3.037   1.524  12.598
 4707SOL     OW14452   2.183   0.943  11.414
 4707SOL    HW114453   2.265   0.982  11.372
 4707SOL    HW214454   2.156   0.861  11.365
 4708SOL     OW14455   3.320   0.735  11.900
 4708SOL    HW114456   3.315   0.670  11.975
 4708SOL    HW214457   3.400   0.794  11.913
 4709SOL     OW14458   2.323   1.266  12.899
 4709SOL    HW114459   2.273   1.267  12.813
 4709SOL    HW214460   2.260   1.248  12.975
 4710SOL     OW14461   2.973   1.776  11.409
 4710SOL    HW114462   2.913   1.714  11.459
 4710SOL    HW214463   3.004   1.732  11.324
 4711SOL     OW14464   2.064   0.285  12.670
 4711SOL    HW114465   1.984   0.345  12.657
 4711SOL    HW214466   2.054   0.236  12.756
 4712SOL     OW14467   3.494   1.377  11.253
 4712SOL    HW114468   3.462   1.471  11.243
 4712SOL    HW214469   3.418   1.314  11.241
 4713SOL     OW14470   2.326   1.743  11.495
 4713SOL    HW114471   2.359   1.782  11.581
 4713SOL    HW214472   2.402   1.736  11.430
 4714SOL     OW14473   3.262   0.107  11.598
 4714SOL    HW114474   3.238   0.070  11.508
 4714SOL    HW214475   3.361   0.123  11.602
 4715SOL     OW14476   2.111   1.785  12.413
 4715SOL    HW114477   2.168   1.720  12.463
 4715SOL    HW214478   2.095   1.752  12.320
 4716SOL     OW14479   2.802   1.698  12.076
 4716SOL    HW114480   2.882   1.641  12.097
 4716SOL    HW214481   2.753   1.658  11.999
 4717SOL     OW14482   2.244   0.700  11.652
 4717SOL    HW114483   2.289   0.610  11.649
 4717SOL    HW214484   2.150   0.689  11.685
 4718SOL     OW14485   3.409   0.222  12.901
 4718SOL    HW114486   3.404   0.259  12.993
 4718SOL    HW214487   3.337   0.153  12.889
 4719SOL     OW14488   2.476   0.122  11.289
 4719SOL    HW114489   2.574   0.100  11.296
 4719SOL    HW214490   2.445   0.105  11.196
 4720SOL     OW14491   2.643   0.264  12.921
 4720SOL    HW114492   2.710   0.203  12.964
 4720SOL    HW214493   2.570   0.283  12.986
 4721SOL     OW14494   2.750   1.514  12.367
 4721SOL    HW114495   2.727   1.489  12.273
 4721SOL    HW214496   2.811   1.445  12.406
 4722SOL     OW14497   3.213   0.590  12.605
 4722SOL    HW114498   3.241   0.547  12.690
 4722SOL    HW214499   3.238   0.686  12.606
 4723SOL     OW14500   2.665   1.402  12.096
 4723SOL    HW114501   2.755   1.416  12.054
 4723SOL    HW214502   2.594   1.404  12.025
 4724SOL     OW14503   2.784   0.503  12.071
 4724SOL    HW114504   2.759   0.494  11.975
 4724SOL    HW214505   2.832   0.421  12.102
 4725SOL     OW14506   2.401   0.064  11.684
 4725SOL    HW114507   2.320   0.065  11.742
 4725SOL    HW214508   2.404   0.147  11.629
 4726SOL     OW14509   3.296   1.188  11.213
 4726SOL    HW114510   3.328   1.112  11.270
 4726SOL    HW214511   3.204   1.215  11.243
 4727SOL     OW14512   2.159   0.035  11.343
 4727SOL    HW114513   2.208   0.119  11.322
 4727SOL    HW214514   2.221  -0.030  11.388
 4728SOL     OW14515   2.797   0.236  11.652
 4728SOL    HW114516   2.749   0.277  11.574
 4728SOL    HW214517   2.896   0.234  11.633
 4729SOL     OW14518   2.938   0.683  12.636
 4729SOL    HW114519   2.858   0.622  12.639
 4729SOL    HW214520   3.019   0.630  12.612
 4730SOL     OW14521   3.089   1.570  11.965
 4730SOL    HW114522   3.110   1.644  11.900
 4730SOL    HW214523   3.157   1.570  12.038
 4731SOL     OW14524   2.321   1.152  11.913
 4731SOL    HW114525   2.250   1.125  11.978
 4731SOL    HW214526   2.295   1.124  11.820
 4732SOL     OW14527   3.133   1.797  11.763
 4732SOL    HW114528   3.177   1.861  11.699
 4732SOL    HW214529   3.083   1.849  11.833
 4733SOL     OW14530   2.894   0.549  11.188
 4733SOL    HW114531   2.853   0.631  11.149
 4733SOL    HW214532   2.958   0.575  11.261
 4734SOL     OW14533   1.940   0.556  12.558
 4734SOL    HW114534   2.032   0.555  12.517
 4734SOL    HW214535   1.934   0.630  12.625
 4735SOL     OW14536   2.423   0.222  12.319
 4735SOL    HW114537   2.461   0.138  12.356
 4735SOL    HW214538   2.335   0.241  12.363
 4736SOL     OW14539   2.728   0.454  11.814
 4736SOL    HW114540   2.696   0.526  11.752
 4736SOL    HW214541   2.752   0.373  11.761
 4737SOL     OW14542   2.879   0.039  11.925
 4737SOL    HW114543   2.807   0.044  11.856
 4737SOL    HW214544   2.855  -0.030  11.994
 4738SOL     OW14545   3.291   1.173  12.039
 4738SOL    HW114546   3.236   1.089  12.032
 4738SOL    HW214547   3.317   1.202  11.947
 4739SOL     OW14548   3.328   0.590  12.164
 4739SOL    HW114549   3.298   0.495  12.171
 4739SOL    HW214550   3.401   0.606  12.230
 4740SOL     OW14551   3.719   0.833  11.549
 4740SOL    HW114552   3.761   0.769  11.613
 4740SOL    HW214553   3.681   0.782  11.471
 4741SOL     OW14554   2.350   1.385  11.346
 4741SOL    HW114555   2.263   1.370  11.393
 4741SOL    HW214556   2.333   1.411  11.251
 4742SOL     OW14557   3.526   1.280  11.829
 4742SOL    HW114558   3.625   1.288  11.843
 4742SOL    HW214559   3.481   1.364  11.860
 4743SOL     OW14560   3.252   0.575  11.250
 4743SOL    HW114561   3.198   0.554  11.331
 4743SOL    HW214562   3.343   0.534  11.259
 4744SOL     OW14563   2.389   0.256  11.500
 4744SOL    HW114564   2.416   0.197  11.425
 4744SOL    HW214565   2.389   0.351  11.469
 4745SOL     OW14566   3.616   1.223  12.760
 4745SOL    HW114567   3.707   1.184  12.747
 4745SOL    HW214568   3.624   1.319  12.784
 4746SOL     OW14569   2.926   1.347  12.512
 4746SOL    HW114570   2.846   1.324  12.567
 4746SOL    HW214571   3.009   1.321  12.561
 4747SOL     OW14572   3.454   1.629  12.797
 4747SOL    HW114573   3.481   1.663  12.707
 4747SOL    HW214574   3.533   1.591  12.843
 4748SOL     OW14575   2.973   1.195  12.272
 4748SOL    HW114576   2.933   1.239  12.353
 4748SOL    HW214577   2.932   1.232  12.189
 4749SOL     OW14578   3.500   1.099  12.251
 4749SOL    HW114579   3.505   1.180  12.310
 4749SOL    HW214580   3.414   1.101  12.200
 4750SOL     OW14581   2.777   0.089  12.574
 4750SOL    HW114582   2.802   0.069  12.479
 4750SOL    HW214583   2.849   0.145  12.616
 4751SOL     OW14584   2.842   1.116  12.891
 4751SOL    HW114585   2.743   1.122  12.901
 4751SOL    HW214586   2.865   1.036  12.835
 4752SOL     OW14587   2.567   1.050  11.540
 4752SOL    HW114588   2.553   1.057  11.639
 4752SOL    HW214589   2.651   0.999  11.522
 4753SOL     OW14590   2.272   0.813  12.423
 4753SOL    HW114591   2.358   0.825  12.473
 4753SOL    HW214592   2.230   0.726  12.450
 4754SOL     OW14593   3.136   0.386  12.434
 4754SOL    HW114594   3.157   0.460  12.498
 4754SOL    HW214595   3.047   0.403  12.391
 4755SOL     OW14596   1.926   1.564  12.503
 4755SOL    HW114597   1.880   1.646  12.469
 4755SOL    HW214598   2.024   1.583  12.512
 4756SOL     OW14599   2.229   1.100  11.673
 4756SOL    HW114600   2.222   1.183  11.617
 4756SOL    HW214601   2.233   1.020  11.613
 4757SOL     OW14602   2.428   0.537  12.037
 4757SOL    HW114603   2.440   0.603  11.963
 4757SOL    HW214604   2.474   0.571  12.120
 4758SOL     OW14605   3.114   1.348  11.560
 4758SOL    HW114606   3.164   1.425  11.600
 4758SOL    HW214607   3.019   1.350  11.592
 4759SOL     OW14608   3.134   1.445  12.314
 4759SOL    HW114609   3.181   1.458  12.401
 4759SOL    HW214610   3.068   1.371  12.323
 4760SOL     OW14611   3.444   0.639  11.644
 4760SOL    HW114612   3.413   0.700  11.717
 4760SOL    HW214613   3.494   0.691  11.575
 4761SOL     OW14614   2.216   1.510  12.501
 4761SOL    HW114615   2.195   1.466  12.414
 4761SOL    HW214616   2.313   1.536  12.504
 4762SOL     OW14617   2.264   0.751  12.770
 4762SOL    HW114618   2.332   0.806  12.723
 4762SOL    HW214619   2.304   0.663  12.797
 4763SOL     OW14620   3.449   0.779  12.842
 4763SOL    HW114621   3.357   0.817  12.837
 4763SOL    HW214622   3.509   0.826  12.777
 4764SOL     OW14623   2.875   0.105  12.942
 4764SOL    HW114624   2.881   0.190  12.890
 4764SOL    HW214625   2.907   0.029  12.885
 4765SOL     OW14626   2.366   0.050  12.912
 4765SOL    HW114627   2.324  -0.007  12.842
 4765SOL    HW214628   2.300   0.119  12.944
 4766SOL     OW14629   2.435   0.870  12.201
 4766SOL    HW114630   2.479   0.959  12.192
 4766SOL    HW214631   2.372   0.870  12.278
 4767SOL     OW14632   3.222   0.862  12.217
 4767SOL    HW114633   3.147   0.862  12.151
 4767SOL    HW214634   3.259   0.770  12.226
 4768SOL     OW14635   3.071   0.525  11.447
 4768SOL    HW114636   3.084   0.441  11.501
 4768SOL    HW214637   3.042   0.599  11.507
 4769SOL     OW14638   2.169   0.213  12.403
 4769SOL    HW114639   2.146   0.250  12.493
 4769SOL    HW214640   2.139   0.118  12.397
 4770SOL     OW14641   1.899   1.310  12.454
 4770SOL    HW114642   1.952   1.261  12.522
 4770SOL    HW214643   1.921   1.408  12.459
 4771SOL     OW14644   2.594   0.634  12.236
 4771SOL    HW114645   2.653   0.608  12.160
 4771SOL    HW214646   2.566   0.730  12.225
 4772SOL     OW14647   3.590   0.935  13.026
 4772SOL    HW114648   3.544   0.928  12.937
 4772SOL    HW214649   3.528   0.979  13.092
 4773SOL     OW14650   2.169   0.063  11.790
 4773SOL    HW114651   2.158   0.157  11.823
 4773SOL    HW214652   2.164   0.000  11.867
 4774SOL     OW14653   3.484   0.367  11.546
 4774SOL    HW114654   3.486   0.291  11.610
 4774SOL    HW214655   3.436   0.444  11.586
 4775SOL     OW14656   2.885   0.766  12.138
 4775SOL    HW114657   2.900   0.787  12.234
 4775SOL    HW214658   2.855   0.671  12.129
 4776SOL     OW14659   2.842   1.573  12.872
 4776SOL    HW114660   2.822   1.617  12.784
 4776SOL    HW214661   2.881   1.482  12.856
 4777SOL     OW14662   3.721   1.518  12.777
 4777SOL    HW114663   3.735   1.545  12.682
 4777SOL    HW214664   3.804   1.540  12.830
 4778SOL     OW14665   2.212   0.898  12.976
 4778SOL    HW114666   2.288   0.942  13.024
 4778SOL    HW214667   2.247   0.851  12.894
 4779SOL     OW14668   3.402   0.274  11.297
 4779SOL    HW114669   3.341   0.199  11.320
 4779SOL    HW214670   3.424   0.326  11.380
 4780SOL     OW14671   3.165   0.838  11.214
 4780SOL    HW114672   3.199   0.745  11.229
 4780SOL    HW214673   3.183   0.865  11.119
 4781SOL     OW14674   2.930   1.333  12.021
 4781SOL    HW114675   2.937   1.249  11.966
 4781SOL    HW214676   2.992   1.402  11.985
 4782SOL     OW14677   2.181   0.810  12.121
 4782SOL    HW114678   2.274   0.846  12.126
 4782SOL    HW214679   2.175   0.725  12.173
 4783SOL     OW14680   2.201   0.509  12.178
 4783SOL    HW114681   2.149   0.426  12.161
 4783SOL    HW214682   2.278   0.514  12.114
 4784SOL     OW14683   3.000   0.380  12.850
 4784SOL    HW114684   2.955   0.443  12.914
 4784SOL    HW214685   3.093   0.411  12.833
 4785SOL     OW14686   3.022   0.207  12.649
 4785SOL    HW114687   3.022   0.271  12.726
 4785SOL    HW214688   3.050   0.255  12.566
 4786SOL     OW14689   1.870   1.326  11.372
 4786SOL    HW114690   1.777   1.347  11.341
 4786SOL    HW214691   1.880   1.227  11.385
 4787SOL     OW14692   1.950   1.801  12.099
 4787SOL    HW114693   1.908   1.715  12.072
 4787SOL    HW214694   2.044   1.804  12.065
 4788SOL     OW14695   2.366   1.568  12.082
 4788SOL    HW114696   2.432   1.642  12.091
 4788SOL    HW214697   2.410   1.489  12.040
 4789SOL     OW14698   2.864   0.796  12.410
 4789SOL    HW114699   2.905   0.764  12.496
 4789SOL    HW214700   2.768   0.769  12.407
 4790SOL     OW14701   1.902   0.544  12.286
 4790SOL    HW114702   1.987   0.511  12.245
 4790SOL    HW214703   1.915   0.559  12.384
 4791SOL     OW14704   2.051   0.520  12.894
 4791SOL    HW114705   2.110   0.480  12.824
 4791SOL    HW214706   1.993   0.591  12.853
 4792SOL     OW14707   3.231   0.950  12.832
 4792SOL    HW114708   3.270   1.039  12.852
 4792SOL    HW214709   3.241   0.930  12.735
 4793SOL     OW14710   2.677   0.572  11.497
 4793SOL    HW114711   2.684   0.483  11.451
 4793SOL    HW214712   2.583   0.606  11.489
 4794SOL     OW14713   3.519   0.604  12.378
 4794SOL    HW114714   3.481   0.535  12.440
 4794SOL    HW214715   3.601   0.568  12.334
 4795SOL     OW14716   2.114   1.564  12.916
 4795SOL    HW114717   2.084   1.621  12.992
 4795SOL    HW214718   2.107   1.467  12.942
 4796SOL     OW14719   2.533   0.464  12.441
 4796SOL    HW114720   2.499   0.375  12.411
 4796SOL    HW214721   2.559   0.518  12.361
 4797SOL     OW14722   2.792   1.678  12.637
 4797SOL    HW114723   2.768   1.660  12.542
 4797SOL    HW214724   2.822   1.772  12.647
 4798SOL     OW14725   2.335   0.500  11.363
 4798SOL    HW114726   2.396   0.580  11.367
 4798SOL    HW214727   2.240   0.531  11.370
 4799SOL     OW14728   2.021   1.137  12.638
 4799SOL    HW114729   2.043   1.076  12.714
 4799SOL    HW214730   2.031   1.088  12.552
 4800SOL     OW14731   3.209   1.059  12.406
 4800SOL    HW114732   3.233   0.996  12.332
 4800SOL    HW214733   3.119   1.099  12.388
 4801SOL     OW14734   3.164   0.855  11.481
 4801SOL    HW114735   3.078   0.824  11.523
 4801SOL    HW214736   3.160   0.841  11.382
 4802SOL     OW14737   3.621   1.747  12.326
 4802SOL    HW114738   3.682   1.777  12.253
 4802SOL    HW214739   3.583   1.658  12.304
 4803SOL     OW14740   3.114   1.731  12.300
 4803SOL    HW114741   3.198   1.736  12.246
 4803SOL    HW214742   3.091   1.635  12.318
 4804SOL     OW14743   1.945   1.258  12.194
 4804SOL    HW114744   1.940   1.257  12.294
 4804SOL    HW214745   1.862   1.217  12.156
 4805SOL     OW14746   2.550   1.662  12.888
 4805SOL    HW114747   2.494   1.743  12.897
 4805SOL    HW214748   2.602   1.666  12.802
 4806SOL     OW14749   3.588   0.135  11.695
 4806SOL    HW114750   3.661   0.118  11.628
 4806SOL    HW214751   3.557   0.048  11.733
 4807SOL     OW14752   3.250   1.573  11.649
 4807SOL    HW114753   3.317   1.585  11.575
 4807SOL    HW214754   3.210   1.662  11.672
 4808SOL     OW14755   1.992   1.794  13.023
 4808SOL    HW114756   1.951   1.720  13.076
 4808SOL    HW214757   2.056   1.845  13.081
 4809SOL     OW14758   3.142   0.927  11.844
 4809SOL    HW114759   3.202   0.846  11.846
 4809SOL    HW214760   3.182   0.996  11.784
 4810SOL     OW14761   2.692   1.273  12.594
 4810SOL    HW114762   2.687   1.306  12.689
 4810SOL    HW214763   2.606   1.292  12.548
 4811SOL     OW14764   2.534   1.616  11.326
 4811SOL    HW114765   2.543   1.626  11.227
 4811SOL    HW214766   2.494   1.527  11.347
 4812SOL     OW14767   3.512   1.720  12.566
 4812SOL    HW114768   3.565   1.730  12.482
 4812SOL    HW214769   3.485   1.810  12.600
 4813SOL     OW14770   3.703   0.175  12.135
 4813SOL    HW114771   3.742   0.090  12.099
 4813SOL    HW214772   3.605   0.177  12.116
 4814SOL     OW14773   2.125   0.326  11.892
 4814SOL    HW114774   2.046   0.377  11.858
 4814SOL    HW214775   2.116   0.311  11.990
 4815SOL     OW14776   3.056   1.612  11.203
 4815SOL    HW114777   3.062   1.519  11.240
 4815SOL    HW214778   2.997   1.612  11.123
 4816SOL     OW14779   2.684   1.002  12.544
 4816SOL    HW114780   2.724   1.001  12.452
 4816SOL    HW214781   2.694   1.094  12.584
 4817SOL     OW14782   2.778   0.910  11.463
 4817SOL    HW114783   2.841   0.948  11.395
 4817SOL    HW214784   2.818   0.827  11.502
 4818SOL     OW14785   3.366   1.607  11.216
 4818SOL    HW114786   3.274   1.644  11.223
 4818SOL    HW214787   3.404   1.627  11.126
 4819SOL     OW14788   2.234   1.288  12.662
 4819SOL    HW114789   2.221   1.381  12.628
 4819SOL    HW214790   2.150   1.236  12.649
 4820SOL     OW14791   3.476   1.292  12.461
 4820SOL    HW114792   3.536   1.295  12.541
 4820SOL    HW214793   3.401   1.356  12.474
 4821SOL     OW14794   2.901   1.098  11.868
 4821SOL    HW114795   2.831   1.051  11.922
 4821SOL    HW214796   2.960   1.030  11.825
 4822SOL     OW14797   2.876   0.236  12.143
 4822SOL    HW114798   2.868   0.200  12.050
 4822SOL    HW214799   2.874   0.160  12.208
 4823SOL     OW14800   2.452   1.487  11.663
 4823SOL    HW114801   2.494   1.429  11.593
 4823SOL    HW214802   2.408   1.566  11.619
 4824SOL     OW14803   3.571   0.385  12.553
 4824SOL    HW114804   3.644   0.454  12.557
 4824SOL    HW214805   3.599   0.310  12.494
 4825SOL     OW14806   2.117   1.348  11.462
 4825SOL    HW114807   2.021   1.349  11.435
 4825SOL    HW214808   2.129   1.401  11.546
 4826SOL     OW14809   1.967   1.013  12.898
 4826SOL    HW114810   1.890   0.980  12.952
 4826SOL    HW214811   2.052   0.983  12.940
 4827SOL     OW14812   2.534   0.203  12.661
 4827SOL    HW114813   2.624   0.187  12.621
 4827SOL    HW214814   2.542   0.208  12.760
 4828SOL     OW14815   1.937   0.345  11.205
 4828SOL    HW114816   1.845   0.317  11.176
 4828SOL    HW214817   1.968   0.422  11.149
 4829SOL     OW14818   3.302   0.856  12.570
 4829SOL    HW114819   3.245   0.908  12.507
 4829SOL    HW214820   3.398   0.868  12.546
 4830SOL     OW14821   1.934   0.166  11.490
 4830SOL    HW114822   1.917   0.249  11.436
 4830SOL    HW214823   2.024   0.129  11.468
 4831SOL     OW14824   3.045   1.335  11.291
 4831SOL    HW114825   2.946   1.324  11.293
 4831SOL    HW214826   3.079   1.350  11.384
 4832SOL     OW14827   2.475   0.842  12.603
 4832SOL    HW114828   2.531   0.923  12.586
 4832SOL    HW214829   2.534   0.762  12.606
 4833SOL     OW14830   3.355   1.767  12.131
 4833SOL    HW114831   3.388   1.831  12.062
 4833SOL    HW214832   3.421   1.761  12.206
 4834SOL     OW14833   2.578   0.565  12.880
 4834SOL    HW114834   2.597   0.630  12.954
 4834SOL    HW214835   2.638   0.485  12.889
 4835SOL     OW14836   3.312   1.220  12.805
 4835SOL    HW114837   3.303   1.210  12.904
 4835SOL    HW214838   3.408   1.213  12.779
 4836SOL     OW14839   2.252   1.741  12.732
 4836SOL    HW114840   2.161   1.782  12.730
 4836SOL    HW214841   2.245   1.647  12.764
 4837SOL     OW14842   3.536   0.883  12.426
 4837SOL    HW114843   3.509   0.794  12.389
 4837SOL    HW214844   3.537   0.951  12.353
 4838SOL     OW14845   3.087   0.325  11.621
 4838SOL    HW114846   3.152   0.251  11.610
 4838SOL    HW214847   3.107   0.375  11.705
 4839SOL     OW14848   2.456   0.745  11.824
 4839SOL    HW114849   2.506   0.830  11.805
 4839SOL    HW214850   2.368   0.747  11.776
 4840SOL     OW14851   3.639   0.342  12.814
 4840SOL    HW114852   3.622   0.373  12.720
 4840SOL    HW214853   3.555   0.305  12.852
 4841SOL     OW14854   3.592   0.934  12.689
 4841SOL    HW114855   3.630   1.025  12.704
 4841SOL    HW214856   3.584   0.917  12.590
 4842SOL     OW14857   2.721   1.374  11.188
 4842SOL    HW114858   2.675   1.389  11.276
 4842SOL    HW214859   2.765   1.459  11.158
 4843SOL     OW14860   2.523   1.790  12.125
 4843SOL    HW114861   2.477   1.878  12.112
 4843SOL    HW214862   2.622   1.802  12.118
 4844SOL     OW14863   2.721   0.956  12.033
 4844SOL    HW114864   2.775   0.887  12.081
 4844SOL    HW214865   2.689   1.025  12.099
 4845SOL     OW14866   2.945   0.984  11.259
 4845SOL    HW114867   2.922   1.037  11.177
 4845SOL    HW214868   3.026   0.928  11.240
 4846SOL     OW14869   3.723   1.569  12.023
 4846SOL    HW114870   3.652   1.557  11.953
 4846SOL    HW214871   3.724   1.490  12.083
 4847SOL     OW14872   2.083   1.314  13.016
 4847SOL    HW114873   2.018   1.241  12.995
 4847SOL    HW214874   2.087   1.328  13.114
 4848SOL     OW14875   1.941   1.240  11.825
 4848SOL    HW114876   1.940   1.193  11.913
 4848SOL    HW214877   2.023   1.212  11.774
 4849SOL     OW14878   2.534   1.391  12.796
 4849SOL    HW114879   2.456   1.341  12.834
 4849SOL    HW214880   2.531   1.486  12.827
 4850SOL     OW14881   3.686   0.192  12.399
 4850SOL    HW114882   3.682   0.102  12.443
 4850SOL    HW214883   3.689   0.181  12.300
 4851SOL     OW14884   2.290   0.424  11.692
 4851SOL    HW114885   2.320   0.352  11.630
 4851SOL    HW214886   2.251   0.384  11.775
 4852SOL     OW14887   3.567   1.487  12.276
 4852SOL    HW114888   3.474   1.462  12.249
 4852SOL    HW214889   3.593   1.437  12.358
 4853SOL     OW14890   2.179   0.547  12.452
 4853SOL    HW114891   2.217   0.488  12.524
 4853SOL    HW214892   2.219   0.521  12.364
 4854SOL     OW14893   2.674   1.586  11.859
 4854SOL    HW114894   2.706   1.596  11.765
 4854SOL    HW214895   2.595   1.524  11.861
 4855SOL     OW14896   3.286   0.214  12.284
 4855SOL    HW114897   3.338   0.149  12.339
 4855SOL    HW214898   3.237   0.277  12.345
 4856SOL     OW14899   2.863   0.034  12.326
 4856SOL    HW114900   2.800  -0.038  12.295
 4856SOL    HW214901   2.956  -0.002  12.326
 4857SOL     OW14902   2.632   1.330  11.473
 4857SOL    HW114903   2.586   1.243  11.490
 4857SOL    HW214904   2.723   1.327  11.514
 4858SOL     OW14905   2.480   1.567  12.456
 4858SOL    HW114906   2.475   1.649  12.513
 4858SOL    HW214907   2.569   1.564  12.411
 4859SOL     OW14908   3.214   0.052  11.340
 4859SOL    HW114909   3.249   0.011  11.256
 4859SOL    HW214910   3.124   0.014  11.360
 4860SOL     OW14911   3.162   0.453  11.863
 4860SOL    HW114912   3.103   0.533  11.867
 4860SOL    HW214913   3.177   0.418  11.956
 4861SOL     OW14914   3.455   0.221  12.054
 4861SOL    HW114915   3.371   0.220  12.108
 4861SOL    HW214916   3.457   0.304  11.998
 4862SOL     OW14917   1.901   1.077  11.472
 4862SOL    HW114918   2.000   1.066  11.463
 4862SOL    HW214919   1.861   0.991  11.504
 4863SOL     OW14920   2.737   1.646  11.509
 4863SOL    HW114921   2.660   1.611  11.455
 4863SOL    HW214922   2.705   1.717  11.571
 4864SOL     OW14923   2.092   0.628  13.147
 4864SOL    HW114924   1.999   0.626  13.184
 4864SOL    HW214925   2.093   0.589  13.055
 4865SOL     OW14926   2.087   0.275  14.030
 4865SOL    HW114927   2.122   0.258  14.122
 4865SOL    HW214928   1.999   0.230  14.018
 4866SOL     OW14929   1.881   0.368  13.681
 4866SOL    HW114930   1.799   0.411  13.720
 4866SOL    HW214931   1.853   0.295  13.618
 4867SOL     OW14932   3.417   1.511  13.737
 4867SOL    HW114933   3.360   1.495  13.818
 4867SOL    HW214934   3.358   1.521  13.657
 4868SOL     OW14935   2.997   0.703  13.751
 4868SOL    HW114936   3.054   0.781  13.726
 4868SOL    HW214937   2.937   0.729  13.827
 4869SOL     OW14938   3.617   0.607  13.265
 4869SOL    HW114939   3.605   0.594  13.166
 4869SOL    HW214940   3.587   0.526  13.314
 4870SOL     OW14941   2.547   1.012  13.699
 4870SOL    HW114942   2.616   0.996  13.769
 4870SOL    HW214943   2.474   1.069  13.737
 4871SOL     OW14944   3.465   0.447  13.771
 4871SOL    HW114945   3.391   0.493  13.721
 4871SOL    HW214946   3.516   0.515  13.824
 4872SOL     OW14947   2.093   1.713  13.517
 4872SOL    HW114948   2.127   1.790  13.571
 4872SOL    HW214949   2.137   1.713  13.427
 4873SOL     OW14950   2.092   1.434  13.572
 4873SOL    HW114951   2.066   1.530  13.572
 4873SOL    HW214952   2.021   1.380  13.617
 4874SOL     OW14953   2.102   1.091  13.920
 4874SOL    HW114954   2.116   1.007  13.972
 4874SOL    HW214955   2.047   1.155  13.975
 4875SOL     OW14956   2.468   0.964  13.157
 4875SOL    HW114957   2.475   1.048  13.103
 4875SOL    HW214958   2.514   0.977  13.245
 4876SOL     OW14959   1.984   0.643  13.597
 4876SOL    HW114960   1.939   0.555  13.614
 4876SOL    HW214961   1.983   0.697  13.681
 4877SOL     OW14962   3.704   1.767  13.393
 4877SOL    HW114963   3.758   1.738  13.473
 4877SOL    HW214964   3.734   1.857  13.364
 4878SOL     OW14965   1.889   1.596  13.151
 4878SOL    HW114966   1.870   1.500  13.172
 4878SOL    HW214967   1.856   1.654  13.226
 4879SOL     OW14968   3.551   0.922  13.646
 4879SOL    HW114969   3.646   0.893  13.654
 4879SOL    HW214970   3.543   0.987  13.571
 4880SOL     OW14971   3.503   1.108  13.466
 4880SOL    HW114972   3.589   1.110  13.414
 4880SOL    HW214973   3.517   1.155  13.554
 4881SOL     OW14974   2.475   1.365  13.760
 4881SOL    HW114975   2.426   1.278  13.769
 4881SOL    HW214976   2.452   1.408  13.673
 4882SOL     OW14977   2.671   0.004  13.536
 4882SOL    HW114978   2.711   0.095  13.527
 4882SOL    HW214979   2.571   0.012  13.542
 4883SOL     OW14980   3.387   0.999  13.224
 4883SOL    HW114981   3.324   0.923  13.237
 4883SOL    HW214982   3.435   1.017  13.310
 4884SOL     OW14983   3.529   1.714  13.606
 4884SOL    HW114984   3.488   1.691  13.518
 4884SOL    HW214985   3.511   1.640  13.671
 4885SOL     OW14986   2.460   0.729  13.304
 4885SOL    HW114987   2.484   0.798  13.236
 4885SOL    HW214988   2.382   0.762  13.358
 4886SOL     OW14989   3.143   0.345  13.978
 4886SOL    HW114990   3.057   0.295  13.965
 4886SOL    HW214991   3.205   0.291  14.034
 4887SOL     OW14992   3.438   1.662  13.341
 4887SOL    HW114993   3.527   1.708  13.344
 4887SOL    HW214994   3.417   1.638  13.246
 4888SOL     OW14995   2.903   0.701  13.463
 4888SOL    HW114996   2.929   0.697  13.559
 4888SOL    HW214997   2.818   0.650  13.449
 4889SOL     OW14998   1.938   0.811  13.823
 4889SOL    HW114999   2.037   0.799  13.832
 4889SOL    HW215000   1.914   0.906  13.844
 4890SOL     OW15001   2.727   0.348  13.229
 4890SOL    HW115002   2.786   0.411  13.180
 4890SOL    HW215003   2.746   0.254  13.200
 4891SOL     OW15004   3.224   1.144  13.579
 4891SOL    HW115005   3.307   1.115  13.531
 4891SOL    HW215006   3.175   1.211  13.523
 4892SOL     OW15007   2.870   1.456  13.511
 4892SOL    HW115008   2.824   1.528  13.459
 4892SOL    HW215009   2.866   1.476  13.609
 4893SOL     OW15010   2.213   1.801  13.887
 4893SOL    HW115011   2.263   1.715  13.893
 4893SOL    HW215012   2.278   1.878  13.884
 4894SOL     OW15013   3.657   1.066  13.907
 4894SOL    HW115014   3.595   1.051  13.831
 4894SOL    HW215015   3.605   1.077  13.992
 4895SOL     OW15016   2.183   0.943  13.276
 4895SOL    HW115017   2.265   0.982  13.234
 4895SOL    HW215018   2.156   0.861  13.227
 4896SOL     OW15019   3.320   0.735  13.762
 4896SOL    HW115020   3.315   0.670  13.837
 4896SOL    HW215021   3.400   0.794  13.775
 4897SOL     OW15022   2.973   1.776  13.271
 4897SOL    HW115023   2.913   1.714  13.321
 4897SOL    HW215024   3.004   1.732  13.186
 4898SOL     OW15025   3.494   1.377  13.115
 4898SOL    HW115026   3.462   1.471  13.105
 4898SOL    HW215027   3.418   1.314  13.103
 4899SOL     OW15028   2.326   1.743  13.357
 4899SOL    HW115029   2.359   1.782  13.443
 4899SOL    HW215030   2.402   1.736  13.292
 4900SOL     OW15031   3.262   0.107  13.460
 4900SOL    HW115032   3.238   0.070  13.370
 4900SOL    HW215033   3.361   0.123  13.464
 4901SOL     OW15034   2.802   1.698  13.938
 4901SOL    HW115035   2.882   1.641  13.959
 4901SOL    HW215036   2.753   1.658  13.861
 4902SOL     OW15037   2.244   0.700  13.514
 4902SOL    HW115038   2.289   0.610  13.511
 4902SOL    HW215039   2.150   0.689  13.547
 4903SOL     OW15040   2.476   0.122  13.151
 4903SOL    HW115041   2.574   0.100  13.158
 4903SOL    HW215042   2.445   0.105  13.058
 4904SOL     OW15043   2.401   0.064  13.546
 4904SOL    HW115044   2.320   0.065  13.604
 4904SOL    HW215045   2.404   0.147  13.491
 4905SOL     OW15046   3.296   1.188  13.075
 4905SOL    HW115047   3.328   1.112  13.132
 4905SOL    HW215048   3.204   1.215  13.105
 4906SOL     OW15049   2.159   0.035  13.205
 4906SOL    HW115050   2.208   0.119  13.184
 4906SOL    HW215051   2.221  -0.030  13.250
 4907SOL     OW15052   2.797   0.236  13.514
 4907SOL    HW115053   2.749   0.277  13.436
 4907SOL    HW215054   2.896   0.234  13.495
 4908SOL     OW15055   2.321   1.152  13.775
 4908SOL    HW115056   2.250   1.125  13.840
 4908SOL    HW215057   2.295   1.124  13.682
 4909SOL     OW15058   3.133   1.797  13.625
 4909SOL    HW115059   3.177   1.861  13.561
 4909SOL    HW215060   3.083   1.849  13.695
 4910SOL     OW15061   2.894   0.549  13.050
 4910SOL    HW115062   2.853   0.631  13.011
 4910SOL    HW215063   2.958   0.575  13.123
 4911SOL     OW15064   2.728   0.454  13.676
 4911SOL    HW115065   2.696   0.526  13.614
 4911SOL    HW215066   2.752   0.373  13.623
 4912SOL     OW15067   2.879   0.039  13.787
 4912SOL    HW115068   2.807   0.044  13.718
 4912SOL    HW215069   2.855  -0.030  13.856
 4913SOL     OW15070   3.719   0.833  13.411
 4913SOL    HW115071   3.761   0.769  13.475
 4913SOL    HW215072   3.681   0.782  13.333
 4914SOL     OW15073   2.350   1.385  13.208
 4914SOL    HW115074   2.263   1.370  13.255
 4914SOL    HW215075   2.333   1.411  13.113
 4915SOL     OW15076   3.526   1.280  13.691
 4915SOL    HW115077   3.625   1.288  13.705
 4915SOL    HW215078   3.481   1.364  13.722
 4916SOL     OW15079   3.252   0.575  13.112
 4916SOL    HW115080   3.198   0.554  13.193
 4916SOL    HW215081   3.343   0.534  13.121
 4917SOL     OW15082   2.389   0.256  13.362
 4917SOL    HW115083   2.416   0.197  13.287
 4917SOL    HW215084   2.389   0.351  13.331
 4918SOL     OW15085   2.567   1.050  13.402
 4918SOL    HW115086   2.553   1.057  13.501
 4918SOL    HW215087   2.651   0.999  13.384
 4919SOL     OW15088   2.229   1.100  13.535
 4919SOL    HW115089   2.222   1.183  13.479
 4919SOL    HW215090   2.233   1.020  13.475
 4920SOL     OW15091   2.428   0.537  13.899
 4920SOL    HW115092   2.440   0.603  13.825
 4920SOL    HW215093   2.474   0.571  13.982
 4921SOL     OW15094   3.114   1.348  13.422
 4921SOL    HW115095   3.164   1.425  13.462
 4921SOL    HW215096   3.019   1.350  13.454
 4922SOL     OW15097   3.444   0.639  13.506
 4922SOL    HW115098   3.413   0.700  13.579
 4922SOL    HW215099   3.494   0.691  13.437
 4923SOL     OW15100   3.071   0.525  13.309
 4923SOL    HW115101   3.084   0.441  13.363
 4923SOL    HW215102   3.042   0.599  13.369
 4924SOL     OW15103   2.169   0.063  13.652
 4924SOL    HW115104   2.158   0.157  13.685
 4924SOL    HW215105   2.164   0.000  13.729
 4925SOL     OW15106   3.484   0.367  13.408
 4925SOL    HW115107   3.486   0.291  13.472
 4925SOL    HW215108   3.436   0.444  13.448
 4926SOL     OW15109   3.402   0.274  13.159
 4926SOL    HW115110   3.341   0.199  13.182
 4926SOL    HW215111   3.424   0.326  13.242
 4927SOL     OW15112   3.165   0.838  13.076
 4927SOL    HW115113   3.199   0.745  13.091
 4927SOL    HW215114   3.183   0.865  12.981
 4928SOL     OW15115   1.870   1.326  13.234
 4928SOL    HW115116   1.777   1.347  13.203
 4928SOL    HW215117   1.880   1.227  13.247
 4929SOL     OW15118   2.677   0.572  13.359
 4929SOL    HW115119   2.684   0.483  13.313
 4929SOL    HW215120   2.583   0.606  13.351
 4930SOL     OW15121   2.335   0.500  13.225
 4930SOL    HW115122   2.396   0.580  13.229
 4930SOL    HW215123   2.240   0.531  13.232
 4931SOL     OW15124   3.164   0.855  13.343
 4931SOL    HW115125   3.078   0.824  13.385
 4931SOL    HW215126   3.160   0.841  13.244
 4932SOL     OW15127   3.588   0.135  13.557
 4932SOL    HW115128   3.661   0.118  13.490
 4932SOL    HW215129   3.557   0.048  13.595
 4933SOL     OW15130   3.250   1.573  13.511
 4933SOL    HW115131   3.317   1.585  13.437
 4933SOL    HW215132   3.210   1.662  13.534
 4934SOL     OW15133   3.142   0.927  13.706
 4934SOL    HW115134   3.202   0.846  13.708
 4934SOL    HW215135   3.182   0.996  13.646
 4935SOL     OW15136   2.534   1.616  13.188
 4935SOL    HW115137   2.543   1.626  13.089
 4935SOL    HW215138   2.494   1.527  13.209
 4936SOL     OW15139   3.703   0.175  13.997
 4936SOL    HW115140   3.742   0.090  13.961
 4936SOL    HW215141   3.605   0.177  13.978
 4937SOL     OW15142   2.125   0.326  13.754
 4937SOL    HW115143   2.046   0.377  13.720
 4937SOL    HW215144   2.116   0.311  13.852
 4938SOL     OW15145   3.056   1.612  13.065
 4938SOL    HW115146   3.062   1.519  13.102
 4938SOL    HW215147   2.997   1.612  12.985
 4939SOL     OW15148   2.778   0.910  13.325
 4939SOL    HW115149   2.841   0.948  13.257
 4939SOL    HW215150   2.818   0.827  13.364
 4940SOL     OW15151   3.366   1.607  13.078
 4940SOL    HW115152   3.274   1.644  13.085
 4940SOL    HW215153   3.404   1.627  12.988
 4941SOL     OW15154   2.901   1.098  13.730
 4941SOL    HW115155   2.831   1.051  13.784
 4941SOL    HW215156   2.960   1.030  13.687
 4942SOL     OW15157   2.452   1.487  13.525
 4942SOL    HW115158   2.494   1.429  13.455
 4942SOL    HW215159   2.408   1.566  13.481
 4943SOL     OW15160   2.117   1.348  13.324
 4943SOL    HW115161   2.021   1.349  13.297
 4943SOL    HW215162   2.129   1.401  13.408
 4944SOL     OW15163   1.937   0.345  13.067
 4944SOL    HW115164   1.845   0.317  13.038
 4944SOL    HW215165   1.968   0.422  13.011
 4945SOL     OW15166   1.934   0.166  13.352
 4945SOL    HW115167   1.917   0.249  13.298
 4945SOL    HW215168   2.024   0.129  13.330
 4946SOL     OW15169   3.045   1.335  13.153
 4946SOL    HW115170   2.946   1.324  13.155
 4946SOL    HW215171   3.079   1.350  13.246
 4947SOL     OW15172   3.087   0.325  13.483
 4947SOL    HW115173   3.152   0.251  13.472
 4947SOL    HW215174   3.107   0.375  13.567
 4948SOL     OW15175   2.456   0.745  13.686
 4948SOL    HW115176   2.506   0.830  13.667
 4948SOL    HW215177   2.368   0.747  13.638
 4949SOL     OW15178   2.721   1.374  13.050
 4949SOL    HW115179   2.675   1.389  13.138
 4949SOL    HW215180   2.765   1.459  13.020
 4950SOL     OW15181   2.523   1.790  13.987
 4950SOL    HW115182   2.477   1.878  13.974
 4950SOL    HW215183   2.622   1.802  13.980
 4951SOL     OW15184   2.721   0.956  13.895
 4951SOL    HW115185   2.775   0.887  13.943
 4951SOL    HW215186   2.689   1.025  13.961
 4952SOL     OW15187   2.945   0.984  13.121
 4952SOL    HW115188   2.922   1.037  13.039
 4952SOL    HW215189   3.026   0.928  13.102
 4953SOL     OW15190   1.941   1.240  13.687
 4953SOL    HW115191   1.940   1.193  13.775
 4953SOL    HW215192   2.023   1.212  13.636
 4954SOL     OW15193   2.290   0.424  13.554
 4954SOL    HW115194   2.320   0.352  13.492
 4954SOL    HW215195   2.251   0.384  13.637
 4955SOL     OW15196   3.567   1.487  14.138
 4955SOL    HW115197   3.474   1.462  14.111
 4955SOL    HW215198   3.593   1.437  14.220
 4956SOL     OW15199   2.674   1.586  13.721
 4956SOL    HW115200   2.706   1.596  13.627
 4956SOL    HW215201   2.595   1.524  13.723
 4957SOL     OW15202   2.632   1.330  13.335
 4957SOL    HW115203   2.586   1.243  13.352
 4957SOL    HW215204   2.723   1.327  13.376
 4958SOL     OW15205   3.214   0.052  13.202
 4958SOL    HW115206   3.249   0.011  13.118
 4958SOL    HW215207   3.124   0.014  13.222
 4959SOL     OW15208   3.162   0.453  13.725
 4959SOL    HW115209   3.103   0.533  13.729
 4959SOL    HW215210   3.177   0.418  13.818
 4960SOL     OW15211   1.901   1.077  13.334
 4960SOL    HW115212   2.000   1.066  13.325
 4960SOL    HW215213   1.861   0.991  13.366
 4961SOL     OW15214   2.737   1.646  13.371
 4961SOL    HW115215   2.660   1.611  13.317
 4961SOL    HW215216   2.705   1.717  13.433
 4962SOL     OW15217   2.092   2.490   0.113
 4962SOL    HW115218   1.999   2.488   0.150
 4962SOL    HW215219   2.093   2.451   0.021
 4963SOL     OW15220   1.881   2.230   0.647
 4963SOL    HW115221   1.799   2.273   0.686
 4963SOL    HW215222   1.853   2.157   0.584
 4964SOL     OW15223   2.431   3.137   1.165
 4964SOL    HW115224   2.338   3.130   1.128
 4964SOL    HW215225   2.442   3.226   1.209
 4965SOL     OW15226   3.417   3.373   0.703
 4965SOL    HW115227   3.360   3.357   0.784
 4965SOL    HW215228   3.358   3.383   0.623
 4966SOL     OW15229   2.997   2.565   0.717
 4966SOL    HW115230   3.054   2.643   0.692
 4966SOL    HW215231   2.937   2.591   0.793
 4967SOL     OW15232   3.617   2.469   0.231
 4967SOL    HW115233   3.605   2.456   0.132
 4967SOL    HW215234   3.587   2.388   0.280
 4968SOL     OW15235   2.630   3.006   1.023
 4968SOL    HW115236   2.552   3.023   1.083
 4968SOL    HW215237   2.664   3.093   0.987
 4969SOL     OW15238   2.712   2.660   1.823
 4969SOL    HW115239   2.708   2.736   1.888
 4969SOL    HW215240   2.734   2.696   1.732
 4970SOL     OW15241   2.547   2.874   0.665
 4970SOL    HW115242   2.616   2.858   0.735
 4970SOL    HW215243   2.474   2.931   0.703
 4971SOL     OW15244   2.548   3.023   1.803
 4971SOL    HW115245   2.608   3.102   1.817
 4971SOL    HW215246   2.462   3.054   1.762
 4972SOL     OW15247   2.197   3.297   1.061
 4972SOL    HW115248   2.119   3.266   1.008
 4972SOL    HW215249   2.255   3.355   1.004
 4973SOL     OW15250   3.322   3.367   1.339
 4973SOL    HW115251   3.346   3.461   1.365
 4973SOL    HW215252   3.306   3.313   1.421
 4974SOL     OW15253   2.300   2.254   1.499
 4974SOL    HW115254   2.382   2.198   1.508
 4974SOL    HW215255   2.219   2.196   1.503
 4975SOL     OW15256   3.465   2.309   0.737
 4975SOL    HW115257   3.391   2.355   0.687
 4975SOL    HW215258   3.516   2.377   0.790
 4976SOL     OW15259   2.093   3.575   0.483
 4976SOL    HW115260   2.127   3.652   0.537
 4976SOL    HW215261   2.137   3.575   0.393
 4977SOL     OW15262   2.989   3.203   1.690
 4977SOL    HW115263   3.036   3.203   1.778
 4977SOL    HW215264   2.941   3.116   1.679
 4978SOL     OW15265   2.092   3.296   0.538
 4978SOL    HW115266   2.066   3.392   0.538
 4978SOL    HW215267   2.021   3.242   0.583
 4979SOL     OW15268   2.102   2.953   0.886
 4979SOL    HW115269   2.116   2.869   0.938
 4979SOL    HW215270   2.047   3.017   0.941
 4980SOL     OW15271   2.482   3.648   1.439
 4980SOL    HW115272   2.390   3.631   1.474
 4980SOL    HW215273   2.510   3.740   1.465
 4981SOL     OW15274   2.468   2.826   0.123
 4981SOL    HW115275   2.475   2.910   0.069
 4981SOL    HW215276   2.514   2.839   0.211
 4982SOL     OW15277   3.456   1.976   1.480
 4982SOL    HW115278   3.438   2.043   1.408
 4982SOL    HW215279   3.453   2.022   1.569
 4983SOL     OW15280   1.984   2.505   0.563
 4983SOL    HW115281   1.939   2.417   0.580
 4983SOL    HW215282   1.983   2.559   0.647
 4984SOL     OW15283   3.704   3.629   0.359
 4984SOL    HW115284   3.758   3.600   0.439
 4984SOL    HW215285   3.734   3.719   0.330
 4985SOL     OW15286   1.889   3.458   0.117
 4985SOL    HW115287   1.870   3.362   0.138
 4985SOL    HW215288   1.856   3.516   0.192
 4986SOL     OW15289   3.551   2.784   0.612
 4986SOL    HW115290   3.646   2.755   0.620
 4986SOL    HW215291   3.543   2.849   0.537
 4987SOL     OW15292   3.503   2.970   0.432
 4987SOL    HW115293   3.589   2.972   0.380
 4987SOL    HW215294   3.517   3.017   0.520
 4988SOL     OW15295   1.975   2.599   1.597
 4988SOL    HW115296   2.063   2.586   1.642
 4988SOL    HW215297   1.962   2.696   1.575
 4989SOL     OW15298   2.475   3.227   0.726
 4989SOL    HW115299   2.426   3.140   0.735
 4989SOL    HW215300   2.452   3.270   0.639
 4990SOL     OW15301   3.155   3.090   1.423
 4990SOL    HW115302   3.192   3.017   1.365
 4990SOL    HW215303   3.207   3.095   1.508
 4991SOL     OW15304   2.671   1.866   0.502
 4991SOL    HW115305   2.711   1.957   0.493
 4991SOL    HW215306   2.571   1.874   0.508
 4992SOL     OW15307   2.059   2.838   1.264
 4992SOL    HW115308   2.148   2.793   1.250
 4992SOL    HW215309   1.986   2.773   1.245
 4993SOL     OW15310   3.387   2.861   0.190
 4993SOL    HW115311   3.324   2.785   0.203
 4993SOL    HW215312   3.435   2.879   0.276
 4994SOL     OW15313   3.049   3.654   1.616
 4994SOL    HW115314   3.073   3.714   1.540
 4994SOL    HW215315   3.056   3.559   1.586
 4995SOL     OW15316   3.328   3.279   0.953
 4995SOL    HW115317   3.269   3.285   1.033
 4995SOL    HW215318   3.313   3.191   0.907
 4996SOL     OW15319   3.529   3.576   0.572
 4996SOL    HW115320   3.488   3.553   0.484
 4996SOL    HW215321   3.511   3.502   0.637
 4997SOL     OW15322   2.460   2.591   0.270
 4997SOL    HW115323   2.484   2.660   0.202
 4997SOL    HW215324   2.382   2.624   0.324
 4998SOL     OW15325   3.143   2.207   0.944
 4998SOL    HW115326   3.057   2.157   0.931
 4998SOL    HW215327   3.205   2.153   1.000
 4999SOL     OW15328   3.438   3.524   0.307
 4999SOL    HW115329   3.527   3.570   0.310
 4999SOL    HW215330   3.417   3.500   0.212
 5000SOL     OW15331   2.669   2.467   1.465
 5000SOL    HW115332   2.622   2.464   1.554
 5000SOL    HW215333   2.618   2.412   1.399
 5001SOL     OW15334   3.256   2.331   1.674
 5001SOL    HW115335   3.236   2.374   1.762
 5001SOL    HW215336   3.334   2.269   1.683
 5002SOL     OW15337   2.835   2.752   1.572
 5002SOL    HW115338   2.881   2.668   1.543
 5002SOL    HW215339   2.779   2.786   1.497
 5003SOL     OW15340   2.853   2.272   1.242
 5003SOL    HW115341   2.776   2.306   1.296
 5003SOL    HW215342   2.819   2.221   1.163
 5004SOL     OW15343   2.903   2.563   0.429
 5004SOL    HW115344   2.929   2.559   0.525
 5004SOL    HW215345   2.818   2.512   0.415
 5005SOL     OW15346   1.938   2.673   0.789
 5005SOL    HW115347   2.037   2.661   0.798
 5005SOL    HW215348   1.914   2.768   0.810
 5006SOL     OW15349   1.992   3.683   1.571
 5006SOL    HW115350   1.982   3.668   1.670
 5006SOL    HW215351   1.906   3.719   1.535
 5007SOL     OW15352   2.727   2.210   0.195
 5007SOL    HW115353   2.786   2.273   0.146
 5007SOL    HW215354   2.746   2.116   0.166
 5008SOL     OW15355   3.581   2.447   1.831
 5008SOL    HW115356   3.555   2.536   1.795
 5008SOL    HW215357   3.579   2.379   1.758
 5009SOL     OW15358   3.224   3.006   0.545
 5009SOL    HW115359   3.307   2.977   0.497
 5009SOL    HW215360   3.175   3.073   0.489
 5010SOL     OW15361   2.412   2.058   0.885
 5010SOL    HW115362   2.407   2.053   0.985
 5010SOL    HW215363   2.414   2.154   0.856
 5011SOL     OW15364   2.870   3.318   0.477
 5011SOL    HW115365   2.824   3.390   0.425
 5011SOL    HW215366   2.866   3.338   0.575
 5012SOL     OW15367   2.213   3.663   0.853
 5012SOL    HW115368   2.263   3.577   0.859
 5012SOL    HW215369   2.278   3.740   0.850
 5013SOL     OW15370   3.657   2.928   0.873
 5013SOL    HW115371   3.595   2.913   0.797
 5013SOL    HW215372   3.605   2.939   0.958
 5014SOL     OW15373   3.089   3.412   1.506
 5014SOL    HW115374   3.095   3.335   1.570
 5014SOL    HW215375   3.037   3.386   1.426
 5015SOL     OW15376   2.183   2.805   0.242
 5015SOL    HW115377   2.265   2.844   0.200
 5015SOL    HW215378   2.156   2.723   0.193
 5016SOL     OW15379   3.320   2.597   0.728
 5016SOL    HW115380   3.315   2.532   0.803
 5016SOL    HW215381   3.400   2.656   0.741
 5017SOL     OW15382   2.323   3.128   1.727
 5017SOL    HW115383   2.273   3.129   1.641
 5017SOL    HW215384   2.260   3.110   1.803
 5018SOL     OW15385   2.973   3.638   0.237
 5018SOL    HW115386   2.913   3.576   0.287
 5018SOL    HW215387   3.004   3.594   0.152
 5019SOL     OW15388   3.494   3.239   0.081
 5019SOL    HW115389   3.462   3.333   0.071
 5019SOL    HW215390   3.418   3.176   0.069
 5020SOL     OW15391   2.326   3.605   0.323
 5020SOL    HW115392   2.359   3.644   0.409
 5020SOL    HW215393   2.402   3.598   0.258
 5021SOL     OW15394   3.262   1.969   0.426
 5021SOL    HW115395   3.238   1.932   0.336
 5021SOL    HW215396   3.361   1.985   0.430
 5022SOL     OW15397   2.111   3.647   1.241
 5022SOL    HW115398   2.168   3.582   1.291
 5022SOL    HW215399   2.095   3.614   1.148
 5023SOL     OW15400   2.802   3.560   0.904
 5023SOL    HW115401   2.882   3.503   0.925
 5023SOL    HW215402   2.753   3.520   0.827
 5024SOL     OW15403   2.244   2.562   0.480
 5024SOL    HW115404   2.289   2.472   0.477
 5024SOL    HW215405   2.150   2.551   0.513
 5025SOL     OW15406   3.409   2.084   1.729
 5025SOL    HW115407   3.404   2.121   1.821
 5025SOL    HW215408   3.337   2.015   1.717
 5026SOL     OW15409   2.643   2.126   1.749
 5026SOL    HW115410   2.710   2.065   1.792
 5026SOL    HW215411   2.570   2.145   1.814
 5027SOL     OW15412   2.750   3.376   1.195
 5027SOL    HW115413   2.727   3.351   1.101
 5027SOL    HW215414   2.811   3.307   1.234
 5028SOL     OW15415   3.213   2.452   1.433
 5028SOL    HW115416   3.241   2.409   1.518
 5028SOL    HW215417   3.238   2.548   1.434
 5029SOL     OW15418   2.665   3.264   0.924
 5029SOL    HW115419   2.755   3.278   0.882
 5029SOL    HW215420   2.594   3.266   0.853
 5030SOL     OW15421   2.784   2.365   0.899
 5030SOL    HW115422   2.759   2.356   0.803
 5030SOL    HW215423   2.832   2.283   0.930
 5031SOL     OW15424   2.401   1.926   0.512
 5031SOL    HW115425   2.320   1.927   0.570
 5031SOL    HW215426   2.404   2.009   0.457
 5032SOL     OW15427   3.296   3.050   0.041
 5032SOL    HW115428   3.328   2.974   0.098
 5032SOL    HW215429   3.204   3.077   0.071
 5033SOL     OW15430   2.797   2.098   0.480
 5033SOL    HW115431   2.749   2.139   0.402
 5033SOL    HW215432   2.896   2.096   0.461
 5034SOL     OW15433   2.938   2.545   1.464
 5034SOL    HW115434   2.858   2.484   1.467
 5034SOL    HW215435   3.019   2.492   1.440
 5035SOL     OW15436   3.089   3.432   0.793
 5035SOL    HW115437   3.110   3.506   0.728
 5035SOL    HW215438   3.157   3.432   0.866
 5036SOL     OW15439   2.321   3.014   0.741
 5036SOL    HW115440   2.250   2.987   0.806
 5036SOL    HW215441   2.295   2.986   0.648
 5037SOL     OW15442   3.133   3.659   0.591
 5037SOL    HW115443   3.177   3.723   0.527
 5037SOL    HW215444   3.083   3.711   0.661
 5038SOL     OW15445   2.894   2.411   0.016
 5038SOL    HW115446   2.853   2.493  -0.023
 5038SOL    HW215447   2.958   2.437   0.089
 5039SOL     OW15448   1.940   2.418   1.386
 5039SOL    HW115449   2.032   2.417   1.345
 5039SOL    HW215450   1.934   2.492   1.453
 5040SOL     OW15451   2.423   2.084   1.147
 5040SOL    HW115452   2.461   2.000   1.184
 5040SOL    HW215453   2.335   2.103   1.191
 5041SOL     OW15454   2.728   2.316   0.642
 5041SOL    HW115455   2.696   2.388   0.580
 5041SOL    HW215456   2.752   2.235   0.589
 5042SOL     OW15457   2.879   1.901   0.753
 5042SOL    HW115458   2.807   1.906   0.684
 5042SOL    HW215459   2.855   1.832   0.822
 5043SOL     OW15460   3.291   3.035   0.867
 5043SOL    HW115461   3.236   2.951   0.860
 5043SOL    HW215462   3.317   3.064   0.775
 5044SOL     OW15463   3.328   2.452   0.992
 5044SOL    HW115464   3.298   2.357   0.999
 5044SOL    HW215465   3.401   2.468   1.058
 5045SOL     OW15466   3.719   2.695   0.377
 5045SOL    HW115467   3.761   2.631   0.441
 5045SOL    HW215468   3.681   2.644   0.299
 5046SOL     OW15469   2.350   3.247   0.174
 5046SOL    HW115470   2.263   3.232   0.221
 5046SOL    HW215471   2.333   3.273   0.079
 5047SOL     OW15472   3.526   3.142   0.657
 5047SOL    HW115473   3.625   3.150   0.671
 5047SOL    HW215474   3.481   3.226   0.688
 5048SOL     OW15475   3.252   2.437   0.078
 5048SOL    HW115476   3.198   2.416   0.159
 5048SOL    HW215477   3.343   2.396   0.087
 5049SOL     OW15478   2.389   2.118   0.328
 5049SOL    HW115479   2.416   2.059   0.253
 5049SOL    HW215480   2.389   2.213   0.297
 5050SOL     OW15481   3.616   3.085   1.588
 5050SOL    HW115482   3.707   3.046   1.575
 5050SOL    HW215483   3.624   3.181   1.612
 5051SOL     OW15484   2.926   3.209   1.340
 5051SOL    HW115485   2.846   3.186   1.395
 5051SOL    HW215486   3.009   3.183   1.389
 5052SOL     OW15487   3.454   3.491   1.625
 5052SOL    HW115488   3.481   3.525   1.535
 5052SOL    HW215489   3.533   3.453   1.671
 5053SOL     OW15490   2.973   3.057   1.100
 5053SOL    HW115491   2.933   3.101   1.181
 5053SOL    HW215492   2.932   3.094   1.017
 5054SOL     OW15493   3.500   2.961   1.079
 5054SOL    HW115494   3.505   3.042   1.138
 5054SOL    HW215495   3.414   2.963   1.028
 5055SOL     OW15496   2.777   1.951   1.402
 5055SOL    HW115497   2.802   1.931   1.307
 5055SOL    HW215498   2.849   2.007   1.444
 5056SOL     OW15499   2.842   2.978   1.719
 5056SOL    HW115500   2.743   2.984   1.729
 5056SOL    HW215501   2.865   2.898   1.663
 5057SOL     OW15502   2.567   2.912   0.368
 5057SOL    HW115503   2.553   2.919   0.467
 5057SOL    HW215504   2.651   2.861   0.350
 5058SOL     OW15505   2.272   2.675   1.251
 5058SOL    HW115506   2.358   2.687   1.301
 5058SOL    HW215507   2.230   2.588   1.278
 5059SOL     OW15508   3.136   2.248   1.262
 5059SOL    HW115509   3.157   2.322   1.326
 5059SOL    HW215510   3.047   2.265   1.219
 5060SOL     OW15511   1.926   3.426   1.331
 5060SOL    HW115512   1.880   3.508   1.297
 5060SOL    HW215513   2.024   3.445   1.340
 5061SOL     OW15514   2.229   2.962   0.501
 5061SOL    HW115515   2.222   3.045   0.445
 5061SOL    HW215516   2.233   2.882   0.441
 5062SOL     OW15517   2.428   2.399   0.865
 5062SOL    HW115518   2.440   2.465   0.791
 5062SOL    HW215519   2.474   2.433   0.948
 5063SOL     OW15520   3.114   3.210   0.388
 5063SOL    HW115521   3.164   3.287   0.428
 5063SOL    HW215522   3.019   3.212   0.420
 5064SOL     OW15523   3.134   3.307   1.142
 5064SOL    HW115524   3.181   3.320   1.229
 5064SOL    HW215525   3.068   3.233   1.151
 5065SOL     OW15526   3.444   2.501   0.472
 5065SOL    HW115527   3.413   2.562   0.545
 5065SOL    HW215528   3.494   2.553   0.403
 5066SOL     OW15529   2.216   3.372   1.329
 5066SOL    HW115530   2.195   3.328   1.242
 5066SOL    HW215531   2.313   3.398   1.332
 5067SOL     OW15532   2.264   2.613   1.598
 5067SOL    HW115533   2.332   2.668   1.551
 5067SOL    HW215534   2.304   2.525   1.625
 5068SOL     OW15535   3.449   2.641   1.670
 5068SOL    HW115536   3.357   2.679   1.665
 5068SOL    HW215537   3.509   2.688   1.605
 5069SOL     OW15538   2.875   1.967   1.770
 5069SOL    HW115539   2.881   2.052   1.718
 5069SOL    HW215540   2.907   1.891   1.713
 5070SOL     OW15541   2.366   1.912   1.740
 5070SOL    HW115542   2.324   1.855   1.670
 5070SOL    HW215543   2.300   1.981   1.772
 5071SOL     OW15544   2.435   2.732   1.029
 5071SOL    HW115545   2.479   2.821   1.020
 5071SOL    HW215546   2.372   2.732   1.106
 5072SOL     OW15547   3.222   2.724   1.045
 5072SOL    HW115548   3.147   2.724   0.979
 5072SOL    HW215549   3.259   2.632   1.054
 5073SOL     OW15550   3.071   2.387   0.275
 5073SOL    HW115551   3.084   2.303   0.329
 5073SOL    HW215552   3.042   2.461   0.335
 5074SOL     OW15553   1.899   3.172   1.282
 5074SOL    HW115554   1.952   3.123   1.350
 5074SOL    HW215555   1.921   3.270   1.287
 5075SOL     OW15556   2.594   2.496   1.064
 5075SOL    HW115557   2.653   2.470   0.988
 5075SOL    HW215558   2.566   2.592   1.053
 5076SOL     OW15559   3.590   2.797   1.854
 5076SOL    HW115560   3.544   2.790   1.765
 5076SOL    HW215561   3.528   2.841   1.920
 5077SOL     OW15562   2.169   1.925   0.618
 5077SOL    HW115563   2.158   2.019   0.651
 5077SOL    HW215564   2.164   1.862   0.695
 5078SOL     OW15565   3.484   2.229   0.374
 5078SOL    HW115566   3.486   2.153   0.438
 5078SOL    HW215567   3.436   2.306   0.414
 5079SOL     OW15568   2.885   2.628   0.966
 5079SOL    HW115569   2.900   2.649   1.062
 5079SOL    HW215570   2.855   2.533   0.957
 5080SOL     OW15571   2.842   3.435   1.700
 5080SOL    HW115572   2.822   3.479   1.612
 5080SOL    HW215573   2.881   3.344   1.684
 5081SOL     OW15574   3.721   3.380   1.605
 5081SOL    HW115575   3.735   3.407   1.510
 5081SOL    HW215576   3.804   3.402   1.658
 5082SOL     OW15577   2.212   2.760   1.804
 5082SOL    HW115578   2.288   2.804   1.852
 5082SOL    HW215579   2.247   2.713   1.722
 5083SOL     OW15580   3.402   2.136   0.125
 5083SOL    HW115581   3.341   2.061   0.148
 5083SOL    HW215582   3.424   2.188   0.208
 5084SOL     OW15583   3.165   2.700   0.042
 5084SOL    HW115584   3.199   2.607   0.057
 5084SOL    HW215585   3.183   2.727  -0.053
 5085SOL     OW15586   2.930   3.195   0.849
 5085SOL    HW115587   2.937   3.111   0.794
 5085SOL    HW215588   2.992   3.264   0.813
 5086SOL     OW15589   2.181   2.672   0.949
 5086SOL    HW115590   2.274   2.708   0.954
 5086SOL    HW215591   2.175   2.587   1.001
 5087SOL     OW15592   2.201   2.371   1.006
 5087SOL    HW115593   2.149   2.288   0.989
 5087SOL    HW215594   2.278   2.376   0.942
 5088SOL     OW15595   3.000   2.242   1.678
 5088SOL    HW115596   2.955   2.305   1.742
 5088SOL    HW215597   3.093   2.273   1.661
 5089SOL     OW15598   3.022   2.069   1.477
 5089SOL    HW115599   3.022   2.133   1.554
 5089SOL    HW215600   3.050   2.117   1.394
 5090SOL     OW15601   1.870   3.188   0.200
 5090SOL    HW115602   1.777   3.209   0.169
 5090SOL    HW215603   1.880   3.089   0.213
 5091SOL     OW15604   1.950   3.663   0.927
 5091SOL    HW115605   1.908   3.577   0.900
 5091SOL    HW215606   2.044   3.666   0.893
 5092SOL     OW15607   2.366   3.430   0.910
 5092SOL    HW115608   2.432   3.504   0.919
 5092SOL    HW215609   2.410   3.351   0.868
 5093SOL     OW15610   2.864   2.658   1.238
 5093SOL    HW115611   2.905   2.626   1.324
 5093SOL    HW215612   2.768   2.631   1.235
 5094SOL     OW15613   1.902   2.406   1.114
 5094SOL    HW115614   1.987   2.373   1.073
 5094SOL    HW215615   1.915   2.421   1.212
 5095SOL     OW15616   2.051   2.382   1.722
 5095SOL    HW115617   2.110   2.342   1.652
 5095SOL    HW215618   1.993   2.453   1.681
 5096SOL     OW15619   3.231   2.812   1.660
 5096SOL    HW115620   3.270   2.901   1.680
 5096SOL    HW215621   3.241   2.792   1.563
 5097SOL     OW15622   2.677   2.434   0.325
 5097SOL    HW115623   2.684   2.345   0.279
 5097SOL    HW215624   2.583   2.468   0.317
 5098SOL     OW15625   3.519   2.466   1.206
 5098SOL    HW115626   3.481   2.397   1.268
 5098SOL    HW215627   3.601   2.430   1.162
 5099SOL     OW15628   2.114   3.426   1.744
 5099SOL    HW115629   2.084   3.483   1.820
 5099SOL    HW215630   2.107   3.329   1.770
 5100SOL     OW15631   2.533   2.326   1.269
 5100SOL    HW115632   2.499   2.237   1.239
 5100SOL    HW215633   2.559   2.380   1.189
 5101SOL     OW15634   2.792   3.540   1.465
 5101SOL    HW115635   2.768   3.522   1.370
 5101SOL    HW215636   2.822   3.634   1.475
 5102SOL     OW15637   2.335   2.362   0.191
 5102SOL    HW115638   2.396   2.442   0.195
 5102SOL    HW215639   2.240   2.393   0.198
 5103SOL     OW15640   2.021   2.999   1.466
 5103SOL    HW115641   2.043   2.938   1.542
 5103SOL    HW215642   2.031   2.950   1.380
 5104SOL     OW15643   3.209   2.921   1.234
 5104SOL    HW115644   3.233   2.858   1.160
 5104SOL    HW215645   3.119   2.961   1.216
 5105SOL     OW15646   3.164   2.717   0.309
 5105SOL    HW115647   3.078   2.686   0.351
 5105SOL    HW215648   3.160   2.703   0.210
 5106SOL     OW15649   3.621   3.609   1.154
 5106SOL    HW115650   3.682   3.639   1.081
 5106SOL    HW215651   3.583   3.520   1.132
 5107SOL     OW15652   3.114   3.593   1.128
 5107SOL    HW115653   3.198   3.598   1.074
 5107SOL    HW215654   3.091   3.497   1.146
 5108SOL     OW15655   1.945   3.120   1.022
 5108SOL    HW115656   1.940   3.119   1.122
 5108SOL    HW215657   1.862   3.079   0.984
 5109SOL     OW15658   2.550   3.524   1.716
 5109SOL    HW115659   2.494   3.605   1.725
 5109SOL    HW215660   2.602   3.528   1.630
 5110SOL     OW15661   2.765   1.948   0.133
 5110SOL    HW115662   2.816   1.949   0.047
 5110SOL    HW215663   2.821   1.906   0.204
 5111SOL     OW15664   3.588   1.997   0.523
 5111SOL    HW115665   3.661   1.980   0.456
 5111SOL    HW215666   3.557   1.910   0.561
 5112SOL     OW15667   3.250   3.435   0.477
 5112SOL    HW115668   3.317   3.447   0.403
 5112SOL    HW215669   3.210   3.524   0.500
 5113SOL     OW15670   1.992   3.656   1.851
 5113SOL    HW115671   1.951   3.582   1.904
 5113SOL    HW215672   2.056   3.707   1.909
 5114SOL     OW15673   3.142   2.789   0.672
 5114SOL    HW115674   3.202   2.708   0.674
 5114SOL    HW215675   3.182   2.858   0.612
 5115SOL     OW15676   2.692   3.135   1.422
 5115SOL    HW115677   2.687   3.168   1.517
 5115SOL    HW215678   2.606   3.154   1.376
 5116SOL     OW15679   2.534   3.478   0.154
 5116SOL    HW115680   2.543   3.488   0.055
 5116SOL    HW215681   2.494   3.389   0.175
 5117SOL     OW15682   3.512   3.582   1.394
 5117SOL    HW115683   3.565   3.592   1.310
 5117SOL    HW215684   3.485   3.672   1.428
 5118SOL     OW15685   3.703   2.037   0.963
 5118SOL    HW115686   3.742   1.952   0.927
 5118SOL    HW215687   3.605   2.039   0.944
 5119SOL     OW15688   3.056   3.474   0.031
 5119SOL    HW115689   3.062   3.381   0.068
 5119SOL    HW215690   2.997   3.474  -0.049
 5120SOL     OW15691   2.684   2.864   1.372
 5120SOL    HW115692   2.724   2.863   1.280
 5120SOL    HW215693   2.694   2.956   1.412
 5121SOL     OW15694   2.778   2.772   0.291
 5121SOL    HW115695   2.841   2.810   0.223
 5121SOL    HW215696   2.818   2.689   0.330
 5122SOL     OW15697   3.366   3.469   0.044
 5122SOL    HW115698   3.274   3.506   0.051
 5122SOL    HW215699   3.404   3.489  -0.046
 5123SOL     OW15700   2.234   3.150   1.490
 5123SOL    HW115701   2.221   3.243   1.456
 5123SOL    HW215702   2.150   3.098   1.477
 5124SOL     OW15703   3.476   3.154   1.289
 5124SOL    HW115704   3.536   3.157   1.369
 5124SOL    HW215705   3.401   3.218   1.302
 5125SOL     OW15706   2.901   2.960   0.696
 5125SOL    HW115707   2.831   2.913   0.750
 5125SOL    HW215708   2.960   2.892   0.653
 5126SOL     OW15709   2.876   2.098   0.971
 5126SOL    HW115710   2.868   2.062   0.878
 5126SOL    HW215711   2.874   2.022   1.036
 5127SOL     OW15712   2.452   3.349   0.491
 5127SOL    HW115713   2.494   3.291   0.421
 5127SOL    HW215714   2.408   3.428   0.447
 5128SOL     OW15715   3.571   2.247   1.381
 5128SOL    HW115716   3.644   2.316   1.385
 5128SOL    HW215717   3.599   2.172   1.322
 5129SOL     OW15718   2.117   3.210   0.290
 5129SOL    HW115719   2.021   3.211   0.263
 5129SOL    HW215720   2.129   3.263   0.374
 5130SOL     OW15721   1.967   2.875   1.726
 5130SOL    HW115722   1.890   2.842   1.780
 5130SOL    HW215723   2.052   2.845   1.768
 5131SOL     OW15724   2.534   2.065   1.489
 5131SOL    HW115725   2.624   2.049   1.449
 5131SOL    HW215726   2.542   2.070   1.588
 5132SOL     OW15727   1.937   2.207   0.033
 5132SOL    HW115728   1.845   2.179   0.004
 5132SOL    HW215729   1.968   2.284  -0.023
 5133SOL     OW15730   3.302   2.718   1.398
 5133SOL    HW115731   3.245   2.770   1.335
 5133SOL    HW215732   3.398   2.730   1.374
 5134SOL     OW15733   3.045   3.197   0.119
 5134SOL    HW115734   2.946   3.186   0.121
 5134SOL    HW215735   3.079   3.212   0.212
 5135SOL     OW15736   2.475   2.704   1.431
 5135SOL    HW115737   2.531   2.785   1.414
 5135SOL    HW215738   2.534   2.624   1.434
 5136SOL     OW15739   3.355   3.629   0.959
 5136SOL    HW115740   3.388   3.693   0.890
 5136SOL    HW215741   3.421   3.623   1.034
 5137SOL     OW15742   2.578   2.427   1.708
 5137SOL    HW115743   2.597   2.492   1.782
 5137SOL    HW215744   2.638   2.347   1.717
 5138SOL     OW15745   3.312   3.082   1.633
 5138SOL    HW115746   3.303   3.072   1.732
 5138SOL    HW215747   3.408   3.075   1.607
 5139SOL     OW15748   2.252   3.603   1.560
 5139SOL    HW115749   2.161   3.644   1.558
 5139SOL    HW215750   2.245   3.509   1.592
 5140SOL     OW15751   3.536   2.745   1.254
 5140SOL    HW115752   3.509   2.656   1.217
 5140SOL    HW215753   3.537   2.813   1.181
 5141SOL     OW15754   3.087   2.187   0.449
 5141SOL    HW115755   3.152   2.113   0.438
 5141SOL    HW215756   3.107   2.237   0.533
 5142SOL     OW15757   2.456   2.607   0.652
 5142SOL    HW115758   2.506   2.692   0.633
 5142SOL    HW215759   2.368   2.609   0.604
 5143SOL     OW15760   3.639   2.204   1.642
 5143SOL    HW115761   3.622   2.235   1.548
 5143SOL    HW215762   3.555   2.167   1.680
 5144SOL     OW15763   3.592   2.796   1.517
 5144SOL    HW115764   3.630   2.887   1.532
 5144SOL    HW215765   3.584   2.779   1.418
 5145SOL     OW15766   2.721   3.236   0.016
 5145SOL    HW115767   2.675   3.251   0.104
 5145SOL    HW215768   2.765   3.321  -0.014
 5146SOL     OW15769   2.523   3.652   0.953
 5146SOL    HW115770   2.477   3.740   0.940
 5146SOL    HW215771   2.622   3.664   0.946
 5147SOL     OW15772   2.721   2.818   0.861
 5147SOL    HW115773   2.775   2.749   0.909
 5147SOL    HW215774   2.689   2.887   0.927
 5148SOL     OW15775   2.945   2.846   0.087
 5148SOL    HW115776   2.922   2.899   0.005
 5148SOL    HW215777   3.026   2.790   0.068
 5149SOL     OW15778   3.723   3.431   0.851
 5149SOL    HW115779   3.652   3.419   0.781
 5149SOL    HW215780   3.724   3.352   0.911
 5150SOL     OW15781   2.083   3.176   1.844
 5150SOL    HW115782   2.018   3.103   1.823
 5150SOL    HW215783   2.087   3.190   1.942
 5151SOL     OW15784   1.941   3.102   0.653
 5151SOL    HW115785   1.940   3.055   0.741
 5151SOL    HW215786   2.023   3.074   0.602
 5152SOL     OW15787   2.534   3.253   1.624
 5152SOL    HW115788   2.456   3.203   1.662
 5152SOL    HW215789   2.531   3.348   1.655
 5153SOL     OW15790   3.686   2.054   1.227
 5153SOL    HW115791   3.682   1.964   1.271
 5153SOL    HW215792   3.689   2.043   1.128
 5154SOL     OW15793   2.290   2.286   0.520
 5154SOL    HW115794   2.320   2.214   0.458
 5154SOL    HW215795   2.251   2.246   0.603
 5155SOL     OW15796   3.567   3.349   1.104
 5155SOL    HW115797   3.474   3.324   1.077
 5155SOL    HW215798   3.593   3.299   1.186
 5156SOL     OW15799   2.179   2.409   1.280
 5156SOL    HW115800   2.217   2.350   1.352
 5156SOL    HW215801   2.219   2.383   1.192
 5157SOL     OW15802   2.674   3.448   0.687
 5157SOL    HW115803   2.706   3.458   0.593
 5157SOL    HW215804   2.595   3.386   0.689
 5158SOL     OW15805   3.286   2.076   1.112
 5158SOL    HW115806   3.338   2.011   1.167
 5158SOL    HW215807   3.237   2.139   1.173
 5159SOL     OW15808   2.863   1.896   1.154
 5159SOL    HW115809   2.800   1.824   1.123
 5159SOL    HW215810   2.956   1.860   1.154
 5160SOL     OW15811   2.632   3.192   0.301
 5160SOL    HW115812   2.586   3.105   0.318
 5160SOL    HW215813   2.723   3.189   0.342
 5161SOL     OW15814   2.480   3.429   1.284
 5161SOL    HW115815   2.475   3.511   1.341
 5161SOL    HW215816   2.569   3.426   1.239
 5162SOL     OW15817   3.214   1.914   0.168
 5162SOL    HW115818   3.249   1.873   0.084
 5162SOL    HW215819   3.124   1.876   0.188
 5163SOL     OW15820   3.162   2.315   0.691
 5163SOL    HW115821   3.103   2.395   0.695
 5163SOL    HW215822   3.177   2.280   0.784
 5164SOL     OW15823   3.455   2.083   0.882
 5164SOL    HW115824   3.371   2.082   0.936
 5164SOL    HW215825   3.457   2.166   0.826
 5165SOL     OW15826   1.901   2.939   0.300
 5165SOL    HW115827   2.000   2.928   0.291
 5165SOL    HW215828   1.861   2.853   0.332
 5166SOL     OW15829   2.737   3.508   0.337
 5166SOL    HW115830   2.660   3.473   0.283
 5166SOL    HW215831   2.705   3.579   0.399
 5167SOL     OW15832   2.092   2.490   1.975
 5167SOL    HW115833   1.999   2.488   2.012
 5167SOL    HW215834   2.093   2.451   1.883
 5168SOL     OW15835   1.881   2.230   2.509
 5168SOL    HW115836   1.799   2.273   2.548
 5168SOL    HW215837   1.853   2.157   2.446
 5169SOL     OW15838   2.431   3.137   3.027
 5169SOL    HW115839   2.338   3.130   2.990
 5169SOL    HW215840   2.442   3.226   3.071
 5170SOL     OW15841   3.417   3.373   2.565
 5170SOL    HW115842   3.360   3.357   2.646
 5170SOL    HW215843   3.358   3.383   2.485
 5171SOL     OW15844   2.997   2.565   2.579
 5171SOL    HW115845   3.054   2.643   2.554
 5171SOL    HW215846   2.937   2.591   2.655
 5172SOL     OW15847   3.617   2.469   2.093
 5172SOL    HW115848   3.605   2.456   1.994
 5172SOL    HW215849   3.587   2.388   2.142
 5173SOL     OW15850   2.630   3.006   2.885
 5173SOL    HW115851   2.552   3.023   2.945
 5173SOL    HW215852   2.664   3.093   2.849
 5174SOL     OW15853   2.712   2.660   3.685
 5174SOL    HW115854   2.708   2.736   3.750
 5174SOL    HW215855   2.734   2.696   3.594
 5175SOL     OW15856   2.547   2.874   2.527
 5175SOL    HW115857   2.616   2.858   2.597
 5175SOL    HW215858   2.474   2.931   2.565
 5176SOL     OW15859   2.548   3.023   3.665
 5176SOL    HW115860   2.608   3.102   3.679
 5176SOL    HW215861   2.462   3.054   3.624
 5177SOL     OW15862   2.197   3.297   2.923
 5177SOL    HW115863   2.119   3.266   2.870
 5177SOL    HW215864   2.255   3.355   2.866
 5178SOL     OW15865   3.322   3.367   3.201
 5178SOL    HW115866   3.346   3.461   3.227
 5178SOL    HW215867   3.306   3.313   3.283
 5179SOL     OW15868   2.300   2.254   3.361
 5179SOL    HW115869   2.382   2.198   3.370
 5179SOL    HW215870   2.219   2.196   3.365
 5180SOL     OW15871   3.465   2.309   2.599
 5180SOL    HW115872   3.391   2.355   2.549
 5180SOL    HW215873   3.516   2.377   2.652
 5181SOL     OW15874   2.093   3.575   2.345
 5181SOL    HW115875   2.127   3.652   2.399
 5181SOL    HW215876   2.137   3.575   2.255
 5182SOL     OW15877   2.989   3.203   3.552
 5182SOL    HW115878   3.036   3.203   3.640
 5182SOL    HW215879   2.941   3.116   3.541
 5183SOL     OW15880   2.092   3.296   2.400
 5183SOL    HW115881   2.066   3.392   2.400
 5183SOL    HW215882   2.021   3.242   2.445
 5184SOL     OW15883   2.102   2.953   2.748
 5184SOL    HW115884   2.116   2.869   2.800
 5184SOL    HW215885   2.047   3.017   2.803
 5185SOL     OW15886   2.482   3.648   3.301
 5185SOL    HW115887   2.390   3.631   3.336
 5185SOL    HW215888   2.510   3.740   3.327
 5186SOL     OW15889   2.468   2.826   1.985
 5186SOL    HW115890   2.475   2.910   1.931
 5186SOL    HW215891   2.514   2.839   2.073
 5187SOL     OW15892   3.456   1.976   3.342
 5187SOL    HW115893   3.438   2.043   3.270
 5187SOL    HW215894   3.453   2.022   3.431
 5188SOL     OW15895   1.984   2.505   2.425
 5188SOL    HW115896   1.939   2.417   2.442
 5188SOL    HW215897   1.983   2.559   2.509
 5189SOL     OW15898   3.704   3.629   2.221
 5189SOL    HW115899   3.758   3.600   2.301
 5189SOL    HW215900   3.734   3.719   2.192
 5190SOL     OW15901   1.889   3.458   1.979
 5190SOL    HW115902   1.870   3.362   2.000
 5190SOL    HW215903   1.856   3.516   2.054
 5191SOL     OW15904   3.551   2.784   2.474
 5191SOL    HW115905   3.646   2.755   2.482
 5191SOL    HW215906   3.543   2.849   2.399
 5192SOL     OW15907   3.503   2.970   2.294
 5192SOL    HW115908   3.589   2.972   2.242
 5192SOL    HW215909   3.517   3.017   2.382
 5193SOL     OW15910   1.975   2.599   3.459
 5193SOL    HW115911   2.063   2.586   3.504
 5193SOL    HW215912   1.962   2.696   3.437
 5194SOL     OW15913   2.475   3.227   2.588
 5194SOL    HW115914   2.426   3.140   2.597
 5194SOL    HW215915   2.452   3.270   2.501
 5195SOL     OW15916   3.155   3.090   3.285
 5195SOL    HW115917   3.192   3.017   3.227
 5195SOL    HW215918   3.207   3.095   3.370
 5196SOL     OW15919   2.671   1.866   2.364
 5196SOL    HW115920   2.711   1.957   2.355
 5196SOL    HW215921   2.571   1.874   2.370
 5197SOL     OW15922   2.059   2.838   3.126
 5197SOL    HW115923   2.148   2.793   3.112
 5197SOL    HW215924   1.986   2.773   3.107
 5198SOL     OW15925   3.387   2.861   2.052
 5198SOL    HW115926   3.324   2.785   2.065
 5198SOL    HW215927   3.435   2.879   2.138
 5199SOL     OW15928   3.049   3.654   3.478
 5199SOL    HW115929   3.073   3.714   3.402
 5199SOL    HW215930   3.056   3.559   3.448
 5200SOL     OW15931   3.328   3.279   2.815
 5200SOL    HW115932   3.269   3.285   2.895
 5200SOL    HW215933   3.313   3.191   2.769
 5201SOL     OW15934   3.529   3.576   2.434
 5201SOL    HW115935   3.488   3.553   2.346
 5201SOL    HW215936   3.511   3.502   2.499
 5202SOL     OW15937   2.460   2.591   2.132
 5202SOL    HW115938   2.484   2.660   2.064
 5202SOL    HW215939   2.382   2.624   2.186
 5203SOL     OW15940   3.143   2.207   2.806
 5203SOL    HW115941   3.057   2.157   2.793
 5203SOL    HW215942   3.205   2.153   2.862
 5204SOL     OW15943   3.438   3.524   2.169
 5204SOL    HW115944   3.527   3.570   2.172
 5204SOL    HW215945   3.417   3.500   2.074
 5205SOL     OW15946   2.669   2.467   3.327
 5205SOL    HW115947   2.622   2.464   3.416
 5205SOL    HW215948   2.618   2.412   3.261
 5206SOL     OW15949   3.256   2.331   3.536
 5206SOL    HW115950   3.236   2.374   3.624
 5206SOL    HW215951   3.334   2.269   3.545
 5207SOL     OW15952   2.835   2.752   3.434
 5207SOL    HW115953   2.881   2.668   3.405
 5207SOL    HW215954   2.779   2.786   3.359
 5208SOL     OW15955   2.853   2.272   3.104
 5208SOL    HW115956   2.776   2.306   3.158
 5208SOL    HW215957   2.819   2.221   3.025
 5209SOL     OW15958   2.903   2.563   2.291
 5209SOL    HW115959   2.929   2.559   2.387
 5209SOL    HW215960   2.818   2.512   2.277
 5210SOL     OW15961   1.938   2.673   2.651
 5210SOL    HW115962   2.037   2.661   2.660
 5210SOL    HW215963   1.914   2.768   2.672
 5211SOL     OW15964   1.992   3.683   3.433
 5211SOL    HW115965   1.982   3.668   3.532
 5211SOL    HW215966   1.906   3.719   3.397
 5212SOL     OW15967   2.727   2.210   2.057
 5212SOL    HW115968   2.786   2.273   2.008
 5212SOL    HW215969   2.746   2.116   2.028
 5213SOL     OW15970   3.581   2.447   3.693
 5213SOL    HW115971   3.555   2.536   3.657
 5213SOL    HW215972   3.579   2.379   3.620
 5214SOL     OW15973   3.224   3.006   2.407
 5214SOL    HW115974   3.307   2.977   2.359
 5214SOL    HW215975   3.175   3.073   2.351
 5215SOL     OW15976   2.412   2.058   2.747
 5215SOL    HW115977   2.407   2.053   2.847
 5215SOL    HW215978   2.414   2.154   2.718
 5216SOL     OW15979   2.870   3.318   2.339
 5216SOL    HW115980   2.824   3.390   2.287
 5216SOL    HW215981   2.866   3.338   2.437
 5217SOL     OW15982   2.213   3.663   2.715
 5217SOL    HW115983   2.263   3.577   2.721
 5217SOL    HW215984   2.278   3.740   2.712
 5218SOL     OW15985   3.657   2.928   2.735
 5218SOL    HW115986   3.595   2.913   2.659
 5218SOL    HW215987   3.605   2.939   2.820
 5219SOL     OW15988   3.089   3.412   3.368
 5219SOL    HW115989   3.095   3.335   3.432
 5219SOL    HW215990   3.037   3.386   3.288
 5220SOL     OW15991   2.183   2.805   2.104
 5220SOL    HW115992   2.265   2.844   2.062
 5220SOL    HW215993   2.156   2.723   2.055
 5221SOL     OW15994   3.320   2.597   2.590
 5221SOL    HW115995   3.315   2.532   2.665
 5221SOL    HW215996   3.400   2.656   2.603
 5222SOL     OW15997   2.323   3.128   3.589
 5222SOL    HW115998   2.273   3.129   3.503
 5222SOL    HW215999   2.260   3.110   3.665
 5223SOL     OW16000   2.973   3.638   2.099
 5223SOL    HW116001   2.913   3.576   2.149
 5223SOL    HW216002   3.004   3.594   2.014
 5224SOL     OW16003   3.494   3.239   1.943
 5224SOL    HW116004   3.462   3.333   1.933
 5224SOL    HW216005   3.418   3.176   1.931
 5225SOL     OW16006   2.326   3.605   2.185
 5225SOL    HW116007   2.359   3.644   2.271
 5225SOL    HW216008   2.402   3.598   2.120
 5226SOL     OW16009   3.262   1.969   2.288
 5226SOL    HW116010   3.238   1.932   2.198
 5226SOL    HW216011   3.361   1.985   2.292
 5227SOL     OW16012   2.111   3.647   3.103
 5227SOL    HW116013   2.168   3.582   3.153
 5227SOL    HW216014   2.095   3.614   3.010
 5228SOL     OW16015   2.802   3.560   2.766
 5228SOL    HW116016   2.882   3.503   2.787
 5228SOL    HW216017   2.753   3.520   2.689
 5229SOL     OW16018   2.244   2.562   2.342
 5229SOL    HW116019   2.289   2.472   2.339
 5229SOL    HW216020   2.150   2.551   2.375
 5230SOL     OW16021   3.409   2.084   3.591
 5230SOL    HW116022   3.404   2.121   3.683
 5230SOL    HW216023   3.337   2.015   3.579
 5231SOL     OW16024   2.476   1.984   1.979
 5231SOL    HW116025   2.574   1.962   1.986
 5231SOL    HW216026   2.445   1.967   1.886
 5232SOL     OW16027   2.643   2.126   3.611
 5232SOL    HW116028   2.710   2.065   3.654
 5232SOL    HW216029   2.570   2.145   3.676
 5233SOL     OW16030   2.750   3.376   3.057
 5233SOL    HW116031   2.727   3.351   2.963
 5233SOL    HW216032   2.811   3.307   3.096
 5234SOL     OW16033   3.213   2.452   3.295
 5234SOL    HW116034   3.241   2.409   3.380
 5234SOL    HW216035   3.238   2.548   3.296
 5235SOL     OW16036   2.665   3.264   2.786
 5235SOL    HW116037   2.755   3.278   2.744
 5235SOL    HW216038   2.594   3.266   2.715
 5236SOL     OW16039   2.784   2.365   2.761
 5236SOL    HW116040   2.759   2.356   2.665
 5236SOL    HW216041   2.832   2.283   2.792
 5237SOL     OW16042   2.401   1.926   2.374
 5237SOL    HW116043   2.320   1.927   2.432
 5237SOL    HW216044   2.404   2.009   2.319
 5238SOL     OW16045   3.296   3.050   1.903
 5238SOL    HW116046   3.328   2.974   1.960
 5238SOL    HW216047   3.204   3.077   1.933
 5239SOL     OW16048   2.797   2.098   2.342
 5239SOL    HW116049   2.749   2.139   2.264
 5239SOL    HW216050   2.896   2.096   2.323
 5240SOL     OW16051   2.938   2.545   3.326
 5240SOL    HW116052   2.858   2.484   3.329
 5240SOL    HW216053   3.019   2.492   3.302
 5241SOL     OW16054   3.089   3.432   2.655
 5241SOL    HW116055   3.110   3.506   2.590
 5241SOL    HW216056   3.157   3.432   2.728
 5242SOL     OW16057   2.321   3.014   2.603
 5242SOL    HW116058   2.250   2.987   2.668
 5242SOL    HW216059   2.295   2.986   2.510
 5243SOL     OW16060   3.133   3.659   2.453
 5243SOL    HW116061   3.177   3.723   2.389
 5243SOL    HW216062   3.083   3.711   2.523
 5244SOL     OW16063   2.894   2.411   1.878
 5244SOL    HW116064   2.853   2.493   1.839
 5244SOL    HW216065   2.958   2.437   1.951
 5245SOL     OW16066   1.940   2.418   3.248
 5245SOL    HW116067   2.032   2.417   3.207
 5245SOL    HW216068   1.934   2.492   3.315
 5246SOL     OW16069   2.423   2.084   3.009
 5246SOL    HW116070   2.461   2.000   3.046
 5246SOL    HW216071   2.335   2.103   3.053
 5247SOL     OW16072   2.728   2.316   2.504
 5247SOL    HW116073   2.696   2.388   2.442
 5247SOL    HW216074   2.752   2.235   2.451
 5248SOL     OW16075   2.879   1.901   2.615
 5248SOL    HW116076   2.807   1.906   2.546
 5248SOL    HW216077   2.855   1.832   2.684
 5249SOL     OW16078   3.291   3.035   2.729
 5249SOL    HW116079   3.236   2.951   2.722
 5249SOL    HW216080   3.317   3.064   2.637
 5250SOL     OW16081   3.328   2.452   2.854
 5250SOL    HW116082   3.298   2.357   2.861
 5250SOL    HW216083   3.401   2.468   2.920
 5251SOL     OW16084   3.719   2.695   2.239
 5251SOL    HW116085   3.761   2.631   2.303
 5251SOL    HW216086   3.681   2.644   2.161
 5252SOL     OW16087   2.350   3.247   2.036
 5252SOL    HW116088   2.263   3.232   2.083
 5252SOL    HW216089   2.333   3.273   1.941
 5253SOL     OW16090   3.526   3.142   2.519
 5253SOL    HW116091   3.625   3.150   2.533
 5253SOL    HW216092   3.481   3.226   2.550
 5254SOL     OW16093   3.252   2.437   1.940
 5254SOL    HW116094   3.198   2.416   2.021
 5254SOL    HW216095   3.343   2.396   1.949
 5255SOL     OW16096   2.389   2.118   2.190
 5255SOL    HW116097   2.416   2.059   2.115
 5255SOL    HW216098   2.389   2.213   2.159
 5256SOL     OW16099   3.616   3.085   3.450
 5256SOL    HW116100   3.707   3.046   3.437
 5256SOL    HW216101   3.624   3.181   3.474
 5257SOL     OW16102   2.926   3.209   3.202
 5257SOL    HW116103   2.846   3.186   3.257
 5257SOL    HW216104   3.009   3.183   3.251
 5258SOL     OW16105   3.454   3.491   3.487
 5258SOL    HW116106   3.481   3.525   3.397
 5258SOL    HW216107   3.533   3.453   3.533
 5259SOL     OW16108   2.973   3.057   2.962
 5259SOL    HW116109   2.933   3.101   3.043
 5259SOL    HW216110   2.932   3.094   2.879
 5260SOL     OW16111   3.500   2.961   2.941
 5260SOL    HW116112   3.505   3.042   3.000
 5260SOL    HW216113   3.414   2.963   2.890
 5261SOL     OW16114   2.777   1.951   3.264
 5261SOL    HW116115   2.802   1.931   3.169
 5261SOL    HW216116   2.849   2.007   3.306
 5262SOL     OW16117   2.842   2.978   3.581
 5262SOL    HW116118   2.743   2.984   3.591
 5262SOL    HW216119   2.865   2.898   3.525
 5263SOL     OW16120   2.567   2.912   2.230
 5263SOL    HW116121   2.553   2.919   2.329
 5263SOL    HW216122   2.651   2.861   2.212
 5264SOL     OW16123   2.272   2.675   3.113
 5264SOL    HW116124   2.358   2.687   3.163
 5264SOL    HW216125   2.230   2.588   3.140
 5265SOL     OW16126   3.136   2.248   3.124
 5265SOL    HW116127   3.157   2.322   3.188
 5265SOL    HW216128   3.047   2.265   3.081
 5266SOL     OW16129   1.926   3.426   3.193
 5266SOL    HW116130   1.880   3.508   3.159
 5266SOL    HW216131   2.024   3.445   3.202
 5267SOL     OW16132   2.229   2.962   2.363
 5267SOL    HW116133   2.222   3.045   2.307
 5267SOL    HW216134   2.233   2.882   2.303
 5268SOL     OW16135   2.428   2.399   2.727
 5268SOL    HW116136   2.440   2.465   2.653
 5268SOL    HW216137   2.474   2.433   2.810
 5269SOL     OW16138   3.114   3.210   2.250
 5269SOL    HW116139   3.164   3.287   2.290
 5269SOL    HW216140   3.019   3.212   2.282
 5270SOL     OW16141   3.134   3.307   3.004
 5270SOL    HW116142   3.181   3.320   3.091
 5270SOL    HW216143   3.068   3.233   3.013
 5271SOL     OW16144   3.444   2.501   2.334
 5271SOL    HW116145   3.413   2.562   2.407
 5271SOL    HW216146   3.494   2.553   2.265
 5272SOL     OW16147   2.216   3.372   3.191
 5272SOL    HW116148   2.195   3.328   3.104
 5272SOL    HW216149   2.313   3.398   3.194
 5273SOL     OW16150   2.264   2.613   3.460
 5273SOL    HW116151   2.332   2.668   3.413
 5273SOL    HW216152   2.304   2.525   3.487
 5274SOL     OW16153   3.449   2.641   3.532
 5274SOL    HW116154   3.357   2.679   3.527
 5274SOL    HW216155   3.509   2.688   3.467
 5275SOL     OW16156   2.875   1.967   3.632
 5275SOL    HW116157   2.881   2.052   3.580
 5275SOL    HW216158   2.907   1.891   3.575
 5276SOL     OW16159   2.366   1.912   3.602
 5276SOL    HW116160   2.324   1.855   3.532
 5276SOL    HW216161   2.300   1.981   3.634
 5277SOL     OW16162   2.435   2.732   2.891
 5277SOL    HW116163   2.479   2.821   2.882
 5277SOL    HW216164   2.372   2.732   2.968
 5278SOL     OW16165   3.222   2.724   2.907
 5278SOL    HW116166   3.147   2.724   2.841
 5278SOL    HW216167   3.259   2.632   2.916
 5279SOL     OW16168   3.071   2.387   2.137
 5279SOL    HW116169   3.084   2.303   2.191
 5279SOL    HW216170   3.042   2.461   2.197
 5280SOL     OW16171   1.899   3.172   3.144
 5280SOL    HW116172   1.952   3.123   3.212
 5280SOL    HW216173   1.921   3.270   3.149
 5281SOL     OW16174   2.594   2.496   2.926
 5281SOL    HW116175   2.653   2.470   2.850
 5281SOL    HW216176   2.566   2.592   2.915
 5282SOL     OW16177   3.590   2.797   3.716
 5282SOL    HW116178   3.544   2.790   3.627
 5282SOL    HW216179   3.528   2.841   3.782
 5283SOL     OW16180   2.169   1.925   2.480
 5283SOL    HW116181   2.158   2.019   2.513
 5283SOL    HW216182   2.164   1.862   2.557
 5284SOL     OW16183   3.484   2.229   2.236
 5284SOL    HW116184   3.486   2.153   2.300
 5284SOL    HW216185   3.436   2.306   2.276
 5285SOL     OW16186   2.885   2.628   2.828
 5285SOL    HW116187   2.900   2.649   2.924
 5285SOL    HW216188   2.855   2.533   2.819
 5286SOL     OW16189   2.842   3.435   3.562
 5286SOL    HW116190   2.822   3.479   3.474
 5286SOL    HW216191   2.881   3.344   3.546
 5287SOL     OW16192   3.721   3.380   3.467
 5287SOL    HW116193   3.735   3.407   3.372
 5287SOL    HW216194   3.804   3.402   3.520
 5288SOL     OW16195   2.212   2.760   3.666
 5288SOL    HW116196   2.288   2.804   3.714
 5288SOL    HW216197   2.247   2.713   3.584
 5289SOL     OW16198   3.402   2.136   1.987
 5289SOL    HW116199   3.341   2.061   2.010
 5289SOL    HW216200   3.424   2.188   2.070
 5290SOL     OW16201   3.165   2.700   1.904
 5290SOL    HW116202   3.199   2.607   1.919
 5290SOL    HW216203   3.183   2.727   1.809
 5291SOL     OW16204   2.930   3.195   2.711
 5291SOL    HW116205   2.937   3.111   2.656
 5291SOL    HW216206   2.992   3.264   2.675
 5292SOL     OW16207   2.181   2.672   2.811
 5292SOL    HW116208   2.274   2.708   2.816
 5292SOL    HW216209   2.175   2.587   2.863
 5293SOL     OW16210   2.201   2.371   2.868
 5293SOL    HW116211   2.149   2.288   2.851
 5293SOL    HW216212   2.278   2.376   2.804
 5294SOL     OW16213   3.000   2.242   3.540
 5294SOL    HW116214   2.955   2.305   3.604
 5294SOL    HW216215   3.093   2.273   3.523
 5295SOL     OW16216   3.022   2.069   3.339
 5295SOL    HW116217   3.022   2.133   3.416
 5295SOL    HW216218   3.050   2.117   3.256
 5296SOL     OW16219   1.870   3.188   2.062
 5296SOL    HW116220   1.777   3.209   2.031
 5296SOL    HW216221   1.880   3.089   2.075
 5297SOL     OW16222   1.950   3.663   2.789
 5297SOL    HW116223   1.908   3.577   2.762
 5297SOL    HW216224   2.044   3.666   2.755
 5298SOL     OW16225   2.366   3.430   2.772
 5298SOL    HW116226   2.432   3.504   2.781
 5298SOL    HW216227   2.410   3.351   2.730
 5299SOL     OW16228   2.864   2.658   3.100
 5299SOL    HW116229   2.905   2.626   3.186
 5299SOL    HW216230   2.768   2.631   3.097
 5300SOL     OW16231   1.902   2.406   2.976
 5300SOL    HW116232   1.987   2.373   2.935
 5300SOL    HW216233   1.915   2.421   3.074
 5301SOL     OW16234   2.051   2.382   3.584
 5301SOL    HW116235   2.110   2.342   3.514
 5301SOL    HW216236   1.993   2.453   3.543
 5302SOL     OW16237   3.231   2.812   3.522
 5302SOL    HW116238   3.270   2.901   3.542
 5302SOL    HW216239   3.241   2.792   3.425
 5303SOL     OW16240   2.677   2.434   2.187
 5303SOL    HW116241   2.684   2.345   2.141
 5303SOL    HW216242   2.583   2.468   2.179
 5304SOL     OW16243   3.519   2.466   3.068
 5304SOL    HW116244   3.481   2.397   3.130
 5304SOL    HW216245   3.601   2.430   3.024
 5305SOL     OW16246   2.114   3.426   3.606
 5305SOL    HW116247   2.084   3.483   3.682
 5305SOL    HW216248   2.107   3.329   3.632
 5306SOL     OW16249   2.533   2.326   3.131
 5306SOL    HW116250   2.499   2.237   3.101
 5306SOL    HW216251   2.559   2.380   3.051
 5307SOL     OW16252   2.792   3.540   3.327
 5307SOL    HW116253   2.768   3.522   3.232
 5307SOL    HW216254   2.822   3.634   3.337
 5308SOL     OW16255   2.335   2.362   2.053
 5308SOL    HW116256   2.396   2.442   2.057
 5308SOL    HW216257   2.240   2.393   2.060
 5309SOL     OW16258   2.021   2.999   3.328
 5309SOL    HW116259   2.043   2.938   3.404
 5309SOL    HW216260   2.031   2.950   3.242
 5310SOL     OW16261   3.209   2.921   3.096
 5310SOL    HW116262   3.233   2.858   3.022
 5310SOL    HW216263   3.119   2.961   3.078
 5311SOL     OW16264   3.164   2.717   2.171
 5311SOL    HW116265   3.078   2.686   2.213
 5311SOL    HW216266   3.160   2.703   2.072
 5312SOL     OW16267   3.621   3.609   3.016
 5312SOL    HW116268   3.682   3.639   2.943
 5312SOL    HW216269   3.583   3.520   2.994
 5313SOL     OW16270   3.114   3.593   2.990
 5313SOL    HW116271   3.198   3.598   2.936
 5313SOL    HW216272   3.091   3.497   3.008
 5314SOL     OW16273   1.945   3.120   2.884
 5314SOL    HW116274   1.940   3.119   2.984
 5314SOL    HW216275   1.862   3.079   2.846
 5315SOL     OW16276   2.550   3.524   3.578
 5315SOL    HW116277   2.494   3.605   3.587
 5315SOL    HW216278   2.602   3.528   3.492
 5316SOL     OW16279   3.588   1.997   2.385
 5316SOL    HW116280   3.661   1.980   2.318
 5316SOL    HW216281   3.557   1.910   2.423
 5317SOL     OW16282   3.250   3.435   2.339
 5317SOL    HW116283   3.317   3.447   2.265
 5317SOL    HW216284   3.210   3.524   2.362
 5318SOL     OW16285   1.992   3.656   3.713
 5318SOL    HW116286   1.951   3.582   3.766
 5318SOL    HW216287   2.056   3.707   3.771
 5319SOL     OW16288   3.142   2.789   2.534
 5319SOL    HW116289   3.202   2.708   2.536
 5319SOL    HW216290   3.182   2.858   2.474
 5320SOL     OW16291   2.692   3.135   3.284
 5320SOL    HW116292   2.687   3.168   3.379
 5320SOL    HW216293   2.606   3.154   3.238
 5321SOL     OW16294   2.534   3.478   2.016
 5321SOL    HW116295   2.543   3.488   1.917
 5321SOL    HW216296   2.494   3.389   2.037
 5322SOL     OW16297   3.512   3.582   3.256
 5322SOL    HW116298   3.565   3.592   3.172
 5322SOL    HW216299   3.485   3.672   3.290
 5323SOL     OW16300   3.703   2.037   2.825
 5323SOL    HW116301   3.742   1.952   2.789
 5323SOL    HW216302   3.605   2.039   2.806
 5324SOL     OW16303   3.056   3.474   1.893
 5324SOL    HW116304   3.062   3.381   1.930
 5324SOL    HW216305   2.997   3.474   1.813
 5325SOL     OW16306   2.684   2.864   3.234
 5325SOL    HW116307   2.724   2.863   3.142
 5325SOL    HW216308   2.694   2.956   3.274
 5326SOL     OW16309   2.778   2.772   2.153
 5326SOL    HW116310   2.841   2.810   2.085
 5326SOL    HW216311   2.818   2.689   2.192
 5327SOL     OW16312   3.366   3.469   1.906
 5327SOL    HW116313   3.274   3.506   1.913
 5327SOL    HW216314   3.404   3.489   1.816
 5328SOL     OW16315   2.234   3.150   3.352
 5328SOL    HW116316   2.221   3.243   3.318
 5328SOL    HW216317   2.150   3.098   3.339
 5329SOL     OW16318   3.476   3.154   3.151
 5329SOL    HW116319   3.536   3.157   3.231
 5329SOL    HW216320   3.401   3.218   3.164
 5330SOL     OW16321   2.901   2.960   2.558
 5330SOL    HW116322   2.831   2.913   2.612
 5330SOL    HW216323   2.960   2.892   2.515
 5331SOL     OW16324   2.876   2.098   2.833
 5331SOL    HW116325   2.868   2.062   2.740
 5331SOL    HW216326   2.874   2.022   2.898
 5332SOL     OW16327   2.452   3.349   2.353
 5332SOL    HW116328   2.494   3.291   2.283
 5332SOL    HW216329   2.408   3.428   2.309
 5333SOL     OW16330   3.571   2.247   3.243
 5333SOL    HW116331   3.644   2.316   3.247
 5333SOL    HW216332   3.599   2.172   3.184
 5334SOL     OW16333   2.117   3.210   2.152
 5334SOL    HW116334   2.021   3.211   2.125
 5334SOL    HW216335   2.129   3.263   2.236
 5335SOL     OW16336   1.967   2.875   3.588
 5335SOL    HW116337   1.890   2.842   3.642
 5335SOL    HW216338   2.052   2.845   3.630
 5336SOL     OW16339   2.534   2.065   3.351
 5336SOL    HW116340   2.624   2.049   3.311
 5336SOL    HW216341   2.542   2.070   3.450
 5337SOL     OW16342   1.937   2.207   1.895
 5337SOL    HW116343   1.845   2.179   1.866
 5337SOL    HW216344   1.968   2.284   1.839
 5338SOL     OW16345   3.302   2.718   3.260
 5338SOL    HW116346   3.245   2.770   3.197
 5338SOL    HW216347   3.398   2.730   3.236
 5339SOL     OW16348   3.045   3.197   1.981
 5339SOL    HW116349   2.946   3.186   1.983
 5339SOL    HW216350   3.079   3.212   2.074
 5340SOL     OW16351   2.475   2.704   3.293
 5340SOL    HW116352   2.531   2.785   3.276
 5340SOL    HW216353   2.534   2.624   3.296
 5341SOL     OW16354   3.355   3.629   2.821
 5341SOL    HW116355   3.388   3.693   2.752
 5341SOL    HW216356   3.421   3.623   2.896
 5342SOL     OW16357   2.578   2.427   3.570
 5342SOL    HW116358   2.597   2.492   3.644
 5342SOL    HW216359   2.638   2.347   3.579
 5343SOL     OW16360   3.312   3.082   3.495
 5343SOL    HW116361   3.303   3.072   3.594
 5343SOL    HW216362   3.408   3.075   3.469
 5344SOL     OW16363   2.252   3.603   3.422
 5344SOL    HW116364   2.161   3.644   3.420
 5344SOL    HW216365   2.245   3.509   3.454
 5345SOL     OW16366   3.536   2.745   3.116
 5345SOL    HW116367   3.509   2.656   3.079
 5345SOL    HW216368   3.537   2.813   3.043
 5346SOL     OW16369   3.087   2.187   2.311
 5346SOL    HW116370   3.152   2.113   2.300
 5346SOL    HW216371   3.107   2.237   2.395
 5347SOL     OW16372   2.456   2.607   2.514
 5347SOL    HW116373   2.506   2.692   2.495
 5347SOL    HW216374   2.368   2.609   2.466
 5348SOL     OW16375   3.639   2.204   3.504
 5348SOL    HW116376   3.622   2.235   3.410
 5348SOL    HW216377   3.555   2.167   3.542
 5349SOL     OW16378   3.592   2.796   3.379
 5349SOL    HW116379   3.630   2.887   3.394
 5349SOL    HW216380   3.584   2.779   3.280
 5350SOL     OW16381   2.721   3.236   1.878
 5350SOL    HW116382   2.675   3.251   1.966
 5350SOL    HW216383   2.765   3.321   1.848
 5351SOL     OW16384   2.523   3.652   2.815
 5351SOL    HW116385   2.477   3.740   2.802
 5351SOL    HW216386   2.622   3.664   2.808
 5352SOL     OW16387   2.721   2.818   2.723
 5352SOL    HW116388   2.775   2.749   2.771
 5352SOL    HW216389   2.689   2.887   2.789
 5353SOL     OW16390   2.945   2.846   1.949
 5353SOL    HW116391   2.922   2.899   1.867
 5353SOL    HW216392   3.026   2.790   1.930
 5354SOL     OW16393   3.723   3.431   2.713
 5354SOL    HW116394   3.652   3.419   2.643
 5354SOL    HW216395   3.724   3.352   2.773
 5355SOL     OW16396   2.083   3.176   3.706
 5355SOL    HW116397   2.018   3.103   3.685
 5355SOL    HW216398   2.087   3.190   3.804
 5356SOL     OW16399   1.941   3.102   2.515
 5356SOL    HW116400   1.940   3.055   2.603
 5356SOL    HW216401   2.023   3.074   2.464
 5357SOL     OW16402   2.534   3.253   3.486
 5357SOL    HW116403   2.456   3.203   3.524
 5357SOL    HW216404   2.531   3.348   3.517
 5358SOL     OW16405   3.686   2.054   3.089
 5358SOL    HW116406   3.682   1.964   3.133
 5358SOL    HW216407   3.689   2.043   2.990
 5359SOL     OW16408   2.290   2.286   2.382
 5359SOL    HW116409   2.320   2.214   2.320
 5359SOL    HW216410   2.251   2.246   2.465
 5360SOL     OW16411   3.567   3.349   2.966
 5360SOL    HW116412   3.474   3.324   2.939
 5360SOL    HW216413   3.593   3.299   3.048
 5361SOL     OW16414   2.179   2.409   3.142
 5361SOL    HW116415   2.217   2.350   3.214
 5361SOL    HW216416   2.219   2.383   3.054
 5362SOL     OW16417   2.674   3.448   2.549
 5362SOL    HW116418   2.706   3.458   2.455
 5362SOL    HW216419   2.595   3.386   2.551
 5363SOL     OW16420   3.286   2.076   2.974
 5363SOL    HW116421   3.338   2.011   3.029
 5363SOL    HW216422   3.237   2.139   3.035
 5364SOL     OW16423   2.863   1.896   3.016
 5364SOL    HW116424   2.800   1.824   2.985
 5364SOL    HW216425   2.956   1.860   3.016
 5365SOL     OW16426   2.632   3.192   2.163
 5365SOL    HW116427   2.586   3.105   2.180
 5365SOL    HW216428   2.723   3.189   2.204
 5366SOL     OW16429   2.480   3.429   3.146
 5366SOL    HW116430   2.475   3.511   3.203
 5366SOL    HW216431   2.569   3.426   3.101
 5367SOL     OW16432   3.214   1.914   2.030
 5367SOL    HW116433   3.249   1.873   1.946
 5367SOL    HW216434   3.124   1.876   2.050
 5368SOL     OW16435   3.162   2.315   2.553
 5368SOL    HW116436   3.103   2.395   2.557
 5368SOL    HW216437   3.177   2.280   2.646
 5369SOL     OW16438   3.455   2.083   2.744
 5369SOL    HW116439   3.371   2.082   2.798
 5369SOL    HW216440   3.457   2.166   2.688
 5370SOL     OW16441   1.901   2.939   2.162
 5370SOL    HW116442   2.000   2.928   2.153
 5370SOL    HW216443   1.861   2.853   2.194
 5371SOL     OW16444   2.737   3.508   2.199
 5371SOL    HW116445   2.660   3.473   2.145
 5371SOL    HW216446   2.705   3.579   2.261
 5372SOL     OW16447   2.092   2.490   3.837
 5372SOL    HW116448   1.999   2.488   3.874
 5372SOL    HW216449   2.093   2.451   3.745
 5373SOL     OW16450   1.881   2.230   4.371
 5373SOL    HW116451   1.799   2.273   4.410
 5373SOL    HW216452   1.853   2.157   4.308
 5374SOL     OW16453   2.431   3.137   4.889
 5374SOL    HW116454   2.338   3.130   4.852
 5374SOL    HW216455   2.442   3.226   4.933
 5375SOL     OW16456   3.417   3.373   4.427
 5375SOL    HW116457   3.360   3.357   4.508
 5375SOL    HW216458   3.358   3.383   4.347
 5376SOL     OW16459   2.997   2.565   4.441
 5376SOL    HW116460   3.054   2.643   4.416
 5376SOL    HW216461   2.937   2.591   4.517
 5377SOL     OW16462   3.617   2.469   3.955
 5377SOL    HW116463   3.605   2.456   3.856
 5377SOL    HW216464   3.587   2.388   4.004
 5378SOL     OW16465   2.630   3.006   4.747
 5378SOL    HW116466   2.552   3.023   4.807
 5378SOL    HW216467   2.664   3.093   4.711
 5379SOL     OW16468   2.712   2.660   5.547
 5379SOL    HW116469   2.708   2.736   5.612
 5379SOL    HW216470   2.734   2.696   5.456
 5380SOL     OW16471   2.547   2.874   4.389
 5380SOL    HW116472   2.616   2.858   4.459
 5380SOL    HW216473   2.474   2.931   4.427
 5381SOL     OW16474   2.548   3.023   5.527
 5381SOL    HW116475   2.608   3.102   5.541
 5381SOL    HW216476   2.462   3.054   5.486
 5382SOL     OW16477   2.197   3.297   4.785
 5382SOL    HW116478   2.119   3.266   4.732
 5382SOL    HW216479   2.255   3.355   4.728
 5383SOL     OW16480   3.322   3.367   5.063
 5383SOL    HW116481   3.346   3.461   5.089
 5383SOL    HW216482   3.306   3.313   5.145
 5384SOL     OW16483   2.300   2.254   5.223
 5384SOL    HW116484   2.382   2.198   5.232
 5384SOL    HW216485   2.219   2.196   5.227
 5385SOL     OW16486   3.465   2.309   4.461
 5385SOL    HW116487   3.391   2.355   4.411
 5385SOL    HW216488   3.516   2.377   4.514
 5386SOL     OW16489   2.093   3.575   4.207
 5386SOL    HW116490   2.127   3.652   4.261
 5386SOL    HW216491   2.137   3.575   4.117
 5387SOL     OW16492   2.989   3.203   5.414
 5387SOL    HW116493   3.036   3.203   5.502
 5387SOL    HW216494   2.941   3.116   5.403
 5388SOL     OW16495   2.092   3.296   4.262
 5388SOL    HW116496   2.066   3.392   4.262
 5388SOL    HW216497   2.021   3.242   4.307
 5389SOL     OW16498   2.102   2.953   4.610
 5389SOL    HW116499   2.116   2.869   4.662
 5389SOL    HW216500   2.047   3.017   4.665
 5390SOL     OW16501   2.482   3.648   5.163
 5390SOL    HW116502   2.390   3.631   5.198
 5390SOL    HW216503   2.510   3.740   5.189
 5391SOL     OW16504   2.468   2.826   3.847
 5391SOL    HW116505   2.475   2.910   3.793
 5391SOL    HW216506   2.514   2.839   3.935
 5392SOL     OW16507   3.456   1.976   5.204
 5392SOL    HW116508   3.438   2.043   5.132
 5392SOL    HW216509   3.453   2.022   5.293
 5393SOL     OW16510   1.984   2.505   4.287
 5393SOL    HW116511   1.939   2.417   4.304
 5393SOL    HW216512   1.983   2.559   4.371
 5394SOL     OW16513   3.704   3.629   4.083
 5394SOL    HW116514   3.758   3.600   4.163
 5394SOL    HW216515   3.734   3.719   4.054
 5395SOL     OW16516   1.889   3.458   3.841
 5395SOL    HW116517   1.870   3.362   3.862
 5395SOL    HW216518   1.856   3.516   3.916
 5396SOL     OW16519   3.551   2.784   4.336
 5396SOL    HW116520   3.646   2.755   4.344
 5396SOL    HW216521   3.543   2.849   4.261
 5397SOL     OW16522   3.503   2.970   4.156
 5397SOL    HW116523   3.589   2.972   4.104
 5397SOL    HW216524   3.517   3.017   4.244
 5398SOL     OW16525   1.975   2.599   5.321
 5398SOL    HW116526   2.063   2.586   5.366
 5398SOL    HW216527   1.962   2.696   5.299
 5399SOL     OW16528   2.475   3.227   4.450
 5399SOL    HW116529   2.426   3.140   4.459
 5399SOL    HW216530   2.452   3.270   4.363
 5400SOL     OW16531   3.155   3.090   5.147
 5400SOL    HW116532   3.192   3.017   5.089
 5400SOL    HW216533   3.207   3.095   5.232
 5401SOL     OW16534   2.671   1.866   4.226
 5401SOL    HW116535   2.711   1.957   4.217
 5401SOL    HW216536   2.571   1.874   4.232
 5402SOL     OW16537   2.059   2.838   4.988
 5402SOL    HW116538   2.148   2.793   4.974
 5402SOL    HW216539   1.986   2.773   4.969
 5403SOL     OW16540   3.387   2.861   3.914
 5403SOL    HW116541   3.324   2.785   3.927
 5403SOL    HW216542   3.435   2.879   4.000
 5404SOL     OW16543   3.049   3.654   5.340
 5404SOL    HW116544   3.073   3.714   5.264
 5404SOL    HW216545   3.056   3.559   5.310
 5405SOL     OW16546   3.328   3.279   4.677
 5405SOL    HW116547   3.269   3.285   4.757
 5405SOL    HW216548   3.313   3.191   4.631
 5406SOL     OW16549   3.529   3.576   4.296
 5406SOL    HW116550   3.488   3.553   4.208
 5406SOL    HW216551   3.511   3.502   4.361
 5407SOL     OW16552   2.460   2.591   3.994
 5407SOL    HW116553   2.484   2.660   3.926
 5407SOL    HW216554   2.382   2.624   4.048
 5408SOL     OW16555   3.143   2.207   4.668
 5408SOL    HW116556   3.057   2.157   4.655
 5408SOL    HW216557   3.205   2.153   4.724
 5409SOL     OW16558   3.438   3.524   4.031
 5409SOL    HW116559   3.527   3.570   4.034
 5409SOL    HW216560   3.417   3.500   3.936
 5410SOL     OW16561   2.669   2.467   5.189
 5410SOL    HW116562   2.622   2.464   5.278
 5410SOL    HW216563   2.618   2.412   5.123
 5411SOL     OW16564   3.256   2.331   5.398
 5411SOL    HW116565   3.236   2.374   5.486
 5411SOL    HW216566   3.334   2.269   5.407
 5412SOL     OW16567   2.835   2.752   5.296
 5412SOL    HW116568   2.881   2.668   5.267
 5412SOL    HW216569   2.779   2.786   5.221
 5413SOL     OW16570   2.853   2.272   4.966
 5413SOL    HW116571   2.776   2.306   5.020
 5413SOL    HW216572   2.819   2.221   4.887
 5414SOL     OW16573   2.903   2.563   4.153
 5414SOL    HW116574   2.929   2.559   4.249
 5414SOL    HW216575   2.818   2.512   4.139
 5415SOL     OW16576   1.938   2.673   4.513
 5415SOL    HW116577   2.037   2.661   4.522
 5415SOL    HW216578   1.914   2.768   4.534
 5416SOL     OW16579   1.992   3.683   5.295
 5416SOL    HW116580   1.982   3.668   5.394
 5416SOL    HW216581   1.906   3.719   5.259
 5417SOL     OW16582   2.727   2.210   3.919
 5417SOL    HW116583   2.786   2.273   3.870
 5417SOL    HW216584   2.746   2.116   3.890
 5418SOL     OW16585   3.581   2.447   5.555
 5418SOL    HW116586   3.555   2.536   5.519
 5418SOL    HW216587   3.579   2.379   5.482
 5419SOL     OW16588   3.224   3.006   4.269
 5419SOL    HW116589   3.307   2.977   4.221
 5419SOL    HW216590   3.175   3.073   4.213
 5420SOL     OW16591   2.412   2.058   4.609
 5420SOL    HW116592   2.407   2.053   4.709
 5420SOL    HW216593   2.414   2.154   4.580
 5421SOL     OW16594   2.870   3.318   4.201
 5421SOL    HW116595   2.824   3.390   4.149
 5421SOL    HW216596   2.866   3.338   4.299
 5422SOL     OW16597   2.213   3.663   4.577
 5422SOL    HW116598   2.263   3.577   4.583
 5422SOL    HW216599   2.278   3.740   4.574
 5423SOL     OW16600   3.657   2.928   4.597
 5423SOL    HW116601   3.595   2.913   4.521
 5423SOL    HW216602   3.605   2.939   4.682
 5424SOL     OW16603   3.089   3.412   5.230
 5424SOL    HW116604   3.095   3.335   5.294
 5424SOL    HW216605   3.037   3.386   5.150
 5425SOL     OW16606   2.183   2.805   3.966
 5425SOL    HW116607   2.265   2.844   3.924
 5425SOL    HW216608   2.156   2.723   3.917
 5426SOL     OW16609   3.320   2.597   4.452
 5426SOL    HW116610   3.315   2.532   4.527
 5426SOL    HW216611   3.400   2.656   4.465
 5427SOL     OW16612   2.323   3.128   5.451
 5427SOL    HW116613   2.273   3.129   5.365
 5427SOL    HW216614   2.260   3.110   5.527
 5428SOL     OW16615   2.973   3.638   3.961
 5428SOL    HW116616   2.913   3.576   4.011
 5428SOL    HW216617   3.004   3.594   3.876
 5429SOL     OW16618   3.494   3.239   3.805
 5429SOL    HW116619   3.462   3.333   3.795
 5429SOL    HW216620   3.418   3.176   3.793
 5430SOL     OW16621   2.326   3.605   4.047
 5430SOL    HW116622   2.359   3.644   4.133
 5430SOL    HW216623   2.402   3.598   3.982
 5431SOL     OW16624   3.262   1.969   4.150
 5431SOL    HW116625   3.238   1.932   4.060
 5431SOL    HW216626   3.361   1.985   4.154
 5432SOL     OW16627   2.111   3.647   4.965
 5432SOL    HW116628   2.168   3.582   5.015
 5432SOL    HW216629   2.095   3.614   4.872
 5433SOL     OW16630   2.802   3.560   4.628
 5433SOL    HW116631   2.882   3.503   4.649
 5433SOL    HW216632   2.753   3.520   4.551
 5434SOL     OW16633   2.244   2.562   4.204
 5434SOL    HW116634   2.289   2.472   4.201
 5434SOL    HW216635   2.150   2.551   4.237
 5435SOL     OW16636   3.409   2.084   5.453
 5435SOL    HW116637   3.404   2.121   5.545
 5435SOL    HW216638   3.337   2.015   5.441
 5436SOL     OW16639   2.476   1.984   3.841
 5436SOL    HW116640   2.574   1.962   3.848
 5436SOL    HW216641   2.445   1.967   3.748
 5437SOL     OW16642   2.643   2.126   5.473
 5437SOL    HW116643   2.710   2.065   5.516
 5437SOL    HW216644   2.570   2.145   5.538
 5438SOL     OW16645   2.750   3.376   4.919
 5438SOL    HW116646   2.727   3.351   4.825
 5438SOL    HW216647   2.811   3.307   4.958
 5439SOL     OW16648   3.213   2.452   5.157
 5439SOL    HW116649   3.241   2.409   5.242
 5439SOL    HW216650   3.238   2.548   5.158
 5440SOL     OW16651   2.665   3.264   4.648
 5440SOL    HW116652   2.755   3.278   4.606
 5440SOL    HW216653   2.594   3.266   4.577
 5441SOL     OW16654   2.784   2.365   4.623
 5441SOL    HW116655   2.759   2.356   4.527
 5441SOL    HW216656   2.832   2.283   4.654
 5442SOL     OW16657   2.401   1.926   4.236
 5442SOL    HW116658   2.320   1.927   4.294
 5442SOL    HW216659   2.404   2.009   4.181
 5443SOL     OW16660   3.296   3.050   3.765
 5443SOL    HW116661   3.328   2.974   3.822
 5443SOL    HW216662   3.204   3.077   3.795
 5444SOL     OW16663   2.797   2.098   4.204
 5444SOL    HW116664   2.749   2.139   4.126
 5444SOL    HW216665   2.896   2.096   4.185
 5445SOL     OW16666   2.938   2.545   5.188
 5445SOL    HW116667   2.858   2.484   5.191
 5445SOL    HW216668   3.019   2.492   5.164
 5446SOL     OW16669   3.089   3.432   4.517
 5446SOL    HW116670   3.110   3.506   4.452
 5446SOL    HW216671   3.157   3.432   4.590
 5447SOL     OW16672   2.321   3.014   4.465
 5447SOL    HW116673   2.250   2.987   4.530
 5447SOL    HW216674   2.295   2.986   4.372
 5448SOL     OW16675   3.133   3.659   4.315
 5448SOL    HW116676   3.177   3.723   4.251
 5448SOL    HW216677   3.083   3.711   4.385
 5449SOL     OW16678   2.894   2.411   3.740
 5449SOL    HW116679   2.853   2.493   3.701
 5449SOL    HW216680   2.958   2.437   3.813
 5450SOL     OW16681   1.940   2.418   5.110
 5450SOL    HW116682   2.032   2.417   5.069
 5450SOL    HW216683   1.934   2.492   5.177
 5451SOL     OW16684   2.423   2.084   4.871
 5451SOL    HW116685   2.461   2.000   4.908
 5451SOL    HW216686   2.335   2.103   4.915
 5452SOL     OW16687   2.728   2.316   4.366
 5452SOL    HW116688   2.696   2.388   4.304
 5452SOL    HW216689   2.752   2.235   4.313
 5453SOL     OW16690   2.879   1.901   4.477
 5453SOL    HW116691   2.807   1.906   4.408
 5453SOL    HW216692   2.855   1.832   4.546
 5454SOL     OW16693   3.291   3.035   4.591
 5454SOL    HW116694   3.236   2.951   4.584
 5454SOL    HW216695   3.317   3.064   4.499
 5455SOL     OW16696   3.328   2.452   4.716
 5455SOL    HW116697   3.298   2.357   4.723
 5455SOL    HW216698   3.401   2.468   4.782
 5456SOL     OW16699   3.719   2.695   4.101
 5456SOL    HW116700   3.761   2.631   4.165
 5456SOL    HW216701   3.681   2.644   4.023
 5457SOL     OW16702   2.350   3.247   3.898
 5457SOL    HW116703   2.263   3.232   3.945
 5457SOL    HW216704   2.333   3.273   3.803
 5458SOL     OW16705   3.526   3.142   4.381
 5458SOL    HW116706   3.625   3.150   4.395
 5458SOL    HW216707   3.481   3.226   4.412
 5459SOL     OW16708   3.252   2.437   3.802
 5459SOL    HW116709   3.198   2.416   3.883
 5459SOL    HW216710   3.343   2.396   3.811
 5460SOL     OW16711   2.389   2.118   4.052
 5460SOL    HW116712   2.416   2.059   3.977
 5460SOL    HW216713   2.389   2.213   4.021
 5461SOL     OW16714   3.616   3.085   5.312
 5461SOL    HW116715   3.707   3.046   5.299
 5461SOL    HW216716   3.624   3.181   5.336
 5462SOL     OW16717   2.926   3.209   5.064
 5462SOL    HW116718   2.846   3.186   5.119
 5462SOL    HW216719   3.009   3.183   5.113
 5463SOL     OW16720   3.454   3.491   5.349
 5463SOL    HW116721   3.481   3.525   5.259
 5463SOL    HW216722   3.533   3.453   5.395
 5464SOL     OW16723   2.973   3.057   4.824
 5464SOL    HW116724   2.933   3.101   4.905
 5464SOL    HW216725   2.932   3.094   4.741
 5465SOL     OW16726   3.500   2.961   4.803
 5465SOL    HW116727   3.505   3.042   4.862
 5465SOL    HW216728   3.414   2.963   4.752
 5466SOL     OW16729   2.777   1.951   5.126
 5466SOL    HW116730   2.802   1.931   5.031
 5466SOL    HW216731   2.849   2.007   5.168
 5467SOL     OW16732   2.842   2.978   5.443
 5467SOL    HW116733   2.743   2.984   5.453
 5467SOL    HW216734   2.865   2.898   5.387
 5468SOL     OW16735   2.567   2.912   4.092
 5468SOL    HW116736   2.553   2.919   4.191
 5468SOL    HW216737   2.651   2.861   4.074
 5469SOL     OW16738   2.272   2.675   4.975
 5469SOL    HW116739   2.358   2.687   5.025
 5469SOL    HW216740   2.230   2.588   5.002
 5470SOL     OW16741   3.136   2.248   4.986
 5470SOL    HW116742   3.157   2.322   5.050
 5470SOL    HW216743   3.047   2.265   4.943
 5471SOL     OW16744   1.926   3.426   5.055
 5471SOL    HW116745   1.880   3.508   5.021
 5471SOL    HW216746   2.024   3.445   5.064
 5472SOL     OW16747   2.229   2.962   4.225
 5472SOL    HW116748   2.222   3.045   4.169
 5472SOL    HW216749   2.233   2.882   4.165
 5473SOL     OW16750   2.428   2.399   4.589
 5473SOL    HW116751   2.440   2.465   4.515
 5473SOL    HW216752   2.474   2.433   4.672
 5474SOL     OW16753   3.114   3.210   4.112
 5474SOL    HW116754   3.164   3.287   4.152
 5474SOL    HW216755   3.019   3.212   4.144
 5475SOL     OW16756   3.134   3.307   4.866
 5475SOL    HW116757   3.181   3.320   4.953
 5475SOL    HW216758   3.068   3.233   4.875
 5476SOL     OW16759   3.444   2.501   4.196
 5476SOL    HW116760   3.413   2.562   4.269
 5476SOL    HW216761   3.494   2.553   4.127
 5477SOL     OW16762   2.216   3.372   5.053
 5477SOL    HW116763   2.195   3.328   4.966
 5477SOL    HW216764   2.313   3.398   5.056
 5478SOL     OW16765   2.264   2.613   5.322
 5478SOL    HW116766   2.332   2.668   5.275
 5478SOL    HW216767   2.304   2.525   5.349
 5479SOL     OW16768   3.449   2.641   5.394
 5479SOL    HW116769   3.357   2.679   5.389
 5479SOL    HW216770   3.509   2.688   5.329
 5480SOL     OW16771   2.875   1.967   5.494
 5480SOL    HW116772   2.881   2.052   5.442
 5480SOL    HW216773   2.907   1.891   5.437
 5481SOL     OW16774   2.366   1.912   5.464
 5481SOL    HW116775   2.324   1.855   5.394
 5481SOL    HW216776   2.300   1.981   5.496
 5482SOL     OW16777   2.435   2.732   4.753
 5482SOL    HW116778   2.479   2.821   4.744
 5482SOL    HW216779   2.372   2.732   4.830
 5483SOL     OW16780   3.222   2.724   4.769
 5483SOL    HW116781   3.147   2.724   4.703
 5483SOL    HW216782   3.259   2.632   4.778
 5484SOL     OW16783   3.071   2.387   3.999
 5484SOL    HW116784   3.084   2.303   4.053
 5484SOL    HW216785   3.042   2.461   4.059
 5485SOL     OW16786   1.899   3.172   5.006
 5485SOL    HW116787   1.952   3.123   5.074
 5485SOL    HW216788   1.921   3.270   5.011
 5486SOL     OW16789   2.594   2.496   4.788
 5486SOL    HW116790   2.653   2.470   4.712
 5486SOL    HW216791   2.566   2.592   4.777
 5487SOL     OW16792   3.590   2.797   5.578
 5487SOL    HW116793   3.544   2.790   5.489
 5487SOL    HW216794   3.528   2.841   5.644
 5488SOL     OW16795   2.169   1.925   4.342
 5488SOL    HW116796   2.158   2.019   4.375
 5488SOL    HW216797   2.164   1.862   4.419
 5489SOL     OW16798   3.484   2.229   4.098
 5489SOL    HW116799   3.486   2.153   4.162
 5489SOL    HW216800   3.436   2.306   4.138
 5490SOL     OW16801   2.885   2.628   4.690
 5490SOL    HW116802   2.900   2.649   4.786
 5490SOL    HW216803   2.855   2.533   4.681
 5491SOL     OW16804   2.842   3.435   5.424
 5491SOL    HW116805   2.822   3.479   5.336
 5491SOL    HW216806   2.881   3.344   5.408
 5492SOL     OW16807   3.721   3.380   5.329
 5492SOL    HW116808   3.735   3.407   5.234
 5492SOL    HW216809   3.804   3.402   5.382
 5493SOL     OW16810   2.212   2.760   5.528
 5493SOL    HW116811   2.288   2.804   5.576
 5493SOL    HW216812   2.247   2.713   5.446
 5494SOL     OW16813   3.402   2.136   3.849
 5494SOL    HW116814   3.341   2.061   3.872
 5494SOL    HW216815   3.424   2.188   3.932
 5495SOL     OW16816   3.165   2.700   3.766
 5495SOL    HW116817   3.199   2.607   3.781
 5495SOL    HW216818   3.183   2.727   3.671
 5496SOL     OW16819   2.930   3.195   4.573
 5496SOL    HW116820   2.937   3.111   4.518
 5496SOL    HW216821   2.992   3.264   4.537
 5497SOL     OW16822   2.181   2.672   4.673
 5497SOL    HW116823   2.274   2.708   4.678
 5497SOL    HW216824   2.175   2.587   4.725
 5498SOL     OW16825   2.201   2.371   4.730
 5498SOL    HW116826   2.149   2.288   4.713
 5498SOL    HW216827   2.278   2.376   4.666
 5499SOL     OW16828   3.000   2.242   5.402
 5499SOL    HW116829   2.955   2.305   5.466
 5499SOL    HW216830   3.093   2.273   5.385
 5500SOL     OW16831   3.022   2.069   5.201
 5500SOL    HW116832   3.022   2.133   5.278
 5500SOL    HW216833   3.050   2.117   5.118
 5501SOL     OW16834   1.870   3.188   3.924
 5501SOL    HW116835   1.777   3.209   3.893
 5501SOL    HW216836   1.880   3.089   3.937
 5502SOL     OW16837   1.950   3.663   4.651
 5502SOL    HW116838   1.908   3.577   4.624
 5502SOL    HW216839   2.044   3.666   4.617
 5503SOL     OW16840   2.366   3.430   4.634
 5503SOL    HW116841   2.432   3.504   4.643
 5503SOL    HW216842   2.410   3.351   4.592
 5504SOL     OW16843   2.864   2.658   4.962
 5504SOL    HW116844   2.905   2.626   5.048
 5504SOL    HW216845   2.768   2.631   4.959
 5505SOL     OW16846   1.902   2.406   4.838
 5505SOL    HW116847   1.987   2.373   4.797
 5505SOL    HW216848   1.915   2.421   4.936
 5506SOL     OW16849   2.051   2.382   5.446
 5506SOL    HW116850   2.110   2.342   5.376
 5506SOL    HW216851   1.993   2.453   5.405
 5507SOL     OW16852   3.231   2.812   5.384
 5507SOL    HW116853   3.270   2.901   5.404
 5507SOL    HW216854   3.241   2.792   5.287
 5508SOL     OW16855   2.677   2.434   4.049
 5508SOL    HW116856   2.684   2.345   4.003
 5508SOL    HW216857   2.583   2.468   4.041
 5509SOL     OW16858   3.519   2.466   4.930
 5509SOL    HW116859   3.481   2.397   4.992
 5509SOL    HW216860   3.601   2.430   4.886
 5510SOL     OW16861   2.114   3.426   5.468
 5510SOL    HW116862   2.084   3.483   5.544
 5510SOL    HW216863   2.107   3.329   5.494
 5511SOL     OW16864   2.533   2.326   4.993
 5511SOL    HW116865   2.499   2.237   4.963
 5511SOL    HW216866   2.559   2.380   4.913
 5512SOL     OW16867   2.792   3.540   5.189
 5512SOL    HW116868   2.768   3.522   5.094
 5512SOL    HW216869   2.822   3.634   5.199
 5513SOL     OW16870   2.335   2.362   3.915
 5513SOL    HW116871   2.396   2.442   3.919
 5513SOL    HW216872   2.240   2.393   3.922
 5514SOL     OW16873   2.021   2.999   5.190
 5514SOL    HW116874   2.043   2.938   5.266
 5514SOL    HW216875   2.031   2.950   5.104
 5515SOL     OW16876   3.209   2.921   4.958
 5515SOL    HW116877   3.233   2.858   4.884
 5515SOL    HW216878   3.119   2.961   4.940
 5516SOL     OW16879   3.164   2.717   4.033
 5516SOL    HW116880   3.078   2.686   4.075
 5516SOL    HW216881   3.160   2.703   3.934
 5517SOL     OW16882   3.621   3.609   4.878
 5517SOL    HW116883   3.682   3.639   4.805
 5517SOL    HW216884   3.583   3.520   4.856
 5518SOL     OW16885   3.114   3.593   4.852
 5518SOL    HW116886   3.198   3.598   4.798
 5518SOL    HW216887   3.091   3.497   4.870
 5519SOL     OW16888   1.945   3.120   4.746
 5519SOL    HW116889   1.940   3.119   4.846
 5519SOL    HW216890   1.862   3.079   4.708
 5520SOL     OW16891   2.550   3.524   5.440
 5520SOL    HW116892   2.494   3.605   5.449
 5520SOL    HW216893   2.602   3.528   5.354
 5521SOL     OW16894   3.588   1.997   4.247
 5521SOL    HW116895   3.661   1.980   4.180
 5521SOL    HW216896   3.557   1.910   4.285
 5522SOL     OW16897   3.250   3.435   4.201
 5522SOL    HW116898   3.317   3.447   4.127
 5522SOL    HW216899   3.210   3.524   4.224
 5523SOL     OW16900   1.992   3.656   5.575
 5523SOL    HW116901   1.951   3.582   5.628
 5523SOL    HW216902   2.056   3.707   5.633
 5524SOL     OW16903   3.142   2.789   4.396
 5524SOL    HW116904   3.202   2.708   4.398
 5524SOL    HW216905   3.182   2.858   4.336
 5525SOL     OW16906   2.692   3.135   5.146
 5525SOL    HW116907   2.687   3.168   5.241
 5525SOL    HW216908   2.606   3.154   5.100
 5526SOL     OW16909   2.534   3.478   3.878
 5526SOL    HW116910   2.543   3.488   3.779
 5526SOL    HW216911   2.494   3.389   3.899
 5527SOL     OW16912   3.512   3.582   5.118
 5527SOL    HW116913   3.565   3.592   5.034
 5527SOL    HW216914   3.485   3.672   5.152
 5528SOL     OW16915   3.703   2.037   4.687
 5528SOL    HW116916   3.742   1.952   4.651
 5528SOL    HW216917   3.605   2.039   4.668
 5529SOL     OW16918   3.056   3.474   3.755
 5529SOL    HW116919   3.062   3.381   3.792
 5529SOL    HW216920   2.997   3.474   3.675
 5530SOL     OW16921   2.684   2.864   5.096
 5530SOL    HW116922   2.724   2.863   5.004
 5530SOL    HW216923   2.694   2.956   5.136
 5531SOL     OW16924   2.778   2.772   4.015
 5531SOL    HW116925   2.841   2.810   3.947
 5531SOL    HW216926   2.818   2.689   4.054
 5532SOL     OW16927   3.366   3.469   3.768
 5532SOL    HW116928   3.274   3.506   3.775
 5532SOL    HW216929   3.404   3.489   3.678
 5533SOL     OW16930   2.234   3.150   5.214
 5533SOL    HW116931   2.221   3.243   5.180
 5533SOL    HW216932   2.150   3.098   5.201
 5534SOL     OW16933   3.476   3.154   5.013
 5534SOL    HW116934   3.536   3.157   5.093
 5534SOL    HW216935   3.401   3.218   5.026
 5535SOL     OW16936   2.901   2.960   4.420
 5535SOL    HW116937   2.831   2.913   4.474
 5535SOL    HW216938   2.960   2.892   4.377
 5536SOL     OW16939   2.876   2.098   4.695
 5536SOL    HW116940   2.868   2.062   4.602
 5536SOL    HW216941   2.874   2.022   4.760
 5537SOL     OW16942   2.452   3.349   4.215
 5537SOL    HW116943   2.494   3.291   4.145
 5537SOL    HW216944   2.408   3.428   4.171
 5538SOL     OW16945   3.571   2.247   5.105
 5538SOL    HW116946   3.644   2.316   5.109
 5538SOL    HW216947   3.599   2.172   5.046
 5539SOL     OW16948   2.117   3.210   4.014
 5539SOL    HW116949   2.021   3.211   3.987
 5539SOL    HW216950   2.129   3.263   4.098
 5540SOL     OW16951   1.967   2.875   5.450
 5540SOL    HW116952   1.890   2.842   5.504
 5540SOL    HW216953   2.052   2.845   5.492
 5541SOL     OW16954   2.534   2.065   5.213
 5541SOL    HW116955   2.624   2.049   5.173
 5541SOL    HW216956   2.542   2.070   5.312
 5542SOL     OW16957   1.937   2.207   3.757
 5542SOL    HW116958   1.845   2.179   3.728
 5542SOL    HW216959   1.968   2.284   3.701
 5543SOL     OW16960   3.302   2.718   5.122
 5543SOL    HW116961   3.245   2.770   5.059
 5543SOL    HW216962   3.398   2.730   5.098
 5544SOL     OW16963   3.045   3.197   3.843
 5544SOL    HW116964   2.946   3.186   3.845
 5544SOL    HW216965   3.079   3.212   3.936
 5545SOL     OW16966   2.475   2.704   5.155
 5545SOL    HW116967   2.531   2.785   5.138
 5545SOL    HW216968   2.534   2.624   5.158
 5546SOL     OW16969   3.355   3.629   4.683
 5546SOL    HW116970   3.388   3.693   4.614
 5546SOL    HW216971   3.421   3.623   4.758
 5547SOL     OW16972   2.578   2.427   5.432
 5547SOL    HW116973   2.597   2.492   5.506
 5547SOL    HW216974   2.638   2.347   5.441
 5548SOL     OW16975   3.312   3.082   5.357
 5548SOL    HW116976   3.303   3.072   5.456
 5548SOL    HW216977   3.408   3.075   5.331
 5549SOL     OW16978   2.252   3.603   5.284
 5549SOL    HW116979   2.161   3.644   5.282
 5549SOL    HW216980   2.245   3.509   5.316
 5550SOL     OW16981   3.536   2.745   4.978
 5550SOL    HW116982   3.509   2.656   4.941
 5550SOL    HW216983   3.537   2.813   4.905
 5551SOL     OW16984   3.087   2.187   4.173
 5551SOL    HW116985   3.152   2.113   4.162
 5551SOL    HW216986   3.107   2.237   4.257
 5552SOL     OW16987   2.456   2.607   4.376
 5552SOL    HW116988   2.506   2.692   4.357
 5552SOL    HW216989   2.368   2.609   4.328
 5553SOL     OW16990   3.639   2.204   5.366
 5553SOL    HW116991   3.622   2.235   5.272
 5553SOL    HW216992   3.555   2.167   5.404
 5554SOL     OW16993   3.592   2.796   5.241
 5554SOL    HW116994   3.630   2.887   5.256
 5554SOL    HW216995   3.584   2.779   5.142
 5555SOL     OW16996   2.721   3.236   3.740
 5555SOL    HW116997   2.675   3.251   3.828
 5555SOL    HW216998   2.765   3.321   3.710
 5556SOL     OW16999   2.523   3.652   4.677
 5556SOL    HW117000   2.477   3.740   4.664
 5556SOL    HW217001   2.622   3.664   4.670
 5557SOL     OW17002   2.721   2.818   4.585
 5557SOL    HW117003   2.775   2.749   4.633
 5557SOL    HW217004   2.689   2.887   4.651
 5558SOL     OW17005   2.945   2.846   3.811
 5558SOL    HW117006   2.922   2.899   3.729
 5558SOL    HW217007   3.026   2.790   3.792
 5559SOL     OW17008   3.723   3.431   4.575
 5559SOL    HW117009   3.652   3.419   4.505
 5559SOL    HW217010   3.724   3.352   4.635
 5560SOL     OW17011   2.083   3.176   5.568
 5560SOL    HW117012   2.018   3.103   5.547
 5560SOL    HW217013   2.087   3.190   5.666
 5561SOL     OW17014   1.941   3.102   4.377
 5561SOL    HW117015   1.940   3.055   4.465
 5561SOL    HW217016   2.023   3.074   4.326
 5562SOL     OW17017   2.534   3.253   5.348
 5562SOL    HW117018   2.456   3.203   5.386
 5562SOL    HW217019   2.531   3.348   5.379
 5563SOL     OW17020   3.686   2.054   4.951
 5563SOL    HW117021   3.682   1.964   4.995
 5563SOL    HW217022   3.689   2.043   4.852
 5564SOL     OW17023   2.290   2.286   4.244
 5564SOL    HW117024   2.320   2.214   4.182
 5564SOL    HW217025   2.251   2.246   4.327
 5565SOL     OW17026   3.567   3.349   4.828
 5565SOL    HW117027   3.474   3.324   4.801
 5565SOL    HW217028   3.593   3.299   4.910
 5566SOL     OW17029   2.179   2.409   5.004
 5566SOL    HW117030   2.217   2.350   5.076
 5566SOL    HW217031   2.219   2.383   4.916
 5567SOL     OW17032   2.674   3.448   4.411
 5567SOL    HW117033   2.706   3.458   4.317
 5567SOL    HW217034   2.595   3.386   4.413
 5568SOL     OW17035   3.286   2.076   4.836
 5568SOL    HW117036   3.338   2.011   4.891
 5568SOL    HW217037   3.237   2.139   4.897
 5569SOL     OW17038   2.863   1.896   4.878
 5569SOL    HW117039   2.800   1.824   4.847
 5569SOL    HW217040   2.956   1.860   4.878
 5570SOL     OW17041   2.632   3.192   4.025
 5570SOL    HW117042   2.586   3.105   4.042
 5570SOL    HW217043   2.723   3.189   4.066
 5571SOL     OW17044   2.480   3.429   5.008
 5571SOL    HW117045   2.475   3.511   5.065
 5571SOL    HW217046   2.569   3.426   4.963
 5572SOL     OW17047   3.214   1.914   3.892
 5572SOL    HW117048   3.249   1.873   3.808
 5572SOL    HW217049   3.124   1.876   3.912
 5573SOL     OW17050   3.162   2.315   4.415
 5573SOL    HW117051   3.103   2.395   4.419
 5573SOL    HW217052   3.177   2.280   4.508
 5574SOL     OW17053   3.455   2.083   4.606
 5574SOL    HW117054   3.371   2.082   4.660
 5574SOL    HW217055   3.457   2.166   4.550
 5575SOL     OW17056   1.901   2.939   4.024
 5575SOL    HW117057   2.000   2.928   4.015
 5575SOL    HW217058   1.861   2.853   4.056
 5576SOL     OW17059   2.737   3.508   4.061
 5576SOL    HW117060   2.660   3.473   4.007
 5576SOL    HW217061   2.705   3.579   4.123
 5577SOL     OW17062   2.092   2.490   5.699
 5577SOL    HW117063   1.999   2.488   5.736
 5577SOL    HW217064   2.093   2.451   5.607
 5578SOL     OW17065   1.881   2.230   6.233
 5578SOL    HW117066   1.799   2.273   6.272
 5578SOL    HW217067   1.853   2.157   6.170
 5579SOL     OW17068   2.431   3.137   6.751
 5579SOL    HW117069   2.338   3.130   6.714
 5579SOL    HW217070   2.442   3.226   6.795
 5580SOL     OW17071   3.417   3.373   6.289
 5580SOL    HW117072   3.360   3.357   6.370
 5580SOL    HW217073   3.358   3.383   6.209
 5581SOL     OW17074   2.997   2.565   6.303
 5581SOL    HW117075   3.054   2.643   6.278
 5581SOL    HW217076   2.937   2.591   6.379
 5582SOL     OW17077   3.617   2.469   5.817
 5582SOL    HW117078   3.605   2.456   5.718
 5582SOL    HW217079   3.587   2.388   5.866
 5583SOL     OW17080   2.630   3.006   6.609
 5583SOL    HW117081   2.552   3.023   6.669
 5583SOL    HW217082   2.664   3.093   6.573
 5584SOL     OW17083   2.712   2.660   7.409
 5584SOL    HW117084   2.708   2.736   7.474
 5584SOL    HW217085   2.734   2.696   7.318
 5585SOL     OW17086   2.547   2.874   6.251
 5585SOL    HW117087   2.616   2.858   6.321
 5585SOL    HW217088   2.474   2.931   6.289
 5586SOL     OW17089   2.548   3.023   7.389
 5586SOL    HW117090   2.608   3.102   7.403
 5586SOL    HW217091   2.462   3.054   7.348
 5587SOL     OW17092   2.197   3.297   6.647
 5587SOL    HW117093   2.119   3.266   6.594
 5587SOL    HW217094   2.255   3.355   6.590
 5588SOL     OW17095   3.322   3.367   6.925
 5588SOL    HW117096   3.346   3.461   6.951
 5588SOL    HW217097   3.306   3.313   7.007
 5589SOL     OW17098   3.465   2.309   6.323
 5589SOL    HW117099   3.391   2.355   6.273
 5589SOL    HW217100   3.516   2.377   6.376
 5590SOL     OW17101   2.093   3.575   6.069
 5590SOL    HW117102   2.127   3.652   6.123
 5590SOL    HW217103   2.137   3.575   5.979
 5591SOL     OW17104   2.989   3.203   7.276
 5591SOL    HW117105   3.036   3.203   7.364
 5591SOL    HW217106   2.941   3.116   7.265
 5592SOL     OW17107   2.092   3.296   6.124
 5592SOL    HW117108   2.066   3.392   6.124
 5592SOL    HW217109   2.021   3.242   6.169
 5593SOL     OW17110   2.102   2.953   6.472
 5593SOL    HW117111   2.116   2.869   6.524
 5593SOL    HW217112   2.047   3.017   6.527
 5594SOL     OW17113   2.482   3.648   7.025
 5594SOL    HW117114   2.390   3.631   7.060
 5594SOL    HW217115   2.510   3.740   7.051
 5595SOL     OW17116   2.468   2.826   5.709
 5595SOL    HW117117   2.475   2.910   5.655
 5595SOL    HW217118   2.514   2.839   5.797
 5596SOL     OW17119   3.456   1.976   7.066
 5596SOL    HW117120   3.438   2.043   6.994
 5596SOL    HW217121   3.453   2.022   7.155
 5597SOL     OW17122   1.984   2.505   6.149
 5597SOL    HW117123   1.939   2.417   6.166
 5597SOL    HW217124   1.983   2.559   6.233
 5598SOL     OW17125   3.704   3.629   5.945
 5598SOL    HW117126   3.758   3.600   6.025
 5598SOL    HW217127   3.734   3.719   5.916
 5599SOL     OW17128   1.889   3.458   5.703
 5599SOL    HW117129   1.870   3.362   5.724
 5599SOL    HW217130   1.856   3.516   5.778
 5600SOL     OW17131   3.551   2.784   6.198
 5600SOL    HW117132   3.646   2.755   6.206
 5600SOL    HW217133   3.543   2.849   6.123
 5601SOL     OW17134   3.503   2.970   6.018
 5601SOL    HW117135   3.589   2.972   5.966
 5601SOL    HW217136   3.517   3.017   6.106
 5602SOL     OW17137   2.475   3.227   6.312
 5602SOL    HW117138   2.426   3.140   6.321
 5602SOL    HW217139   2.452   3.270   6.225
 5603SOL     OW17140   3.155   3.090   7.009
 5603SOL    HW117141   3.192   3.017   6.951
 5603SOL    HW217142   3.207   3.095   7.094
 5604SOL     OW17143   2.671   1.866   6.088
 5604SOL    HW117144   2.711   1.957   6.079
 5604SOL    HW217145   2.571   1.874   6.094
 5605SOL     OW17146   2.059   2.838   6.850
 5605SOL    HW117147   2.148   2.793   6.836
 5605SOL    HW217148   1.986   2.773   6.831
 5606SOL     OW17149   3.387   2.861   5.776
 5606SOL    HW117150   3.324   2.785   5.789
 5606SOL    HW217151   3.435   2.879   5.862
 5607SOL     OW17152   3.049   3.654   7.202
 5607SOL    HW117153   3.073   3.714   7.126
 5607SOL    HW217154   3.056   3.559   7.172
 5608SOL     OW17155   3.328   3.279   6.539
 5608SOL    HW117156   3.269   3.285   6.619
 5608SOL    HW217157   3.313   3.191   6.493
 5609SOL     OW17158   3.529   3.576   6.158
 5609SOL    HW117159   3.488   3.553   6.070
 5609SOL    HW217160   3.511   3.502   6.223
 5610SOL     OW17161   2.460   2.591   5.856
 5610SOL    HW117162   2.484   2.660   5.788
 5610SOL    HW217163   2.382   2.624   5.910
 5611SOL     OW17164   3.143   2.207   6.530
 5611SOL    HW117165   3.057   2.157   6.517
 5611SOL    HW217166   3.205   2.153   6.586
 5612SOL     OW17167   3.438   3.524   5.893
 5612SOL    HW117168   3.527   3.570   5.896
 5612SOL    HW217169   3.417   3.500   5.798
 5613SOL     OW17170   2.669   2.467   7.051
 5613SOL    HW117171   2.622   2.464   7.140
 5613SOL    HW217172   2.618   2.412   6.985
 5614SOL     OW17173   3.256   2.331   7.260
 5614SOL    HW117174   3.236   2.374   7.348
 5614SOL    HW217175   3.334   2.269   7.269
 5615SOL     OW17176   2.835   2.752   7.158
 5615SOL    HW117177   2.881   2.668   7.129
 5615SOL    HW217178   2.779   2.786   7.083
 5616SOL     OW17179   2.853   2.272   6.828
 5616SOL    HW117180   2.776   2.306   6.882
 5616SOL    HW217181   2.819   2.221   6.749
 5617SOL     OW17182   2.903   2.563   6.015
 5617SOL    HW117183   2.929   2.559   6.111
 5617SOL    HW217184   2.818   2.512   6.001
 5618SOL     OW17185   1.938   2.673   6.375
 5618SOL    HW117186   2.037   2.661   6.384
 5618SOL    HW217187   1.914   2.768   6.396
 5619SOL     OW17188   1.992   3.683   7.157
 5619SOL    HW117189   1.982   3.668   7.256
 5619SOL    HW217190   1.906   3.719   7.121
 5620SOL     OW17191   2.727   2.210   5.781
 5620SOL    HW117192   2.786   2.273   5.732
 5620SOL    HW217193   2.746   2.116   5.752
 5621SOL     OW17194   3.581   2.447   7.417
 5621SOL    HW117195   3.555   2.536   7.381
 5621SOL    HW217196   3.579   2.379   7.344
 5622SOL     OW17197   3.224   3.006   6.131
 5622SOL    HW117198   3.307   2.977   6.083
 5622SOL    HW217199   3.175   3.073   6.075
 5623SOL     OW17200   2.412   2.058   6.471
 5623SOL    HW117201   2.407   2.053   6.571
 5623SOL    HW217202   2.414   2.154   6.442
 5624SOL     OW17203   2.870   3.318   6.063
 5624SOL    HW117204   2.824   3.390   6.011
 5624SOL    HW217205   2.866   3.338   6.161
 5625SOL     OW17206   2.213   3.663   6.439
 5625SOL    HW117207   2.263   3.577   6.445
 5625SOL    HW217208   2.278   3.740   6.436
 5626SOL     OW17209   3.657   2.928   6.459
 5626SOL    HW117210   3.595   2.913   6.383
 5626SOL    HW217211   3.605   2.939   6.544
 5627SOL     OW17212   3.089   3.412   7.092
 5627SOL    HW117213   3.095   3.335   7.156
 5627SOL    HW217214   3.037   3.386   7.012
 5628SOL     OW17215   2.183   2.805   5.828
 5628SOL    HW117216   2.265   2.844   5.786
 5628SOL    HW217217   2.156   2.723   5.779
 5629SOL     OW17218   3.320   2.597   6.314
 5629SOL    HW117219   3.315   2.532   6.389
 5629SOL    HW217220   3.400   2.656   6.327
 5630SOL     OW17221   2.323   3.128   7.313
 5630SOL    HW117222   2.273   3.129   7.227
 5630SOL    HW217223   2.260   3.110   7.389
 5631SOL     OW17224   2.973   3.638   5.823
 5631SOL    HW117225   2.913   3.576   5.873
 5631SOL    HW217226   3.004   3.594   5.738
 5632SOL     OW17227   3.494   3.239   5.667
 5632SOL    HW117228   3.462   3.333   5.657
 5632SOL    HW217229   3.418   3.176   5.655
 5633SOL     OW17230   2.326   3.605   5.909
 5633SOL    HW117231   2.359   3.644   5.995
 5633SOL    HW217232   2.402   3.598   5.844
 5634SOL     OW17233   3.262   1.969   6.012
 5634SOL    HW117234   3.238   1.932   5.922
 5634SOL    HW217235   3.361   1.985   6.016
 5635SOL     OW17236   2.111   3.647   6.827
 5635SOL    HW117237   2.168   3.582   6.877
 5635SOL    HW217238   2.095   3.614   6.734
 5636SOL     OW17239   2.802   3.560   6.490
 5636SOL    HW117240   2.882   3.503   6.511
 5636SOL    HW217241   2.753   3.520   6.413
 5637SOL     OW17242   2.244   2.562   6.066
 5637SOL    HW117243   2.289   2.472   6.063
 5637SOL    HW217244   2.150   2.551   6.099
 5638SOL     OW17245   3.409   2.084   7.315
 5638SOL    HW117246   3.404   2.121   7.407
 5638SOL    HW217247   3.337   2.015   7.303
 5639SOL     OW17248   2.476   1.984   5.703
 5639SOL    HW117249   2.574   1.962   5.710
 5639SOL    HW217250   2.445   1.967   5.610
 5640SOL     OW17251   2.643   2.126   7.335
 5640SOL    HW117252   2.710   2.065   7.378
 5640SOL    HW217253   2.570   2.145   7.400
 5641SOL     OW17254   2.750   3.376   6.781
 5641SOL    HW117255   2.727   3.351   6.687
 5641SOL    HW217256   2.811   3.307   6.820
 5642SOL     OW17257   3.213   2.452   7.019
 5642SOL    HW117258   3.241   2.409   7.104
 5642SOL    HW217259   3.238   2.548   7.020
 5643SOL     OW17260   2.665   3.264   6.510
 5643SOL    HW117261   2.755   3.278   6.468
 5643SOL    HW217262   2.594   3.266   6.439
 5644SOL     OW17263   2.784   2.365   6.485
 5644SOL    HW117264   2.759   2.356   6.389
 5644SOL    HW217265   2.832   2.283   6.516
 5645SOL     OW17266   2.401   1.926   6.098
 5645SOL    HW117267   2.320   1.927   6.156
 5645SOL    HW217268   2.404   2.009   6.043
 5646SOL     OW17269   3.296   3.050   5.627
 5646SOL    HW117270   3.328   2.974   5.684
 5646SOL    HW217271   3.204   3.077   5.657
 5647SOL     OW17272   2.797   2.098   6.066
 5647SOL    HW117273   2.749   2.139   5.988
 5647SOL    HW217274   2.896   2.096   6.047
 5648SOL     OW17275   2.938   2.545   7.050
 5648SOL    HW117276   2.858   2.484   7.053
 5648SOL    HW217277   3.019   2.492   7.026
 5649SOL     OW17278   3.089   3.432   6.379
 5649SOL    HW117279   3.110   3.506   6.314
 5649SOL    HW217280   3.157   3.432   6.452
 5650SOL     OW17281   2.321   3.014   6.327
 5650SOL    HW117282   2.250   2.987   6.392
 5650SOL    HW217283   2.295   2.986   6.234
 5651SOL     OW17284   3.133   3.659   6.177
 5651SOL    HW117285   3.177   3.723   6.113
 5651SOL    HW217286   3.083   3.711   6.247
 5652SOL     OW17287   2.894   2.411   5.602
 5652SOL    HW117288   2.853   2.493   5.563
 5652SOL    HW217289   2.958   2.437   5.675
 5653SOL     OW17290   2.728   2.316   6.228
 5653SOL    HW117291   2.696   2.388   6.166
 5653SOL    HW217292   2.752   2.235   6.175
 5654SOL     OW17293   2.879   1.901   6.339
 5654SOL    HW117294   2.807   1.906   6.270
 5654SOL    HW217295   2.855   1.832   6.408
 5655SOL     OW17296   3.291   3.035   6.453
 5655SOL    HW117297   3.236   2.951   6.446
 5655SOL    HW217298   3.317   3.064   6.361
 5656SOL     OW17299   3.328   2.452   6.578
 5656SOL    HW117300   3.298   2.357   6.585
 5656SOL    HW217301   3.401   2.468   6.644
 5657SOL     OW17302   3.719   2.695   5.963
 5657SOL    HW117303   3.761   2.631   6.027
 5657SOL    HW217304   3.681   2.644   5.885
 5658SOL     OW17305   2.350   3.247   5.760
 5658SOL    HW117306   2.263   3.232   5.807
 5658SOL    HW217307   2.333   3.273   5.665
 5659SOL     OW17308   3.526   3.142   6.243
 5659SOL    HW117309   3.625   3.150   6.257
 5659SOL    HW217310   3.481   3.226   6.274
 5660SOL     OW17311   3.252   2.437   5.664
 5660SOL    HW117312   3.198   2.416   5.745
 5660SOL    HW217313   3.343   2.396   5.673
 5661SOL     OW17314   2.389   2.118   5.914
 5661SOL    HW117315   2.416   2.059   5.839
 5661SOL    HW217316   2.389   2.213   5.883
 5662SOL     OW17317   3.616   3.085   7.174
 5662SOL    HW117318   3.707   3.046   7.161
 5662SOL    HW217319   3.624   3.181   7.198
 5663SOL     OW17320   2.926   3.209   6.926
 5663SOL    HW117321   2.846   3.186   6.981
 5663SOL    HW217322   3.009   3.183   6.975
 5664SOL     OW17323   3.454   3.491   7.211
 5664SOL    HW117324   3.481   3.525   7.121
 5664SOL    HW217325   3.533   3.453   7.257
 5665SOL     OW17326   2.973   3.057   6.686
 5665SOL    HW117327   2.933   3.101   6.767
 5665SOL    HW217328   2.932   3.094   6.603
 5666SOL     OW17329   3.500   2.961   6.665
 5666SOL    HW117330   3.505   3.042   6.724
 5666SOL    HW217331   3.414   2.963   6.614
 5667SOL     OW17332   2.777   1.951   6.988
 5667SOL    HW117333   2.802   1.931   6.893
 5667SOL    HW217334   2.849   2.007   7.030
 5668SOL     OW17335   2.842   2.978   7.305
 5668SOL    HW117336   2.743   2.984   7.315
 5668SOL    HW217337   2.865   2.898   7.249
 5669SOL     OW17338   2.567   2.912   5.954
 5669SOL    HW117339   2.553   2.919   6.053
 5669SOL    HW217340   2.651   2.861   5.936
 5670SOL     OW17341   3.136   2.248   6.848
 5670SOL    HW117342   3.157   2.322   6.912
 5670SOL    HW217343   3.047   2.265   6.805
 5671SOL     OW17344   1.926   3.426   6.917
 5671SOL    HW117345   1.880   3.508   6.883
 5671SOL    HW217346   2.024   3.445   6.926
 5672SOL     OW17347   2.229   2.962   6.087
 5672SOL    HW117348   2.222   3.045   6.031
 5672SOL    HW217349   2.233   2.882   6.027
 5673SOL     OW17350   2.428   2.399   6.451
 5673SOL    HW117351   2.440   2.465   6.377
 5673SOL    HW217352   2.474   2.433   6.534
 5674SOL     OW17353   3.114   3.210   5.974
 5674SOL    HW117354   3.164   3.287   6.014
 5674SOL    HW217355   3.019   3.212   6.006
 5675SOL     OW17356   3.134   3.307   6.728
 5675SOL    HW117357   3.181   3.320   6.815
 5675SOL    HW217358   3.068   3.233   6.737
 5676SOL     OW17359   3.444   2.501   6.058
 5676SOL    HW117360   3.413   2.562   6.131
 5676SOL    HW217361   3.494   2.553   5.989
 5677SOL     OW17362   2.216   3.372   6.915
 5677SOL    HW117363   2.195   3.328   6.828
 5677SOL    HW217364   2.313   3.398   6.918
 5678SOL     OW17365   3.449   2.641   7.256
 5678SOL    HW117366   3.357   2.679   7.251
 5678SOL    HW217367   3.509   2.688   7.191
 5679SOL     OW17368   2.875   1.967   7.356
 5679SOL    HW117369   2.881   2.052   7.304
 5679SOL    HW217370   2.907   1.891   7.299
 5680SOL     OW17371   2.435   2.732   6.615
 5680SOL    HW117372   2.479   2.821   6.606
 5680SOL    HW217373   2.372   2.732   6.692
 5681SOL     OW17374   3.222   2.724   6.631
 5681SOL    HW117375   3.147   2.724   6.565
 5681SOL    HW217376   3.259   2.632   6.640
 5682SOL     OW17377   3.071   2.387   5.861
 5682SOL    HW117378   3.084   2.303   5.915
 5682SOL    HW217379   3.042   2.461   5.921
 5683SOL     OW17380   2.169   2.075   6.817
 5683SOL    HW117381   2.146   2.112   6.907
 5683SOL    HW217382   2.139   1.980   6.811
 5684SOL     OW17383   1.899   3.172   6.868
 5684SOL    HW117384   1.952   3.123   6.936
 5684SOL    HW217385   1.921   3.270   6.873
 5685SOL     OW17386   2.594   2.496   6.650
 5685SOL    HW117387   2.653   2.470   6.574
 5685SOL    HW217388   2.566   2.592   6.639
 5686SOL     OW17389   3.590   2.797   7.440
 5686SOL    HW117390   3.544   2.790   7.351
 5686SOL    HW217391   3.528   2.841   7.506
 5687SOL     OW17392   3.484   2.229   5.960
 5687SOL    HW117393   3.486   2.153   6.024
 5687SOL    HW217394   3.436   2.306   6.000
 5688SOL     OW17395   2.885   2.628   6.552
 5688SOL    HW117396   2.900   2.649   6.648
 5688SOL    HW217397   2.855   2.533   6.543
 5689SOL     OW17398   2.842   3.435   7.286
 5689SOL    HW117399   2.822   3.479   7.198
 5689SOL    HW217400   2.881   3.344   7.270
 5690SOL     OW17401   3.721   3.380   7.191
 5690SOL    HW117402   3.735   3.407   7.096
 5690SOL    HW217403   3.804   3.402   7.244
 5691SOL     OW17404   2.212   2.760   7.390
 5691SOL    HW117405   2.288   2.804   7.438
 5691SOL    HW217406   2.247   2.713   7.308
 5692SOL     OW17407   3.402   2.136   5.711
 5692SOL    HW117408   3.341   2.061   5.734
 5692SOL    HW217409   3.424   2.188   5.794
 5693SOL     OW17410   3.165   2.700   5.628
 5693SOL    HW117411   3.199   2.607   5.643
 5693SOL    HW217412   3.183   2.727   5.533
 5694SOL     OW17413   2.930   3.195   6.435
 5694SOL    HW117414   2.937   3.111   6.380
 5694SOL    HW217415   2.992   3.264   6.399
 5695SOL     OW17416   2.181   2.672   6.535
 5695SOL    HW117417   2.274   2.708   6.540
 5695SOL    HW217418   2.175   2.587   6.587
 5696SOL     OW17419   2.201   2.371   6.592
 5696SOL    HW117420   2.149   2.288   6.575
 5696SOL    HW217421   2.278   2.376   6.528
 5697SOL     OW17422   3.000   2.242   7.264
 5697SOL    HW117423   2.955   2.305   7.328
 5697SOL    HW217424   3.093   2.273   7.247
 5698SOL     OW17425   3.022   2.069   7.063
 5698SOL    HW117426   3.022   2.133   7.140
 5698SOL    HW217427   3.050   2.117   6.980
 5699SOL     OW17428   1.870   3.188   5.786
 5699SOL    HW117429   1.777   3.209   5.755
 5699SOL    HW217430   1.880   3.089   5.799
 5700SOL     OW17431   1.950   3.663   6.513
 5700SOL    HW117432   1.908   3.577   6.486
 5700SOL    HW217433   2.044   3.666   6.479
 5701SOL     OW17434   2.366   3.430   6.496
 5701SOL    HW117435   2.432   3.504   6.505
 5701SOL    HW217436   2.410   3.351   6.454
 5702SOL     OW17437   2.864   2.658   6.824
 5702SOL    HW117438   2.905   2.626   6.910
 5702SOL    HW217439   2.768   2.631   6.821
 5703SOL     OW17440   3.231   2.812   7.246
 5703SOL    HW117441   3.270   2.901   7.266
 5703SOL    HW217442   3.241   2.792   7.149
 5704SOL     OW17443   2.677   2.434   5.911
 5704SOL    HW117444   2.684   2.345   5.865
 5704SOL    HW217445   2.583   2.468   5.903
 5705SOL     OW17446   3.519   2.466   6.792
 5705SOL    HW117447   3.481   2.397   6.854
 5705SOL    HW217448   3.601   2.430   6.748
 5706SOL     OW17449   2.114   3.426   7.330
 5706SOL    HW117450   2.084   3.483   7.406
 5706SOL    HW217451   2.107   3.329   7.356
 5707SOL     OW17452   2.792   3.540   7.051
 5707SOL    HW117453   2.768   3.522   6.956
 5707SOL    HW217454   2.822   3.634   7.061
 5708SOL     OW17455   2.335   2.362   5.777
 5708SOL    HW117456   2.396   2.442   5.781
 5708SOL    HW217457   2.240   2.393   5.784
 5709SOL     OW17458   2.021   2.999   7.052
 5709SOL    HW117459   2.043   2.938   7.128
 5709SOL    HW217460   2.031   2.950   6.966
 5710SOL     OW17461   3.209   2.921   6.820
 5710SOL    HW117462   3.233   2.858   6.746
 5710SOL    HW217463   3.119   2.961   6.802
 5711SOL     OW17464   3.164   2.717   5.895
 5711SOL    HW117465   3.078   2.686   5.937
 5711SOL    HW217466   3.160   2.703   5.796
 5712SOL     OW17467   3.621   3.609   6.740
 5712SOL    HW117468   3.682   3.639   6.667
 5712SOL    HW217469   3.583   3.520   6.718
 5713SOL     OW17470   3.114   3.593   6.714
 5713SOL    HW117471   3.198   3.598   6.660
 5713SOL    HW217472   3.091   3.497   6.732
 5714SOL     OW17473   1.945   3.120   6.608
 5714SOL    HW117474   1.940   3.119   6.708
 5714SOL    HW217475   1.862   3.079   6.570
 5715SOL     OW17476   2.550   3.524   7.302
 5715SOL    HW117477   2.494   3.605   7.311
 5715SOL    HW217478   2.602   3.528   7.216
 5716SOL     OW17479   3.588   1.997   6.109
 5716SOL    HW117480   3.661   1.980   6.042
 5716SOL    HW217481   3.557   1.910   6.147
 5717SOL     OW17482   3.250   3.435   6.063
 5717SOL    HW117483   3.317   3.447   5.989
 5717SOL    HW217484   3.210   3.524   6.086
 5718SOL     OW17485   1.992   3.656   7.437
 5718SOL    HW117486   1.951   3.582   7.490
 5718SOL    HW217487   2.056   3.707   7.495
 5719SOL     OW17488   3.142   2.789   6.258
 5719SOL    HW117489   3.202   2.708   6.260
 5719SOL    HW217490   3.182   2.858   6.198
 5720SOL     OW17491   2.692   3.135   7.008
 5720SOL    HW117492   2.687   3.168   7.103
 5720SOL    HW217493   2.606   3.154   6.962
 5721SOL     OW17494   2.534   3.478   5.740
 5721SOL    HW117495   2.543   3.488   5.641
 5721SOL    HW217496   2.494   3.389   5.761
 5722SOL     OW17497   3.512   3.582   6.980
 5722SOL    HW117498   3.565   3.592   6.896
 5722SOL    HW217499   3.485   3.672   7.014
 5723SOL     OW17500   3.703   2.037   6.549
 5723SOL    HW117501   3.742   1.952   6.513
 5723SOL    HW217502   3.605   2.039   6.530
 5724SOL     OW17503   3.056   3.474   5.617
 5724SOL    HW117504   3.062   3.381   5.654
 5724SOL    HW217505   2.997   3.474   5.537
 5725SOL     OW17506   2.684   2.864   6.958
 5725SOL    HW117507   2.724   2.863   6.866
 5725SOL    HW217508   2.694   2.956   6.998
 5726SOL     OW17509   2.778   2.772   5.877
 5726SOL    HW117510   2.841   2.810   5.809
 5726SOL    HW217511   2.818   2.689   5.916
 5727SOL     OW17512   3.366   3.469   5.630
 5727SOL    HW117513   3.274   3.506   5.637
 5727SOL    HW217514   3.404   3.489   5.540
 5728SOL     OW17515   2.234   3.150   7.076
 5728SOL    HW117516   2.221   3.243   7.042
 5728SOL    HW217517   2.150   3.098   7.063
 5729SOL     OW17518   3.476   3.154   6.875
 5729SOL    HW117519   3.536   3.157   6.955
 5729SOL    HW217520   3.401   3.218   6.888
 5730SOL     OW17521   2.901   2.960   6.282
 5730SOL    HW117522   2.831   2.913   6.336
 5730SOL    HW217523   2.960   2.892   6.239
 5731SOL     OW17524   2.876   2.098   6.557
 5731SOL    HW117525   2.868   2.062   6.464
 5731SOL    HW217526   2.874   2.022   6.622
 5732SOL     OW17527   2.452   3.349   6.077
 5732SOL    HW117528   2.494   3.291   6.007
 5732SOL    HW217529   2.408   3.428   6.033
 5733SOL     OW17530   3.571   2.247   6.967
 5733SOL    HW117531   3.644   2.316   6.971
 5733SOL    HW217532   3.599   2.172   6.908
 5734SOL     OW17533   2.117   3.210   5.876
 5734SOL    HW117534   2.021   3.211   5.849
 5734SOL    HW217535   2.129   3.263   5.960
 5735SOL     OW17536   1.967   2.875   7.312
 5735SOL    HW117537   1.890   2.842   7.366
 5735SOL    HW217538   2.052   2.845   7.354
 5736SOL     OW17539   1.937   2.207   5.619
 5736SOL    HW117540   1.845   2.179   5.590
 5736SOL    HW217541   1.968   2.284   5.563
 5737SOL     OW17542   3.302   2.718   6.984
 5737SOL    HW117543   3.245   2.770   6.921
 5737SOL    HW217544   3.398   2.730   6.960
 5738SOL     OW17545   3.045   3.197   5.705
 5738SOL    HW117546   2.946   3.186   5.707
 5738SOL    HW217547   3.079   3.212   5.798
 5739SOL     OW17548   2.475   2.704   7.017
 5739SOL    HW117549   2.531   2.785   7.000
 5739SOL    HW217550   2.534   2.624   7.020
 5740SOL     OW17551   3.355   3.629   6.545
 5740SOL    HW117552   3.388   3.693   6.476
 5740SOL    HW217553   3.421   3.623   6.620
 5741SOL     OW17554   2.578   2.427   7.294
 5741SOL    HW117555   2.597   2.492   7.368
 5741SOL    HW217556   2.638   2.347   7.303
 5742SOL     OW17557   3.312   3.082   7.219
 5742SOL    HW117558   3.303   3.072   7.318
 5742SOL    HW217559   3.408   3.075   7.193
 5743SOL     OW17560   2.252   3.603   7.146
 5743SOL    HW117561   2.161   3.644   7.144
 5743SOL    HW217562   2.245   3.509   7.178
 5744SOL     OW17563   3.536   2.745   6.840
 5744SOL    HW117564   3.509   2.656   6.803
 5744SOL    HW217565   3.537   2.813   6.767
 5745SOL     OW17566   3.087   2.187   6.035
 5745SOL    HW117567   3.152   2.113   6.024
 5745SOL    HW217568   3.107   2.237   6.119
 5746SOL     OW17569   2.456   2.607   6.238
 5746SOL    HW117570   2.506   2.692   6.219
 5746SOL    HW217571   2.368   2.609   6.190
 5747SOL     OW17572   3.639   2.204   7.228
 5747SOL    HW117573   3.622   2.235   7.134
 5747SOL    HW217574   3.555   2.167   7.266
 5748SOL     OW17575   3.592   2.796   7.103
 5748SOL    HW117576   3.630   2.887   7.118
 5748SOL    HW217577   3.584   2.779   7.004
 5749SOL     OW17578   2.721   3.236   5.602
 5749SOL    HW117579   2.675   3.251   5.690
 5749SOL    HW217580   2.765   3.321   5.572
 5750SOL     OW17581   2.523   3.652   6.539
 5750SOL    HW117582   2.477   3.740   6.526
 5750SOL    HW217583   2.622   3.664   6.532
 5751SOL     OW17584   2.721   2.818   6.447
 5751SOL    HW117585   2.775   2.749   6.495
 5751SOL    HW217586   2.689   2.887   6.513
 5752SOL     OW17587   2.945   2.846   5.673
 5752SOL    HW117588   2.922   2.899   5.591
 5752SOL    HW217589   3.026   2.790   5.654
 5753SOL     OW17590   3.723   3.431   6.437
 5753SOL    HW117591   3.652   3.419   6.367
 5753SOL    HW217592   3.724   3.352   6.497
 5754SOL     OW17593   2.083   3.176   7.430
 5754SOL    HW117594   2.018   3.103   7.409
 5754SOL    HW217595   2.087   3.190   7.528
 5755SOL     OW17596   1.941   3.102   6.239
 5755SOL    HW117597   1.940   3.055   6.327
 5755SOL    HW217598   2.023   3.074   6.188
 5756SOL     OW17599   2.534   3.253   7.210
 5756SOL    HW117600   2.456   3.203   7.248
 5756SOL    HW217601   2.531   3.348   7.241
 5757SOL     OW17602   3.686   2.054   6.813
 5757SOL    HW117603   3.682   1.964   6.857
 5757SOL    HW217604   3.689   2.043   6.714
 5758SOL     OW17605   2.290   2.286   6.106
 5758SOL    HW117606   2.320   2.214   6.044
 5758SOL    HW217607   2.251   2.246   6.189
 5759SOL     OW17608   3.567   3.349   6.690
 5759SOL    HW117609   3.474   3.324   6.663
 5759SOL    HW217610   3.593   3.299   6.772
 5760SOL     OW17611   2.674   3.448   6.273
 5760SOL    HW117612   2.706   3.458   6.179
 5760SOL    HW217613   2.595   3.386   6.275
 5761SOL     OW17614   3.286   2.076   6.698
 5761SOL    HW117615   3.338   2.011   6.753
 5761SOL    HW217616   3.237   2.139   6.759
 5762SOL     OW17617   2.863   1.896   6.740
 5762SOL    HW117618   2.800   1.824   6.709
 5762SOL    HW217619   2.956   1.860   6.740
 5763SOL     OW17620   2.632   3.192   5.887
 5763SOL    HW117621   2.586   3.105   5.904
 5763SOL    HW217622   2.723   3.189   5.928
 5764SOL     OW17623   2.480   3.429   6.870
 5764SOL    HW117624   2.475   3.511   6.927
 5764SOL    HW217625   2.569   3.426   6.825
 5765SOL     OW17626   3.214   1.914   5.754
 5765SOL    HW117627   3.249   1.873   5.670
 5765SOL    HW217628   3.124   1.876   5.774
 5766SOL     OW17629   3.162   2.315   6.277
 5766SOL    HW117630   3.103   2.395   6.281
 5766SOL    HW217631   3.177   2.280   6.370
 5767SOL     OW17632   3.455   2.083   6.468
 5767SOL    HW117633   3.371   2.082   6.522
 5767SOL    HW217634   3.457   2.166   6.412
 5768SOL     OW17635   1.901   2.939   5.886
 5768SOL    HW117636   2.000   2.928   5.877
 5768SOL    HW217637   1.861   2.853   5.918
 5769SOL     OW17638   2.737   3.508   5.923
 5769SOL    HW117639   2.660   3.473   5.869
 5769SOL    HW217640   2.705   3.579   5.985
 5770SOL     OW17641   2.092   2.490   7.561
 5770SOL    HW117642   1.999   2.488   7.598
 5770SOL    HW217643   2.093   2.451   7.469
 5771SOL     OW17644   1.881   2.230   8.095
 5771SOL    HW117645   1.799   2.273   8.134
 5771SOL    HW217646   1.853   2.157   8.032
 5772SOL     OW17647   2.431   3.137   8.613
 5772SOL    HW117648   2.338   3.130   8.576
 5772SOL    HW217649   2.442   3.226   8.657
 5773SOL     OW17650   3.417   3.373   8.151
 5773SOL    HW117651   3.360   3.357   8.232
 5773SOL    HW217652   3.358   3.383   8.071
 5774SOL     OW17653   2.997   2.565   8.165
 5774SOL    HW117654   3.054   2.643   8.140
 5774SOL    HW217655   2.937   2.591   8.241
 5775SOL     OW17656   3.617   2.469   7.679
 5775SOL    HW117657   3.605   2.456   7.580
 5775SOL    HW217658   3.587   2.388   7.728
 5776SOL     OW17659   2.630   3.006   8.471
 5776SOL    HW117660   2.552   3.023   8.531
 5776SOL    HW217661   2.664   3.093   8.435
 5777SOL     OW17662   2.712   2.660   9.271
 5777SOL    HW117663   2.708   2.736   9.336
 5777SOL    HW217664   2.734   2.696   9.180
 5778SOL     OW17665   2.547   2.874   8.113
 5778SOL    HW117666   2.616   2.858   8.183
 5778SOL    HW217667   2.474   2.931   8.151
 5779SOL     OW17668   2.548   3.023   9.251
 5779SOL    HW117669   2.608   3.102   9.265
 5779SOL    HW217670   2.462   3.054   9.210
 5780SOL     OW17671   2.197   3.297   8.509
 5780SOL    HW117672   2.119   3.266   8.456
 5780SOL    HW217673   2.255   3.355   8.452
 5781SOL     OW17674   3.322   3.367   8.787
 5781SOL    HW117675   3.346   3.461   8.813
 5781SOL    HW217676   3.306   3.313   8.869
 5782SOL     OW17677   2.300   2.254   8.947
 5782SOL    HW117678   2.382   2.198   8.956
 5782SOL    HW217679   2.219   2.196   8.951
 5783SOL     OW17680   3.465   2.309   8.185
 5783SOL    HW117681   3.391   2.355   8.135
 5783SOL    HW217682   3.516   2.377   8.238
 5784SOL     OW17683   2.093   3.575   7.931
 5784SOL    HW117684   2.127   3.652   7.985
 5784SOL    HW217685   2.137   3.575   7.841
 5785SOL     OW17686   2.989   3.203   9.138
 5785SOL    HW117687   3.036   3.203   9.226
 5785SOL    HW217688   2.941   3.116   9.127
 5786SOL     OW17689   2.092   3.296   7.986
 5786SOL    HW117690   2.066   3.392   7.986
 5786SOL    HW217691   2.021   3.242   8.031
 5787SOL     OW17692   2.102   2.953   8.334
 5787SOL    HW117693   2.116   2.869   8.386
 5787SOL    HW217694   2.047   3.017   8.389
 5788SOL     OW17695   2.482   3.648   8.887
 5788SOL    HW117696   2.390   3.631   8.922
 5788SOL    HW217697   2.510   3.740   8.913
 5789SOL     OW17698   2.468   2.826   7.571
 5789SOL    HW117699   2.475   2.910   7.517
 5789SOL    HW217700   2.514   2.839   7.659
 5790SOL     OW17701   3.456   1.976   8.928
 5790SOL    HW117702   3.438   2.043   8.856
 5790SOL    HW217703   3.453   2.022   9.017
 5791SOL     OW17704   1.984   2.505   8.011
 5791SOL    HW117705   1.939   2.417   8.028
 5791SOL    HW217706   1.983   2.559   8.095
 5792SOL     OW17707   3.704   3.629   7.807
 5792SOL    HW117708   3.758   3.600   7.887
 5792SOL    HW217709   3.734   3.719   7.778
 5793SOL     OW17710   1.889   3.458   7.565
 5793SOL    HW117711   1.870   3.362   7.586
 5793SOL    HW217712   1.856   3.516   7.640
 5794SOL     OW17713   3.551   2.784   8.060
 5794SOL    HW117714   3.646   2.755   8.068
 5794SOL    HW217715   3.543   2.849   7.985
 5795SOL     OW17716   3.503   2.970   7.880
 5795SOL    HW117717   3.589   2.972   7.828
 5795SOL    HW217718   3.517   3.017   7.968
 5796SOL     OW17719   1.975   2.599   9.045
 5796SOL    HW117720   2.063   2.586   9.090
 5796SOL    HW217721   1.962   2.696   9.023
 5797SOL     OW17722   2.475   3.227   8.174
 5797SOL    HW117723   2.426   3.140   8.183
 5797SOL    HW217724   2.452   3.270   8.087
 5798SOL     OW17725   3.155   3.090   8.871
 5798SOL    HW117726   3.192   3.017   8.813
 5798SOL    HW217727   3.207   3.095   8.956
 5799SOL     OW17728   2.671   1.866   7.950
 5799SOL    HW117729   2.711   1.957   7.941
 5799SOL    HW217730   2.571   1.874   7.956
 5800SOL     OW17731   2.059   2.838   8.712
 5800SOL    HW117732   2.148   2.793   8.698
 5800SOL    HW217733   1.986   2.773   8.693
 5801SOL     OW17734   3.387   2.861   7.638
 5801SOL    HW117735   3.324   2.785   7.651
 5801SOL    HW217736   3.435   2.879   7.724
 5802SOL     OW17737   3.049   3.654   9.064
 5802SOL    HW117738   3.073   3.714   8.988
 5802SOL    HW217739   3.056   3.559   9.034
 5803SOL     OW17740   2.179   2.113   9.249
 5803SOL    HW117741   2.250   2.184   9.255
 5803SOL    HW217742   2.091   2.152   9.277
 5804SOL     OW17743   3.328   3.279   8.401
 5804SOL    HW117744   3.269   3.285   8.481
 5804SOL    HW217745   3.313   3.191   8.355
 5805SOL     OW17746   3.529   3.576   8.020
 5805SOL    HW117747   3.488   3.553   7.932
 5805SOL    HW217748   3.511   3.502   8.085
 5806SOL     OW17749   2.460   2.591   7.718
 5806SOL    HW117750   2.484   2.660   7.650
 5806SOL    HW217751   2.382   2.624   7.772
 5807SOL     OW17752   3.143   2.207   8.392
 5807SOL    HW117753   3.057   2.157   8.379
 5807SOL    HW217754   3.205   2.153   8.448
 5808SOL     OW17755   3.438   3.524   7.755
 5808SOL    HW117756   3.527   3.570   7.758
 5808SOL    HW217757   3.417   3.500   7.660
 5809SOL     OW17758   2.669   2.467   8.913
 5809SOL    HW117759   2.622   2.464   9.002
 5809SOL    HW217760   2.618   2.412   8.847
 5810SOL     OW17761   3.256   2.331   9.122
 5810SOL    HW117762   3.236   2.374   9.210
 5810SOL    HW217763   3.334   2.269   9.131
 5811SOL     OW17764   2.835   2.752   9.020
 5811SOL    HW117765   2.881   2.668   8.991
 5811SOL    HW217766   2.779   2.786   8.945
 5812SOL     OW17767   2.853   2.272   8.690
 5812SOL    HW117768   2.776   2.306   8.744
 5812SOL    HW217769   2.819   2.221   8.611
 5813SOL     OW17770   2.903   2.563   7.877
 5813SOL    HW117771   2.929   2.559   7.973
 5813SOL    HW217772   2.818   2.512   7.863
 5814SOL     OW17773   1.938   2.673   8.237
 5814SOL    HW117774   2.037   2.661   8.246
 5814SOL    HW217775   1.914   2.768   8.258
 5815SOL     OW17776   1.992   3.683   9.019
 5815SOL    HW117777   1.982   3.668   9.118
 5815SOL    HW217778   1.906   3.719   8.983
 5816SOL     OW17779   2.727   2.210   7.643
 5816SOL    HW117780   2.786   2.273   7.594
 5816SOL    HW217781   2.746   2.116   7.614
 5817SOL     OW17782   3.581   2.447   9.279
 5817SOL    HW117783   3.555   2.536   9.243
 5817SOL    HW217784   3.579   2.379   9.206
 5818SOL     OW17785   3.224   3.006   7.993
 5818SOL    HW117786   3.307   2.977   7.945
 5818SOL    HW217787   3.175   3.073   7.937
 5819SOL     OW17788   2.412   2.058   8.333
 5819SOL    HW117789   2.407   2.053   8.433
 5819SOL    HW217790   2.414   2.154   8.304
 5820SOL     OW17791   2.870   3.318   7.925
 5820SOL    HW117792   2.824   3.390   7.873
 5820SOL    HW217793   2.866   3.338   8.023
 5821SOL     OW17794   2.213   3.663   8.301
 5821SOL    HW117795   2.263   3.577   8.307
 5821SOL    HW217796   2.278   3.740   8.298
 5822SOL     OW17797   3.657   2.928   8.321
 5822SOL    HW117798   3.595   2.913   8.245
 5822SOL    HW217799   3.605   2.939   8.406
 5823SOL     OW17800   3.089   3.412   8.954
 5823SOL    HW117801   3.095   3.335   9.018
 5823SOL    HW217802   3.037   3.386   8.874
 5824SOL     OW17803   2.183   2.805   7.690
 5824SOL    HW117804   2.265   2.844   7.648
 5824SOL    HW217805   2.156   2.723   7.641
 5825SOL     OW17806   3.320   2.597   8.176
 5825SOL    HW117807   3.315   2.532   8.251
 5825SOL    HW217808   3.400   2.656   8.189
 5826SOL     OW17809   2.323   3.128   9.175
 5826SOL    HW117810   2.273   3.129   9.089
 5826SOL    HW217811   2.260   3.110   9.251
 5827SOL     OW17812   2.973   3.638   7.685
 5827SOL    HW117813   2.913   3.576   7.735
 5827SOL    HW217814   3.004   3.594   7.600
 5828SOL     OW17815   3.494   3.239   7.529
 5828SOL    HW117816   3.462   3.333   7.519
 5828SOL    HW217817   3.418   3.176   7.517
 5829SOL     OW17818   2.326   3.605   7.771
 5829SOL    HW117819   2.359   3.644   7.857
 5829SOL    HW217820   2.402   3.598   7.706
 5830SOL     OW17821   3.262   1.969   7.874
 5830SOL    HW117822   3.238   1.932   7.784
 5830SOL    HW217823   3.361   1.985   7.878
 5831SOL     OW17824   2.111   3.647   8.689
 5831SOL    HW117825   2.168   3.582   8.739
 5831SOL    HW217826   2.095   3.614   8.596
 5832SOL     OW17827   2.802   3.560   8.352
 5832SOL    HW117828   2.882   3.503   8.373
 5832SOL    HW217829   2.753   3.520   8.275
 5833SOL     OW17830   2.244   2.562   7.928
 5833SOL    HW117831   2.289   2.472   7.925
 5833SOL    HW217832   2.150   2.551   7.961
 5834SOL     OW17833   3.409   2.084   9.177
 5834SOL    HW117834   3.404   2.121   9.269
 5834SOL    HW217835   3.337   2.015   9.165
 5835SOL     OW17836   2.476   1.984   7.565
 5835SOL    HW117837   2.574   1.962   7.572
 5835SOL    HW217838   2.445   1.967   7.472
 5836SOL     OW17839   2.643   2.126   9.197
 5836SOL    HW117840   2.710   2.065   9.240
 5836SOL    HW217841   2.570   2.145   9.262
 5837SOL     OW17842   2.750   3.376   8.643
 5837SOL    HW117843   2.727   3.351   8.549
 5837SOL    HW217844   2.811   3.307   8.682
 5838SOL     OW17845   3.213   2.452   8.881
 5838SOL    HW117846   3.241   2.409   8.966
 5838SOL    HW217847   3.238   2.548   8.882
 5839SOL     OW17848   2.665   3.264   8.372
 5839SOL    HW117849   2.755   3.278   8.330
 5839SOL    HW217850   2.594   3.266   8.301
 5840SOL     OW17851   2.784   2.365   8.347
 5840SOL    HW117852   2.759   2.356   8.251
 5840SOL    HW217853   2.832   2.283   8.378
 5841SOL     OW17854   2.401   1.926   7.960
 5841SOL    HW117855   2.320   1.927   8.018
 5841SOL    HW217856   2.404   2.009   7.905
 5842SOL     OW17857   3.296   3.050   7.489
 5842SOL    HW117858   3.328   2.974   7.546
 5842SOL    HW217859   3.204   3.077   7.519
 5843SOL     OW17860   2.797   2.098   7.928
 5843SOL    HW117861   2.749   2.139   7.850
 5843SOL    HW217862   2.896   2.096   7.909
 5844SOL     OW17863   2.938   2.545   8.912
 5844SOL    HW117864   2.858   2.484   8.915
 5844SOL    HW217865   3.019   2.492   8.888
 5845SOL     OW17866   3.089   3.432   8.241
 5845SOL    HW117867   3.110   3.506   8.176
 5845SOL    HW217868   3.157   3.432   8.314
 5846SOL     OW17869   2.321   3.014   8.189
 5846SOL    HW117870   2.250   2.987   8.254
 5846SOL    HW217871   2.295   2.986   8.096
 5847SOL     OW17872   3.133   3.659   8.039
 5847SOL    HW117873   3.177   3.723   7.975
 5847SOL    HW217874   3.083   3.711   8.109
 5848SOL     OW17875   2.894   2.411   7.464
 5848SOL    HW117876   2.853   2.493   7.425
 5848SOL    HW217877   2.958   2.437   7.537
 5849SOL     OW17878   1.940   2.418   8.834
 5849SOL    HW117879   2.032   2.417   8.793
 5849SOL    HW217880   1.934   2.492   8.901
 5850SOL     OW17881   2.423   2.084   8.595
 5850SOL    HW117882   2.461   2.000   8.632
 5850SOL    HW217883   2.335   2.103   8.639
 5851SOL     OW17884   2.728   2.316   8.090
 5851SOL    HW117885   2.696   2.388   8.028
 5851SOL    HW217886   2.752   2.235   8.037
 5852SOL     OW17887   2.879   1.901   8.201
 5852SOL    HW117888   2.807   1.906   8.132
 5852SOL    HW217889   2.855   1.832   8.270
 5853SOL     OW17890   3.291   3.035   8.315
 5853SOL    HW117891   3.236   2.951   8.308
 5853SOL    HW217892   3.317   3.064   8.223
 5854SOL     OW17893   3.328   2.452   8.440
 5854SOL    HW117894   3.298   2.357   8.447
 5854SOL    HW217895   3.401   2.468   8.506
 5855SOL     OW17896   3.719   2.695   7.825
 5855SOL    HW117897   3.761   2.631   7.889
 5855SOL    HW217898   3.681   2.644   7.747
 5856SOL     OW17899   2.350   3.247   7.622
 5856SOL    HW117900   2.263   3.232   7.669
 5856SOL    HW217901   2.333   3.273   7.527
 5857SOL     OW17902   3.526   3.142   8.105
 5857SOL    HW117903   3.625   3.150   8.119
 5857SOL    HW217904   3.481   3.226   8.136
 5858SOL     OW17905   3.252   2.437   7.526
 5858SOL    HW117906   3.198   2.416   7.607
 5858SOL    HW217907   3.343   2.396   7.535
 5859SOL     OW17908   2.389   2.118   7.776
 5859SOL    HW117909   2.416   2.059   7.701
 5859SOL    HW217910   2.389   2.213   7.745
 5860SOL     OW17911   3.616   3.085   9.036
 5860SOL    HW117912   3.707   3.046   9.023
 5860SOL    HW217913   3.624   3.181   9.060
 5861SOL     OW17914   2.926   3.209   8.788
 5861SOL    HW117915   2.846   3.186   8.843
 5861SOL    HW217916   3.009   3.183   8.837
 5862SOL     OW17917   3.454   3.491   9.073
 5862SOL    HW117918   3.481   3.525   8.983
 5862SOL    HW217919   3.533   3.453   9.119
 5863SOL     OW17920   2.973   3.057   8.548
 5863SOL    HW117921   2.933   3.101   8.629
 5863SOL    HW217922   2.932   3.094   8.465
 5864SOL     OW17923   3.500   2.961   8.527
 5864SOL    HW117924   3.505   3.042   8.586
 5864SOL    HW217925   3.414   2.963   8.476
 5865SOL     OW17926   2.777   1.951   8.850
 5865SOL    HW117927   2.802   1.931   8.755
 5865SOL    HW217928   2.849   2.007   8.892
 5866SOL     OW17929   2.842   2.978   9.167
 5866SOL    HW117930   2.743   2.984   9.177
 5866SOL    HW217931   2.865   2.898   9.111
 5867SOL     OW17932   2.567   2.912   7.816
 5867SOL    HW117933   2.553   2.919   7.915
 5867SOL    HW217934   2.651   2.861   7.798
 5868SOL     OW17935   2.272   2.675   8.699
 5868SOL    HW117936   2.358   2.687   8.749
 5868SOL    HW217937   2.230   2.588   8.726
 5869SOL     OW17938   3.136   2.248   8.710
 5869SOL    HW117939   3.157   2.322   8.774
 5869SOL    HW217940   3.047   2.265   8.667
 5870SOL     OW17941   1.926   3.426   8.779
 5870SOL    HW117942   1.880   3.508   8.745
 5870SOL    HW217943   2.024   3.445   8.788
 5871SOL     OW17944   2.229   2.962   7.949
 5871SOL    HW117945   2.222   3.045   7.893
 5871SOL    HW217946   2.233   2.882   7.889
 5872SOL     OW17947   2.428   2.399   8.313
 5872SOL    HW117948   2.440   2.465   8.239
 5872SOL    HW217949   2.474   2.433   8.396
 5873SOL     OW17950   3.114   3.210   7.836
 5873SOL    HW117951   3.164   3.287   7.876
 5873SOL    HW217952   3.019   3.212   7.868
 5874SOL     OW17953   3.134   3.307   8.590
 5874SOL    HW117954   3.181   3.320   8.677
 5874SOL    HW217955   3.068   3.233   8.599
 5875SOL     OW17956   3.444   2.501   7.920
 5875SOL    HW117957   3.413   2.562   7.993
 5875SOL    HW217958   3.494   2.553   7.851
 5876SOL     OW17959   2.216   3.372   8.777
 5876SOL    HW117960   2.195   3.328   8.690
 5876SOL    HW217961   2.313   3.398   8.780
 5877SOL     OW17962   2.264   2.613   9.046
 5877SOL    HW117963   2.332   2.668   8.999
 5877SOL    HW217964   2.304   2.525   9.073
 5878SOL     OW17965   3.449   2.641   9.118
 5878SOL    HW117966   3.357   2.679   9.113
 5878SOL    HW217967   3.509   2.688   9.053
 5879SOL     OW17968   2.875   1.967   9.218
 5879SOL    HW117969   2.881   2.052   9.166
 5879SOL    HW217970   2.907   1.891   9.161
 5880SOL     OW17971   2.366   1.912   9.188
 5880SOL    HW117972   2.324   1.855   9.118
 5880SOL    HW217973   2.300   1.981   9.220
 5881SOL     OW17974   2.435   2.732   8.477
 5881SOL    HW117975   2.479   2.821   8.468
 5881SOL    HW217976   2.372   2.732   8.554
 5882SOL     OW17977   3.222   2.724   8.493
 5882SOL    HW117978   3.147   2.724   8.427
 5882SOL    HW217979   3.259   2.632   8.502
 5883SOL     OW17980   3.071   2.387   7.723
 5883SOL    HW117981   3.084   2.303   7.777
 5883SOL    HW217982   3.042   2.461   7.783
 5884SOL     OW17983   2.169   2.075   8.679
 5884SOL    HW117984   2.146   2.112   8.769
 5884SOL    HW217985   2.139   1.980   8.673
 5885SOL     OW17986   1.899   3.172   8.730
 5885SOL    HW117987   1.952   3.123   8.798
 5885SOL    HW217988   1.921   3.270   8.735
 5886SOL     OW17989   2.594   2.496   8.512
 5886SOL    HW117990   2.653   2.470   8.436
 5886SOL    HW217991   2.566   2.592   8.501
 5887SOL     OW17992   3.590   2.797   9.302
 5887SOL    HW117993   3.544   2.790   9.213
 5887SOL    HW217994   3.528   2.841   9.368
 5888SOL     OW17995   3.484   2.229   7.822
 5888SOL    HW117996   3.486   2.153   7.886
 5888SOL    HW217997   3.436   2.306   7.862
 5889SOL     OW17998   2.885   2.628   8.414
 5889SOL    HW117999   2.900   2.649   8.510
 5889SOL    HW218000   2.855   2.533   8.405
 5890SOL     OW18001   2.842   3.435   9.148
 5890SOL    HW118002   2.822   3.479   9.060
 5890SOL    HW218003   2.881   3.344   9.132
 5891SOL     OW18004   3.721   3.380   9.053
 5891SOL    HW118005   3.735   3.407   8.958
 5891SOL    HW218006   3.804   3.402   9.106
 5892SOL     OW18007   2.212   2.760   9.252
 5892SOL    HW118008   2.288   2.804   9.300
 5892SOL    HW218009   2.247   2.713   9.170
 5893SOL     OW18010   3.402   2.136   7.573
 5893SOL    HW118011   3.341   2.061   7.596
 5893SOL    HW218012   3.424   2.188   7.656
 5894SOL     OW18013   3.165   2.700   7.490
 5894SOL    HW118014   3.199   2.607   7.505
 5894SOL    HW218015   3.183   2.727   7.395
 5895SOL     OW18016   2.930   3.195   8.297
 5895SOL    HW118017   2.937   3.111   8.242
 5895SOL    HW218018   2.992   3.264   8.261
 5896SOL     OW18019   2.181   2.672   8.397
 5896SOL    HW118020   2.274   2.708   8.402
 5896SOL    HW218021   2.175   2.587   8.449
 5897SOL     OW18022   2.201   2.371   8.454
 5897SOL    HW118023   2.149   2.288   8.437
 5897SOL    HW218024   2.278   2.376   8.390
 5898SOL     OW18025   3.000   2.242   9.126
 5898SOL    HW118026   2.955   2.305   9.190
 5898SOL    HW218027   3.093   2.273   9.109
 5899SOL     OW18028   3.022   2.069   8.925
 5899SOL    HW118029   3.022   2.133   9.002
 5899SOL    HW218030   3.050   2.117   8.842
 5900SOL     OW18031   1.870   3.188   7.648
 5900SOL    HW118032   1.777   3.209   7.617
 5900SOL    HW218033   1.880   3.089   7.661
 5901SOL     OW18034   1.950   3.663   8.375
 5901SOL    HW118035   1.908   3.577   8.348
 5901SOL    HW218036   2.044   3.666   8.341
 5902SOL     OW18037   2.366   3.430   8.358
 5902SOL    HW118038   2.432   3.504   8.367
 5902SOL    HW218039   2.410   3.351   8.316
 5903SOL     OW18040   2.864   2.658   8.686
 5903SOL    HW118041   2.905   2.626   8.772
 5903SOL    HW218042   2.768   2.631   8.683
 5904SOL     OW18043   1.902   2.406   8.562
 5904SOL    HW118044   1.987   2.373   8.521
 5904SOL    HW218045   1.915   2.421   8.660
 5905SOL     OW18046   2.051   2.382   9.170
 5905SOL    HW118047   2.110   2.342   9.100
 5905SOL    HW218048   1.993   2.453   9.129
 5906SOL     OW18049   3.231   2.812   9.108
 5906SOL    HW118050   3.270   2.901   9.128
 5906SOL    HW218051   3.241   2.792   9.011
 5907SOL     OW18052   2.677   2.434   7.773
 5907SOL    HW118053   2.684   2.345   7.727
 5907SOL    HW218054   2.583   2.468   7.765
 5908SOL     OW18055   3.519   2.466   8.654
 5908SOL    HW118056   3.481   2.397   8.716
 5908SOL    HW218057   3.601   2.430   8.610
 5909SOL     OW18058   2.114   3.426   9.192
 5909SOL    HW118059   2.084   3.483   9.268
 5909SOL    HW218060   2.107   3.329   9.218
 5910SOL     OW18061   2.533   2.326   8.717
 5910SOL    HW118062   2.499   2.237   8.687
 5910SOL    HW218063   2.559   2.380   8.637
 5911SOL     OW18064   2.792   3.540   8.913
 5911SOL    HW118065   2.768   3.522   8.818
 5911SOL    HW218066   2.822   3.634   8.923
 5912SOL     OW18067   2.335   2.362   7.639
 5912SOL    HW118068   2.396   2.442   7.643
 5912SOL    HW218069   2.240   2.393   7.646
 5913SOL     OW18070   2.021   2.999   8.914
 5913SOL    HW118071   2.043   2.938   8.990
 5913SOL    HW218072   2.031   2.950   8.828
 5914SOL     OW18073   3.209   2.921   8.682
 5914SOL    HW118074   3.233   2.858   8.608
 5914SOL    HW218075   3.119   2.961   8.664
 5915SOL     OW18076   3.164   2.717   7.757
 5915SOL    HW118077   3.078   2.686   7.799
 5915SOL    HW218078   3.160   2.703   7.658
 5916SOL     OW18079   3.621   3.609   8.602
 5916SOL    HW118080   3.682   3.639   8.529
 5916SOL    HW218081   3.583   3.520   8.580
 5917SOL     OW18082   3.114   3.593   8.576
 5917SOL    HW118083   3.198   3.598   8.522
 5917SOL    HW218084   3.091   3.497   8.594
 5918SOL     OW18085   1.945   3.120   8.470
 5918SOL    HW118086   1.940   3.119   8.570
 5918SOL    HW218087   1.862   3.079   8.432
 5919SOL     OW18088   2.550   3.524   9.164
 5919SOL    HW118089   2.494   3.605   9.173
 5919SOL    HW218090   2.602   3.528   9.078
 5920SOL     OW18091   3.588   1.997   7.971
 5920SOL    HW118092   3.661   1.980   7.904
 5920SOL    HW218093   3.557   1.910   8.009
 5921SOL     OW18094   3.250   3.435   7.925
 5921SOL    HW118095   3.317   3.447   7.851
 5921SOL    HW218096   3.210   3.524   7.948
 5922SOL     OW18097   1.992   3.656   9.299
 5922SOL    HW118098   1.951   3.582   9.352
 5922SOL    HW218099   2.056   3.707   9.357
 5923SOL     OW18100   3.142   2.789   8.120
 5923SOL    HW118101   3.202   2.708   8.122
 5923SOL    HW218102   3.182   2.858   8.060
 5924SOL     OW18103   2.692   3.135   8.870
 5924SOL    HW118104   2.687   3.168   8.965
 5924SOL    HW218105   2.606   3.154   8.824
 5925SOL     OW18106   2.534   3.478   7.602
 5925SOL    HW118107   2.543   3.488   7.503
 5925SOL    HW218108   2.494   3.389   7.623
 5926SOL     OW18109   3.512   3.582   8.842
 5926SOL    HW118110   3.565   3.592   8.758
 5926SOL    HW218111   3.485   3.672   8.876
 5927SOL     OW18112   3.703   2.037   8.411
 5927SOL    HW118113   3.742   1.952   8.375
 5927SOL    HW218114   3.605   2.039   8.392
 5928SOL     OW18115   3.056   3.474   7.479
 5928SOL    HW118116   3.062   3.381   7.516
 5928SOL    HW218117   2.997   3.474   7.399
 5929SOL     OW18118   2.684   2.864   8.820
 5929SOL    HW118119   2.724   2.863   8.728
 5929SOL    HW218120   2.694   2.956   8.860
 5930SOL     OW18121   2.778   2.772   7.739
 5930SOL    HW118122   2.841   2.810   7.671
 5930SOL    HW218123   2.818   2.689   7.778
 5931SOL     OW18124   3.366   3.469   7.492
 5931SOL    HW118125   3.274   3.506   7.499
 5931SOL    HW218126   3.404   3.489   7.402
 5932SOL     OW18127   2.234   3.150   8.938
 5932SOL    HW118128   2.221   3.243   8.904
 5932SOL    HW218129   2.150   3.098   8.925
 5933SOL     OW18130   3.476   3.154   8.737
 5933SOL    HW118131   3.536   3.157   8.817
 5933SOL    HW218132   3.401   3.218   8.750
 5934SOL     OW18133   2.901   2.960   8.144
 5934SOL    HW118134   2.831   2.913   8.198
 5934SOL    HW218135   2.960   2.892   8.101
 5935SOL     OW18136   2.876   2.098   8.419
 5935SOL    HW118137   2.868   2.062   8.326
 5935SOL    HW218138   2.874   2.022   8.484
 5936SOL     OW18139   2.452   3.349   7.939
 5936SOL    HW118140   2.494   3.291   7.869
 5936SOL    HW218141   2.408   3.428   7.895
 5937SOL     OW18142   3.571   2.247   8.829
 5937SOL    HW118143   3.644   2.316   8.833
 5937SOL    HW218144   3.599   2.172   8.770
 5938SOL     OW18145   2.117   3.210   7.738
 5938SOL    HW118146   2.021   3.211   7.711
 5938SOL    HW218147   2.129   3.263   7.822
 5939SOL     OW18148   1.967   2.875   9.174
 5939SOL    HW118149   1.890   2.842   9.228
 5939SOL    HW218150   2.052   2.845   9.216
 5940SOL     OW18151   2.534   2.065   8.937
 5940SOL    HW118152   2.624   2.049   8.897
 5940SOL    HW218153   2.542   2.070   9.036
 5941SOL     OW18154   1.937   2.207   7.481
 5941SOL    HW118155   1.845   2.179   7.452
 5941SOL    HW218156   1.968   2.284   7.425
 5942SOL     OW18157   3.302   2.718   8.846
 5942SOL    HW118158   3.245   2.770   8.783
 5942SOL    HW218159   3.398   2.730   8.822
 5943SOL     OW18160   3.045   3.197   7.567
 5943SOL    HW118161   2.946   3.186   7.569
 5943SOL    HW218162   3.079   3.212   7.660
 5944SOL     OW18163   2.475   2.704   8.879
 5944SOL    HW118164   2.531   2.785   8.862
 5944SOL    HW218165   2.534   2.624   8.882
 5945SOL     OW18166   3.355   3.629   8.407
 5945SOL    HW118167   3.388   3.693   8.338
 5945SOL    HW218168   3.421   3.623   8.482
 5946SOL     OW18169   2.578   2.427   9.156
 5946SOL    HW118170   2.597   2.492   9.230
 5946SOL    HW218171   2.638   2.347   9.165
 5947SOL     OW18172   3.312   3.082   9.081
 5947SOL    HW118173   3.303   3.072   9.180
 5947SOL    HW218174   3.408   3.075   9.055
 5948SOL     OW18175   2.252   3.603   9.008
 5948SOL    HW118176   2.161   3.644   9.006
 5948SOL    HW218177   2.245   3.509   9.040
 5949SOL     OW18178   3.536   2.745   8.702
 5949SOL    HW118179   3.509   2.656   8.665
 5949SOL    HW218180   3.537   2.813   8.629
 5950SOL     OW18181   3.087   2.187   7.897
 5950SOL    HW118182   3.152   2.113   7.886
 5950SOL    HW218183   3.107   2.237   7.981
 5951SOL     OW18184   2.456   2.607   8.100
 5951SOL    HW118185   2.506   2.692   8.081
 5951SOL    HW218186   2.368   2.609   8.052
 5952SOL     OW18187   3.639   2.204   9.090
 5952SOL    HW118188   3.622   2.235   8.996
 5952SOL    HW218189   3.555   2.167   9.128
 5953SOL     OW18190   3.592   2.796   8.965
 5953SOL    HW118191   3.630   2.887   8.980
 5953SOL    HW218192   3.584   2.779   8.866
 5954SOL     OW18193   2.721   3.236   7.464
 5954SOL    HW118194   2.675   3.251   7.552
 5954SOL    HW218195   2.765   3.321   7.434
 5955SOL     OW18196   2.523   3.652   8.401
 5955SOL    HW118197   2.477   3.740   8.388
 5955SOL    HW218198   2.622   3.664   8.394
 5956SOL     OW18199   2.721   2.818   8.309
 5956SOL    HW118200   2.775   2.749   8.357
 5956SOL    HW218201   2.689   2.887   8.375
 5957SOL     OW18202   2.945   2.846   7.535
 5957SOL    HW118203   2.922   2.899   7.453
 5957SOL    HW218204   3.026   2.790   7.516
 5958SOL     OW18205   3.723   3.431   8.299
 5958SOL    HW118206   3.652   3.419   8.229
 5958SOL    HW218207   3.724   3.352   8.359
 5959SOL     OW18208   2.083   3.176   9.292
 5959SOL    HW118209   2.018   3.103   9.271
 5959SOL    HW218210   2.087   3.190   9.390
 5960SOL     OW18211   1.941   3.102   8.101
 5960SOL    HW118212   1.940   3.055   8.189
 5960SOL    HW218213   2.023   3.074   8.050
 5961SOL     OW18214   2.534   3.253   9.072
 5961SOL    HW118215   2.456   3.203   9.110
 5961SOL    HW218216   2.531   3.348   9.103
 5962SOL     OW18217   3.686   2.054   8.675
 5962SOL    HW118218   3.682   1.964   8.719
 5962SOL    HW218219   3.689   2.043   8.576
 5963SOL     OW18220   2.290   2.286   7.968
 5963SOL    HW118221   2.320   2.214   7.906
 5963SOL    HW218222   2.251   2.246   8.051
 5964SOL     OW18223   3.567   3.349   8.552
 5964SOL    HW118224   3.474   3.324   8.525
 5964SOL    HW218225   3.593   3.299   8.634
 5965SOL     OW18226   2.179   2.409   8.728
 5965SOL    HW118227   2.217   2.350   8.800
 5965SOL    HW218228   2.219   2.383   8.640
 5966SOL     OW18229   2.674   3.448   8.135
 5966SOL    HW118230   2.706   3.458   8.041
 5966SOL    HW218231   2.595   3.386   8.137
 5967SOL     OW18232   3.286   2.076   8.560
 5967SOL    HW118233   3.338   2.011   8.615
 5967SOL    HW218234   3.237   2.139   8.621
 5968SOL     OW18235   2.863   1.896   8.602
 5968SOL    HW118236   2.800   1.824   8.571
 5968SOL    HW218237   2.956   1.860   8.602
 5969SOL     OW18238   2.632   3.192   7.749
 5969SOL    HW118239   2.586   3.105   7.766
 5969SOL    HW218240   2.723   3.189   7.790
 5970SOL     OW18241   2.480   3.429   8.732
 5970SOL    HW118242   2.475   3.511   8.789
 5970SOL    HW218243   2.569   3.426   8.687
 5971SOL     OW18244   3.214   1.914   7.616
 5971SOL    HW118245   3.249   1.873   7.532
 5971SOL    HW218246   3.124   1.876   7.636
 5972SOL     OW18247   3.162   2.315   8.139
 5972SOL    HW118248   3.103   2.395   8.143
 5972SOL    HW218249   3.177   2.280   8.232
 5973SOL     OW18250   3.455   2.083   8.330
 5973SOL    HW118251   3.371   2.082   8.384
 5973SOL    HW218252   3.457   2.166   8.274
 5974SOL     OW18253   1.901   2.939   7.748
 5974SOL    HW118254   2.000   2.928   7.739
 5974SOL    HW218255   1.861   2.853   7.780
 5975SOL     OW18256   2.737   3.508   7.785
 5975SOL    HW118257   2.660   3.473   7.731
 5975SOL    HW218258   2.705   3.579   7.847
 5976SOL     OW18259   2.092   2.490   9.423
 5976SOL    HW118260   1.999   2.488   9.460
 5976SOL    HW218261   2.093   2.451   9.331
 5977SOL     OW18262   1.881   2.230   9.957
 5977SOL    HW118263   1.799   2.273   9.996
 5977SOL    HW218264   1.853   2.157   9.894
 5978SOL     OW18265   2.431   3.137  10.475
 5978SOL    HW118266   2.338   3.130  10.438
 5978SOL    HW218267   2.442   3.226  10.519
 5979SOL     OW18268   3.417   3.373  10.013
 5979SOL    HW118269   3.360   3.357  10.094
 5979SOL    HW218270   3.358   3.383   9.933
 5980SOL     OW18271   2.997   2.565  10.027
 5980SOL    HW118272   3.054   2.643  10.002
 5980SOL    HW218273   2.937   2.591  10.103
 5981SOL     OW18274   3.617   2.469   9.541
 5981SOL    HW118275   3.605   2.456   9.442
 5981SOL    HW218276   3.587   2.388   9.590
 5982SOL     OW18277   2.630   3.006  10.333
 5982SOL    HW118278   2.552   3.023  10.393
 5982SOL    HW218279   2.664   3.093  10.297
 5983SOL     OW18280   2.712   2.660  11.133
 5983SOL    HW118281   2.708   2.736  11.198
 5983SOL    HW218282   2.734   2.696  11.042
 5984SOL     OW18283   2.547   2.874   9.975
 5984SOL    HW118284   2.616   2.858  10.045
 5984SOL    HW218285   2.474   2.931  10.013
 5985SOL     OW18286   2.548   3.023  11.113
 5985SOL    HW118287   2.608   3.102  11.127
 5985SOL    HW218288   2.462   3.054  11.072
 5986SOL     OW18289   2.197   3.297  10.371
 5986SOL    HW118290   2.119   3.266  10.318
 5986SOL    HW218291   2.255   3.355  10.314
 5987SOL     OW18292   3.322   3.367  10.649
 5987SOL    HW118293   3.346   3.461  10.675
 5987SOL    HW218294   3.306   3.313  10.731
 5988SOL     OW18295   2.300   2.254  10.809
 5988SOL    HW118296   2.382   2.198  10.818
 5988SOL    HW218297   2.219   2.196  10.813
 5989SOL     OW18298   3.465   2.309  10.047
 5989SOL    HW118299   3.391   2.355   9.997
 5989SOL    HW218300   3.516   2.377  10.100
 5990SOL     OW18301   2.093   3.575   9.793
 5990SOL    HW118302   2.127   3.652   9.847
 5990SOL    HW218303   2.137   3.575   9.703
 5991SOL     OW18304   2.989   3.203  11.000
 5991SOL    HW118305   3.036   3.203  11.088
 5991SOL    HW218306   2.941   3.116  10.989
 5992SOL     OW18307   2.092   3.296   9.848
 5992SOL    HW118308   2.066   3.392   9.848
 5992SOL    HW218309   2.021   3.242   9.893
 5993SOL     OW18310   2.102   2.953  10.196
 5993SOL    HW118311   2.116   2.869  10.248
 5993SOL    HW218312   2.047   3.017  10.251
 5994SOL     OW18313   2.482   3.648  10.749
 5994SOL    HW118314   2.390   3.631  10.784
 5994SOL    HW218315   2.510   3.740  10.775
 5995SOL     OW18316   2.468   2.826   9.433
 5995SOL    HW118317   2.475   2.910   9.379
 5995SOL    HW218318   2.514   2.839   9.521
 5996SOL     OW18319   3.456   1.976  10.790
 5996SOL    HW118320   3.438   2.043  10.718
 5996SOL    HW218321   3.453   2.022  10.879
 5997SOL     OW18322   1.984   2.505   9.873
 5997SOL    HW118323   1.939   2.417   9.890
 5997SOL    HW218324   1.983   2.559   9.957
 5998SOL     OW18325   3.704   3.629   9.669
 5998SOL    HW118326   3.758   3.600   9.749
 5998SOL    HW218327   3.734   3.719   9.640
 5999SOL     OW18328   1.889   3.458   9.427
 5999SOL    HW118329   1.870   3.362   9.448
 5999SOL    HW218330   1.856   3.516   9.502
 6000SOL     OW18331   3.551   2.784   9.922
 6000SOL    HW118332   3.646   2.755   9.930
 6000SOL    HW218333   3.543   2.849   9.847
 6001SOL     OW18334   3.503   2.970   9.742
 6001SOL    HW118335   3.589   2.972   9.690
 6001SOL    HW218336   3.517   3.017   9.830
 6002SOL     OW18337   1.975   2.599  10.907
 6002SOL    HW118338   2.063   2.586  10.952
 6002SOL    HW218339   1.962   2.696  10.885
 6003SOL     OW18340   2.475   3.227  10.036
 6003SOL    HW118341   2.426   3.140  10.045
 6003SOL    HW218342   2.452   3.270   9.949
 6004SOL     OW18343   3.155   3.090  10.733
 6004SOL    HW118344   3.192   3.017  10.675
 6004SOL    HW218345   3.207   3.095  10.818
 6005SOL     OW18346   2.671   1.866   9.812
 6005SOL    HW118347   2.711   1.957   9.803
 6005SOL    HW218348   2.571   1.874   9.818
 6006SOL     OW18349   2.059   2.838  10.574
 6006SOL    HW118350   2.148   2.793  10.560
 6006SOL    HW218351   1.986   2.773  10.555
 6007SOL     OW18352   3.387   2.861   9.500
 6007SOL    HW118353   3.324   2.785   9.513
 6007SOL    HW218354   3.435   2.879   9.586
 6008SOL     OW18355   3.049   3.654  10.926
 6008SOL    HW118356   3.073   3.714  10.850
 6008SOL    HW218357   3.056   3.559  10.896
 6009SOL     OW18358   2.179   2.113  11.111
 6009SOL    HW118359   2.250   2.184  11.117
 6009SOL    HW218360   2.091   2.152  11.139
 6010SOL     OW18361   3.328   3.279  10.263
 6010SOL    HW118362   3.269   3.285  10.343
 6010SOL    HW218363   3.313   3.191  10.217
 6011SOL     OW18364   3.529   3.576   9.882
 6011SOL    HW118365   3.488   3.553   9.794
 6011SOL    HW218366   3.511   3.502   9.947
 6012SOL     OW18367   2.460   2.591   9.580
 6012SOL    HW118368   2.484   2.660   9.512
 6012SOL    HW218369   2.382   2.624   9.634
 6013SOL     OW18370   3.143   2.207  10.254
 6013SOL    HW118371   3.057   2.157  10.241
 6013SOL    HW218372   3.205   2.153  10.310
 6014SOL     OW18373   3.438   3.524   9.617
 6014SOL    HW118374   3.527   3.570   9.620
 6014SOL    HW218375   3.417   3.500   9.522
 6015SOL     OW18376   2.669   2.467  10.775
 6015SOL    HW118377   2.622   2.464  10.864
 6015SOL    HW218378   2.618   2.412  10.709
 6016SOL     OW18379   3.256   2.331  10.984
 6016SOL    HW118380   3.236   2.374  11.072
 6016SOL    HW218381   3.334   2.269  10.993
 6017SOL     OW18382   2.835   2.752  10.882
 6017SOL    HW118383   2.881   2.668  10.853
 6017SOL    HW218384   2.779   2.786  10.807
 6018SOL     OW18385   2.853   2.272  10.552
 6018SOL    HW118386   2.776   2.306  10.606
 6018SOL    HW218387   2.819   2.221  10.473
 6019SOL     OW18388   2.903   2.563   9.739
 6019SOL    HW118389   2.929   2.559   9.835
 6019SOL    HW218390   2.818   2.512   9.725
 6020SOL     OW18391   1.938   2.673  10.099
 6020SOL    HW118392   2.037   2.661  10.108
 6020SOL    HW218393   1.914   2.768  10.120
 6021SOL     OW18394   1.992   3.683  10.881
 6021SOL    HW118395   1.982   3.668  10.980
 6021SOL    HW218396   1.906   3.719  10.845
 6022SOL     OW18397   2.727   2.210   9.505
 6022SOL    HW118398   2.786   2.273   9.456
 6022SOL    HW218399   2.746   2.116   9.476
 6023SOL     OW18400   3.581   2.447  11.141
 6023SOL    HW118401   3.555   2.536  11.105
 6023SOL    HW218402   3.579   2.379  11.068
 6024SOL     OW18403   3.224   3.006   9.855
 6024SOL    HW118404   3.307   2.977   9.807
 6024SOL    HW218405   3.175   3.073   9.799
 6025SOL     OW18406   2.412   2.058  10.195
 6025SOL    HW118407   2.407   2.053  10.295
 6025SOL    HW218408   2.414   2.154  10.166
 6026SOL     OW18409   2.870   3.318   9.787
 6026SOL    HW118410   2.824   3.390   9.735
 6026SOL    HW218411   2.866   3.338   9.885
 6027SOL     OW18412   2.213   3.663  10.163
 6027SOL    HW118413   2.263   3.577  10.169
 6027SOL    HW218414   2.278   3.740  10.160
 6028SOL     OW18415   3.657   2.928  10.183
 6028SOL    HW118416   3.595   2.913  10.107
 6028SOL    HW218417   3.605   2.939  10.268
 6029SOL     OW18418   3.089   3.412  10.816
 6029SOL    HW118419   3.095   3.335  10.880
 6029SOL    HW218420   3.037   3.386  10.736
 6030SOL     OW18421   2.183   2.805   9.552
 6030SOL    HW118422   2.265   2.844   9.510
 6030SOL    HW218423   2.156   2.723   9.503
 6031SOL     OW18424   3.320   2.597  10.038
 6031SOL    HW118425   3.315   2.532  10.113
 6031SOL    HW218426   3.400   2.656  10.051
 6032SOL     OW18427   2.323   3.128  11.037
 6032SOL    HW118428   2.273   3.129  10.951
 6032SOL    HW218429   2.260   3.110  11.113
 6033SOL     OW18430   2.973   3.638   9.547
 6033SOL    HW118431   2.913   3.576   9.597
 6033SOL    HW218432   3.004   3.594   9.462
 6034SOL     OW18433   3.494   3.239   9.391
 6034SOL    HW118434   3.462   3.333   9.381
 6034SOL    HW218435   3.418   3.176   9.379
 6035SOL     OW18436   2.326   3.605   9.633
 6035SOL    HW118437   2.359   3.644   9.719
 6035SOL    HW218438   2.402   3.598   9.568
 6036SOL     OW18439   3.262   1.969   9.736
 6036SOL    HW118440   3.238   1.932   9.646
 6036SOL    HW218441   3.361   1.985   9.740
 6037SOL     OW18442   2.111   3.647  10.551
 6037SOL    HW118443   2.168   3.582  10.601
 6037SOL    HW218444   2.095   3.614  10.458
 6038SOL     OW18445   2.802   3.560  10.214
 6038SOL    HW118446   2.882   3.503  10.235
 6038SOL    HW218447   2.753   3.520  10.137
 6039SOL     OW18448   2.244   2.562   9.790
 6039SOL    HW118449   2.289   2.472   9.787
 6039SOL    HW218450   2.150   2.551   9.823
 6040SOL     OW18451   3.409   2.084  11.039
 6040SOL    HW118452   3.404   2.121  11.131
 6040SOL    HW218453   3.337   2.015  11.027
 6041SOL     OW18454   2.476   1.984   9.427
 6041SOL    HW118455   2.574   1.962   9.434
 6041SOL    HW218456   2.445   1.967   9.334
 6042SOL     OW18457   2.643   2.126  11.059
 6042SOL    HW118458   2.710   2.065  11.102
 6042SOL    HW218459   2.570   2.145  11.124
 6043SOL     OW18460   2.750   3.376  10.505
 6043SOL    HW118461   2.727   3.351  10.411
 6043SOL    HW218462   2.811   3.307  10.544
 6044SOL     OW18463   3.213   2.452  10.743
 6044SOL    HW118464   3.241   2.409  10.828
 6044SOL    HW218465   3.238   2.548  10.744
 6045SOL     OW18466   2.665   3.264  10.234
 6045SOL    HW118467   2.755   3.278  10.192
 6045SOL    HW218468   2.594   3.266  10.163
 6046SOL     OW18469   2.784   2.365  10.209
 6046SOL    HW118470   2.759   2.356  10.113
 6046SOL    HW218471   2.832   2.283  10.240
 6047SOL     OW18472   2.401   1.926   9.822
 6047SOL    HW118473   2.320   1.927   9.880
 6047SOL    HW218474   2.404   2.009   9.767
 6048SOL     OW18475   3.296   3.050   9.351
 6048SOL    HW118476   3.328   2.974   9.408
 6048SOL    HW218477   3.204   3.077   9.381
 6049SOL     OW18478   2.797   2.098   9.790
 6049SOL    HW118479   2.749   2.139   9.712
 6049SOL    HW218480   2.896   2.096   9.771
 6050SOL     OW18481   2.938   2.545  10.774
 6050SOL    HW118482   2.858   2.484  10.777
 6050SOL    HW218483   3.019   2.492  10.750
 6051SOL     OW18484   3.089   3.432  10.103
 6051SOL    HW118485   3.110   3.506  10.038
 6051SOL    HW218486   3.157   3.432  10.176
 6052SOL     OW18487   2.321   3.014  10.051
 6052SOL    HW118488   2.250   2.987  10.116
 6052SOL    HW218489   2.295   2.986   9.958
 6053SOL     OW18490   3.133   3.659   9.901
 6053SOL    HW118491   3.177   3.723   9.837
 6053SOL    HW218492   3.083   3.711   9.971
 6054SOL     OW18493   2.894   2.411   9.326
 6054SOL    HW118494   2.853   2.493   9.287
 6054SOL    HW218495   2.958   2.437   9.399
 6055SOL     OW18496   1.940   2.418  10.696
 6055SOL    HW118497   2.032   2.417  10.655
 6055SOL    HW218498   1.934   2.492  10.763
 6056SOL     OW18499   2.423   2.084  10.457
 6056SOL    HW118500   2.461   2.000  10.494
 6056SOL    HW218501   2.335   2.103  10.501
 6057SOL     OW18502   2.728   2.316   9.952
 6057SOL    HW118503   2.696   2.388   9.890
 6057SOL    HW218504   2.752   2.235   9.899
 6058SOL     OW18505   2.879   1.901  10.063
 6058SOL    HW118506   2.807   1.906   9.994
 6058SOL    HW218507   2.855   1.832  10.132
 6059SOL     OW18508   3.291   3.035  10.177
 6059SOL    HW118509   3.236   2.951  10.170
 6059SOL    HW218510   3.317   3.064  10.085
 6060SOL     OW18511   3.328   2.452  10.302
 6060SOL    HW118512   3.298   2.357  10.309
 6060SOL    HW218513   3.401   2.468  10.368
 6061SOL     OW18514   3.719   2.695   9.687
 6061SOL    HW118515   3.761   2.631   9.751
 6061SOL    HW218516   3.681   2.644   9.609
 6062SOL     OW18517   2.350   3.247   9.484
 6062SOL    HW118518   2.263   3.232   9.531
 6062SOL    HW218519   2.333   3.273   9.389
 6063SOL     OW18520   3.526   3.142   9.967
 6063SOL    HW118521   3.625   3.150   9.981
 6063SOL    HW218522   3.481   3.226   9.998
 6064SOL     OW18523   3.252   2.437   9.388
 6064SOL    HW118524   3.198   2.416   9.469
 6064SOL    HW218525   3.343   2.396   9.397
 6065SOL     OW18526   2.389   2.118   9.638
 6065SOL    HW118527   2.416   2.059   9.563
 6065SOL    HW218528   2.389   2.213   9.607
 6066SOL     OW18529   3.616   3.085  10.898
 6066SOL    HW118530   3.707   3.046  10.885
 6066SOL    HW218531   3.624   3.181  10.922
 6067SOL     OW18532   2.926   3.209  10.650
 6067SOL    HW118533   2.846   3.186  10.705
 6067SOL    HW218534   3.009   3.183  10.699
 6068SOL     OW18535   3.454   3.491  10.935
 6068SOL    HW118536   3.481   3.525  10.845
 6068SOL    HW218537   3.533   3.453  10.981
 6069SOL     OW18538   2.973   3.057  10.410
 6069SOL    HW118539   2.933   3.101  10.491
 6069SOL    HW218540   2.932   3.094  10.327
 6070SOL     OW18541   3.500   2.961  10.389
 6070SOL    HW118542   3.505   3.042  10.448
 6070SOL    HW218543   3.414   2.963  10.338
 6071SOL     OW18544   2.777   1.951  10.712
 6071SOL    HW118545   2.802   1.931  10.617
 6071SOL    HW218546   2.849   2.007  10.754
 6072SOL     OW18547   2.842   2.978  11.029
 6072SOL    HW118548   2.743   2.984  11.039
 6072SOL    HW218549   2.865   2.898  10.973
 6073SOL     OW18550   2.567   2.912   9.678
 6073SOL    HW118551   2.553   2.919   9.777
 6073SOL    HW218552   2.651   2.861   9.660
 6074SOL     OW18553   2.272   2.675  10.561
 6074SOL    HW118554   2.358   2.687  10.611
 6074SOL    HW218555   2.230   2.588  10.588
 6075SOL     OW18556   3.136   2.248  10.572
 6075SOL    HW118557   3.157   2.322  10.636
 6075SOL    HW218558   3.047   2.265  10.529
 6076SOL     OW18559   1.926   3.426  10.641
 6076SOL    HW118560   1.880   3.508  10.607
 6076SOL    HW218561   2.024   3.445  10.650
 6077SOL     OW18562   2.229   2.962   9.811
 6077SOL    HW118563   2.222   3.045   9.755
 6077SOL    HW218564   2.233   2.882   9.751
 6078SOL     OW18565   2.428   2.399  10.175
 6078SOL    HW118566   2.440   2.465  10.101
 6078SOL    HW218567   2.474   2.433  10.258
 6079SOL     OW18568   3.114   3.210   9.698
 6079SOL    HW118569   3.164   3.287   9.738
 6079SOL    HW218570   3.019   3.212   9.730
 6080SOL     OW18571   3.134   3.307  10.452
 6080SOL    HW118572   3.181   3.320  10.539
 6080SOL    HW218573   3.068   3.233  10.461
 6081SOL     OW18574   3.444   2.501   9.782
 6081SOL    HW118575   3.413   2.562   9.855
 6081SOL    HW218576   3.494   2.553   9.713
 6082SOL     OW18577   2.216   3.372  10.639
 6082SOL    HW118578   2.195   3.328  10.552
 6082SOL    HW218579   2.313   3.398  10.642
 6083SOL     OW18580   2.264   2.613  10.908
 6083SOL    HW118581   2.332   2.668  10.861
 6083SOL    HW218582   2.304   2.525  10.935
 6084SOL     OW18583   3.449   2.641  10.980
 6084SOL    HW118584   3.357   2.679  10.975
 6084SOL    HW218585   3.509   2.688  10.915
 6085SOL     OW18586   2.875   1.967  11.080
 6085SOL    HW118587   2.881   2.052  11.028
 6085SOL    HW218588   2.907   1.891  11.023
 6086SOL     OW18589   2.366   1.912  11.050
 6086SOL    HW118590   2.324   1.855  10.980
 6086SOL    HW218591   2.300   1.981  11.082
 6087SOL     OW18592   2.435   2.732  10.339
 6087SOL    HW118593   2.479   2.821  10.330
 6087SOL    HW218594   2.372   2.732  10.416
 6088SOL     OW18595   3.222   2.724  10.355
 6088SOL    HW118596   3.147   2.724  10.289
 6088SOL    HW218597   3.259   2.632  10.364
 6089SOL     OW18598   3.071   2.387   9.585
 6089SOL    HW118599   3.084   2.303   9.639
 6089SOL    HW218600   3.042   2.461   9.645
 6090SOL     OW18601   1.899   3.172  10.592
 6090SOL    HW118602   1.952   3.123  10.660
 6090SOL    HW218603   1.921   3.270  10.597
 6091SOL     OW18604   2.594   2.496  10.374
 6091SOL    HW118605   2.653   2.470  10.298
 6091SOL    HW218606   2.566   2.592  10.363
 6092SOL     OW18607   3.590   2.797  11.164
 6092SOL    HW118608   3.544   2.790  11.075
 6092SOL    HW218609   3.528   2.841  11.230
 6093SOL     OW18610   3.484   2.229   9.684
 6093SOL    HW118611   3.486   2.153   9.748
 6093SOL    HW218612   3.436   2.306   9.724
 6094SOL     OW18613   2.885   2.628  10.276
 6094SOL    HW118614   2.900   2.649  10.372
 6094SOL    HW218615   2.855   2.533  10.267
 6095SOL     OW18616   2.842   3.435  11.010
 6095SOL    HW118617   2.822   3.479  10.922
 6095SOL    HW218618   2.881   3.344  10.994
 6096SOL     OW18619   3.721   3.380  10.915
 6096SOL    HW118620   3.735   3.407  10.820
 6096SOL    HW218621   3.804   3.402  10.968
 6097SOL     OW18622   2.212   2.760  11.114
 6097SOL    HW118623   2.288   2.804  11.162
 6097SOL    HW218624   2.247   2.713  11.032
 6098SOL     OW18625   3.402   2.136   9.435
 6098SOL    HW118626   3.341   2.061   9.458
 6098SOL    HW218627   3.424   2.188   9.518
 6099SOL     OW18628   3.165   2.700   9.352
 6099SOL    HW118629   3.199   2.607   9.367
 6099SOL    HW218630   3.183   2.727   9.257
 6100SOL     OW18631   2.930   3.195  10.159
 6100SOL    HW118632   2.937   3.111  10.104
 6100SOL    HW218633   2.992   3.264  10.123
 6101SOL     OW18634   2.181   2.672  10.259
 6101SOL    HW118635   2.274   2.708  10.264
 6101SOL    HW218636   2.175   2.587  10.311
 6102SOL     OW18637   2.201   2.371  10.316
 6102SOL    HW118638   2.149   2.288  10.299
 6102SOL    HW218639   2.278   2.376  10.252
 6103SOL     OW18640   3.000   2.242  10.988
 6103SOL    HW118641   2.955   2.305  11.052
 6103SOL    HW218642   3.093   2.273  10.971
 6104SOL     OW18643   3.022   2.069  10.787
 6104SOL    HW118644   3.022   2.133  10.864
 6104SOL    HW218645   3.050   2.117  10.704
 6105SOL     OW18646   1.870   3.188   9.510
 6105SOL    HW118647   1.777   3.209   9.479
 6105SOL    HW218648   1.880   3.089   9.523
 6106SOL     OW18649   1.950   3.663  10.237
 6106SOL    HW118650   1.908   3.577  10.210
 6106SOL    HW218651   2.044   3.666  10.203
 6107SOL     OW18652   2.366   3.430  10.220
 6107SOL    HW118653   2.432   3.504  10.229
 6107SOL    HW218654   2.410   3.351  10.178
 6108SOL     OW18655   2.864   2.658  10.548
 6108SOL    HW118656   2.905   2.626  10.634
 6108SOL    HW218657   2.768   2.631  10.545
 6109SOL     OW18658   1.902   2.406  10.424
 6109SOL    HW118659   1.987   2.373  10.383
 6109SOL    HW218660   1.915   2.421  10.522
 6110SOL     OW18661   2.051   2.382  11.032
 6110SOL    HW118662   2.110   2.342  10.962
 6110SOL    HW218663   1.993   2.453  10.991
 6111SOL     OW18664   3.231   2.812  10.970
 6111SOL    HW118665   3.270   2.901  10.990
 6111SOL    HW218666   3.241   2.792  10.873
 6112SOL     OW18667   2.677   2.434   9.635
 6112SOL    HW118668   2.684   2.345   9.589
 6112SOL    HW218669   2.583   2.468   9.627
 6113SOL     OW18670   3.519   2.466  10.516
 6113SOL    HW118671   3.481   2.397  10.578
 6113SOL    HW218672   3.601   2.430  10.472
 6114SOL     OW18673   2.114   3.426  11.054
 6114SOL    HW118674   2.084   3.483  11.130
 6114SOL    HW218675   2.107   3.329  11.080
 6115SOL     OW18676   2.533   2.326  10.579
 6115SOL    HW118677   2.499   2.237  10.549
 6115SOL    HW218678   2.559   2.380  10.499
 6116SOL     OW18679   2.792   3.540  10.775
 6116SOL    HW118680   2.768   3.522  10.680
 6116SOL    HW218681   2.822   3.634  10.785
 6117SOL     OW18682   2.335   2.362   9.501
 6117SOL    HW118683   2.396   2.442   9.505
 6117SOL    HW218684   2.240   2.393   9.508
 6118SOL     OW18685   2.021   2.999  10.776
 6118SOL    HW118686   2.043   2.938  10.852
 6118SOL    HW218687   2.031   2.950  10.690
 6119SOL     OW18688   3.209   2.921  10.544
 6119SOL    HW118689   3.233   2.858  10.470
 6119SOL    HW218690   3.119   2.961  10.526
 6120SOL     OW18691   3.164   2.717   9.619
 6120SOL    HW118692   3.078   2.686   9.661
 6120SOL    HW218693   3.160   2.703   9.520
 6121SOL     OW18694   3.621   3.609  10.464
 6121SOL    HW118695   3.682   3.639  10.391
 6121SOL    HW218696   3.583   3.520  10.442
 6122SOL     OW18697   3.114   3.593  10.438
 6122SOL    HW118698   3.198   3.598  10.384
 6122SOL    HW218699   3.091   3.497  10.456
 6123SOL     OW18700   1.945   3.120  10.332
 6123SOL    HW118701   1.940   3.119  10.432
 6123SOL    HW218702   1.862   3.079  10.294
 6124SOL     OW18703   2.550   3.524  11.026
 6124SOL    HW118704   2.494   3.605  11.035
 6124SOL    HW218705   2.602   3.528  10.940
 6125SOL     OW18706   3.588   1.997   9.833
 6125SOL    HW118707   3.661   1.980   9.766
 6125SOL    HW218708   3.557   1.910   9.871
 6126SOL     OW18709   3.250   3.435   9.787
 6126SOL    HW118710   3.317   3.447   9.713
 6126SOL    HW218711   3.210   3.524   9.810
 6127SOL     OW18712   1.992   3.656  11.161
 6127SOL    HW118713   1.951   3.582  11.214
 6127SOL    HW218714   2.056   3.707  11.219
 6128SOL     OW18715   3.142   2.789   9.982
 6128SOL    HW118716   3.202   2.708   9.984
 6128SOL    HW218717   3.182   2.858   9.922
 6129SOL     OW18718   2.692   3.135  10.732
 6129SOL    HW118719   2.687   3.168  10.827
 6129SOL    HW218720   2.606   3.154  10.686
 6130SOL     OW18721   2.534   3.478   9.464
 6130SOL    HW118722   2.543   3.488   9.365
 6130SOL    HW218723   2.494   3.389   9.485
 6131SOL     OW18724   3.512   3.582  10.704
 6131SOL    HW118725   3.565   3.592  10.620
 6131SOL    HW218726   3.485   3.672  10.738
 6132SOL     OW18727   3.703   2.037  10.273
 6132SOL    HW118728   3.742   1.952  10.237
 6132SOL    HW218729   3.605   2.039  10.254
 6133SOL     OW18730   3.056   3.474   9.341
 6133SOL    HW118731   3.062   3.381   9.378
 6133SOL    HW218732   2.997   3.474   9.261
 6134SOL     OW18733   2.684   2.864  10.682
 6134SOL    HW118734   2.724   2.863  10.590
 6134SOL    HW218735   2.694   2.956  10.722
 6135SOL     OW18736   2.778   2.772   9.601
 6135SOL    HW118737   2.841   2.810   9.533
 6135SOL    HW218738   2.818   2.689   9.640
 6136SOL     OW18739   3.366   3.469   9.354
 6136SOL    HW118740   3.274   3.506   9.361
 6136SOL    HW218741   3.404   3.489   9.264
 6137SOL     OW18742   2.234   3.150  10.800
 6137SOL    HW118743   2.221   3.243  10.766
 6137SOL    HW218744   2.150   3.098  10.787
 6138SOL     OW18745   3.476   3.154  10.599
 6138SOL    HW118746   3.536   3.157  10.679
 6138SOL    HW218747   3.401   3.218  10.612
 6139SOL     OW18748   2.901   2.960  10.006
 6139SOL    HW118749   2.831   2.913  10.060
 6139SOL    HW218750   2.960   2.892   9.963
 6140SOL     OW18751   2.876   2.098  10.281
 6140SOL    HW118752   2.868   2.062  10.188
 6140SOL    HW218753   2.874   2.022  10.346
 6141SOL     OW18754   2.452   3.349   9.801
 6141SOL    HW118755   2.494   3.291   9.731
 6141SOL    HW218756   2.408   3.428   9.757
 6142SOL     OW18757   3.571   2.247  10.691
 6142SOL    HW118758   3.644   2.316  10.695
 6142SOL    HW218759   3.599   2.172  10.632
 6143SOL     OW18760   2.117   3.210   9.600
 6143SOL    HW118761   2.021   3.211   9.573
 6143SOL    HW218762   2.129   3.263   9.684
 6144SOL     OW18763   1.967   2.875  11.036
 6144SOL    HW118764   1.890   2.842  11.090
 6144SOL    HW218765   2.052   2.845  11.078
 6145SOL     OW18766   2.534   2.065  10.799
 6145SOL    HW118767   2.624   2.049  10.759
 6145SOL    HW218768   2.542   2.070  10.898
 6146SOL     OW18769   3.302   2.718  10.708
 6146SOL    HW118770   3.245   2.770  10.645
 6146SOL    HW218771   3.398   2.730  10.684
 6147SOL     OW18772   3.045   3.197   9.429
 6147SOL    HW118773   2.946   3.186   9.431
 6147SOL    HW218774   3.079   3.212   9.522
 6148SOL     OW18775   2.475   2.704  10.741
 6148SOL    HW118776   2.531   2.785  10.724
 6148SOL    HW218777   2.534   2.624  10.744
 6149SOL     OW18778   3.355   3.629  10.269
 6149SOL    HW118779   3.388   3.693  10.200
 6149SOL    HW218780   3.421   3.623  10.344
 6150SOL     OW18781   2.578   2.427  11.018
 6150SOL    HW118782   2.597   2.492  11.092
 6150SOL    HW218783   2.638   2.347  11.027
 6151SOL     OW18784   3.312   3.082  10.943
 6151SOL    HW118785   3.303   3.072  11.042
 6151SOL    HW218786   3.408   3.075  10.917
 6152SOL     OW18787   2.252   3.603  10.870
 6152SOL    HW118788   2.161   3.644  10.868
 6152SOL    HW218789   2.245   3.509  10.902
 6153SOL     OW18790   3.536   2.745  10.564
 6153SOL    HW118791   3.509   2.656  10.527
 6153SOL    HW218792   3.537   2.813  10.491
 6154SOL     OW18793   3.087   2.187   9.759
 6154SOL    HW118794   3.152   2.113   9.748
 6154SOL    HW218795   3.107   2.237   9.843
 6155SOL     OW18796   2.456   2.607   9.962
 6155SOL    HW118797   2.506   2.692   9.943
 6155SOL    HW218798   2.368   2.609   9.914
 6156SOL     OW18799   3.639   2.204  10.952
 6156SOL    HW118800   3.622   2.235  10.858
 6156SOL    HW218801   3.555   2.167  10.990
 6157SOL     OW18802   3.592   2.796  10.827
 6157SOL    HW118803   3.630   2.887  10.842
 6157SOL    HW218804   3.584   2.779  10.728
 6158SOL     OW18805   2.721   3.236   9.326
 6158SOL    HW118806   2.675   3.251   9.414
 6158SOL    HW218807   2.765   3.321   9.296
 6159SOL     OW18808   2.523   3.652  10.263
 6159SOL    HW118809   2.477   3.740  10.250
 6159SOL    HW218810   2.622   3.664  10.256
 6160SOL     OW18811   2.721   2.818  10.171
 6160SOL    HW118812   2.775   2.749  10.219
 6160SOL    HW218813   2.689   2.887  10.237
 6161SOL     OW18814   2.945   2.846   9.397
 6161SOL    HW118815   2.922   2.899   9.315
 6161SOL    HW218816   3.026   2.790   9.378
 6162SOL     OW18817   3.723   3.431  10.161
 6162SOL    HW118818   3.652   3.419  10.091
 6162SOL    HW218819   3.724   3.352  10.221
 6163SOL     OW18820   2.083   3.176  11.154
 6163SOL    HW118821   2.018   3.103  11.133
 6163SOL    HW218822   2.087   3.190  11.252
 6164SOL     OW18823   1.941   3.102   9.963
 6164SOL    HW118824   1.940   3.055  10.051
 6164SOL    HW218825   2.023   3.074   9.912
 6165SOL     OW18826   2.534   3.253  10.934
 6165SOL    HW118827   2.456   3.203  10.972
 6165SOL    HW218828   2.531   3.348  10.965
 6166SOL     OW18829   3.686   2.054  10.537
 6166SOL    HW118830   3.682   1.964  10.581
 6166SOL    HW218831   3.689   2.043  10.438
 6167SOL     OW18832   2.290   2.286   9.830
 6167SOL    HW118833   2.320   2.214   9.768
 6167SOL    HW218834   2.251   2.246   9.913
 6168SOL     OW18835   3.567   3.349  10.414
 6168SOL    HW118836   3.474   3.324  10.387
 6168SOL    HW218837   3.593   3.299  10.496
 6169SOL     OW18838   2.179   2.409  10.590
 6169SOL    HW118839   2.217   2.350  10.662
 6169SOL    HW218840   2.219   2.383  10.502
 6170SOL     OW18841   2.674   3.448   9.997
 6170SOL    HW118842   2.706   3.458   9.903
 6170SOL    HW218843   2.595   3.386   9.999
 6171SOL     OW18844   3.286   2.076  10.422
 6171SOL    HW118845   3.338   2.011  10.477
 6171SOL    HW218846   3.237   2.139  10.483
 6172SOL     OW18847   2.863   1.896  10.464
 6172SOL    HW118848   2.800   1.824  10.433
 6172SOL    HW218849   2.956   1.860  10.464
 6173SOL     OW18850   2.632   3.192   9.611
 6173SOL    HW118851   2.586   3.105   9.628
 6173SOL    HW218852   2.723   3.189   9.652
 6174SOL     OW18853   2.480   3.429  10.594
 6174SOL    HW118854   2.475   3.511  10.651
 6174SOL    HW218855   2.569   3.426  10.549
 6175SOL     OW18856   3.214   1.914   9.478
 6175SOL    HW118857   3.249   1.873   9.394
 6175SOL    HW218858   3.124   1.876   9.498
 6176SOL     OW18859   3.162   2.315  10.001
 6176SOL    HW118860   3.103   2.395  10.005
 6176SOL    HW218861   3.177   2.280  10.094
 6177SOL     OW18862   3.455   2.083  10.192
 6177SOL    HW118863   3.371   2.082  10.246
 6177SOL    HW218864   3.457   2.166  10.136
 6178SOL     OW18865   1.901   2.939   9.610
 6178SOL    HW118866   2.000   2.928   9.601
 6178SOL    HW218867   1.861   2.853   9.642
 6179SOL     OW18868   2.737   3.508   9.647
 6179SOL    HW118869   2.660   3.473   9.593
 6179SOL    HW218870   2.705   3.579   9.709
 6180SOL     OW18871   2.092   2.490  11.285
 6180SOL    HW118872   1.999   2.488  11.322
 6180SOL    HW218873   2.093   2.451  11.193
 6181SOL     OW18874   1.881   2.230  11.819
 6181SOL    HW118875   1.799   2.273  11.858
 6181SOL    HW218876   1.853   2.157  11.756
 6182SOL     OW18877   2.431   3.137  12.337
 6182SOL    HW118878   2.338   3.130  12.300
 6182SOL    HW218879   2.442   3.226  12.381
 6183SOL     OW18880   3.417   3.373  11.875
 6183SOL    HW118881   3.360   3.357  11.956
 6183SOL    HW218882   3.358   3.383  11.795
 6184SOL     OW18883   2.997   2.565  11.889
 6184SOL    HW118884   3.054   2.643  11.864
 6184SOL    HW218885   2.937   2.591  11.965
 6185SOL     OW18886   3.617   2.469  11.403
 6185SOL    HW118887   3.605   2.456  11.304
 6185SOL    HW218888   3.587   2.388  11.452
 6186SOL     OW18889   2.630   3.006  12.195
 6186SOL    HW118890   2.552   3.023  12.255
 6186SOL    HW218891   2.664   3.093  12.159
 6187SOL     OW18892   2.712   2.660  12.995
 6187SOL    HW118893   2.708   2.736  13.060
 6187SOL    HW218894   2.734   2.696  12.904
 6188SOL     OW18895   2.547   2.874  11.837
 6188SOL    HW118896   2.616   2.858  11.907
 6188SOL    HW218897   2.474   2.931  11.875
 6189SOL     OW18898   2.548   3.023  12.975
 6189SOL    HW118899   2.608   3.102  12.989
 6189SOL    HW218900   2.462   3.054  12.934
 6190SOL     OW18901   2.197   3.297  12.233
 6190SOL    HW118902   2.119   3.266  12.180
 6190SOL    HW218903   2.255   3.355  12.176
 6191SOL     OW18904   3.322   3.367  12.511
 6191SOL    HW118905   3.346   3.461  12.537
 6191SOL    HW218906   3.306   3.313  12.593
 6192SOL     OW18907   2.300   2.254  12.671
 6192SOL    HW118908   2.382   2.198  12.680
 6192SOL    HW218909   2.219   2.196  12.675
 6193SOL     OW18910   3.465   2.309  11.909
 6193SOL    HW118911   3.391   2.355  11.859
 6193SOL    HW218912   3.516   2.377  11.962
 6194SOL     OW18913   2.093   3.575  11.655
 6194SOL    HW118914   2.127   3.652  11.709
 6194SOL    HW218915   2.137   3.575  11.565
 6195SOL     OW18916   2.989   3.203  12.862
 6195SOL    HW118917   3.036   3.203  12.950
 6195SOL    HW218918   2.941   3.116  12.851
 6196SOL     OW18919   2.092   3.296  11.710
 6196SOL    HW118920   2.066   3.392  11.710
 6196SOL    HW218921   2.021   3.242  11.755
 6197SOL     OW18922   2.102   2.953  12.058
 6197SOL    HW118923   2.116   2.869  12.110
 6197SOL    HW218924   2.047   3.017  12.113
 6198SOL     OW18925   2.482   3.648  12.611
 6198SOL    HW118926   2.390   3.631  12.646
 6198SOL    HW218927   2.510   3.740  12.637
 6199SOL     OW18928   2.468   2.826  11.295
 6199SOL    HW118929   2.475   2.910  11.241
 6199SOL    HW218930   2.514   2.839  11.383
 6200SOL     OW18931   3.456   1.976  12.652
 6200SOL    HW118932   3.438   2.043  12.580
 6200SOL    HW218933   3.453   2.022  12.741
 6201SOL     OW18934   1.984   2.505  11.735
 6201SOL    HW118935   1.939   2.417  11.752
 6201SOL    HW218936   1.983   2.559  11.819
 6202SOL     OW18937   3.704   3.629  11.531
 6202SOL    HW118938   3.758   3.600  11.611
 6202SOL    HW218939   3.734   3.719  11.502
 6203SOL     OW18940   1.889   3.458  11.289
 6203SOL    HW118941   1.870   3.362  11.310
 6203SOL    HW218942   1.856   3.516  11.364
 6204SOL     OW18943   3.551   2.784  11.784
 6204SOL    HW118944   3.646   2.755  11.792
 6204SOL    HW218945   3.543   2.849  11.709
 6205SOL     OW18946   3.503   2.970  11.604
 6205SOL    HW118947   3.589   2.972  11.552
 6205SOL    HW218948   3.517   3.017  11.692
 6206SOL     OW18949   1.975   2.599  12.769
 6206SOL    HW118950   2.063   2.586  12.814
 6206SOL    HW218951   1.962   2.696  12.747
 6207SOL     OW18952   2.475   3.227  11.898
 6207SOL    HW118953   2.426   3.140  11.907
 6207SOL    HW218954   2.452   3.270  11.811
 6208SOL     OW18955   3.155   3.090  12.595
 6208SOL    HW118956   3.192   3.017  12.537
 6208SOL    HW218957   3.207   3.095  12.680
 6209SOL     OW18958   2.671   1.866  11.674
 6209SOL    HW118959   2.711   1.957  11.665
 6209SOL    HW218960   2.571   1.874  11.680
 6210SOL     OW18961   2.059   2.838  12.436
 6210SOL    HW118962   2.148   2.793  12.422
 6210SOL    HW218963   1.986   2.773  12.417
 6211SOL     OW18964   3.387   2.861  11.362
 6211SOL    HW118965   3.324   2.785  11.375
 6211SOL    HW218966   3.435   2.879  11.448
 6212SOL     OW18967   3.049   3.654  12.788
 6212SOL    HW118968   3.073   3.714  12.712
 6212SOL    HW218969   3.056   3.559  12.758
 6213SOL     OW18970   2.179   2.113  12.973
 6213SOL    HW118971   2.250   2.184  12.979
 6213SOL    HW218972   2.091   2.152  13.001
 6214SOL     OW18973   3.328   3.279  12.125
 6214SOL    HW118974   3.269   3.285  12.205
 6214SOL    HW218975   3.313   3.191  12.079
 6215SOL     OW18976   3.529   3.576  11.744
 6215SOL    HW118977   3.488   3.553  11.656
 6215SOL    HW218978   3.511   3.502  11.809
 6216SOL     OW18979   2.460   2.591  11.442
 6216SOL    HW118980   2.484   2.660  11.374
 6216SOL    HW218981   2.382   2.624  11.496
 6217SOL     OW18982   3.143   2.207  12.116
 6217SOL    HW118983   3.057   2.157  12.103
 6217SOL    HW218984   3.205   2.153  12.172
 6218SOL     OW18985   3.438   3.524  11.479
 6218SOL    HW118986   3.527   3.570  11.482
 6218SOL    HW218987   3.417   3.500  11.384
 6219SOL     OW18988   2.669   2.467  12.637
 6219SOL    HW118989   2.622   2.464  12.726
 6219SOL    HW218990   2.618   2.412  12.571
 6220SOL     OW18991   3.256   2.331  12.846
 6220SOL    HW118992   3.236   2.374  12.934
 6220SOL    HW218993   3.334   2.269  12.855
 6221SOL     OW18994   2.835   2.752  12.744
 6221SOL    HW118995   2.881   2.668  12.715
 6221SOL    HW218996   2.779   2.786  12.669
 6222SOL     OW18997   2.853   2.272  12.414
 6222SOL    HW118998   2.776   2.306  12.468
 6222SOL    HW218999   2.819   2.221  12.335
 6223SOL     OW19000   2.903   2.563  11.601
 6223SOL    HW119001   2.929   2.559  11.697
 6223SOL    HW219002   2.818   2.512  11.587
 6224SOL     OW19003   1.938   2.673  11.961
 6224SOL    HW119004   2.037   2.661  11.970
 6224SOL    HW219005   1.914   2.768  11.982
 6225SOL     OW19006   1.992   3.683  12.743
 6225SOL    HW119007   1.982   3.668  12.842
 6225SOL    HW219008   1.906   3.719  12.707
 6226SOL     OW19009   2.727   2.210  11.367
 6226SOL    HW119010   2.786   2.273  11.318
 6226SOL    HW219011   2.746   2.116  11.338
 6227SOL     OW19012   3.581   2.447  13.003
 6227SOL    HW119013   3.555   2.536  12.967
 6227SOL    HW219014   3.579   2.379  12.930
 6228SOL     OW19015   3.224   3.006  11.717
 6228SOL    HW119016   3.307   2.977  11.669
 6228SOL    HW219017   3.175   3.073  11.661
 6229SOL     OW19018   2.412   2.058  12.057
 6229SOL    HW119019   2.407   2.053  12.157
 6229SOL    HW219020   2.414   2.154  12.028
 6230SOL     OW19021   2.870   3.318  11.649
 6230SOL    HW119022   2.824   3.390  11.597
 6230SOL    HW219023   2.866   3.338  11.747
 6231SOL     OW19024   2.213   3.663  12.025
 6231SOL    HW119025   2.263   3.577  12.031
 6231SOL    HW219026   2.278   3.740  12.022
 6232SOL     OW19027   3.657   2.928  12.045
 6232SOL    HW119028   3.595   2.913  11.969
 6232SOL    HW219029   3.605   2.939  12.130
 6233SOL     OW19030   3.089   3.412  12.678
 6233SOL    HW119031   3.095   3.335  12.742
 6233SOL    HW219032   3.037   3.386  12.598
 6234SOL     OW19033   2.183   2.805  11.414
 6234SOL    HW119034   2.265   2.844  11.372
 6234SOL    HW219035   2.156   2.723  11.365
 6235SOL     OW19036   3.320   2.597  11.900
 6235SOL    HW119037   3.315   2.532  11.975
 6235SOL    HW219038   3.400   2.656  11.913
 6236SOL     OW19039   2.323   3.128  12.899
 6236SOL    HW119040   2.273   3.129  12.813
 6236SOL    HW219041   2.260   3.110  12.975
 6237SOL     OW19042   2.973   3.638  11.409
 6237SOL    HW119043   2.913   3.576  11.459
 6237SOL    HW219044   3.004   3.594  11.324
 6238SOL     OW19045   3.494   3.239  11.253
 6238SOL    HW119046   3.462   3.333  11.243
 6238SOL    HW219047   3.418   3.176  11.241
 6239SOL     OW19048   2.326   3.605  11.495
 6239SOL    HW119049   2.359   3.644  11.581
 6239SOL    HW219050   2.402   3.598  11.430
 6240SOL     OW19051   3.262   1.969  11.598
 6240SOL    HW119052   3.238   1.932  11.508
 6240SOL    HW219053   3.361   1.985  11.602
 6241SOL     OW19054   2.111   3.647  12.413
 6241SOL    HW119055   2.168   3.582  12.463
 6241SOL    HW219056   2.095   3.614  12.320
 6242SOL     OW19057   2.802   3.560  12.076
 6242SOL    HW119058   2.882   3.503  12.097
 6242SOL    HW219059   2.753   3.520  11.999
 6243SOL     OW19060   2.244   2.562  11.652
 6243SOL    HW119061   2.289   2.472  11.649
 6243SOL    HW219062   2.150   2.551  11.685
 6244SOL     OW19063   3.409   2.084  12.901
 6244SOL    HW119064   3.404   2.121  12.993
 6244SOL    HW219065   3.337   2.015  12.889
 6245SOL     OW19066   2.476   1.984  11.289
 6245SOL    HW119067   2.574   1.962  11.296
 6245SOL    HW219068   2.445   1.967  11.196
 6246SOL     OW19069   2.643   2.126  12.921
 6246SOL    HW119070   2.710   2.065  12.964
 6246SOL    HW219071   2.570   2.145  12.986
 6247SOL     OW19072   2.750   3.376  12.367
 6247SOL    HW119073   2.727   3.351  12.273
 6247SOL    HW219074   2.811   3.307  12.406
 6248SOL     OW19075   3.213   2.452  12.605
 6248SOL    HW119076   3.241   2.409  12.690
 6248SOL    HW219077   3.238   2.548  12.606
 6249SOL     OW19078   2.665   3.264  12.096
 6249SOL    HW119079   2.755   3.278  12.054
 6249SOL    HW219080   2.594   3.266  12.025
 6250SOL     OW19081   2.784   2.365  12.071
 6250SOL    HW119082   2.759   2.356  11.975
 6250SOL    HW219083   2.832   2.283  12.102
 6251SOL     OW19084   2.401   1.926  11.684
 6251SOL    HW119085   2.320   1.927  11.742
 6251SOL    HW219086   2.404   2.009  11.629
 6252SOL     OW19087   3.296   3.050  11.213
 6252SOL    HW119088   3.328   2.974  11.270
 6252SOL    HW219089   3.204   3.077  11.243
 6253SOL     OW19090   2.797   2.098  11.652
 6253SOL    HW119091   2.749   2.139  11.574
 6253SOL    HW219092   2.896   2.096  11.633
 6254SOL     OW19093   2.938   2.545  12.636
 6254SOL    HW119094   2.858   2.484  12.639
 6254SOL    HW219095   3.019   2.492  12.612
 6255SOL     OW19096   3.089   3.432  11.965
 6255SOL    HW119097   3.110   3.506  11.900
 6255SOL    HW219098   3.157   3.432  12.038
 6256SOL     OW19099   2.321   3.014  11.913
 6256SOL    HW119100   2.250   2.987  11.978
 6256SOL    HW219101   2.295   2.986  11.820
 6257SOL     OW19102   3.133   3.659  11.763
 6257SOL    HW119103   3.177   3.723  11.699
 6257SOL    HW219104   3.083   3.711  11.833
 6258SOL     OW19105   2.894   2.411  11.188
 6258SOL    HW119106   2.853   2.493  11.149
 6258SOL    HW219107   2.958   2.437  11.261
 6259SOL     OW19108   1.940   2.418  12.558
 6259SOL    HW119109   2.032   2.417  12.517
 6259SOL    HW219110   1.934   2.492  12.625
 6260SOL     OW19111   2.423   2.084  12.319
 6260SOL    HW119112   2.461   2.000  12.356
 6260SOL    HW219113   2.335   2.103  12.363
 6261SOL     OW19114   2.728   2.316  11.814
 6261SOL    HW119115   2.696   2.388  11.752
 6261SOL    HW219116   2.752   2.235  11.761
 6262SOL     OW19117   2.879   1.901  11.925
 6262SOL    HW119118   2.807   1.906  11.856
 6262SOL    HW219119   2.855   1.832  11.994
 6263SOL     OW19120   3.291   3.035  12.039
 6263SOL    HW119121   3.236   2.951  12.032
 6263SOL    HW219122   3.317   3.064  11.947
 6264SOL     OW19123   3.328   2.452  12.164
 6264SOL    HW119124   3.298   2.357  12.171
 6264SOL    HW219125   3.401   2.468  12.230
 6265SOL     OW19126   3.719   2.695  11.549
 6265SOL    HW119127   3.761   2.631  11.613
 6265SOL    HW219128   3.681   2.644  11.471
 6266SOL     OW19129   2.350   3.247  11.346
 6266SOL    HW119130   2.263   3.232  11.393
 6266SOL    HW219131   2.333   3.273  11.251
 6267SOL     OW19132   3.526   3.142  11.829
 6267SOL    HW119133   3.625   3.150  11.843
 6267SOL    HW219134   3.481   3.226  11.860
 6268SOL     OW19135   3.252   2.437  11.250
 6268SOL    HW119136   3.198   2.416  11.331
 6268SOL    HW219137   3.343   2.396  11.259
 6269SOL     OW19138   2.389   2.118  11.500
 6269SOL    HW119139   2.416   2.059  11.425
 6269SOL    HW219140   2.389   2.213  11.469
 6270SOL     OW19141   3.616   3.085  12.760
 6270SOL    HW119142   3.707   3.046  12.747
 6270SOL    HW219143   3.624   3.181  12.784
 6271SOL     OW19144   2.926   3.209  12.512
 6271SOL    HW119145   2.846   3.186  12.567
 6271SOL    HW219146   3.009   3.183  12.561
 6272SOL     OW19147   3.454   3.491  12.797
 6272SOL    HW119148   3.481   3.525  12.707
 6272SOL    HW219149   3.533   3.453  12.843
 6273SOL     OW19150   2.973   3.057  12.272
 6273SOL    HW119151   2.933   3.101  12.353
 6273SOL    HW219152   2.932   3.094  12.189
 6274SOL     OW19153   3.500   2.961  12.251
 6274SOL    HW119154   3.505   3.042  12.310
 6274SOL    HW219155   3.414   2.963  12.200
 6275SOL     OW19156   2.777   1.951  12.574
 6275SOL    HW119157   2.802   1.931  12.479
 6275SOL    HW219158   2.849   2.007  12.616
 6276SOL     OW19159   2.842   2.978  12.891
 6276SOL    HW119160   2.743   2.984  12.901
 6276SOL    HW219161   2.865   2.898  12.835
 6277SOL     OW19162   2.567   2.912  11.540
 6277SOL    HW119163   2.553   2.919  11.639
 6277SOL    HW219164   2.651   2.861  11.522
 6278SOL     OW19165   2.272   2.675  12.423
 6278SOL    HW119166   2.358   2.687  12.473
 6278SOL    HW219167   2.230   2.588  12.450
 6279SOL     OW19168   3.136   2.248  12.434
 6279SOL    HW119169   3.157   2.322  12.498
 6279SOL    HW219170   3.047   2.265  12.391
 6280SOL     OW19171   1.926   3.426  12.503
 6280SOL    HW119172   1.880   3.508  12.469
 6280SOL    HW219173   2.024   3.445  12.512
 6281SOL     OW19174   2.229   2.962  11.673
 6281SOL    HW119175   2.222   3.045  11.617
 6281SOL    HW219176   2.233   2.882  11.613
 6282SOL     OW19177   2.428   2.399  12.037
 6282SOL    HW119178   2.440   2.465  11.963
 6282SOL    HW219179   2.474   2.433  12.120
 6283SOL     OW19180   3.114   3.210  11.560
 6283SOL    HW119181   3.164   3.287  11.600
 6283SOL    HW219182   3.019   3.212  11.592
 6284SOL     OW19183   3.134   3.307  12.314
 6284SOL    HW119184   3.181   3.320  12.401
 6284SOL    HW219185   3.068   3.233  12.323
 6285SOL     OW19186   3.444   2.501  11.644
 6285SOL    HW119187   3.413   2.562  11.717
 6285SOL    HW219188   3.494   2.553  11.575
 6286SOL     OW19189   2.216   3.372  12.501
 6286SOL    HW119190   2.195   3.328  12.414
 6286SOL    HW219191   2.313   3.398  12.504
 6287SOL     OW19192   2.264   2.613  12.770
 6287SOL    HW119193   2.332   2.668  12.723
 6287SOL    HW219194   2.304   2.525  12.797
 6288SOL     OW19195   3.449   2.641  12.842
 6288SOL    HW119196   3.357   2.679  12.837
 6288SOL    HW219197   3.509   2.688  12.777
 6289SOL     OW19198   2.875   1.967  12.942
 6289SOL    HW119199   2.881   2.052  12.890
 6289SOL    HW219200   2.907   1.891  12.885
 6290SOL     OW19201   2.366   1.912  12.912
 6290SOL    HW119202   2.324   1.855  12.842
 6290SOL    HW219203   2.300   1.981  12.944
 6291SOL     OW19204   2.435   2.732  12.201
 6291SOL    HW119205   2.479   2.821  12.192
 6291SOL    HW219206   2.372   2.732  12.278
 6292SOL     OW19207   3.222   2.724  12.217
 6292SOL    HW119208   3.147   2.724  12.151
 6292SOL    HW219209   3.259   2.632  12.226
 6293SOL     OW19210   3.071   2.387  11.447
 6293SOL    HW119211   3.084   2.303  11.501
 6293SOL    HW219212   3.042   2.461  11.507
 6294SOL     OW19213   1.899   3.172  12.454
 6294SOL    HW119214   1.952   3.123  12.522
 6294SOL    HW219215   1.921   3.270  12.459
 6295SOL     OW19216   2.594   2.496  12.236
 6295SOL    HW119217   2.653   2.470  12.160
 6295SOL    HW219218   2.566   2.592  12.225
 6296SOL     OW19219   3.590   2.797  13.026
 6296SOL    HW119220   3.544   2.790  12.937
 6296SOL    HW219221   3.528   2.841  13.092
 6297SOL     OW19222   3.484   2.229  11.546
 6297SOL    HW119223   3.486   2.153  11.610
 6297SOL    HW219224   3.436   2.306  11.586
 6298SOL     OW19225   2.885   2.628  12.138
 6298SOL    HW119226   2.900   2.649  12.234
 6298SOL    HW219227   2.855   2.533  12.129
 6299SOL     OW19228   2.842   3.435  12.872
 6299SOL    HW119229   2.822   3.479  12.784
 6299SOL    HW219230   2.881   3.344  12.856
 6300SOL     OW19231   3.721   3.380  12.777
 6300SOL    HW119232   3.735   3.407  12.682
 6300SOL    HW219233   3.804   3.402  12.830
 6301SOL     OW19234   2.212   2.760  12.976
 6301SOL    HW119235   2.288   2.804  13.024
 6301SOL    HW219236   2.247   2.713  12.894
 6302SOL     OW19237   3.402   2.136  11.297
 6302SOL    HW119238   3.341   2.061  11.320
 6302SOL    HW219239   3.424   2.188  11.380
 6303SOL     OW19240   3.165   2.700  11.214
 6303SOL    HW119241   3.199   2.607  11.229
 6303SOL    HW219242   3.183   2.727  11.119
 6304SOL     OW19243   2.930   3.195  12.021
 6304SOL    HW119244   2.937   3.111  11.966
 6304SOL    HW219245   2.992   3.264  11.985
 6305SOL     OW19246   2.181   2.672  12.121
 6305SOL    HW119247   2.274   2.708  12.126
 6305SOL    HW219248   2.175   2.587  12.173
 6306SOL     OW19249   2.201   2.371  12.178
 6306SOL    HW119250   2.149   2.288  12.161
 6306SOL    HW219251   2.278   2.376  12.114
 6307SOL     OW19252   3.000   2.242  12.850
 6307SOL    HW119253   2.955   2.305  12.914
 6307SOL    HW219254   3.093   2.273  12.833
 6308SOL     OW19255   3.022   2.069  12.649
 6308SOL    HW119256   3.022   2.133  12.726
 6308SOL    HW219257   3.050   2.117  12.566
 6309SOL     OW19258   1.870   3.188  11.372
 6309SOL    HW119259   1.777   3.209  11.341
 6309SOL    HW219260   1.880   3.089  11.385
 6310SOL     OW19261   1.950   3.663  12.099
 6310SOL    HW119262   1.908   3.577  12.072
 6310SOL    HW219263   2.044   3.666  12.065
 6311SOL     OW19264   2.366   3.430  12.082
 6311SOL    HW119265   2.432   3.504  12.091
 6311SOL    HW219266   2.410   3.351  12.040
 6312SOL     OW19267   2.864   2.658  12.410
 6312SOL    HW119268   2.905   2.626  12.496
 6312SOL    HW219269   2.768   2.631  12.407
 6313SOL     OW19270   1.902   2.406  12.286
 6313SOL    HW119271   1.987   2.373  12.245
 6313SOL    HW219272   1.915   2.421  12.384
 6314SOL     OW19273   2.051   2.382  12.894
 6314SOL    HW119274   2.110   2.342  12.824
 6314SOL    HW219275   1.993   2.453  12.853
 6315SOL     OW19276   3.231   2.812  12.832
 6315SOL    HW119277   3.270   2.901  12.852
 6315SOL    HW219278   3.241   2.792  12.735
 6316SOL     OW19279   2.677   2.434  11.497
 6316SOL    HW119280   2.684   2.345  11.451
 6316SOL    HW219281   2.583   2.468  11.489
 6317SOL     OW19282   3.519   2.466  12.378
 6317SOL    HW119283   3.481   2.397  12.440
 6317SOL    HW219284   3.601   2.430  12.334
 6318SOL     OW19285   2.114   3.426  12.916
 6318SOL    HW119286   2.084   3.483  12.992
 6318SOL    HW219287   2.107   3.329  12.942
 6319SOL     OW19288   2.533   2.326  12.441
 6319SOL    HW119289   2.499   2.237  12.411
 6319SOL    HW219290   2.559   2.380  12.361
 6320SOL     OW19291   2.792   3.540  12.637
 6320SOL    HW119292   2.768   3.522  12.542
 6320SOL    HW219293   2.822   3.634  12.647
 6321SOL     OW19294   2.335   2.362  11.363
 6321SOL    HW119295   2.396   2.442  11.367
 6321SOL    HW219296   2.240   2.393  11.370
 6322SOL     OW19297   2.021   2.999  12.638
 6322SOL    HW119298   2.043   2.938  12.714
 6322SOL    HW219299   2.031   2.950  12.552
 6323SOL     OW19300   3.209   2.921  12.406
 6323SOL    HW119301   3.233   2.858  12.332
 6323SOL    HW219302   3.119   2.961  12.388
 6324SOL     OW19303   3.164   2.717  11.481
 6324SOL    HW119304   3.078   2.686  11.523
 6324SOL    HW219305   3.160   2.703  11.382
 6325SOL     OW19306   3.621   3.609  12.326
 6325SOL    HW119307   3.682   3.639  12.253
 6325SOL    HW219308   3.583   3.520  12.304
 6326SOL     OW19309   3.114   3.593  12.300
 6326SOL    HW119310   3.198   3.598  12.246
 6326SOL    HW219311   3.091   3.497  12.318
 6327SOL     OW19312   1.945   3.120  12.194
 6327SOL    HW119313   1.940   3.119  12.294
 6327SOL    HW219314   1.862   3.079  12.156
 6328SOL     OW19315   2.550   3.524  12.888
 6328SOL    HW119316   2.494   3.605  12.897
 6328SOL    HW219317   2.602   3.528  12.802
 6329SOL     OW19318   3.588   1.997  11.695
 6329SOL    HW119319   3.661   1.980  11.628
 6329SOL    HW219320   3.557   1.910  11.733
 6330SOL     OW19321   3.250   3.435  11.649
 6330SOL    HW119322   3.317   3.447  11.575
 6330SOL    HW219323   3.210   3.524  11.672
 6331SOL     OW19324   1.992   3.656  13.023
 6331SOL    HW119325   1.951   3.582  13.076
 6331SOL    HW219326   2.056   3.707  13.081
 6332SOL     OW19327   3.142   2.789  11.844
 6332SOL    HW119328   3.202   2.708  11.846
 6332SOL    HW219329   3.182   2.858  11.784
 6333SOL     OW19330   2.692   3.135  12.594
 6333SOL    HW119331   2.687   3.168  12.689
 6333SOL    HW219332   2.606   3.154  12.548
 6334SOL     OW19333   2.534   3.478  11.326
 6334SOL    HW119334   2.543   3.488  11.227
 6334SOL    HW219335   2.494   3.389  11.347
 6335SOL     OW19336   3.512   3.582  12.566
 6335SOL    HW119337   3.565   3.592  12.482
 6335SOL    HW219338   3.485   3.672  12.600
 6336SOL     OW19339   3.703   2.037  12.135
 6336SOL    HW119340   3.742   1.952  12.099
 6336SOL    HW219341   3.605   2.039  12.116
 6337SOL     OW19342   3.056   3.474  11.203
 6337SOL    HW119343   3.062   3.381  11.240
 6337SOL    HW219344   2.997   3.474  11.123
 6338SOL     OW19345   2.684   2.864  12.544
 6338SOL    HW119346   2.724   2.863  12.452
 6338SOL    HW219347   2.694   2.956  12.584
 6339SOL     OW19348   2.778   2.772  11.463
 6339SOL    HW119349   2.841   2.810  11.395
 6339SOL    HW219350   2.818   2.689  11.502
 6340SOL     OW19351   3.366   3.469  11.216
 6340SOL    HW119352   3.274   3.506  11.223
 6340SOL    HW219353   3.404   3.489  11.126
 6341SOL     OW19354   2.234   3.150  12.662
 6341SOL    HW119355   2.221   3.243  12.628
 6341SOL    HW219356   2.150   3.098  12.649
 6342SOL     OW19357   3.476   3.154  12.461
 6342SOL    HW119358   3.536   3.157  12.541
 6342SOL    HW219359   3.401   3.218  12.474
 6343SOL     OW19360   2.901   2.960  11.868
 6343SOL    HW119361   2.831   2.913  11.922
 6343SOL    HW219362   2.960   2.892  11.825
 6344SOL     OW19363   2.876   2.098  12.143
 6344SOL    HW119364   2.868   2.062  12.050
 6344SOL    HW219365   2.874   2.022  12.208
 6345SOL     OW19366   2.452   3.349  11.663
 6345SOL    HW119367   2.494   3.291  11.593
 6345SOL    HW219368   2.408   3.428  11.619
 6346SOL     OW19369   3.571   2.247  12.553
 6346SOL    HW119370   3.644   2.316  12.557
 6346SOL    HW219371   3.599   2.172  12.494
 6347SOL     OW19372   2.117   3.210  11.462
 6347SOL    HW119373   2.021   3.211  11.435
 6347SOL    HW219374   2.129   3.263  11.546
 6348SOL     OW19375   1.967   2.875  12.898
 6348SOL    HW119376   1.890   2.842  12.952
 6348SOL    HW219377   2.052   2.845  12.940
 6349SOL     OW19378   2.534   2.065  12.661
 6349SOL    HW119379   2.624   2.049  12.621
 6349SOL    HW219380   2.542   2.070  12.760
 6350SOL     OW19381   3.302   2.718  12.570
 6350SOL    HW119382   3.245   2.770  12.507
 6350SOL    HW219383   3.398   2.730  12.546
 6351SOL     OW19384   3.045   3.197  11.291
 6351SOL    HW119385   2.946   3.186  11.293
 6351SOL    HW219386   3.079   3.212  11.384
 6352SOL     OW19387   2.475   2.704  12.603
 6352SOL    HW119388   2.531   2.785  12.586
 6352SOL    HW219389   2.534   2.624  12.606
 6353SOL     OW19390   3.355   3.629  12.131
 6353SOL    HW119391   3.388   3.693  12.062
 6353SOL    HW219392   3.421   3.623  12.206
 6354SOL     OW19393   2.578   2.427  12.880
 6354SOL    HW119394   2.597   2.492  12.954
 6354SOL    HW219395   2.638   2.347  12.889
 6355SOL     OW19396   3.312   3.082  12.805
 6355SOL    HW119397   3.303   3.072  12.904
 6355SOL    HW219398   3.408   3.075  12.779
 6356SOL     OW19399   2.252   3.603  12.732
 6356SOL    HW119400   2.161   3.644  12.730
 6356SOL    HW219401   2.245   3.509  12.764
 6357SOL     OW19402   3.536   2.745  12.426
 6357SOL    HW119403   3.509   2.656  12.389
 6357SOL    HW219404   3.537   2.813  12.353
 6358SOL     OW19405   3.087   2.187  11.621
 6358SOL    HW119406   3.152   2.113  11.610
 6358SOL    HW219407   3.107   2.237  11.705
 6359SOL     OW19408   2.456   2.607  11.824
 6359SOL    HW119409   2.506   2.692  11.805
 6359SOL    HW219410   2.368   2.609  11.776
 6360SOL     OW19411   3.639   2.204  12.814
 6360SOL    HW119412   3.622   2.235  12.720
 6360SOL    HW219413   3.555   2.167  12.852
 6361SOL     OW19414   3.592   2.796  12.689
 6361SOL    HW119415   3.630   2.887  12.704
 6361SOL    HW219416   3.584   2.779  12.590
 6362SOL     OW19417   2.721   3.236  11.188
 6362SOL    HW119418   2.675   3.251  11.276
 6362SOL    HW219419   2.765   3.321  11.158
 6363SOL     OW19420   2.523   3.652  12.125
 6363SOL    HW119421   2.477   3.740  12.112
 6363SOL    HW219422   2.622   3.664  12.118
 6364SOL     OW19423   2.721   2.818  12.033
 6364SOL    HW119424   2.775   2.749  12.081
 6364SOL    HW219425   2.689   2.887  12.099
 6365SOL     OW19426   2.945   2.846  11.259
 6365SOL    HW119427   2.922   2.899  11.177
 6365SOL    HW219428   3.026   2.790  11.240
 6366SOL     OW19429   3.723   3.431  12.023
 6366SOL    HW119430   3.652   3.419  11.953
 6366SOL    HW219431   3.724   3.352  12.083
 6367SOL     OW19432   2.083   3.176  13.016
 6367SOL    HW119433   2.018   3.103  12.995
 6367SOL    HW219434   2.087   3.190  13.114
 6368SOL     OW19435   1.941   3.102  11.825
 6368SOL    HW119436   1.940   3.055  11.913
 6368SOL    HW219437   2.023   3.074  11.774
 6369SOL     OW19438   2.534   3.253  12.796
 6369SOL    HW119439   2.456   3.203  12.834
 6369SOL    HW219440   2.531   3.348  12.827
 6370SOL     OW19441   3.686   2.054  12.399
 6370SOL    HW119442   3.682   1.964  12.443
 6370SOL    HW219443   3.689   2.043  12.300
 6371SOL     OW19444   2.290   2.286  11.692
 6371SOL    HW119445   2.320   2.214  11.630
 6371SOL    HW219446   2.251   2.246  11.775
 6372SOL     OW19447   3.567   3.349  12.276
 6372SOL    HW119448   3.474   3.324  12.249
 6372SOL    HW219449   3.593   3.299  12.358
 6373SOL     OW19450   2.179   2.409  12.452
 6373SOL    HW119451   2.217   2.350  12.524
 6373SOL    HW219452   2.219   2.383  12.364
 6374SOL     OW19453   2.674   3.448  11.859
 6374SOL    HW119454   2.706   3.458  11.765
 6374SOL    HW219455   2.595   3.386  11.861
 6375SOL     OW19456   3.286   2.076  12.284
 6375SOL    HW119457   3.338   2.011  12.339
 6375SOL    HW219458   3.237   2.139  12.345
 6376SOL     OW19459   2.863   1.896  12.326
 6376SOL    HW119460   2.800   1.824  12.295
 6376SOL    HW219461   2.956   1.860  12.326
 6377SOL     OW19462   2.632   3.192  11.473
 6377SOL    HW119463   2.586   3.105  11.490
 6377SOL    HW219464   2.723   3.189  11.514
 6378SOL     OW19465   2.480   3.429  12.456
 6378SOL    HW119466   2.475   3.511  12.513
 6378SOL    HW219467   2.569   3.426  12.411
 6379SOL     OW19468   3.214   1.914  11.340
 6379SOL    HW119469   3.249   1.873  11.256
 6379SOL    HW219470   3.124   1.876  11.360
 6380SOL     OW19471   3.162   2.315  11.863
 6380SOL    HW119472   3.103   2.395  11.867
 6380SOL    HW219473   3.177   2.280  11.956
 6381SOL     OW19474   3.455   2.083  12.054
 6381SOL    HW119475   3.371   2.082  12.108
 6381SOL    HW219476   3.457   2.166  11.998
 6382SOL     OW19477   1.901   2.939  11.472
 6382SOL    HW119478   2.000   2.928  11.463
 6382SOL    HW219479   1.861   2.853  11.504
 6383SOL     OW19480   2.737   3.508  11.509
 6383SOL    HW119481   2.660   3.473  11.455
 6383SOL    HW219482   2.705   3.579  11.571
 6384SOL     OW19483   2.092   2.490  13.147
 6384SOL    HW119484   1.999   2.488  13.184
 6384SOL    HW219485   2.093   2.451  13.055
 6385SOL     OW19486   1.881   2.230  13.681
 6385SOL    HW119487   1.799   2.273  13.720
 6385SOL    HW219488   1.853   2.157  13.618
 6386SOL     OW19489   3.417   3.373  13.737
 6386SOL    HW119490   3.360   3.357  13.818
 6386SOL    HW219491   3.358   3.383  13.657
 6387SOL     OW19492   2.997   2.565  13.751
 6387SOL    HW119493   3.054   2.643  13.726
 6387SOL    HW219494   2.937   2.591  13.827
 6388SOL     OW19495   3.617   2.469  13.265
 6388SOL    HW119496   3.605   2.456  13.166
 6388SOL    HW219497   3.587   2.388  13.314
 6389SOL     OW19498   2.547   2.874  13.699
 6389SOL    HW119499   2.616   2.858  13.769
 6389SOL    HW219500   2.474   2.931  13.737
 6390SOL     OW19501   3.465   2.309  13.771
 6390SOL    HW119502   3.391   2.355  13.721
 6390SOL    HW219503   3.516   2.377  13.824
 6391SOL     OW19504   2.093   3.575  13.517
 6391SOL    HW119505   2.127   3.652  13.571
 6391SOL    HW219506   2.137   3.575  13.427
 6392SOL     OW19507   2.092   3.296  13.572
 6392SOL    HW119508   2.066   3.392  13.572
 6392SOL    HW219509   2.021   3.242  13.617
 6393SOL     OW19510   2.102   2.953  13.920
 6393SOL    HW119511   2.116   2.869  13.972
 6393SOL    HW219512   2.047   3.017  13.975
 6394SOL     OW19513   2.468   2.826  13.157
 6394SOL    HW119514   2.475   2.910  13.103
 6394SOL    HW219515   2.514   2.839  13.245
 6395SOL     OW19516   1.984   2.505  13.597
 6395SOL    HW119517   1.939   2.417  13.614
 6395SOL    HW219518   1.983   2.559  13.681
 6396SOL     OW19519   3.704   3.629  13.393
 6396SOL    HW119520   3.758   3.600  13.473
 6396SOL    HW219521   3.734   3.719  13.364
 6397SOL     OW19522   1.889   3.458  13.151
 6397SOL    HW119523   1.870   3.362  13.172
 6397SOL    HW219524   1.856   3.516  13.226
 6398SOL     OW19525   3.551   2.784  13.646
 6398SOL    HW119526   3.646   2.755  13.654
 6398SOL    HW219527   3.543   2.849  13.571
 6399SOL     OW19528   3.503   2.970  13.466
 6399SOL    HW119529   3.589   2.972  13.414
 6399SOL    HW219530   3.517   3.017  13.554
 6400SOL     OW19531   2.475   3.227  13.760
 6400SOL    HW119532   2.426   3.140  13.769
 6400SOL    HW219533   2.452   3.270  13.673
 6401SOL     OW19534   2.671   1.866  13.536
 6401SOL    HW119535   2.711   1.957  13.527
 6401SOL    HW219536   2.571   1.874  13.542
 6402SOL     OW19537   3.387   2.861  13.224
 6402SOL    HW119538   3.324   2.785  13.237
 6402SOL    HW219539   3.435   2.879  13.310
 6403SOL     OW19540   3.529   3.576  13.606
 6403SOL    HW119541   3.488   3.553  13.518
 6403SOL    HW219542   3.511   3.502  13.671
 6404SOL     OW19543   2.460   2.591  13.304
 6404SOL    HW119544   2.484   2.660  13.236
 6404SOL    HW219545   2.382   2.624  13.358
 6405SOL     OW19546   3.143   2.207  13.978
 6405SOL    HW119547   3.057   2.157  13.965
 6405SOL    HW219548   3.205   2.153  14.034
 6406SOL     OW19549   3.438   3.524  13.341
 6406SOL    HW119550   3.527   3.570  13.344
 6406SOL    HW219551   3.417   3.500  13.246
 6407SOL     OW19552   2.903   2.563  13.463
 6407SOL    HW119553   2.929   2.559  13.559
 6407SOL    HW219554   2.818   2.512  13.449
 6408SOL     OW19555   1.938   2.673  13.823
 6408SOL    HW119556   2.037   2.661  13.832
 6408SOL    HW219557   1.914   2.768  13.844
 6409SOL     OW19558   2.727   2.210  13.229
 6409SOL    HW119559   2.786   2.273  13.180
 6409SOL    HW219560   2.746   2.116  13.200
 6410SOL     OW19561   3.224   3.006  13.579
 6410SOL    HW119562   3.307   2.977  13.531
 6410SOL    HW219563   3.175   3.073  13.523
 6411SOL     OW19564   2.870   3.318  13.511
 6411SOL    HW119565   2.824   3.390  13.459
 6411SOL    HW219566   2.866   3.338  13.609
 6412SOL     OW19567   2.213   3.663  13.887
 6412SOL    HW119568   2.263   3.577  13.893
 6412SOL    HW219569   2.278   3.740  13.884
 6413SOL     OW19570   3.657   2.928  13.907
 6413SOL    HW119571   3.595   2.913  13.831
 6413SOL    HW219572   3.605   2.939  13.992
 6414SOL     OW19573   2.183   2.805  13.276
 6414SOL    HW119574   2.265   2.844  13.234
 6414SOL    HW219575   2.156   2.723  13.227
 6415SOL     OW19576   3.320   2.597  13.762
 6415SOL    HW119577   3.315   2.532  13.837
 6415SOL    HW219578   3.400   2.656  13.775
 6416SOL     OW19579   2.973   3.638  13.271
 6416SOL    HW119580   2.913   3.576  13.321
 6416SOL    HW219581   3.004   3.594  13.186
 6417SOL     OW19582   3.494   3.239  13.115
 6417SOL    HW119583   3.462   3.333  13.105
 6417SOL    HW219584   3.418   3.176  13.103
 6418SOL     OW19585   2.326   3.605  13.357
 6418SOL    HW119586   2.359   3.644  13.443
 6418SOL    HW219587   2.402   3.598  13.292
 6419SOL     OW19588   3.262   1.969  13.460
 6419SOL    HW119589   3.238   1.932  13.370
 6419SOL    HW219590   3.361   1.985  13.464
 6420SOL     OW19591   2.802   3.560  13.938
 6420SOL    HW119592   2.882   3.503  13.959
 6420SOL    HW219593   2.753   3.520  13.861
 6421SOL     OW19594   2.244   2.562  13.514
 6421SOL    HW119595   2.289   2.472  13.511
 6421SOL    HW219596   2.150   2.551  13.547
 6422SOL     OW19597   2.476   1.984  13.151
 6422SOL    HW119598   2.574   1.962  13.158
 6422SOL    HW219599   2.445   1.967  13.058
 6423SOL     OW19600   2.401   1.926  13.546
 6423SOL    HW119601   2.320   1.927  13.604
 6423SOL    HW219602   2.404   2.009  13.491
 6424SOL     OW19603   3.296   3.050  13.075
 6424SOL    HW119604   3.328   2.974  13.132
 6424SOL    HW219605   3.204   3.077  13.105
 6425SOL     OW19606   2.797   2.098  13.514
 6425SOL    HW119607   2.749   2.139  13.436
 6425SOL    HW219608   2.896   2.096  13.495
 6426SOL     OW19609   2.321   3.014  13.775
 6426SOL    HW119610   2.250   2.987  13.840
 6426SOL    HW219611   2.295   2.986  13.682
 6427SOL     OW19612   3.133   3.659  13.625
 6427SOL    HW119613   3.177   3.723  13.561
 6427SOL    HW219614   3.083   3.711  13.695
 6428SOL     OW19615   2.894   2.411  13.050
 6428SOL    HW119616   2.853   2.493  13.011
 6428SOL    HW219617   2.958   2.437  13.123
 6429SOL     OW19618   2.728   2.316  13.676
 6429SOL    HW119619   2.696   2.388  13.614
 6429SOL    HW219620   2.752   2.235  13.623
 6430SOL     OW19621   2.879   1.901  13.787
 6430SOL    HW119622   2.807   1.906  13.718
 6430SOL    HW219623   2.855   1.832  13.856
 6431SOL     OW19624   3.719   2.695  13.411
 6431SOL    HW119625   3.761   2.631  13.475
 6431SOL    HW219626   3.681   2.644  13.333
 6432SOL     OW19627   2.350   3.247  13.208
 6432SOL    HW119628   2.263   3.232  13.255
 6432SOL    HW219629   2.333   3.273  13.113
 6433SOL     OW19630   3.526   3.142  13.691
 6433SOL    HW119631   3.625   3.150  13.705
 6433SOL    HW219632   3.481   3.226  13.722
 6434SOL     OW19633   3.252   2.437  13.112
 6434SOL    HW119634   3.198   2.416  13.193
 6434SOL    HW219635   3.343   2.396  13.121
 6435SOL     OW19636   2.389   2.118  13.362
 6435SOL    HW119637   2.416   2.059  13.287
 6435SOL    HW219638   2.389   2.213  13.331
 6436SOL     OW19639   2.567   2.912  13.402
 6436SOL    HW119640   2.553   2.919  13.501
 6436SOL    HW219641   2.651   2.861  13.384
 6437SOL     OW19642   2.229   2.962  13.535
 6437SOL    HW119643   2.222   3.045  13.479
 6437SOL    HW219644   2.233   2.882  13.475
 6438SOL     OW19645   2.428   2.399  13.899
 6438SOL    HW119646   2.440   2.465  13.825
 6438SOL    HW219647   2.474   2.433  13.982
 6439SOL     OW19648   3.114   3.210  13.422
 6439SOL    HW119649   3.164   3.287  13.462
 6439SOL    HW219650   3.019   3.212  13.454
 6440SOL     OW19651   3.444   2.501  13.506
 6440SOL    HW119652   3.413   2.562  13.579
 6440SOL    HW219653   3.494   2.553  13.437
 6441SOL     OW19654   3.071   2.387  13.309
 6441SOL    HW119655   3.084   2.303  13.363
 6441SOL    HW219656   3.042   2.461  13.369
 6442SOL     OW19657   3.484   2.229  13.408
 6442SOL    HW119658   3.486   2.153  13.472
 6442SOL    HW219659   3.436   2.306  13.448
 6443SOL     OW19660   3.402   2.136  13.159
 6443SOL    HW119661   3.341   2.061  13.182
 6443SOL    HW219662   3.424   2.188  13.242
 6444SOL     OW19663   3.165   2.700  13.076
 6444SOL    HW119664   3.199   2.607  13.091
 6444SOL    HW219665   3.183   2.727  12.981
 6445SOL     OW19666   1.870   3.188  13.234
 6445SOL    HW119667   1.777   3.209  13.203
 6445SOL    HW219668   1.880   3.089  13.247
 6446SOL     OW19669   2.677   2.434  13.359
 6446SOL    HW119670   2.684   2.345  13.313
 6446SOL    HW219671   2.583   2.468  13.351
 6447SOL     OW19672   2.335   2.362  13.225
 6447SOL    HW119673   2.396   2.442  13.229
 6447SOL    HW219674   2.240   2.393  13.232
 6448SOL     OW19675   3.164   2.717  13.343
 6448SOL    HW119676   3.078   2.686  13.385
 6448SOL    HW219677   3.160   2.703  13.244
 6449SOL     OW19678   3.588   1.997  13.557
 6449SOL    HW119679   3.661   1.980  13.490
 6449SOL    HW219680   3.557   1.910  13.595
 6450SOL     OW19681   3.250   3.435  13.511
 6450SOL    HW119682   3.317   3.447  13.437
 6450SOL    HW219683   3.210   3.524  13.534
 6451SOL     OW19684   3.142   2.789  13.706
 6451SOL    HW119685   3.202   2.708  13.708
 6451SOL    HW219686   3.182   2.858  13.646
 6452SOL     OW19687   2.534   3.478  13.188
 6452SOL    HW119688   2.543   3.488  13.089
 6452SOL    HW219689   2.494   3.389  13.209
 6453SOL     OW19690   3.703   2.037  13.997
 6453SOL    HW119691   3.742   1.952  13.961
 6453SOL    HW219692   3.605   2.039  13.978
 6454SOL     OW19693   2.125   2.188  13.754
 6454SOL    HW119694   2.046   2.239  13.720
 6454SOL    HW219695   2.116   2.173  13.852
 6455SOL     OW19696   3.056   3.474  13.065
 6455SOL    HW119697   3.062   3.381  13.102
 6455SOL    HW219698   2.997   3.474  12.985
 6456SOL     OW19699   2.778   2.772  13.325
 6456SOL    HW119700   2.841   2.810  13.257
 6456SOL    HW219701   2.818   2.689  13.364
 6457SOL     OW19702   3.366   3.469  13.078
 6457SOL    HW119703   3.274   3.506  13.085
 6457SOL    HW219704   3.404   3.489  12.988
 6458SOL     OW19705   2.901   2.960  13.730
 6458SOL    HW119706   2.831   2.913  13.784
 6458SOL    HW219707   2.960   2.892  13.687
 6459SOL     OW19708   2.452   3.349  13.525
 6459SOL    HW119709   2.494   3.291  13.455
 6459SOL    HW219710   2.408   3.428  13.481
 6460SOL     OW19711   2.117   3.210  13.324
 6460SOL    HW119712   2.021   3.211  13.297
 6460SOL    HW219713   2.129   3.263  13.408
 6461SOL     OW19714   3.045   3.197  13.153
 6461SOL    HW119715   2.946   3.186  13.155
 6461SOL    HW219716   3.079   3.212  13.246
 6462SOL     OW19717   3.087   2.187  13.483
 6462SOL    HW119718   3.152   2.113  13.472
 6462SOL    HW219719   3.107   2.237  13.567
 6463SOL     OW19720   2.456   2.607  13.686
 6463SOL    HW119721   2.506   2.692  13.667
 6463SOL    HW219722   2.368   2.609  13.638
 6464SOL     OW19723   2.721   3.236  13.050
 6464SOL    HW119724   2.675   3.251  13.138
 6464SOL    HW219725   2.765   3.321  13.020
 6465SOL     OW19726   2.523   3.652  13.987
 6465SOL    HW119727   2.477   3.740  13.974
 6465SOL    HW219728   2.622   3.664  13.980
 6466SOL     OW19729   2.721   2.818  13.895
 6466SOL    HW119730   2.775   2.749  13.943
 6466SOL    HW219731   2.689   2.887  13.961
 6467SOL     OW19732   2.945   2.846  13.121
 6467SOL    HW119733   2.922   2.899  13.039
 6467SOL    HW219734   3.026   2.790  13.102
 6468SOL     OW19735   1.941   3.102  13.687
 6468SOL    HW119736   1.940   3.055  13.775
 6468SOL    HW219737   2.023   3.074  13.636
 6469SOL     OW19738   2.290   2.286  13.554
 6469SOL    HW119739   2.320   2.214  13.492
 6469SOL    HW219740   2.251   2.246  13.637
 6470SOL     OW19741   3.567   3.349  14.138
 6470SOL    HW119742   3.474   3.324  14.111
 6470SOL    HW219743   3.593   3.299  14.220
 6471SOL     OW19744   2.674   3.448  13.721
 6471SOL    HW119745   2.706   3.458  13.627
 6471SOL    HW219746   2.595   3.386  13.723
 6472SOL     OW19747   2.632   3.192  13.335
 6472SOL    HW119748   2.586   3.105  13.352
 6472SOL    HW219749   2.723   3.189  13.376
 6473SOL     OW19750   3.214   1.914  13.202
 6473SOL    HW119751   3.249   1.873  13.118
 6473SOL    HW219752   3.124   1.876  13.222
 6474SOL     OW19753   3.162   2.315  13.725
 6474SOL    HW119754   3.103   2.395  13.729
 6474SOL    HW219755   3.177   2.280  13.818
 6475SOL     OW19756   1.901   2.939  13.334
 6475SOL    HW119757   2.000   2.928  13.325
 6475SOL    HW219758   1.861   2.853  13.366
 6476SOL     OW19759   2.737   3.508  13.371
 6476SOL    HW119760   2.660   3.473  13.317
 6476SOL    HW219761   2.705   3.579  13.433
 6477SOL     OW19762   2.087   3.999   0.996
 6477SOL    HW119763   2.122   3.982   1.088
 6477SOL    HW219764   1.999   3.954   0.984
 6478SOL     OW19765   1.881   4.092   0.647
 6478SOL    HW119766   1.799   4.135   0.686
 6478SOL    HW219767   1.853   4.019   0.584
 6479SOL     OW19768   3.617   4.331   0.231
 6479SOL    HW119769   3.605   4.318   0.132
 6479SOL    HW219770   3.587   4.250   0.280
 6480SOL     OW19771   2.300   4.116   1.499
 6480SOL    HW119772   2.382   4.060   1.508
 6480SOL    HW219773   2.219   4.058   1.503
 6481SOL     OW19774   3.456   3.838   1.480
 6481SOL    HW119775   3.438   3.905   1.408
 6481SOL    HW219776   3.453   3.884   1.569
 6482SOL     OW19777   2.671   3.728   0.502
 6482SOL    HW119778   2.711   3.819   0.493
 6482SOL    HW219779   2.571   3.736   0.508
 6483SOL     OW19780   3.143   4.069   0.944
 6483SOL    HW119781   3.057   4.019   0.931
 6483SOL    HW219782   3.205   4.015   1.000
 6484SOL     OW19783   2.412   3.920   0.885
 6484SOL    HW119784   2.407   3.915   0.985
 6484SOL    HW219785   2.414   4.016   0.856
 6485SOL     OW19786   2.064   4.009   1.498
 6485SOL    HW119787   1.984   4.069   1.485
 6485SOL    HW219788   2.054   3.960   1.584
 6486SOL     OW19789   3.262   3.831   0.426
 6486SOL    HW119790   3.238   3.794   0.336
 6486SOL    HW219791   3.361   3.847   0.430
 6487SOL     OW19792   3.409   3.946   1.729
 6487SOL    HW119793   3.404   3.983   1.821
 6487SOL    HW219794   3.337   3.877   1.717
 6488SOL     OW19795   2.643   3.988   1.749
 6488SOL    HW119796   2.710   3.927   1.792
 6488SOL    HW219797   2.570   4.007   1.814
 6489SOL     OW19798   2.401   3.788   0.512
 6489SOL    HW119799   2.320   3.789   0.570
 6489SOL    HW219800   2.404   3.871   0.457
 6490SOL     OW19801   2.159   3.759   0.171
 6490SOL    HW119802   2.208   3.843   0.150
 6490SOL    HW219803   2.221   3.694   0.216
 6491SOL     OW19804   2.423   3.946   1.147
 6491SOL    HW119805   2.461   3.862   1.184
 6491SOL    HW219806   2.335   3.965   1.191
 6492SOL     OW19807   2.879   3.763   0.753
 6492SOL    HW119808   2.807   3.768   0.684
 6492SOL    HW219809   2.855   3.694   0.822
 6493SOL     OW19810   2.777   3.813   1.402
 6493SOL    HW119811   2.802   3.793   1.307
 6493SOL    HW219812   2.849   3.869   1.444
 6494SOL     OW19813   3.136   4.110   1.262
 6494SOL    HW119814   3.157   4.184   1.326
 6494SOL    HW219815   3.047   4.127   1.219
 6495SOL     OW19816   2.366   3.774   1.740
 6495SOL    HW119817   2.324   3.717   1.670
 6495SOL    HW219818   2.300   3.843   1.772
 6496SOL     OW19819   2.169   3.937   1.231
 6496SOL    HW119820   2.146   3.974   1.321
 6496SOL    HW219821   2.139   3.842   1.225
 6497SOL     OW19822   3.402   3.998   0.125
 6497SOL    HW119823   3.341   3.923   0.148
 6497SOL    HW219824   3.424   4.050   0.208
 6498SOL     OW19825   3.022   3.931   1.477
 6498SOL    HW119826   3.022   3.995   1.554
 6498SOL    HW219827   3.050   3.979   1.394
 6499SOL     OW19828   2.765   3.810   0.133
 6499SOL    HW119829   2.816   3.811   0.047
 6499SOL    HW219830   2.821   3.768   0.204
 6500SOL     OW19831   3.588   3.859   0.523
 6500SOL    HW119832   3.661   3.842   0.456
 6500SOL    HW219833   3.557   3.772   0.561
 6501SOL     OW19834   3.703   3.899   0.963
 6501SOL    HW119835   3.742   3.814   0.927
 6501SOL    HW219836   3.605   3.901   0.944
 6502SOL     OW19837   2.534   3.927   1.489
 6502SOL    HW119838   2.624   3.911   1.449
 6502SOL    HW219839   2.542   3.932   1.588
 6503SOL     OW19840   1.934   3.890   0.318
 6503SOL    HW119841   1.917   3.973   0.264
 6503SOL    HW219842   2.024   3.853   0.296
 6504SOL     OW19843   3.087   4.049   0.449
 6504SOL    HW119844   3.152   3.975   0.438
 6504SOL    HW219845   3.107   4.099   0.533
 6505SOL     OW19846   3.639   4.066   1.642
 6505SOL    HW119847   3.622   4.097   1.548
 6505SOL    HW219848   3.555   4.029   1.680
 6506SOL     OW19849   3.686   3.916   1.227
 6506SOL    HW119850   3.682   3.826   1.271
 6506SOL    HW219851   3.689   3.905   1.128
 6507SOL     OW19852   3.286   3.938   1.112
 6507SOL    HW119853   3.338   3.873   1.167
 6507SOL    HW219854   3.237   4.001   1.173
 6508SOL     OW19855   2.863   3.758   1.154
 6508SOL    HW119856   2.800   3.686   1.123
 6508SOL    HW219857   2.956   3.722   1.154
 6509SOL     OW19858   3.214   3.776   0.168
 6509SOL    HW119859   3.249   3.735   0.084
 6509SOL    HW219860   3.124   3.738   0.188
 6510SOL     OW19861   3.162   4.177   0.691
 6510SOL    HW119862   3.103   4.257   0.695
 6510SOL    HW219863   3.177   4.142   0.784
 6511SOL     OW19864   3.455   3.945   0.882
 6511SOL    HW119865   3.371   3.944   0.936
 6511SOL    HW219866   3.457   4.028   0.826
 6512SOL     OW19867   2.087   3.999   2.858
 6512SOL    HW119868   2.122   3.982   2.950
 6512SOL    HW219869   1.999   3.954   2.846
 6513SOL     OW19870   1.881   4.092   2.509
 6513SOL    HW119871   1.799   4.135   2.548
 6513SOL    HW219872   1.853   4.019   2.446
 6514SOL     OW19873   3.617   4.331   2.093
 6514SOL    HW119874   3.605   4.318   1.994
 6514SOL    HW219875   3.587   4.250   2.142
 6515SOL     OW19876   2.300   4.116   3.361
 6515SOL    HW119877   2.382   4.060   3.370
 6515SOL    HW219878   2.219   4.058   3.365
 6516SOL     OW19879   3.456   3.838   3.342
 6516SOL    HW119880   3.438   3.905   3.270
 6516SOL    HW219881   3.453   3.884   3.431
 6517SOL     OW19882   2.671   3.728   2.364
 6517SOL    HW119883   2.711   3.819   2.355
 6517SOL    HW219884   2.571   3.736   2.370
 6518SOL     OW19885   3.143   4.069   2.806
 6518SOL    HW119886   3.057   4.019   2.793
 6518SOL    HW219887   3.205   4.015   2.862
 6519SOL     OW19888   2.412   3.920   2.747
 6519SOL    HW119889   2.407   3.915   2.847
 6519SOL    HW219890   2.414   4.016   2.718
 6520SOL     OW19891   2.064   4.009   3.360
 6520SOL    HW119892   1.984   4.069   3.347
 6520SOL    HW219893   2.054   3.960   3.446
 6521SOL     OW19894   3.262   3.831   2.288
 6521SOL    HW119895   3.238   3.794   2.198
 6521SOL    HW219896   3.361   3.847   2.292
 6522SOL     OW19897   3.409   3.946   3.591
 6522SOL    HW119898   3.404   3.983   3.683
 6522SOL    HW219899   3.337   3.877   3.579
 6523SOL     OW19900   2.476   3.846   1.979
 6523SOL    HW119901   2.574   3.824   1.986
 6523SOL    HW219902   2.445   3.829   1.886
 6524SOL     OW19903   2.643   3.988   3.611
 6524SOL    HW119904   2.710   3.927   3.654
 6524SOL    HW219905   2.570   4.007   3.676
 6525SOL     OW19906   2.401   3.788   2.374
 6525SOL    HW119907   2.320   3.789   2.432
 6525SOL    HW219908   2.404   3.871   2.319
 6526SOL     OW19909   2.159   3.759   2.033
 6526SOL    HW119910   2.208   3.843   2.012
 6526SOL    HW219911   2.221   3.694   2.078
 6527SOL     OW19912   2.423   3.946   3.009
 6527SOL    HW119913   2.461   3.862   3.046
 6527SOL    HW219914   2.335   3.965   3.053
 6528SOL     OW19915   2.879   3.763   2.615
 6528SOL    HW119916   2.807   3.768   2.546
 6528SOL    HW219917   2.855   3.694   2.684
 6529SOL     OW19918   2.777   3.813   3.264
 6529SOL    HW119919   2.802   3.793   3.169
 6529SOL    HW219920   2.849   3.869   3.306
 6530SOL     OW19921   3.136   4.110   3.124
 6530SOL    HW119922   3.157   4.184   3.188
 6530SOL    HW219923   3.047   4.127   3.081
 6531SOL     OW19924   2.366   3.774   3.602
 6531SOL    HW119925   2.324   3.717   3.532
 6531SOL    HW219926   2.300   3.843   3.634
 6532SOL     OW19927   2.169   3.937   3.093
 6532SOL    HW119928   2.146   3.974   3.183
 6532SOL    HW219929   2.139   3.842   3.087
 6533SOL     OW19930   3.402   3.998   1.987
 6533SOL    HW119931   3.341   3.923   2.010
 6533SOL    HW219932   3.424   4.050   2.070
 6534SOL     OW19933   3.022   3.931   3.339
 6534SOL    HW119934   3.022   3.995   3.416
 6534SOL    HW219935   3.050   3.979   3.256
 6535SOL     OW19936   2.765   3.810   1.995
 6535SOL    HW119937   2.816   3.811   1.909
 6535SOL    HW219938   2.821   3.768   2.066
 6536SOL     OW19939   3.588   3.859   2.385
 6536SOL    HW119940   3.661   3.842   2.318
 6536SOL    HW219941   3.557   3.772   2.423
 6537SOL     OW19942   3.703   3.899   2.825
 6537SOL    HW119943   3.742   3.814   2.789
 6537SOL    HW219944   3.605   3.901   2.806
 6538SOL     OW19945   2.534   3.927   3.351
 6538SOL    HW119946   2.624   3.911   3.311
 6538SOL    HW219947   2.542   3.932   3.450
 6539SOL     OW19948   1.937   4.069   1.895
 6539SOL    HW119949   1.845   4.041   1.866
 6539SOL    HW219950   1.968   4.146   1.839
 6540SOL     OW19951   1.934   3.890   2.180
 6540SOL    HW119952   1.917   3.973   2.126
 6540SOL    HW219953   2.024   3.853   2.158
 6541SOL     OW19954   3.087   4.049   2.311
 6541SOL    HW119955   3.152   3.975   2.300
 6541SOL    HW219956   3.107   4.099   2.395
 6542SOL     OW19957   3.639   4.066   3.504
 6542SOL    HW119958   3.622   4.097   3.410
 6542SOL    HW219959   3.555   4.029   3.542
 6543SOL     OW19960   3.686   3.916   3.089
 6543SOL    HW119961   3.682   3.826   3.133
 6543SOL    HW219962   3.689   3.905   2.990
 6544SOL     OW19963   3.286   3.938   2.974
 6544SOL    HW119964   3.338   3.873   3.029
 6544SOL    HW219965   3.237   4.001   3.035
 6545SOL     OW19966   2.863   3.758   3.016
 6545SOL    HW119967   2.800   3.686   2.985
 6545SOL    HW219968   2.956   3.722   3.016
 6546SOL     OW19969   3.214   3.776   2.030
 6546SOL    HW119970   3.249   3.735   1.946
 6546SOL    HW219971   3.124   3.738   2.050
 6547SOL     OW19972   3.162   4.177   2.553
 6547SOL    HW119973   3.103   4.257   2.557
 6547SOL    HW219974   3.177   4.142   2.646
 6548SOL     OW19975   3.455   3.945   2.744
 6548SOL    HW119976   3.371   3.944   2.798
 6548SOL    HW219977   3.457   4.028   2.688
 6549SOL     OW19978   2.087   3.999   4.720
 6549SOL    HW119979   2.122   3.982   4.812
 6549SOL    HW219980   1.999   3.954   4.708
 6550SOL     OW19981   1.881   4.092   4.371
 6550SOL    HW119982   1.799   4.135   4.410
 6550SOL    HW219983   1.853   4.019   4.308
 6551SOL     OW19984   3.617   4.331   3.955
 6551SOL    HW119985   3.605   4.318   3.856
 6551SOL    HW219986   3.587   4.250   4.004
 6552SOL     OW19987   2.300   4.116   5.223
 6552SOL    HW119988   2.382   4.060   5.232
 6552SOL    HW219989   2.219   4.058   5.227
 6553SOL     OW19990   3.456   3.838   5.204
 6553SOL    HW119991   3.438   3.905   5.132
 6553SOL    HW219992   3.453   3.884   5.293
 6554SOL     OW19993   2.671   3.728   4.226
 6554SOL    HW119994   2.711   3.819   4.217
 6554SOL    HW219995   2.571   3.736   4.232
 6555SOL     OW19996   3.143   4.069   4.668
 6555SOL    HW119997   3.057   4.019   4.655
 6555SOL    HW219998   3.205   4.015   4.724
 6556SOL     OW19999   2.412   3.920   4.609
 6556SOL    HW120000   2.407   3.915   4.709
 6556SOL    HW220001   2.414   4.016   4.580
 6557SOL     OW20002   2.064   4.009   5.222
 6557SOL    HW120003   1.984   4.069   5.209
 6557SOL    HW220004   2.054   3.960   5.308
 6558SOL     OW20005   3.262   3.831   4.150
 6558SOL    HW120006   3.238   3.794   4.060
 6558SOL    HW220007   3.361   3.847   4.154
 6559SOL     OW20008   3.409   3.946   5.453
 6559SOL    HW120009   3.404   3.983   5.545
 6559SOL    HW220010   3.337   3.877   5.441
 6560SOL     OW20011   2.476   3.846   3.841
 6560SOL    HW120012   2.574   3.824   3.848
 6560SOL    HW220013   2.445   3.829   3.748
 6561SOL     OW20014   2.643   3.988   5.473
 6561SOL    HW120015   2.710   3.927   5.516
 6561SOL    HW220016   2.570   4.007   5.538
 6562SOL     OW20017   2.401   3.788   4.236
 6562SOL    HW120018   2.320   3.789   4.294
 6562SOL    HW220019   2.404   3.871   4.181
 6563SOL     OW20020   2.159   3.759   3.895
 6563SOL    HW120021   2.208   3.843   3.874
 6563SOL    HW220022   2.221   3.694   3.940
 6564SOL     OW20023   2.423   3.946   4.871
 6564SOL    HW120024   2.461   3.862   4.908
 6564SOL    HW220025   2.335   3.965   4.915
 6565SOL     OW20026   2.879   3.763   4.477
 6565SOL    HW120027   2.807   3.768   4.408
 6565SOL    HW220028   2.855   3.694   4.546
 6566SOL     OW20029   2.777   3.813   5.126
 6566SOL    HW120030   2.802   3.793   5.031
 6566SOL    HW220031   2.849   3.869   5.168
 6567SOL     OW20032   3.136   4.110   4.986
 6567SOL    HW120033   3.157   4.184   5.050
 6567SOL    HW220034   3.047   4.127   4.943
 6568SOL     OW20035   2.366   3.774   5.464
 6568SOL    HW120036   2.324   3.717   5.394
 6568SOL    HW220037   2.300   3.843   5.496
 6569SOL     OW20038   2.169   3.937   4.955
 6569SOL    HW120039   2.146   3.974   5.045
 6569SOL    HW220040   2.139   3.842   4.949
 6570SOL     OW20041   3.402   3.998   3.849
 6570SOL    HW120042   3.341   3.923   3.872
 6570SOL    HW220043   3.424   4.050   3.932
 6571SOL     OW20044   3.022   3.931   5.201
 6571SOL    HW120045   3.022   3.995   5.278
 6571SOL    HW220046   3.050   3.979   5.118
 6572SOL     OW20047   2.765   3.810   3.857
 6572SOL    HW120048   2.816   3.811   3.771
 6572SOL    HW220049   2.821   3.768   3.928
 6573SOL     OW20050   3.588   3.859   4.247
 6573SOL    HW120051   3.661   3.842   4.180
 6573SOL    HW220052   3.557   3.772   4.285
 6574SOL     OW20053   3.703   3.899   4.687
 6574SOL    HW120054   3.742   3.814   4.651
 6574SOL    HW220055   3.605   3.901   4.668
 6575SOL     OW20056   2.534   3.927   5.213
 6575SOL    HW120057   2.624   3.911   5.173
 6575SOL    HW220058   2.542   3.932   5.312
 6576SOL     OW20059   1.937   4.069   3.757
 6576SOL    HW120060   1.845   4.041   3.728
 6576SOL    HW220061   1.968   4.146   3.701
 6577SOL     OW20062   1.934   3.890   4.042
 6577SOL    HW120063   1.917   3.973   3.988
 6577SOL    HW220064   2.024   3.853   4.020
 6578SOL     OW20065   3.087   4.049   4.173
 6578SOL    HW120066   3.152   3.975   4.162
 6578SOL    HW220067   3.107   4.099   4.257
 6579SOL     OW20068   3.639   4.066   5.366
 6579SOL    HW120069   3.622   4.097   5.272
 6579SOL    HW220070   3.555   4.029   5.404
 6580SOL     OW20071   3.686   3.916   4.951
 6580SOL    HW120072   3.682   3.826   4.995
 6580SOL    HW220073   3.689   3.905   4.852
 6581SOL     OW20074   3.286   3.938   4.836
 6581SOL    HW120075   3.338   3.873   4.891
 6581SOL    HW220076   3.237   4.001   4.897
 6582SOL     OW20077   2.863   3.758   4.878
 6582SOL    HW120078   2.800   3.686   4.847
 6582SOL    HW220079   2.956   3.722   4.878
 6583SOL     OW20080   3.214   3.776   3.892
 6583SOL    HW120081   3.249   3.735   3.808
 6583SOL    HW220082   3.124   3.738   3.912
 6584SOL     OW20083   3.162   4.177   4.415
 6584SOL    HW120084   3.103   4.257   4.419
 6584SOL    HW220085   3.177   4.142   4.508
 6585SOL     OW20086   3.455   3.945   4.606
 6585SOL    HW120087   3.371   3.944   4.660
 6585SOL    HW220088   3.457   4.028   4.550
 6586SOL     OW20089   2.087   3.999   6.582
 6586SOL    HW120090   2.122   3.982   6.674
 6586SOL    HW220091   1.999   3.954   6.570
 6587SOL     OW20092   1.881   4.092   6.233
 6587SOL    HW120093   1.799   4.135   6.272
 6587SOL    HW220094   1.853   4.019   6.170
 6588SOL     OW20095   3.617   4.331   5.817
 6588SOL    HW120096   3.605   4.318   5.718
 6588SOL    HW220097   3.587   4.250   5.866
 6589SOL     OW20098   2.300   4.116   7.085
 6589SOL    HW120099   2.382   4.060   7.094
 6589SOL    HW220100   2.219   4.058   7.089
 6590SOL     OW20101   3.456   3.838   7.066
 6590SOL    HW120102   3.438   3.905   6.994
 6590SOL    HW220103   3.453   3.884   7.155
 6591SOL     OW20104   2.671   3.728   6.088
 6591SOL    HW120105   2.711   3.819   6.079
 6591SOL    HW220106   2.571   3.736   6.094
 6592SOL     OW20107   3.143   4.069   6.530
 6592SOL    HW120108   3.057   4.019   6.517
 6592SOL    HW220109   3.205   4.015   6.586
 6593SOL     OW20110   2.412   3.920   6.471
 6593SOL    HW120111   2.407   3.915   6.571
 6593SOL    HW220112   2.414   4.016   6.442
 6594SOL     OW20113   2.064   4.009   7.084
 6594SOL    HW120114   1.984   4.069   7.071
 6594SOL    HW220115   2.054   3.960   7.170
 6595SOL     OW20116   3.262   3.831   6.012
 6595SOL    HW120117   3.238   3.794   5.922
 6595SOL    HW220118   3.361   3.847   6.016
 6596SOL     OW20119   3.409   3.946   7.315
 6596SOL    HW120120   3.404   3.983   7.407
 6596SOL    HW220121   3.337   3.877   7.303
 6597SOL     OW20122   2.476   3.846   5.703
 6597SOL    HW120123   2.574   3.824   5.710
 6597SOL    HW220124   2.445   3.829   5.610
 6598SOL     OW20125   2.643   3.988   7.335
 6598SOL    HW120126   2.710   3.927   7.378
 6598SOL    HW220127   2.570   4.007   7.400
 6599SOL     OW20128   2.401   3.788   6.098
 6599SOL    HW120129   2.320   3.789   6.156
 6599SOL    HW220130   2.404   3.871   6.043
 6600SOL     OW20131   2.159   3.759   5.757
 6600SOL    HW120132   2.208   3.843   5.736
 6600SOL    HW220133   2.221   3.694   5.802
 6601SOL     OW20134   2.423   3.946   6.733
 6601SOL    HW120135   2.461   3.862   6.770
 6601SOL    HW220136   2.335   3.965   6.777
 6602SOL     OW20137   2.879   3.763   6.339
 6602SOL    HW120138   2.807   3.768   6.270
 6602SOL    HW220139   2.855   3.694   6.408
 6603SOL     OW20140   2.777   3.813   6.988
 6603SOL    HW120141   2.802   3.793   6.893
 6603SOL    HW220142   2.849   3.869   7.030
 6604SOL     OW20143   3.136   4.110   6.848
 6604SOL    HW120144   3.157   4.184   6.912
 6604SOL    HW220145   3.047   4.127   6.805
 6605SOL     OW20146   2.366   3.774   7.326
 6605SOL    HW120147   2.324   3.717   7.256
 6605SOL    HW220148   2.300   3.843   7.358
 6606SOL     OW20149   2.169   3.937   6.817
 6606SOL    HW120150   2.146   3.974   6.907
 6606SOL    HW220151   2.139   3.842   6.811
 6607SOL     OW20152   3.402   3.998   5.711
 6607SOL    HW120153   3.341   3.923   5.734
 6607SOL    HW220154   3.424   4.050   5.794
 6608SOL     OW20155   3.022   3.931   7.063
 6608SOL    HW120156   3.022   3.995   7.140
 6608SOL    HW220157   3.050   3.979   6.980
 6609SOL     OW20158   2.765   3.810   5.719
 6609SOL    HW120159   2.816   3.811   5.633
 6609SOL    HW220160   2.821   3.768   5.790
 6610SOL     OW20161   3.588   3.859   6.109
 6610SOL    HW120162   3.661   3.842   6.042
 6610SOL    HW220163   3.557   3.772   6.147
 6611SOL     OW20164   3.703   3.899   6.549
 6611SOL    HW120165   3.742   3.814   6.513
 6611SOL    HW220166   3.605   3.901   6.530
 6612SOL     OW20167   2.534   3.927   7.075
 6612SOL    HW120168   2.624   3.911   7.035
 6612SOL    HW220169   2.542   3.932   7.174
 6613SOL     OW20170   1.937   4.069   5.619
 6613SOL    HW120171   1.845   4.041   5.590
 6613SOL    HW220172   1.968   4.146   5.563
 6614SOL     OW20173   1.934   3.890   5.904
 6614SOL    HW120174   1.917   3.973   5.850
 6614SOL    HW220175   2.024   3.853   5.882
 6615SOL     OW20176   3.087   4.049   6.035
 6615SOL    HW120177   3.152   3.975   6.024
 6615SOL    HW220178   3.107   4.099   6.119
 6616SOL     OW20179   3.639   4.066   7.228
 6616SOL    HW120180   3.622   4.097   7.134
 6616SOL    HW220181   3.555   4.029   7.266
 6617SOL     OW20182   3.686   3.916   6.813
 6617SOL    HW120183   3.682   3.826   6.857
 6617SOL    HW220184   3.689   3.905   6.714
 6618SOL     OW20185   3.286   3.938   6.698
 6618SOL    HW120186   3.338   3.873   6.753
 6618SOL    HW220187   3.237   4.001   6.759
 6619SOL     OW20188   2.863   3.758   6.740
 6619SOL    HW120189   2.800   3.686   6.709
 6619SOL    HW220190   2.956   3.722   6.740
 6620SOL     OW20191   3.214   3.776   5.754
 6620SOL    HW120192   3.249   3.735   5.670
 6620SOL    HW220193   3.124   3.738   5.774
 6621SOL     OW20194   3.162   4.177   6.277
 6621SOL    HW120195   3.103   4.257   6.281
 6621SOL    HW220196   3.177   4.142   6.370
 6622SOL     OW20197   3.455   3.945   6.468
 6622SOL    HW120198   3.371   3.944   6.522
 6622SOL    HW220199   3.457   4.028   6.412
 6623SOL     OW20200   2.087   3.999   8.444
 6623SOL    HW120201   2.122   3.982   8.536
 6623SOL    HW220202   1.999   3.954   8.432
 6624SOL     OW20203   1.881   4.092   8.095
 6624SOL    HW120204   1.799   4.135   8.134
 6624SOL    HW220205   1.853   4.019   8.032
 6625SOL     OW20206   3.617   4.331   7.679
 6625SOL    HW120207   3.605   4.318   7.580
 6625SOL    HW220208   3.587   4.250   7.728
 6626SOL     OW20209   2.300   4.116   8.947
 6626SOL    HW120210   2.382   4.060   8.956
 6626SOL    HW220211   2.219   4.058   8.951
 6627SOL     OW20212   3.456   3.838   8.928
 6627SOL    HW120213   3.438   3.905   8.856
 6627SOL    HW220214   3.453   3.884   9.017
 6628SOL     OW20215   2.671   3.728   7.950
 6628SOL    HW120216   2.711   3.819   7.941
 6628SOL    HW220217   2.571   3.736   7.956
 6629SOL     OW20218   3.143   4.069   8.392
 6629SOL    HW120219   3.057   4.019   8.379
 6629SOL    HW220220   3.205   4.015   8.448
 6630SOL     OW20221   2.412   3.920   8.333
 6630SOL    HW120222   2.407   3.915   8.433
 6630SOL    HW220223   2.414   4.016   8.304
 6631SOL     OW20224   2.064   4.009   8.946
 6631SOL    HW120225   1.984   4.069   8.933
 6631SOL    HW220226   2.054   3.960   9.032
 6632SOL     OW20227   3.262   3.831   7.874
 6632SOL    HW120228   3.238   3.794   7.784
 6632SOL    HW220229   3.361   3.847   7.878
 6633SOL     OW20230   3.409   3.946   9.177
 6633SOL    HW120231   3.404   3.983   9.269
 6633SOL    HW220232   3.337   3.877   9.165
 6634SOL     OW20233   2.476   3.846   7.565
 6634SOL    HW120234   2.574   3.824   7.572
 6634SOL    HW220235   2.445   3.829   7.472
 6635SOL     OW20236   2.643   3.988   9.197
 6635SOL    HW120237   2.710   3.927   9.240
 6635SOL    HW220238   2.570   4.007   9.262
 6636SOL     OW20239   2.401   3.788   7.960
 6636SOL    HW120240   2.320   3.789   8.018
 6636SOL    HW220241   2.404   3.871   7.905
 6637SOL     OW20242   2.159   3.759   7.619
 6637SOL    HW120243   2.208   3.843   7.598
 6637SOL    HW220244   2.221   3.694   7.664
 6638SOL     OW20245   2.423   3.946   8.595
 6638SOL    HW120246   2.461   3.862   8.632
 6638SOL    HW220247   2.335   3.965   8.639
 6639SOL     OW20248   2.879   3.763   8.201
 6639SOL    HW120249   2.807   3.768   8.132
 6639SOL    HW220250   2.855   3.694   8.270
 6640SOL     OW20251   2.777   3.813   8.850
 6640SOL    HW120252   2.802   3.793   8.755
 6640SOL    HW220253   2.849   3.869   8.892
 6641SOL     OW20254   3.136   4.110   8.710
 6641SOL    HW120255   3.157   4.184   8.774
 6641SOL    HW220256   3.047   4.127   8.667
 6642SOL     OW20257   2.366   3.774   9.188
 6642SOL    HW120258   2.324   3.717   9.118
 6642SOL    HW220259   2.300   3.843   9.220
 6643SOL     OW20260   2.169   3.937   8.679
 6643SOL    HW120261   2.146   3.974   8.769
 6643SOL    HW220262   2.139   3.842   8.673
 6644SOL     OW20263   3.402   3.998   7.573
 6644SOL    HW120264   3.341   3.923   7.596
 6644SOL    HW220265   3.424   4.050   7.656
 6645SOL     OW20266   3.022   3.931   8.925
 6645SOL    HW120267   3.022   3.995   9.002
 6645SOL    HW220268   3.050   3.979   8.842
 6646SOL     OW20269   2.765   3.810   7.581
 6646SOL    HW120270   2.816   3.811   7.495
 6646SOL    HW220271   2.821   3.768   7.652
 6647SOL     OW20272   3.588   3.859   7.971
 6647SOL    HW120273   3.661   3.842   7.904
 6647SOL    HW220274   3.557   3.772   8.009
 6648SOL     OW20275   3.703   3.899   8.411
 6648SOL    HW120276   3.742   3.814   8.375
 6648SOL    HW220277   3.605   3.901   8.392
 6649SOL     OW20278   2.534   3.927   8.937
 6649SOL    HW120279   2.624   3.911   8.897
 6649SOL    HW220280   2.542   3.932   9.036
 6650SOL     OW20281   1.937   4.069   7.481
 6650SOL    HW120282   1.845   4.041   7.452
 6650SOL    HW220283   1.968   4.146   7.425
 6651SOL     OW20284   1.934   3.890   7.766
 6651SOL    HW120285   1.917   3.973   7.712
 6651SOL    HW220286   2.024   3.853   7.744
 6652SOL     OW20287   3.087   4.049   7.897
 6652SOL    HW120288   3.152   3.975   7.886
 6652SOL    HW220289   3.107   4.099   7.981
 6653SOL     OW20290   3.639   4.066   9.090
 6653SOL    HW120291   3.622   4.097   8.996
 6653SOL    HW220292   3.555   4.029   9.128
 6654SOL     OW20293   3.686   3.916   8.675
 6654SOL    HW120294   3.682   3.826   8.719
 6654SOL    HW220295   3.689   3.905   8.576
 6655SOL     OW20296   3.286   3.938   8.560
 6655SOL    HW120297   3.338   3.873   8.615
 6655SOL    HW220298   3.237   4.001   8.621
 6656SOL     OW20299   2.863   3.758   8.602
 6656SOL    HW120300   2.800   3.686   8.571
 6656SOL    HW220301   2.956   3.722   8.602
 6657SOL     OW20302   3.214   3.776   7.616
 6657SOL    HW120303   3.249   3.735   7.532
 6657SOL    HW220304   3.124   3.738   7.636
 6658SOL     OW20305   3.162   4.177   8.139
 6658SOL    HW120306   3.103   4.257   8.143
 6658SOL    HW220307   3.177   4.142   8.232
 6659SOL     OW20308   3.455   3.945   8.330
 6659SOL    HW120309   3.371   3.944   8.384
 6659SOL    HW220310   3.457   4.028   8.274
 6660SOL     OW20311   2.087   3.999  10.306
 6660SOL    HW120312   2.122   3.982  10.398
 6660SOL    HW220313   1.999   3.954  10.294
 6661SOL     OW20314   1.881   4.092   9.957
 6661SOL    HW120315   1.799   4.135   9.996
 6661SOL    HW220316   1.853   4.019   9.894
 6662SOL     OW20317   3.617   4.331   9.541
 6662SOL    HW120318   3.605   4.318   9.442
 6662SOL    HW220319   3.587   4.250   9.590
 6663SOL     OW20320   2.300   4.116  10.809
 6663SOL    HW120321   2.382   4.060  10.818
 6663SOL    HW220322   2.219   4.058  10.813
 6664SOL     OW20323   3.456   3.838  10.790
 6664SOL    HW120324   3.438   3.905  10.718
 6664SOL    HW220325   3.453   3.884  10.879
 6665SOL     OW20326   2.671   3.728   9.812
 6665SOL    HW120327   2.711   3.819   9.803
 6665SOL    HW220328   2.571   3.736   9.818
 6666SOL     OW20329   3.143   4.069  10.254
 6666SOL    HW120330   3.057   4.019  10.241
 6666SOL    HW220331   3.205   4.015  10.310
 6667SOL     OW20332   2.412   3.920  10.195
 6667SOL    HW120333   2.407   3.915  10.295
 6667SOL    HW220334   2.414   4.016  10.166
 6668SOL     OW20335   2.064   4.009  10.808
 6668SOL    HW120336   1.984   4.069  10.795
 6668SOL    HW220337   2.054   3.960  10.894
 6669SOL     OW20338   3.262   3.831   9.736
 6669SOL    HW120339   3.238   3.794   9.646
 6669SOL    HW220340   3.361   3.847   9.740
 6670SOL     OW20341   3.409   3.946  11.039
 6670SOL    HW120342   3.404   3.983  11.131
 6670SOL    HW220343   3.337   3.877  11.027
 6671SOL     OW20344   2.476   3.846   9.427
 6671SOL    HW120345   2.574   3.824   9.434
 6671SOL    HW220346   2.445   3.829   9.334
 6672SOL     OW20347   2.643   3.988  11.059
 6672SOL    HW120348   2.710   3.927  11.102
 6672SOL    HW220349   2.570   4.007  11.124
 6673SOL     OW20350   2.401   3.788   9.822
 6673SOL    HW120351   2.320   3.789   9.880
 6673SOL    HW220352   2.404   3.871   9.767
 6674SOL     OW20353   2.159   3.759   9.481
 6674SOL    HW120354   2.208   3.843   9.460
 6674SOL    HW220355   2.221   3.694   9.526
 6675SOL     OW20356   2.423   3.946  10.457
 6675SOL    HW120357   2.461   3.862  10.494
 6675SOL    HW220358   2.335   3.965  10.501
 6676SOL     OW20359   2.879   3.763  10.063
 6676SOL    HW120360   2.807   3.768   9.994
 6676SOL    HW220361   2.855   3.694  10.132
 6677SOL     OW20362   2.777   3.813  10.712
 6677SOL    HW120363   2.802   3.793  10.617
 6677SOL    HW220364   2.849   3.869  10.754
 6678SOL     OW20365   3.136   4.110  10.572
 6678SOL    HW120366   3.157   4.184  10.636
 6678SOL    HW220367   3.047   4.127  10.529
 6679SOL     OW20368   2.366   3.774  11.050
 6679SOL    HW120369   2.324   3.717  10.980
 6679SOL    HW220370   2.300   3.843  11.082
 6680SOL     OW20371   2.169   3.937  10.541
 6680SOL    HW120372   2.146   3.974  10.631
 6680SOL    HW220373   2.139   3.842  10.535
 6681SOL     OW20374   3.402   3.998   9.435
 6681SOL    HW120375   3.341   3.923   9.458
 6681SOL    HW220376   3.424   4.050   9.518
 6682SOL     OW20377   3.022   3.931  10.787
 6682SOL    HW120378   3.022   3.995  10.864
 6682SOL    HW220379   3.050   3.979  10.704
 6683SOL     OW20380   2.765   3.810   9.443
 6683SOL    HW120381   2.816   3.811   9.357
 6683SOL    HW220382   2.821   3.768   9.514
 6684SOL     OW20383   3.588   3.859   9.833
 6684SOL    HW120384   3.661   3.842   9.766
 6684SOL    HW220385   3.557   3.772   9.871
 6685SOL     OW20386   3.703   3.899  10.273
 6685SOL    HW120387   3.742   3.814  10.237
 6685SOL    HW220388   3.605   3.901  10.254
 6686SOL     OW20389   2.534   3.927  10.799
 6686SOL    HW120390   2.624   3.911  10.759
 6686SOL    HW220391   2.542   3.932  10.898
 6687SOL     OW20392   1.937   4.069   9.343
 6687SOL    HW120393   1.845   4.041   9.314
 6687SOL    HW220394   1.968   4.146   9.287
 6688SOL     OW20395   1.934   3.890   9.628
 6688SOL    HW120396   1.917   3.973   9.574
 6688SOL    HW220397   2.024   3.853   9.606
 6689SOL     OW20398   3.087   4.049   9.759
 6689SOL    HW120399   3.152   3.975   9.748
 6689SOL    HW220400   3.107   4.099   9.843
 6690SOL     OW20401   3.639   4.066  10.952
 6690SOL    HW120402   3.622   4.097  10.858
 6690SOL    HW220403   3.555   4.029  10.990
 6691SOL     OW20404   3.686   3.916  10.537
 6691SOL    HW120405   3.682   3.826  10.581
 6691SOL    HW220406   3.689   3.905  10.438
 6692SOL     OW20407   3.286   3.938  10.422
 6692SOL    HW120408   3.338   3.873  10.477
 6692SOL    HW220409   3.237   4.001  10.483
 6693SOL     OW20410   2.863   3.758  10.464
 6693SOL    HW120411   2.800   3.686  10.433
 6693SOL    HW220412   2.956   3.722  10.464
 6694SOL     OW20413   3.214   3.776   9.478
 6694SOL    HW120414   3.249   3.735   9.394
 6694SOL    HW220415   3.124   3.738   9.498
 6695SOL     OW20416   3.162   4.177  10.001
 6695SOL    HW120417   3.103   4.257  10.005
 6695SOL    HW220418   3.177   4.142  10.094
 6696SOL     OW20419   3.455   3.945  10.192
 6696SOL    HW120420   3.371   3.944  10.246
 6696SOL    HW220421   3.457   4.028  10.136
 6697SOL     OW20422   2.087   3.999  12.168
 6697SOL    HW120423   2.122   3.982  12.260
 6697SOL    HW220424   1.999   3.954  12.156
 6698SOL     OW20425   1.881   4.092  11.819
 6698SOL    HW120426   1.799   4.135  11.858
 6698SOL    HW220427   1.853   4.019  11.756
 6699SOL     OW20428   3.617   4.331  11.403
 6699SOL    HW120429   3.605   4.318  11.304
 6699SOL    HW220430   3.587   4.250  11.452
 6700SOL     OW20431   2.300   4.116  12.671
 6700SOL    HW120432   2.382   4.060  12.680
 6700SOL    HW220433   2.219   4.058  12.675
 6701SOL     OW20434   3.456   3.838  12.652
 6701SOL    HW120435   3.438   3.905  12.580
 6701SOL    HW220436   3.453   3.884  12.741
 6702SOL     OW20437   2.671   3.728  11.674
 6702SOL    HW120438   2.711   3.819  11.665
 6702SOL    HW220439   2.571   3.736  11.680
 6703SOL     OW20440   3.143   4.069  12.116
 6703SOL    HW120441   3.057   4.019  12.103
 6703SOL    HW220442   3.205   4.015  12.172
 6704SOL     OW20443   2.412   3.920  12.057
 6704SOL    HW120444   2.407   3.915  12.157
 6704SOL    HW220445   2.414   4.016  12.028
 6705SOL     OW20446   2.064   4.009  12.670
 6705SOL    HW120447   1.984   4.069  12.657
 6705SOL    HW220448   2.054   3.960  12.756
 6706SOL     OW20449   3.262   3.831  11.598
 6706SOL    HW120450   3.238   3.794  11.508
 6706SOL    HW220451   3.361   3.847  11.602
 6707SOL     OW20452   3.409   3.946  12.901
 6707SOL    HW120453   3.404   3.983  12.993
 6707SOL    HW220454   3.337   3.877  12.889
 6708SOL     OW20455   2.476   3.846  11.289
 6708SOL    HW120456   2.574   3.824  11.296
 6708SOL    HW220457   2.445   3.829  11.196
 6709SOL     OW20458   2.643   3.988  12.921
 6709SOL    HW120459   2.710   3.927  12.964
 6709SOL    HW220460   2.570   4.007  12.986
 6710SOL     OW20461   2.401   3.788  11.684
 6710SOL    HW120462   2.320   3.789  11.742
 6710SOL    HW220463   2.404   3.871  11.629
 6711SOL     OW20464   2.159   3.759  11.343
 6711SOL    HW120465   2.208   3.843  11.322
 6711SOL    HW220466   2.221   3.694  11.388
 6712SOL     OW20467   2.423   3.946  12.319
 6712SOL    HW120468   2.461   3.862  12.356
 6712SOL    HW220469   2.335   3.965  12.363
 6713SOL     OW20470   2.879   3.763  11.925
 6713SOL    HW120471   2.807   3.768  11.856
 6713SOL    HW220472   2.855   3.694  11.994
 6714SOL     OW20473   2.777   3.813  12.574
 6714SOL    HW120474   2.802   3.793  12.479
 6714SOL    HW220475   2.849   3.869  12.616
 6715SOL     OW20476   3.136   4.110  12.434
 6715SOL    HW120477   3.157   4.184  12.498
 6715SOL    HW220478   3.047   4.127  12.391
 6716SOL     OW20479   2.366   3.774  12.912
 6716SOL    HW120480   2.324   3.717  12.842
 6716SOL    HW220481   2.300   3.843  12.944
 6717SOL     OW20482   2.169   3.937  12.403
 6717SOL    HW120483   2.146   3.974  12.493
 6717SOL    HW220484   2.139   3.842  12.397
 6718SOL     OW20485   3.402   3.998  11.297
 6718SOL    HW120486   3.341   3.923  11.320
 6718SOL    HW220487   3.424   4.050  11.380
 6719SOL     OW20488   3.022   3.931  12.649
 6719SOL    HW120489   3.022   3.995  12.726
 6719SOL    HW220490   3.050   3.979  12.566
 6720SOL     OW20491   2.765   3.810  11.305
 6720SOL    HW120492   2.816   3.811  11.219
 6720SOL    HW220493   2.821   3.768  11.376
 6721SOL     OW20494   3.588   3.859  11.695
 6721SOL    HW120495   3.661   3.842  11.628
 6721SOL    HW220496   3.557   3.772  11.733
 6722SOL     OW20497   3.703   3.899  12.135
 6722SOL    HW120498   3.742   3.814  12.099
 6722SOL    HW220499   3.605   3.901  12.116
 6723SOL     OW20500   2.534   3.927  12.661
 6723SOL    HW120501   2.624   3.911  12.621
 6723SOL    HW220502   2.542   3.932  12.760
 6724SOL     OW20503   1.937   4.069  11.205
 6724SOL    HW120504   1.845   4.041  11.176
 6724SOL    HW220505   1.968   4.146  11.149
 6725SOL     OW20506   1.934   3.890  11.490
 6725SOL    HW120507   1.917   3.973  11.436
 6725SOL    HW220508   2.024   3.853  11.468
 6726SOL     OW20509   3.087   4.049  11.621
 6726SOL    HW120510   3.152   3.975  11.610
 6726SOL    HW220511   3.107   4.099  11.705
 6727SOL     OW20512   3.639   4.066  12.814
 6727SOL    HW120513   3.622   4.097  12.720
 6727SOL    HW220514   3.555   4.029  12.852
 6728SOL     OW20515   3.686   3.916  12.399
 6728SOL    HW120516   3.682   3.826  12.443
 6728SOL    HW220517   3.689   3.905  12.300
 6729SOL     OW20518   3.286   3.938  12.284
 6729SOL    HW120519   3.338   3.873  12.339
 6729SOL    HW220520   3.237   4.001  12.345
 6730SOL     OW20521   2.863   3.758  12.326
 6730SOL    HW120522   2.800   3.686  12.295
 6730SOL    HW220523   2.956   3.722  12.326
 6731SOL     OW20524   3.214   3.776  11.340
 6731SOL    HW120525   3.249   3.735  11.256
 6731SOL    HW220526   3.124   3.738  11.360
 6732SOL     OW20527   3.162   4.177  11.863
 6732SOL    HW120528   3.103   4.257  11.867
 6732SOL    HW220529   3.177   4.142  11.956
 6733SOL     OW20530   3.455   3.945  12.054
 6733SOL    HW120531   3.371   3.944  12.108
 6733SOL    HW220532   3.457   4.028  11.998
 6734SOL     OW20533   1.881   4.092  13.681
 6734SOL    HW120534   1.799   4.135  13.720
 6734SOL    HW220535   1.853   4.019  13.618
 6735SOL     OW20536   3.617   4.331  13.265
 6735SOL    HW120537   3.605   4.318  13.166
 6735SOL    HW220538   3.587   4.250  13.314
 6736SOL     OW20539   3.465   4.171  13.771
 6736SOL    HW120540   3.391   4.217  13.721
 6736SOL    HW220541   3.516   4.239  13.824
 6737SOL     OW20542   2.671   3.728  13.536
 6737SOL    HW120543   2.711   3.819  13.527
 6737SOL    HW220544   2.571   3.736  13.542
 6738SOL     OW20545   3.262   3.831  13.460
 6738SOL    HW120546   3.238   3.794  13.370
 6738SOL    HW220547   3.361   3.847  13.464
 6739SOL     OW20548   2.476   3.846  13.151
 6739SOL    HW120549   2.574   3.824  13.158
 6739SOL    HW220550   2.445   3.829  13.058
 6740SOL     OW20551   2.401   3.788  13.546
 6740SOL    HW120552   2.320   3.789  13.604
 6740SOL    HW220553   2.404   3.871  13.491
 6741SOL     OW20554   2.159   3.759  13.205
 6741SOL    HW120555   2.208   3.843  13.184
 6741SOL    HW220556   2.221   3.694  13.250
 6742SOL     OW20557   2.879   3.763  13.787
 6742SOL    HW120558   2.807   3.768  13.718
 6742SOL    HW220559   2.855   3.694  13.856
 6743SOL     OW20560   3.402   3.998  13.159
 6743SOL    HW120561   3.341   3.923  13.182
 6743SOL    HW220562   3.424   4.050  13.242
 6744SOL     OW20563   2.765   3.810  13.167
 6744SOL    HW120564   2.816   3.811  13.081
 6744SOL    HW220565   2.821   3.768  13.238
 6745SOL     OW20566   3.588   3.859  13.557
 6745SOL    HW120567   3.661   3.842  13.490
 6745SOL    HW220568   3.557   3.772  13.595
 6746SOL     OW20569   3.703   3.899  13.997
 6746SOL    HW120570   3.742   3.814  13.961
 6746SOL    HW220571   3.605   3.901  13.978
 6747SOL     OW20572   1.937   4.069  13.067
 6747SOL    HW120573   1.845   4.041  13.038
 6747SOL    HW220574   1.968   4.146  13.011
 6748SOL     OW20575   1.934   3.890  13.352
 6748SOL    HW120576   1.917   3.973  13.298
 6748SOL    HW220577   2.024   3.853  13.330
 6749SOL     OW20578   3.087   4.049  13.483
 6749SOL    HW120579   3.152   3.975  13.472
 6749SOL    HW220580   3.107   4.099  13.567
 6750SOL     OW20581   3.214   3.776  13.202
 6750SOL    HW120582   3.249   3.735  13.118
 6750SOL    HW220583   3.124   3.738  13.222
 6751SOL     OW20584   3.162   4.177  13.725
 6751SOL    HW120585   3.103   4.257  13.729
 6751SOL    HW220586   3.177   4.142  13.818
 6752SOL     OW20587   3.954   0.628   0.113
 6752SOL    HW120588   3.861   0.626   0.150
 6752SOL    HW220589   3.955   0.589   0.021
 6753SOL     OW20590   3.949   0.275   0.996
 6753SOL    HW120591   3.984   0.258   1.088
 6753SOL    HW220592   3.861   0.230   0.984
 6754SOL     OW20593   3.743   0.368   0.647
 6754SOL    HW120594   3.661   0.411   0.686
 6754SOL    HW220595   3.715   0.295   0.584
 6755SOL     OW20596   4.059   1.435   1.061
 6755SOL    HW120597   3.981   1.404   1.008
 6755SOL    HW220598   4.117   1.493   1.004
 6756SOL     OW20599   3.955   1.713   0.483
 6756SOL    HW120600   3.989   1.790   0.537
 6756SOL    HW220601   3.999   1.713   0.393
 6757SOL     OW20602   3.954   1.434   0.538
 6757SOL    HW120603   3.928   1.530   0.538
 6757SOL    HW220604   3.883   1.380   0.583
 6758SOL     OW20605   3.846   0.643   0.563
 6758SOL    HW120606   3.801   0.555   0.580
 6758SOL    HW220607   3.845   0.697   0.647
 6759SOL     OW20608   3.751   1.596   0.117
 6759SOL    HW120609   3.732   1.500   0.138
 6759SOL    HW220610   3.718   1.654   0.192
 6760SOL     OW20611   3.837   0.737   1.597
 6760SOL    HW120612   3.925   0.724   1.642
 6760SOL    HW220613   3.824   0.834   1.575
 6761SOL     OW20614   3.800   0.811   0.789
 6761SOL    HW120615   3.899   0.799   0.798
 6761SOL    HW220616   3.776   0.906   0.810
 6762SOL     OW20617   3.854   1.821   1.571
 6762SOL    HW120618   3.844   1.806   1.670
 6762SOL    HW220619   3.768   1.857   1.535
 6763SOL     OW20620   3.926   0.285   1.498
 6763SOL    HW120621   3.846   0.345   1.485
 6763SOL    HW220622   3.916   0.236   1.584
 6764SOL     OW20623   3.802   0.556   1.386
 6764SOL    HW120624   3.894   0.555   1.345
 6764SOL    HW220625   3.796   0.630   1.453
 6765SOL     OW20626   3.788   1.564   1.331
 6765SOL    HW120627   3.742   1.646   1.297
 6765SOL    HW220628   3.886   1.583   1.340
 6766SOL     OW20629   4.091   1.100   0.501
 6766SOL    HW120630   4.084   1.183   0.445
 6766SOL    HW220631   4.095   1.020   0.441
 6767SOL     OW20632   4.031   0.213   1.231
 6767SOL    HW120633   4.008   0.250   1.321
 6767SOL    HW220634   4.001   0.118   1.225
 6768SOL     OW20635   3.761   1.310   1.282
 6768SOL    HW120636   3.814   1.261   1.350
 6768SOL    HW220637   3.783   1.408   1.287
 6769SOL     OW20638   3.732   1.326   0.200
 6769SOL    HW120639   3.639   1.347   0.169
 6769SOL    HW220640   3.742   1.227   0.213
 6770SOL     OW20641   3.812   1.801   0.927
 6770SOL    HW120642   3.770   1.715   0.900
 6770SOL    HW220643   3.906   1.804   0.893
 6771SOL     OW20644   4.228   1.568   0.910
 6771SOL    HW120645   4.294   1.642   0.919
 6771SOL    HW220646   4.272   1.489   0.868
 6772SOL     OW20647   3.764   0.544   1.114
 6772SOL    HW120648   3.849   0.511   1.073
 6772SOL    HW220649   3.777   0.559   1.212
 6773SOL     OW20650   3.913   0.520   1.722
 6773SOL    HW120651   3.972   0.480   1.652
 6773SOL    HW220652   3.855   0.591   1.681
 6774SOL     OW20653   3.976   1.564   1.744
 6774SOL    HW120654   3.946   1.621   1.820
 6774SOL    HW220655   3.969   1.467   1.770
 6775SOL     OW20656   3.883   1.137   1.466
 6775SOL    HW120657   3.905   1.076   1.542
 6775SOL    HW220658   3.893   1.088   1.380
 6776SOL     OW20659   3.807   1.258   1.022
 6776SOL    HW120660   3.802   1.257   1.122
 6776SOL    HW220661   3.724   1.217   0.984
 6777SOL     OW20662   3.854   1.794   1.851
 6777SOL    HW120663   3.813   1.720   1.904
 6777SOL    HW220664   3.918   1.845   1.909
 6778SOL     OW20665   3.799   0.345   0.033
 6778SOL    HW120666   3.707   0.317   0.004
 6778SOL    HW220667   3.830   0.422  -0.023
 6779SOL     OW20668   3.796   0.166   0.318
 6779SOL    HW120669   3.779   0.249   0.264
 6779SOL    HW220670   3.886   0.129   0.296
 6780SOL     OW20671   3.803   1.240   0.653
 6780SOL    HW120672   3.802   1.193   0.741
 6780SOL    HW220673   3.885   1.212   0.602
 6781SOL     OW20674   3.763   1.077   0.300
 6781SOL    HW120675   3.862   1.066   0.291
 6781SOL    HW220676   3.723   0.991   0.332
 6782SOL     OW20677   3.954   0.628   1.975
 6782SOL    HW120678   3.861   0.626   2.012
 6782SOL    HW220679   3.955   0.589   1.883
 6783SOL     OW20680   3.949   0.275   2.858
 6783SOL    HW120681   3.984   0.258   2.950
 6783SOL    HW220682   3.861   0.230   2.846
 6784SOL     OW20683   3.743   0.368   2.509
 6784SOL    HW120684   3.661   0.411   2.548
 6784SOL    HW220685   3.715   0.295   2.446
 6785SOL     OW20686   4.059   1.435   2.923
 6785SOL    HW120687   3.981   1.404   2.870
 6785SOL    HW220688   4.117   1.493   2.866
 6786SOL     OW20689   3.955   1.713   2.345
 6786SOL    HW120690   3.989   1.790   2.399
 6786SOL    HW220691   3.999   1.713   2.255
 6787SOL     OW20692   3.954   1.434   2.400
 6787SOL    HW120693   3.928   1.530   2.400
 6787SOL    HW220694   3.883   1.380   2.445
 6788SOL     OW20695   3.846   0.643   2.425
 6788SOL    HW120696   3.801   0.555   2.442
 6788SOL    HW220697   3.845   0.697   2.509
 6789SOL     OW20698   3.751   1.596   1.979
 6789SOL    HW120699   3.732   1.500   2.000
 6789SOL    HW220700   3.718   1.654   2.054
 6790SOL     OW20701   3.837   0.737   3.459
 6790SOL    HW120702   3.925   0.724   3.504
 6790SOL    HW220703   3.824   0.834   3.437
 6791SOL     OW20704   3.800   0.811   2.651
 6791SOL    HW120705   3.899   0.799   2.660
 6791SOL    HW220706   3.776   0.906   2.672
 6792SOL     OW20707   3.854   1.821   3.433
 6792SOL    HW120708   3.844   1.806   3.532
 6792SOL    HW220709   3.768   1.857   3.397
 6793SOL     OW20710   3.926   0.285   3.360
 6793SOL    HW120711   3.846   0.345   3.347
 6793SOL    HW220712   3.916   0.236   3.446
 6794SOL     OW20713   3.802   0.556   3.248
 6794SOL    HW120714   3.894   0.555   3.207
 6794SOL    HW220715   3.796   0.630   3.315
 6795SOL     OW20716   4.251   0.256   2.190
 6795SOL    HW120717   4.278   0.197   2.115
 6795SOL    HW220718   4.251   0.351   2.159
 6796SOL     OW20719   3.788   1.564   3.193
 6796SOL    HW120720   3.742   1.646   3.159
 6796SOL    HW220721   3.886   1.583   3.202
 6797SOL     OW20722   4.091   1.100   2.363
 6797SOL    HW120723   4.084   1.183   2.307
 6797SOL    HW220724   4.095   1.020   2.303
 6798SOL     OW20725   4.031   0.213   3.093
 6798SOL    HW120726   4.008   0.250   3.183
 6798SOL    HW220727   4.001   0.118   3.087
 6799SOL     OW20728   3.761   1.310   3.144
 6799SOL    HW120729   3.814   1.261   3.212
 6799SOL    HW220730   3.783   1.408   3.149
 6800SOL     OW20731   3.732   1.326   2.062
 6800SOL    HW120732   3.639   1.347   2.031
 6800SOL    HW220733   3.742   1.227   2.075
 6801SOL     OW20734   3.812   1.801   2.789
 6801SOL    HW120735   3.770   1.715   2.762
 6801SOL    HW220736   3.906   1.804   2.755
 6802SOL     OW20737   4.228   1.568   2.772
 6802SOL    HW120738   4.294   1.642   2.781
 6802SOL    HW220739   4.272   1.489   2.730
 6803SOL     OW20740   3.764   0.544   2.976
 6803SOL    HW120741   3.849   0.511   2.935
 6803SOL    HW220742   3.777   0.559   3.074
 6804SOL     OW20743   3.913   0.520   3.584
 6804SOL    HW120744   3.972   0.480   3.514
 6804SOL    HW220745   3.855   0.591   3.543
 6805SOL     OW20746   3.976   1.564   3.606
 6805SOL    HW120747   3.946   1.621   3.682
 6805SOL    HW220748   3.969   1.467   3.632
 6806SOL     OW20749   3.883   1.137   3.328
 6806SOL    HW120750   3.905   1.076   3.404
 6806SOL    HW220751   3.893   1.088   3.242
 6807SOL     OW20752   3.807   1.258   2.884
 6807SOL    HW120753   3.802   1.257   2.984
 6807SOL    HW220754   3.724   1.217   2.846
 6808SOL     OW20755   3.854   1.794   3.713
 6808SOL    HW120756   3.813   1.720   3.766
 6808SOL    HW220757   3.918   1.845   3.771
 6809SOL     OW20758   3.799   0.345   1.895
 6809SOL    HW120759   3.707   0.317   1.866
 6809SOL    HW220760   3.830   0.422   1.839
 6810SOL     OW20761   3.796   0.166   2.180
 6810SOL    HW120762   3.779   0.249   2.126
 6810SOL    HW220763   3.886   0.129   2.158
 6811SOL     OW20764   3.803   1.240   2.515
 6811SOL    HW120765   3.802   1.193   2.603
 6811SOL    HW220766   3.885   1.212   2.464
 6812SOL     OW20767   3.763   1.077   2.162
 6812SOL    HW120768   3.862   1.066   2.153
 6812SOL    HW220769   3.723   0.991   2.194
 6813SOL     OW20770   3.954   0.628   3.837
 6813SOL    HW120771   3.861   0.626   3.874
 6813SOL    HW220772   3.955   0.589   3.745
 6814SOL     OW20773   3.949   0.275   4.720
 6814SOL    HW120774   3.984   0.258   4.812
 6814SOL    HW220775   3.861   0.230   4.708
 6815SOL     OW20776   3.743   0.368   4.371
 6815SOL    HW120777   3.661   0.411   4.410
 6815SOL    HW220778   3.715   0.295   4.308
 6816SOL     OW20779   4.059   1.435   4.785
 6816SOL    HW120780   3.981   1.404   4.732
 6816SOL    HW220781   4.117   1.493   4.728
 6817SOL     OW20782   3.955   1.713   4.207
 6817SOL    HW120783   3.989   1.790   4.261
 6817SOL    HW220784   3.999   1.713   4.117
 6818SOL     OW20785   3.954   1.434   4.262
 6818SOL    HW120786   3.928   1.530   4.262
 6818SOL    HW220787   3.883   1.380   4.307
 6819SOL     OW20788   3.846   0.643   4.287
 6819SOL    HW120789   3.801   0.555   4.304
 6819SOL    HW220790   3.845   0.697   4.371
 6820SOL     OW20791   3.751   1.596   3.841
 6820SOL    HW120792   3.732   1.500   3.862
 6820SOL    HW220793   3.718   1.654   3.916
 6821SOL     OW20794   3.837   0.737   5.321
 6821SOL    HW120795   3.925   0.724   5.366
 6821SOL    HW220796   3.824   0.834   5.299
 6822SOL     OW20797   3.800   0.811   4.513
 6822SOL    HW120798   3.899   0.799   4.522
 6822SOL    HW220799   3.776   0.906   4.534
 6823SOL     OW20800   3.854   1.821   5.295
 6823SOL    HW120801   3.844   1.806   5.394
 6823SOL    HW220802   3.768   1.857   5.259
 6824SOL     OW20803   3.926   0.285   5.222
 6824SOL    HW120804   3.846   0.345   5.209
 6824SOL    HW220805   3.916   0.236   5.308
 6825SOL     OW20806   3.802   0.556   5.110
 6825SOL    HW120807   3.894   0.555   5.069
 6825SOL    HW220808   3.796   0.630   5.177
 6826SOL     OW20809   4.251   0.256   4.052
 6826SOL    HW120810   4.278   0.197   3.977
 6826SOL    HW220811   4.251   0.351   4.021
 6827SOL     OW20812   3.788   1.564   5.055
 6827SOL    HW120813   3.742   1.646   5.021
 6827SOL    HW220814   3.886   1.583   5.064
 6828SOL     OW20815   4.091   1.100   4.225
 6828SOL    HW120816   4.084   1.183   4.169
 6828SOL    HW220817   4.095   1.020   4.165
 6829SOL     OW20818   4.031   0.213   4.955
 6829SOL    HW120819   4.008   0.250   5.045
 6829SOL    HW220820   4.001   0.118   4.949
 6830SOL     OW20821   3.761   1.310   5.006
 6830SOL    HW120822   3.814   1.261   5.074
 6830SOL    HW220823   3.783   1.408   5.011
 6831SOL     OW20824   3.732   1.326   3.924
 6831SOL    HW120825   3.639   1.347   3.893
 6831SOL    HW220826   3.742   1.227   3.937
 6832SOL     OW20827   3.812   1.801   4.651
 6832SOL    HW120828   3.770   1.715   4.624
 6832SOL    HW220829   3.906   1.804   4.617
 6833SOL     OW20830   4.228   1.568   4.634
 6833SOL    HW120831   4.294   1.642   4.643
 6833SOL    HW220832   4.272   1.489   4.592
 6834SOL     OW20833   3.764   0.544   4.838
 6834SOL    HW120834   3.849   0.511   4.797
 6834SOL    HW220835   3.777   0.559   4.936
 6835SOL     OW20836   3.913   0.520   5.446
 6835SOL    HW120837   3.972   0.480   5.376
 6835SOL    HW220838   3.855   0.591   5.405
 6836SOL     OW20839   3.976   1.564   5.468
 6836SOL    HW120840   3.946   1.621   5.544
 6836SOL    HW220841   3.969   1.467   5.494
 6837SOL     OW20842   3.883   1.137   5.190
 6837SOL    HW120843   3.905   1.076   5.266
 6837SOL    HW220844   3.893   1.088   5.104
 6838SOL     OW20845   3.807   1.258   4.746
 6838SOL    HW120846   3.802   1.257   4.846
 6838SOL    HW220847   3.724   1.217   4.708
 6839SOL     OW20848   3.854   1.794   5.575
 6839SOL    HW120849   3.813   1.720   5.628
 6839SOL    HW220850   3.918   1.845   5.633
 6840SOL     OW20851   3.799   0.345   3.757
 6840SOL    HW120852   3.707   0.317   3.728
 6840SOL    HW220853   3.830   0.422   3.701
 6841SOL     OW20854   3.796   0.166   4.042
 6841SOL    HW120855   3.779   0.249   3.988
 6841SOL    HW220856   3.886   0.129   4.020
 6842SOL     OW20857   3.803   1.240   4.377
 6842SOL    HW120858   3.802   1.193   4.465
 6842SOL    HW220859   3.885   1.212   4.326
 6843SOL     OW20860   3.763   1.077   4.024
 6843SOL    HW120861   3.862   1.066   4.015
 6843SOL    HW220862   3.723   0.991   4.056
 6844SOL     OW20863   3.954   0.628   5.699
 6844SOL    HW120864   3.861   0.626   5.736
 6844SOL    HW220865   3.955   0.589   5.607
 6845SOL     OW20866   3.949   0.275   6.582
 6845SOL    HW120867   3.984   0.258   6.674
 6845SOL    HW220868   3.861   0.230   6.570
 6846SOL     OW20869   3.743   0.368   6.233
 6846SOL    HW120870   3.661   0.411   6.272
 6846SOL    HW220871   3.715   0.295   6.170
 6847SOL     OW20872   4.059   1.435   6.647
 6847SOL    HW120873   3.981   1.404   6.594
 6847SOL    HW220874   4.117   1.493   6.590
 6848SOL     OW20875   3.955   1.713   6.069
 6848SOL    HW120876   3.989   1.790   6.123
 6848SOL    HW220877   3.999   1.713   5.979
 6849SOL     OW20878   3.954   1.434   6.124
 6849SOL    HW120879   3.928   1.530   6.124
 6849SOL    HW220880   3.883   1.380   6.169
 6850SOL     OW20881   3.846   0.643   6.149
 6850SOL    HW120882   3.801   0.555   6.166
 6850SOL    HW220883   3.845   0.697   6.233
 6851SOL     OW20884   3.751   1.596   5.703
 6851SOL    HW120885   3.732   1.500   5.724
 6851SOL    HW220886   3.718   1.654   5.778
 6852SOL     OW20887   3.837   0.737   7.183
 6852SOL    HW120888   3.925   0.724   7.228
 6852SOL    HW220889   3.824   0.834   7.161
 6853SOL     OW20890   3.800   0.811   6.375
 6853SOL    HW120891   3.899   0.799   6.384
 6853SOL    HW220892   3.776   0.906   6.396
 6854SOL     OW20893   3.854   1.821   7.157
 6854SOL    HW120894   3.844   1.806   7.256
 6854SOL    HW220895   3.768   1.857   7.121
 6855SOL     OW20896   3.926   0.285   7.084
 6855SOL    HW120897   3.846   0.345   7.071
 6855SOL    HW220898   3.916   0.236   7.170
 6856SOL     OW20899   3.802   0.556   6.972
 6856SOL    HW120900   3.894   0.555   6.931
 6856SOL    HW220901   3.796   0.630   7.039
 6857SOL     OW20902   4.251   0.256   5.914
 6857SOL    HW120903   4.278   0.197   5.839
 6857SOL    HW220904   4.251   0.351   5.883
 6858SOL     OW20905   3.788   1.564   6.917
 6858SOL    HW120906   3.742   1.646   6.883
 6858SOL    HW220907   3.886   1.583   6.926
 6859SOL     OW20908   4.091   1.100   6.087
 6859SOL    HW120909   4.084   1.183   6.031
 6859SOL    HW220910   4.095   1.020   6.027
 6860SOL     OW20911   4.031   0.213   6.817
 6860SOL    HW120912   4.008   0.250   6.907
 6860SOL    HW220913   4.001   0.118   6.811
 6861SOL     OW20914   3.761   1.310   6.868
 6861SOL    HW120915   3.814   1.261   6.936
 6861SOL    HW220916   3.783   1.408   6.873
 6862SOL     OW20917   3.732   1.326   5.786
 6862SOL    HW120918   3.639   1.347   5.755
 6862SOL    HW220919   3.742   1.227   5.799
 6863SOL     OW20920   3.812   1.801   6.513
 6863SOL    HW120921   3.770   1.715   6.486
 6863SOL    HW220922   3.906   1.804   6.479
 6864SOL     OW20923   4.228   1.568   6.496
 6864SOL    HW120924   4.294   1.642   6.505
 6864SOL    HW220925   4.272   1.489   6.454
 6865SOL     OW20926   3.764   0.544   6.700
 6865SOL    HW120927   3.849   0.511   6.659
 6865SOL    HW220928   3.777   0.559   6.798
 6866SOL     OW20929   3.913   0.520   7.308
 6866SOL    HW120930   3.972   0.480   7.238
 6866SOL    HW220931   3.855   0.591   7.267
 6867SOL     OW20932   3.976   1.564   7.330
 6867SOL    HW120933   3.946   1.621   7.406
 6867SOL    HW220934   3.969   1.467   7.356
 6868SOL     OW20935   3.883   1.137   7.052
 6868SOL    HW120936   3.905   1.076   7.128
 6868SOL    HW220937   3.893   1.088   6.966
 6869SOL     OW20938   3.807   1.258   6.608
 6869SOL    HW120939   3.802   1.257   6.708
 6869SOL    HW220940   3.724   1.217   6.570
 6870SOL     OW20941   3.854   1.794   7.437
 6870SOL    HW120942   3.813   1.720   7.490
 6870SOL    HW220943   3.918   1.845   7.495
 6871SOL     OW20944   3.799   0.345   5.619
 6871SOL    HW120945   3.707   0.317   5.590
 6871SOL    HW220946   3.830   0.422   5.563
 6872SOL     OW20947   3.796   0.166   5.904
 6872SOL    HW120948   3.779   0.249   5.850
 6872SOL    HW220949   3.886   0.129   5.882
 6873SOL     OW20950   3.803   1.240   6.239
 6873SOL    HW120951   3.802   1.193   6.327
 6873SOL    HW220952   3.885   1.212   6.188
 6874SOL     OW20953   3.763   1.077   5.886
 6874SOL    HW120954   3.862   1.066   5.877
 6874SOL    HW220955   3.723   0.991   5.918
 6875SOL     OW20956   3.954   0.628   7.561
 6875SOL    HW120957   3.861   0.626   7.598
 6875SOL    HW220958   3.955   0.589   7.469
 6876SOL     OW20959   3.949   0.275   8.444
 6876SOL    HW120960   3.984   0.258   8.536
 6876SOL    HW220961   3.861   0.230   8.432
 6877SOL     OW20962   3.743   0.368   8.095
 6877SOL    HW120963   3.661   0.411   8.134
 6877SOL    HW220964   3.715   0.295   8.032
 6878SOL     OW20965   4.059   1.435   8.509
 6878SOL    HW120966   3.981   1.404   8.456
 6878SOL    HW220967   4.117   1.493   8.452
 6879SOL     OW20968   3.955   1.713   7.931
 6879SOL    HW120969   3.989   1.790   7.985
 6879SOL    HW220970   3.999   1.713   7.841
 6880SOL     OW20971   3.954   1.434   7.986
 6880SOL    HW120972   3.928   1.530   7.986
 6880SOL    HW220973   3.883   1.380   8.031
 6881SOL     OW20974   3.846   0.643   8.011
 6881SOL    HW120975   3.801   0.555   8.028
 6881SOL    HW220976   3.845   0.697   8.095
 6882SOL     OW20977   3.751   1.596   7.565
 6882SOL    HW120978   3.732   1.500   7.586
 6882SOL    HW220979   3.718   1.654   7.640
 6883SOL     OW20980   3.837   0.737   9.045
 6883SOL    HW120981   3.925   0.724   9.090
 6883SOL    HW220982   3.824   0.834   9.023
 6884SOL     OW20983   3.800   0.811   8.237
 6884SOL    HW120984   3.899   0.799   8.246
 6884SOL    HW220985   3.776   0.906   8.258
 6885SOL     OW20986   3.854   1.821   9.019
 6885SOL    HW120987   3.844   1.806   9.118
 6885SOL    HW220988   3.768   1.857   8.983
 6886SOL     OW20989   3.926   0.285   8.946
 6886SOL    HW120990   3.846   0.345   8.933
 6886SOL    HW220991   3.916   0.236   9.032
 6887SOL     OW20992   3.802   0.556   8.834
 6887SOL    HW120993   3.894   0.555   8.793
 6887SOL    HW220994   3.796   0.630   8.901
 6888SOL     OW20995   4.251   0.256   7.776
 6888SOL    HW120996   4.278   0.197   7.701
 6888SOL    HW220997   4.251   0.351   7.745
 6889SOL     OW20998   3.788   1.564   8.779
 6889SOL    HW120999   3.742   1.646   8.745
 6889SOL    HW221000   3.886   1.583   8.788
 6890SOL     OW21001   4.091   1.100   7.949
 6890SOL    HW121002   4.084   1.183   7.893
 6890SOL    HW221003   4.095   1.020   7.889
 6891SOL     OW21004   4.031   0.213   8.679
 6891SOL    HW121005   4.008   0.250   8.769
 6891SOL    HW221006   4.001   0.118   8.673
 6892SOL     OW21007   3.761   1.310   8.730
 6892SOL    HW121008   3.814   1.261   8.798
 6892SOL    HW221009   3.783   1.408   8.735
 6893SOL     OW21010   3.732   1.326   7.648
 6893SOL    HW121011   3.639   1.347   7.617
 6893SOL    HW221012   3.742   1.227   7.661
 6894SOL     OW21013   3.812   1.801   8.375
 6894SOL    HW121014   3.770   1.715   8.348
 6894SOL    HW221015   3.906   1.804   8.341
 6895SOL     OW21016   4.228   1.568   8.358
 6895SOL    HW121017   4.294   1.642   8.367
 6895SOL    HW221018   4.272   1.489   8.316
 6896SOL     OW21019   3.764   0.544   8.562
 6896SOL    HW121020   3.849   0.511   8.521
 6896SOL    HW221021   3.777   0.559   8.660
 6897SOL     OW21022   3.913   0.520   9.170
 6897SOL    HW121023   3.972   0.480   9.100
 6897SOL    HW221024   3.855   0.591   9.129
 6898SOL     OW21025   3.976   1.564   9.192
 6898SOL    HW121026   3.946   1.621   9.268
 6898SOL    HW221027   3.969   1.467   9.218
 6899SOL     OW21028   3.883   1.137   8.914
 6899SOL    HW121029   3.905   1.076   8.990
 6899SOL    HW221030   3.893   1.088   8.828
 6900SOL     OW21031   3.807   1.258   8.470
 6900SOL    HW121032   3.802   1.257   8.570
 6900SOL    HW221033   3.724   1.217   8.432
 6901SOL     OW21034   3.854   1.794   9.299
 6901SOL    HW121035   3.813   1.720   9.352
 6901SOL    HW221036   3.918   1.845   9.357
 6902SOL     OW21037   3.799   0.345   7.481
 6902SOL    HW121038   3.707   0.317   7.452
 6902SOL    HW221039   3.830   0.422   7.425
 6903SOL     OW21040   3.796   0.166   7.766
 6903SOL    HW121041   3.779   0.249   7.712
 6903SOL    HW221042   3.886   0.129   7.744
 6904SOL     OW21043   3.803   1.240   8.101
 6904SOL    HW121044   3.802   1.193   8.189
 6904SOL    HW221045   3.885   1.212   8.050
 6905SOL     OW21046   3.763   1.077   7.748
 6905SOL    HW121047   3.862   1.066   7.739
 6905SOL    HW221048   3.723   0.991   7.780
 6906SOL     OW21049   3.954   0.628   9.423
 6906SOL    HW121050   3.861   0.626   9.460
 6906SOL    HW221051   3.955   0.589   9.331
 6907SOL     OW21052   3.949   0.275  10.306
 6907SOL    HW121053   3.984   0.258  10.398
 6907SOL    HW221054   3.861   0.230  10.294
 6908SOL     OW21055   3.743   0.368   9.957
 6908SOL    HW121056   3.661   0.411   9.996
 6908SOL    HW221057   3.715   0.295   9.894
 6909SOL     OW21058   4.059   1.435  10.371
 6909SOL    HW121059   3.981   1.404  10.318
 6909SOL    HW221060   4.117   1.493  10.314
 6910SOL     OW21061   3.955   1.713   9.793
 6910SOL    HW121062   3.989   1.790   9.847
 6910SOL    HW221063   3.999   1.713   9.703
 6911SOL     OW21064   3.954   1.434   9.848
 6911SOL    HW121065   3.928   1.530   9.848
 6911SOL    HW221066   3.883   1.380   9.893
 6912SOL     OW21067   3.846   0.643   9.873
 6912SOL    HW121068   3.801   0.555   9.890
 6912SOL    HW221069   3.845   0.697   9.957
 6913SOL     OW21070   3.751   1.596   9.427
 6913SOL    HW121071   3.732   1.500   9.448
 6913SOL    HW221072   3.718   1.654   9.502
 6914SOL     OW21073   3.837   0.737  10.907
 6914SOL    HW121074   3.925   0.724  10.952
 6914SOL    HW221075   3.824   0.834  10.885
 6915SOL     OW21076   3.800   0.811  10.099
 6915SOL    HW121077   3.899   0.799  10.108
 6915SOL    HW221078   3.776   0.906  10.120
 6916SOL     OW21079   3.854   1.821  10.881
 6916SOL    HW121080   3.844   1.806  10.980
 6916SOL    HW221081   3.768   1.857  10.845
 6917SOL     OW21082   3.926   0.285  10.808
 6917SOL    HW121083   3.846   0.345  10.795
 6917SOL    HW221084   3.916   0.236  10.894
 6918SOL     OW21085   3.802   0.556  10.696
 6918SOL    HW121086   3.894   0.555  10.655
 6918SOL    HW221087   3.796   0.630  10.763
 6919SOL     OW21088   4.251   0.256   9.638
 6919SOL    HW121089   4.278   0.197   9.563
 6919SOL    HW221090   4.251   0.351   9.607
 6920SOL     OW21091   3.788   1.564  10.641
 6920SOL    HW121092   3.742   1.646  10.607
 6920SOL    HW221093   3.886   1.583  10.650
 6921SOL     OW21094   4.091   1.100   9.811
 6921SOL    HW121095   4.084   1.183   9.755
 6921SOL    HW221096   4.095   1.020   9.751
 6922SOL     OW21097   4.031   0.213  10.541
 6922SOL    HW121098   4.008   0.250  10.631
 6922SOL    HW221099   4.001   0.118  10.535
 6923SOL     OW21100   3.761   1.310  10.592
 6923SOL    HW121101   3.814   1.261  10.660
 6923SOL    HW221102   3.783   1.408  10.597
 6924SOL     OW21103   3.732   1.326   9.510
 6924SOL    HW121104   3.639   1.347   9.479
 6924SOL    HW221105   3.742   1.227   9.523
 6925SOL     OW21106   3.812   1.801  10.237
 6925SOL    HW121107   3.770   1.715  10.210
 6925SOL    HW221108   3.906   1.804  10.203
 6926SOL     OW21109   4.228   1.568  10.220
 6926SOL    HW121110   4.294   1.642  10.229
 6926SOL    HW221111   4.272   1.489  10.178
 6927SOL     OW21112   3.764   0.544  10.424
 6927SOL    HW121113   3.849   0.511  10.383
 6927SOL    HW221114   3.777   0.559  10.522
 6928SOL     OW21115   3.913   0.520  11.032
 6928SOL    HW121116   3.972   0.480  10.962
 6928SOL    HW221117   3.855   0.591  10.991
 6929SOL     OW21118   3.976   1.564  11.054
 6929SOL    HW121119   3.946   1.621  11.130
 6929SOL    HW221120   3.969   1.467  11.080
 6930SOL     OW21121   3.883   1.137  10.776
 6930SOL    HW121122   3.905   1.076  10.852
 6930SOL    HW221123   3.893   1.088  10.690
 6931SOL     OW21124   3.807   1.258  10.332
 6931SOL    HW121125   3.802   1.257  10.432
 6931SOL    HW221126   3.724   1.217  10.294
 6932SOL     OW21127   3.854   1.794  11.161
 6932SOL    HW121128   3.813   1.720  11.214
 6932SOL    HW221129   3.918   1.845  11.219
 6933SOL     OW21130   3.799   0.345   9.343
 6933SOL    HW121131   3.707   0.317   9.314
 6933SOL    HW221132   3.830   0.422   9.287
 6934SOL     OW21133   3.796   0.166   9.628
 6934SOL    HW121134   3.779   0.249   9.574
 6934SOL    HW221135   3.886   0.129   9.606
 6935SOL     OW21136   3.803   1.240   9.963
 6935SOL    HW121137   3.802   1.193  10.051
 6935SOL    HW221138   3.885   1.212   9.912
 6936SOL     OW21139   3.763   1.077   9.610
 6936SOL    HW121140   3.862   1.066   9.601
 6936SOL    HW221141   3.723   0.991   9.642
 6937SOL     OW21142   3.954   0.628  11.285
 6937SOL    HW121143   3.861   0.626  11.322
 6937SOL    HW221144   3.955   0.589  11.193
 6938SOL     OW21145   3.949   0.275  12.168
 6938SOL    HW121146   3.984   0.258  12.260
 6938SOL    HW221147   3.861   0.230  12.156
 6939SOL     OW21148   3.743   0.368  11.819
 6939SOL    HW121149   3.661   0.411  11.858
 6939SOL    HW221150   3.715   0.295  11.756
 6940SOL     OW21151   4.059   1.435  12.233
 6940SOL    HW121152   3.981   1.404  12.180
 6940SOL    HW221153   4.117   1.493  12.176
 6941SOL     OW21154   3.955   1.713  11.655
 6941SOL    HW121155   3.989   1.790  11.709
 6941SOL    HW221156   3.999   1.713  11.565
 6942SOL     OW21157   3.954   1.434  11.710
 6942SOL    HW121158   3.928   1.530  11.710
 6942SOL    HW221159   3.883   1.380  11.755
 6943SOL     OW21160   3.846   0.643  11.735
 6943SOL    HW121161   3.801   0.555  11.752
 6943SOL    HW221162   3.845   0.697  11.819
 6944SOL     OW21163   3.751   1.596  11.289
 6944SOL    HW121164   3.732   1.500  11.310
 6944SOL    HW221165   3.718   1.654  11.364
 6945SOL     OW21166   3.837   0.737  12.769
 6945SOL    HW121167   3.925   0.724  12.814
 6945SOL    HW221168   3.824   0.834  12.747
 6946SOL     OW21169   3.800   0.811  11.961
 6946SOL    HW121170   3.899   0.799  11.970
 6946SOL    HW221171   3.776   0.906  11.982
 6947SOL     OW21172   3.854   1.821  12.743
 6947SOL    HW121173   3.844   1.806  12.842
 6947SOL    HW221174   3.768   1.857  12.707
 6948SOL     OW21175   3.926   0.285  12.670
 6948SOL    HW121176   3.846   0.345  12.657
 6948SOL    HW221177   3.916   0.236  12.756
 6949SOL     OW21178   3.802   0.556  12.558
 6949SOL    HW121179   3.894   0.555  12.517
 6949SOL    HW221180   3.796   0.630  12.625
 6950SOL     OW21181   4.251   0.256  11.500
 6950SOL    HW121182   4.278   0.197  11.425
 6950SOL    HW221183   4.251   0.351  11.469
 6951SOL     OW21184   3.788   1.564  12.503
 6951SOL    HW121185   3.742   1.646  12.469
 6951SOL    HW221186   3.886   1.583  12.512
 6952SOL     OW21187   4.091   1.100  11.673
 6952SOL    HW121188   4.084   1.183  11.617
 6952SOL    HW221189   4.095   1.020  11.613
 6953SOL     OW21190   4.031   0.213  12.403
 6953SOL    HW121191   4.008   0.250  12.493
 6953SOL    HW221192   4.001   0.118  12.397
 6954SOL     OW21193   3.761   1.310  12.454
 6954SOL    HW121194   3.814   1.261  12.522
 6954SOL    HW221195   3.783   1.408  12.459
 6955SOL     OW21196   3.732   1.326  11.372
 6955SOL    HW121197   3.639   1.347  11.341
 6955SOL    HW221198   3.742   1.227  11.385
 6956SOL     OW21199   3.812   1.801  12.099
 6956SOL    HW121200   3.770   1.715  12.072
 6956SOL    HW221201   3.906   1.804  12.065
 6957SOL     OW21202   4.228   1.568  12.082
 6957SOL    HW121203   4.294   1.642  12.091
 6957SOL    HW221204   4.272   1.489  12.040
 6958SOL     OW21205   3.764   0.544  12.286
 6958SOL    HW121206   3.849   0.511  12.245
 6958SOL    HW221207   3.777   0.559  12.384
 6959SOL     OW21208   3.913   0.520  12.894
 6959SOL    HW121209   3.972   0.480  12.824
 6959SOL    HW221210   3.855   0.591  12.853
 6960SOL     OW21211   3.976   1.564  12.916
 6960SOL    HW121212   3.946   1.621  12.992
 6960SOL    HW221213   3.969   1.467  12.942
 6961SOL     OW21214   3.883   1.137  12.638
 6961SOL    HW121215   3.905   1.076  12.714
 6961SOL    HW221216   3.893   1.088  12.552
 6962SOL     OW21217   3.807   1.258  12.194
 6962SOL    HW121218   3.802   1.257  12.294
 6962SOL    HW221219   3.724   1.217  12.156
 6963SOL     OW21220   3.854   1.794  13.023
 6963SOL    HW121221   3.813   1.720  13.076
 6963SOL    HW221222   3.918   1.845  13.081
 6964SOL     OW21223   3.799   0.345  11.205
 6964SOL    HW121224   3.707   0.317  11.176
 6964SOL    HW221225   3.830   0.422  11.149
 6965SOL     OW21226   3.796   0.166  11.490
 6965SOL    HW121227   3.779   0.249  11.436
 6965SOL    HW221228   3.886   0.129  11.468
 6966SOL     OW21229   3.803   1.240  11.825
 6966SOL    HW121230   3.802   1.193  11.913
 6966SOL    HW221231   3.885   1.212  11.774
 6967SOL     OW21232   3.763   1.077  11.472
 6967SOL    HW121233   3.862   1.066  11.463
 6967SOL    HW221234   3.723   0.991  11.504
 6968SOL     OW21235   3.954   0.628  13.147
 6968SOL    HW121236   3.861   0.626  13.184
 6968SOL    HW221237   3.955   0.589  13.055
 6969SOL     OW21238   3.743   0.368  13.681
 6969SOL    HW121239   3.661   0.411  13.720
 6969SOL    HW221240   3.715   0.295  13.618
 6970SOL     OW21241   3.955   1.713  13.517
 6970SOL    HW121242   3.989   1.790  13.571
 6970SOL    HW221243   3.999   1.713  13.427
 6971SOL     OW21244   3.954   1.434  13.572
 6971SOL    HW121245   3.928   1.530  13.572
 6971SOL    HW221246   3.883   1.380  13.617
 6972SOL     OW21247   3.964   1.091  13.920
 6972SOL    HW121248   3.978   1.007  13.972
 6972SOL    HW221249   3.909   1.155  13.975
 6973SOL     OW21250   3.846   0.643  13.597
 6973SOL    HW121251   3.801   0.555  13.614
 6973SOL    HW221252   3.845   0.697  13.681
 6974SOL     OW21253   3.751   1.596  13.151
 6974SOL    HW121254   3.732   1.500  13.172
 6974SOL    HW221255   3.718   1.654  13.226
 6975SOL     OW21256   3.800   0.811  13.823
 6975SOL    HW121257   3.899   0.799  13.832
 6975SOL    HW221258   3.776   0.906  13.844
 6976SOL     OW21259   4.075   1.801  13.887
 6976SOL    HW121260   4.125   1.715  13.893
 6976SOL    HW221261   4.140   1.878  13.884
 6977SOL     OW21262   4.251   0.256  13.362
 6977SOL    HW121263   4.278   0.197  13.287
 6977SOL    HW221264   4.251   0.351  13.331
 6978SOL     OW21265   4.091   1.100  13.535
 6978SOL    HW121266   4.084   1.183  13.479
 6978SOL    HW221267   4.095   1.020  13.475
 6979SOL     OW21268   3.732   1.326  13.234
 6979SOL    HW121269   3.639   1.347  13.203
 6979SOL    HW221270   3.742   1.227  13.247
 6980SOL     OW21271   4.228   1.568  13.944
 6980SOL    HW121272   4.294   1.642  13.953
 6980SOL    HW221273   4.272   1.489  13.902
 6981SOL     OW21274   3.799   0.345  13.067
 6981SOL    HW121275   3.707   0.317  13.038
 6981SOL    HW221276   3.830   0.422  13.011
 6982SOL     OW21277   3.796   0.166  13.352
 6982SOL    HW121278   3.779   0.249  13.298
 6982SOL    HW221279   3.886   0.129  13.330
 6983SOL     OW21280   3.803   1.240  13.687
 6983SOL    HW121281   3.802   1.193  13.775
 6983SOL    HW221282   3.885   1.212  13.636
 6984SOL     OW21283   3.763   1.077  13.334
 6984SOL    HW121284   3.862   1.066  13.325
 6984SOL    HW221285   3.723   0.991  13.366
 6985SOL     OW21286   3.954   2.490   0.113
 6985SOL    HW121287   3.861   2.488   0.150
 6985SOL    HW221288   3.955   2.451   0.021
 6986SOL     OW21289   3.949   2.137   0.996
 6986SOL    HW121290   3.984   2.120   1.088
 6986SOL    HW221291   3.861   2.092   0.984
 6987SOL     OW21292   3.743   2.230   0.647
 6987SOL    HW121293   3.661   2.273   0.686
 6987SOL    HW221294   3.715   2.157   0.584
 6988SOL     OW21295   4.059   3.297   1.061
 6988SOL    HW121296   3.981   3.266   1.008
 6988SOL    HW221297   4.117   3.355   1.004
 6989SOL     OW21298   3.955   3.575   0.483
 6989SOL    HW121299   3.989   3.652   0.537
 6989SOL    HW221300   3.999   3.575   0.393
 6990SOL     OW21301   3.954   3.296   0.538
 6990SOL    HW121302   3.928   3.392   0.538
 6990SOL    HW221303   3.883   3.242   0.583
 6991SOL     OW21304   3.846   2.505   0.563
 6991SOL    HW121305   3.801   2.417   0.580
 6991SOL    HW221306   3.845   2.559   0.647
 6992SOL     OW21307   3.751   3.458   0.117
 6992SOL    HW121308   3.732   3.362   0.138
 6992SOL    HW221309   3.718   3.516   0.192
 6993SOL     OW21310   3.837   2.599   1.597
 6993SOL    HW121311   3.925   2.586   1.642
 6993SOL    HW221312   3.824   2.696   1.575
 6994SOL     OW21313   3.800   2.673   0.789
 6994SOL    HW121314   3.899   2.661   0.798
 6994SOL    HW221315   3.776   2.768   0.810
 6995SOL     OW21316   3.854   3.683   1.571
 6995SOL    HW121317   3.844   3.668   1.670
 6995SOL    HW221318   3.768   3.719   1.535
 6996SOL     OW21319   3.926   2.147   1.498
 6996SOL    HW121320   3.846   2.207   1.485
 6996SOL    HW221321   3.916   2.098   1.584
 6997SOL     OW21322   3.802   2.418   1.386
 6997SOL    HW121323   3.894   2.417   1.345
 6997SOL    HW221324   3.796   2.492   1.453
 6998SOL     OW21325   3.788   3.426   1.331
 6998SOL    HW121326   3.742   3.508   1.297
 6998SOL    HW221327   3.886   3.445   1.340
 6999SOL     OW21328   4.091   2.962   0.501
 6999SOL    HW121329   4.084   3.045   0.445
 6999SOL    HW221330   4.095   2.882   0.441
 7000SOL     OW21331   4.031   2.075   1.231
 7000SOL    HW121332   4.008   2.112   1.321
 7000SOL    HW221333   4.001   1.980   1.225
 7001SOL     OW21334   3.761   3.172   1.282
 7001SOL    HW121335   3.814   3.123   1.350
 7001SOL    HW221336   3.783   3.270   1.287
 7002SOL     OW21337   4.031   1.925   0.618
 7002SOL    HW121338   4.020   2.019   0.651
 7002SOL    HW221339   4.026   1.862   0.695
 7003SOL     OW21340   3.732   3.188   0.200
 7003SOL    HW121341   3.639   3.209   0.169
 7003SOL    HW221342   3.742   3.089   0.213
 7004SOL     OW21343   3.812   3.663   0.927
 7004SOL    HW121344   3.770   3.577   0.900
 7004SOL    HW221345   3.906   3.666   0.893
 7005SOL     OW21346   4.228   3.430   0.910
 7005SOL    HW121347   4.294   3.504   0.919
 7005SOL    HW221348   4.272   3.351   0.868
 7006SOL     OW21349   3.764   2.406   1.114
 7006SOL    HW121350   3.849   2.373   1.073
 7006SOL    HW221351   3.777   2.421   1.212
 7007SOL     OW21352   3.913   2.382   1.722
 7007SOL    HW121353   3.972   2.342   1.652
 7007SOL    HW221354   3.855   2.453   1.681
 7008SOL     OW21355   3.976   3.426   1.744
 7008SOL    HW121356   3.946   3.483   1.820
 7008SOL    HW221357   3.969   3.329   1.770
 7009SOL     OW21358   3.883   2.999   1.466
 7009SOL    HW121359   3.905   2.938   1.542
 7009SOL    HW221360   3.893   2.950   1.380
 7010SOL     OW21361   3.807   3.120   1.022
 7010SOL    HW121362   3.802   3.119   1.122
 7010SOL    HW221363   3.724   3.079   0.984
 7011SOL     OW21364   3.854   3.656   1.851
 7011SOL    HW121365   3.813   3.582   1.904
 7011SOL    HW221366   3.918   3.707   1.909
 7012SOL     OW21367   3.799   2.207   0.033
 7012SOL    HW121368   3.707   2.179   0.004
 7012SOL    HW221369   3.830   2.284  -0.023
 7013SOL     OW21370   3.796   2.028   0.318
 7013SOL    HW121371   3.779   2.111   0.264
 7013SOL    HW221372   3.886   1.991   0.296
 7014SOL     OW21373   3.803   3.102   0.653
 7014SOL    HW121374   3.802   3.055   0.741
 7014SOL    HW221375   3.885   3.074   0.602
 7015SOL     OW21376   3.763   2.939   0.300
 7015SOL    HW121377   3.862   2.928   0.291
 7015SOL    HW221378   3.723   2.853   0.332
 7016SOL     OW21379   3.954   2.490   1.975
 7016SOL    HW121380   3.861   2.488   2.012
 7016SOL    HW221381   3.955   2.451   1.883
 7017SOL     OW21382   3.949   2.137   2.858
 7017SOL    HW121383   3.984   2.120   2.950
 7017SOL    HW221384   3.861   2.092   2.846
 7018SOL     OW21385   3.743   2.230   2.509
 7018SOL    HW121386   3.661   2.273   2.548
 7018SOL    HW221387   3.715   2.157   2.446
 7019SOL     OW21388   4.059   3.297   2.923
 7019SOL    HW121389   3.981   3.266   2.870
 7019SOL    HW221390   4.117   3.355   2.866
 7020SOL     OW21391   3.955   3.575   2.345
 7020SOL    HW121392   3.989   3.652   2.399
 7020SOL    HW221393   3.999   3.575   2.255
 7021SOL     OW21394   3.954   3.296   2.400
 7021SOL    HW121395   3.928   3.392   2.400
 7021SOL    HW221396   3.883   3.242   2.445
 7022SOL     OW21397   3.846   2.505   2.425
 7022SOL    HW121398   3.801   2.417   2.442
 7022SOL    HW221399   3.845   2.559   2.509
 7023SOL     OW21400   3.751   3.458   1.979
 7023SOL    HW121401   3.732   3.362   2.000
 7023SOL    HW221402   3.718   3.516   2.054
 7024SOL     OW21403   3.837   2.599   3.459
 7024SOL    HW121404   3.925   2.586   3.504
 7024SOL    HW221405   3.824   2.696   3.437
 7025SOL     OW21406   3.800   2.673   2.651
 7025SOL    HW121407   3.899   2.661   2.660
 7025SOL    HW221408   3.776   2.768   2.672
 7026SOL     OW21409   3.854   3.683   3.433
 7026SOL    HW121410   3.844   3.668   3.532
 7026SOL    HW221411   3.768   3.719   3.397
 7027SOL     OW21412   3.926   2.147   3.360
 7027SOL    HW121413   3.846   2.207   3.347
 7027SOL    HW221414   3.916   2.098   3.446
 7028SOL     OW21415   4.021   1.897   2.033
 7028SOL    HW121416   4.070   1.981   2.012
 7028SOL    HW221417   4.083   1.832   2.078
 7029SOL     OW21418   3.802   2.418   3.248
 7029SOL    HW121419   3.894   2.417   3.207
 7029SOL    HW221420   3.796   2.492   3.315
 7030SOL     OW21421   4.251   2.118   2.190
 7030SOL    HW121422   4.278   2.059   2.115
 7030SOL    HW221423   4.251   2.213   2.159
 7031SOL     OW21424   3.788   3.426   3.193
 7031SOL    HW121425   3.742   3.508   3.159
 7031SOL    HW221426   3.886   3.445   3.202
 7032SOL     OW21427   4.091   2.962   2.363
 7032SOL    HW121428   4.084   3.045   2.307
 7032SOL    HW221429   4.095   2.882   2.303
 7033SOL     OW21430   4.031   2.075   3.093
 7033SOL    HW121431   4.008   2.112   3.183
 7033SOL    HW221432   4.001   1.980   3.087
 7034SOL     OW21433   3.761   3.172   3.144
 7034SOL    HW121434   3.814   3.123   3.212
 7034SOL    HW221435   3.783   3.270   3.149
 7035SOL     OW21436   4.031   1.925   2.480
 7035SOL    HW121437   4.020   2.019   2.513
 7035SOL    HW221438   4.026   1.862   2.557
 7036SOL     OW21439   3.732   3.188   2.062
 7036SOL    HW121440   3.639   3.209   2.031
 7036SOL    HW221441   3.742   3.089   2.075
 7037SOL     OW21442   3.812   3.663   2.789
 7037SOL    HW121443   3.770   3.577   2.762
 7037SOL    HW221444   3.906   3.666   2.755
 7038SOL     OW21445   4.228   3.430   2.772
 7038SOL    HW121446   4.294   3.504   2.781
 7038SOL    HW221447   4.272   3.351   2.730
 7039SOL     OW21448   3.764   2.406   2.976
 7039SOL    HW121449   3.849   2.373   2.935
 7039SOL    HW221450   3.777   2.421   3.074
 7040SOL     OW21451   3.913   2.382   3.584
 7040SOL    HW121452   3.972   2.342   3.514
 7040SOL    HW221453   3.855   2.453   3.543
 7041SOL     OW21454   3.976   3.426   3.606
 7041SOL    HW121455   3.946   3.483   3.682
 7041SOL    HW221456   3.969   3.329   3.632
 7042SOL     OW21457   3.883   2.999   3.328
 7042SOL    HW121458   3.905   2.938   3.404
 7042SOL    HW221459   3.893   2.950   3.242
 7043SOL     OW21460   3.807   3.120   2.884
 7043SOL    HW121461   3.802   3.119   2.984
 7043SOL    HW221462   3.724   3.079   2.846
 7044SOL     OW21463   3.854   3.656   3.713
 7044SOL    HW121464   3.813   3.582   3.766
 7044SOL    HW221465   3.918   3.707   3.771
 7045SOL     OW21466   3.799   2.207   1.895
 7045SOL    HW121467   3.707   2.179   1.866
 7045SOL    HW221468   3.830   2.284   1.839
 7046SOL     OW21469   3.796   2.028   2.180
 7046SOL    HW121470   3.779   2.111   2.126
 7046SOL    HW221471   3.886   1.991   2.158
 7047SOL     OW21472   3.803   3.102   2.515
 7047SOL    HW121473   3.802   3.055   2.603
 7047SOL    HW221474   3.885   3.074   2.464
 7048SOL     OW21475   3.763   2.939   2.162
 7048SOL    HW121476   3.862   2.928   2.153
 7048SOL    HW221477   3.723   2.853   2.194
 7049SOL     OW21478   3.954   2.490   3.837
 7049SOL    HW121479   3.861   2.488   3.874
 7049SOL    HW221480   3.955   2.451   3.745
 7050SOL     OW21481   3.949   2.137   4.720
 7050SOL    HW121482   3.984   2.120   4.812
 7050SOL    HW221483   3.861   2.092   4.708
 7051SOL     OW21484   3.743   2.230   4.371
 7051SOL    HW121485   3.661   2.273   4.410
 7051SOL    HW221486   3.715   2.157   4.308
 7052SOL     OW21487   4.059   3.297   4.785
 7052SOL    HW121488   3.981   3.266   4.732
 7052SOL    HW221489   4.117   3.355   4.728
 7053SOL     OW21490   3.955   3.575   4.207
 7053SOL    HW121491   3.989   3.652   4.261
 7053SOL    HW221492   3.999   3.575   4.117
 7054SOL     OW21493   3.954   3.296   4.262
 7054SOL    HW121494   3.928   3.392   4.262
 7054SOL    HW221495   3.883   3.242   4.307
 7055SOL     OW21496   3.846   2.505   4.287
 7055SOL    HW121497   3.801   2.417   4.304
 7055SOL    HW221498   3.845   2.559   4.371
 7056SOL     OW21499   3.751   3.458   3.841
 7056SOL    HW121500   3.732   3.362   3.862
 7056SOL    HW221501   3.718   3.516   3.916
 7057SOL     OW21502   3.837   2.599   5.321
 7057SOL    HW121503   3.925   2.586   5.366
 7057SOL    HW221504   3.824   2.696   5.299
 7058SOL     OW21505   3.800   2.673   4.513
 7058SOL    HW121506   3.899   2.661   4.522
 7058SOL    HW221507   3.776   2.768   4.534
 7059SOL     OW21508   3.854   3.683   5.295
 7059SOL    HW121509   3.844   3.668   5.394
 7059SOL    HW221510   3.768   3.719   5.259
 7060SOL     OW21511   3.926   2.147   5.222
 7060SOL    HW121512   3.846   2.207   5.209
 7060SOL    HW221513   3.916   2.098   5.308
 7061SOL     OW21514   4.021   1.897   3.895
 7061SOL    HW121515   4.070   1.981   3.874
 7061SOL    HW221516   4.083   1.832   3.940
 7062SOL     OW21517   3.802   2.418   5.110
 7062SOL    HW121518   3.894   2.417   5.069
 7062SOL    HW221519   3.796   2.492   5.177
 7063SOL     OW21520   4.251   2.118   4.052
 7063SOL    HW121521   4.278   2.059   3.977
 7063SOL    HW221522   4.251   2.213   4.021
 7064SOL     OW21523   3.788   3.426   5.055
 7064SOL    HW121524   3.742   3.508   5.021
 7064SOL    HW221525   3.886   3.445   5.064
 7065SOL     OW21526   4.091   2.962   4.225
 7065SOL    HW121527   4.084   3.045   4.169
 7065SOL    HW221528   4.095   2.882   4.165
 7066SOL     OW21529   4.031   2.075   4.955
 7066SOL    HW121530   4.008   2.112   5.045
 7066SOL    HW221531   4.001   1.980   4.949
 7067SOL     OW21532   3.761   3.172   5.006
 7067SOL    HW121533   3.814   3.123   5.074
 7067SOL    HW221534   3.783   3.270   5.011
 7068SOL     OW21535   4.031   1.925   4.342
 7068SOL    HW121536   4.020   2.019   4.375
 7068SOL    HW221537   4.026   1.862   4.419
 7069SOL     OW21538   3.732   3.188   3.924
 7069SOL    HW121539   3.639   3.209   3.893
 7069SOL    HW221540   3.742   3.089   3.937
 7070SOL     OW21541   3.812   3.663   4.651
 7070SOL    HW121542   3.770   3.577   4.624
 7070SOL    HW221543   3.906   3.666   4.617
 7071SOL     OW21544   4.228   3.430   4.634
 7071SOL    HW121545   4.294   3.504   4.643
 7071SOL    HW221546   4.272   3.351   4.592
 7072SOL     OW21547   3.764   2.406   4.838
 7072SOL    HW121548   3.849   2.373   4.797
 7072SOL    HW221549   3.777   2.421   4.936
 7073SOL     OW21550   3.913   2.382   5.446
 7073SOL    HW121551   3.972   2.342   5.376
 7073SOL    HW221552   3.855   2.453   5.405
 7074SOL     OW21553   3.976   3.426   5.468
 7074SOL    HW121554   3.946   3.483   5.544
 7074SOL    HW221555   3.969   3.329   5.494
 7075SOL     OW21556   3.883   2.999   5.190
 7075SOL    HW121557   3.905   2.938   5.266
 7075SOL    HW221558   3.893   2.950   5.104
 7076SOL     OW21559   3.807   3.120   4.746
 7076SOL    HW121560   3.802   3.119   4.846
 7076SOL    HW221561   3.724   3.079   4.708
 7077SOL     OW21562   3.854   3.656   5.575
 7077SOL    HW121563   3.813   3.582   5.628
 7077SOL    HW221564   3.918   3.707   5.633
 7078SOL     OW21565   3.799   2.207   3.757
 7078SOL    HW121566   3.707   2.179   3.728
 7078SOL    HW221567   3.830   2.284   3.701
 7079SOL     OW21568   3.796   2.028   4.042
 7079SOL    HW121569   3.779   2.111   3.988
 7079SOL    HW221570   3.886   1.991   4.020
 7080SOL     OW21571   3.803   3.102   4.377
 7080SOL    HW121572   3.802   3.055   4.465
 7080SOL    HW221573   3.885   3.074   4.326
 7081SOL     OW21574   3.763   2.939   4.024
 7081SOL    HW121575   3.862   2.928   4.015
 7081SOL    HW221576   3.723   2.853   4.056
 7082SOL     OW21577   3.954   2.490   5.699
 7082SOL    HW121578   3.861   2.488   5.736
 7082SOL    HW221579   3.955   2.451   5.607
 7083SOL     OW21580   3.949   2.137   6.582
 7083SOL    HW121581   3.984   2.120   6.674
 7083SOL    HW221582   3.861   2.092   6.570
 7084SOL     OW21583   3.743   2.230   6.233
 7084SOL    HW121584   3.661   2.273   6.272
 7084SOL    HW221585   3.715   2.157   6.170
 7085SOL     OW21586   4.059   3.297   6.647
 7085SOL    HW121587   3.981   3.266   6.594
 7085SOL    HW221588   4.117   3.355   6.590
 7086SOL     OW21589   3.955   3.575   6.069
 7086SOL    HW121590   3.989   3.652   6.123
 7086SOL    HW221591   3.999   3.575   5.979
 7087SOL     OW21592   3.954   3.296   6.124
 7087SOL    HW121593   3.928   3.392   6.124
 7087SOL    HW221594   3.883   3.242   6.169
 7088SOL     OW21595   3.846   2.505   6.149
 7088SOL    HW121596   3.801   2.417   6.166
 7088SOL    HW221597   3.845   2.559   6.233
 7089SOL     OW21598   3.751   3.458   5.703
 7089SOL    HW121599   3.732   3.362   5.724
 7089SOL    HW221600   3.718   3.516   5.778
 7090SOL     OW21601   3.837   2.599   7.183
 7090SOL    HW121602   3.925   2.586   7.228
 7090SOL    HW221603   3.824   2.696   7.161
 7091SOL     OW21604   3.800   2.673   6.375
 7091SOL    HW121605   3.899   2.661   6.384
 7091SOL    HW221606   3.776   2.768   6.396
 7092SOL     OW21607   3.854   3.683   7.157
 7092SOL    HW121608   3.844   3.668   7.256
 7092SOL    HW221609   3.768   3.719   7.121
 7093SOL     OW21610   3.926   2.147   7.084
 7093SOL    HW121611   3.846   2.207   7.071
 7093SOL    HW221612   3.916   2.098   7.170
 7094SOL     OW21613   4.021   1.897   5.757
 7094SOL    HW121614   4.070   1.981   5.736
 7094SOL    HW221615   4.083   1.832   5.802
 7095SOL     OW21616   3.802   2.418   6.972
 7095SOL    HW121617   3.894   2.417   6.931
 7095SOL    HW221618   3.796   2.492   7.039
 7096SOL     OW21619   4.251   2.118   5.914
 7096SOL    HW121620   4.278   2.059   5.839
 7096SOL    HW221621   4.251   2.213   5.883
 7097SOL     OW21622   3.788   3.426   6.917
 7097SOL    HW121623   3.742   3.508   6.883
 7097SOL    HW221624   3.886   3.445   6.926
 7098SOL     OW21625   4.091   2.962   6.087
 7098SOL    HW121626   4.084   3.045   6.031
 7098SOL    HW221627   4.095   2.882   6.027
 7099SOL     OW21628   4.031   2.075   6.817
 7099SOL    HW121629   4.008   2.112   6.907
 7099SOL    HW221630   4.001   1.980   6.811
 7100SOL     OW21631   3.761   3.172   6.868
 7100SOL    HW121632   3.814   3.123   6.936
 7100SOL    HW221633   3.783   3.270   6.873
 7101SOL     OW21634   4.031   1.925   6.204
 7101SOL    HW121635   4.020   2.019   6.237
 7101SOL    HW221636   4.026   1.862   6.281
 7102SOL     OW21637   3.732   3.188   5.786
 7102SOL    HW121638   3.639   3.209   5.755
 7102SOL    HW221639   3.742   3.089   5.799
 7103SOL     OW21640   3.812   3.663   6.513
 7103SOL    HW121641   3.770   3.577   6.486
 7103SOL    HW221642   3.906   3.666   6.479
 7104SOL     OW21643   4.228   3.430   6.496
 7104SOL    HW121644   4.294   3.504   6.505
 7104SOL    HW221645   4.272   3.351   6.454
 7105SOL     OW21646   3.764   2.406   6.700
 7105SOL    HW121647   3.849   2.373   6.659
 7105SOL    HW221648   3.777   2.421   6.798
 7106SOL     OW21649   3.913   2.382   7.308
 7106SOL    HW121650   3.972   2.342   7.238
 7106SOL    HW221651   3.855   2.453   7.267
 7107SOL     OW21652   3.976   3.426   7.330
 7107SOL    HW121653   3.946   3.483   7.406
 7107SOL    HW221654   3.969   3.329   7.356
 7108SOL     OW21655   3.883   2.999   7.052
 7108SOL    HW121656   3.905   2.938   7.128
 7108SOL    HW221657   3.893   2.950   6.966
 7109SOL     OW21658   3.807   3.120   6.608
 7109SOL    HW121659   3.802   3.119   6.708
 7109SOL    HW221660   3.724   3.079   6.570
 7110SOL     OW21661   3.854   3.656   7.437
 7110SOL    HW121662   3.813   3.582   7.490
 7110SOL    HW221663   3.918   3.707   7.495
 7111SOL     OW21664   3.799   2.207   5.619
 7111SOL    HW121665   3.707   2.179   5.590
 7111SOL    HW221666   3.830   2.284   5.563
 7112SOL     OW21667   3.796   2.028   5.904
 7112SOL    HW121668   3.779   2.111   5.850
 7112SOL    HW221669   3.886   1.991   5.882
 7113SOL     OW21670   3.803   3.102   6.239
 7113SOL    HW121671   3.802   3.055   6.327
 7113SOL    HW221672   3.885   3.074   6.188
 7114SOL     OW21673   3.763   2.939   5.886
 7114SOL    HW121674   3.862   2.928   5.877
 7114SOL    HW221675   3.723   2.853   5.918
 7115SOL     OW21676   3.954   2.490   7.561
 7115SOL    HW121677   3.861   2.488   7.598
 7115SOL    HW221678   3.955   2.451   7.469
 7116SOL     OW21679   3.949   2.137   8.444
 7116SOL    HW121680   3.984   2.120   8.536
 7116SOL    HW221681   3.861   2.092   8.432
 7117SOL     OW21682   3.743   2.230   8.095
 7117SOL    HW121683   3.661   2.273   8.134
 7117SOL    HW221684   3.715   2.157   8.032
 7118SOL     OW21685   4.059   3.297   8.509
 7118SOL    HW121686   3.981   3.266   8.456
 7118SOL    HW221687   4.117   3.355   8.452
 7119SOL     OW21688   3.955   3.575   7.931
 7119SOL    HW121689   3.989   3.652   7.985
 7119SOL    HW221690   3.999   3.575   7.841
 7120SOL     OW21691   3.954   3.296   7.986
 7120SOL    HW121692   3.928   3.392   7.986
 7120SOL    HW221693   3.883   3.242   8.031
 7121SOL     OW21694   3.846   2.505   8.011
 7121SOL    HW121695   3.801   2.417   8.028
 7121SOL    HW221696   3.845   2.559   8.095
 7122SOL     OW21697   3.751   3.458   7.565
 7122SOL    HW121698   3.732   3.362   7.586
 7122SOL    HW221699   3.718   3.516   7.640
 7123SOL     OW21700   3.837   2.599   9.045
 7123SOL    HW121701   3.925   2.586   9.090
 7123SOL    HW221702   3.824   2.696   9.023
 7124SOL     OW21703   3.800   2.673   8.237
 7124SOL    HW121704   3.899   2.661   8.246
 7124SOL    HW221705   3.776   2.768   8.258
 7125SOL     OW21706   3.854   3.683   9.019
 7125SOL    HW121707   3.844   3.668   9.118
 7125SOL    HW221708   3.768   3.719   8.983
 7126SOL     OW21709   3.926   2.147   8.946
 7126SOL    HW121710   3.846   2.207   8.933
 7126SOL    HW221711   3.916   2.098   9.032
 7127SOL     OW21712   4.021   1.897   7.619
 7127SOL    HW121713   4.070   1.981   7.598
 7127SOL    HW221714   4.083   1.832   7.664
 7128SOL     OW21715   3.802   2.418   8.834
 7128SOL    HW121716   3.894   2.417   8.793
 7128SOL    HW221717   3.796   2.492   8.901
 7129SOL     OW21718   4.251   2.118   7.776
 7129SOL    HW121719   4.278   2.059   7.701
 7129SOL    HW221720   4.251   2.213   7.745
 7130SOL     OW21721   3.788   3.426   8.779
 7130SOL    HW121722   3.742   3.508   8.745
 7130SOL    HW221723   3.886   3.445   8.788
 7131SOL     OW21724   4.091   2.962   7.949
 7131SOL    HW121725   4.084   3.045   7.893
 7131SOL    HW221726   4.095   2.882   7.889
 7132SOL     OW21727   4.031   2.075   8.679
 7132SOL    HW121728   4.008   2.112   8.769
 7132SOL    HW221729   4.001   1.980   8.673
 7133SOL     OW21730   3.761   3.172   8.730
 7133SOL    HW121731   3.814   3.123   8.798
 7133SOL    HW221732   3.783   3.270   8.735
 7134SOL     OW21733   4.031   1.925   8.066
 7134SOL    HW121734   4.020   2.019   8.099
 7134SOL    HW221735   4.026   1.862   8.143
 7135SOL     OW21736   3.732   3.188   7.648
 7135SOL    HW121737   3.639   3.209   7.617
 7135SOL    HW221738   3.742   3.089   7.661
 7136SOL     OW21739   3.812   3.663   8.375
 7136SOL    HW121740   3.770   3.577   8.348
 7136SOL    HW221741   3.906   3.666   8.341
 7137SOL     OW21742   4.228   3.430   8.358
 7137SOL    HW121743   4.294   3.504   8.367
 7137SOL    HW221744   4.272   3.351   8.316
 7138SOL     OW21745   3.764   2.406   8.562
 7138SOL    HW121746   3.849   2.373   8.521
 7138SOL    HW221747   3.777   2.421   8.660
 7139SOL     OW21748   3.913   2.382   9.170
 7139SOL    HW121749   3.972   2.342   9.100
 7139SOL    HW221750   3.855   2.453   9.129
 7140SOL     OW21751   3.976   3.426   9.192
 7140SOL    HW121752   3.946   3.483   9.268
 7140SOL    HW221753   3.969   3.329   9.218
 7141SOL     OW21754   3.883   2.999   8.914
 7141SOL    HW121755   3.905   2.938   8.990
 7141SOL    HW221756   3.893   2.950   8.828
 7142SOL     OW21757   3.807   3.120   8.470
 7142SOL    HW121758   3.802   3.119   8.570
 7142SOL    HW221759   3.724   3.079   8.432
 7143SOL     OW21760   3.854   3.656   9.299
 7143SOL    HW121761   3.813   3.582   9.352
 7143SOL    HW221762   3.918   3.707   9.357
 7144SOL     OW21763   3.799   2.207   7.481
 7144SOL    HW121764   3.707   2.179   7.452
 7144SOL    HW221765   3.830   2.284   7.425
 7145SOL     OW21766   3.796   2.028   7.766
 7145SOL    HW121767   3.779   2.111   7.712
 7145SOL    HW221768   3.886   1.991   7.744
 7146SOL     OW21769   3.803   3.102   8.101
 7146SOL    HW121770   3.802   3.055   8.189
 7146SOL    HW221771   3.885   3.074   8.050
 7147SOL     OW21772   3.763   2.939   7.748
 7147SOL    HW121773   3.862   2.928   7.739
 7147SOL    HW221774   3.723   2.853   7.780
 7148SOL     OW21775   3.954   2.490   9.423
 7148SOL    HW121776   3.861   2.488   9.460
 7148SOL    HW221777   3.955   2.451   9.331
 7149SOL     OW21778   3.949   2.137  10.306
 7149SOL    HW121779   3.984   2.120  10.398
 7149SOL    HW221780   3.861   2.092  10.294
 7150SOL     OW21781   3.743   2.230   9.957
 7150SOL    HW121782   3.661   2.273   9.996
 7150SOL    HW221783   3.715   2.157   9.894
 7151SOL     OW21784   4.059   3.297  10.371
 7151SOL    HW121785   3.981   3.266  10.318
 7151SOL    HW221786   4.117   3.355  10.314
 7152SOL     OW21787   3.955   3.575   9.793
 7152SOL    HW121788   3.989   3.652   9.847
 7152SOL    HW221789   3.999   3.575   9.703
 7153SOL     OW21790   3.954   3.296   9.848
 7153SOL    HW121791   3.928   3.392   9.848
 7153SOL    HW221792   3.883   3.242   9.893
 7154SOL     OW21793   3.846   2.505   9.873
 7154SOL    HW121794   3.801   2.417   9.890
 7154SOL    HW221795   3.845   2.559   9.957
 7155SOL     OW21796   3.751   3.458   9.427
 7155SOL    HW121797   3.732   3.362   9.448
 7155SOL    HW221798   3.718   3.516   9.502
 7156SOL     OW21799   3.837   2.599  10.907
 7156SOL    HW121800   3.925   2.586  10.952
 7156SOL    HW221801   3.824   2.696  10.885
 7157SOL     OW21802   3.800   2.673  10.099
 7157SOL    HW121803   3.899   2.661  10.108
 7157SOL    HW221804   3.776   2.768  10.120
 7158SOL     OW21805   3.854   3.683  10.881
 7158SOL    HW121806   3.844   3.668  10.980
 7158SOL    HW221807   3.768   3.719  10.845
 7159SOL     OW21808   3.926   2.147  10.808
 7159SOL    HW121809   3.846   2.207  10.795
 7159SOL    HW221810   3.916   2.098  10.894
 7160SOL     OW21811   4.021   1.897   9.481
 7160SOL    HW121812   4.070   1.981   9.460
 7160SOL    HW221813   4.083   1.832   9.526
 7161SOL     OW21814   3.802   2.418  10.696
 7161SOL    HW121815   3.894   2.417  10.655
 7161SOL    HW221816   3.796   2.492  10.763
 7162SOL     OW21817   4.251   2.118   9.638
 7162SOL    HW121818   4.278   2.059   9.563
 7162SOL    HW221819   4.251   2.213   9.607
 7163SOL     OW21820   3.788   3.426  10.641
 7163SOL    HW121821   3.742   3.508  10.607
 7163SOL    HW221822   3.886   3.445  10.650
 7164SOL     OW21823   4.091   2.962   9.811
 7164SOL    HW121824   4.084   3.045   9.755
 7164SOL    HW221825   4.095   2.882   9.751
 7165SOL     OW21826   4.031   2.075  10.541
 7165SOL    HW121827   4.008   2.112  10.631
 7165SOL    HW221828   4.001   1.980  10.535
 7166SOL     OW21829   3.761   3.172  10.592
 7166SOL    HW121830   3.814   3.123  10.660
 7166SOL    HW221831   3.783   3.270  10.597
 7167SOL     OW21832   4.031   1.925   9.928
 7167SOL    HW121833   4.020   2.019   9.961
 7167SOL    HW221834   4.026   1.862  10.005
 7168SOL     OW21835   3.732   3.188   9.510
 7168SOL    HW121836   3.639   3.209   9.479
 7168SOL    HW221837   3.742   3.089   9.523
 7169SOL     OW21838   3.812   3.663  10.237
 7169SOL    HW121839   3.770   3.577  10.210
 7169SOL    HW221840   3.906   3.666  10.203
 7170SOL     OW21841   4.228   3.430  10.220
 7170SOL    HW121842   4.294   3.504  10.229
 7170SOL    HW221843   4.272   3.351  10.178
 7171SOL     OW21844   3.764   2.406  10.424
 7171SOL    HW121845   3.849   2.373  10.383
 7171SOL    HW221846   3.777   2.421  10.522
 7172SOL     OW21847   3.913   2.382  11.032
 7172SOL    HW121848   3.972   2.342  10.962
 7172SOL    HW221849   3.855   2.453  10.991
 7173SOL     OW21850   3.976   3.426  11.054
 7173SOL    HW121851   3.946   3.483  11.130
 7173SOL    HW221852   3.969   3.329  11.080
 7174SOL     OW21853   3.883   2.999  10.776
 7174SOL    HW121854   3.905   2.938  10.852
 7174SOL    HW221855   3.893   2.950  10.690
 7175SOL     OW21856   3.807   3.120  10.332
 7175SOL    HW121857   3.802   3.119  10.432
 7175SOL    HW221858   3.724   3.079  10.294
 7176SOL     OW21859   3.854   3.656  11.161
 7176SOL    HW121860   3.813   3.582  11.214
 7176SOL    HW221861   3.918   3.707  11.219
 7177SOL     OW21862   3.799   2.207   9.343
 7177SOL    HW121863   3.707   2.179   9.314
 7177SOL    HW221864   3.830   2.284   9.287
 7178SOL     OW21865   3.796   2.028   9.628
 7178SOL    HW121866   3.779   2.111   9.574
 7178SOL    HW221867   3.886   1.991   9.606
 7179SOL     OW21868   3.803   3.102   9.963
 7179SOL    HW121869   3.802   3.055  10.051
 7179SOL    HW221870   3.885   3.074   9.912
 7180SOL     OW21871   3.763   2.939   9.610
 7180SOL    HW121872   3.862   2.928   9.601
 7180SOL    HW221873   3.723   2.853   9.642
 7181SOL     OW21874   3.954   2.490  11.285
 7181SOL    HW121875   3.861   2.488  11.322
 7181SOL    HW221876   3.955   2.451  11.193
 7182SOL     OW21877   3.949   2.137  12.168
 7182SOL    HW121878   3.984   2.120  12.260
 7182SOL    HW221879   3.861   2.092  12.156
 7183SOL     OW21880   3.743   2.230  11.819
 7183SOL    HW121881   3.661   2.273  11.858
 7183SOL    HW221882   3.715   2.157  11.756
 7184SOL     OW21883   4.059   3.297  12.233
 7184SOL    HW121884   3.981   3.266  12.180
 7184SOL    HW221885   4.117   3.355  12.176
 7185SOL     OW21886   3.955   3.575  11.655
 7185SOL    HW121887   3.989   3.652  11.709
 7185SOL    HW221888   3.999   3.575  11.565
 7186SOL     OW21889   3.954   3.296  11.710
 7186SOL    HW121890   3.928   3.392  11.710
 7186SOL    HW221891   3.883   3.242  11.755
 7187SOL     OW21892   3.846   2.505  11.735
 7187SOL    HW121893   3.801   2.417  11.752
 7187SOL    HW221894   3.845   2.559  11.819
 7188SOL     OW21895   3.751   3.458  11.289
 7188SOL    HW121896   3.732   3.362  11.310
 7188SOL    HW221897   3.718   3.516  11.364
 7189SOL     OW21898   3.837   2.599  12.769
 7189SOL    HW121899   3.925   2.586  12.814
 7189SOL    HW221900   3.824   2.696  12.747
 7190SOL     OW21901   3.800   2.673  11.961
 7190SOL    HW121902   3.899   2.661  11.970
 7190SOL    HW221903   3.776   2.768  11.982
 7191SOL     OW21904   3.854   3.683  12.743
 7191SOL    HW121905   3.844   3.668  12.842
 7191SOL    HW221906   3.768   3.719  12.707
 7192SOL     OW21907   3.926   2.147  12.670
 7192SOL    HW121908   3.846   2.207  12.657
 7192SOL    HW221909   3.916   2.098  12.756
 7193SOL     OW21910   4.021   1.897  11.343
 7193SOL    HW121911   4.070   1.981  11.322
 7193SOL    HW221912   4.083   1.832  11.388
 7194SOL     OW21913   3.802   2.418  12.558
 7194SOL    HW121914   3.894   2.417  12.517
 7194SOL    HW221915   3.796   2.492  12.625
 7195SOL     OW21916   4.251   2.118  11.500
 7195SOL    HW121917   4.278   2.059  11.425
 7195SOL    HW221918   4.251   2.213  11.469
 7196SOL     OW21919   3.788   3.426  12.503
 7196SOL    HW121920   3.742   3.508  12.469
 7196SOL    HW221921   3.886   3.445  12.512
 7197SOL     OW21922   4.091   2.962  11.673
 7197SOL    HW121923   4.084   3.045  11.617
 7197SOL    HW221924   4.095   2.882  11.613
 7198SOL     OW21925   4.031   2.075  12.403
 7198SOL    HW121926   4.008   2.112  12.493
 7198SOL    HW221927   4.001   1.980  12.397
 7199SOL     OW21928   3.761   3.172  12.454
 7199SOL    HW121929   3.814   3.123  12.522
 7199SOL    HW221930   3.783   3.270  12.459
 7200SOL     OW21931   4.031   1.925  11.790
 7200SOL    HW121932   4.020   2.019  11.823
 7200SOL    HW221933   4.026   1.862  11.867
 7201SOL     OW21934   3.732   3.188  11.372
 7201SOL    HW121935   3.639   3.209  11.341
 7201SOL    HW221936   3.742   3.089  11.385
 7202SOL     OW21937   3.812   3.663  12.099
 7202SOL    HW121938   3.770   3.577  12.072
 7202SOL    HW221939   3.906   3.666  12.065
 7203SOL     OW21940   4.228   3.430  12.082
 7203SOL    HW121941   4.294   3.504  12.091
 7203SOL    HW221942   4.272   3.351  12.040
 7204SOL     OW21943   3.764   2.406  12.286
 7204SOL    HW121944   3.849   2.373  12.245
 7204SOL    HW221945   3.777   2.421  12.384
 7205SOL     OW21946   3.913   2.382  12.894
 7205SOL    HW121947   3.972   2.342  12.824
 7205SOL    HW221948   3.855   2.453  12.853
 7206SOL     OW21949   3.976   3.426  12.916
 7206SOL    HW121950   3.946   3.483  12.992
 7206SOL    HW221951   3.969   3.329  12.942
 7207SOL     OW21952   3.883   2.999  12.638
 7207SOL    HW121953   3.905   2.938  12.714
 7207SOL    HW221954   3.893   2.950  12.552
 7208SOL     OW21955   3.807   3.120  12.194
 7208SOL    HW121956   3.802   3.119  12.294
 7208SOL    HW221957   3.724   3.079  12.156
 7209SOL     OW21958   3.854   3.656  13.023
 7209SOL    HW121959   3.813   3.582  13.076
 7209SOL    HW221960   3.918   3.707  13.081
 7210SOL     OW21961   3.799   2.207  11.205
 7210SOL    HW121962   3.707   2.179  11.176
 7210SOL    HW221963   3.830   2.284  11.149
 7211SOL     OW21964   3.796   2.028  11.490
 7211SOL    HW121965   3.779   2.111  11.436
 7211SOL    HW221966   3.886   1.991  11.468
 7212SOL     OW21967   3.803   3.102  11.825
 7212SOL    HW121968   3.802   3.055  11.913
 7212SOL    HW221969   3.885   3.074  11.774
 7213SOL     OW21970   3.763   2.939  11.472
 7213SOL    HW121971   3.862   2.928  11.463
 7213SOL    HW221972   3.723   2.853  11.504
 7214SOL     OW21973   3.954   2.490  13.147
 7214SOL    HW121974   3.861   2.488  13.184
 7214SOL    HW221975   3.955   2.451  13.055
 7215SOL     OW21976   3.743   2.230  13.681
 7215SOL    HW121977   3.661   2.273  13.720
 7215SOL    HW221978   3.715   2.157  13.618
 7216SOL     OW21979   3.955   3.575  13.517
 7216SOL    HW121980   3.989   3.652  13.571
 7216SOL    HW221981   3.999   3.575  13.427
 7217SOL     OW21982   3.954   3.296  13.572
 7217SOL    HW121983   3.928   3.392  13.572
 7217SOL    HW221984   3.883   3.242  13.617
 7218SOL     OW21985   3.964   2.953  13.920
 7218SOL    HW121986   3.978   2.869  13.972
 7218SOL    HW221987   3.909   3.017  13.975
 7219SOL     OW21988   3.846   2.505  13.597
 7219SOL    HW121989   3.801   2.417  13.614
 7219SOL    HW221990   3.845   2.559  13.681
 7220SOL     OW21991   3.751   3.458  13.151
 7220SOL    HW121992   3.732   3.362  13.172
 7220SOL    HW221993   3.718   3.516  13.226
 7221SOL     OW21994   3.800   2.673  13.823
 7221SOL    HW121995   3.899   2.661  13.832
 7221SOL    HW221996   3.776   2.768  13.844
 7222SOL     OW21997   4.075   3.663  13.887
 7222SOL    HW121998   4.125   3.577  13.893
 7222SOL    HW221999   4.140   3.740  13.884
 7223SOL     OW22000   4.021   1.897  13.205
 7223SOL    HW122001   4.070   1.981  13.184
 7223SOL    HW222002   4.083   1.832  13.250
 7224SOL     OW22003   4.251   2.118  13.362
 7224SOL    HW122004   4.278   2.059  13.287
 7224SOL    HW222005   4.251   2.213  13.331
 7225SOL     OW22006   4.091   2.962  13.535
 7225SOL    HW122007   4.084   3.045  13.479
 7225SOL    HW222008   4.095   2.882  13.475
 7226SOL     OW22009   4.031   1.925  13.652
 7226SOL    HW122010   4.020   2.019  13.685
 7226SOL    HW222011   4.026   1.862  13.729
 7227SOL     OW22012   3.732   3.188  13.234
 7227SOL    HW122013   3.639   3.209  13.203
 7227SOL    HW222014   3.742   3.089  13.247
 7228SOL     OW22015   4.228   3.430  13.944
 7228SOL    HW122016   4.294   3.504  13.953
 7228SOL    HW222017   4.272   3.351  13.902
 7229SOL     OW22018   3.799   2.207  13.067
 7229SOL    HW122019   3.707   2.179  13.038
 7229SOL    HW222020   3.830   2.284  13.011
 7230SOL     OW22021   3.796   2.028  13.352
 7230SOL    HW122022   3.779   2.111  13.298
 7230SOL    HW222023   3.886   1.991  13.330
 7231SOL     OW22024   3.803   3.102  13.687
 7231SOL    HW122025   3.802   3.055  13.775
 7231SOL    HW222026   3.885   3.074  13.636
 7232SOL     OW22027   3.763   2.939  13.334
 7232SOL    HW122028   3.862   2.928  13.325
 7232SOL    HW222029   3.723   2.853  13.366
 7233SOL     OW22030   3.949   3.999   0.996
 7233SOL    HW122031   3.984   3.982   1.088
 7233SOL    HW222032   3.861   3.954   0.984
 7234SOL     OW22033   3.743   4.092   0.647
 7234SOL    HW122034   3.661   4.135   0.686
 7234SOL    HW222035   3.715   4.019   0.584
 7235SOL     OW22036   3.926   4.009   1.498
 7235SOL    HW122037   3.846   4.069   1.485
 7235SOL    HW222038   3.916   3.960   1.584
 7236SOL     OW22039   4.021   3.759   0.171
 7236SOL    HW122040   4.070   3.843   0.150
 7236SOL    HW222041   4.083   3.694   0.216
 7237SOL     OW22042   4.031   3.937   1.231
 7237SOL    HW122043   4.008   3.974   1.321
 7237SOL    HW222044   4.001   3.842   1.225
 7238SOL     OW22045   4.031   3.787   0.618
 7238SOL    HW122046   4.020   3.881   0.651
 7238SOL    HW222047   4.026   3.724   0.695
 7239SOL     OW22048   3.796   3.890   0.318
 7239SOL    HW122049   3.779   3.973   0.264
 7239SOL    HW222050   3.886   3.853   0.296
 7240SOL     OW22051   3.949   3.999   2.858
 7240SOL    HW122052   3.984   3.982   2.950
 7240SOL    HW222053   3.861   3.954   2.846
 7241SOL     OW22054   3.743   4.092   2.509
 7241SOL    HW122055   3.661   4.135   2.548
 7241SOL    HW222056   3.715   4.019   2.446
 7242SOL     OW22057   3.926   4.009   3.360
 7242SOL    HW122058   3.846   4.069   3.347
 7242SOL    HW222059   3.916   3.960   3.446
 7243SOL     OW22060   4.021   3.759   2.033
 7243SOL    HW122061   4.070   3.843   2.012
 7243SOL    HW222062   4.083   3.694   2.078
 7244SOL     OW22063   4.031   3.937   3.093
 7244SOL    HW122064   4.008   3.974   3.183
 7244SOL    HW222065   4.001   3.842   3.087
 7245SOL     OW22066   4.031   3.787   2.480
 7245SOL    HW122067   4.020   3.881   2.513
 7245SOL    HW222068   4.026   3.724   2.557
 7246SOL     OW22069   3.799   4.069   1.895
 7246SOL    HW122070   3.707   4.041   1.866
 7246SOL    HW222071   3.830   4.146   1.839
 7247SOL     OW22072   3.796   3.890   2.180
 7247SOL    HW122073   3.779   3.973   2.126
 7247SOL    HW222074   3.886   3.853   2.158
 7248SOL     OW22075   3.949   3.999   4.720
 7248SOL    HW122076   3.984   3.982   4.812
 7248SOL    HW222077   3.861   3.954   4.708
 7249SOL     OW22078   3.743   4.092   4.371
 7249SOL    HW122079   3.661   4.135   4.410
 7249SOL    HW222080   3.715   4.019   4.308
 7250SOL     OW22081   3.926   4.009   5.222
 7250SOL    HW122082   3.846   4.069   5.209
 7250SOL    HW222083   3.916   3.960   5.308
 7251SOL     OW22084   4.021   3.759   3.895
 7251SOL    HW122085   4.070   3.843   3.874
 7251SOL    HW222086   4.083   3.694   3.940
 7252SOL     OW22087   4.031   3.937   4.955
 7252SOL    HW122088   4.008   3.974   5.045
 7252SOL    HW222089   4.001   3.842   4.949
 7253SOL     OW22090   4.031   3.787   4.342
 7253SOL    HW122091   4.020   3.881   4.375
 7253SOL    HW222092   4.026   3.724   4.419
 7254SOL     OW22093   3.799   4.069   3.757
 7254SOL    HW122094   3.707   4.041   3.728
 7254SOL    HW222095   3.830   4.146   3.701
 7255SOL     OW22096   3.796   3.890   4.042
 7255SOL    HW122097   3.779   3.973   3.988
 7255SOL    HW222098   3.886   3.853   4.020
 7256SOL     OW22099   3.949   3.999   6.582
 7256SOL    HW122100   3.984   3.982   6.674
 7256SOL    HW222101   3.861   3.954   6.570
 7257SOL     OW22102   3.743   4.092   6.233
 7257SOL    HW122103   3.661   4.135   6.272
 7257SOL    HW222104   3.715   4.019   6.170
 7258SOL     OW22105   3.926   4.009   7.084
 7258SOL    HW122106   3.846   4.069   7.071
 7258SOL    HW222107   3.916   3.960   7.170
 7259SOL     OW22108   4.021   3.759   5.757
 7259SOL    HW122109   4.070   3.843   5.736
 7259SOL    HW222110   4.083   3.694   5.802
 7260SOL     OW22111   4.031   3.937   6.817
 7260SOL    HW122112   4.008   3.974   6.907
 7260SOL    HW222113   4.001   3.842   6.811
 7261SOL     OW22114   4.031   3.787   6.204
 7261SOL    HW122115   4.020   3.881   6.237
 7261SOL    HW222116   4.026   3.724   6.281
 7262SOL     OW22117   3.799   4.069   5.619
 7262SOL    HW122118   3.707   4.041   5.590
 7262SOL    HW222119   3.830   4.146   5.563
 7263SOL     OW22120   3.796   3.890   5.904
 7263SOL    HW122121   3.779   3.973   5.850
 7263SOL    HW222122   3.886   3.853   5.882
 7264SOL     OW22123   3.949   3.999   8.444
 7264SOL    HW122124   3.984   3.982   8.536
 7264SOL    HW222125   3.861   3.954   8.432
 7265SOL     OW22126   3.743   4.092   8.095
 7265SOL    HW122127   3.661   4.135   8.134
 7265SOL    HW222128   3.715   4.019   8.032
 7266SOL     OW22129   3.926   4.009   8.946
 7266SOL    HW122130   3.846   4.069   8.933
 7266SOL    HW222131   3.916   3.960   9.032
 7267SOL     OW22132   4.021   3.759   7.619
 7267SOL    HW122133   4.070   3.843   7.598
 7267SOL    HW222134   4.083   3.694   7.664
 7268SOL     OW22135   4.031   3.937   8.679
 7268SOL    HW122136   4.008   3.974   8.769
 7268SOL    HW222137   4.001   3.842   8.673
 7269SOL     OW22138   4.031   3.787   8.066
 7269SOL    HW122139   4.020   3.881   8.099
 7269SOL    HW222140   4.026   3.724   8.143
 7270SOL     OW22141   3.799   4.069   7.481
 7270SOL    HW122142   3.707   4.041   7.452
 7270SOL    HW222143   3.830   4.146   7.425
 7271SOL     OW22144   3.796   3.890   7.766
 7271SOL    HW122145   3.779   3.973   7.712
 7271SOL    HW222146   3.886   3.853   7.744
 7272SOL     OW22147   3.949   3.999  10.306
 7272SOL    HW122148   3.984   3.982  10.398
 7272SOL    HW222149   3.861   3.954  10.294
 7273SOL     OW22150   3.743   4.092   9.957
 7273SOL    HW122151   3.661   4.135   9.996
 7273SOL    HW222152   3.715   4.019   9.894
 7274SOL     OW22153   3.926   4.009  10.808
 7274SOL    HW122154   3.846   4.069  10.795
 7274SOL    HW222155   3.916   3.960  10.894
 7275SOL     OW22156   4.021   3.759   9.481
 7275SOL    HW122157   4.070   3.843   9.460
 7275SOL    HW222158   4.083   3.694   9.526
 7276SOL     OW22159   4.031   3.937  10.541
 7276SOL    HW122160   4.008   3.974  10.631
 7276SOL    HW222161   4.001   3.842  10.535
 7277SOL     OW22162   4.031   3.787   9.928
 7277SOL    HW122163   4.020   3.881   9.961
 7277SOL    HW222164   4.026   3.724  10.005
 7278SOL     OW22165   3.799   4.069   9.343
 7278SOL    HW122166   3.707   4.041   9.314
 7278SOL    HW222167   3.830   4.146   9.287
 7279SOL     OW22168   3.796   3.890   9.628
 7279SOL    HW122169   3.779   3.973   9.574
 7279SOL    HW222170   3.886   3.853   9.606
 7280SOL     OW22171   3.949   3.999  12.168
 7280SOL    HW122172   3.984   3.982  12.260
 7280SOL    HW222173   3.861   3.954  12.156
 7281SOL     OW22174   3.743   4.092  11.819
 7281SOL    HW122175   3.661   4.135  11.858
 7281SOL    HW222176   3.715   4.019  11.756
 7282SOL     OW22177   3.926   4.009  12.670
 7282SOL    HW122178   3.846   4.069  12.657
 7282SOL    HW222179   3.916   3.960  12.756
 7283SOL     OW22180   4.021   3.759  11.343
 7283SOL    HW122181   4.070   3.843  11.322
 7283SOL    HW222182   4.083   3.694  11.388
 7284SOL     OW22183   4.031   3.937  12.403
 7284SOL    HW122184   4.008   3.974  12.493
 7284SOL    HW222185   4.001   3.842  12.397
 7285SOL     OW22186   4.031   3.787  11.790
 7285SOL    HW122187   4.020   3.881  11.823
 7285SOL    HW222188   4.026   3.724  11.867
 7286SOL     OW22189   3.799   4.069  11.205
 7286SOL    HW122190   3.707   4.041  11.176
 7286SOL    HW222191   3.830   4.146  11.149
 7287SOL     OW22192   3.796   3.890  11.490
 7287SOL    HW122193   3.779   3.973  11.436
 7287SOL    HW222194   3.886   3.853  11.468
 7288SOL     OW22195   3.743   4.092  13.681
 7288SOL    HW122196   3.661   4.135  13.720
 7288SOL    HW222197   3.715   4.019  13.618
 7289SOL     OW22198   4.021   3.759  13.205
 7289SOL    HW122199   4.070   3.843  13.184
 7289SOL    HW222200   4.083   3.694  13.250
 7290SOL     OW22201   4.031   3.787  13.652
 7290SOL    HW122202   4.020   3.881  13.685
 7290SOL    HW222203   4.026   3.724  13.729
 7291SOL     OW22204   3.799   4.069  13.067
 7291SOL    HW122205   3.707   4.041  13.038
 7291SOL    HW222206   3.830   4.146  13.011
 7292SOL     OW22207   3.796   3.890  13.352
 7292SOL    HW122208   3.779   3.973  13.298
 7292SOL    HW222209   3.886   3.853  13.330
   4.00000   4.00000  13.90000
