2gCDOH_2PEG_l11
22041
    1LIG      O    1   2.375   2.327   0.025
    1LIG      C    2   2.353   2.402   0.151
    1LIG     C1    3   2.426   2.341   0.279
    1LIG     O1    4   2.360   2.383   0.403
    1LIG     C2    5   2.426   2.343   0.528
    1LIG     C3    6   2.349   2.394   0.657
    1LIG     O2    7   2.404   2.339   0.782
    1LIG     C4    8   2.364   2.413   0.902
    1LIG     C5    9   2.436   2.360   1.032
    1LIG     O3   10   2.365   2.400   1.154
    1LIG     C6   11   2.428   2.348   1.274
    1LIG     C7   12   2.362   2.409   1.402
    1LIG     O4   13   2.421   2.357   1.524
    1LIG     C8   14   2.366   2.415   1.646
    1LIG     C9   15   2.428   2.348   1.772
    1LIG     O5   16   2.362   2.396   1.891
    1LIG    C10   17   2.424   2.346   2.013
    1LIG    C11   18   2.344   2.395   2.138
    1LIG     O6   19   2.396   2.334   2.260
    1LIG    C12   20   2.349   2.399   2.382
    1LIG    C13   21   2.422   2.338   2.507
    1LIG     O7   22   2.352   2.370   2.630
    1LIG    C14   23   2.427   2.332   2.748
    1LIG    C15   24   2.366   2.397   2.876
    1LIG     O8   25   2.408   2.327   2.997
    1LIG    C16   26   2.373   2.399   3.119
    1LIG    C17   27   2.434   2.332   3.247
    1LIG     O9   28   2.382   2.396   3.367
    1LIG    C18   29   2.439   2.338   3.488
    1LIG    C19   30   2.377   2.401   3.618
    1LIG    O10   31   2.416   2.327   3.736
    1LIG    C20   32   2.369   2.389   3.859
    1LIG    C21   33   2.426   2.315   3.986
    1LIG    O11   34   2.364   2.364   4.109
    1LIG    C22   35   2.431   2.319   4.230
    1LIG    C23   36   2.357   2.375   4.357
    1LIG    O12   37   2.409   2.321   4.481
    1LIG    C24   38   2.366   2.399   4.597
    1LIG    C25   39   2.440   2.351   4.725
    1LIG    O13   40   2.372   2.399   4.845
    1LIG    C26   41   2.438   2.359   4.968
    1LIG    C27   42   2.371   2.427   5.091
    1LIG    O14   43   2.426   2.372   5.212
    1LIG    C28   44   2.365   2.421   5.334
    1LIG    C29   45   2.426   2.347   5.458
    1LIG    O15   46   2.357   2.389   5.578
    1LIG    C30   47   2.425   2.342   5.698
    1LIG    C31   48   2.353   2.396   5.827
    1LIG    O16   49   2.423   2.355   5.946
    1LIG    C32   50   2.366   2.409   6.067
    1LIG    C33   51   2.431   2.341   6.191
    1LIG    O17   52   2.376   2.394   6.313
    1LIG    C34   53   2.434   2.335   6.431
    1LIG    C35   54   2.368   2.398   6.557
    1LIG    O18   55   2.414   2.330   6.677
    1LIG    C36   56   2.375   2.400   6.798
    1LIG    C37   57   2.436   2.334   6.926
    1LIG    O19   58   2.379   2.396   7.044
    1LIG    C38   59   2.437   2.344   7.166
    1LIG    C39   60   2.371   2.410   7.292
    1LIG    O20   61   2.419   2.344   7.412
    1LIG    C40   62   2.366   2.400   7.535
    1LIG    C41   63   2.426   2.329   7.660
    1LIG    O21   64   2.357   2.373   7.781
    1LIG    C42   65   2.418   2.327   7.904
    1LIG    C43   66   2.347   2.390   8.028
    1LIG    O22   67   2.402   2.336   8.151
    1LIG    C44   68   2.361   2.403   8.273
    1LIG    C45   69   2.428   2.334   8.397
    1LIG    O23   70   2.370   2.384   8.520
    1LIG    C46   71   2.431   2.327   8.639
    1LIG    C47   72   2.374   2.401   8.764
    1LIG    O24   73   2.427   2.347   8.888
    1LIG    C48   74   2.367   2.405   9.008
    1LIG    C49   75   2.430   2.341   9.135
    1LIG    O25   76   2.367   2.394   9.255
    1LIG    C50   77   2.432   2.347   9.376
    1LIG    C51   78   2.356   2.403   9.501
    1LIG    O26   79   2.413   2.349   9.625
    1LIG    C52   80   2.356   2.402   9.749
    1LIG    C53   81   2.427   2.336   9.873
    1LIG    O27   82   2.354   2.362   9.997
    1LIG    C54   83   2.431   2.331  10.117
    1LIG    C55   84   2.366   2.399  10.244
    1LIG    O28   85   2.406   2.334  10.370
    1LIG    C56   86   2.366   2.406  10.491
    1LIG    C57   87   2.426   2.343  10.624
    1LIG    O29   88   2.364   2.397  10.747
    1LIG    C58   89   2.414   2.330  10.868
    1LIG    C59   90   2.384   2.411  11.004
    1LIG      H   91   2.246   2.407   0.172
    1LIG     H1   92   2.386   2.506   0.136
    1LIG     H2   93   2.530   2.375   0.280
    1LIG     H3   94   2.427   2.231   0.274
    1LIG     H4   95   2.528   2.383   0.529
    1LIG     H5   96   2.434   2.233   0.532
    1LIG     H6   97   2.244   2.369   0.650
    1LIG     H7   98   2.348   2.503   0.662
    1LIG     H8   99   2.256   2.404   0.915
    1LIG     H9  100   2.387   2.519   0.890
    1LIG    H10  101   2.538   2.398   1.035
    1LIG    H11  102   2.441   2.250   1.027
    1LIG    H12  103   2.535   2.374   1.273
    1LIG    H13  104   2.420   2.239   1.278
    1LIG    H14  105   2.254   2.392   1.402
    1LIG    H15  106   2.372   2.517   1.400
    1LIG    H16  107   2.258   2.402   1.647
    1LIG    H17  108   2.386   2.523   1.648
    1LIG    H18  109   2.535   2.371   1.777
    1LIG    H19  110   2.415   2.239   1.766
    1LIG    H20  111   2.527   2.381   2.018
    1LIG    H21  112   2.425   2.236   2.011
    1LIG    H22  113   2.239   2.370   2.126
    1LIG    H23  114   2.343   2.503   2.146
    1LIG    H24  115   2.241   2.386   2.391
    1LIG    H25  116   2.369   2.506   2.375
    1LIG    H26  117   2.523   2.379   2.511
    1LIG    H27  118   2.429   2.228   2.497
    1LIG    H28  119   2.531   2.366   2.738
    1LIG    H29  120   2.428   2.222   2.757
    1LIG    H30  121   2.257   2.398   2.870
    1LIG    H31  122   2.397   2.502   2.881
    1LIG    H32  123   2.264   2.405   3.129
    1LIG    H33  124   2.412   2.501   3.113
    1LIG    H34  125   2.543   2.343   3.244
    1LIG    H35  126   2.409   2.225   3.248
    1LIG    H36  127   2.548   2.355   3.488
    1LIG    H37  128   2.420   2.230   3.488
    1LIG    H38  129   2.268   2.400   3.610
    1LIG    H39  130   2.409   2.505   3.626
    1LIG    H40  131   2.260   2.386   3.861
    1LIG    H41  132   2.397   2.494   3.859
    1LIG    H42  133   2.533   2.333   3.989
    1LIG    H43  134   2.411   2.207   3.979
    1LIG    H44  135   2.534   2.356   4.231
    1LIG    H45  136   2.433   2.210   4.233
    1LIG    H46  137   2.250   2.356   4.350
    1LIG    H47  138   2.364   2.483   4.358
    1LIG    H48  139   2.258   2.388   4.610
    1LIG    H49  140   2.387   2.505   4.581
    1LIG    H50  141   2.543   2.388   4.724
    1LIG    H51  142   2.443   2.242   4.725
    1LIG    H52  143   2.544   2.387   4.964
    1LIG    H53  144   2.432   2.251   4.980
    1LIG    H54  145   2.263   2.410   5.088
    1LIG    H55  146   2.387   2.536   5.087
    1LIG    H56  147   2.257   2.402   5.330
    1LIG    H57  148   2.381   2.529   5.343
    1LIG    H58  149   2.533   2.372   5.465
    1LIG    H59  150   2.416   2.239   5.446
    1LIG    H60  151   2.528   2.379   5.698
    1LIG    H61  152   2.427   2.233   5.699
    1LIG    H62  153   2.251   2.362   5.830
    1LIG    H63  154   2.343   2.504   5.826
    1LIG    H64  155   2.258   2.392   6.068
    1LIG    H65  156   2.383   2.518   6.070
    1LIG    H66  157   2.538   2.361   6.189
    1LIG    H67  158   2.417   2.232   6.187
    1LIG    H68  159   2.541   2.356   6.433
    1LIG    H69  160   2.419   2.226   6.431
    1LIG    H70  161   2.259   2.392   6.550
    1LIG    H71  162   2.394   2.503   6.561
    1LIG    H72  163   2.266   2.402   6.806
    1LIG    H73  164   2.410   2.503   6.793
    1LIG    H74  165   2.544   2.349   6.925
    1LIG    H75  166   2.415   2.226   6.926
    1LIG    H76  167   2.545   2.365   7.167
    1LIG    H77  168   2.422   2.236   7.171
    1LIG    H78  169   2.262   2.400   7.286
    1LIG    H79  170   2.395   2.517   7.295
    1LIG    H80  171   2.257   2.389   7.535
    1LIG    H81  172   2.387   2.508   7.538
    1LIG    H82  173   2.532   2.354   7.667
    1LIG    H83  174   2.419   2.220   7.652
    1LIG    H84  175   2.524   2.356   7.907
    1LIG    H85  176   2.414   2.217   7.909
    1LIG    H86  177   2.240   2.372   8.023
    1LIG    H87  178   2.357   2.499   8.023
    1LIG    H88  179   2.253   2.399   8.283
    1LIG    H89  180   2.390   2.508   8.271
    1LIG    H90  181   2.535   2.355   8.396
    1LIG    H91  182   2.416   2.225   8.392
    1LIG    H92  183   2.540   2.340   8.636
    1LIG    H93  184   2.410   2.219   8.645
    1LIG    H94  185   2.265   2.397   8.765
    1LIG    H95  186   2.402   2.506   8.756
    1LIG    H96  187   2.259   2.390   9.007
    1LIG    H97  188   2.385   2.513   9.010
    1LIG    H98  189   2.537   2.363   9.137
    1LIG    H99  190   2.416   2.232   9.132
    1LIG   H100  191   2.536   2.381   9.378
    1LIG   H101  192   2.431   2.238   9.378
    1LIG   H102  193   2.252   2.376   9.495
    1LIG   H103  194   2.358   2.512   9.499
    1LIG   H104  195   2.249   2.382   9.751
    1LIG   H105  196   2.368   2.510   9.753
    1LIG   H106  197   2.527   2.379   9.879
    1LIG   H107  198   2.437   2.228   9.858
    1LIG   H108  199   2.533   2.370  10.107
    1LIG   H109  200   2.437   2.222  10.130
    1LIG   H110  201   2.257   2.397  10.235
    1LIG   H111  202   2.396   2.504  10.246
    1LIG   H112  203   2.257   2.410  10.497
    1LIG   H113  204   2.401   2.509  10.483
    1LIG   H114  205   2.533   2.365  10.627
    1LIG   H115  206   2.414   2.234  10.621
    1LIG   H116  207   2.523   2.318  10.859
    1LIG   H117  208   2.373   2.229  10.872
    1LIG   H118  209   2.293   2.471  10.993
    1LIG   H119  210   2.466   2.482  11.019
    2LIG      O  211   2.119   2.058   0.033
    2LIG      C  212   2.158   2.132   0.156
    2LIG     C1  213   2.085   2.082   0.289
    2LIG     O1  214   2.160   2.110   0.413
    2LIG     C2  215   2.091   2.064   0.535
    2LIG     C3  216   2.143   2.139   0.664
    2LIG     O2  217   2.104   2.075   0.789
    2LIG     C4  218   2.141   2.155   0.907
    2LIG     C5  219   2.086   2.095   1.041
    2LIG     O3  220   2.161   2.136   1.159
    2LIG     C6  221   2.088   2.096   1.279
    2LIG     C7  222   2.155   2.149   1.407
    2LIG     O4  223   2.102   2.086   1.525
    2LIG     C8  224   2.142   2.157   1.645
    2LIG     C9  225   2.082   2.090   1.770
    2LIG     O5  226   2.152   2.132   1.890
    2LIG    C10  227   2.088   2.078   2.008
    2LIG    C11  228   2.148   2.138   2.139
    2LIG     O6  229   2.108   2.065   2.259
    2LIG    C12  230   2.141   2.141   2.379
    2LIG    C13  231   2.080   2.078   2.508
    2LIG     O7  232   2.152   2.123   2.626
    2LIG    C14  233   2.076   2.097   2.746
    2LIG    C15  234   2.144   2.152   2.876
    2LIG     O8  235   2.093   2.089   2.996
    2LIG    C16  236   2.144   2.149   3.118
    2LIG    C17  237   2.080   2.090   3.248
    2LIG     O9  238   2.136   2.153   3.367
    2LIG    C18  239   2.088   2.088   3.489
    2LIG    C19  240   2.149   2.153   3.617
    2LIG    O10  241   2.113   2.077   3.736
    2LIG    C20  242   2.144   2.148   3.859
    2LIG    C21  243   2.065   2.095   3.984
    2LIG    O11  244   2.142   2.116   4.106
    2LIG    C22  245   2.072   2.069   4.224
    2LIG    C23  246   2.129   2.137   4.353
    2LIG    O12  247   2.082   2.074   4.474
    2LIG    C24  248   2.120   2.151   4.592
    2LIG    C25  249   2.059   2.090   4.722
    2LIG    O13  250   2.122   2.148   4.841
    2LIG    C26  251   2.058   2.105   4.964
    2LIG    C27  252   2.141   2.151   5.087
    2LIG    O14  253   2.088   2.094   5.208
    2LIG    C28  254   2.144   2.156   5.326
    2LIG    C29  255   2.096   2.083   5.454
    2LIG    O15  256   2.172   2.123   5.571
    2LIG    C30  257   2.101   2.079   5.689
    2LIG    C31  258   2.155   2.138   5.822
    2LIG    O16  259   2.109   2.069   5.942
    2LIG    C32  260   2.148   2.145   6.061
    2LIG    C33  261   2.081   2.087   6.190
    2LIG    O17  262   2.135   2.144   6.313
    2LIG    C34  263   2.065   2.097   6.432
    2LIG    C35  264   2.129   2.157   6.561
    2LIG    O18  265   2.076   2.097   6.682
    2LIG    C36  266   2.138   2.153   6.802
    2LIG    C37  267   2.077   2.094   6.933
    2LIG    O19  268   2.135   2.158   7.050
    2LIG    C38  269   2.090   2.090   7.171
    2LIG    C39  270   2.152   2.152   7.300
    2LIG    O20  271   2.123   2.068   7.416
    2LIG    C40  272   2.159   2.132   7.541
    2LIG    C41  273   2.089   2.065   7.664
    2LIG    O21  274   2.153   2.105   7.788
    2LIG    C42  275   2.075   2.071   7.905
    2LIG    C43  276   2.138   2.138   8.031
    2LIG    O22  277   2.108   2.067   8.153
    2LIG    C44  278   2.154   2.145   8.268
    2LIG    C45  279   2.085   2.099   8.399
    2LIG    O23  280   2.156   2.143   8.518
    2LIG    C46  281   2.084   2.097   8.637
    2LIG    C47  282   2.150   2.147   8.769
    2LIG    O24  283   2.090   2.087   8.887
    2LIG    C48  284   2.140   2.149   9.009
    2LIG    C49  285   2.083   2.082   9.137
    2LIG    O25  286   2.151   2.131   9.257
    2LIG    C50  287   2.091   2.080   9.379
    2LIG    C51  288   2.155   2.142   9.507
    2LIG    O26  289   2.122   2.066   9.626
    2LIG    C52  290   2.154   2.137   9.749
    2LIG    C53  291   2.098   2.063   9.876
    2LIG    O27  292   2.160   2.113   9.998
    2LIG    C54  293   2.081   2.085  10.119
    2LIG    C55  294   2.148   2.146  10.249
    2LIG    O28  295   2.108   2.081  10.374
    2LIG    C56  296   2.157   2.147  10.496
    2LIG    C57  297   2.091   2.091  10.629
    2LIG    O29  298   2.147   2.144  10.754
    2LIG    C58  299   2.095   2.071  10.872
    2LIG    C59  300   2.147   2.134  11.008
    2LIG      H  301   2.132   2.237   0.143
    2LIG     H1  302   2.267   2.127   0.170
    2LIG     H2  303   2.068   1.974   0.284
    2LIG     H3  304   1.987   2.131   0.295
    2LIG     H4  305   2.108   1.957   0.547
    2LIG     H5  306   1.983   2.081   0.525
    2LIG     H6  307   2.100   2.240   0.664
    2LIG     H7  308   2.252   2.145   0.660
    2LIG     H8  309   2.100   2.256   0.896
    2LIG     H9  310   2.250   2.163   0.913
    2LIG    H10  311   2.084   1.985   1.036
    2LIG    H11  312   1.984   2.134   1.053
    2LIG    H12  313   2.079   1.987   1.283
    2LIG    H13  314   1.988   2.140   1.275
    2LIG    H14  315   2.128   2.254   1.413
    2LIG    H15  316   2.264   2.138   1.404
    2LIG    H16  317   2.106   2.261   1.639
    2LIG    H17  318   2.251   2.156   1.651
    2LIG    H18  319   2.094   1.982   1.759
    2LIG    H19  320   1.976   2.115   1.778
    2LIG    H20  321   2.096   1.969   2.009
    2LIG    H21  322   1.982   2.106   2.004
    2LIG    H22  323   2.106   2.239   2.147
    2LIG    H23  324   2.257   2.141   2.133
    2LIG    H24  325   2.102   2.242   2.369
    2LIG    H25  326   2.250   2.145   2.389
    2LIG    H26  327   2.084   1.969   2.502
    2LIG    H27  328   1.975   2.110   2.514
    2LIG    H28  329   2.062   1.990   2.756
    2LIG    H29  330   1.979   2.146   2.736
    2LIG    H30  331   2.120   2.259   2.881
    2LIG    H31  332   2.253   2.139   2.871
    2LIG    H32  333   2.121   2.256   3.116
    2LIG    H33  334   2.253   2.137   3.122
    2LIG    H34  335   2.097   1.981   3.252
    2LIG    H35  336   1.973   2.110   3.248
    2LIG    H36  337   2.117   1.983   3.487
    2LIG    H37  338   1.978   2.095   3.493
    2LIG    H38  339   2.112   2.256   3.625
    2LIG    H39  340   2.258   2.154   3.608
    2LIG    H40  341   2.118   2.254   3.847
    2LIG    H41  342   2.251   2.139   3.876
    2LIG    H42  343   2.042   1.989   3.974
    2LIG    H43  344   1.970   2.149   3.992
    2LIG    H44  345   2.083   1.961   4.232
    2LIG    H45  346   1.965   2.094   4.216
    2LIG    H46  347   2.096   2.241   4.352
    2LIG    H47  348   2.239   2.133   4.350
    2LIG    H48  349   2.084   2.254   4.581
    2LIG    H49  350   2.229   2.155   4.600
    2LIG    H50  351   2.074   1.982   4.723
    2LIG    H51  352   1.951   2.111   4.724
    2LIG    H52  353   2.051   1.996   4.966
    2LIG    H53  354   1.957   2.146   4.971
    2LIG    H54  355   2.134   2.259   5.094
    2LIG    H55  356   2.247   2.124   5.076
    2LIG    H56  357   2.111   2.260   5.330
    2LIG    H57  358   2.254   2.152   5.321
    2LIG    H58  359   2.108   1.975   5.443
    2LIG    H59  360   1.990   2.104   5.469
    2LIG    H60  361   2.099   1.969   5.693
    2LIG    H61  362   1.999   2.117   5.677
    2LIG    H62  363   2.111   2.238   5.826
    2LIG    H63  364   2.264   2.142   5.821
    2LIG    H64  365   2.115   2.248   6.049
    2LIG    H65  366   2.257   2.143   6.072
    2LIG    H66  367   2.102   1.980   6.190
    2LIG    H67  368   1.973   2.104   6.186
    2LIG    H68  369   2.071   1.989   6.439
    2LIG    H69  370   1.959   2.126   6.427
    2LIG    H70  371   2.105   2.264   6.564
    2LIG    H71  372   2.238   2.144   6.558
    2LIG    H72  373   2.119   2.261   6.801
    2LIG    H73  374   2.246   2.135   6.800
    2LIG    H74  375   2.093   1.986   6.937
    2LIG    H75  376   1.970   2.114   6.935
    2LIG    H76  377   2.121   1.985   7.166
    2LIG    H77  378   1.980   2.095   7.177
    2LIG    H78  379   2.110   2.252   7.314
    2LIG    H79  380   2.260   2.159   7.288
    2LIG    H80  381   2.128   2.237   7.538
    2LIG    H81  382   2.268   2.128   7.552
    2LIG    H82  383   2.093   1.956   7.654
    2LIG    H83  384   1.984   2.095   7.667
    2LIG    H84  385   2.074   1.963   7.917
    2LIG    H85  386   1.972   2.107   7.893
    2LIG    H86  387   2.098   2.239   8.037
    2LIG    H87  388   2.247   2.142   8.019
    2LIG    H88  389   2.126   2.249   8.252
    2LIG    H89  390   2.263   2.136   8.276
    2LIG    H90  391   2.077   1.990   8.400
    2LIG    H91  392   1.986   2.144   8.400
    2LIG    H92  393   2.078   1.989   8.636
    2LIG    H93  394   1.983   2.139   8.632
    2LIG    H94  395   2.132   2.255   8.774
    2LIG    H95  396   2.258   2.129   8.768
    2LIG    H96  397   2.109   2.255   9.009
    2LIG    H97  398   2.249   2.144   9.011
    2LIG    H98  399   2.098   1.974   9.131
    2LIG    H99  400   1.975   2.102   9.145
    2LIG   H100  401   2.105   1.971   9.383
    2LIG   H101  402   1.983   2.102   9.379
    2LIG   H102  403   2.112   2.243   9.518
    2LIG   H103  404   2.263   2.148   9.496
    2LIG   H104  405   2.109   2.237   9.745
    2LIG   H105  406   2.262   2.147   9.757
    2LIG   H106  407   2.118   1.956   9.868
    2LIG   H107  408   1.989   2.077   9.879
    2LIG   H108  409   2.069   1.977  10.129
    2LIG   H109  410   1.981   2.129  10.107
    2LIG   H110  411   2.119   2.251  10.254
    2LIG   H111  412   2.257   2.140  10.239
    2LIG   H112  413   2.130   2.253  10.489
    2LIG   H113  414   2.266   2.138  10.500
    2LIG   H114  415   2.099   1.982  10.630
    2LIG   H115  416   1.986   2.119  10.627
    2LIG   H116  417   2.127   1.967  10.864
    2LIG   H117  418   1.985   2.075  10.870
    2LIG   H118  419   2.255   2.145  11.000
    2LIG   H119  420   2.101   2.232  11.017
    3MOL     C1  421   2.937   2.452   4.997
    3MOL     H1  422   3.041   2.420   4.996
    3MOL     O1  423   2.905   2.516   4.870
    3MOL     C2  424   2.767   2.563   4.858
    3MOL     H2  425   2.699   2.478   4.869
    3MOL     C3  426   2.745   2.620   4.714
    3MOL     H3  427   2.640   2.652   4.704
    3MOL     H4  428   2.760   2.538   4.643
    3MOL     O2  429   2.832   2.729   4.681
    3MOL     H5  430   2.777   2.811   4.682
    3MOL     C4  431   2.916   2.554   5.112
    3MOL     H6  432   2.983   2.639   5.096
    3MOL     O3  433   2.942   2.497   5.240
    3MOL     H7  434   2.935   2.400   5.230
    3MOL     C5  435   2.771   2.605   5.112
    3MOL     H8  436   2.704   2.519   5.128
    3MOL     O4  437   2.756   2.699   5.219
    3MOL     H9  438   2.811   2.655   5.291
    3MOL     C6  439   2.739   2.665   4.973
    3MOL    H10  440   2.801   2.754   4.958
    3MOL     O5  441   2.598   2.698   4.974
    3MOL     C7  442   2.567   2.831   4.929
    3MOL    H11  443   2.658   2.881   4.894
    3MOL     O6  444   2.473   2.821   4.818
    3MOL     C8  445   2.342   2.768   4.852
    3MOL    H12  446   2.353   2.668   4.895
    3MOL     C9  447   2.257   2.753   4.721
    3MOL    H13  448   2.179   2.679   4.738
    3MOL    H14  449   2.323   2.714   4.642
    3MOL     O7  450   2.196   2.876   4.677
    3MOL    H15  451   2.119   2.890   4.736
    3MOL    C10  452   2.507   2.915   5.045
    3MOL    H16  453   2.499   3.018   5.011
    3MOL     O8  454   2.594   2.911   5.157
    3MOL    H17  455   2.635   2.823   5.158
    3MOL    C11  456   2.368   2.864   5.085
    3MOL    H18  457   2.378   2.761   5.121
    3MOL     O9  458   2.312   2.947   5.188
    3MOL    H19  459   2.388   2.980   5.240
    3MOL    C12  460   2.280   2.863   4.958
    3MOL    H20  461   2.276   2.964   4.917
    3MOL    O10  462   2.149   2.818   4.996
    3MOL    C13  463   2.041   2.908   4.966
    3MOL    H21  464   2.078   3.008   4.939
    3MOL    O11  465   1.964   2.852   4.857
    3MOL    C14  466   1.902   2.723   4.885
    3MOL    H22  467   1.981   2.650   4.908
    3MOL    C15  468   1.831   2.674   4.755
    3MOL    H23  469   1.841   2.566   4.745
    3MOL    H24  470   1.886   2.719   4.673
    3MOL    O12  471   1.693   2.708   4.745
    3MOL    H25  472   1.648   2.653   4.813
    3MOL    C16  473   1.952   2.922   5.092
    3MOL    H26  474   1.866   2.988   5.069
    3MOL    O13  475   2.031   2.978   5.196
    3MOL    H27  476   2.117   2.931   5.191
    3MOL    C17  477   1.893   2.786   5.130
    3MOL    H28  478   1.976   2.716   5.143
    3MOL    O14  479   1.814   2.792   5.251
    3MOL    H29  480   1.867   2.844   5.317
    3MOL    C18  481   1.810   2.739   5.009
    3MOL    H30  482   1.731   2.813   4.987
    3MOL    O15  483   1.753   2.612   5.043
    3MOL    C19  484   1.611   2.596   5.032
    3MOL    H31  485   1.560   2.694   5.027
    3MOL    O16  486   1.584   2.517   4.913
    3MOL    C20  487   1.651   2.387   4.911
    3MOL    H32  488   1.759   2.400   4.924
    3MOL    C21  489   1.628   2.316   4.775
    3MOL    H33  490   1.709   2.245   4.758
    3MOL    H34  491   1.632   2.392   4.696
    3MOL    O17  492   1.503   2.246   4.773
    3MOL    H35  493   1.527   2.158   4.810
    3MOL    C22  494   1.565   2.520   5.158
    3MOL    H36  495   1.455   2.512   5.157
    3MOL    O18  496   1.608   2.592   5.274
    3MOL    H37  497   1.681   2.649   5.241
    3MOL    C23  498   1.626   2.378   5.161
    3MOL    H38  499   1.735   2.388   5.170
    3MOL    O19  500   1.575   2.302   5.269
    3MOL    H39  501   1.534   2.366   5.333
    3MOL    C24  502   1.596   2.306   5.029
    3MOL    H40  503   1.487   2.299   5.020
    3MOL    O20  504   1.655   2.174   5.035
    3MOL    C25  505   1.564   2.064   5.012
    3MOL    H41  506   1.459   2.096   5.016
    3MOL    O21  507   1.593   2.005   4.883
    3MOL    C26  508   1.727   1.947   4.865
    3MOL    H42  509   1.801   2.027   4.871
    3MOL    C27  510   1.735   1.882   4.725
    3MOL    H43  511   1.837   1.843   4.709
    3MOL    H44  512   1.720   1.958   4.648
    3MOL    O22  513   1.641   1.775   4.709
    3MOL    H45  514   1.673   1.724   4.632
    3MOL    C28  515   1.584   1.958   5.123
    3MOL    H46  516   1.513   1.876   5.106
    3MOL    O23  517   1.562   2.018   5.250
    3MOL    H47  518   1.572   2.114   5.233
    3MOL    C29  519   1.727   1.902   5.118
    3MOL    H48  520   1.797   1.985   5.135
    3MOL    O24  521   1.740   1.804   5.221
    3MOL    H49  522   1.692   1.843   5.299
    3MOL    C30  523   1.755   1.844   4.978
    3MOL    H50  524   1.691   1.756   4.963
    3MOL    O25  525   1.895   1.806   4.974
    3MOL    C31  526   1.924   1.682   4.906
    3MOL    H51  527   1.835   1.643   4.856
    3MOL    O26  528   2.025   1.704   4.804
    3MOL    C32  529   2.157   1.746   4.849
    3MOL    H52  530   2.150   1.843   4.898
    3MOL    C33  531   2.249   1.764   4.725
    3MOL    H53  532   2.330   1.832   4.751
    3MOL    H54  533   2.191   1.813   4.645
    3MOL    O27  534   2.304   1.642   4.677
    3MOL    H55  535   2.401   1.660   4.673
    3MOL    C34  536   1.973   1.577   5.008
    3MOL    H56  537   1.985   1.480   4.958
    3MOL    O28  538   1.877   1.568   5.113
    3MOL    H57  539   1.861   1.662   5.135
    3MOL    C35  540   2.108   1.621   5.067
    3MOL    H58  541   2.094   1.719   5.114
    3MOL    O29  542   2.157   1.525   5.163
    3MOL    H59  543   2.100   1.530   5.243
    3MOL    C36  544   2.210   1.644   4.953
    3MOL    H60  545   2.228   1.549   4.903
    3MOL    O30  546   2.330   1.694   5.015
    3MOL    C37  547   2.439   1.600   5.009
    3MOL    H61  548   2.400   1.498   5.001
    3MOL    O31  549   2.519   1.632   4.894
    3MOL    C38  550   2.585   1.761   4.896
    3MOL    H62  551   2.510   1.839   4.900
    3MOL    C39  552   2.663   1.777   4.764
    3MOL    H63  553   2.743   1.701   4.758
    3MOL    H64  554   2.711   1.876   4.762
    3MOL    O32  555   2.573   1.763   4.653
    3MOL    H65  556   2.617   1.801   4.575
    3MOL    C40  557   2.524   1.607   5.136
    3MOL    H66  558   2.603   1.531   5.130
    3MOL    O33  559   2.441   1.583   5.248
    3MOL    H67  560   2.356   1.629   5.224
    3MOL    C41  561   2.590   1.745   5.150
    3MOL    H68  562   2.509   1.819   5.155
    3MOL    O34  563   2.668   1.751   5.270
    3MOL    H69  564   2.604   1.730   5.342
    3MOL    C42  565   2.674   1.774   5.024
    3MOL    H70  566   2.756   1.701   5.019
    3MOL    O35  567   2.724   1.909   5.037
    3MOL    C43  568   2.868   1.921   5.033
    3MOL    H71  569   2.917   1.823   5.033
    3MOL    O36  570   2.904   1.991   4.913
    3MOL    C44  571   2.854   2.127   4.899
    3MOL    H72  572   2.744   2.126   4.902
    3MOL    C45  573   2.898   2.178   4.760
    3MOL    H73  574   3.006   2.162   4.749
    3MOL    H74  575   2.880   2.286   4.753
    3MOL    O37  576   2.827   2.110   4.657
    3MOL    H75  577   2.875   2.123   4.572
    3MOL    C46  578   2.917   2.001   5.156
    3MOL    H76  579   3.026   2.003   5.155
    3MOL    O38  580   2.872   1.937   5.275
    3MOL    H77  581   2.791   1.885   5.252
    3MOL    C47  582   2.866   2.147   5.152
    3MOL    H78  583   2.757   2.148   5.157
    3MOL    O39  584   2.919   2.222   5.262
    3MOL    H79  585   2.872   2.188   5.342
    3MOL    C48  586   2.907   2.211   5.018
    3MOL    H80  587   3.017   2.217   5.013
    3MOL    O40  588   2.847   2.341   5.014
    4MOL     C1  589   1.563   2.454   6.104
    4MOL     H1  590   1.457   2.426   6.107
    4MOL     O1  591   1.601   2.510   6.231
    4MOL     C2  592   1.735   2.562   6.244
    4MOL     H2  593   1.805   2.479   6.230
    4MOL     C3  594   1.751   2.618   6.387
    4MOL     H3  595   1.855   2.648   6.403
    4MOL     H4  596   1.728   2.538   6.459
    4MOL     O2  597   1.664   2.729   6.410
    4MOL     H5  598   1.689   2.766   6.497
    4MOL     C4  599   1.585   2.557   5.990
    4MOL     H6  600   1.515   2.640   6.006
    4MOL     O3  601   1.563   2.496   5.864
    4MOL     H7  602   1.552   2.400   5.883
    4MOL     C5  603   1.729   2.613   5.994
    4MOL     H8  604   1.798   2.529   5.978
    4MOL     O4  605   1.750   2.712   5.892
    4MOL     H9  606   1.704   2.680   5.811
    4MOL     C6  607   1.758   2.670   6.133
    4MOL    H10  608   1.691   2.755   6.150
    4MOL     O5  609   1.897   2.711   6.132
    4MOL     C7  610   1.925   2.839   6.191
    4MOL    H11  611   1.834   2.882   6.235
    4MOL     O6  612   2.022   2.817   6.296
    4MOL     C8  613   2.152   2.770   6.252
    4MOL    H12  614   2.140   2.679   6.192
    4MOL     C9  615   2.240   2.732   6.375
    4MOL    H13  616   2.308   2.651   6.346
    4MOL    H14  617   2.174   2.694   6.454
    4MOL     O7  618   2.317   2.841   6.424
    4MOL    H15  619   2.387   2.860   6.358
    4MOL    C10  620   1.979   2.938   6.083
    4MOL    H16  621   1.984   3.038   6.128
    4MOL     O8  622   1.890   2.940   5.971
    4MOL    H17  623   1.873   2.845   5.951
    4MOL    C11  624   2.121   2.898   6.037
    4MOL    H18  625   2.113   2.801   5.986
    4MOL     O9  626   2.178   2.996   5.948
    4MOL    H19  627   2.129   2.988   5.863
    4MOL    C12  628   2.212   2.879   6.159
    4MOL    H20  629   2.219   2.973   6.215
    4MOL    O10  630   2.340   2.836   6.109
    4MOL    C13  631   2.450   2.925   6.136
    4MOL    H21  632   2.414   3.026   6.161
    4MOL    O11  633   2.526   2.868   6.245
    4MOL    C14  634   2.580   2.735   6.219
    4MOL    H22  635   2.499   2.666   6.194
    4MOL    C15  636   2.648   2.681   6.347
    4MOL    H23  637   2.656   2.572   6.342
    4MOL    H24  638   2.583   2.705   6.432
    4MOL    O12  639   2.777   2.738   6.367
    4MOL    H25  640   2.843   2.670   6.342
    4MOL    C16  641   2.539   2.937   6.011
    4MOL    H26  642   2.622   3.006   6.034
    4MOL    O13  643   2.463   2.987   5.902
    4MOL    H27  644   2.368   2.972   5.926
    4MOL    C17  645   2.600   2.799   5.977
    4MOL    H28  646   2.516   2.730   5.962
    4MOL    O14  647   2.683   2.806   5.859
    4MOL    H29  648   2.649   2.881   5.804
    4MOL    C18  649   2.677   2.746   6.098
    4MOL    H30  650   2.758   2.815   6.121
    4MOL    O15  651   2.728   2.615   6.063
    4MOL    C19  652   2.870   2.597   6.080
    4MOL    H31  653   2.922   2.693   6.089
    4MOL    O16  654   2.892   2.517   6.199
    4MOL    C20  655   2.831   2.385   6.194
    4MOL    H32  656   2.725   2.398   6.169
    4MOL    C21  657   2.836   2.315   6.333
    4MOL    H33  658   2.746   2.254   6.345
    4MOL    H34  659   2.833   2.393   6.411
    4MOL    O17  660   2.950   2.232   6.353
    4MOL    H35  661   2.941   2.157   6.290
    4MOL    C22  662   2.926   2.523   5.955
    4MOL    H36  663   3.035   2.516   5.966
    4MOL    O18  664   2.893   2.595   5.838
    4MOL    H37  665   2.814   2.650   5.859
    4MOL    C23  666   2.870   2.380   5.943
    4MOL    H38  667   2.761   2.387   5.929
    4MOL    O19  668   2.930   2.314   5.831
    4MOL    H39  669   2.940   2.383   5.761
    4MOL    C24  670   2.896   2.307   6.077
    4MOL    H40  671   3.004   2.300   6.094
    4MOL    O20  672   2.835   2.177   6.070
    4MOL    C25  673   2.925   2.066   6.082
    4MOL    H41  674   3.031   2.097   6.071
    4MOL    O21  675   2.904   2.003   6.210
    4MOL    C26  676   2.770   1.952   6.233
    4MOL    H42  677   2.698   2.035   6.230
    4MOL    C27  678   2.767   1.890   6.375
    4MOL    H43  679   2.663   1.867   6.400
    4MOL    H44  680   2.803   1.964   6.447
    4MOL    O22  681   2.847   1.771   6.382
    4MOL    H45  682   2.864   1.749   6.476
    4MOL    C28  683   2.895   1.966   5.969
    4MOL    H46  684   2.967   1.885   5.980
    4MOL    O23  685   2.910   2.031   5.844
    4MOL    H47  686   2.925   2.126   5.865
    4MOL    C29  687   2.752   1.908   5.981
    4MOL    H48  688   2.680   1.991   5.968
    4MOL    O24  689   2.731   1.810   5.878
    4MOL    H49  690   2.777   1.844   5.798
    4MOL    C30  691   2.732   1.849   6.122
    4MOL    H50  692   2.795   1.760   6.131
    4MOL    O25  693   2.592   1.814   6.137
    4MOL    C31  694   2.563   1.689   6.203
    4MOL    H51  695   2.654   1.649   6.252
    4MOL    O26  696   2.461   1.711   6.303
    4MOL    C32  697   2.334   1.759   6.251
    4MOL    H52  698   2.350   1.854   6.199
    4MOL    C33  699   2.236   1.784   6.369
    4MOL    H53  700   2.153   1.842   6.330
    4MOL    H54  701   2.286   1.843   6.446
    4MOL    O27  702   2.185   1.663   6.425
    4MOL    H55  703   2.090   1.659   6.399
    4MOL    C34  704   2.515   1.585   6.098
    4MOL    H56  705   2.501   1.489   6.149
    4MOL    O28  706   2.617   1.571   6.000
    4MOL    H57  707   2.607   1.647   5.937
    4MOL    C35  708   2.378   1.628   6.037
    4MOL    H58  709   2.394   1.722   5.981
    4MOL    O29  710   2.322   1.527   5.951
    4MOL    H59  711   2.390   1.500   5.885
    4MOL    C36  712   2.280   1.655   6.152
    4MOL    H60  713   2.266   1.561   6.207
    4MOL    O30  714   2.155   1.701   6.097
    4MOL    C37  715   2.048   1.604   6.102
    4MOL    H61  716   2.087   1.502   6.117
    4MOL    O31  717   1.959   1.638   6.212
    4MOL    C38  718   1.893   1.767   6.202
    4MOL    H62  719   1.968   1.844   6.190
    4MOL    C39  720   1.812   1.800   6.329
    4MOL    H63  721   1.734   1.724   6.343
    4MOL    H64  722   1.762   1.896   6.316
    4MOL    O32  723   1.895   1.805   6.445
    4MOL    H65  724   1.890   1.712   6.480
    4MOL    C40  725   1.971   1.606   5.968
    4MOL    H66  726   1.900   1.522   5.968
    4MOL    O33  727   2.061   1.594   5.858
    4MOL    H67  728   2.152   1.608   5.896
    4MOL    C41  729   1.892   1.736   5.951
    4MOL    H68  730   1.967   1.816   5.942
    4MOL    O34  731   1.815   1.726   5.831
    4MOL    H69  732   1.860   1.656   5.781
    4MOL    C42  733   1.805   1.768   6.075
    4MOL    H70  734   1.725   1.694   6.086
    4MOL    O35  735   1.753   1.903   6.060
    4MOL    C43  736   1.609   1.918   6.057
    4MOL    H71  737   1.560   1.820   6.053
    4MOL    O36  738   1.569   1.987   6.178
    4MOL    C44  739   1.625   2.121   6.197
    4MOL    H72  740   1.735   2.116   6.196
    4MOL    C45  741   1.581   2.174   6.336
    4MOL    H73  742   1.472   2.161   6.344
    4MOL    H74  743   1.603   2.281   6.344
    4MOL    O37  744   1.645   2.103   6.443
    4MOL    H75  745   1.592   2.118   6.524
    4MOL    C46  746   1.567   2.002   5.933
    4MOL    H76  747   1.457   2.004   5.931
    4MOL    O38  748   1.615   1.944   5.812
    4MOL    H77  749   1.713   1.933   5.825
    4MOL    C47  750   1.616   2.148   5.945
    4MOL    H78  751   1.725   2.149   5.946
    4MOL    O39  752   1.569   2.225   5.834
    4MOL    H79  753   1.582   2.168   5.755
    4MOL    C48  754   1.577   2.211   6.079
    4MOL    H80  755   1.468   2.223   6.084
    4MOL    O40  756   1.646   2.338   6.082
    5SOL     OW  757   0.242   0.598   0.109
    5SOL    HW1  758   0.168   0.594   0.170
    5SOL    HW2  759   0.206   0.637   0.030
    6SOL     OW  760   0.195   0.293   0.990
    6SOL    HW1  761   0.230   0.269   1.075
    6SOL    HW2  762   0.130   0.225   0.971
    7SOL     OW  763   0.004   0.380   0.640
    7SOL    HW1  764   4.427   0.419   0.683
    7SOL    HW2  765   4.468   0.308   0.588
    8SOL     OW  766   0.567   1.286   1.175
    8SOL    HW1  767   0.480   1.292   1.136
    8SOL    HW2  768   0.583   1.374   1.210
    9SOL     OW  769   1.560   1.511   0.707
    9SOL    HW1  770   1.517   1.491   0.791
    9SOL    HW2  771   1.488   1.515   0.644
   10SOL     OW  772   1.134   0.699   0.699
   10SOL    HW1  773   1.181   0.782   0.689
   10SOL    HW2  774   1.084   0.710   0.780
   11SOL     OW  775   1.776   0.602   0.217
   11SOL    HW1  776   1.722   0.606   0.138
   11SOL    HW2  777   1.737   0.532   0.270
   12SOL     OW  778   0.756   1.142   1.040
   12SOL    HW1  779   0.687   1.177   1.097
   12SOL    HW2  780   0.791   1.219   0.995
   13SOL     OW  781   0.865   0.774   1.821
   13SOL    HW1  782   0.851   0.845   1.884
   13SOL    HW2  783   0.889   0.819   1.739
   14SOL     OW  784   0.685   1.004   0.647
   14SOL    HW1  785   0.751   0.991   0.716
   14SOL    HW2  786   0.616   1.055   0.690
   15SOL     OW  787   0.710   1.150   1.812
   15SOL    HW1  788   0.757   1.229   1.838
   15SOL    HW2  789   0.628   1.182   1.776
   16SOL     OW  790   0.335   1.421   1.069
   16SOL    HW1  791   0.254   1.403   1.023
   16SOL    HW2  792   0.386   1.476   1.009
   17SOL     OW  793   1.461   1.499   1.353
   17SOL    HW1  794   1.511   1.580   1.362
   17SOL    HW2  795   1.401   1.499   1.428
   18SOL     OW  796   0.439   0.394   1.490
   18SOL    HW1  797   0.528   0.360   1.491
   18SOL    HW2  798   0.383   0.319   1.512
   19SOL     OW  799   1.611   0.447   0.739
   19SOL    HW1  800   1.530   0.467   0.693
   19SOL    HW2  801   1.629   0.525   0.791
   20SOL     OW  802   0.244   1.691   0.482
   20SOL    HW1  803   0.232   1.778   0.521
   20SOL    HW2  804   0.306   1.706   0.410
   21SOL     OW  805   1.136   1.341   1.692
   21SOL    HW1  806   1.176   1.337   1.779
   21SOL    HW2  807   1.084   1.261   1.686
   22SOL     OW  808   0.244   1.427   0.528
   22SOL    HW1  809   0.239   1.522   0.529
   22SOL    HW2  810   0.179   1.399   0.593
   23SOL     OW  811   0.245   1.082   0.883
   23SOL    HW1  812   0.264   0.993   0.913
   23SOL    HW2  813   0.187   1.118   0.949
   24SOL     OW  814   0.614   1.791   1.431
   24SOL    HW1  815   0.530   1.773   1.475
   24SOL    HW2  816   0.634   1.881   1.455
   25SOL     OW  817   0.572   0.994   0.148
   25SOL    HW1  818   0.620   1.033   0.075
   25SOL    HW2  819   0.622   1.020   0.226
   26SOL     OW  820   1.582   0.116   1.471
   26SOL    HW1  821   1.603   0.184   1.408
   26SOL    HW2  822   1.572   0.162   1.555
   27SOL     OW  823   0.136   0.644   0.574
   27SOL    HW1  824   0.084   0.566   0.592
   27SOL    HW2  825   0.110   0.706   0.642
   28SOL     OW  826   1.845   1.780   0.336
   28SOL    HW1  827   1.898   1.742   0.405
   28SOL    HW2  828   1.907   1.828   0.281
   29SOL     OW  829   0.073   1.591   0.151
   29SOL    HW1  830   0.038   1.502   0.156
   29SOL    HW2  831   0.023   1.640   0.216
   30SOL     OW  832   1.690   0.919   0.640
   30SOL    HW1  833   1.774   0.878   0.619
   30SOL    HW2  834   1.667   0.971   0.563
   31SOL     OW  835   1.646   1.105   0.432
   31SOL    HW1  836   1.728   1.117   0.384
   31SOL    HW2  837   1.651   1.168   0.504
   32SOL     OW  838   0.105   0.764   1.581
   32SOL    HW1  839   0.196   0.760   1.554
   32SOL    HW2  840   0.089   0.857   1.601
   33SOL     OW  841   0.613   1.385   0.736
   33SOL    HW1  842   0.567   1.302   0.745
   33SOL    HW2  843   0.597   1.412   0.646
   34SOL     OW  844   1.289   1.238   1.424
   34SOL    HW1  845   1.321   1.171   1.364
   34SOL    HW2  846   1.346   1.232   1.500
   35SOL     OW  847   0.821   0.010   0.552
   35SOL    HW1  848   0.858   0.089   0.512
   35SOL    HW2  849   0.726   0.021   0.542
   36SOL     OW  850   0.179   0.941   1.280
   36SOL    HW1  851   0.271   0.923   1.259
   36SOL    HW2  852   0.133   0.926   1.197
   37SOL     OW  853   1.518   1.000   0.203
   37SOL    HW1  854   1.453   0.939   0.239
   37SOL    HW2  855   1.567   1.031   0.279
   38SOL     OW  856   1.185   1.806   1.622
   38SOL    HW1  857   1.198   1.864   1.547
   38SOL    HW2  858   1.201   1.718   1.587
   39SOL     OW  859   0.318   0.260   1.769
   39SOL    HW1  860   0.386   0.311   1.813
   39SOL    HW2  861   0.242   0.268   1.827
   40SOL     OW  862   1.466   1.419   0.952
   40SOL    HW1  863   1.398   1.434   1.017
   40SOL    HW2  864   1.454   1.328   0.925
   41SOL     OW  865   1.657   1.736   0.580
   41SOL    HW1  866   1.635   1.708   0.492
   41SOL    HW2  867   1.632   1.662   0.636
   42SOL     OW  868   0.594   0.719   0.263
   42SOL    HW1  869   0.599   0.801   0.213
   42SOL    HW2  870   0.532   0.738   0.333
   43SOL     OW  871   1.289   0.361   0.934
   43SOL    HW1  872   1.199   0.330   0.923
   43SOL    HW2  873   1.328   0.299   0.995
   44SOL     OW  874   1.583   1.671   0.312
   44SOL    HW1  875   1.671   1.708   0.303
   44SOL    HW2  876   1.556   1.651   0.223
   45SOL     OW  877   0.797   0.618   1.454
   45SOL    HW1  878   0.769   0.593   1.542
   45SOL    HW2  879   0.753   0.555   1.396
   46SOL     OW  880   1.388   0.479   1.676
   46SOL    HW1  881   1.392   0.523   1.761
   46SOL    HW2  882   1.455   0.411   1.682
   47SOL     OW  883   0.955   0.888   1.582
   47SOL    HW1  884   1.010   0.817   1.547
   47SOL    HW2  885   0.908   0.922   1.506
   48SOL     OW  886   0.997   0.417   1.236
   48SOL    HW1  887   0.911   0.427   1.276
   48SOL    HW2  888   0.981   0.367   1.156
   49SOL     OW  889   1.049   0.701   0.428
   49SOL    HW1  890   1.066   0.692   0.521
   49SOL    HW2  891   0.967   0.653   0.414
   50SOL     OW  892   0.098   0.823   0.784
   50SOL    HW1  893   0.185   0.810   0.823
   50SOL    HW2  894   0.045   0.859   0.855
   51SOL     OW  895   0.123   1.858   1.577
   51SOL    HW1  896   0.117   1.833   1.669
   51SOL    HW2  897   0.046   1.817   1.536
   52SOL     OW  898   0.878   0.361   0.203
   52SOL    HW1  899   0.931   0.414   0.143
   52SOL    HW2  900   0.906   0.271   0.185
   53SOL     OW  901   1.704   0.574   1.828
   53SOL    HW1  902   1.669   0.649   1.781
   53SOL    HW2  903   1.740   0.517   1.760
   54SOL     OW  904   1.377   1.142   0.541
   54SOL    HW1  905   1.455   1.129   0.487
   54SOL    HW2  906   1.324   1.204   0.492
   55SOL     OW  907   0.541   0.204   0.900
   55SOL    HW1  908   0.562   0.223   0.991
   55SOL    HW2  909   0.536   0.290   0.858
   56SOL     OW  910   1.006   1.445   0.474
   56SOL    HW1  911   0.968   1.517   0.424
   56SOL    HW2  912   0.987   1.466   0.565
   57SOL     OW  913   0.355   1.810   0.859
   57SOL    HW1  914   0.397   1.725   0.868
   57SOL    HW2  915   0.426   1.873   0.873
   58SOL     OW  916   1.799   1.057   0.867
   58SOL    HW1  917   1.743   1.040   0.791
   58SOL    HW2  918   1.738   1.063   0.941
   59SOL     OW  919   1.228   1.539   1.513
   59SOL    HW1  920   1.214   1.466   1.573
   59SOL    HW2  921   1.165   1.524   1.442
   60SOL     OW  922   0.314   0.956   0.278
   60SOL    HW1  923   0.397   0.983   0.240
   60SOL    HW2  924   0.308   0.862   0.258
   61SOL     OW  925   1.479   0.740   0.724
   61SOL    HW1  926   1.467   0.697   0.808
   61SOL    HW2  927   1.555   0.797   0.736
   62SOL     OW  928   0.467   1.262   1.735
   62SOL    HW1  929   0.440   1.268   1.644
   62SOL    HW2  930   0.385   1.267   1.785
   63SOL     OW  931   1.108   1.779   0.227
   63SOL    HW1  932   1.048   1.727   0.281
   63SOL    HW2  933   1.148   1.715   0.169
   64SOL     OW  934   0.163   0.265   1.510
   64SOL    HW1  935   0.135   0.352   1.482
   64SOL    HW2  936   0.198   0.278   1.598
   65SOL     OW  937   1.627   1.374   0.091
   65SOL    HW1  938   1.586   1.459   0.076
   65SOL    HW2  939   1.562   1.311   0.061
   66SOL     OW  940   0.469   1.741   0.318
   66SOL    HW1  941   0.507   1.798   0.384
   66SOL    HW2  942   0.543   1.713   0.264
   67SOL     OW  943   1.419   0.135   0.425
   67SOL    HW1  944   1.397   0.100   0.338
   67SOL    HW2  945   1.515   0.134   0.427
   68SOL     OW  946   0.256   1.789   1.234
   68SOL    HW1  947   0.305   1.715   1.270
   68SOL    HW2  948   0.226   1.759   1.148
   69SOL     OW  949   0.938   1.699   0.899
   69SOL    HW1  950   1.015   1.646   0.920
   69SOL    HW2  951   0.894   1.649   0.830
   70SOL     OW  952   0.393   0.693   0.470
   70SOL    HW1  953   0.419   0.602   0.484
   70SOL    HW2  954   0.302   0.697   0.500
   71SOL     OW  955   1.525   0.233   1.722
   71SOL    HW1  956   1.525   0.256   1.815
   71SOL    HW2  957   1.448   0.178   1.711
   72SOL     OW  958   0.601   0.104   0.120
   72SOL    HW1  959   0.694   0.082   0.119
   72SOL    HW2  960   0.568   0.072   0.036
   73SOL     OW  961   0.768   0.269   1.754
   73SOL    HW1  962   0.835   0.201   1.763
   73SOL    HW2  963   0.728   0.276   1.840
   74SOL     OW  964   0.877   1.522   1.193
   74SOL    HW1  965   0.861   1.486   1.106
   74SOL    HW2  966   0.946   1.467   1.230
   75SOL     OW  967   1.341   0.589   1.429
   75SOL    HW1  968   1.369   0.560   1.516
   75SOL    HW2  969   1.376   0.678   1.421
   76SOL     OW  970   0.815   1.395   0.939
   76SOL    HW1  971   0.899   1.384   0.894
   76SOL    HW2  972   0.750   1.396   0.868
   77SOL     OW  973   0.924   0.516   0.900
   77SOL    HW1  974   0.907   0.517   0.806
   77SOL    HW2  975   0.962   0.430   0.917
   78SOL     OW  976   0.561   0.068   0.512
   78SOL    HW1  977   0.474   0.056   0.548
   78SOL    HW2  978   0.551   0.137   0.447
   79SOL     OW  979   1.425   1.196   0.030
   79SOL    HW1  980   1.457   1.124   0.084
   79SOL    HW2  981   1.342   1.222   0.070
   80SOL     OW  982   0.297   0.055   0.191
   80SOL    HW1  983   0.375   0.091   0.150
   80SOL    HW2  984   0.330   0.000   0.262
   81SOL     OW  985   0.951   0.227   0.445
   81SOL    HW1  986   0.905   0.290   0.391
   81SOL    HW2  987   1.040   0.261   0.452
   82SOL     OW  988   1.080   0.681   1.461
   82SOL    HW1  989   1.010   0.616   1.461
   82SOL    HW2  990   1.160   0.629   1.449
   83SOL     OW  991   1.224   1.569   0.794
   83SOL    HW1  992   1.241   1.636   0.728
   83SOL    HW2  993   1.292   1.583   0.860
   84SOL     OW  994   0.468   1.149   0.739
   84SOL    HW1  995   0.396   1.130   0.800
   84SOL    HW2  996   0.430   1.136   0.652
   85SOL     OW  997   1.269   1.794   0.606
   85SOL    HW1  998   1.315   1.856   0.549
   85SOL    HW2  999   1.204   1.847   0.652
   86SOL     OW 1000   1.020   0.532   0.035
   86SOL    HW1 1001   0.983   0.617   0.013
   86SOL    HW2 1002   1.094   0.553   0.093
   87SOL     OW 1003   0.093   0.518   1.412
   87SOL    HW1 1004   0.152   0.527   1.337
   87SOL    HW2 1005   0.060   0.607   1.428
   88SOL     OW 1006   0.562   0.244   1.166
   88SOL    HW1 1007   0.593   0.161   1.202
   88SOL    HW2 1008   0.468   0.245   1.185
   89SOL     OW 1009   0.861   0.510   0.629
   89SOL    HW1 1010   0.821   0.544   0.549
   89SOL    HW2 1011   0.835   0.417   0.631
   90SOL     OW 1012   0.961   0.031   0.783
   90SOL    HW1 1013   0.913   0.026   0.700
   90SOL    HW2 1014   0.982   4.440   0.804
   91SOL     OW 1015   1.437   1.162   0.857
   91SOL    HW1 1016   1.368   1.096   0.856
   91SOL    HW2 1017   1.460   1.174   0.765
   92SOL     OW 1018   1.466   0.604   0.975
   92SOL    HW1 1019   1.413   0.525   0.978
   92SOL    HW2 1020   1.524   0.597   1.051
   93SOL     OW 1021   1.849   0.814   0.379
   93SOL    HW1 1022   1.902   0.763   0.440
   93SOL    HW2 1023   1.821   0.750   0.313
   94SOL     OW 1024   0.494   1.423   0.174
   94SOL    HW1 1025   0.415   1.397   0.222
   94SOL    HW2 1026   0.490   1.373   0.092
   95SOL     OW 1027   1.671   1.265   0.647
   95SOL    HW1 1028   1.765   1.270   0.660
   95SOL    HW2 1029   1.639   1.353   0.668
   96SOL     OW 1030   1.390   0.574   0.077
   96SOL    HW1 1031   1.328   0.556   0.147
   96SOL    HW2 1032   1.460   0.510   0.089
   97SOL     OW 1033   0.524   0.262   0.325
   97SOL    HW1 1034   0.557   0.204   0.256
   97SOL    HW2 1035   0.511   0.346   0.281
   98SOL     OW 1036   1.753   1.238   1.575
   98SOL    HW1 1037   1.841   1.200   1.569
   98SOL    HW2 1038   1.768   1.329   1.602
   99SOL     OW 1039   1.059   1.353   1.334
   99SOL    HW1 1040   0.984   1.323   1.385
   99SOL    HW2 1041   1.135   1.312   1.375
  100SOL     OW 1042   1.608   1.625   1.653
  100SOL    HW1 1043   1.602   1.660   1.564
  100SOL    HW2 1044   1.692   1.578   1.655
  101SOL     OW 1045   1.128   1.203   1.106
  101SOL    HW1 1046   1.069   1.241   1.171
  101SOL    HW2 1047   1.095   1.234   1.022
  102SOL     OW 1048   1.629   1.098   1.078
  102SOL    HW1 1049   1.625   1.161   1.150
  102SOL    HW2 1050   1.550   1.115   1.027
  103SOL     OW 1051   0.902   0.133   1.388
  103SOL    HW1 1052   0.924   0.088   1.306
  103SOL    HW2 1053   0.986   0.148   1.431
  104SOL     OW 1054   0.984   1.114   1.723
  104SOL    HW1 1055   0.892   1.130   1.744
  104SOL    HW2 1056   0.983   1.037   1.667
  105SOL     OW 1057   0.710   1.059   0.374
  105SOL    HW1 1058   0.697   1.044   0.468
  105SOL    HW2 1059   0.786   1.005   0.351
  106SOL     OW 1060   0.429   0.825   1.241
  106SOL    HW1 1061   0.498   0.836   1.307
  106SOL    HW2 1062   0.371   0.758   1.277
  107SOL     OW 1063   1.269   0.376   1.273
  107SOL    HW1 1064   1.301   0.454   1.318
  107SOL    HW2 1065   1.180   0.398   1.246
  108SOL     OW 1066   0.062   1.576   1.343
  108SOL    HW1 1067   0.036   1.665   1.318
  108SOL    HW2 1068   0.158   1.580   1.348
  109SOL     OW 1069   0.347   1.117   0.499
  109SOL    HW1 1070   0.352   1.191   0.439
  109SOL    HW2 1071   0.341   1.040   0.443
  110SOL     OW 1072   0.563   0.526   0.853
  110SOL    HW1 1073   0.575   0.587   0.780
  110SOL    HW2 1074   0.623   0.558   0.921
  111SOL     OW 1075   1.247   1.346   0.395
  111SOL    HW1 1076   1.303   1.419   0.422
  111SOL    HW2 1077   1.160   1.369   0.426
  112SOL     OW 1078   1.280   1.457   1.147
  112SOL    HW1 1079   1.336   1.460   1.224
  112SOL    HW2 1080   1.225   1.380   1.159
  113SOL     OW 1081   1.585   0.627   0.475
  113SOL    HW1 1082   1.535   0.670   0.545
  113SOL    HW2 1083   1.621   0.700   0.424
  114SOL     OW 1084   0.347   1.531   1.315
  114SOL    HW1 1085   0.333   1.484   1.233
  114SOL    HW2 1086   0.442   1.541   1.322
  115SOL     OW 1087   0.485   0.761   1.669
  115SOL    HW1 1088   0.510   0.799   1.585
  115SOL    HW2 1089   0.525   0.674   1.669
  116SOL     OW 1090   1.600   0.778   1.680
  116SOL    HW1 1091   1.514   0.820   1.674
  116SOL    HW2 1092   1.653   0.820   1.613
  117SOL     OW 1093   1.005   0.086   1.720
  117SOL    HW1 1094   1.035   0.168   1.683
  117SOL    HW2 1095   1.030   0.020   1.656
  118SOL     OW 1096   0.495   0.044   1.751
  118SOL    HW1 1097   0.480   4.497   1.669
  118SOL    HW2 1098   0.429   0.113   1.752
  119SOL     OW 1099   0.589   0.874   1.024
  119SOL    HW1 1100   0.619   0.965   1.026
  119SOL    HW2 1101   0.533   0.866   1.101
  120SOL     OW 1102   1.358   0.858   1.030
  120SOL    HW1 1103   1.276   0.850   0.983
  120SOL    HW2 1104   1.398   0.771   1.024
  121SOL     OW 1105   1.200   0.532   0.266
  121SOL    HW1 1106   1.209   0.453   0.320
  121SOL    HW2 1107   1.159   0.596   0.323
  122SOL     OW 1108   0.285   0.217   1.234
  122SOL    HW1 1109   0.246   0.234   1.320
  122SOL    HW2 1110   0.325   0.131   1.243
  123SOL     OW 1111   0.040   1.313   1.285
  123SOL    HW1 1112   0.076   1.266   1.361
  123SOL    HW2 1113   0.045   1.405   1.311
  124SOL     OW 1114   0.724   0.631   1.058
  124SOL    HW1 1115   0.798   0.611   1.001
  124SOL    HW2 1116   0.698   0.720   1.033
  125SOL     OW 1117   1.734   0.959   1.852
  125SOL    HW1 1118   1.687   0.900   1.793
  125SOL    HW2 1119   1.675   0.972   1.926
  126SOL     OW 1120   0.317   0.074   0.629
  126SOL    HW1 1121   0.302   0.162   0.662
  126SOL    HW2 1122   0.307   0.017   0.706
  127SOL     OW 1123   1.617   0.377   0.364
  127SOL    HW1 1124   1.644   0.312   0.429
  127SOL    HW2 1125   1.592   0.454   0.415
  128SOL     OW 1126   1.028   0.761   0.961
  128SOL    HW1 1127   1.026   0.777   1.055
  128SOL    HW2 1128   1.000   0.670   0.951
  129SOL     OW 1129   0.983   1.566   1.716
  129SOL    HW1 1130   0.967   1.610   1.633
  129SOL    HW2 1131   1.025   1.484   1.693
  130SOL     OW 1132   1.856   1.504   1.605
  130SOL    HW1 1133   1.870   1.533   1.515
  130SOL    HW2 1134   1.937   1.528   1.651
  131SOL     OW 1135   0.346   0.933   1.818
  131SOL    HW1 1136   0.419   0.963   1.873
  131SOL    HW2 1137   0.386   0.866   1.762
  132SOL     OW 1138   1.534   0.295   0.111
  132SOL    HW1 1139   1.475   0.221   0.126
  132SOL    HW2 1140   1.567   0.317   0.198
  133SOL     OW 1141   1.287   0.822   0.032
  133SOL    HW1 1142   1.331   0.738   0.042
  133SOL    HW2 1143   1.322   0.858  11.050
  134SOL     OW 1144   1.066   1.335   0.853
  134SOL    HW1 1145   1.068   1.263   0.791
  134SOL    HW2 1146   1.127   1.399   0.819
  135SOL     OW 1147   0.318   0.813   0.947
  135SOL    HW1 1148   0.412   0.830   0.945
  135SOL    HW2 1149   0.312   0.722   0.977
  136SOL     OW 1150   0.335   0.530   0.990
  136SOL    HW1 1151   0.291   0.447   0.971
  136SOL    HW2 1152   0.413   0.529   0.935
  137SOL     OW 1153   1.135   0.374   1.696
  137SOL    HW1 1154   1.086   0.438   1.747
  137SOL    HW2 1155   1.221   0.414   1.682
  138SOL     OW 1156   1.157   0.213   1.473
  138SOL    HW1 1157   1.151   0.277   1.544
  138SOL    HW2 1158   1.197   0.261   1.401
  139SOL     OW 1159   4.496   1.324   0.200
  139SOL    HW1 1160   4.402   1.343   0.192
  139SOL    HW2 1161   0.000   1.232   0.227
  140SOL     OW 1162   0.097   1.777   0.940
  140SOL    HW1 1163   0.058   1.724   0.870
  140SOL    HW2 1164   0.185   1.798   0.908
  141SOL     OW 1165   0.497   1.573   0.907
  141SOL    HW1 1166   0.565   1.636   0.931
  141SOL    HW2 1167   0.541   1.511   0.850
  142SOL     OW 1168   0.985   0.793   1.227
  142SOL    HW1 1169   1.040   0.770   1.302
  142SOL    HW2 1170   0.899   0.755   1.248
  143SOL     OW 1171   0.037   0.566   1.109
  143SOL    HW1 1172   0.114   0.525   1.070
  143SOL    HW2 1173   0.017   0.511   1.185
  144SOL     OW 1174   0.179   0.523   1.712
  144SOL    HW1 1175   0.267   0.506   1.676
  144SOL    HW2 1176   0.151   0.604   1.668
  145SOL     OW 1177   1.377   0.939   1.659
  145SOL    HW1 1178   1.398   1.033   1.657
  145SOL    HW2 1179   1.374   0.914   1.566
  146SOL     OW 1180   0.811   0.576   0.360
  146SOL    HW1 1181   0.820   0.501   0.301
  146SOL    HW2 1182   0.738   0.626   0.324
  147SOL     OW 1183   1.641   0.601   1.187
  147SOL    HW1 1184   1.630   0.542   1.261
  147SOL    HW2 1185   1.728   0.581   1.152
  148SOL     OW 1186   0.272   1.562   1.740
  148SOL    HW1 1187   0.216   1.613   1.799
  148SOL    HW2 1188   0.253   1.471   1.763
  149SOL     OW 1189   0.686   0.464   1.267
  149SOL    HW1 1190   0.647   0.384   1.231
  149SOL    HW2 1191   0.692   0.523   1.191
  150SOL     OW 1192   0.928   1.679   1.467
  150SOL    HW1 1193   0.902   1.645   1.382
  150SOL    HW2 1194   0.924   1.774   1.458
  151SOL     OW 1195   0.475   0.484   0.181
  151SOL    HW1 1196   0.532   0.558   0.204
  151SOL    HW2 1197   0.391   0.523   0.161
  152SOL     OW 1198   0.162   1.140   1.462
  152SOL    HW1 1199   0.145   1.095   1.544
  152SOL    HW2 1200   0.169   1.070   1.397
  153SOL     OW 1201   1.326   1.047   1.223
  153SOL    HW1 1202   1.350   0.984   1.156
  153SOL    HW2 1203   1.256   1.099   1.185
  154SOL     OW 1204   1.309   0.852   0.310
  154SOL    HW1 1205   1.232   0.822   0.358
  154SOL    HW2 1206   1.285   0.839   0.218
  155SOL     OW 1207   1.767   1.744   1.148
  155SOL    HW1 1208   1.830   1.773   1.083
  155SOL    HW2 1209   1.748   1.653   1.125
  156SOL     OW 1210   1.241   1.733   1.113
  156SOL    HW1 1211   1.323   1.753   1.069
  156SOL    HW2 1212   1.246   1.639   1.132
  157SOL     OW 1213   0.066   1.185   1.050
  157SOL    HW1 1214   0.066   1.218   1.140
  157SOL    HW2 1215   0.023   1.253   0.999
  158SOL     OW 1216   0.679   1.665   1.729
  158SOL    HW1 1217   0.624   1.743   1.723
  158SOL    HW2 1218   0.742   1.676   1.658
  159SOL     OW 1219   0.878   0.065   0.124
  159SOL    HW1 1220   0.964   0.094   0.093
  159SOL    HW2 1221   0.898   0.014   0.203
  160SOL     OW 1222   1.720   0.134   0.497
  160SOL    HW1 1223   1.792   0.139   0.435
  160SOL    HW2 1224   1.739   0.056   0.549
  161SOL     OW 1225   1.390   1.568   0.485
  161SOL    HW1 1226   1.450   1.599   0.418
  161SOL    HW2 1227   1.342   1.646   0.513
  162SOL     OW 1228   0.118   1.808   1.848
  162SOL    HW1 1229   0.079   1.735   1.895
  162SOL    HW2 1230   0.182   1.845   1.909
  163SOL     OW 1231   1.279   0.927   0.673
  163SOL    HW1 1232   1.351   0.865   0.676
  163SOL    HW2 1233   1.312   1.000   0.620
  164SOL     OW 1234   0.815   1.273   1.430
  164SOL    HW1 1235   0.788   1.312   1.513
  164SOL    HW2 1236   0.745   1.295   1.369
  165SOL     OW 1237   0.675   1.620   0.168
  165SOL    HW1 1238   0.686   1.629   0.073
  165SOL    HW2 1239   0.617   1.544   0.178
  166SOL     OW 1240   1.624   1.725   1.390
  166SOL    HW1 1241   1.675   1.733   1.309
  166SOL    HW2 1242   1.613   1.816   1.420
  167SOL     OW 1243   1.839   0.154   0.966
  167SOL    HW1 1244   1.867   0.076   0.918
  167SOL    HW2 1245   1.752   0.174   0.930
  168SOL     OW 1246   0.264   0.324   0.723
  168SOL    HW1 1247   0.182   0.360   0.690
  168SOL    HW2 1248   0.251   0.316   0.817
  169SOL     OW 1249   1.223   1.602   0.052
  169SOL    HW1 1250   1.210   1.510   0.072
  169SOL    HW2 1251   1.158   1.622  11.085
  170SOL     OW 1252   0.825   1.007   1.372
  170SOL    HW1 1253   0.868   1.003   1.286
  170SOL    HW2 1254   0.825   1.100   1.395
  171SOL     OW 1255   0.914   0.906   0.282
  171SOL    HW1 1256   0.981   0.946   0.226
  171SOL    HW2 1257   0.961   0.842   0.334
  172SOL     OW 1258   1.499   1.622   0.047
  172SOL    HW1 1259   1.404   1.618   0.043
  172SOL    HW2 1260   1.526   1.637  11.056
  173SOL     OW 1261   0.373   1.307   1.491
  173SOL    HW1 1262   0.356   1.385   1.439
  173SOL    HW2 1263   0.298   1.250   1.474
  174SOL     OW 1264   1.610   1.283   1.280
  174SOL    HW1 1265   1.672   1.274   1.353
  174SOL    HW2 1266   1.551   1.352   1.307
  175SOL     OW 1267   1.051   1.107   0.705
  175SOL    HW1 1268   0.981   1.055   0.746
  175SOL    HW2 1269   1.114   1.041   0.675
  176SOL     OW 1270   1.011   0.241   0.997
  176SOL    HW1 1271   1.011   0.211   0.906
  176SOL    HW2 1272   1.001   0.161   1.049
  177SOL     OW 1273   0.603   1.490   0.483
  177SOL    HW1 1274   0.642   1.440   0.412
  177SOL    HW2 1275   0.530   1.538   0.442
  178SOL     OW 1276   1.721   0.393   1.377
  178SOL    HW1 1277   1.794   0.456   1.376
  178SOL    HW2 1278   1.751   0.322   1.321
  179SOL     OW 1279   0.263   1.329   0.283
  179SOL    HW1 1280   0.175   1.342   0.247
  179SOL    HW2 1281   0.258   1.369   0.370
  180SOL     OW 1282   0.115   1.007   1.695
  180SOL    HW1 1283   0.052   1.050   1.753
  180SOL    HW2 1284   0.194   0.997   1.749
  181SOL     OW 1285   0.658   0.209   1.497
  181SOL    HW1 1286   0.738   0.182   1.451
  181SOL    HW2 1287   0.687   0.225   1.587
  182SOL     OW 1288   0.051   0.339   0.014
  182SOL    HW1 1289   4.460   0.331   0.042
  182SOL    HW2 1290   0.070   0.433   0.023
  183SOL     OW 1291   1.430   0.858   1.400
  183SOL    HW1 1292   1.381   0.919   1.344
  183SOL    HW2 1293   1.520   0.861   1.366
  184SOL     OW 1294   0.081   0.183   0.295
  184SOL    HW1 1295   0.084   0.264   0.244
  184SOL    HW2 1296   0.158   0.134   0.269
  185SOL     OW 1297   1.182   1.340   0.122
  185SOL    HW1 1298   1.089   1.322   0.115
  185SOL    HW2 1299   1.202   1.333   0.215
  186SOL     OW 1300   0.623   0.830   1.429
  186SOL    HW1 1301   0.678   0.908   1.416
  186SOL    HW2 1302   0.685   0.758   1.438
  187SOL     OW 1303   1.485   1.776   0.978
  187SOL    HW1 1304   1.507   1.837   0.908
  187SOL    HW2 1305   1.568   1.761   1.024
  188SOL     OW 1306   0.714   0.562   1.705
  188SOL    HW1 1307   0.751   0.628   1.763
  188SOL    HW2 1308   0.750   0.479   1.737
  189SOL     OW 1309   1.471   1.200   1.632
  189SOL    HW1 1310   1.459   1.215   1.726
  189SOL    HW2 1311   1.564   1.215   1.618
  190SOL     OW 1312   0.380   1.744   1.564
  190SOL    HW1 1313   0.295   1.784   1.547
  190SOL    HW2 1314   0.359   1.663   1.612
  191SOL     OW 1315   1.670   0.881   1.255
  191SOL    HW1 1316   1.662   0.797   1.212
  191SOL    HW2 1317   1.660   0.946   1.185
  192SOL     OW 1318   1.218   0.327   0.447
  192SOL    HW1 1319   1.284   0.259   0.437
  192SOL    HW2 1320   1.244   0.373   0.527
  193SOL     OW 1321   0.585   0.738   0.670
  193SOL    HW1 1322   0.628   0.823   0.655
  193SOL    HW2 1323   0.519   0.732   0.602
  194SOL     OW 1324   1.763   0.364   1.644
  194SOL    HW1 1325   1.747   0.378   1.550
  194SOL    HW2 1326   1.684   0.319   1.675
  195SOL     OW 1327   1.745   0.933   1.512
  195SOL    HW1 1328   1.743   1.028   1.526
  195SOL    HW2 1329   1.730   0.922   1.419
  196SOL     OW 1330   0.903   1.357   0.067
  196SOL    HW1 1331   0.832   1.357   0.132
  196SOL    HW2 1332   0.891   1.438   0.019
  197SOL     OW 1333   0.660   1.792   0.946
  197SOL    HW1 1334   0.639   1.882   0.921
  197SOL    HW2 1335   0.755   1.786   0.937
  198SOL     OW 1336   0.867   0.967   0.855
  198SOL    HW1 1337   0.917   0.895   0.894
  198SOL    HW2 1338   0.833   1.016   0.929
  199SOL     OW 1339   1.079   0.990   0.085
  199SOL    HW1 1340   1.054   1.024  11.100
  199SOL    HW2 1341   1.155   0.934   0.068
  200SOL     OW 1342   1.855   1.551   0.841
  200SOL    HW1 1343   1.773   1.543   0.792
  200SOL    HW2 1344   1.845   1.491   0.915
  201SOL     OW 1345   0.230   1.306   1.858
  201SOL    HW1 1346   0.156   1.248   1.835
  201SOL    HW2 1347   0.224   1.316   1.953
  202SOL     OW 1348   0.103   1.231   0.668
  202SOL    HW1 1349   0.121   1.188   0.751
  202SOL    HW2 1350   0.169   1.196   0.608
  203SOL     OW 1351   0.682   1.402   1.628
  203SOL    HW1 1352   0.602   1.359   1.656
  203SOL    HW2 1353   0.676   1.490   1.665
  204SOL     OW 1354   1.809   0.182   1.238
  204SOL    HW1 1355   1.806   0.088   1.259
  204SOL    HW2 1356   1.825   0.185   1.144
  205SOL     OW 1357   0.439   0.431   0.530
  205SOL    HW1 1358   0.459   0.360   0.469
  205SOL    HW2 1359   0.382   0.391   0.595
  206SOL     OW 1360   1.703   1.487   1.093
  206SOL    HW1 1361   1.620   1.464   1.051
  206SOL    HW2 1362   1.715   1.421   1.161
  207SOL     OW 1363   0.311   0.505   1.254
  207SOL    HW1 1364   0.383   0.456   1.294
  207SOL    HW2 1365   0.337   0.515   1.162
  208SOL     OW 1366   0.827   1.578   0.678
  208SOL    HW1 1367   0.814   1.629   0.599
  208SOL    HW2 1368   0.750   1.521   0.682
  209SOL     OW 1369   1.432   0.216   1.117
  209SOL    HW1 1370   1.467   0.145   1.170
  209SOL    HW2 1371   1.381   0.269   1.179
  210SOL     OW 1372   0.996   0.010   1.150
  210SOL    HW1 1373   0.953   4.425   1.140
  210SOL    HW2 1374   1.089   4.489   1.162
  211SOL     OW 1375   0.768   1.328   0.316
  211SOL    HW1 1376   0.739   1.238   0.329
  211SOL    HW2 1377   0.852   1.333   0.360
  212SOL     OW 1378   0.621   1.556   1.285
  212SOL    HW1 1379   0.623   1.638   1.335
  212SOL    HW2 1380   0.708   1.549   1.247
  213SOL     OW 1381   1.350   0.059   0.169
  213SOL    HW1 1382   1.385   0.000   0.102
  213SOL    HW2 1383   1.270   0.015   0.198
  214SOL     OW 1384   1.315   0.463   0.678
  214SOL    HW1 1385   1.254   0.536   0.678
  214SOL    HW2 1386   1.302   0.420   0.763
  215SOL     OW 1387   1.586   0.201   0.868
  215SOL    HW1 1388   1.526   0.216   0.941
  215SOL    HW2 1389   1.588   0.284   0.821
  216SOL     OW 1390   0.038   1.050   0.283
  216SOL    HW1 1391   0.134   1.045   0.284
  216SOL    HW2 1392   0.012   1.018   0.369
  217SOL     OW 1393   0.885   1.653   0.347
  217SOL    HW1 1394   0.813   1.633   0.287
  217SOL    HW2 1395   0.853   1.727   0.399
  218SOL     OW 1396   0.247   0.627   1.983
  218SOL    HW1 1397   0.172   0.606   2.039
  218SOL    HW2 1398   0.214   0.613   1.894
  219SOL     OW 1399   0.194   0.293   2.851
  219SOL    HW1 1400   0.229   0.268   2.937
  219SOL    HW2 1401   0.132   0.224   2.830
  220SOL     OW 1402   0.004   0.381   2.502
  220SOL    HW1 1403   4.426   0.418   2.543
  220SOL    HW2 1404   4.471   0.309   2.448
  221SOL     OW 1405   0.567   1.286   3.037
  221SOL    HW1 1406   0.480   1.291   2.998
  221SOL    HW2 1407   0.583   1.374   3.072
  222SOL     OW 1408   1.559   1.510   2.569
  222SOL    HW1 1409   1.517   1.492   2.653
  222SOL    HW2 1410   1.488   1.515   2.506
  223SOL     OW 1411   1.134   0.699   2.561
  223SOL    HW1 1412   1.181   0.782   2.550
  223SOL    HW2 1413   1.084   0.709   2.642
  224SOL     OW 1414   1.767   0.607   2.090
  224SOL    HW1 1415   1.746   0.597   1.997
  224SOL    HW2 1416   1.734   0.527   2.130
  225SOL     OW 1417   0.756   1.142   2.902
  225SOL    HW1 1418   0.687   1.177   2.959
  225SOL    HW2 1419   0.791   1.219   2.857
  226SOL     OW 1420   0.865   0.774   3.683
  226SOL    HW1 1421   0.851   0.845   3.745
  226SOL    HW2 1422   0.889   0.819   3.601
  227SOL     OW 1423   0.685   1.004   2.510
  227SOL    HW1 1424   0.751   0.991   2.578
  227SOL    HW2 1425   0.616   1.055   2.552
  228SOL     OW 1426   0.710   1.150   3.674
  228SOL    HW1 1427   0.757   1.229   3.700
  228SOL    HW2 1428   0.628   1.182   3.638
  229SOL     OW 1429   0.336   1.422   2.931
  229SOL    HW1 1430   0.254   1.402   2.885
  229SOL    HW2 1431   0.386   1.476   2.870
  230SOL     OW 1432   1.461   1.499   3.215
  230SOL    HW1 1433   1.511   1.580   3.224
  230SOL    HW2 1434   1.401   1.499   3.290
  231SOL     OW 1435   0.439   0.394   3.353
  231SOL    HW1 1436   0.528   0.359   3.354
  231SOL    HW2 1437   0.383   0.319   3.374
  232SOL     OW 1438   1.611   0.446   2.600
  232SOL    HW1 1439   1.531   0.468   2.553
  232SOL    HW2 1440   1.630   0.524   2.653
  233SOL     OW 1441   0.245   1.692   2.339
  233SOL    HW1 1442   0.231   1.776   2.381
  233SOL    HW2 1443   0.313   1.708   2.274
  234SOL     OW 1444   1.136   1.341   3.554
  234SOL    HW1 1445   1.177   1.337   3.641
  234SOL    HW2 1446   1.084   1.261   3.548
  235SOL     OW 1447   0.248   1.427   2.389
  235SOL    HW1 1448   0.239   1.522   2.392
  235SOL    HW2 1449   0.184   1.395   2.453
  236SOL     OW 1450   0.247   1.082   2.745
  236SOL    HW1 1451   0.264   0.992   2.775
  236SOL    HW2 1452   0.187   1.118   2.812
  237SOL     OW 1453   0.614   1.791   3.293
  237SOL    HW1 1454   0.530   1.773   3.337
  237SOL    HW2 1455   0.634   1.881   3.317
  238SOL     OW 1456   0.580   0.986   2.000
  238SOL    HW1 1457   0.627   1.030   1.929
  238SOL    HW2 1458   0.625   1.015   2.079
  239SOL     OW 1459   1.582   0.116   3.333
  239SOL    HW1 1460   1.603   0.185   3.270
  239SOL    HW2 1461   1.572   0.161   3.416
  240SOL     OW 1462   0.136   0.643   2.436
  240SOL    HW1 1463   0.084   0.565   2.454
  240SOL    HW2 1464   0.108   0.706   2.503
  241SOL     OW 1465   1.839   1.733   2.201
  241SOL    HW1 1466   1.906   1.715   2.267
  241SOL    HW2 1467   1.843   1.827   2.188
  242SOL     OW 1468   0.032   1.602   2.002
  242SOL    HW1 1469   0.021   1.507   1.999
  242SOL    HW2 1470   0.020   1.625   2.094
  243SOL     OW 1471   1.690   0.920   2.502
  243SOL    HW1 1472   1.774   0.878   2.481
  243SOL    HW2 1473   1.668   0.970   2.424
  244SOL     OW 1474   1.646   1.107   2.291
  244SOL    HW1 1475   1.732   1.114   2.249
  244SOL    HW2 1476   1.651   1.168   2.365
  245SOL     OW 1477   0.104   0.764   3.443
  245SOL    HW1 1478   0.196   0.760   3.416
  245SOL    HW2 1479   0.090   0.857   3.463
  246SOL     OW 1480   0.613   1.385   2.598
  246SOL    HW1 1481   0.566   1.302   2.607
  246SOL    HW2 1482   0.597   1.411   2.508
  247SOL     OW 1483   1.289   1.238   3.286
  247SOL    HW1 1484   1.321   1.171   3.226
  247SOL    HW2 1485   1.346   1.232   3.362
  248SOL     OW 1486   0.820   0.013   2.413
  248SOL    HW1 1487   0.854   0.099   2.388
  248SOL    HW2 1488   0.725   0.021   2.401
  249SOL     OW 1489   0.180   0.941   3.141
  249SOL    HW1 1490   0.271   0.923   3.121
  249SOL    HW2 1491   0.133   0.925   3.059
  250SOL     OW 1492   1.532   0.992   2.060
  250SOL    HW1 1493   1.461   0.936   2.092
  250SOL    HW2 1494   1.572   1.027   2.140
  251SOL     OW 1495   1.185   1.806   3.484
  251SOL    HW1 1496   1.198   1.864   3.409
  251SOL    HW2 1497   1.201   1.718   3.449
  252SOL     OW 1498   0.318   0.260   3.631
  252SOL    HW1 1499   0.386   0.312   3.675
  252SOL    HW2 1500   0.242   0.268   3.689
  253SOL     OW 1501   1.466   1.419   2.814
  253SOL    HW1 1502   1.398   1.434   2.879
  253SOL    HW2 1503   1.453   1.328   2.787
  254SOL     OW 1504   1.661   1.732   2.443
  254SOL    HW1 1505   1.638   1.704   2.354
  254SOL    HW2 1506   1.633   1.659   2.499
  255SOL     OW 1507   0.596   0.723   2.127
  255SOL    HW1 1508   0.599   0.804   2.077
  255SOL    HW2 1509   0.530   0.739   2.195
  256SOL     OW 1510   1.291   0.362   2.795
  256SOL    HW1 1511   1.202   0.332   2.779
  256SOL    HW2 1512   1.327   0.299   2.857
  257SOL     OW 1513   1.574   1.668   2.170
  257SOL    HW1 1514   1.668   1.688   2.166
  257SOL    HW2 1515   1.549   1.653   2.079
  258SOL     OW 1516   0.797   0.618   3.316
  258SOL    HW1 1517   0.769   0.593   3.404
  258SOL    HW2 1518   0.754   0.555   3.258
  259SOL     OW 1519   1.388   0.479   3.538
  259SOL    HW1 1520   1.392   0.523   3.623
  259SOL    HW2 1521   1.455   0.411   3.544
  260SOL     OW 1522   0.955   0.888   3.444
  260SOL    HW1 1523   1.010   0.817   3.409
  260SOL    HW2 1524   0.908   0.922   3.368
  261SOL     OW 1525   0.997   0.417   3.098
  261SOL    HW1 1526   0.910   0.427   3.137
  261SOL    HW2 1527   0.983   0.365   3.019
  262SOL     OW 1528   1.050   0.698   2.289
  262SOL    HW1 1529   1.066   0.690   2.383
  262SOL    HW2 1530   0.967   0.651   2.275
  263SOL     OW 1531   0.098   0.825   2.646
  263SOL    HW1 1532   0.184   0.810   2.683
  263SOL    HW2 1533   0.045   0.857   2.719
  264SOL     OW 1534   0.123   1.858   3.439
  264SOL    HW1 1535   0.117   1.833   3.531
  264SOL    HW2 1536   0.046   1.817   3.398
  265SOL     OW 1537   0.853   0.368   2.041
  265SOL    HW1 1538   0.927   0.403   1.992
  265SOL    HW2 1539   0.871   0.275   2.047
  266SOL     OW 1540   1.704   0.573   3.690
  266SOL    HW1 1541   1.669   0.649   3.643
  266SOL    HW2 1542   1.741   0.517   3.622
  267SOL     OW 1543   1.377   1.142   2.403
  267SOL    HW1 1544   1.455   1.130   2.350
  267SOL    HW2 1545   1.324   1.205   2.353
  268SOL     OW 1546   0.542   0.204   2.763
  268SOL    HW1 1547   0.562   0.223   2.854
  268SOL    HW2 1548   0.533   0.290   2.721
  269SOL     OW 1549   1.006   1.444   2.334
  269SOL    HW1 1550   0.968   1.517   2.285
  269SOL    HW2 1551   0.989   1.466   2.426
  270SOL     OW 1552   0.356   1.810   2.720
  270SOL    HW1 1553   0.398   1.725   2.730
  270SOL    HW2 1554   0.426   1.873   2.736
  271SOL     OW 1555   1.799   1.058   2.729
  271SOL    HW1 1556   1.744   1.040   2.653
  271SOL    HW2 1557   1.738   1.063   2.803
  272SOL     OW 1558   1.228   1.539   3.375
  272SOL    HW1 1559   1.214   1.466   3.435
  272SOL    HW2 1560   1.166   1.524   3.304
  273SOL     OW 1561   0.316   0.954   2.114
  273SOL    HW1 1562   0.400   0.977   2.075
  273SOL    HW2 1563   0.300   0.864   2.087
  274SOL     OW 1564   1.479   0.741   2.587
  274SOL    HW1 1565   1.467   0.697   2.671
  274SOL    HW2 1566   1.555   0.798   2.600
  275SOL     OW 1567   0.467   1.262   3.597
  275SOL    HW1 1568   0.440   1.268   3.506
  275SOL    HW2 1569   0.385   1.267   3.647
  276SOL     OW 1570   1.122   1.778   2.093
  276SOL    HW1 1571   1.049   1.736   2.139
  276SOL    HW2 1572   1.144   1.717   2.023
  277SOL     OW 1573   0.163   0.265   3.371
  277SOL    HW1 1574   0.136   0.352   3.343
  277SOL    HW2 1575   0.198   0.278   3.460
  278SOL     OW 1576   1.628   1.380   1.950
  278SOL    HW1 1577   1.588   1.465   1.934
  278SOL    HW2 1578   1.560   1.316   1.931
  279SOL     OW 1579   0.469   1.743   2.176
  279SOL    HW1 1580   0.511   1.797   2.244
  279SOL    HW2 1581   0.542   1.709   2.124
  280SOL     OW 1582   1.420   0.137   2.280
  280SOL    HW1 1583   1.404   0.086   2.200
  280SOL    HW2 1584   1.514   0.131   2.293
  281SOL     OW 1585   0.256   1.789   3.096
  281SOL    HW1 1586   0.305   1.715   3.133
  281SOL    HW2 1587   0.226   1.759   3.011
  282SOL     OW 1588   0.938   1.699   2.761
  282SOL    HW1 1589   1.015   1.647   2.783
  282SOL    HW2 1590   0.894   1.649   2.692
  283SOL     OW 1591   0.394   0.693   2.335
  283SOL    HW1 1592   0.419   0.602   2.347
  283SOL    HW2 1593   0.302   0.697   2.361
  284SOL     OW 1594   1.525   0.233   3.584
  284SOL    HW1 1595   1.525   0.256   3.677
  284SOL    HW2 1596   1.448   0.178   3.573
  285SOL     OW 1597   0.624   0.121   1.980
  285SOL    HW1 1598   0.712   0.086   1.992
  285SOL    HW2 1599   0.595   0.084   1.897
  286SOL     OW 1600   0.768   0.269   3.616
  286SOL    HW1 1601   0.835   0.201   3.625
  286SOL    HW2 1602   0.728   0.275   3.702
  287SOL     OW 1603   0.877   1.522   3.056
  287SOL    HW1 1604   0.861   1.486   2.968
  287SOL    HW2 1605   0.946   1.467   3.092
  288SOL     OW 1606   1.341   0.589   3.291
  288SOL    HW1 1607   1.369   0.560   3.378
  288SOL    HW2 1608   1.376   0.678   3.283
  289SOL     OW 1609   0.815   1.396   2.801
  289SOL    HW1 1610   0.899   1.384   2.756
  289SOL    HW2 1611   0.750   1.396   2.730
  290SOL     OW 1612   0.923   0.518   2.762
  290SOL    HW1 1613   0.906   0.516   2.668
  290SOL    HW2 1614   0.961   0.432   2.781
  291SOL     OW 1615   0.561   0.068   2.370
  291SOL    HW1 1616   0.474   0.055   2.408
  291SOL    HW2 1617   0.549   0.139   2.306
  292SOL     OW 1618   1.428   1.198   1.903
  292SOL    HW1 1619   1.458   1.122   1.953
  292SOL    HW2 1620   1.342   1.219   1.940
  293SOL     OW 1621   0.304   0.074   2.049
  293SOL    HW1 1622   0.388   0.121   2.047
  293SOL    HW2 1623   0.320   4.499   2.106
  294SOL     OW 1624   0.953   0.240   2.332
  294SOL    HW1 1625   0.901   0.295   2.273
  294SOL    HW2 1626   1.041   0.276   2.325
  295SOL     OW 1627   1.080   0.681   3.323
  295SOL    HW1 1628   1.010   0.616   3.323
  295SOL    HW2 1629   1.160   0.629   3.311
  296SOL     OW 1630   1.224   1.569   2.656
  296SOL    HW1 1631   1.241   1.637   2.590
  296SOL    HW2 1632   1.292   1.584   2.722
  297SOL     OW 1633   0.466   1.149   2.598
  297SOL    HW1 1634   0.395   1.130   2.660
  297SOL    HW2 1635   0.427   1.133   2.512
  298SOL     OW 1636   1.269   1.794   2.469
  298SOL    HW1 1637   1.315   1.856   2.412
  298SOL    HW2 1638   1.204   1.847   2.515
  299SOL     OW 1639   1.029   0.548   1.879
  299SOL    HW1 1640   0.981   0.629   1.863
  299SOL    HW2 1641   1.088   0.568   1.951
  300SOL     OW 1642   0.094   0.518   3.275
  300SOL    HW1 1643   0.151   0.527   3.199
  300SOL    HW2 1644   0.059   0.606   3.289
  301SOL     OW 1645   0.562   0.244   3.028
  301SOL    HW1 1646   0.592   0.161   3.064
  301SOL    HW2 1647   0.468   0.245   3.047
  302SOL     OW 1648   0.865   0.503   2.489
  302SOL    HW1 1649   0.820   0.544   2.415
  302SOL    HW2 1650   0.834   0.413   2.488
  303SOL     OW 1651   0.964   0.025   2.645
  303SOL    HW1 1652   0.915   0.024   2.562
  303SOL    HW2 1653   0.977   4.433   2.666
  304SOL     OW 1654   1.437   1.162   2.719
  304SOL    HW1 1655   1.368   1.096   2.718
  304SOL    HW2 1656   1.460   1.174   2.627
  305SOL     OW 1657   1.466   0.604   2.837
  305SOL    HW1 1658   1.413   0.525   2.840
  305SOL    HW2 1659   1.524   0.597   2.913
  306SOL     OW 1660   1.846   0.817   2.245
  306SOL    HW1 1661   1.902   0.765   2.302
  306SOL    HW2 1662   1.817   0.755   2.177
  307SOL     OW 1663   0.492   1.417   2.022
  307SOL    HW1 1664   0.415   1.388   2.071
  307SOL    HW2 1665   0.474   1.390   1.931
  308SOL     OW 1666   1.671   1.265   2.508
  308SOL    HW1 1667   1.765   1.270   2.522
  308SOL    HW2 1668   1.639   1.352   2.530
  309SOL     OW 1669   1.394   0.570   1.932
  309SOL    HW1 1670   1.333   0.555   2.003
  309SOL    HW2 1671   1.480   0.552   1.969
  310SOL     OW 1672   0.522   0.264   2.183
  310SOL    HW1 1673   0.570   0.214   2.117
  310SOL    HW2 1674   0.506   0.349   2.142
  311SOL     OW 1675   1.753   1.238   3.437
  311SOL    HW1 1676   1.841   1.200   3.431
  311SOL    HW2 1677   1.769   1.329   3.464
  312SOL     OW 1678   1.059   1.354   3.196
  312SOL    HW1 1679   0.984   1.323   3.247
  312SOL    HW2 1680   1.135   1.312   3.237
  313SOL     OW 1681   1.608   1.625   3.515
  313SOL    HW1 1682   1.603   1.659   3.426
  313SOL    HW2 1683   1.691   1.578   3.518
  314SOL     OW 1684   1.128   1.203   2.968
  314SOL    HW1 1685   1.069   1.241   3.033
  314SOL    HW2 1686   1.095   1.234   2.884
  315SOL     OW 1687   1.629   1.098   2.939
  315SOL    HW1 1688   1.625   1.161   3.012
  315SOL    HW2 1689   1.550   1.115   2.889
  316SOL     OW 1690   0.902   0.133   3.250
  316SOL    HW1 1691   0.924   0.088   3.168
  316SOL    HW2 1692   0.986   0.148   3.293
  317SOL     OW 1693   0.984   1.114   3.585
  317SOL    HW1 1694   0.892   1.130   3.606
  317SOL    HW2 1695   0.983   1.037   3.529
  318SOL     OW 1696   0.708   1.061   2.234
  318SOL    HW1 1697   0.696   1.045   2.328
  318SOL    HW2 1698   0.784   1.007   2.211
  319SOL     OW 1699   0.429   0.826   3.103
  319SOL    HW1 1700   0.498   0.835   3.169
  319SOL    HW2 1701   0.372   0.758   3.138
  320SOL     OW 1702   1.269   0.376   3.135
  320SOL    HW1 1703   1.301   0.454   3.180
  320SOL    HW2 1704   1.180   0.398   3.108
  321SOL     OW 1705   0.062   1.576   3.205
  321SOL    HW1 1706   0.036   1.665   3.180
  321SOL    HW2 1707   0.158   1.580   3.210
  322SOL     OW 1708   0.347   1.108   2.355
  322SOL    HW1 1709   0.357   1.182   2.295
  322SOL    HW2 1710   0.348   1.031   2.299
  323SOL     OW 1711   0.564   0.526   2.715
  323SOL    HW1 1712   0.575   0.587   2.642
  323SOL    HW2 1713   0.623   0.558   2.783
  324SOL     OW 1714   1.248   1.348   2.251
  324SOL    HW1 1715   1.303   1.420   2.282
  324SOL    HW2 1716   1.161   1.369   2.285
  325SOL     OW 1717   1.280   1.457   3.009
  325SOL    HW1 1718   1.336   1.460   3.086
  325SOL    HW2 1719   1.225   1.380   3.022
  326SOL     OW 1720   1.582   0.624   2.339
  326SOL    HW1 1721   1.536   0.674   2.405
  326SOL    HW2 1722   1.626   0.689   2.285
  327SOL     OW 1723   0.347   1.531   3.177
  327SOL    HW1 1724   0.333   1.484   3.095
  327SOL    HW2 1725   0.442   1.541   3.184
  328SOL     OW 1726   0.485   0.761   3.531
  328SOL    HW1 1727   0.510   0.799   3.447
  328SOL    HW2 1728   0.524   0.674   3.531
  329SOL     OW 1729   1.600   0.777   3.542
  329SOL    HW1 1730   1.514   0.819   3.536
  329SOL    HW2 1731   1.653   0.820   3.475
  330SOL     OW 1732   1.005   0.086   3.582
  330SOL    HW1 1733   1.035   0.168   3.545
  330SOL    HW2 1734   1.030   0.020   3.518
  331SOL     OW 1735   0.495   0.044   3.613
  331SOL    HW1 1736   0.480   4.497   3.531
  331SOL    HW2 1737   0.429   0.113   3.614
  332SOL     OW 1738   0.589   0.874   2.886
  332SOL    HW1 1739   0.619   0.965   2.888
  332SOL    HW2 1740   0.533   0.865   2.963
  333SOL     OW 1741   1.358   0.858   2.892
  333SOL    HW1 1742   1.275   0.850   2.846
  333SOL    HW2 1743   1.398   0.772   2.886
  334SOL     OW 1744   1.204   0.535   2.125
  334SOL    HW1 1745   1.210   0.455   2.177
  334SOL    HW2 1746   1.161   0.598   2.183
  335SOL     OW 1747   0.285   0.217   3.096
  335SOL    HW1 1748   0.246   0.234   3.182
  335SOL    HW2 1749   0.325   0.131   3.105
  336SOL     OW 1750   0.040   1.313   3.148
  336SOL    HW1 1751   0.076   1.265   3.223
  336SOL    HW2 1752   0.045   1.405   3.173
  337SOL     OW 1753   0.724   0.631   2.920
  337SOL    HW1 1754   0.798   0.611   2.863
  337SOL    HW2 1755   0.698   0.720   2.895
  338SOL     OW 1756   1.734   0.959   3.714
  338SOL    HW1 1757   1.687   0.900   3.655
  338SOL    HW2 1758   1.675   0.972   3.788
  339SOL     OW 1759   0.320   0.074   2.493
  339SOL    HW1 1760   0.302   0.163   2.525
  339SOL    HW2 1761   0.308   0.018   2.570
  340SOL     OW 1762   1.614   0.377   2.225
  340SOL    HW1 1763   1.643   0.314   2.291
  340SOL    HW2 1764   1.591   0.455   2.276
  341SOL     OW 1765   1.029   0.761   2.823
  341SOL    HW1 1766   1.026   0.778   2.917
  341SOL    HW2 1767   1.000   0.671   2.814
  342SOL     OW 1768   0.982   1.566   3.578
  342SOL    HW1 1769   0.967   1.610   3.495
  342SOL    HW2 1770   1.025   1.484   3.555
  343SOL     OW 1771   1.855   1.504   3.467
  343SOL    HW1 1772   1.871   1.533   3.377
  343SOL    HW2 1773   1.935   1.528   3.514
  344SOL     OW 1774   0.346   0.933   3.680
  344SOL    HW1 1775   0.419   0.963   3.735
  344SOL    HW2 1776   0.386   0.866   3.624
  345SOL     OW 1777   1.531   0.265   1.990
  345SOL    HW1 1778   1.459   0.209   2.019
  345SOL    HW2 1779   1.560   0.310   2.069
  346SOL     OW 1780   1.292   0.826   1.893
  346SOL    HW1 1781   1.334   0.740   1.895
  346SOL    HW2 1782   1.323   0.866   1.811
  347SOL     OW 1783   1.065   1.335   2.715
  347SOL    HW1 1784   1.069   1.263   2.653
  347SOL    HW2 1785   1.127   1.399   2.681
  348SOL     OW 1786   0.318   0.812   2.810
  348SOL    HW1 1787   0.412   0.830   2.807
  348SOL    HW2 1788   0.311   0.722   2.839
  349SOL     OW 1789   0.335   0.529   2.852
  349SOL    HW1 1790   0.290   0.447   2.833
  349SOL    HW2 1791   0.413   0.528   2.796
  350SOL     OW 1792   1.135   0.374   3.558
  350SOL    HW1 1793   1.086   0.438   3.609
  350SOL    HW2 1794   1.221   0.414   3.544
  351SOL     OW 1795   1.157   0.213   3.335
  351SOL    HW1 1796   1.151   0.277   3.406
  351SOL    HW2 1797   1.196   0.261   3.263
  352SOL     OW 1798   4.491   1.322   2.067
  352SOL    HW1 1799   4.399   1.338   2.049
  352SOL    HW2 1800   4.496   1.229   2.088
  353SOL     OW 1801   0.097   1.777   2.802
  353SOL    HW1 1802   0.059   1.723   2.733
  353SOL    HW2 1803   0.185   1.798   2.770
  354SOL     OW 1804   0.497   1.574   2.769
  354SOL    HW1 1805   0.565   1.636   2.793
  354SOL    HW2 1806   0.541   1.510   2.712
  355SOL     OW 1807   0.985   0.794   3.089
  355SOL    HW1 1808   1.040   0.770   3.164
  355SOL    HW2 1809   0.899   0.755   3.109
  356SOL     OW 1810   0.039   0.568   2.973
  356SOL    HW1 1811   0.113   0.525   2.931
  356SOL    HW2 1812   0.016   0.510   3.046
  357SOL     OW 1813   0.180   0.523   3.574
  357SOL    HW1 1814   0.266   0.506   3.538
  357SOL    HW2 1815   0.151   0.603   3.530
  358SOL     OW 1816   1.377   0.939   3.521
  358SOL    HW1 1817   1.398   1.033   3.519
  358SOL    HW2 1818   1.374   0.914   3.428
  359SOL     OW 1819   0.811   0.574   2.217
  359SOL    HW1 1820   0.814   0.502   2.153
  359SOL    HW2 1821   0.739   0.629   2.188
  360SOL     OW 1822   1.641   0.601   3.048
  360SOL    HW1 1823   1.630   0.542   3.123
  360SOL    HW2 1824   1.728   0.581   3.014
  361SOL     OW 1825   0.272   1.562   3.602
  361SOL    HW1 1826   0.216   1.613   3.661
  361SOL    HW2 1827   0.253   1.471   3.625
  362SOL     OW 1828   0.686   0.464   3.129
  362SOL    HW1 1829   0.647   0.384   3.093
  362SOL    HW2 1830   0.692   0.523   3.054
  363SOL     OW 1831   0.928   1.679   3.329
  363SOL    HW1 1832   0.902   1.645   3.244
  363SOL    HW2 1833   0.924   1.774   3.320
  364SOL     OW 1834   0.473   0.491   2.045
  364SOL    HW1 1835   0.532   0.562   2.068
  364SOL    HW2 1836   0.389   0.534   2.030
  365SOL     OW 1837   0.162   1.141   3.324
  365SOL    HW1 1838   0.145   1.095   3.406
  365SOL    HW2 1839   0.169   1.071   3.259
  366SOL     OW 1840   1.326   1.047   3.085
  366SOL    HW1 1841   1.350   0.984   3.017
  366SOL    HW2 1842   1.256   1.099   3.047
  367SOL     OW 1843   1.312   0.856   2.168
  367SOL    HW1 1844   1.236   0.828   2.219
  367SOL    HW2 1845   1.285   0.843   2.077
  368SOL     OW 1846   1.762   1.743   3.011
  368SOL    HW1 1847   1.829   1.772   2.948
  368SOL    HW2 1848   1.746   1.652   2.987
  369SOL     OW 1849   1.241   1.733   2.975
  369SOL    HW1 1850   1.323   1.753   2.931
  369SOL    HW2 1851   1.246   1.639   2.994
  370SOL     OW 1852   0.067   1.185   2.912
  370SOL    HW1 1853   0.067   1.218   3.002
  370SOL    HW2 1854   0.021   1.253   2.862
  371SOL     OW 1855   0.679   1.665   3.591
  371SOL    HW1 1856   0.624   1.743   3.585
  371SOL    HW2 1857   0.743   1.676   3.520
  372SOL     OW 1858   1.718   0.130   2.356
  372SOL    HW1 1859   1.790   0.138   2.293
  372SOL    HW2 1860   1.745   0.057   2.412
  373SOL     OW 1861   1.389   1.567   2.348
  373SOL    HW1 1862   1.448   1.600   2.280
  373SOL    HW2 1863   1.341   1.645   2.376
  374SOL     OW 1864   0.118   1.808   3.710
  374SOL    HW1 1865   0.079   1.735   3.757
  374SOL    HW2 1866   0.182   1.845   3.771
  375SOL     OW 1867   1.278   0.927   2.534
  375SOL    HW1 1868   1.351   0.865   2.539
  375SOL    HW2 1869   1.312   0.999   2.482
  376SOL     OW 1870   0.815   1.273   3.292
  376SOL    HW1 1871   0.788   1.312   3.375
  376SOL    HW2 1872   0.745   1.295   3.231
  377SOL     OW 1873   0.672   1.619   2.017
  377SOL    HW1 1874   0.682   1.630   1.923
  377SOL    HW2 1875   0.618   1.541   2.026
  378SOL     OW 1876   1.626   1.726   3.253
  378SOL    HW1 1877   1.675   1.733   3.171
  378SOL    HW2 1878   1.613   1.816   3.281
  379SOL     OW 1879   1.839   0.154   2.828
  379SOL    HW1 1880   1.868   0.077   2.780
  379SOL    HW2 1881   1.752   0.174   2.792
  380SOL     OW 1882   0.264   0.325   2.585
  380SOL    HW1 1883   0.181   0.359   2.551
  380SOL    HW2 1884   0.249   0.316   2.679
  381SOL     OW 1885   1.207   1.606   1.893
  381SOL    HW1 1886   1.198   1.515   1.920
  381SOL    HW2 1887   1.142   1.618   1.824
  382SOL     OW 1888   0.825   1.007   3.234
  382SOL    HW1 1889   0.868   1.003   3.148
  382SOL    HW2 1890   0.825   1.100   3.257
  383SOL     OW 1891   0.915   0.910   2.152
  383SOL    HW1 1892   0.977   0.942   2.086
  383SOL    HW2 1893   0.962   0.840   2.197
  384SOL     OW 1894   1.492   1.625   1.903
  384SOL    HW1 1895   1.398   1.619   1.890
  384SOL    HW2 1896   1.529   1.631   1.815
  385SOL     OW 1897   0.373   1.307   3.353
  385SOL    HW1 1898   0.356   1.385   3.301
  385SOL    HW2 1899   0.298   1.250   3.336
  386SOL     OW 1900   1.610   1.283   3.142
  386SOL    HW1 1901   1.672   1.274   3.214
  386SOL    HW2 1902   1.551   1.352   3.169
  387SOL     OW 1903   1.051   1.107   2.568
  387SOL    HW1 1904   0.981   1.056   2.607
  387SOL    HW2 1905   1.114   1.041   2.537
  388SOL     OW 1906   1.005   0.243   2.866
  388SOL    HW1 1907   1.011   0.220   2.773
  388SOL    HW2 1908   0.998   0.159   2.912
  389SOL     OW 1909   0.604   1.489   2.344
  389SOL    HW1 1910   0.645   1.439   2.274
  389SOL    HW2 1911   0.531   1.534   2.302
  390SOL     OW 1912   1.721   0.393   3.239
  390SOL    HW1 1913   1.794   0.456   3.239
  390SOL    HW2 1914   1.751   0.322   3.183
  391SOL     OW 1915   0.252   1.344   2.138
  391SOL    HW1 1916   0.157   1.344   2.124
  391SOL    HW2 1917   0.263   1.376   2.228
  392SOL     OW 1918   0.115   1.007   3.557
  392SOL    HW1 1919   0.052   1.050   3.615
  392SOL    HW2 1920   0.194   0.997   3.611
  393SOL     OW 1921   0.658   0.208   3.359
  393SOL    HW1 1922   0.738   0.182   3.313
  393SOL    HW2 1923   0.687   0.225   3.449
  394SOL     OW 1924   0.071   0.320   1.888
  394SOL    HW1 1925   4.477   0.328   1.902
  394SOL    HW2 1926   0.099   0.407   1.857
  395SOL     OW 1927   1.430   0.858   3.262
  395SOL    HW1 1928   1.382   0.919   3.206
  395SOL    HW2 1929   1.520   0.861   3.229
  396SOL     OW 1930   0.085   0.188   2.164
  396SOL    HW1 1931   0.077   0.261   2.103
  396SOL    HW2 1932   0.164   0.142   2.137
  397SOL     OW 1933   1.179   1.340   1.979
  397SOL    HW1 1934   1.088   1.310   1.981
  397SOL    HW2 1935   1.207   1.340   2.070
  398SOL     OW 1936   0.623   0.830   3.291
  398SOL    HW1 1937   0.678   0.907   3.278
  398SOL    HW2 1938   0.685   0.758   3.300
  399SOL     OW 1939   1.485   1.776   2.840
  399SOL    HW1 1940   1.508   1.838   2.771
  399SOL    HW2 1941   1.567   1.762   2.887
  400SOL     OW 1942   0.714   0.561   3.567
  400SOL    HW1 1943   0.751   0.628   3.625
  400SOL    HW2 1944   0.750   0.479   3.599
  401SOL     OW 1945   1.471   1.201   3.494
  401SOL    HW1 1946   1.459   1.214   3.588
  401SOL    HW2 1947   1.565   1.215   3.479
  402SOL     OW 1948   0.380   1.744   3.426
  402SOL    HW1 1949   0.295   1.784   3.409
  402SOL    HW2 1950   0.359   1.663   3.474
  403SOL     OW 1951   1.670   0.881   3.117
  403SOL    HW1 1952   1.662   0.797   3.074
  403SOL    HW2 1953   1.661   0.946   3.047
  404SOL     OW 1954   1.218   0.330   2.310
  404SOL    HW1 1955   1.283   0.260   2.299
  404SOL    HW2 1956   1.246   0.377   2.388
  405SOL     OW 1957   0.587   0.738   2.532
  405SOL    HW1 1958   0.628   0.823   2.517
  405SOL    HW2 1959   0.519   0.731   2.465
  406SOL     OW 1960   1.763   0.364   3.506
  406SOL    HW1 1961   1.747   0.378   3.412
  406SOL    HW2 1962   1.684   0.320   3.537
  407SOL     OW 1963   1.744   0.933   3.375
  407SOL    HW1 1964   1.744   1.028   3.388
  407SOL    HW2 1965   1.729   0.923   3.281
  408SOL     OW 1966   0.863   1.367   1.895
  408SOL    HW1 1967   0.824   1.394   1.978
  408SOL    HW2 1968   0.881   1.449   1.849
  409SOL     OW 1969   0.660   1.792   2.808
  409SOL    HW1 1970   0.640   1.882   2.783
  409SOL    HW2 1971   0.755   1.786   2.799
  410SOL     OW 1972   0.867   0.967   2.717
  410SOL    HW1 1973   0.917   0.895   2.756
  410SOL    HW2 1974   0.833   1.016   2.792
  411SOL     OW 1975   1.080   0.988   1.951
  411SOL    HW1 1976   1.057   1.039   1.873
  411SOL    HW2 1977   1.154   0.935   1.924
  412SOL     OW 1978   1.854   1.547   2.702
  412SOL    HW1 1979   1.772   1.541   2.654
  412SOL    HW2 1980   1.843   1.489   2.777
  413SOL     OW 1981   0.230   1.306   3.720
  413SOL    HW1 1982   0.156   1.248   3.697
  413SOL    HW2 1983   0.224   1.316   3.815
  414SOL     OW 1984   0.106   1.236   2.530
  414SOL    HW1 1985   0.117   1.189   2.612
  414SOL    HW2 1986   0.166   1.192   2.469
  415SOL     OW 1987   0.682   1.402   3.490
  415SOL    HW1 1988   0.602   1.359   3.518
  415SOL    HW2 1989   0.676   1.490   3.527
  416SOL     OW 1990   1.809   0.182   3.100
  416SOL    HW1 1991   1.807   0.088   3.121
  416SOL    HW2 1992   1.824   0.185   3.006
  417SOL     OW 1993   0.440   0.431   2.393
  417SOL    HW1 1994   0.458   0.361   2.330
  417SOL    HW2 1995   0.381   0.392   2.457
  418SOL     OW 1996   1.704   1.486   2.953
  418SOL    HW1 1997   1.620   1.463   2.913
  418SOL    HW2 1998   1.716   1.421   3.022
  419SOL     OW 1999   0.312   0.506   3.116
  419SOL    HW1 2000   0.383   0.455   3.155
  419SOL    HW2 2001   0.337   0.515   3.024
  420SOL     OW 2002   0.827   1.578   2.540
  420SOL    HW1 2003   0.815   1.630   2.460
  420SOL    HW2 2004   0.750   1.521   2.543
  421SOL     OW 2005   1.432   0.215   2.980
  421SOL    HW1 2006   1.468   0.145   3.033
  421SOL    HW2 2007   1.381   0.269   3.041
  422SOL     OW 2008   0.996   0.008   3.013
  422SOL    HW1 2009   0.953   4.423   3.003
  422SOL    HW2 2010   1.089   4.487   3.024
  423SOL     OW 2011   0.772   1.332   2.175
  423SOL    HW1 2012   0.741   1.242   2.182
  423SOL    HW2 2013   0.854   1.333   2.225
  424SOL     OW 2014   0.621   1.557   3.147
  424SOL    HW1 2015   0.623   1.638   3.197
  424SOL    HW2 2016   0.708   1.549   3.109
  425SOL     OW 2017   1.341   0.053   2.015
  425SOL    HW1 2018   1.380   4.477   1.971
  425SOL    HW2 2019   1.265   0.017   2.062
  426SOL     OW 2020   1.314   0.462   2.539
  426SOL    HW1 2021   1.255   0.538   2.540
  426SOL    HW2 2022   1.303   0.422   2.625
  427SOL     OW 2023   1.585   0.200   2.730
  427SOL    HW1 2024   1.526   0.215   2.803
  427SOL    HW2 2025   1.588   0.284   2.683
  428SOL     OW 2026   0.041   1.052   2.150
  428SOL    HW1 2027   0.135   1.036   2.140
  428SOL    HW2 2028   0.020   1.019   2.237
  429SOL     OW 2029   0.884   1.652   2.205
  429SOL    HW1 2030   0.812   1.634   2.144
  429SOL    HW2 2031   0.855   1.727   2.256
  430SOL     OW 2032   0.247   0.627   3.845
  430SOL    HW1 2033   0.172   0.607   3.901
  430SOL    HW2 2034   0.214   0.613   3.756
  431SOL     OW 2035   0.194   0.293   4.714
  431SOL    HW1 2036   0.228   0.268   4.799
  431SOL    HW2 2037   0.132   0.224   4.691
  432SOL     OW 2038   0.004   0.381   4.364
  432SOL    HW1 2039   4.426   0.418   4.405
  432SOL    HW2 2040   4.471   0.309   4.310
  433SOL     OW 2041   0.568   1.286   4.899
  433SOL    HW1 2042   0.480   1.290   4.860
  433SOL    HW2 2043   0.582   1.374   4.934
  434SOL     OW 2044   1.560   1.510   4.431
  434SOL    HW1 2045   1.515   1.489   4.512
  434SOL    HW2 2046   1.490   1.516   4.365
  435SOL     OW 2047   1.134   0.699   4.423
  435SOL    HW1 2048   1.181   0.782   4.413
  435SOL    HW2 2049   1.084   0.710   4.504
  436SOL     OW 2050   1.766   0.607   3.952
  436SOL    HW1 2051   1.746   0.598   3.859
  436SOL    HW2 2052   1.734   0.526   3.992
  437SOL     OW 2053   0.757   1.143   4.765
  437SOL    HW1 2054   0.687   1.177   4.821
  437SOL    HW2 2055   0.791   1.220   4.719
  438SOL     OW 2056   0.866   0.774   5.545
  438SOL    HW1 2057   0.850   0.845   5.608
  438SOL    HW2 2058   0.889   0.819   5.464
  439SOL     OW 2059   0.686   1.004   4.371
  439SOL    HW1 2060   0.751   0.991   4.440
  439SOL    HW2 2061   0.616   1.055   4.413
  440SOL     OW 2062   0.711   1.150   5.536
  440SOL    HW1 2063   0.757   1.230   5.562
  440SOL    HW2 2064   0.628   1.182   5.500
  441SOL     OW 2065   0.336   1.422   4.794
  441SOL    HW1 2066   0.254   1.402   4.747
  441SOL    HW2 2067   0.385   1.476   4.732
  442SOL     OW 2068   1.463   1.494   5.082
  442SOL    HW1 2069   1.466   1.589   5.079
  442SOL    HW2 2070   1.402   1.474   5.153
  443SOL     OW 2071   0.439   0.394   5.215
  443SOL    HW1 2072   0.528   0.359   5.216
  443SOL    HW2 2073   0.383   0.319   5.235
  444SOL     OW 2074   1.611   0.446   4.462
  444SOL    HW1 2075   1.531   0.468   4.415
  444SOL    HW2 2076   1.631   0.524   4.513
  445SOL     OW 2077   0.245   1.692   4.202
  445SOL    HW1 2078   0.230   1.777   4.243
  445SOL    HW2 2079   0.313   1.709   4.136
  446SOL     OW 2080   1.138   1.341   5.415
  446SOL    HW1 2081   1.175   1.338   5.503
  446SOL    HW2 2082   1.084   1.262   5.409
  447SOL     OW 2083   0.249   1.427   4.251
  447SOL    HW1 2084   0.239   1.522   4.254
  447SOL    HW2 2085   0.185   1.394   4.315
  448SOL     OW 2086   0.248   1.082   4.608
  448SOL    HW1 2087   0.264   0.992   4.637
  448SOL    HW2 2088   0.188   1.118   4.674
  449SOL     OW 2089   0.615   1.790   5.157
  449SOL    HW1 2090   0.531   1.772   5.199
  449SOL    HW2 2091   0.634   1.881   5.180
  450SOL     OW 2092   0.580   0.986   3.862
  450SOL    HW1 2093   0.627   1.030   3.791
  450SOL    HW2 2094   0.625   1.015   3.941
  451SOL     OW 2095   1.581   0.115   5.195
  451SOL    HW1 2096   1.603   0.184   5.132
  451SOL    HW2 2097   1.572   0.162   5.278
  452SOL     OW 2098   0.136   0.643   4.299
  452SOL    HW1 2099   0.084   0.565   4.315
  452SOL    HW2 2100   0.107   0.706   4.365
  453SOL     OW 2101   1.843   1.776   4.062
  453SOL    HW1 2102   1.899   1.740   4.130
  453SOL    HW2 2103   1.901   1.833   4.012
  454SOL     OW 2104   0.033   1.602   3.864
  454SOL    HW1 2105   0.021   1.507   3.861
  454SOL    HW2 2106   0.020   1.625   3.956
  455SOL     OW 2107   1.690   0.920   4.365
  455SOL    HW1 2108   1.774   0.878   4.345
  455SOL    HW2 2109   1.668   0.969   4.286
  456SOL     OW 2110   1.646   1.108   4.153
  456SOL    HW1 2111   1.732   1.113   4.111
  456SOL    HW2 2112   1.651   1.168   4.227
  457SOL     OW 2113   0.104   0.764   5.305
  457SOL    HW1 2114   0.196   0.760   5.278
  457SOL    HW2 2115   0.089   0.857   5.325
  458SOL     OW 2116   0.613   1.384   4.460
  458SOL    HW1 2117   0.566   1.302   4.470
  458SOL    HW2 2118   0.597   1.411   4.370
  459SOL     OW 2119   1.294   1.243   5.145
  459SOL    HW1 2120   1.321   1.172   5.087
  459SOL    HW2 2121   1.347   1.231   5.224
  460SOL     OW 2122   0.820   0.013   4.275
  460SOL    HW1 2123   0.854   0.099   4.250
  460SOL    HW2 2124   0.725   0.021   4.264
  461SOL     OW 2125   0.180   0.941   5.004
  461SOL    HW1 2126   0.271   0.923   4.983
  461SOL    HW2 2127   0.133   0.926   4.922
  462SOL     OW 2128   1.531   0.993   3.922
  462SOL    HW1 2129   1.461   0.936   3.954
  462SOL    HW2 2130   1.572   1.027   4.001
  463SOL     OW 2131   1.184   1.804   5.346
  463SOL    HW1 2132   1.195   1.866   5.273
  463SOL    HW2 2133   1.199   1.718   5.307
  464SOL     OW 2134   0.318   0.260   5.494
  464SOL    HW1 2135   0.386   0.312   5.537
  464SOL    HW2 2136   0.241   0.268   5.551
  465SOL     OW 2137   1.452   1.425   4.669
  465SOL    HW1 2138   1.388   1.434   4.739
  465SOL    HW2 2139   1.447   1.332   4.644
  466SOL     OW 2140   1.657   1.735   4.302
  466SOL    HW1 2141   1.634   1.706   4.213
  466SOL    HW2 2142   1.635   1.661   4.358
  467SOL     OW 2143   0.596   0.723   3.989
  467SOL    HW1 2144   0.598   0.804   3.939
  467SOL    HW2 2145   0.530   0.739   4.057
  468SOL     OW 2146   1.291   0.363   4.658
  468SOL    HW1 2147   1.202   0.332   4.641
  468SOL    HW2 2148   1.327   0.299   4.719
  469SOL     OW 2149   1.582   1.669   4.033
  469SOL    HW1 2150   1.669   1.708   4.025
  469SOL    HW2 2151   1.555   1.652   3.943
  470SOL     OW 2152   0.797   0.618   5.178
  470SOL    HW1 2153   0.769   0.593   5.266
  470SOL    HW2 2154   0.754   0.555   5.120
  471SOL     OW 2155   1.389   0.479   5.400
  471SOL    HW1 2156   1.392   0.523   5.485
  471SOL    HW2 2157   1.455   0.410   5.406
  472SOL     OW 2158   0.956   0.888   5.306
  472SOL    HW1 2159   1.010   0.817   5.271
  472SOL    HW2 2160   0.908   0.922   5.230
  473SOL     OW 2161   0.997   0.418   4.960
  473SOL    HW1 2162   0.910   0.426   4.999
  473SOL    HW2 2163   0.983   0.365   4.881
  474SOL     OW 2164   1.050   0.698   4.151
  474SOL    HW1 2165   1.066   0.690   4.245
  474SOL    HW2 2166   0.967   0.651   4.137
  475SOL     OW 2167   0.097   0.826   4.508
  475SOL    HW1 2168   0.184   0.810   4.545
  475SOL    HW2 2169   0.045   0.856   4.582
  476SOL     OW 2170   0.123   1.858   5.301
  476SOL    HW1 2171   0.117   1.833   5.393
  476SOL    HW2 2172   0.046   1.818   5.260
  477SOL     OW 2173   0.853   0.369   3.904
  477SOL    HW1 2174   0.927   0.404   3.853
  477SOL    HW2 2175   0.871   0.275   3.909
  478SOL     OW 2176   1.704   0.573   5.552
  478SOL    HW1 2177   1.669   0.648   5.504
  478SOL    HW2 2178   1.740   0.516   5.484
  479SOL     OW 2179   1.377   1.143   4.265
  479SOL    HW1 2180   1.456   1.130   4.212
  479SOL    HW2 2181   1.324   1.204   4.214
  480SOL     OW 2182   0.542   0.203   4.625
  480SOL    HW1 2183   0.562   0.223   4.716
  480SOL    HW2 2184   0.533   0.289   4.583
  481SOL     OW 2185   1.007   1.445   4.197
  481SOL    HW1 2186   0.968   1.517   4.147
  481SOL    HW2 2187   0.988   1.467   4.288
  482SOL     OW 2188   0.355   1.810   4.582
  482SOL    HW1 2189   0.397   1.724   4.592
  482SOL    HW2 2190   0.426   1.873   4.597
  483SOL     OW 2191   1.797   1.060   4.592
  483SOL    HW1 2192   1.743   1.041   4.515
  483SOL    HW2 2193   1.735   1.064   4.665
  484SOL     OW 2194   1.228   1.539   5.233
  484SOL    HW1 2195   1.215   1.468   5.297
  484SOL    HW2 2196   1.160   1.525   5.167
  485SOL     OW 2197   0.316   0.954   3.977
  485SOL    HW1 2198   0.400   0.977   3.937
  485SOL    HW2 2199   0.300   0.864   3.949
  486SOL     OW 2200   1.479   0.742   4.449
  486SOL    HW1 2201   1.468   0.697   4.533
  486SOL    HW2 2202   1.556   0.797   4.461
  487SOL     OW 2203   0.468   1.262   5.459
  487SOL    HW1 2204   0.440   1.268   5.368
  487SOL    HW2 2205   0.386   1.266   5.509
  488SOL     OW 2206   1.121   1.777   3.955
  488SOL    HW1 2207   1.048   1.735   4.001
  488SOL    HW2 2208   1.144   1.716   3.885
  489SOL     OW 2209   0.163   0.265   5.233
  489SOL    HW1 2210   0.136   0.352   5.205
  489SOL    HW2 2211   0.198   0.278   5.322
  490SOL     OW 2212   1.628   1.380   3.812
  490SOL    HW1 2213   1.587   1.465   3.796
  490SOL    HW2 2214   1.559   1.316   3.792
  491SOL     OW 2215   0.469   1.743   4.038
  491SOL    HW1 2216   0.511   1.797   4.106
  491SOL    HW2 2217   0.542   1.709   3.986
  492SOL     OW 2218   1.420   0.137   4.142
  492SOL    HW1 2219   1.403   0.086   4.062
  492SOL    HW2 2220   1.514   0.132   4.155
  493SOL     OW 2221   0.257   1.790   4.958
  493SOL    HW1 2222   0.304   1.715   4.994
  493SOL    HW2 2223   0.225   1.759   4.873
  494SOL     OW 2224   0.938   1.697   4.623
  494SOL    HW1 2225   1.017   1.645   4.640
  494SOL    HW2 2226   0.892   1.649   4.554
  495SOL     OW 2227   0.394   0.693   4.197
  495SOL    HW1 2228   0.419   0.602   4.209
  495SOL    HW2 2229   0.302   0.697   4.223
  496SOL     OW 2230   1.525   0.233   5.446
  496SOL    HW1 2231   1.525   0.256   5.539
  496SOL    HW2 2232   1.448   0.177   5.435
  497SOL     OW 2233   0.624   0.121   3.842
  497SOL    HW1 2234   0.712   0.086   3.854
  497SOL    HW2 2235   0.594   0.084   3.759
  498SOL     OW 2236   0.769   0.270   5.478
  498SOL    HW1 2237   0.835   0.201   5.487
  498SOL    HW2 2238   0.728   0.275   5.564
  499SOL     OW 2239   0.877   1.523   4.917
  499SOL    HW1 2240   0.861   1.486   4.830
  499SOL    HW2 2241   0.945   1.467   4.954
  500SOL     OW 2242   1.341   0.589   5.153
  500SOL    HW1 2243   1.369   0.560   5.240
  500SOL    HW2 2244   1.376   0.678   5.146
  501SOL     OW 2245   0.815   1.396   4.663
  501SOL    HW1 2246   0.898   1.384   4.618
  501SOL    HW2 2247   0.750   1.396   4.593
  502SOL     OW 2248   0.923   0.518   4.624
  502SOL    HW1 2249   0.906   0.516   4.530
  502SOL    HW2 2250   0.961   0.432   4.643
  503SOL     OW 2251   0.561   0.069   4.232
  503SOL    HW1 2252   0.474   0.055   4.270
  503SOL    HW2 2253   0.549   0.139   4.168
  504SOL     OW 2254   1.428   1.198   3.765
  504SOL    HW1 2255   1.458   1.122   3.815
  504SOL    HW2 2256   1.342   1.219   3.802
  505SOL     OW 2257   0.304   0.074   3.911
  505SOL    HW1 2258   0.388   0.120   3.908
  505SOL    HW2 2259   0.320   4.499   3.968
  506SOL     OW 2260   0.953   0.241   4.194
  506SOL    HW1 2261   0.901   0.294   4.134
  506SOL    HW2 2262   1.041   0.276   4.187
  507SOL     OW 2263   1.080   0.681   5.184
  507SOL    HW1 2264   1.009   0.616   5.185
  507SOL    HW2 2265   1.160   0.628   5.173
  508SOL     OW 2266   1.217   1.572   4.519
  508SOL    HW1 2267   1.237   1.637   4.451
  508SOL    HW2 2268   1.296   1.569   4.573
  509SOL     OW 2269   0.466   1.149   4.460
  509SOL    HW1 2270   0.395   1.130   4.522
  509SOL    HW2 2271   0.428   1.133   4.374
  510SOL     OW 2272   1.268   1.793   4.331
  510SOL    HW1 2273   1.316   1.854   4.275
  510SOL    HW2 2274   1.205   1.849   4.378
  511SOL     OW 2275   1.029   0.548   3.741
  511SOL    HW1 2276   0.981   0.629   3.725
  511SOL    HW2 2277   1.088   0.568   3.813
  512SOL     OW 2278   0.094   0.518   5.137
  512SOL    HW1 2279   0.151   0.528   5.061
  512SOL    HW2 2280   0.059   0.606   5.151
  513SOL     OW 2281   0.562   0.244   4.891
  513SOL    HW1 2282   0.592   0.161   4.925
  513SOL    HW2 2283   0.468   0.245   4.909
  514SOL     OW 2284   0.865   0.503   4.351
  514SOL    HW1 2285   0.820   0.544   4.277
  514SOL    HW2 2286   0.835   0.413   4.351
  515SOL     OW 2287   0.963   0.025   4.507
  515SOL    HW1 2288   0.915   0.024   4.424
  515SOL    HW2 2289   0.977   4.433   4.528
  516SOL     OW 2290   1.437   1.164   4.582
  516SOL    HW1 2291   1.369   1.097   4.580
  516SOL    HW2 2292   1.464   1.174   4.491
  517SOL     OW 2293   1.466   0.605   4.700
  517SOL    HW1 2294   1.413   0.525   4.702
  517SOL    HW2 2295   1.524   0.597   4.776
  518SOL     OW 2296   1.845   0.817   4.107
  518SOL    HW1 2297   1.902   0.766   4.164
  518SOL    HW2 2298   1.817   0.755   4.039
  519SOL     OW 2299   0.492   1.417   3.884
  519SOL    HW1 2300   0.415   1.388   3.933
  519SOL    HW2 2301   0.474   1.390   3.793
  520SOL     OW 2302   1.671   1.264   4.371
  520SOL    HW1 2303   1.765   1.266   4.384
  520SOL    HW2 2304   1.642   1.353   4.391
  521SOL     OW 2305   1.394   0.570   3.794
  521SOL    HW1 2306   1.333   0.554   3.865
  521SOL    HW2 2307   1.480   0.552   3.831
  522SOL     OW 2308   0.522   0.264   4.045
  522SOL    HW1 2309   0.570   0.214   3.979
  522SOL    HW2 2310   0.506   0.349   4.004
  523SOL     OW 2311   1.752   1.230   5.287
  523SOL    HW1 2312   1.840   1.201   5.263
  523SOL    HW2 2313   1.766   1.304   5.346
  524SOL     OW 2314   1.058   1.356   5.061
  524SOL    HW1 2315   0.983   1.323   5.110
  524SOL    HW2 2316   1.134   1.313   5.100
  525SOL     OW 2317   1.600   1.619   5.372
  525SOL    HW1 2318   1.620   1.650   5.283
  525SOL    HW2 2319   1.676   1.566   5.396
  526SOL     OW 2320   1.131   1.208   4.830
  526SOL    HW1 2321   1.066   1.239   4.893
  526SOL    HW2 2322   1.096   1.233   4.745
  527SOL     OW 2323   1.628   1.099   4.804
  527SOL    HW1 2324   1.625   1.163   4.876
  527SOL    HW2 2325   1.550   1.117   4.753
  528SOL     OW 2326   0.902   0.133   5.112
  528SOL    HW1 2327   0.924   0.088   5.030
  528SOL    HW2 2328   0.986   0.148   5.155
  529SOL     OW 2329   0.984   1.115   5.446
  529SOL    HW1 2330   0.892   1.131   5.468
  529SOL    HW2 2331   0.983   1.037   5.391
  530SOL     OW 2332   0.708   1.061   4.096
  530SOL    HW1 2333   0.696   1.045   4.190
  530SOL    HW2 2334   0.784   1.007   4.073
  531SOL     OW 2335   0.429   0.825   4.965
  531SOL    HW1 2336   0.497   0.835   5.032
  531SOL    HW2 2337   0.372   0.757   4.998
  532SOL     OW 2338   1.269   0.375   4.997
  532SOL    HW1 2339   1.301   0.454   5.042
  532SOL    HW2 2340   1.180   0.398   4.970
  533SOL     OW 2341   0.062   1.576   5.068
  533SOL    HW1 2342   0.035   1.665   5.042
  533SOL    HW2 2343   0.157   1.581   5.072
  534SOL     OW 2344   0.347   1.108   4.217
  534SOL    HW1 2345   0.357   1.182   4.157
  534SOL    HW2 2346   0.348   1.031   4.161
  535SOL     OW 2347   0.564   0.526   4.577
  535SOL    HW1 2348   0.575   0.587   4.504
  535SOL    HW2 2349   0.624   0.558   4.645
  536SOL     OW 2350   1.248   1.348   4.113
  536SOL    HW1 2351   1.304   1.420   4.144
  536SOL    HW2 2352   1.161   1.370   4.147
  537SOL     OW 2353   1.278   1.455   4.873
  537SOL    HW1 2354   1.330   1.448   4.953
  537SOL    HW2 2355   1.220   1.379   4.876
  538SOL     OW 2356   1.582   0.623   4.201
  538SOL    HW1 2357   1.536   0.675   4.267
  538SOL    HW2 2358   1.628   0.688   4.147
  539SOL     OW 2359   0.347   1.532   5.039
  539SOL    HW1 2360   0.333   1.484   4.957
  539SOL    HW2 2361   0.442   1.541   5.045
  540SOL     OW 2362   0.486   0.762   5.394
  540SOL    HW1 2363   0.510   0.799   5.309
  540SOL    HW2 2364   0.522   0.674   5.393
  541SOL     OW 2365   1.600   0.778   5.406
  541SOL    HW1 2366   1.514   0.819   5.398
  541SOL    HW2 2367   1.652   0.819   5.338
  542SOL     OW 2368   1.005   0.086   5.444
  542SOL    HW1 2369   1.035   0.168   5.406
  542SOL    HW2 2370   1.030   0.019   5.380
  543SOL     OW 2371   0.495   0.044   5.475
  543SOL    HW1 2372   0.480   4.497   5.393
  543SOL    HW2 2373   0.429   0.113   5.476
  544SOL     OW 2374   0.589   0.874   4.748
  544SOL    HW1 2375   0.618   0.965   4.750
  544SOL    HW2 2376   0.533   0.865   4.825
  545SOL     OW 2377   1.358   0.858   4.756
  545SOL    HW1 2378   1.276   0.850   4.707
  545SOL    HW2 2379   1.399   0.772   4.749
  546SOL     OW 2380   1.204   0.535   3.987
  546SOL    HW1 2381   1.210   0.455   4.039
  546SOL    HW2 2382   1.161   0.598   4.045
  547SOL     OW 2383   0.285   0.218   4.959
  547SOL    HW1 2384   0.245   0.234   5.044
  547SOL    HW2 2385   0.325   0.131   4.967
  548SOL     OW 2386   0.042   1.313   5.009
  548SOL    HW1 2387   0.077   1.265   5.085
  548SOL    HW2 2388   0.046   1.405   5.035
  549SOL     OW 2389   0.725   0.631   4.783
  549SOL    HW1 2390   0.798   0.611   4.725
  549SOL    HW2 2391   0.698   0.720   4.757
  550SOL     OW 2392   1.732   0.961   5.575
  550SOL    HW1 2393   1.686   0.899   5.518
  550SOL    HW2 2394   1.674   0.971   5.651
  551SOL     OW 2395   0.320   0.074   4.355
  551SOL    HW1 2396   0.302   0.163   4.387
  551SOL    HW2 2397   0.307   0.018   4.432
  552SOL     OW 2398   1.614   0.377   4.087
  552SOL    HW1 2399   1.643   0.314   4.153
  552SOL    HW2 2400   1.591   0.455   4.138
  553SOL     OW 2401   1.028   0.762   4.685
  553SOL    HW1 2402   1.026   0.777   4.780
  553SOL    HW2 2403   1.000   0.671   4.675
  554SOL     OW 2404   0.984   1.567   5.440
  554SOL    HW1 2405   0.968   1.611   5.356
  554SOL    HW2 2406   1.024   1.484   5.416
  555SOL     OW 2407   0.347   0.933   5.542
  555SOL    HW1 2408   0.419   0.963   5.598
  555SOL    HW2 2409   0.386   0.867   5.486
  556SOL     OW 2410   1.531   0.265   3.852
  556SOL    HW1 2411   1.459   0.209   3.881
  556SOL    HW2 2412   1.560   0.310   3.931
  557SOL     OW 2413   1.292   0.826   3.755
  557SOL    HW1 2414   1.334   0.740   3.757
  557SOL    HW2 2415   1.323   0.866   3.674
  558SOL     OW 2416   1.066   1.334   4.578
  558SOL    HW1 2417   1.068   1.262   4.516
  558SOL    HW2 2418   1.124   1.400   4.541
  559SOL     OW 2419   0.318   0.812   4.672
  559SOL    HW1 2420   0.412   0.829   4.668
  559SOL    HW2 2421   0.311   0.722   4.702
  560SOL     OW 2422   0.335   0.529   4.714
  560SOL    HW1 2423   0.290   0.447   4.695
  560SOL    HW2 2424   0.413   0.528   4.658
  561SOL     OW 2425   1.135   0.374   5.419
  561SOL    HW1 2426   1.086   0.438   5.471
  561SOL    HW2 2427   1.221   0.415   5.406
  562SOL     OW 2428   1.157   0.212   5.197
  562SOL    HW1 2429   1.151   0.277   5.268
  562SOL    HW2 2430   1.197   0.261   5.125
  563SOL     OW 2431   4.491   1.322   3.928
  563SOL    HW1 2432   4.399   1.338   3.911
  563SOL    HW2 2433   4.496   1.229   3.950
  564SOL     OW 2434   0.097   1.777   4.665
  564SOL    HW1 2435   0.058   1.723   4.596
  564SOL    HW2 2436   0.185   1.798   4.632
  565SOL     OW 2437   0.497   1.574   4.631
  565SOL    HW1 2438   0.565   1.636   4.655
  565SOL    HW2 2439   0.541   1.511   4.574
  566SOL     OW 2440   0.985   0.795   4.952
  566SOL    HW1 2441   1.039   0.770   5.027
  566SOL    HW2 2442   0.900   0.755   4.970
  567SOL     OW 2443   0.040   0.568   4.836
  567SOL    HW1 2444   0.112   0.524   4.793
  567SOL    HW2 2445   0.015   0.510   4.908
  568SOL     OW 2446   0.180   0.523   5.436
  568SOL    HW1 2447   0.266   0.505   5.399
  568SOL    HW2 2448   0.151   0.603   5.392
  569SOL     OW 2449   1.377   0.939   5.383
  569SOL    HW1 2450   1.396   1.033   5.381
  569SOL    HW2 2451   1.375   0.913   5.291
  570SOL     OW 2452   0.811   0.574   4.079
  570SOL    HW1 2453   0.815   0.503   4.015
  570SOL    HW2 2454   0.739   0.629   4.050
  571SOL     OW 2455   1.641   0.602   4.911
  571SOL    HW1 2456   1.631   0.542   4.985
  571SOL    HW2 2457   1.728   0.582   4.877
  572SOL     OW 2458   0.273   1.562   5.465
  572SOL    HW1 2459   0.216   1.614   5.522
  572SOL    HW2 2460   0.253   1.471   5.488
  573SOL     OW 2461   0.687   0.464   4.991
  573SOL    HW1 2462   0.648   0.384   4.956
  573SOL    HW2 2463   0.693   0.522   4.916
  574SOL     OW 2464   0.932   1.678   5.189
  574SOL    HW1 2465   0.902   1.645   5.105
  574SOL    HW2 2466   0.924   1.773   5.181
  575SOL     OW 2467   0.473   0.491   3.908
  575SOL    HW1 2468   0.532   0.562   3.930
  575SOL    HW2 2469   0.389   0.534   3.892
  576SOL     OW 2470   0.162   1.140   5.186
  576SOL    HW1 2471   0.145   1.095   5.268
  576SOL    HW2 2472   0.169   1.071   5.121
  577SOL     OW 2473   1.327   1.049   4.947
  577SOL    HW1 2474   1.350   0.984   4.881
  577SOL    HW2 2475   1.257   1.100   4.908
  578SOL     OW 2476   1.311   0.856   4.030
  578SOL    HW1 2477   1.235   0.827   4.081
  578SOL    HW2 2478   1.286   0.843   3.939
  579SOL     OW 2479   1.242   1.731   4.850
  579SOL    HW1 2480   1.325   1.751   4.807
  579SOL    HW2 2481   1.242   1.636   4.858
  580SOL     OW 2482   0.067   1.185   4.773
  580SOL    HW1 2483   0.067   1.218   4.863
  580SOL    HW2 2484   0.020   1.252   4.724
  581SOL     OW 2485   0.679   1.666   5.453
  581SOL    HW1 2486   0.622   1.743   5.448
  581SOL    HW2 2487   0.741   1.677   5.381
  582SOL     OW 2488   1.719   0.130   4.218
  582SOL    HW1 2489   1.790   0.138   4.155
  582SOL    HW2 2490   1.745   0.057   4.274
  583SOL     OW 2491   1.391   1.567   4.210
  583SOL    HW1 2492   1.450   1.599   4.142
  583SOL    HW2 2493   1.342   1.645   4.236
  584SOL     OW 2494   0.119   1.808   5.572
  584SOL    HW1 2495   0.079   1.735   5.619
  584SOL    HW2 2496   0.183   1.844   5.634
  585SOL     OW 2497   1.279   0.928   4.397
  585SOL    HW1 2498   1.351   0.865   4.402
  585SOL    HW2 2499   1.312   1.000   4.344
  586SOL     OW 2500   0.815   1.274   5.154
  586SOL    HW1 2501   0.787   1.312   5.237
  586SOL    HW2 2502   0.744   1.294   5.093
  587SOL     OW 2503   0.672   1.619   3.879
  587SOL    HW1 2504   0.682   1.631   3.785
  587SOL    HW2 2505   0.618   1.541   3.888
  588SOL     OW 2506   1.839   0.154   4.690
  588SOL    HW1 2507   1.868   0.077   4.642
  588SOL    HW2 2508   1.752   0.173   4.654
  589SOL     OW 2509   0.264   0.325   4.447
  589SOL    HW1 2510   0.181   0.359   4.413
  589SOL    HW2 2511   0.249   0.316   4.541
  590SOL     OW 2512   1.207   1.606   3.755
  590SOL    HW1 2513   1.198   1.515   3.782
  590SOL    HW2 2514   1.142   1.618   3.686
  591SOL     OW 2515   0.825   1.007   5.097
  591SOL    HW1 2516   0.867   1.002   5.010
  591SOL    HW2 2517   0.824   1.100   5.118
  592SOL     OW 2518   0.915   0.910   4.014
  592SOL    HW1 2519   0.977   0.942   3.948
  592SOL    HW2 2520   0.962   0.840   4.059
  593SOL     OW 2521   1.493   1.625   3.766
  593SOL    HW1 2522   1.398   1.619   3.752
  593SOL    HW2 2523   1.529   1.631   3.678
  594SOL     OW 2524   0.373   1.307   5.215
  594SOL    HW1 2525   0.355   1.386   5.163
  594SOL    HW2 2526   0.298   1.250   5.198
  595SOL     OW 2527   1.631   1.288   5.015
  595SOL    HW1 2528   1.674   1.267   5.098
  595SOL    HW2 2529   1.565   1.353   5.038
  596SOL     OW 2530   1.051   1.107   4.430
  596SOL    HW1 2531   0.980   1.056   4.469
  596SOL    HW2 2532   1.113   1.042   4.398
  597SOL     OW 2533   1.005   0.244   4.728
  597SOL    HW1 2534   1.011   0.221   4.636
  597SOL    HW2 2535   0.998   0.159   4.774
  598SOL     OW 2536   0.604   1.489   4.207
  598SOL    HW1 2537   0.646   1.439   4.136
  598SOL    HW2 2538   0.530   1.533   4.165
  599SOL     OW 2539   1.721   0.394   5.101
  599SOL    HW1 2540   1.794   0.456   5.100
  599SOL    HW2 2541   1.750   0.322   5.045
  600SOL     OW 2542   0.252   1.344   4.000
  600SOL    HW1 2543   0.157   1.343   3.986
  600SOL    HW2 2544   0.263   1.376   4.090
  601SOL     OW 2545   0.115   1.007   5.419
  601SOL    HW1 2546   0.052   1.050   5.477
  601SOL    HW2 2547   0.194   0.997   5.473
  602SOL     OW 2548   0.658   0.209   5.221
  602SOL    HW1 2549   0.738   0.182   5.175
  602SOL    HW2 2550   0.687   0.225   5.311
  603SOL     OW 2551   0.071   0.320   3.750
  603SOL    HW1 2552   4.477   0.328   3.764
  603SOL    HW2 2553   0.099   0.407   3.719
  604SOL     OW 2554   1.430   0.859   5.125
  604SOL    HW1 2555   1.381   0.918   5.068
  604SOL    HW2 2556   1.519   0.860   5.090
  605SOL     OW 2557   0.085   0.188   4.027
  605SOL    HW1 2558   0.077   0.261   3.965
  605SOL    HW2 2559   0.164   0.142   3.999
  606SOL     OW 2560   1.179   1.340   3.841
  606SOL    HW1 2561   1.088   1.310   3.843
  606SOL    HW2 2562   1.207   1.340   3.932
  607SOL     OW 2563   0.623   0.830   5.153
  607SOL    HW1 2564   0.678   0.907   5.140
  607SOL    HW2 2565   0.685   0.758   5.162
  608SOL     OW 2566   0.714   0.561   5.429
  608SOL    HW1 2567   0.751   0.627   5.488
  608SOL    HW2 2568   0.750   0.478   5.461
  609SOL     OW 2569   1.468   1.202   5.357
  609SOL    HW1 2570   1.458   1.214   5.451
  609SOL    HW2 2571   1.563   1.207   5.343
  610SOL     OW 2572   0.380   1.743   5.288
  610SOL    HW1 2573   0.295   1.784   5.270
  610SOL    HW2 2574   0.359   1.663   5.336
  611SOL     OW 2575   1.669   0.881   4.979
  611SOL    HW1 2576   1.663   0.795   4.937
  611SOL    HW2 2577   1.660   0.944   4.908
  612SOL     OW 2578   1.218   0.330   4.172
  612SOL    HW1 2579   1.284   0.260   4.161
  612SOL    HW2 2580   1.246   0.377   4.250
  613SOL     OW 2581   0.587   0.738   4.394
  613SOL    HW1 2582   0.628   0.823   4.378
  613SOL    HW2 2583   0.519   0.731   4.327
  614SOL     OW 2584   1.762   0.365   5.368
  614SOL    HW1 2585   1.747   0.378   5.274
  614SOL    HW2 2586   1.684   0.319   5.399
  615SOL     OW 2587   1.744   0.931   5.237
  615SOL    HW1 2588   1.749   1.026   5.250
  615SOL    HW2 2589   1.730   0.921   5.143
  616SOL     OW 2590   0.863   1.367   3.758
  616SOL    HW1 2591   0.824   1.395   3.840
  616SOL    HW2 2592   0.881   1.449   3.711
  617SOL     OW 2593   0.661   1.793   4.671
  617SOL    HW1 2594   0.639   1.882   4.646
  617SOL    HW2 2595   0.756   1.787   4.660
  618SOL     OW 2596   0.867   0.967   4.579
  618SOL    HW1 2597   0.917   0.895   4.617
  618SOL    HW2 2598   0.833   1.015   4.654
  619SOL     OW 2599   1.080   0.988   3.813
  619SOL    HW1 2600   1.057   1.039   3.735
  619SOL    HW2 2601   1.154   0.935   3.786
  620SOL     OW 2602   1.844   1.565   4.563
  620SOL    HW1 2603   1.771   1.530   4.512
  620SOL    HW2 2604   1.842   1.516   4.645
  621SOL     OW 2605   0.230   1.305   5.581
  621SOL    HW1 2606   0.156   1.249   5.559
  621SOL    HW2 2607   0.224   1.316   5.676
  622SOL     OW 2608   0.106   1.237   4.392
  622SOL    HW1 2609   0.115   1.189   4.474
  622SOL    HW2 2610   0.165   1.192   4.331
  623SOL     OW 2611   0.682   1.403   5.352
  623SOL    HW1 2612   0.602   1.358   5.380
  623SOL    HW2 2613   0.675   1.490   5.389
  624SOL     OW 2614   1.808   0.181   4.963
  624SOL    HW1 2615   1.807   0.088   4.983
  624SOL    HW2 2616   1.824   0.185   4.868
  625SOL     OW 2617   0.441   0.431   4.255
  625SOL    HW1 2618   0.458   0.361   4.192
  625SOL    HW2 2619   0.381   0.392   4.319
  626SOL     OW 2620   1.704   1.455   4.803
  626SOL    HW1 2621   1.616   1.457   4.765
  626SOL    HW2 2622   1.693   1.406   4.885
  627SOL     OW 2623   0.313   0.507   4.978
  627SOL    HW1 2624   0.383   0.455   5.017
  627SOL    HW2 2625   0.337   0.515   4.886
  628SOL     OW 2626   0.827   1.578   4.402
  628SOL    HW1 2627   0.816   1.630   4.323
  628SOL    HW2 2628   0.750   1.521   4.404
  629SOL     OW 2629   1.432   0.216   4.842
  629SOL    HW1 2630   1.468   0.145   4.895
  629SOL    HW2 2631   1.381   0.268   4.903
  630SOL     OW 2632   0.996   0.008   4.875
  630SOL    HW1 2633   0.953   4.423   4.864
  630SOL    HW2 2634   1.089   4.487   4.885
  631SOL     OW 2635   0.772   1.332   4.038
  631SOL    HW1 2636   0.740   1.242   4.044
  631SOL    HW2 2637   0.854   1.332   4.086
  632SOL     OW 2638   0.621   1.557   5.009
  632SOL    HW1 2639   0.623   1.638   5.060
  632SOL    HW2 2640   0.708   1.550   4.970
  633SOL     OW 2641   1.340   0.053   3.877
  633SOL    HW1 2642   1.380   4.477   3.833
  633SOL    HW2 2643   1.265   0.017   3.924
  634SOL     OW 2644   1.314   0.463   4.401
  634SOL    HW1 2645   1.254   0.538   4.402
  634SOL    HW2 2646   1.303   0.422   4.487
  635SOL     OW 2647   1.585   0.200   4.592
  635SOL    HW1 2648   1.526   0.215   4.665
  635SOL    HW2 2649   1.588   0.284   4.545
  636SOL     OW 2650   0.041   1.052   4.012
  636SOL    HW1 2651   0.135   1.036   4.002
  636SOL    HW2 2652   0.020   1.019   4.099
  637SOL     OW 2653   0.884   1.652   4.067
  637SOL    HW1 2654   0.812   1.634   4.007
  637SOL    HW2 2655   0.854   1.727   4.118
  638SOL     OW 2656   0.247   0.627   5.707
  638SOL    HW1 2657   0.172   0.607   5.763
  638SOL    HW2 2658   0.214   0.613   5.618
  639SOL     OW 2659   0.194   0.293   6.575
  639SOL    HW1 2660   0.229   0.268   6.661
  639SOL    HW2 2661   0.132   0.224   6.553
  640SOL     OW 2662   0.004   0.381   6.226
  640SOL    HW1 2663   4.426   0.418   6.267
  640SOL    HW2 2664   4.471   0.309   6.172
  641SOL     OW 2665   0.568   1.286   6.761
  641SOL    HW1 2666   0.480   1.291   6.722
  641SOL    HW2 2667   0.583   1.374   6.796
  642SOL     OW 2668   1.567   1.514   6.290
  642SOL    HW1 2669   1.520   1.497   6.371
  642SOL    HW2 2670   1.498   1.525   6.224
  643SOL     OW 2671   1.134   0.699   6.285
  643SOL    HW1 2672   1.181   0.782   6.274
  643SOL    HW2 2673   1.084   0.709   6.366
  644SOL     OW 2674   1.766   0.607   5.814
  644SOL    HW1 2675   1.746   0.597   5.721
  644SOL    HW2 2676   1.734   0.527   5.854
  645SOL     OW 2677   0.756   1.143   6.626
  645SOL    HW1 2678   0.687   1.177   6.683
  645SOL    HW2 2679   0.791   1.220   6.582
  646SOL     OW 2680   0.865   0.774   7.407
  646SOL    HW1 2681   0.851   0.845   7.470
  646SOL    HW2 2682   0.889   0.819   7.325
  647SOL     OW 2683   0.685   1.004   6.233
  647SOL    HW1 2684   0.751   0.991   6.302
  647SOL    HW2 2685   0.616   1.055   6.276
  648SOL     OW 2686   0.710   1.150   7.398
  648SOL    HW1 2687   0.757   1.229   7.424
  648SOL    HW2 2688   0.628   1.182   7.362
  649SOL     OW 2689   0.335   1.422   6.656
  649SOL    HW1 2690   0.254   1.402   6.609
  649SOL    HW2 2691   0.385   1.476   6.594
  650SOL     OW 2692   1.460   1.498   6.940
  650SOL    HW1 2693   1.510   1.579   6.949
  650SOL    HW2 2694   1.400   1.498   7.014
  651SOL     OW 2695   0.439   0.394   7.077
  651SOL    HW1 2696   0.528   0.359   7.078
  651SOL    HW2 2697   0.383   0.319   7.098
  652SOL     OW 2698   1.611   0.446   6.324
  652SOL    HW1 2699   1.531   0.468   6.277
  652SOL    HW2 2700   1.630   0.524   6.377
  653SOL     OW 2701   0.245   1.692   6.064
  653SOL    HW1 2702   0.230   1.776   6.105
  653SOL    HW2 2703   0.312   1.709   5.997
  654SOL     OW 2704   1.136   1.341   7.278
  654SOL    HW1 2705   1.176   1.337   7.365
  654SOL    HW2 2706   1.084   1.262   7.272
  655SOL     OW 2707   0.249   1.427   6.114
  655SOL    HW1 2708   0.239   1.522   6.117
  655SOL    HW2 2709   0.185   1.394   6.177
  656SOL     OW 2710   0.247   1.082   6.470
  656SOL    HW1 2711   0.264   0.992   6.499
  656SOL    HW2 2712   0.188   1.118   6.536
  657SOL     OW 2713   0.614   1.791   7.018
  657SOL    HW1 2714   0.531   1.773   7.061
  657SOL    HW2 2715   0.634   1.881   7.041
  658SOL     OW 2716   0.580   0.986   5.724
  658SOL    HW1 2717   0.627   1.029   5.653
  658SOL    HW2 2718   0.625   1.015   5.803
  659SOL     OW 2719   1.582   0.116   7.057
  659SOL    HW1 2720   1.603   0.185   6.994
  659SOL    HW2 2721   1.572   0.161   7.141
  660SOL     OW 2722   0.136   0.643   6.160
  660SOL    HW1 2723   0.084   0.565   6.177
  660SOL    HW2 2724   0.107   0.706   6.227
  661SOL     OW 2725   0.033   1.602   5.726
  661SOL    HW1 2726   0.021   1.507   5.723
  661SOL    HW2 2727   0.019   1.625   5.817
  662SOL     OW 2728   1.690   0.920   6.226
  662SOL    HW1 2729   1.774   0.878   6.206
  662SOL    HW2 2730   1.668   0.969   6.147
  663SOL     OW 2731   1.646   1.109   6.015
  663SOL    HW1 2732   1.733   1.113   5.975
  663SOL    HW2 2733   1.651   1.169   6.089
  664SOL     OW 2734   0.104   0.764   7.168
  664SOL    HW1 2735   0.196   0.760   7.140
  664SOL    HW2 2736   0.089   0.857   7.187
  665SOL     OW 2737   0.614   1.385   6.322
  665SOL    HW1 2738   0.567   1.302   6.332
  665SOL    HW2 2739   0.597   1.411   6.231
  666SOL     OW 2740   1.289   1.238   7.010
  666SOL    HW1 2741   1.322   1.171   6.949
  666SOL    HW2 2742   1.346   1.232   7.086
  667SOL     OW 2743   0.820   0.013   6.137
  667SOL    HW1 2744   0.854   0.099   6.112
  667SOL    HW2 2745   0.725   0.021   6.126
  668SOL     OW 2746   0.180   0.941   6.865
  668SOL    HW1 2747   0.271   0.923   6.845
  668SOL    HW2 2748   0.133   0.925   6.783
  669SOL     OW 2749   1.532   0.993   5.785
  669SOL    HW1 2750   1.461   0.936   5.816
  669SOL    HW2 2751   1.572   1.027   5.864
  670SOL     OW 2752   1.187   1.806   7.208
  670SOL    HW1 2753   1.197   1.864   7.132
  670SOL    HW2 2754   1.201   1.718   7.173
  671SOL     OW 2755   0.318   0.260   7.355
  671SOL    HW1 2756   0.386   0.311   7.399
  671SOL    HW2 2757   0.242   0.268   7.413
  672SOL     OW 2758   1.464   1.421   6.536
  672SOL    HW1 2759   1.397   1.434   6.603
  672SOL    HW2 2760   1.454   1.330   6.509
  673SOL     OW 2761   0.596   0.723   5.852
  673SOL    HW1 2762   0.598   0.804   5.801
  673SOL    HW2 2763   0.530   0.739   5.919
  674SOL     OW 2764   1.291   0.363   6.519
  674SOL    HW1 2765   1.202   0.332   6.503
  674SOL    HW2 2766   1.327   0.299   6.581
  675SOL     OW 2767   1.558   1.644   5.881
  675SOL    HW1 2768   1.643   1.687   5.874
  675SOL    HW2 2769   1.527   1.636   5.791
  676SOL     OW 2770   0.797   0.618   7.040
  676SOL    HW1 2771   0.769   0.593   7.128
  676SOL    HW2 2772   0.754   0.555   6.982
  677SOL     OW 2773   1.388   0.479   7.262
  677SOL    HW1 2774   1.392   0.523   7.347
  677SOL    HW2 2775   1.455   0.411   7.268
  678SOL     OW 2776   0.956   0.888   7.168
  678SOL    HW1 2777   1.010   0.817   7.133
  678SOL    HW2 2778   0.908   0.922   7.092
  679SOL     OW 2779   0.997   0.417   6.822
  679SOL    HW1 2780   0.910   0.427   6.861
  679SOL    HW2 2781   0.983   0.365   6.743
  680SOL     OW 2782   1.050   0.698   6.013
  680SOL    HW1 2783   1.066   0.690   6.107
  680SOL    HW2 2784   0.967   0.651   5.999
  681SOL     OW 2785   0.097   0.826   6.370
  681SOL    HW1 2786   0.184   0.810   6.407
  681SOL    HW2 2787   0.045   0.856   6.444
  682SOL     OW 2788   0.123   1.857   7.163
  682SOL    HW1 2789   0.117   1.833   7.255
  682SOL    HW2 2790   0.046   1.818   7.122
  683SOL     OW 2791   0.853   0.369   5.766
  683SOL    HW1 2792   0.927   0.403   5.716
  683SOL    HW2 2793   0.870   0.274   5.772
  684SOL     OW 2794   1.704   0.574   7.414
  684SOL    HW1 2795   1.669   0.649   7.367
  684SOL    HW2 2796   1.740   0.517   7.346
  685SOL     OW 2797   1.377   1.142   6.127
  685SOL    HW1 2798   1.456   1.130   6.075
  685SOL    HW2 2799   1.324   1.204   6.076
  686SOL     OW 2800   0.542   0.204   6.487
  686SOL    HW1 2801   0.562   0.223   6.578
  686SOL    HW2 2802   0.533   0.289   6.445
  687SOL     OW 2803   1.007   1.445   6.059
  687SOL    HW1 2804   0.968   1.517   6.010
  687SOL    HW2 2805   0.988   1.465   6.150
  688SOL     OW 2806   0.355   1.810   6.444
  688SOL    HW1 2807   0.397   1.724   6.454
  688SOL    HW2 2808   0.426   1.873   6.460
  689SOL     OW 2809   1.798   1.055   6.455
  689SOL    HW1 2810   1.745   1.040   6.378
  689SOL    HW2 2811   1.735   1.061   6.527
  690SOL     OW 2812   1.228   1.539   7.099
  690SOL    HW1 2813   1.214   1.466   7.160
  690SOL    HW2 2814   1.165   1.524   7.028
  691SOL     OW 2815   0.316   0.954   5.839
  691SOL    HW1 2816   0.400   0.977   5.799
  691SOL    HW2 2817   0.300   0.864   5.811
  692SOL     OW 2818   1.479   0.742   6.311
  692SOL    HW1 2819   1.467   0.697   6.395
  692SOL    HW2 2820   1.555   0.798   6.323
  693SOL     OW 2821   0.467   1.262   7.321
  693SOL    HW1 2822   0.440   1.268   7.230
  693SOL    HW2 2823   0.386   1.267   7.371
  694SOL     OW 2824   1.121   1.770   5.825
  694SOL    HW1 2825   1.045   1.729   5.865
  694SOL    HW2 2826   1.144   1.713   5.752
  695SOL     OW 2827   0.163   0.265   7.095
  695SOL    HW1 2828   0.136   0.352   7.068
  695SOL    HW2 2829   0.198   0.278   7.184
  696SOL     OW 2830   1.636   1.383   5.659
  696SOL    HW1 2831   1.586   1.465   5.658
  696SOL    HW2 2832   1.570   1.314   5.652
  697SOL     OW 2833   0.469   1.744   5.900
  697SOL    HW1 2834   0.510   1.797   5.968
  697SOL    HW2 2835   0.542   1.709   5.848
  698SOL     OW 2836   1.420   0.137   6.004
  698SOL    HW1 2837   1.404   0.086   5.924
  698SOL    HW2 2838   1.514   0.131   6.017
  699SOL     OW 2839   0.257   1.789   6.820
  699SOL    HW1 2840   0.305   1.715   6.856
  699SOL    HW2 2841   0.226   1.759   6.735
  700SOL     OW 2842   0.938   1.700   6.484
  700SOL    HW1 2843   1.015   1.647   6.507
  700SOL    HW2 2844   0.894   1.650   6.416
  701SOL     OW 2845   0.394   0.693   6.059
  701SOL    HW1 2846   0.419   0.602   6.071
  701SOL    HW2 2847   0.302   0.697   6.085
  702SOL     OW 2848   1.525   0.233   7.308
  702SOL    HW1 2849   1.525   0.256   7.401
  702SOL    HW2 2850   1.448   0.178   7.297
  703SOL     OW 2851   0.624   0.121   5.704
  703SOL    HW1 2852   0.712   0.086   5.716
  703SOL    HW2 2853   0.594   0.084   5.621
  704SOL     OW 2854   0.768   0.269   7.340
  704SOL    HW1 2855   0.835   0.201   7.349
  704SOL    HW2 2856   0.728   0.275   7.426
  705SOL     OW 2857   0.877   1.522   6.779
  705SOL    HW1 2858   0.861   1.485   6.692
  705SOL    HW2 2859   0.946   1.467   6.816
  706SOL     OW 2860   1.341   0.589   7.015
  706SOL    HW1 2861   1.369   0.560   7.102
  706SOL    HW2 2862   1.376   0.678   7.007
  707SOL     OW 2863   0.815   1.396   6.525
  707SOL    HW1 2864   0.899   1.384   6.481
  707SOL    HW2 2865   0.750   1.396   6.455
  708SOL     OW 2866   0.923   0.518   6.486
  708SOL    HW1 2867   0.906   0.516   6.392
  708SOL    HW2 2868   0.961   0.432   6.505
  709SOL     OW 2869   0.561   0.069   6.094
  709SOL    HW1 2870   0.474   0.055   6.132
  709SOL    HW2 2871   0.549   0.139   6.030
  710SOL     OW 2872   1.431   1.199   5.629
  710SOL    HW1 2873   1.460   1.122   5.678
  710SOL    HW2 2874   1.345   1.220   5.664
  711SOL     OW 2875   0.304   0.074   5.773
  711SOL    HW1 2876   0.388   0.121   5.771
  711SOL    HW2 2877   0.320   4.499   5.830
  712SOL     OW 2878   0.953   0.240   6.055
  712SOL    HW1 2879   0.901   0.295   5.997
  712SOL    HW2 2880   1.041   0.276   6.049
  713SOL     OW 2881   1.080   0.681   7.047
  713SOL    HW1 2882   1.010   0.616   7.047
  713SOL    HW2 2883   1.160   0.629   7.035
  714SOL     OW 2884   1.222   1.570   6.382
  714SOL    HW1 2885   1.244   1.634   6.315
  714SOL    HW2 2886   1.292   1.577   6.446
  715SOL     OW 2887   0.466   1.149   6.322
  715SOL    HW1 2888   0.395   1.130   6.384
  715SOL    HW2 2889   0.428   1.133   6.236
  716SOL     OW 2890   1.268   1.794   6.194
  716SOL    HW1 2891   1.297   1.858   6.129
  716SOL    HW2 2892   1.200   1.839   6.244
  717SOL     OW 2893   1.029   0.548   5.602
  717SOL    HW1 2894   0.981   0.629   5.587
  717SOL    HW2 2895   1.088   0.568   5.676
  718SOL     OW 2896   0.094   0.518   6.999
  718SOL    HW1 2897   0.151   0.527   6.923
  718SOL    HW2 2898   0.059   0.606   7.013
  719SOL     OW 2899   0.562   0.244   6.752
  719SOL    HW1 2900   0.592   0.161   6.788
  719SOL    HW2 2901   0.468   0.245   6.771
  720SOL     OW 2902   0.866   0.503   6.212
  720SOL    HW1 2903   0.820   0.544   6.139
  720SOL    HW2 2904   0.834   0.413   6.213
  721SOL     OW 2905   0.964   0.025   6.369
  721SOL    HW1 2906   0.915   0.024   6.286
  721SOL    HW2 2907   0.977   4.433   6.390
  722SOL     OW 2908   1.437   1.163   6.444
  722SOL    HW1 2909   1.368   1.096   6.441
  722SOL    HW2 2910   1.462   1.176   6.352
  723SOL     OW 2911   1.466   0.604   6.562
  723SOL    HW1 2912   1.413   0.525   6.564
  723SOL    HW2 2913   1.524   0.597   6.637
  724SOL     OW 2914   1.845   0.816   5.969
  724SOL    HW1 2915   1.902   0.765   6.026
  724SOL    HW2 2916   1.817   0.754   5.902
  725SOL     OW 2917   0.492   1.417   5.746
  725SOL    HW1 2918   0.415   1.388   5.795
  725SOL    HW2 2919   0.474   1.390   5.655
  726SOL     OW 2920   1.671   1.267   6.231
  726SOL    HW1 2921   1.766   1.269   6.243
  726SOL    HW2 2922   1.641   1.355   6.253
  727SOL     OW 2923   1.394   0.571   5.656
  727SOL    HW1 2924   1.333   0.555   5.727
  727SOL    HW2 2925   1.480   0.551   5.693
  728SOL     OW 2926   0.522   0.264   5.907
  728SOL    HW1 2927   0.570   0.215   5.841
  728SOL    HW2 2928   0.506   0.349   5.866
  729SOL     OW 2929   1.753   1.238   7.161
  729SOL    HW1 2930   1.841   1.199   7.155
  729SOL    HW2 2931   1.769   1.328   7.188
  730SOL     OW 2932   1.059   1.354   6.921
  730SOL    HW1 2933   0.984   1.323   6.971
  730SOL    HW2 2934   1.135   1.312   6.961
  731SOL     OW 2935   1.609   1.626   7.240
  731SOL    HW1 2936   1.603   1.659   7.151
  731SOL    HW2 2937   1.691   1.577   7.242
  732SOL     OW 2938   1.129   1.204   6.692
  732SOL    HW1 2939   1.069   1.241   6.757
  732SOL    HW2 2940   1.095   1.234   6.608
  733SOL     OW 2941   1.628   1.098   6.664
  733SOL    HW1 2942   1.623   1.159   6.737
  733SOL    HW2 2943   1.549   1.115   6.613
  734SOL     OW 2944   0.902   0.133   6.974
  734SOL    HW1 2945   0.924   0.088   6.892
  734SOL    HW2 2946   0.986   0.148   7.017
  735SOL     OW 2947   0.984   1.115   7.309
  735SOL    HW1 2948   0.892   1.130   7.330
  735SOL    HW2 2949   0.983   1.037   7.253
  736SOL     OW 2950   0.709   1.061   5.958
  736SOL    HW1 2951   0.696   1.045   6.052
  736SOL    HW2 2952   0.784   1.007   5.935
  737SOL     OW 2953   0.429   0.826   6.827
  737SOL    HW1 2954   0.497   0.835   6.893
  737SOL    HW2 2955   0.372   0.757   6.861
  738SOL     OW 2956   1.269   0.376   6.859
  738SOL    HW1 2957   1.301   0.454   6.904
  738SOL    HW2 2958   1.180   0.398   6.832
  739SOL     OW 2959   0.062   1.576   6.929
  739SOL    HW1 2960   0.035   1.665   6.905
  739SOL    HW2 2961   0.158   1.581   6.934
  740SOL     OW 2962   0.347   1.108   6.079
  740SOL    HW1 2963   0.356   1.182   6.018
  740SOL    HW2 2964   0.348   1.031   6.023
  741SOL     OW 2965   0.564   0.526   6.439
  741SOL    HW1 2966   0.575   0.587   6.366
  741SOL    HW2 2967   0.623   0.558   6.507
  742SOL     OW 2968   1.248   1.348   5.974
  742SOL    HW1 2969   1.304   1.418   6.008
  742SOL    HW2 2970   1.161   1.369   6.008
  743SOL     OW 2971   1.280   1.457   6.732
  743SOL    HW1 2972   1.335   1.459   6.810
  743SOL    HW2 2973   1.225   1.380   6.744
  744SOL     OW 2974   1.582   0.624   6.063
  744SOL    HW1 2975   1.536   0.675   6.129
  744SOL    HW2 2976   1.627   0.689   6.010
  745SOL     OW 2977   0.347   1.531   6.901
  745SOL    HW1 2978   0.333   1.484   6.819
  745SOL    HW2 2979   0.442   1.541   6.908
  746SOL     OW 2980   0.485   0.761   7.256
  746SOL    HW1 2981   0.510   0.799   7.171
  746SOL    HW2 2982   0.524   0.674   7.255
  747SOL     OW 2983   1.600   0.778   7.267
  747SOL    HW1 2984   1.514   0.819   7.260
  747SOL    HW2 2985   1.653   0.820   7.199
  748SOL     OW 2986   1.005   0.086   7.306
  748SOL    HW1 2987   1.035   0.169   7.269
  748SOL    HW2 2988   1.030   0.020   7.242
  749SOL     OW 2989   0.495   0.044   7.337
  749SOL    HW1 2990   0.480   4.497   7.255
  749SOL    HW2 2991   0.429   0.113   7.338
  750SOL     OW 2992   0.589   0.874   6.610
  750SOL    HW1 2993   0.619   0.965   6.612
  750SOL    HW2 2994   0.533   0.865   6.687
  751SOL     OW 2995   1.358   0.858   6.616
  751SOL    HW1 2996   1.275   0.850   6.570
  751SOL    HW2 2997   1.398   0.772   6.610
  752SOL     OW 2998   1.204   0.535   5.849
  752SOL    HW1 2999   1.210   0.455   5.901
  752SOL    HW2 3000   1.161   0.598   5.908
  753SOL     OW 3001   0.285   0.218   6.821
  753SOL    HW1 3002   0.246   0.234   6.906
  753SOL    HW2 3003   0.325   0.131   6.829
  754SOL     OW 3004   0.041   1.313   6.871
  754SOL    HW1 3005   0.076   1.265   6.947
  754SOL    HW2 3006   0.046   1.405   6.897
  755SOL     OW 3007   0.724   0.631   6.644
  755SOL    HW1 3008   0.798   0.611   6.587
  755SOL    HW2 3009   0.698   0.720   6.619
  756SOL     OW 3010   1.734   0.959   7.438
  756SOL    HW1 3011   1.687   0.900   7.379
  756SOL    HW2 3012   1.675   0.972   7.512
  757SOL     OW 3013   0.320   0.074   6.217
  757SOL    HW1 3014   0.302   0.163   6.249
  757SOL    HW2 3015   0.307   0.018   6.294
  758SOL     OW 3016   1.614   0.377   5.949
  758SOL    HW1 3017   1.643   0.314   6.015
  758SOL    HW2 3018   1.591   0.455   6.000
  759SOL     OW 3019   1.029   0.761   6.547
  759SOL    HW1 3020   1.026   0.778   6.641
  759SOL    HW2 3021   1.000   0.671   6.537
  760SOL     OW 3022   0.983   1.567   7.302
  760SOL    HW1 3023   0.967   1.610   7.218
  760SOL    HW2 3024   1.025   1.484   7.279
  761SOL     OW 3025   1.855   1.504   7.193
  761SOL    HW1 3026   1.871   1.530   7.102
  761SOL    HW2 3027   1.936   1.525   7.238
  762SOL     OW 3028   0.347   0.933   7.404
  762SOL    HW1 3029   0.419   0.963   7.459
  762SOL    HW2 3030   0.386   0.867   7.348
  763SOL     OW 3031   1.531   0.265   5.714
  763SOL    HW1 3032   1.459   0.209   5.743
  763SOL    HW2 3033   1.560   0.310   5.793
  764SOL     OW 3034   1.292   0.826   5.617
  764SOL    HW1 3035   1.334   0.740   5.620
  764SOL    HW2 3036   1.323   0.865   5.535
  765SOL     OW 3037   1.064   1.335   6.439
  765SOL    HW1 3038   1.068   1.262   6.377
  765SOL    HW2 3039   1.126   1.399   6.405
  766SOL     OW 3040   0.318   0.812   6.534
  766SOL    HW1 3041   0.412   0.830   6.531
  766SOL    HW2 3042   0.311   0.722   6.563
  767SOL     OW 3043   0.335   0.529   6.576
  767SOL    HW1 3044   0.290   0.447   6.557
  767SOL    HW2 3045   0.413   0.528   6.520
  768SOL     OW 3046   1.135   0.374   7.282
  768SOL    HW1 3047   1.086   0.438   7.332
  768SOL    HW2 3048   1.221   0.414   7.268
  769SOL     OW 3049   1.157   0.213   7.059
  769SOL    HW1 3050   1.151   0.277   7.130
  769SOL    HW2 3051   1.196   0.261   6.987
  770SOL     OW 3052   4.492   1.322   5.790
  770SOL    HW1 3053   4.399   1.338   5.772
  770SOL    HW2 3054   4.496   1.229   5.812
  771SOL     OW 3055   0.097   1.777   6.526
  771SOL    HW1 3056   0.058   1.723   6.457
  771SOL    HW2 3057   0.185   1.798   6.494
  772SOL     OW 3058   0.497   1.574   6.493
  772SOL    HW1 3059   0.565   1.636   6.517
  772SOL    HW2 3060   0.541   1.510   6.436
  773SOL     OW 3061   0.985   0.794   6.813
  773SOL    HW1 3062   1.040   0.770   6.888
  773SOL    HW2 3063   0.899   0.755   6.833
  774SOL     OW 3064   0.039   0.568   6.698
  774SOL    HW1 3065   0.113   0.524   6.655
  774SOL    HW2 3066   0.016   0.510   6.770
  775SOL     OW 3067   0.180   0.523   7.298
  775SOL    HW1 3068   0.266   0.506   7.262
  775SOL    HW2 3069   0.151   0.603   7.254
  776SOL     OW 3070   1.377   0.939   7.245
  776SOL    HW1 3071   1.398   1.033   7.243
  776SOL    HW2 3072   1.374   0.914   7.152
  777SOL     OW 3073   0.811   0.574   5.941
  777SOL    HW1 3074   0.815   0.503   5.877
  777SOL    HW2 3075   0.738   0.629   5.912
  778SOL     OW 3076   1.641   0.601   6.773
  778SOL    HW1 3077   1.630   0.542   6.847
  778SOL    HW2 3078   1.728   0.581   6.738
  779SOL     OW 3079   0.272   1.562   7.327
  779SOL    HW1 3080   0.216   1.614   7.385
  779SOL    HW2 3081   0.253   1.471   7.350
  780SOL     OW 3082   0.686   0.464   6.853
  780SOL    HW1 3083   0.648   0.384   6.817
  780SOL    HW2 3084   0.693   0.522   6.778
  781SOL     OW 3085   0.929   1.679   7.053
  781SOL    HW1 3086   0.902   1.645   6.968
  781SOL    HW2 3087   0.923   1.774   7.043
  782SOL     OW 3088   0.473   0.491   5.769
  782SOL    HW1 3089   0.532   0.562   5.793
  782SOL    HW2 3090   0.389   0.534   5.754
  783SOL     OW 3091   0.162   1.141   7.048
  783SOL    HW1 3092   0.145   1.095   7.130
  783SOL    HW2 3093   0.169   1.071   6.983
  784SOL     OW 3094   1.326   1.047   6.809
  784SOL    HW1 3095   1.350   0.984   6.742
  784SOL    HW2 3096   1.256   1.099   6.771
  785SOL     OW 3097   1.311   0.857   5.892
  785SOL    HW1 3098   1.236   0.827   5.944
  785SOL    HW2 3099   1.285   0.843   5.801
  786SOL     OW 3100   1.759   1.746   6.736
  786SOL    HW1 3101   1.844   1.759   6.694
  786SOL    HW2 3102   1.737   1.654   6.717
  787SOL     OW 3103   1.241   1.733   6.701
  787SOL    HW1 3104   1.323   1.753   6.656
  787SOL    HW2 3105   1.245   1.640   6.719
  788SOL     OW 3106   0.067   1.185   6.635
  788SOL    HW1 3107   0.067   1.217   6.725
  788SOL    HW2 3108   0.021   1.253   6.586
  789SOL     OW 3109   0.679   1.666   7.315
  789SOL    HW1 3110   0.623   1.743   7.309
  789SOL    HW2 3111   0.742   1.676   7.244
  790SOL     OW 3112   1.719   0.130   6.080
  790SOL    HW1 3113   1.790   0.138   6.017
  790SOL    HW2 3114   1.745   0.057   6.136
  791SOL     OW 3115   1.390   1.563   6.077
  791SOL    HW1 3116   1.449   1.590   6.007
  791SOL    HW2 3117   1.342   1.643   6.099
  792SOL     OW 3118   0.119   1.808   7.434
  792SOL    HW1 3119   0.079   1.735   7.481
  792SOL    HW2 3120   0.182   1.845   7.495
  793SOL     OW 3121   1.278   0.927   6.259
  793SOL    HW1 3122   1.351   0.865   6.263
  793SOL    HW2 3123   1.312   0.999   6.206
  794SOL     OW 3124   0.815   1.273   7.016
  794SOL    HW1 3125   0.788   1.312   7.099
  794SOL    HW2 3126   0.744   1.294   6.955
  795SOL     OW 3127   0.672   1.619   5.741
  795SOL    HW1 3128   0.682   1.630   5.647
  795SOL    HW2 3129   0.618   1.541   5.750
  796SOL     OW 3130   1.625   1.726   6.979
  796SOL    HW1 3131   1.671   1.731   6.895
  796SOL    HW2 3132   1.615   1.817   7.006
  797SOL     OW 3133   1.839   0.154   6.552
  797SOL    HW1 3134   1.868   0.077   6.503
  797SOL    HW2 3135   1.752   0.174   6.516
  798SOL     OW 3136   0.264   0.325   6.309
  798SOL    HW1 3137   0.181   0.359   6.275
  798SOL    HW2 3138   0.249   0.316   6.403
  799SOL     OW 3139   1.206   1.606   5.618
  799SOL    HW1 3140   1.195   1.515   5.645
  799SOL    HW2 3141   1.141   1.618   5.549
  800SOL     OW 3142   0.825   1.007   6.958
  800SOL    HW1 3143   0.868   1.003   6.873
  800SOL    HW2 3144   0.825   1.100   6.980
  801SOL     OW 3145   0.915   0.910   5.875
  801SOL    HW1 3146   0.977   0.942   5.810
  801SOL    HW2 3147   0.962   0.840   5.921
  802SOL     OW 3148   1.484   1.619   5.621
  802SOL    HW1 3149   1.388   1.620   5.615
  802SOL    HW2 3150   1.513   1.629   5.530
  803SOL     OW 3151   0.373   1.307   7.077
  803SOL    HW1 3152   0.355   1.386   7.025
  803SOL    HW2 3153   0.298   1.250   7.060
  804SOL     OW 3154   1.608   1.279   6.869
  804SOL    HW1 3155   1.671   1.272   6.941
  804SOL    HW2 3156   1.550   1.350   6.895
  805SOL     OW 3157   1.051   1.107   6.291
  805SOL    HW1 3158   0.981   1.056   6.331
  805SOL    HW2 3159   1.114   1.041   6.261
  806SOL     OW 3160   1.005   0.243   6.590
  806SOL    HW1 3161   1.011   0.220   6.497
  806SOL    HW2 3162   0.998   0.159   6.636
  807SOL     OW 3163   0.605   1.490   6.068
  807SOL    HW1 3164   0.645   1.440   5.997
  807SOL    HW2 3165   0.529   1.533   6.027
  808SOL     OW 3166   1.721   0.394   6.963
  808SOL    HW1 3167   1.794   0.456   6.963
  808SOL    HW2 3168   1.751   0.322   6.907
  809SOL     OW 3169   0.252   1.344   5.863
  809SOL    HW1 3170   0.157   1.344   5.848
  809SOL    HW2 3171   0.262   1.376   5.952
  810SOL     OW 3172   0.116   1.007   7.281
  810SOL    HW1 3173   0.052   1.050   7.339
  810SOL    HW2 3174   0.194   0.997   7.335
  811SOL     OW 3175   0.658   0.208   7.083
  811SOL    HW1 3176   0.738   0.182   7.037
  811SOL    HW2 3177   0.687   0.225   7.173
  812SOL     OW 3178   0.071   0.320   5.612
  812SOL    HW1 3179   4.477   0.328   5.626
  812SOL    HW2 3180   0.099   0.407   5.581
  813SOL     OW 3181   1.430   0.858   6.986
  813SOL    HW1 3182   1.381   0.919   6.931
  813SOL    HW2 3183   1.520   0.861   6.952
  814SOL     OW 3184   0.085   0.188   5.889
  814SOL    HW1 3185   0.077   0.261   5.826
  814SOL    HW2 3186   0.164   0.142   5.862
  815SOL     OW 3187   1.179   1.340   5.702
  815SOL    HW1 3188   1.088   1.309   5.705
  815SOL    HW2 3189   1.207   1.340   5.793
  816SOL     OW 3190   0.623   0.830   7.015
  816SOL    HW1 3191   0.678   0.907   7.002
  816SOL    HW2 3192   0.685   0.758   7.024
  817SOL     OW 3193   1.484   1.778   6.569
  817SOL    HW1 3194   1.511   1.824   6.489
  817SOL    HW2 3195   1.566   1.757   6.614
  818SOL     OW 3196   0.714   0.561   7.291
  818SOL    HW1 3197   0.751   0.628   7.349
  818SOL    HW2 3198   0.750   0.479   7.323
  819SOL     OW 3199   1.471   1.201   7.218
  819SOL    HW1 3200   1.459   1.214   7.312
  819SOL    HW2 3201   1.564   1.215   7.204
  820SOL     OW 3202   0.380   1.743   7.150
  820SOL    HW1 3203   0.295   1.784   7.133
  820SOL    HW2 3204   0.359   1.663   7.198
  821SOL     OW 3205   1.670   0.881   6.841
  821SOL    HW1 3206   1.662   0.796   6.798
  821SOL    HW2 3207   1.660   0.945   6.771
  822SOL     OW 3208   1.218   0.330   6.033
  822SOL    HW1 3209   1.283   0.260   6.023
  822SOL    HW2 3210   1.246   0.377   6.112
  823SOL     OW 3211   0.587   0.738   6.256
  823SOL    HW1 3212   0.628   0.823   6.240
  823SOL    HW2 3213   0.519   0.731   6.189
  824SOL     OW 3214   1.763   0.365   7.230
  824SOL    HW1 3215   1.747   0.378   7.136
  824SOL    HW2 3216   1.684   0.319   7.261
  825SOL     OW 3217   1.745   0.933   7.098
  825SOL    HW1 3218   1.743   1.028   7.112
  825SOL    HW2 3219   1.730   0.922   7.005
  826SOL     OW 3220   0.864   1.368   5.620
  826SOL    HW1 3221   0.824   1.393   5.703
  826SOL    HW2 3222   0.880   1.451   5.574
  827SOL     OW 3223   0.660   1.792   6.532
  827SOL    HW1 3224   0.639   1.882   6.508
  827SOL    HW2 3225   0.755   1.786   6.523
  828SOL     OW 3226   0.868   0.967   6.441
  828SOL    HW1 3227   0.917   0.895   6.480
  828SOL    HW2 3228   0.833   1.015   6.516
  829SOL     OW 3229   1.080   0.989   5.675
  829SOL    HW1 3230   1.057   1.039   5.596
  829SOL    HW2 3231   1.154   0.935   5.648
  830SOL     OW 3232   1.873   1.539   6.476
  830SOL    HW1 3233   1.825   1.518   6.396
  830SOL    HW2 3234   1.867   1.459   6.529
  831SOL     OW 3235   0.230   1.306   7.444
  831SOL    HW1 3236   0.157   1.248   7.421
  831SOL    HW2 3237   0.224   1.316   7.539
  832SOL     OW 3238   0.106   1.237   6.254
  832SOL    HW1 3239   0.116   1.189   6.336
  832SOL    HW2 3240   0.165   1.192   6.193
  833SOL     OW 3241   0.682   1.403   7.214
  833SOL    HW1 3242   0.602   1.358   7.242
  833SOL    HW2 3243   0.675   1.490   7.251
  834SOL     OW 3244   1.809   0.182   6.824
  834SOL    HW1 3245   1.807   0.088   6.845
  834SOL    HW2 3246   1.824   0.185   6.730
  835SOL     OW 3247   0.441   0.431   6.117
  835SOL    HW1 3248   0.458   0.361   6.054
  835SOL    HW2 3249   0.381   0.392   6.181
  836SOL     OW 3250   1.689   1.490   6.698
  836SOL    HW1 3251   1.615   1.464   6.644
  836SOL    HW2 3252   1.704   1.416   6.756
  837SOL     OW 3253   0.312   0.506   6.840
  837SOL    HW1 3254   0.383   0.455   6.879
  837SOL    HW2 3255   0.337   0.515   6.748
  838SOL     OW 3256   0.827   1.578   6.264
  838SOL    HW1 3257   0.814   1.629   6.184
  838SOL    HW2 3258   0.750   1.521   6.269
  839SOL     OW 3259   1.432   0.216   6.704
  839SOL    HW1 3260   1.468   0.145   6.757
  839SOL    HW2 3261   1.381   0.269   6.765
  840SOL     OW 3262   0.996   0.008   6.737
  840SOL    HW1 3263   0.953   4.423   6.727
  840SOL    HW2 3264   1.089   4.487   6.748
  841SOL     OW 3265   0.773   1.332   5.898
  841SOL    HW1 3266   0.740   1.242   5.905
  841SOL    HW2 3267   0.854   1.332   5.949
  842SOL     OW 3268   0.621   1.557   6.871
  842SOL    HW1 3269   0.623   1.638   6.921
  842SOL    HW2 3270   0.708   1.550   6.832
  843SOL     OW 3271   1.341   0.053   5.739
  843SOL    HW1 3272   1.380   4.477   5.695
  843SOL    HW2 3273   1.265   0.017   5.786
  844SOL     OW 3274   1.314   0.463   6.263
  844SOL    HW1 3275   1.255   0.537   6.264
  844SOL    HW2 3276   1.303   0.422   6.349
  845SOL     OW 3277   1.585   0.200   6.454
  845SOL    HW1 3278   1.526   0.215   6.527
  845SOL    HW2 3279   1.588   0.284   6.407
  846SOL     OW 3280   0.041   1.052   5.874
  846SOL    HW1 3281   0.135   1.036   5.864
  846SOL    HW2 3282   0.020   1.019   5.961
  847SOL     OW 3283   0.883   1.652   5.928
  847SOL    HW1 3284   0.811   1.634   5.869
  847SOL    HW2 3285   0.853   1.727   5.980
  848SOL     OW 3286   0.247   0.627   7.569
  848SOL    HW1 3287   0.172   0.607   7.625
  848SOL    HW2 3288   0.214   0.613   7.480
  849SOL     OW 3289   0.194   0.293   8.437
  849SOL    HW1 3290   0.229   0.268   8.523
  849SOL    HW2 3291   0.131   0.224   8.416
  850SOL     OW 3292   0.004   0.381   8.088
  850SOL    HW1 3293   4.426   0.418   8.129
  850SOL    HW2 3294   4.471   0.309   8.034
  851SOL     OW 3295   0.567   1.286   8.623
  851SOL    HW1 3296   0.480   1.291   8.584
  851SOL    HW2 3297   0.583   1.374   8.658
  852SOL     OW 3298   1.560   1.512   8.156
  852SOL    HW1 3299   1.517   1.492   8.239
  852SOL    HW2 3300   1.488   1.515   8.093
  853SOL     OW 3301   1.134   0.699   8.147
  853SOL    HW1 3302   1.180   0.782   8.136
  853SOL    HW2 3303   1.084   0.709   8.228
  854SOL     OW 3304   1.767   0.607   7.676
  854SOL    HW1 3305   1.746   0.598   7.583
  854SOL    HW2 3306   1.734   0.527   7.716
  855SOL     OW 3307   0.756   1.143   8.488
  855SOL    HW1 3308   0.687   1.177   8.545
  855SOL    HW2 3309   0.791   1.220   8.444
  856SOL     OW 3310   0.865   0.774   9.269
  856SOL    HW1 3311   0.851   0.845   9.332
  856SOL    HW2 3312   0.889   0.819   9.187
  857SOL     OW 3313   0.685   1.004   8.096
  857SOL    HW1 3314   0.751   0.991   8.164
  857SOL    HW2 3315   0.616   1.055   8.138
  858SOL     OW 3316   0.710   1.150   9.260
  858SOL    HW1 3317   0.757   1.229   9.286
  858SOL    HW2 3318   0.628   1.182   9.224
  859SOL     OW 3319   0.336   1.422   8.518
  859SOL    HW1 3320   0.254   1.402   8.471
  859SOL    HW2 3321   0.386   1.476   8.456
  860SOL     OW 3322   1.461   1.499   8.801
  860SOL    HW1 3323   1.511   1.580   8.810
  860SOL    HW2 3324   1.401   1.499   8.875
  861SOL     OW 3325   0.439   0.394   8.939
  861SOL    HW1 3326   0.528   0.359   8.940
  861SOL    HW2 3327   0.383   0.319   8.960
  862SOL     OW 3328   1.611   0.446   8.186
  862SOL    HW1 3329   1.531   0.468   8.139
  862SOL    HW2 3330   1.630   0.524   8.239
  863SOL     OW 3331   0.245   1.692   7.925
  863SOL    HW1 3332   0.230   1.776   7.967
  863SOL    HW2 3333   0.313   1.709   7.860
  864SOL     OW 3334   1.136   1.341   9.140
  864SOL    HW1 3335   1.176   1.337   9.227
  864SOL    HW2 3336   1.084   1.262   9.134
  865SOL     OW 3337   0.248   1.427   7.975
  865SOL    HW1 3338   0.239   1.522   7.978
  865SOL    HW2 3339   0.185   1.395   8.039
  866SOL     OW 3340   0.247   1.082   8.332
  866SOL    HW1 3341   0.264   0.992   8.361
  866SOL    HW2 3342   0.187   1.118   8.398
  867SOL     OW 3343   0.614   1.791   8.879
  867SOL    HW1 3344   0.530   1.773   8.923
  867SOL    HW2 3345   0.634   1.881   8.903
  868SOL     OW 3346   0.580   0.986   7.586
  868SOL    HW1 3347   0.627   1.030   7.515
  868SOL    HW2 3348   0.625   1.015   7.665
  869SOL     OW 3349   1.582   0.116   8.919
  869SOL    HW1 3350   1.603   0.185   8.856
  869SOL    HW2 3351   1.572   0.161   9.003
  870SOL     OW 3352   0.136   0.643   8.022
  870SOL    HW1 3353   0.084   0.565   8.040
  870SOL    HW2 3354   0.108   0.706   8.089
  871SOL     OW 3355   1.842   1.774   7.787
  871SOL    HW1 3356   1.897   1.736   7.855
  871SOL    HW2 3357   1.896   1.842   7.747
  872SOL     OW 3358   0.032   1.602   7.588
  872SOL    HW1 3359   0.021   1.507   7.585
  872SOL    HW2 3360   0.020   1.625   7.680
  873SOL     OW 3361   1.691   0.920   8.088
  873SOL    HW1 3362   1.774   0.878   8.067
  873SOL    HW2 3363   1.668   0.969   8.009
  874SOL     OW 3364   1.646   1.107   7.877
  874SOL    HW1 3365   1.732   1.113   7.835
  874SOL    HW2 3366   1.651   1.168   7.950
  875SOL     OW 3367   0.105   0.764   9.030
  875SOL    HW1 3368   0.196   0.760   9.002
  875SOL    HW2 3369   0.090   0.857   9.049
  876SOL     OW 3370   0.613   1.385   8.184
  876SOL    HW1 3371   0.567   1.302   8.193
  876SOL    HW2 3372   0.597   1.411   8.094
  877SOL     OW 3373   1.289   1.238   8.872
  877SOL    HW1 3374   1.322   1.171   8.812
  877SOL    HW2 3375   1.346   1.232   8.948
  878SOL     OW 3376   0.820   0.013   7.999
  878SOL    HW1 3377   0.854   0.099   7.974
  878SOL    HW2 3378   0.725   0.021   7.987
  879SOL     OW 3379   0.180   0.941   8.727
  879SOL    HW1 3380   0.271   0.923   8.707
  879SOL    HW2 3381   0.133   0.925   8.645
  880SOL     OW 3382   1.532   0.992   7.646
  880SOL    HW1 3383   1.461   0.936   7.678
  880SOL    HW2 3384   1.572   1.027   7.726
  881SOL     OW 3385   1.185   1.806   9.070
  881SOL    HW1 3386   1.198   1.864   8.995
  881SOL    HW2 3387   1.201   1.718   9.035
  882SOL     OW 3388   0.318   0.260   9.217
  882SOL    HW1 3389   0.386   0.311   9.261
  882SOL    HW2 3390   0.242   0.268   9.275
  883SOL     OW 3391   1.466   1.419   8.400
  883SOL    HW1 3392   1.398   1.434   8.465
  883SOL    HW2 3393   1.453   1.328   8.373
  884SOL     OW 3394   1.658   1.735   8.027
  884SOL    HW1 3395   1.633   1.706   7.939
  884SOL    HW2 3396   1.633   1.662   8.084
  885SOL     OW 3397   0.596   0.723   7.713
  885SOL    HW1 3398   0.598   0.804   7.663
  885SOL    HW2 3399   0.530   0.739   7.781
  886SOL     OW 3400   1.291   0.363   8.381
  886SOL    HW1 3401   1.202   0.332   8.365
  886SOL    HW2 3402   1.327   0.299   8.444
  887SOL     OW 3403   1.580   1.670   7.757
  887SOL    HW1 3404   1.668   1.707   7.749
  887SOL    HW2 3405   1.553   1.652   7.667
  888SOL     OW 3406   0.797   0.618   8.902
  888SOL    HW1 3407   0.769   0.593   8.990
  888SOL    HW2 3408   0.754   0.555   8.844
  889SOL     OW 3409   1.388   0.479   9.124
  889SOL    HW1 3410   1.392   0.523   9.209
  889SOL    HW2 3411   1.455   0.411   9.130
  890SOL     OW 3412   0.955   0.888   9.030
  890SOL    HW1 3413   1.010   0.817   8.995
  890SOL    HW2 3414   0.908   0.922   8.954
  891SOL     OW 3415   0.997   0.417   8.684
  891SOL    HW1 3416   0.910   0.427   8.723
  891SOL    HW2 3417   0.983   0.365   8.605
  892SOL     OW 3418   1.050   0.698   7.875
  892SOL    HW1 3419   1.066   0.690   7.969
  892SOL    HW2 3420   0.967   0.651   7.861
  893SOL     OW 3421   0.098   0.825   8.232
  893SOL    HW1 3422   0.184   0.810   8.269
  893SOL    HW2 3423   0.045   0.857   8.305
  894SOL     OW 3424   0.123   1.857   9.025
  894SOL    HW1 3425   0.117   1.833   9.117
  894SOL    HW2 3426   0.046   1.817   8.984
  895SOL     OW 3427   0.853   0.368   7.627
  895SOL    HW1 3428   0.927   0.403   7.578
  895SOL    HW2 3429   0.870   0.275   7.634
  896SOL     OW 3430   1.704   0.574   9.276
  896SOL    HW1 3431   1.669   0.649   9.229
  896SOL    HW2 3432   1.740   0.517   9.208
  897SOL     OW 3433   1.377   1.143   7.989
  897SOL    HW1 3434   1.455   1.130   7.936
  897SOL    HW2 3435   1.324   1.204   7.939
  898SOL     OW 3436   0.542   0.204   8.349
  898SOL    HW1 3437   0.562   0.223   8.440
  898SOL    HW2 3438   0.533   0.290   8.307
  899SOL     OW 3439   1.006   1.445   7.920
  899SOL    HW1 3440   0.968   1.517   7.871
  899SOL    HW2 3441   0.989   1.466   8.012
  900SOL     OW 3442   0.356   1.810   8.306
  900SOL    HW1 3443   0.398   1.724   8.316
  900SOL    HW2 3444   0.426   1.873   8.322
  901SOL     OW 3445   1.799   1.058   8.315
  901SOL    HW1 3446   1.744   1.039   8.239
  901SOL    HW2 3447   1.738   1.064   8.388
  902SOL     OW 3448   1.228   1.539   8.961
  902SOL    HW1 3449   1.214   1.466   9.022
  902SOL    HW2 3450   1.165   1.524   8.890
  903SOL     OW 3451   0.316   0.954   7.701
  903SOL    HW1 3452   0.400   0.977   7.661
  903SOL    HW2 3453   0.300   0.864   7.673
  904SOL     OW 3454   1.479   0.742   8.173
  904SOL    HW1 3455   1.467   0.697   8.257
  904SOL    HW2 3456   1.555   0.798   8.186
  905SOL     OW 3457   0.467   1.262   9.183
  905SOL    HW1 3458   0.440   1.268   9.092
  905SOL    HW2 3459   0.385   1.267   9.233
  906SOL     OW 3460   1.122   1.777   7.679
  906SOL    HW1 3461   1.049   1.736   7.725
  906SOL    HW2 3462   1.144   1.716   7.609
  907SOL     OW 3463   0.163   0.265   8.958
  907SOL    HW1 3464   0.136   0.352   8.930
  907SOL    HW2 3465   0.198   0.278   9.046
  908SOL     OW 3466   1.628   1.381   7.535
  908SOL    HW1 3467   1.586   1.465   7.520
  908SOL    HW2 3468   1.561   1.316   7.517
  909SOL     OW 3469   0.469   1.743   7.762
  909SOL    HW1 3470   0.510   1.797   7.830
  909SOL    HW2 3471   0.542   1.709   7.710
  910SOL     OW 3472   1.420   0.138   7.866
  910SOL    HW1 3473   1.404   0.086   7.786
  910SOL    HW2 3474   1.514   0.131   7.879
  911SOL     OW 3475   0.256   1.789   8.682
  911SOL    HW1 3476   0.305   1.715   8.719
  911SOL    HW2 3477   0.226   1.758   8.597
  912SOL     OW 3478   0.938   1.699   8.347
  912SOL    HW1 3479   1.015   1.646   8.369
  912SOL    HW2 3480   0.894   1.649   8.278
  913SOL     OW 3481   0.394   0.693   7.921
  913SOL    HW1 3482   0.419   0.602   7.933
  913SOL    HW2 3483   0.302   0.697   7.947
  914SOL     OW 3484   1.525   0.233   9.170
  914SOL    HW1 3485   1.525   0.256   9.263
  914SOL    HW2 3486   1.448   0.178   9.159
  915SOL     OW 3487   0.624   0.121   7.566
  915SOL    HW1 3488   0.712   0.086   7.578
  915SOL    HW2 3489   0.595   0.084   7.483
  916SOL     OW 3490   0.768   0.269   9.202
  916SOL    HW1 3491   0.835   0.201   9.211
  916SOL    HW2 3492   0.728   0.276   9.288
  917SOL     OW 3493   0.877   1.522   8.641
  917SOL    HW1 3494   0.861   1.485   8.554
  917SOL    HW2 3495   0.946   1.467   8.678
  918SOL     OW 3496   1.341   0.589   8.877
  918SOL    HW1 3497   1.369   0.560   8.964
  918SOL    HW2 3498   1.376   0.678   8.869
  919SOL     OW 3499   0.815   1.396   8.387
  919SOL    HW1 3500   0.899   1.384   8.342
  919SOL    HW2 3501   0.750   1.396   8.316
  920SOL     OW 3502   0.923   0.518   8.348
  920SOL    HW1 3503   0.906   0.516   8.254
  920SOL    HW2 3504   0.961   0.432   8.367
  921SOL     OW 3505   0.561   0.068   7.956
  921SOL    HW1 3506   0.474   0.055   7.994
  921SOL    HW2 3507   0.548   0.139   7.892
  922SOL     OW 3508   1.429   1.198   7.490
  922SOL    HW1 3509   1.459   1.122   7.539
  922SOL    HW2 3510   1.343   1.219   7.526
  923SOL     OW 3511   0.304   0.074   7.635
  923SOL    HW1 3512   0.388   0.121   7.633
  923SOL    HW2 3513   0.320   4.499   7.692
  924SOL     OW 3514   0.953   0.240   7.917
  924SOL    HW1 3515   0.901   0.295   7.859
  924SOL    HW2 3516   1.041   0.276   7.911
  925SOL     OW 3517   1.080   0.681   8.909
  925SOL    HW1 3518   1.010   0.616   8.909
  925SOL    HW2 3519   1.160   0.629   8.897
  926SOL     OW 3520   1.225   1.569   8.241
  926SOL    HW1 3521   1.241   1.637   8.176
  926SOL    HW2 3522   1.292   1.583   8.308
  927SOL     OW 3523   0.466   1.149   8.184
  927SOL    HW1 3524   0.395   1.130   8.246
  927SOL    HW2 3525   0.427   1.133   8.098
  928SOL     OW 3526   1.269   1.794   8.055
  928SOL    HW1 3527   1.314   1.856   7.998
  928SOL    HW2 3528   1.203   1.846   8.101
  929SOL     OW 3529   1.029   0.548   7.465
  929SOL    HW1 3530   0.981   0.629   7.449
  929SOL    HW2 3531   1.088   0.568   7.537
  930SOL     OW 3532   0.094   0.518   8.861
  930SOL    HW1 3533   0.151   0.527   8.785
  930SOL    HW2 3534   0.059   0.607   8.875
  931SOL     OW 3535   0.562   0.244   8.614
  931SOL    HW1 3536   0.592   0.161   8.650
  931SOL    HW2 3537   0.468   0.245   8.633
  932SOL     OW 3538   0.866   0.503   8.075
  932SOL    HW1 3539   0.820   0.544   8.001
  932SOL    HW2 3540   0.834   0.413   8.074
  933SOL     OW 3541   0.964   0.026   8.231
  933SOL    HW1 3542   0.915   0.024   8.148
  933SOL    HW2 3543   0.977   4.433   8.252
  934SOL     OW 3544   1.436   1.162   8.305
  934SOL    HW1 3545   1.368   1.096   8.305
  934SOL    HW2 3546   1.459   1.174   8.213
  935SOL     OW 3547   1.466   0.604   8.423
  935SOL    HW1 3548   1.413   0.525   8.426
  935SOL    HW2 3549   1.524   0.597   8.499
  936SOL     OW 3550   1.846   0.817   7.831
  936SOL    HW1 3551   1.902   0.766   7.888
  936SOL    HW2 3552   1.817   0.755   7.763
  937SOL     OW 3553   0.492   1.417   7.608
  937SOL    HW1 3554   0.415   1.388   7.657
  937SOL    HW2 3555   0.474   1.390   7.517
  938SOL     OW 3556   1.671   1.266   8.093
  938SOL    HW1 3557   1.765   1.270   8.108
  938SOL    HW2 3558   1.639   1.353   8.116
  939SOL     OW 3559   1.394   0.570   7.518
  939SOL    HW1 3560   1.333   0.555   7.589
  939SOL    HW2 3561   1.480   0.552   7.555
  940SOL     OW 3562   0.522   0.264   7.769
  940SOL    HW1 3563   0.570   0.215   7.703
  940SOL    HW2 3564   0.506   0.349   7.728
  941SOL     OW 3565   1.753   1.238   9.023
  941SOL    HW1 3566   1.841   1.200   9.017
  941SOL    HW2 3567   1.769   1.329   9.050
  942SOL     OW 3568   1.059   1.353   8.782
  942SOL    HW1 3569   0.984   1.323   8.833
  942SOL    HW2 3570   1.135   1.312   8.823
  943SOL     OW 3571   1.608   1.624   9.101
  943SOL    HW1 3572   1.603   1.660   9.013
  943SOL    HW2 3573   1.692   1.578   9.103
  944SOL     OW 3574   1.128   1.203   8.554
  944SOL    HW1 3575   1.069   1.241   8.619
  944SOL    HW2 3576   1.095   1.234   8.470
  945SOL     OW 3577   1.629   1.098   8.526
  945SOL    HW1 3578   1.625   1.161   8.598
  945SOL    HW2 3579   1.550   1.115   8.475
  946SOL     OW 3580   0.902   0.133   8.836
  946SOL    HW1 3581   0.924   0.088   8.754
  946SOL    HW2 3582   0.986   0.148   8.879
  947SOL     OW 3583   0.984   1.114   9.171
  947SOL    HW1 3584   0.892   1.130   9.192
  947SOL    HW2 3585   0.983   1.037   9.115
  948SOL     OW 3586   0.708   1.061   7.820
  948SOL    HW1 3587   0.696   1.045   7.914
  948SOL    HW2 3588   0.784   1.007   7.797
  949SOL     OW 3589   0.429   0.826   8.689
  949SOL    HW1 3590   0.498   0.835   8.755
  949SOL    HW2 3591   0.372   0.758   8.724
  950SOL     OW 3592   1.269   0.376   8.721
  950SOL    HW1 3593   1.301   0.454   8.766
  950SOL    HW2 3594   1.180   0.398   8.694
  951SOL     OW 3595   0.062   1.576   8.791
  951SOL    HW1 3596   0.036   1.665   8.767
  951SOL    HW2 3597   0.158   1.580   8.796
  952SOL     OW 3598   0.347   1.108   7.941
  952SOL    HW1 3599   0.357   1.182   7.881
  952SOL    HW2 3600   0.348   1.031   7.885
  953SOL     OW 3601   0.564   0.526   8.301
  953SOL    HW1 3602   0.575   0.587   8.228
  953SOL    HW2 3603   0.623   0.558   8.369
  954SOL     OW 3604   1.248   1.348   7.837
  954SOL    HW1 3605   1.303   1.420   7.869
  954SOL    HW2 3606   1.161   1.369   7.871
  955SOL     OW 3607   1.280   1.457   8.594
  955SOL    HW1 3608   1.336   1.460   8.672
  955SOL    HW2 3609   1.225   1.380   8.607
  956SOL     OW 3610   1.582   0.623   7.925
  956SOL    HW1 3611   1.536   0.674   7.991
  956SOL    HW2 3612   1.626   0.689   7.871
  957SOL     OW 3613   0.347   1.531   8.763
  957SOL    HW1 3614   0.333   1.484   8.681
  957SOL    HW2 3615   0.442   1.541   8.770
  958SOL     OW 3616   0.485   0.761   9.117
  958SOL    HW1 3617   0.510   0.799   9.033
  958SOL    HW2 3618   0.524   0.674   9.117
  959SOL     OW 3619   1.600   0.778   9.128
  959SOL    HW1 3620   1.514   0.819   9.122
  959SOL    HW2 3621   1.653   0.820   9.061
  960SOL     OW 3622   1.005   0.086   9.168
  960SOL    HW1 3623   1.035   0.169   9.131
  960SOL    HW2 3624   1.030   0.020   9.104
  961SOL     OW 3625   0.495   0.044   9.199
  961SOL    HW1 3626   0.480   4.497   9.117
  961SOL    HW2 3627   0.429   0.113   9.200
  962SOL     OW 3628   0.589   0.874   8.472
  962SOL    HW1 3629   0.619   0.965   8.474
  962SOL    HW2 3630   0.533   0.865   8.549
  963SOL     OW 3631   1.358   0.858   8.478
  963SOL    HW1 3632   1.275   0.850   8.432
  963SOL    HW2 3633   1.398   0.772   8.472
  964SOL     OW 3634   1.204   0.535   7.711
  964SOL    HW1 3635   1.210   0.455   7.763
  964SOL    HW2 3636   1.161   0.598   7.769
  965SOL     OW 3637   0.285   0.217   8.682
  965SOL    HW1 3638   0.246   0.234   8.768
  965SOL    HW2 3639   0.325   0.131   8.691
  966SOL     OW 3640   0.040   1.313   8.733
  966SOL    HW1 3641   0.076   1.265   8.809
  966SOL    HW2 3642   0.045   1.405   8.759
  967SOL     OW 3643   0.724   0.631   8.506
  967SOL    HW1 3644   0.798   0.611   8.449
  967SOL    HW2 3645   0.698   0.720   8.481
  968SOL     OW 3646   1.734   0.959   9.300
  968SOL    HW1 3647   1.687   0.900   9.241
  968SOL    HW2 3648   1.675   0.972   9.374
  969SOL     OW 3649   0.320   0.074   8.079
  969SOL    HW1 3650   0.302   0.163   8.111
  969SOL    HW2 3651   0.307   0.018   8.156
  970SOL     OW 3652   1.614   0.377   7.811
  970SOL    HW1 3653   1.643   0.314   7.877
  970SOL    HW2 3654   1.591   0.455   7.862
  971SOL     OW 3655   1.029   0.761   8.409
  971SOL    HW1 3656   1.026   0.778   8.503
  971SOL    HW2 3657   1.000   0.671   8.399
  972SOL     OW 3658   0.983   1.566   9.164
  972SOL    HW1 3659   0.967   1.610   9.081
  972SOL    HW2 3660   1.025   1.484   9.141
  973SOL     OW 3661   1.856   1.504   9.054
  973SOL    HW1 3662   1.869   1.533   8.963
  973SOL    HW2 3663   1.937   1.527   9.098
  974SOL     OW 3664   0.346   0.933   9.266
  974SOL    HW1 3665   0.419   0.963   9.321
  974SOL    HW2 3666   0.386   0.866   9.210
  975SOL     OW 3667   1.531   0.265   7.576
  975SOL    HW1 3668   1.459   0.209   7.605
  975SOL    HW2 3669   1.560   0.310   7.655
  976SOL     OW 3670   1.292   0.826   7.479
  976SOL    HW1 3671   1.334   0.740   7.481
  976SOL    HW2 3672   1.323   0.866   7.397
  977SOL     OW 3673   1.065   1.335   8.301
  977SOL    HW1 3674   1.068   1.263   8.239
  977SOL    HW2 3675   1.127   1.399   8.267
  978SOL     OW 3676   0.318   0.812   8.396
  978SOL    HW1 3677   0.412   0.830   8.393
  978SOL    HW2 3678   0.311   0.722   8.425
  979SOL     OW 3679   0.335   0.529   8.438
  979SOL    HW1 3680   0.290   0.447   8.419
  979SOL    HW2 3681   0.413   0.528   8.382
  980SOL     OW 3682   1.135   0.374   9.144
  980SOL    HW1 3683   1.086   0.438   9.194
  980SOL    HW2 3684   1.221   0.414   9.130
  981SOL     OW 3685   1.157   0.213   8.921
  981SOL    HW1 3686   1.151   0.277   8.992
  981SOL    HW2 3687   1.196   0.261   8.849
  982SOL     OW 3688   4.491   1.322   7.652
  982SOL    HW1 3689   4.399   1.338   7.634
  982SOL    HW2 3690   4.496   1.229   7.674
  983SOL     OW 3691   0.097   1.777   8.388
  983SOL    HW1 3692   0.059   1.723   8.319
  983SOL    HW2 3693   0.185   1.798   8.356
  984SOL     OW 3694   0.497   1.574   8.355
  984SOL    HW1 3695   0.565   1.636   8.379
  984SOL    HW2 3696   0.541   1.510   8.298
  985SOL     OW 3697   0.985   0.794   8.675
  985SOL    HW1 3698   1.040   0.770   8.750
  985SOL    HW2 3699   0.899   0.755   8.695
  986SOL     OW 3700   0.039   0.568   8.559
  986SOL    HW1 3701   0.113   0.525   8.517
  986SOL    HW2 3702   0.016   0.510   8.632
  987SOL     OW 3703   0.179   0.523   9.160
  987SOL    HW1 3704   0.266   0.506   9.124
  987SOL    HW2 3705   0.151   0.604   9.116
  988SOL     OW 3706   1.377   0.939   9.107
  988SOL    HW1 3707   1.398   1.033   9.105
  988SOL    HW2 3708   1.374   0.914   9.014
  989SOL     OW 3709   0.811   0.574   7.803
  989SOL    HW1 3710   0.815   0.502   7.739
  989SOL    HW2 3711   0.739   0.629   7.774
  990SOL     OW 3712   1.641   0.601   8.635
  990SOL    HW1 3713   1.630   0.542   8.709
  990SOL    HW2 3714   1.728   0.582   8.600
  991SOL     OW 3715   0.272   1.562   9.188
  991SOL    HW1 3716   0.216   1.613   9.247
  991SOL    HW2 3717   0.253   1.471   9.212
  992SOL     OW 3718   0.686   0.464   8.715
  992SOL    HW1 3719   0.647   0.384   8.679
  992SOL    HW2 3720   0.692   0.523   8.640
  993SOL     OW 3721   0.928   1.679   8.915
  993SOL    HW1 3722   0.902   1.645   8.830
  993SOL    HW2 3723   0.925   1.774   8.906
  994SOL     OW 3724   0.473   0.491   7.631
  994SOL    HW1 3725   0.532   0.562   7.654
  994SOL    HW2 3726   0.389   0.534   7.616
  995SOL     OW 3727   0.162   1.141   8.910
  995SOL    HW1 3728   0.145   1.095   8.992
  995SOL    HW2 3729   0.169   1.071   8.845
  996SOL     OW 3730   1.327   1.047   8.671
  996SOL    HW1 3731   1.350   0.984   8.603
  996SOL    HW2 3732   1.256   1.099   8.633
  997SOL     OW 3733   1.311   0.856   7.754
  997SOL    HW1 3734   1.236   0.827   7.805
  997SOL    HW2 3735   1.285   0.843   7.663
  998SOL     OW 3736   1.764   1.741   8.598
  998SOL    HW1 3737   1.827   1.772   8.533
  998SOL    HW2 3738   1.747   1.650   8.573
  999SOL     OW 3739   1.241   1.733   8.561
  999SOL    HW1 3740   1.323   1.753   8.517
  999SOL    HW2 3741   1.246   1.639   8.580
 1000SOL     OW 3742   0.067   1.185   8.497
 1000SOL    HW1 3743   0.067   1.217   8.588
 1000SOL    HW2 3744   0.021   1.253   8.448
 1001SOL     OW 3745   0.679   1.665   9.177
 1001SOL    HW1 3746   0.624   1.743   9.171
 1001SOL    HW2 3747   0.742   1.676   9.106
 1002SOL     OW 3748   1.718   0.130   7.941
 1002SOL    HW1 3749   1.790   0.138   7.879
 1002SOL    HW2 3750   1.745   0.057   7.998
 1003SOL     OW 3751   1.390   1.567   7.933
 1003SOL    HW1 3752   1.449   1.600   7.865
 1003SOL    HW2 3753   1.341   1.645   7.961
 1004SOL     OW 3754   0.118   1.808   9.296
 1004SOL    HW1 3755   0.079   1.735   9.343
 1004SOL    HW2 3756   0.182   1.845   9.357
 1005SOL     OW 3757   1.278   0.927   8.120
 1005SOL    HW1 3758   1.351   0.865   8.125
 1005SOL    HW2 3759   1.312   1.000   8.068
 1006SOL     OW 3760   0.815   1.273   8.878
 1006SOL    HW1 3761   0.788   1.312   8.961
 1006SOL    HW2 3762   0.745   1.295   8.817
 1007SOL     OW 3763   0.672   1.619   7.603
 1007SOL    HW1 3764   0.682   1.630   7.509
 1007SOL    HW2 3765   0.618   1.541   7.612
 1008SOL     OW 3766   1.625   1.725   8.839
 1008SOL    HW1 3767   1.674   1.733   8.757
 1008SOL    HW2 3768   1.612   1.815   8.868
 1009SOL     OW 3769   1.839   0.154   8.414
 1009SOL    HW1 3770   1.868   0.077   8.366
 1009SOL    HW2 3771   1.752   0.174   8.378
 1010SOL     OW 3772   0.264   0.325   8.171
 1010SOL    HW1 3773   0.181   0.359   8.138
 1010SOL    HW2 3774   0.249   0.316   8.265
 1011SOL     OW 3775   1.207   1.606   7.479
 1011SOL    HW1 3776   1.198   1.515   7.507
 1011SOL    HW2 3777   1.142   1.617   7.410
 1012SOL     OW 3778   0.825   1.007   8.820
 1012SOL    HW1 3779   0.868   1.003   8.734
 1012SOL    HW2 3780   0.825   1.100   8.843
 1013SOL     OW 3781   0.915   0.910   7.737
 1013SOL    HW1 3782   0.977   0.942   7.672
 1013SOL    HW2 3783   0.962   0.840   7.783
 1014SOL     OW 3784   1.493   1.626   7.490
 1014SOL    HW1 3785   1.398   1.619   7.477
 1014SOL    HW2 3786   1.529   1.632   7.402
 1015SOL     OW 3787   0.373   1.307   8.939
 1015SOL    HW1 3788   0.356   1.385   8.887
 1015SOL    HW2 3789   0.298   1.250   8.922
 1016SOL     OW 3790   1.611   1.283   8.728
 1016SOL    HW1 3791   1.672   1.274   8.801
 1016SOL    HW2 3792   1.551   1.352   8.756
 1017SOL     OW 3793   1.051   1.107   8.153
 1017SOL    HW1 3794   0.981   1.056   8.193
 1017SOL    HW2 3795   1.114   1.041   8.123
 1018SOL     OW 3796   1.005   0.243   8.452
 1018SOL    HW1 3797   1.011   0.220   8.359
 1018SOL    HW2 3798   0.998   0.159   8.497
 1019SOL     OW 3799   0.604   1.489   7.930
 1019SOL    HW1 3800   0.645   1.439   7.860
 1019SOL    HW2 3801   0.530   1.534   7.889
 1020SOL     OW 3802   1.721   0.394   8.825
 1020SOL    HW1 3803   1.794   0.456   8.825
 1020SOL    HW2 3804   1.751   0.322   8.769
 1021SOL     OW 3805   0.252   1.344   7.724
 1021SOL    HW1 3806   0.157   1.344   7.710
 1021SOL    HW2 3807   0.263   1.376   7.814
 1022SOL     OW 3808   0.116   1.007   9.143
 1022SOL    HW1 3809   0.052   1.050   9.201
 1022SOL    HW2 3810   0.194   0.997   9.197
 1023SOL     OW 3811   0.658   0.208   8.945
 1023SOL    HW1 3812   0.738   0.182   8.899
 1023SOL    HW2 3813   0.687   0.225   9.035
 1024SOL     OW 3814   0.071   0.320   7.474
 1024SOL    HW1 3815   4.477   0.328   7.488
 1024SOL    HW2 3816   0.099   0.407   7.443
 1025SOL     OW 3817   1.430   0.858   8.848
 1025SOL    HW1 3818   1.381   0.919   8.792
 1025SOL    HW2 3819   1.520   0.861   8.814
 1026SOL     OW 3820   0.085   0.188   7.750
 1026SOL    HW1 3821   0.077   0.261   7.688
 1026SOL    HW2 3822   0.164   0.142   7.724
 1027SOL     OW 3823   1.179   1.340   7.565
 1027SOL    HW1 3824   1.088   1.310   7.567
 1027SOL    HW2 3825   1.207   1.340   7.656
 1028SOL     OW 3826   0.623   0.830   8.877
 1028SOL    HW1 3827   0.678   0.907   8.864
 1028SOL    HW2 3828   0.685   0.758   8.886
 1029SOL     OW 3829   1.485   1.775   8.426
 1029SOL    HW1 3830   1.508   1.837   8.357
 1029SOL    HW2 3831   1.567   1.761   8.474
 1030SOL     OW 3832   0.714   0.561   9.153
 1030SOL    HW1 3833   0.751   0.628   9.211
 1030SOL    HW2 3834   0.750   0.479   9.185
 1031SOL     OW 3835   1.471   1.201   9.080
 1031SOL    HW1 3836   1.459   1.214   9.174
 1031SOL    HW2 3837   1.564   1.215   9.066
 1032SOL     OW 3838   0.380   1.744   9.012
 1032SOL    HW1 3839   0.295   1.784   8.995
 1032SOL    HW2 3840   0.359   1.663   9.060
 1033SOL     OW 3841   1.670   0.881   8.703
 1033SOL    HW1 3842   1.662   0.796   8.660
 1033SOL    HW2 3843   1.661   0.945   8.633
 1034SOL     OW 3844   1.218   0.330   7.895
 1034SOL    HW1 3845   1.283   0.260   7.885
 1034SOL    HW2 3846   1.246   0.377   7.974
 1035SOL     OW 3847   0.587   0.738   8.118
 1035SOL    HW1 3848   0.628   0.823   8.103
 1035SOL    HW2 3849   0.519   0.731   8.051
 1036SOL     OW 3850   1.763   0.365   9.092
 1036SOL    HW1 3851   1.747   0.378   8.998
 1036SOL    HW2 3852   1.685   0.319   9.123
 1037SOL     OW 3853   1.745   0.933   8.960
 1037SOL    HW1 3854   1.743   1.028   8.974
 1037SOL    HW2 3855   1.730   0.922   8.867
 1038SOL     OW 3856   0.863   1.367   7.481
 1038SOL    HW1 3857   0.824   1.394   7.565
 1038SOL    HW2 3858   0.880   1.450   7.436
 1039SOL     OW 3859   0.660   1.792   8.394
 1039SOL    HW1 3860   0.640   1.882   8.369
 1039SOL    HW2 3861   0.755   1.786   8.386
 1040SOL     OW 3862   0.868   0.967   8.303
 1040SOL    HW1 3863   0.917   0.895   8.342
 1040SOL    HW2 3864   0.833   1.016   8.378
 1041SOL     OW 3865   1.080   0.989   7.537
 1041SOL    HW1 3866   1.057   1.039   7.459
 1041SOL    HW2 3867   1.154   0.935   7.510
 1042SOL     OW 3868   1.854   1.547   8.287
 1042SOL    HW1 3869   1.770   1.540   8.241
 1042SOL    HW2 3870   1.844   1.489   8.363
 1043SOL     OW 3871   0.230   1.306   9.306
 1043SOL    HW1 3872   0.157   1.248   9.283
 1043SOL    HW2 3873   0.224   1.316   9.401
 1044SOL     OW 3874   0.106   1.236   8.116
 1044SOL    HW1 3875   0.117   1.189   8.199
 1044SOL    HW2 3876   0.166   1.192   8.055
 1045SOL     OW 3877   0.682   1.402   9.076
 1045SOL    HW1 3878   0.602   1.359   9.104
 1045SOL    HW2 3879   0.676   1.490   9.113
 1046SOL     OW 3880   1.809   0.182   8.686
 1046SOL    HW1 3881   1.807   0.088   8.707
 1046SOL    HW2 3882   1.825   0.185   8.592
 1047SOL     OW 3883   0.440   0.431   7.979
 1047SOL    HW1 3884   0.458   0.361   7.916
 1047SOL    HW2 3885   0.381   0.392   8.043
 1048SOL     OW 3886   1.704   1.485   8.539
 1048SOL    HW1 3887   1.620   1.463   8.499
 1048SOL    HW2 3888   1.716   1.420   8.608
 1049SOL     OW 3889   0.312   0.506   8.702
 1049SOL    HW1 3890   0.383   0.455   8.741
 1049SOL    HW2 3891   0.337   0.515   8.610
 1050SOL     OW 3892   0.827   1.578   8.126
 1050SOL    HW1 3893   0.815   1.630   8.047
 1050SOL    HW2 3894   0.750   1.521   8.130
 1051SOL     OW 3895   1.432   0.216   8.566
 1051SOL    HW1 3896   1.468   0.145   8.619
 1051SOL    HW2 3897   1.381   0.269   8.627
 1052SOL     OW 3898   0.996   0.008   8.598
 1052SOL    HW1 3899   0.953   4.423   8.589
 1052SOL    HW2 3900   1.089   4.487   8.610
 1053SOL     OW 3901   0.772   1.332   7.761
 1053SOL    HW1 3902   0.740   1.242   7.767
 1053SOL    HW2 3903   0.854   1.333   7.811
 1054SOL     OW 3904   0.621   1.557   8.733
 1054SOL    HW1 3905   0.623   1.638   8.783
 1054SOL    HW2 3906   0.708   1.549   8.695
 1055SOL     OW 3907   1.340   0.053   7.601
 1055SOL    HW1 3908   1.380   4.477   7.557
 1055SOL    HW2 3909   1.265   0.017   7.648
 1056SOL     OW 3910   1.314   0.463   8.125
 1056SOL    HW1 3911   1.255   0.537   8.126
 1056SOL    HW2 3912   1.303   0.422   8.211
 1057SOL     OW 3913   1.585   0.200   8.316
 1057SOL    HW1 3914   1.526   0.215   8.389
 1057SOL    HW2 3915   1.588   0.284   8.269
 1058SOL     OW 3916   0.041   1.052   7.736
 1058SOL    HW1 3917   0.135   1.036   7.726
 1058SOL    HW2 3918   0.020   1.019   7.823
 1059SOL     OW 3919   0.884   1.652   7.790
 1059SOL    HW1 3920   0.812   1.634   7.730
 1059SOL    HW2 3921   0.855   1.727   7.842
 1060SOL     OW 3922   0.247   0.627   9.431
 1060SOL    HW1 3923   0.172   0.607   9.487
 1060SOL    HW2 3924   0.214   0.613   9.342
 1061SOL     OW 3925   0.196   0.293  10.300
 1061SOL    HW1 3926   0.230   0.269  10.386
 1061SOL    HW2 3927   0.133   0.224  10.279
 1062SOL     OW 3928   0.004   0.381   9.950
 1062SOL    HW1 3929   4.426   0.418   9.991
 1062SOL    HW2 3930   4.471   0.309   9.896
 1063SOL     OW 3931   0.568   1.286  10.486
 1063SOL    HW1 3932   0.481   1.291  10.446
 1063SOL    HW2 3933   0.583   1.375  10.520
 1064SOL     OW 3934   1.561   1.512  10.017
 1064SOL    HW1 3935   1.518   1.492  10.100
 1064SOL    HW2 3936   1.489   1.516   9.954
 1065SOL     OW 3937   1.134   0.699  10.009
 1065SOL    HW1 3938   1.181   0.782   9.999
 1065SOL    HW2 3939   1.084   0.709  10.090
 1066SOL     OW 3940   1.767   0.607   9.538
 1066SOL    HW1 3941   1.746   0.597   9.445
 1066SOL    HW2 3942   1.734   0.527   9.579
 1067SOL     OW 3943   0.756   1.143  10.351
 1067SOL    HW1 3944   0.687   1.178  10.407
 1067SOL    HW2 3945   0.791   1.220  10.305
 1068SOL     OW 3946   0.853   0.776   0.021
 1068SOL    HW1 3947   0.861   0.832   0.098
 1068SOL    HW2 3948   0.886   0.830  11.049
 1069SOL     OW 3949   0.685   1.004   9.957
 1069SOL    HW1 3950   0.751   0.991  10.026
 1069SOL    HW2 3951   0.616   1.055  10.000
 1070SOL     OW 3952   0.336   1.421  10.378
 1070SOL    HW1 3953   0.254   1.402  10.333
 1070SOL    HW2 3954   0.386   1.475  10.317
 1071SOL     OW 3955   1.463   1.500  10.659
 1071SOL    HW1 3956   1.518   1.577  10.666
 1071SOL    HW2 3957   1.411   1.499  10.739
 1072SOL     OW 3958   0.441   0.390  10.785
 1072SOL    HW1 3959   0.529   0.351  10.788
 1072SOL    HW2 3960   0.391   0.341  10.850
 1073SOL     OW 3961   1.611   0.446  10.048
 1073SOL    HW1 3962   1.531   0.468  10.001
 1073SOL    HW2 3963   1.630   0.524  10.101
 1074SOL     OW 3964   0.245   1.692   9.787
 1074SOL    HW1 3965   0.231   1.776   9.829
 1074SOL    HW2 3966   0.313   1.709   9.722
 1075SOL     OW 3967   0.248   1.427   9.837
 1075SOL    HW1 3968   0.239   1.522   9.840
 1075SOL    HW2 3969   0.185   1.395   9.901
 1076SOL     OW 3970   0.247   1.082  10.194
 1076SOL    HW1 3971   0.264   0.992  10.223
 1076SOL    HW2 3972   0.188   1.118  10.260
 1077SOL     OW 3973   0.612   1.790  10.739
 1077SOL    HW1 3974   0.532   1.771  10.787
 1077SOL    HW2 3975   0.634   1.880  10.763
 1078SOL     OW 3976   0.580   0.986   9.448
 1078SOL    HW1 3977   0.627   1.030   9.377
 1078SOL    HW2 3978   0.625   1.015   9.527
 1079SOL     OW 3979   1.554   0.136  10.784
 1079SOL    HW1 3980   1.601   0.192  10.722
 1079SOL    HW2 3981   1.614   0.127  10.858
 1080SOL     OW 3982   0.135   0.643   9.884
 1080SOL    HW1 3983   0.084   0.564   9.902
 1080SOL    HW2 3984   0.107   0.706   9.951
 1081SOL     OW 3985   1.840   1.741   9.648
 1081SOL    HW1 3986   1.908   1.723   9.712
 1081SOL    HW2 3987   1.848   1.834   9.629
 1082SOL     OW 3988   0.032   1.602   9.450
 1082SOL    HW1 3989   0.021   1.507   9.447
 1082SOL    HW2 3990   0.020   1.625   9.542
 1083SOL     OW 3991   1.690   0.920   9.950
 1083SOL    HW1 3992   1.774   0.878   9.929
 1083SOL    HW2 3993   1.668   0.969   9.871
 1084SOL     OW 3994   1.646   1.107   9.739
 1084SOL    HW1 3995   1.732   1.114   9.697
 1084SOL    HW2 3996   1.651   1.168   9.813
 1085SOL     OW 3997   0.096   0.761  10.910
 1085SOL    HW1 3998   0.186   0.744  10.881
 1085SOL    HW2 3999   0.088   0.856  10.909
 1086SOL     OW 4000   0.613   1.385  10.046
 1086SOL    HW1 4001   0.566   1.302  10.055
 1086SOL    HW2 4002   0.597   1.411   9.956
 1087SOL     OW 4003   1.295   1.237  10.752
 1087SOL    HW1 4004   1.319   1.177  10.682
 1087SOL    HW2 4005   1.351   1.213  10.825
 1088SOL     OW 4006   0.820   0.013   9.861
 1088SOL    HW1 4007   0.854   0.099   9.836
 1088SOL    HW2 4008   0.725   0.021   9.849
 1089SOL     OW 4009   0.178   0.940  10.590
 1089SOL    HW1 4010   0.270   0.922  10.570
 1089SOL    HW2 4011   0.133   0.924  10.507
 1090SOL     OW 4012   1.532   0.992   9.508
 1090SOL    HW1 4013   1.461   0.936   9.540
 1090SOL    HW2 4014   1.572   1.027   9.588
 1091SOL     OW 4015   1.195   1.806  10.927
 1091SOL    HW1 4016   1.196   1.869  10.856
 1091SOL    HW2 4017   1.204   1.721  10.885
 1092SOL     OW 4018   0.326   0.292  11.061
 1092SOL    HW1 4019   0.389   0.334   0.019
 1092SOL    HW2 4020   0.246   0.285   0.013
 1093SOL     OW 4021   1.466   1.419  10.261
 1093SOL    HW1 4022   1.397   1.435  10.326
 1093SOL    HW2 4023   1.453   1.328  10.235
 1094SOL     OW 4024   1.657   1.738   9.888
 1094SOL    HW1 4025   1.637   1.707   9.800
 1094SOL    HW2 4026   1.633   1.665   9.946
 1095SOL     OW 4027   0.596   0.723   9.575
 1095SOL    HW1 4028   0.599   0.804   9.525
 1095SOL    HW2 4029   0.530   0.739   9.643
 1096SOL     OW 4030   1.291   0.362  10.243
 1096SOL    HW1 4031   1.202   0.332  10.228
 1096SOL    HW2 4032   1.327   0.299  10.306
 1097SOL     OW 4033   1.576   1.669   9.618
 1097SOL    HW1 4034   1.669   1.691   9.613
 1097SOL    HW2 4035   1.550   1.653   9.528
 1098SOL     OW 4036   0.797   0.618  10.764
 1098SOL    HW1 4037   0.768   0.592  10.852
 1098SOL    HW2 4038   0.756   0.554  10.706
 1099SOL     OW 4039   0.965   0.899  10.902
 1099SOL    HW1 4040   1.014   0.826  10.862
 1099SOL    HW2 4041   0.915   0.936  10.829
 1100SOL     OW 4042   0.997   0.419  10.545
 1100SOL    HW1 4043   0.910   0.427  10.584
 1100SOL    HW2 4044   0.984   0.365  10.467
 1101SOL     OW 4045   1.050   0.698   9.737
 1101SOL    HW1 4046   1.066   0.690   9.831
 1101SOL    HW2 4047   0.967   0.651   9.723
 1102SOL     OW 4048   0.098   0.826  10.093
 1102SOL    HW1 4049   0.184   0.809  10.131
 1102SOL    HW2 4050   0.045   0.856  10.167
 1103SOL     OW 4051   0.117   1.851  10.900
 1103SOL    HW1 4052   0.115   1.790  10.974
 1103SOL    HW2 4053   0.051   1.818  10.839
 1104SOL     OW 4054   0.853   0.368   9.489
 1104SOL    HW1 4055   0.927   0.403   9.440
 1104SOL    HW2 4056   0.870   0.275   9.496
 1105SOL     OW 4057   1.377   1.143   9.851
 1105SOL    HW1 4058   1.455   1.130   9.798
 1105SOL    HW2 4059   1.324   1.204   9.801
 1106SOL     OW 4060   0.543   0.204  10.210
 1106SOL    HW1 4061   0.561   0.223  10.303
 1106SOL    HW2 4062   0.534   0.291  10.170
 1107SOL     OW 4063   1.006   1.445   9.782
 1107SOL    HW1 4064   0.968   1.517   9.733
 1107SOL    HW2 4065   0.989   1.466   9.874
 1108SOL     OW 4066   0.355   1.810  10.168
 1108SOL    HW1 4067   0.398   1.725  10.178
 1108SOL    HW2 4068   0.425   1.873  10.184
 1109SOL     OW 4069   1.799   1.058  10.177
 1109SOL    HW1 4070   1.743   1.039  10.101
 1109SOL    HW2 4071   1.738   1.063  10.251
 1110SOL     OW 4072   1.227   1.538  10.825
 1110SOL    HW1 4073   1.236   1.449  10.860
 1110SOL    HW2 4074   1.166   1.528  10.752
 1111SOL     OW 4075   0.316   0.954   9.563
 1111SOL    HW1 4076   0.400   0.977   9.523
 1111SOL    HW2 4077   0.300   0.864   9.535
 1112SOL     OW 4078   1.479   0.742  10.035
 1112SOL    HW1 4079   1.467   0.697  10.119
 1112SOL    HW2 4080   1.556   0.797  10.048
 1113SOL     OW 4081   0.455   1.268  11.052
 1113SOL    HW1 4082   0.426   1.280  10.961
 1113SOL    HW2 4083   0.388   1.212  11.091
 1114SOL     OW 4084   1.122   1.778   9.541
 1114SOL    HW1 4085   1.049   1.736   9.587
 1114SOL    HW2 4086   1.144   1.717   9.471
 1115SOL     OW 4087   0.163   0.260  10.821
 1115SOL    HW1 4088   0.139   0.349  10.795
 1115SOL    HW2 4089   0.205   0.270  10.906
 1116SOL     OW 4090   1.628   1.380   9.398
 1116SOL    HW1 4091   1.587   1.465   9.382
 1116SOL    HW2 4092   1.560   1.316   9.379
 1117SOL     OW 4093   0.469   1.743   9.624
 1117SOL    HW1 4094   0.511   1.797   9.692
 1117SOL    HW2 4095   0.542   1.709   9.572
 1118SOL     OW 4096   1.420   0.138   9.728
 1118SOL    HW1 4097   1.404   0.086   9.648
 1118SOL    HW2 4098   1.514   0.131   9.741
 1119SOL     OW 4099   0.254   1.790  10.546
 1119SOL    HW1 4100   0.304   1.718  10.584
 1119SOL    HW2 4101   0.228   1.757  10.459
 1120SOL     OW 4102   0.938   1.699  10.209
 1120SOL    HW1 4103   1.016   1.647  10.230
 1120SOL    HW2 4104   0.894   1.649  10.141
 1121SOL     OW 4105   0.394   0.693   9.783
 1121SOL    HW1 4106   0.419   0.602   9.795
 1121SOL    HW2 4107   0.302   0.697   9.809
 1122SOL     OW 4108   0.624   0.121   9.428
 1122SOL    HW1 4109   0.712   0.086   9.440
 1122SOL    HW2 4110   0.595   0.084   9.345
 1123SOL     OW 4111   0.767   0.272  11.043
 1123SOL    HW1 4112   0.829   0.205  11.072
 1123SOL    HW2 4113   0.711   0.288   0.019
 1124SOL     OW 4114   0.876   1.521  10.503
 1124SOL    HW1 4115   0.860   1.486  10.416
 1124SOL    HW2 4116   0.948   1.469  10.538
 1125SOL     OW 4117   1.344   0.590  10.753
 1125SOL    HW1 4118   1.394   0.573  10.833
 1125SOL    HW2 4119   1.370   0.678  10.727
 1126SOL     OW 4120   0.815   1.396  10.249
 1126SOL    HW1 4121   0.899   1.384  10.204
 1126SOL    HW2 4122   0.750   1.396  10.178
 1127SOL     OW 4123   0.923   0.518  10.210
 1127SOL    HW1 4124   0.907   0.516  10.116
 1127SOL    HW2 4125   0.961   0.432  10.230
 1128SOL     OW 4126   0.561   0.068   9.818
 1128SOL    HW1 4127   0.474   0.055   9.856
 1128SOL    HW2 4128   0.548   0.139   9.755
 1129SOL     OW 4129   1.428   1.198   9.351
 1129SOL    HW1 4130   1.458   1.122   9.401
 1129SOL    HW2 4131   1.342   1.219   9.388
 1130SOL     OW 4132   0.304   0.074   9.497
 1130SOL    HW1 4133   0.388   0.121   9.495
 1130SOL    HW2 4134   0.320   4.499   9.555
 1131SOL     OW 4135   0.953   0.240   9.779
 1131SOL    HW1 4136   0.901   0.295   9.721
 1131SOL    HW2 4137   1.041   0.276   9.773
 1132SOL     OW 4138   1.079   0.685  10.772
 1132SOL    HW1 4139   1.007   0.622  10.773
 1132SOL    HW2 4140   1.158   0.631  10.767
 1133SOL     OW 4141   1.224   1.570  10.104
 1133SOL    HW1 4142   1.241   1.637  10.038
 1133SOL    HW2 4143   1.292   1.583  10.170
 1134SOL     OW 4144   0.466   1.149  10.046
 1134SOL    HW1 4145   0.395   1.130  10.108
 1134SOL    HW2 4146   0.428   1.133   9.960
 1135SOL     OW 4147   1.269   1.794   9.917
 1135SOL    HW1 4148   1.314   1.856   9.859
 1135SOL    HW2 4149   1.203   1.847   9.962
 1136SOL     OW 4150   1.029   0.548   9.327
 1136SOL    HW1 4151   0.981   0.629   9.311
 1136SOL    HW2 4152   1.088   0.568   9.399
 1137SOL     OW 4153   0.087   0.519  10.723
 1137SOL    HW1 4154   0.151   0.528  10.653
 1137SOL    HW2 4155   0.064   0.608  10.747
 1138SOL     OW 4156   0.561   0.245  10.476
 1138SOL    HW1 4157   0.589   0.159  10.506
 1138SOL    HW2 4158   0.468   0.249  10.499
 1139SOL     OW 4159   0.865   0.503   9.936
 1139SOL    HW1 4160   0.819   0.544   9.863
 1139SOL    HW2 4161   0.834   0.413   9.937
 1140SOL     OW 4162   0.964   0.026  10.092
 1140SOL    HW1 4163   0.915   0.024  10.010
 1140SOL    HW2 4164   0.977   4.434  10.114
 1141SOL     OW 4165   1.436   1.163  10.167
 1141SOL    HW1 4166   1.368   1.095  10.166
 1141SOL    HW2 4167   1.459   1.174  10.075
 1142SOL     OW 4168   1.466   0.605  10.285
 1142SOL    HW1 4169   1.413   0.525  10.287
 1142SOL    HW2 4170   1.524   0.597  10.361
 1143SOL     OW 4171   1.846   0.817   9.693
 1143SOL    HW1 4172   1.902   0.765   9.750
 1143SOL    HW2 4173   1.817   0.755   9.625
 1144SOL     OW 4174   0.492   1.417   9.470
 1144SOL    HW1 4175   0.415   1.388   9.519
 1144SOL    HW2 4176   0.474   1.390   9.380
 1145SOL     OW 4177   1.670   1.265   9.955
 1145SOL    HW1 4178   1.765   1.269   9.970
 1145SOL    HW2 4179   1.639   1.353   9.978
 1146SOL     OW 4180   1.394   0.570   9.380
 1146SOL    HW1 4181   1.333   0.555   9.451
 1146SOL    HW2 4182   1.480   0.552   9.417
 1147SOL     OW 4183   0.522   0.264   9.631
 1147SOL    HW1 4184   0.570   0.215   9.565
 1147SOL    HW2 4185   0.506   0.349   9.590
 1148SOL     OW 4186   1.761   1.229  10.871
 1148SOL    HW1 4187   1.852   1.201  10.869
 1148SOL    HW2 4188   1.763   1.317  10.909
 1149SOL     OW 4189   1.064   1.353  10.649
 1149SOL    HW1 4190   0.986   1.321  10.694
 1149SOL    HW2 4191   1.136   1.306  10.689
 1150SOL     OW 4192   1.129   1.206  10.416
 1150SOL    HW1 4193   1.064   1.240  10.477
 1150SOL    HW2 4194   1.097   1.234  10.330
 1151SOL     OW 4195   1.630   1.099  10.388
 1151SOL    HW1 4196   1.626   1.160  10.461
 1151SOL    HW2 4197   1.550   1.116  10.338
 1152SOL     OW 4198   0.898   0.127  10.697
 1152SOL    HW1 4199   0.926   0.088  10.614
 1152SOL    HW2 4200   0.979   0.146  10.743
 1153SOL     OW 4201   0.708   1.061   9.682
 1153SOL    HW1 4202   0.696   1.045   9.776
 1153SOL    HW2 4203   0.784   1.007   9.659
 1154SOL     OW 4204   0.428   0.825  10.551
 1154SOL    HW1 4205   0.496   0.832  10.618
 1154SOL    HW2 4206   0.370   0.756  10.585
 1155SOL     OW 4207   1.271   0.382  10.581
 1155SOL    HW1 4208   1.301   0.459  10.629
 1155SOL    HW2 4209   1.181   0.404  10.554
 1156SOL     OW 4210   0.063   1.578  10.657
 1156SOL    HW1 4211   0.039   1.664  10.622
 1156SOL    HW2 4212   0.159   1.579  10.658
 1157SOL     OW 4213   0.347   1.108   9.803
 1157SOL    HW1 4214   0.357   1.182   9.743
 1157SOL    HW2 4215   0.348   1.031   9.747
 1158SOL     OW 4216   0.564   0.526  10.163
 1158SOL    HW1 4217   0.576   0.587  10.090
 1158SOL    HW2 4218   0.623   0.558  10.231
 1159SOL     OW 4219   1.248   1.348   9.699
 1159SOL    HW1 4220   1.304   1.420   9.730
 1159SOL    HW2 4221   1.161   1.369   9.733
 1160SOL     OW 4222   1.279   1.459  10.455
 1160SOL    HW1 4223   1.336   1.462  10.531
 1160SOL    HW2 4224   1.226   1.380  10.468
 1161SOL     OW 4225   1.582   0.624   9.787
 1161SOL    HW1 4226   1.536   0.674   9.853
 1161SOL    HW2 4227   1.626   0.689   9.733
 1162SOL     OW 4228   0.346   1.528  10.625
 1162SOL    HW1 4229   0.334   1.482  10.542
 1162SOL    HW2 4230   0.441   1.540  10.631
 1163SOL     OW 4231   0.490   0.749  10.972
 1163SOL    HW1 4232   0.522   0.785  10.889
 1163SOL    HW2 4233   0.526   0.660  10.975
 1164SOL     OW 4234   1.594   0.759  10.969
 1164SOL    HW1 4235   1.517   0.816  10.964
 1164SOL    HW2 4236   1.663   0.809  10.926
 1165SOL     OW 4237   0.588   0.874  10.334
 1165SOL    HW1 4238   0.618   0.965  10.337
 1165SOL    HW2 4239   0.532   0.865  10.411
 1166SOL     OW 4240   1.358   0.860  10.344
 1166SOL    HW1 4241   1.276   0.852  10.296
 1166SOL    HW2 4242   1.399   0.774  10.337
 1167SOL     OW 4243   1.204   0.535   9.573
 1167SOL    HW1 4244   1.210   0.455   9.625
 1167SOL    HW2 4245   1.161   0.598   9.631
 1168SOL     OW 4246   0.285   0.216  10.546
 1168SOL    HW1 4247   0.253   0.233  10.634
 1168SOL    HW2 4248   0.322   0.128  10.551
 1169SOL     OW 4249   0.041   1.315  10.595
 1169SOL    HW1 4250   0.075   1.266  10.670
 1169SOL    HW2 4251   0.044   1.406  10.623
 1170SOL     OW 4252   0.724   0.631  10.368
 1170SOL    HW1 4253   0.798   0.611  10.311
 1170SOL    HW2 4254   0.698   0.720  10.343
 1171SOL     OW 4255   0.320   0.074   9.941
 1171SOL    HW1 4256   0.302   0.163   9.973
 1171SOL    HW2 4257   0.308   0.018  10.018
 1172SOL     OW 4258   1.614   0.377   9.673
 1172SOL    HW1 4259   1.643   0.314   9.739
 1172SOL    HW2 4260   1.591   0.455   9.724
 1173SOL     OW 4261   1.028   0.762  10.271
 1173SOL    HW1 4262   1.025   0.777  10.366
 1173SOL    HW2 4263   0.999   0.671  10.261
 1174SOL     OW 4264   0.973   1.572  11.004
 1174SOL    HW1 4265   0.959   1.622  10.924
 1174SOL    HW2 4266   1.005   1.487  10.974
 1175SOL     OW 4267   1.859   1.492  10.912
 1175SOL    HW1 4268   1.871   1.527  10.824
 1175SOL    HW2 4269   1.921   1.541  10.966
 1176SOL     OW 4270   0.348   0.934  11.094
 1176SOL    HW1 4271   0.421   0.964   0.048
 1176SOL    HW2 4272   0.384   0.862  11.043
 1177SOL     OW 4273   1.531   0.265   9.438
 1177SOL    HW1 4274   1.459   0.209   9.467
 1177SOL    HW2 4275   1.560   0.310   9.517
 1178SOL     OW 4276   1.292   0.826   9.341
 1178SOL    HW1 4277   1.334   0.740   9.343
 1178SOL    HW2 4278   1.323   0.866   9.259
 1179SOL     OW 4279   1.066   1.335  10.164
 1179SOL    HW1 4280   1.069   1.263  10.101
 1179SOL    HW2 4281   1.127   1.399  10.129
 1180SOL     OW 4282   0.318   0.812  10.258
 1180SOL    HW1 4283   0.412   0.830  10.255
 1180SOL    HW2 4284   0.311   0.721  10.287
 1181SOL     OW 4285   0.335   0.530  10.301
 1181SOL    HW1 4286   0.291   0.447  10.283
 1181SOL    HW2 4287   0.413   0.528  10.245
 1182SOL     OW 4288   1.149   0.218  10.768
 1182SOL    HW1 4289   1.172   0.261  10.851
 1182SOL    HW2 4290   1.192   0.270  10.701
 1183SOL     OW 4291   4.491   1.322   9.514
 1183SOL    HW1 4292   4.399   1.338   9.497
 1183SOL    HW2 4293   4.496   1.229   9.536
 1184SOL     OW 4294   0.096   1.776  10.249
 1184SOL    HW1 4295   0.059   1.722  10.180
 1184SOL    HW2 4296   0.184   1.798  10.218
 1185SOL     OW 4297   0.497   1.574  10.217
 1185SOL    HW1 4298   0.565   1.637  10.240
 1185SOL    HW2 4299   0.541   1.510  10.160
 1186SOL     OW 4300   0.984   0.795  10.538
 1186SOL    HW1 4301   1.039   0.772  10.613
 1186SOL    HW2 4302   0.899   0.754  10.556
 1187SOL     OW 4303   0.034   0.565  10.417
 1187SOL    HW1 4304   0.114   0.526  10.380
 1187SOL    HW2 4305   0.021   0.518  10.499
 1188SOL     OW 4306   0.811   0.574   9.665
 1188SOL    HW1 4307   0.814   0.502   9.601
 1188SOL    HW2 4308   0.739   0.629   9.636
 1189SOL     OW 4309   1.641   0.601  10.496
 1189SOL    HW1 4310   1.631   0.543  10.571
 1189SOL    HW2 4311   1.728   0.582  10.462
 1190SOL     OW 4312   0.263   1.574  11.055
 1190SOL    HW1 4313   0.209   1.599   0.031
 1190SOL    HW2 4314   0.246   1.480  11.044
 1191SOL     OW 4315   0.693   0.461  10.576
 1191SOL    HW1 4316   0.649   0.383  10.543
 1191SOL    HW2 4317   0.696   0.521  10.501
 1192SOL     OW 4318   0.940   1.682  10.758
 1192SOL    HW1 4319   0.902   1.649  10.676
 1192SOL    HW2 4320   0.925   1.777  10.755
 1193SOL     OW 4321   0.472   0.491   9.493
 1193SOL    HW1 4322   0.532   0.562   9.516
 1193SOL    HW2 4323   0.389   0.534   9.478
 1194SOL     OW 4324   0.163   1.142  10.769
 1194SOL    HW1 4325   0.138   1.101  10.852
 1194SOL    HW2 4326   0.168   1.069  10.707
 1195SOL     OW 4327   1.325   1.053  10.538
 1195SOL    HW1 4328   1.351   0.987  10.473
 1195SOL    HW2 4329   1.254   1.101  10.495
 1196SOL     OW 4330   1.311   0.856   9.616
 1196SOL    HW1 4331   1.236   0.827   9.667
 1196SOL    HW2 4332   1.285   0.843   9.525
 1197SOL     OW 4333   1.764   1.747  10.457
 1197SOL    HW1 4334   1.831   1.772  10.394
 1197SOL    HW2 4335   1.746   1.655  10.437
 1198SOL     OW 4336   1.241   1.734  10.423
 1198SOL    HW1 4337   1.323   1.755  10.379
 1198SOL    HW2 4338   1.246   1.640  10.441
 1199SOL     OW 4339   0.067   1.185  10.360
 1199SOL    HW1 4340   0.068   1.218  10.450
 1199SOL    HW2 4341   0.020   1.253  10.310
 1200SOL     OW 4342   1.718   0.129   9.803
 1200SOL    HW1 4343   1.790   0.138   9.741
 1200SOL    HW2 4344   1.745   0.057   9.861
 1201SOL     OW 4345   1.389   1.567   9.795
 1201SOL    HW1 4346   1.449   1.599   9.727
 1201SOL    HW2 4347   1.341   1.645   9.823
 1202SOL     OW 4348   1.278   0.927   9.983
 1202SOL    HW1 4349   1.351   0.865   9.987
 1202SOL    HW2 4350   1.312   1.000   9.930
 1203SOL     OW 4351   0.819   1.274  10.738
 1203SOL    HW1 4352   0.788   1.308  10.822
 1203SOL    HW2 4353   0.749   1.295  10.676
 1204SOL     OW 4354   0.672   1.619   9.465
 1204SOL    HW1 4355   0.682   1.630   9.371
 1204SOL    HW2 4356   0.618   1.541   9.474
 1205SOL     OW 4357   1.621   1.719  10.696
 1205SOL    HW1 4358   1.675   1.735  10.619
 1205SOL    HW2 4359   1.605   1.807  10.732
 1206SOL     OW 4360   1.839   0.155  10.276
 1206SOL    HW1 4361   1.868   0.077  10.229
 1206SOL    HW2 4362   1.752   0.174  10.240
 1207SOL     OW 4363   0.264   0.325  10.033
 1207SOL    HW1 4364   0.181   0.359  10.000
 1207SOL    HW2 4365   0.250   0.316  10.128
 1208SOL     OW 4366   1.207   1.606   9.341
 1208SOL    HW1 4367   1.198   1.515   9.368
 1208SOL    HW2 4368   1.142   1.618   9.272
 1209SOL     OW 4369   0.826   1.006  10.686
 1209SOL    HW1 4370   0.869   0.999  10.600
 1209SOL    HW2 4371   0.826   1.100  10.705
 1210SOL     OW 4372   0.915   0.910   9.600
 1210SOL    HW1 4373   0.977   0.942   9.534
 1210SOL    HW2 4374   0.962   0.840   9.645
 1211SOL     OW 4375   1.492   1.625   9.352
 1211SOL    HW1 4376   1.398   1.619   9.338
 1211SOL    HW2 4377   1.529   1.631   9.263
 1212SOL     OW 4378   0.368   1.311  10.806
 1212SOL    HW1 4379   0.355   1.386  10.747
 1212SOL    HW2 4380   0.296   1.251  10.785
 1213SOL     OW 4381   1.612   1.282  10.592
 1213SOL    HW1 4382   1.671   1.270  10.667
 1213SOL    HW2 4383   1.555   1.355  10.617
 1214SOL     OW 4384   1.051   1.107  10.016
 1214SOL    HW1 4385   0.981   1.056  10.055
 1214SOL    HW2 4386   1.114   1.041   9.985
 1215SOL     OW 4387   1.006   0.244  10.314
 1215SOL    HW1 4388   1.011   0.220  10.221
 1215SOL    HW2 4389   0.998   0.160  10.359
 1216SOL     OW 4390   0.604   1.489   9.793
 1216SOL    HW1 4391   0.645   1.439   9.722
 1216SOL    HW2 4392   0.530   1.534   9.751
 1217SOL     OW 4393   1.719   0.394  10.689
 1217SOL    HW1 4394   1.791   0.456  10.691
 1217SOL    HW2 4395   1.748   0.324  10.631
 1218SOL     OW 4396   0.252   1.344   9.586
 1218SOL    HW1 4397   0.157   1.343   9.572
 1218SOL    HW2 4398   0.263   1.376   9.676
 1219SOL     OW 4399   0.110   1.019  11.003
 1219SOL    HW1 4400   0.053   1.024  11.080
 1219SOL    HW2 4401   0.197   1.000  11.039
 1220SOL     OW 4402   0.655   0.198  10.803
 1220SOL    HW1 4403   0.734   0.172  10.755
 1220SOL    HW2 4404   0.687   0.226  10.889
 1221SOL     OW 4405   0.071   0.320   9.336
 1221SOL    HW1 4406   4.477   0.328   9.350
 1221SOL    HW2 4407   0.099   0.407   9.305
 1222SOL     OW 4408   1.429   0.849  10.709
 1222SOL    HW1 4409   1.381   0.917  10.662
 1222SOL    HW2 4410   1.520   0.858  10.679
 1223SOL     OW 4411   0.085   0.188   9.612
 1223SOL    HW1 4412   0.077   0.261   9.550
 1223SOL    HW2 4413   0.164   0.142   9.586
 1224SOL     OW 4414   1.179   1.340   9.427
 1224SOL    HW1 4415   1.088   1.310   9.429
 1224SOL    HW2 4416   1.207   1.340   9.518
 1225SOL     OW 4417   0.624   0.828  10.739
 1225SOL    HW1 4418   0.678   0.906  10.725
 1225SOL    HW2 4419   0.686   0.756  10.747
 1226SOL     OW 4420   1.485   1.776  10.289
 1226SOL    HW1 4421   1.510   1.837  10.219
 1226SOL    HW2 4422   1.567   1.759  10.336
 1227SOL     OW 4423   0.713   0.562  11.014
 1227SOL    HW1 4424   0.748   0.634  11.067
 1227SOL    HW2 4425   0.762   0.485  11.043
 1228SOL     OW 4426   0.383   1.738  10.872
 1228SOL    HW1 4427   0.307   1.795  10.865
 1228SOL    HW2 4428   0.356   1.668  10.932
 1229SOL     OW 4429   1.671   0.882  10.567
 1229SOL    HW1 4430   1.662   0.797  10.524
 1229SOL    HW2 4431   1.662   0.946  10.496
 1230SOL     OW 4432   1.218   0.330   9.757
 1230SOL    HW1 4433   1.283   0.260   9.747
 1230SOL    HW2 4434   1.246   0.377   9.836
 1231SOL     OW 4435   0.587   0.738   9.980
 1231SOL    HW1 4436   0.628   0.823   9.964
 1231SOL    HW2 4437   0.519   0.731   9.913
 1232SOL     OW 4438   1.750   0.313  10.952
 1232SOL    HW1 4439   1.733   0.353  10.866
 1232SOL    HW2 4440   1.673   0.333  11.004
 1233SOL     OW 4441   1.748   0.935  10.826
 1233SOL    HW1 4442   1.742   1.030  10.840
 1233SOL    HW2 4443   1.731   0.924  10.732
 1234SOL     OW 4444   0.863   1.367   9.343
 1234SOL    HW1 4445   0.824   1.394   9.426
 1234SOL    HW2 4446   0.881   1.449   9.297
 1235SOL     OW 4447   0.660   1.792  10.256
 1235SOL    HW1 4448   0.639   1.882  10.232
 1235SOL    HW2 4449   0.755   1.786  10.247
 1236SOL     OW 4450   0.867   0.967  10.165
 1236SOL    HW1 4451   0.917   0.895  10.203
 1236SOL    HW2 4452   0.833   1.015  10.240
 1237SOL     OW 4453   1.080   0.988   9.399
 1237SOL    HW1 4454   1.057   1.039   9.321
 1237SOL    HW2 4455   1.154   0.935   9.372
 1238SOL     OW 4456   1.855   1.552  10.152
 1238SOL    HW1 4457   1.773   1.542  10.103
 1238SOL    HW2 4458   1.846   1.492  10.226
 1239SOL     OW 4459   0.106   1.236   9.978
 1239SOL    HW1 4460   0.117   1.189  10.061
 1239SOL    HW2 4461   0.165   1.192   9.917
 1240SOL     OW 4462   0.680   1.395  10.939
 1240SOL    HW1 4463   0.608   1.344  10.975
 1240SOL    HW2 4464   0.646   1.484  10.933
 1241SOL     OW 4465   1.802   0.180  10.549
 1241SOL    HW1 4466   1.816   0.087  10.569
 1241SOL    HW2 4467   1.820   0.187  10.455
 1242SOL     OW 4468   0.440   0.431   9.841
 1242SOL    HW1 4469   0.457   0.361   9.778
 1242SOL    HW2 4470   0.381   0.392   9.905
 1243SOL     OW 4471   1.704   1.488  10.403
 1243SOL    HW1 4472   1.621   1.463  10.363
 1243SOL    HW2 4473   1.719   1.422  10.471
 1244SOL     OW 4474   0.307   0.507  10.566
 1244SOL    HW1 4475   0.373   0.455  10.611
 1244SOL    HW2 4476   0.338   0.513  10.476
 1245SOL     OW 4477   0.827   1.578   9.988
 1245SOL    HW1 4478   0.816   1.630   9.909
 1245SOL    HW2 4479   0.750   1.521   9.991
 1246SOL     OW 4480   1.431   0.215  10.429
 1246SOL    HW1 4481   1.471   0.147  10.484
 1246SOL    HW2 4482   1.382   0.270  10.490
 1247SOL     OW 4483   0.995   0.009  10.459
 1247SOL    HW1 4484   0.953   4.423  10.450
 1247SOL    HW2 4485   1.088   4.488  10.473
 1248SOL     OW 4486   0.772   1.332   9.623
 1248SOL    HW1 4487   0.740   1.242   9.630
 1248SOL    HW2 4488   0.854   1.333   9.673
 1249SOL     OW 4489   0.620   1.555  10.597
 1249SOL    HW1 4490   0.621   1.639  10.644
 1249SOL    HW2 4491   0.707   1.550  10.557
 1250SOL     OW 4492   1.340   0.053   9.463
 1250SOL    HW1 4493   1.379   4.477   9.419
 1250SOL    HW2 4494   1.265   0.017   9.510
 1251SOL     OW 4495   1.314   0.463   9.987
 1251SOL    HW1 4496   1.255   0.537   9.988
 1251SOL    HW2 4497   1.303   0.421  10.073
 1252SOL     OW 4498   1.585   0.200  10.178
 1252SOL    HW1 4499   1.526   0.215  10.251
 1252SOL    HW2 4500   1.588   0.284  10.132
 1253SOL     OW 4501   0.041   1.052   9.598
 1253SOL    HW1 4502   0.135   1.036   9.588
 1253SOL    HW2 4503   0.020   1.019   9.685
 1254SOL     OW 4504   0.884   1.652   9.653
 1254SOL    HW1 4505   0.812   1.634   9.592
 1254SOL    HW2 4506   0.854   1.727   9.704
 1255SOL     OW 4507   0.242   2.458   0.107
 1255SOL    HW1 4508   0.169   2.454   0.169
 1255SOL    HW2 4509   0.205   2.501   0.030
 1256SOL     OW 4510   0.212   2.137   0.992
 1256SOL    HW1 4511   0.249   2.111   1.076
 1256SOL    HW2 4512   0.137   2.079   0.979
 1257SOL     OW 4513   0.009   2.253   0.638
 1257SOL    HW1 4514   4.428   2.283   0.680
 1257SOL    HW2 4515   4.484   2.170   0.596
 1258SOL     OW 4516   0.568   3.148   1.175
 1258SOL    HW1 4517   0.480   3.153   1.136
 1258SOL    HW2 4518   0.583   3.236   1.210
 1259SOL     OW 4519   1.560   3.374   0.706
 1259SOL    HW1 4520   1.516   3.354   0.789
 1259SOL    HW2 4521   1.489   3.377   0.642
 1260SOL     OW 4522   1.130   2.561   0.701
 1260SOL    HW1 4523   1.180   2.641   0.688
 1260SOL    HW2 4524   1.083   2.575   0.784
 1261SOL     OW 4525   1.758   2.474   0.230
 1261SOL    HW1 4526   1.750   2.453   0.137
 1261SOL    HW2 4527   1.736   2.393   0.275
 1262SOL     OW 4528   0.756   3.005   1.040
 1262SOL    HW1 4529   0.687   3.039   1.096
 1262SOL    HW2 4530   0.791   3.082   0.995
 1263SOL     OW 4531   0.866   2.636   1.821
 1263SOL    HW1 4532   0.851   2.708   1.883
 1263SOL    HW2 4533   0.889   2.681   1.739
 1264SOL     OW 4534   0.686   2.866   0.648
 1264SOL    HW1 4535   0.751   2.853   0.716
 1264SOL    HW2 4536   0.616   2.917   0.689
 1265SOL     OW 4537   0.710   3.012   1.812
 1265SOL    HW1 4538   0.757   3.092   1.838
 1265SOL    HW2 4539   0.628   3.044   1.776
 1266SOL     OW 4540   0.335   3.283   1.069
 1266SOL    HW1 4541   0.254   3.264   1.023
 1266SOL    HW2 4542   0.386   3.338   1.009
 1267SOL     OW 4543   1.461   3.361   1.354
 1267SOL    HW1 4544   1.510   3.442   1.363
 1267SOL    HW2 4545   1.399   3.360   1.427
 1268SOL     OW 4546   0.444   2.266   1.493
 1268SOL    HW1 4547   0.524   2.213   1.497
 1268SOL    HW2 4548   0.373   2.203   1.498
 1269SOL     OW 4549   1.598   2.313   0.747
 1269SOL    HW1 4550   1.524   2.336   0.691
 1269SOL    HW2 4551   1.618   2.394   0.795
 1270SOL     OW 4552   0.245   3.553   0.482
 1270SOL    HW1 4553   0.232   3.640   0.521
 1270SOL    HW2 4554   0.304   3.568   0.409
 1271SOL     OW 4555   1.136   3.203   1.692
 1271SOL    HW1 4556   1.176   3.199   1.779
 1271SOL    HW2 4557   1.084   3.124   1.686
 1272SOL     OW 4558   0.245   3.289   0.528
 1272SOL    HW1 4559   0.239   3.384   0.529
 1272SOL    HW2 4560   0.180   3.261   0.592
 1273SOL     OW 4561   0.247   2.944   0.884
 1273SOL    HW1 4562   0.263   2.854   0.913
 1273SOL    HW2 4563   0.187   2.980   0.949
 1274SOL     OW 4564   0.614   3.653   1.432
 1274SOL    HW1 4565   0.531   3.634   1.475
 1274SOL    HW2 4566   0.634   3.743   1.456
 1275SOL     OW 4567   0.572   2.856   0.148
 1275SOL    HW1 4568   0.620   2.896   0.075
 1275SOL    HW2 4569   0.621   2.881   0.226
 1276SOL     OW 4570   1.594   1.983   1.472
 1276SOL    HW1 4571   1.603   2.060   1.416
 1276SOL    HW2 4572   1.582   2.018   1.560
 1277SOL     OW 4573   0.136   2.508   0.573
 1277SOL    HW1 4574   0.089   2.427   0.591
 1277SOL    HW2 4575   0.107   2.569   0.641
 1278SOL     OW 4576   1.842   3.622   0.334
 1278SOL    HW1 4577   1.905   3.592   0.399
 1278SOL    HW2 4578   1.868   3.712   0.315
 1279SOL     OW 4579   0.074   3.453   0.151
 1279SOL    HW1 4580   0.038   3.364   0.156
 1279SOL    HW2 4581   0.021   3.503   0.213
 1280SOL     OW 4582   1.690   2.780   0.641
 1280SOL    HW1 4583   1.772   2.737   0.617
 1280SOL    HW2 4584   1.667   2.832   0.563
 1281SOL     OW 4585   1.646   2.967   0.432
 1281SOL    HW1 4586   1.728   2.978   0.385
 1281SOL    HW2 4587   1.651   3.030   0.504
 1282SOL     OW 4588   0.111   2.625   1.584
 1282SOL    HW1 4589   0.203   2.623   1.557
 1282SOL    HW2 4590   0.092   2.717   1.601
 1283SOL     OW 4591   0.614   3.247   0.736
 1283SOL    HW1 4592   0.567   3.164   0.746
 1283SOL    HW2 4593   0.597   3.274   0.646
 1284SOL     OW 4594   1.289   3.101   1.423
 1284SOL    HW1 4595   1.321   3.033   1.364
 1284SOL    HW2 4596   1.346   3.094   1.500
 1285SOL     OW 4597   0.816   1.862   0.508
 1285SOL    HW1 4598   0.854   1.948   0.491
 1285SOL    HW2 4599   0.722   1.879   0.517
 1286SOL     OW 4600   0.180   2.802   1.280
 1286SOL    HW1 4601   0.272   2.785   1.259
 1286SOL    HW2 4602   0.133   2.787   1.197
 1287SOL     OW 4603   1.517   2.864   0.202
 1287SOL    HW1 4604   1.454   2.801   0.236
 1287SOL    HW2 4605   1.567   2.892   0.279
 1288SOL     OW 4606   1.186   3.668   1.622
 1288SOL    HW1 4607   1.197   3.726   1.546
 1288SOL    HW2 4608   1.201   3.580   1.587
 1289SOL     OW 4609   0.330   2.118   1.798
 1289SOL    HW1 4610   0.380   2.191   1.834
 1289SOL    HW2 4611   0.244   2.126   1.837
 1290SOL     OW 4612   1.467   3.281   0.952
 1290SOL    HW1 4613   1.398   3.296   1.017
 1290SOL    HW2 4614   1.454   3.190   0.925
 1291SOL     OW 4615   1.659   3.600   0.579
 1291SOL    HW1 4616   1.639   3.572   0.490
 1291SOL    HW2 4617   1.633   3.526   0.634
 1292SOL     OW 4618   0.595   2.580   0.264
 1292SOL    HW1 4619   0.600   2.662   0.214
 1292SOL    HW2 4620   0.533   2.598   0.334
 1293SOL     OW 4621   1.278   2.215   0.933
 1293SOL    HW1 4622   1.189   2.181   0.941
 1293SOL    HW2 4623   1.330   2.162   0.993
 1294SOL     OW 4624   1.582   3.532   0.312
 1294SOL    HW1 4625   1.672   3.563   0.305
 1294SOL    HW2 4626   1.556   3.514   0.222
 1295SOL     OW 4627   0.794   2.478   1.451
 1295SOL    HW1 4628   0.768   2.455   1.540
 1295SOL    HW2 4629   0.751   2.414   1.395
 1296SOL     OW 4630   1.394   2.336   1.677
 1296SOL    HW1 4631   1.396   2.380   1.762
 1296SOL    HW2 4632   1.456   2.264   1.686
 1297SOL     OW 4633   0.956   2.750   1.582
 1297SOL    HW1 4634   1.010   2.679   1.546
 1297SOL    HW2 4635   0.908   2.784   1.506
 1298SOL     OW 4636   0.993   2.276   1.239
 1298SOL    HW1 4637   0.908   2.297   1.278
 1298SOL    HW2 4638   0.971   2.228   1.159
 1299SOL     OW 4639   1.050   2.564   0.427
 1299SOL    HW1 4640   1.067   2.555   0.521
 1299SOL    HW2 4641   0.968   2.517   0.413
 1300SOL     OW 4642   0.097   2.688   0.784
 1300SOL    HW1 4643   0.183   2.671   0.822
 1300SOL    HW2 4644   0.044   2.720   0.858
 1301SOL     OW 4645   0.125   3.715   1.576
 1301SOL    HW1 4646   0.117   3.693   1.669
 1301SOL    HW2 4647   0.044   3.681   1.537
 1302SOL     OW 4648   0.888   2.217   0.209
 1302SOL    HW1 4649   0.935   2.272   0.146
 1302SOL    HW2 4650   0.902   2.128   0.176
 1303SOL     OW 4651   1.711   2.440   1.831
 1303SOL    HW1 4652   1.672   2.511   1.779
 1303SOL    HW2 4653   1.737   2.375   1.766
 1304SOL     OW 4654   1.377   3.004   0.542
 1304SOL    HW1 4655   1.454   2.989   0.488
 1304SOL    HW2 4656   1.324   3.066   0.492
 1305SOL     OW 4657   0.552   2.044   0.893
 1305SOL    HW1 4658   0.554   2.075   0.984
 1305SOL    HW2 4659   0.552   2.124   0.841
 1306SOL     OW 4660   1.006   3.307   0.474
 1306SOL    HW1 4661   0.968   3.379   0.424
 1306SOL    HW2 4662   0.987   3.328   0.565
 1307SOL     OW 4663   0.355   3.672   0.859
 1307SOL    HW1 4664   0.397   3.586   0.869
 1307SOL    HW2 4665   0.426   3.735   0.873
 1308SOL     OW 4666   1.799   2.918   0.868
 1308SOL    HW1 4667   1.745   2.902   0.791
 1308SOL    HW2 4668   1.737   2.924   0.941
 1309SOL     OW 4669   1.228   3.401   1.513
 1309SOL    HW1 4670   1.214   3.328   1.573
 1309SOL    HW2 4671   1.165   3.386   1.442
 1310SOL     OW 4672   0.313   2.818   0.278
 1310SOL    HW1 4673   0.396   2.845   0.239
 1310SOL    HW2 4674   0.307   2.724   0.260
 1311SOL     OW 4675   1.477   2.604   0.727
 1311SOL    HW1 4676   1.467   2.561   0.813
 1311SOL    HW2 4677   1.555   2.659   0.737
 1312SOL     OW 4678   0.467   3.124   1.735
 1312SOL    HW1 4679   0.440   3.130   1.644
 1312SOL    HW2 4680   0.386   3.129   1.785
 1313SOL     OW 4681   1.108   3.641   0.227
 1313SOL    HW1 4682   1.048   3.589   0.281
 1313SOL    HW2 4683   1.149   3.576   0.169
 1314SOL     OW 4684   0.196   2.139   1.486
 1314SOL    HW1 4685   0.136   2.214   1.492
 1314SOL    HW2 4686   0.184   2.092   1.568
 1315SOL     OW 4687   1.628   3.237   0.089
 1315SOL    HW1 4688   1.585   3.322   0.077
 1315SOL    HW2 4689   1.562   3.173   0.061
 1316SOL     OW 4690   0.469   3.604   0.317
 1316SOL    HW1 4691   0.508   3.660   0.384
 1316SOL    HW2 4692   0.544   3.575   0.265
 1317SOL     OW 4693   1.400   1.969   0.431
 1317SOL    HW1 4694   1.390   1.947   0.338
 1317SOL    HW2 4695   1.494   1.979   0.443
 1318SOL     OW 4696   0.261   3.656   1.231
 1318SOL    HW1 4697   0.305   3.580   1.270
 1318SOL    HW2 4698   0.226   3.623   1.148
 1319SOL     OW 4699   0.938   3.561   0.899
 1319SOL    HW1 4700   1.015   3.508   0.920
 1319SOL    HW2 4701   0.893   3.511   0.830
 1320SOL     OW 4702   0.392   2.557   0.470
 1320SOL    HW1 4703   0.417   2.465   0.483
 1320SOL    HW2 4704   0.302   2.561   0.500
 1321SOL     OW 4705   1.537   2.089   1.727
 1321SOL    HW1 4706   1.546   2.109   1.820
 1321SOL    HW2 4707   1.469   2.021   1.724
 1322SOL     OW 4708   0.615   1.968   0.123
 1322SOL    HW1 4709   0.705   1.937   0.122
 1322SOL    HW2 4710   0.583   1.952   0.034
 1323SOL     OW 4711   0.767   2.139   1.754
 1323SOL    HW1 4712   0.842   2.080   1.756
 1323SOL    HW2 4713   0.718   2.117   1.834
 1324SOL     OW 4714   0.877   3.384   1.193
 1324SOL    HW1 4715   0.861   3.348   1.106
 1324SOL    HW2 4716   0.946   3.329   1.230
 1325SOL     OW 4717   1.341   2.451   1.432
 1325SOL    HW1 4718   1.371   2.418   1.517
 1325SOL    HW2 4719   1.377   2.539   1.425
 1326SOL     OW 4720   0.815   3.258   0.939
 1326SOL    HW1 4721   0.899   3.246   0.894
 1326SOL    HW2 4722   0.750   3.258   0.869
 1327SOL     OW 4723   0.927   2.371   0.904
 1327SOL    HW1 4724   0.904   2.363   0.811
 1327SOL    HW2 4725   0.959   2.284   0.928
 1328SOL     OW 4726   0.552   1.923   0.505
 1328SOL    HW1 4727   0.470   1.921   0.554
 1328SOL    HW2 4728   0.546   2.002   0.450
 1329SOL     OW 4729   1.425   3.058   0.030
 1329SOL    HW1 4730   1.457   2.987   0.084
 1329SOL    HW2 4731   1.342   3.084   0.070
 1330SOL     OW 4732   0.286   1.911   0.192
 1330SOL    HW1 4733   0.335   1.961   0.126
 1330SOL    HW2 4734   0.349   1.846   0.224
 1331SOL     OW 4735   0.939   2.107   0.463
 1331SOL    HW1 4736   0.910   2.153   0.384
 1331SOL    HW2 4737   1.034   2.123   0.466
 1332SOL     OW 4738   1.080   2.542   1.460
 1332SOL    HW1 4739   1.011   2.476   1.465
 1332SOL    HW2 4740   1.161   2.492   1.453
 1333SOL     OW 4741   1.224   3.432   0.794
 1333SOL    HW1 4742   1.240   3.498   0.727
 1333SOL    HW2 4743   1.292   3.446   0.859
 1334SOL     OW 4744   0.468   3.011   0.739
 1334SOL    HW1 4745   0.397   2.992   0.800
 1334SOL    HW2 4746   0.430   2.998   0.652
 1335SOL     OW 4747   1.269   3.656   0.606
 1335SOL    HW1 4748   1.316   3.718   0.549
 1335SOL    HW2 4749   1.204   3.710   0.651
 1336SOL     OW 4750   1.012   2.399   0.038
 1336SOL    HW1 4751   0.979   2.486   0.018
 1336SOL    HW2 4752   1.092   2.414   0.088
 1337SOL     OW 4753   0.083   2.391   1.409
 1337SOL    HW1 4754   0.148   2.389   1.339
 1337SOL    HW2 4755   0.068   2.484   1.425
 1338SOL     OW 4756   0.561   2.090   1.166
 1338SOL    HW1 4757   0.603   2.011   1.199
 1338SOL    HW2 4758   0.469   2.081   1.193
 1339SOL     OW 4759   0.869   2.322   0.640
 1339SOL    HW1 4760   0.823   2.376   0.575
 1339SOL    HW2 4761   0.888   2.240   0.594
 1340SOL     OW 4762   1.015   1.915   0.752
 1340SOL    HW1 4763   0.956   1.908   0.677
 1340SOL    HW2 4764   0.994   1.839   0.806
 1341SOL     OW 4765   1.437   3.025   0.857
 1341SOL    HW1 4766   1.368   2.959   0.856
 1341SOL    HW2 4767   1.461   3.036   0.765
 1342SOL     OW 4768   1.465   2.468   0.979
 1342SOL    HW1 4769   1.416   2.386   0.980
 1342SOL    HW2 4770   1.524   2.461   1.054
 1343SOL     OW 4771   1.854   2.678   0.381
 1343SOL    HW1 4772   1.904   2.624   0.441
 1343SOL    HW2 4773   1.816   2.617   0.318
 1344SOL     OW 4774   0.494   3.284   0.174
 1344SOL    HW1 4775   0.415   3.259   0.222
 1344SOL    HW2 4776   0.490   3.236   0.092
 1345SOL     OW 4777   1.669   3.126   0.648
 1345SOL    HW1 4778   1.764   3.131   0.660
 1345SOL    HW2 4779   1.639   3.215   0.668
 1346SOL     OW 4780   1.388   2.439   0.078
 1346SOL    HW1 4781   1.330   2.416   0.150
 1346SOL    HW2 4782   1.462   2.379   0.086
 1347SOL     OW 4783   0.529   2.125   0.328
 1347SOL    HW1 4784   0.556   2.065   0.258
 1347SOL    HW2 4785   0.511   2.208   0.283
 1348SOL     OW 4786   1.753   3.100   1.574
 1348SOL    HW1 4787   1.840   3.062   1.568
 1348SOL    HW2 4788   1.767   3.190   1.603
 1349SOL     OW 4789   1.059   3.216   1.334
 1349SOL    HW1 4790   0.984   3.185   1.385
 1349SOL    HW2 4791   1.135   3.174   1.375
 1350SOL     OW 4792   1.608   3.488   1.654
 1350SOL    HW1 4793   1.602   3.521   1.564
 1350SOL    HW2 4794   1.691   3.440   1.656
 1351SOL     OW 4795   1.129   3.066   1.106
 1351SOL    HW1 4796   1.069   3.103   1.171
 1351SOL    HW2 4797   1.095   3.096   1.022
 1352SOL     OW 4798   1.629   2.961   1.078
 1352SOL    HW1 4799   1.624   3.023   1.150
 1352SOL    HW2 4800   1.550   2.977   1.026
 1353SOL     OW 4801   0.917   1.960   1.397
 1353SOL    HW1 4802   0.940   1.940   1.306
 1353SOL    HW2 4803   0.997   1.999   1.434
 1354SOL     OW 4804   0.984   2.976   1.723
 1354SOL    HW1 4805   0.892   2.992   1.744
 1354SOL    HW2 4806   0.983   2.899   1.667
 1355SOL     OW 4807   0.710   2.922   0.374
 1355SOL    HW1 4808   0.697   2.906   0.467
 1355SOL    HW2 4809   0.786   2.868   0.351
 1356SOL     OW 4810   0.430   2.687   1.241
 1356SOL    HW1 4811   0.499   2.699   1.306
 1356SOL    HW2 4812   0.372   2.621   1.280
 1357SOL     OW 4813   1.266   2.239   1.274
 1357SOL    HW1 4814   1.299   2.316   1.320
 1357SOL    HW2 4815   1.176   2.261   1.251
 1358SOL     OW 4816   0.062   3.438   1.342
 1358SOL    HW1 4817   0.035   3.527   1.321
 1358SOL    HW2 4818   0.158   3.443   1.348
 1359SOL     OW 4819   0.349   2.979   0.499
 1359SOL    HW1 4820   0.351   3.053   0.438
 1359SOL    HW2 4821   0.342   2.902   0.443
 1360SOL     OW 4822   0.561   2.396   0.856
 1360SOL    HW1 4823   0.575   2.455   0.782
 1360SOL    HW2 4824   0.622   2.426   0.923
 1361SOL     OW 4825   1.247   3.208   0.395
 1361SOL    HW1 4826   1.303   3.281   0.422
 1361SOL    HW2 4827   1.160   3.232   0.426
 1362SOL     OW 4828   1.280   3.319   1.146
 1362SOL    HW1 4829   1.335   3.321   1.225
 1362SOL    HW2 4830   1.224   3.242   1.158
 1363SOL     OW 4831   1.582   2.484   0.479
 1363SOL    HW1 4832   1.535   2.539   0.542
 1363SOL    HW2 4833   1.620   2.545   0.417
 1364SOL     OW 4834   0.347   3.394   1.315
 1364SOL    HW1 4835   0.333   3.346   1.233
 1364SOL    HW2 4836   0.442   3.403   1.321
 1365SOL     OW 4837   0.479   2.621   1.665
 1365SOL    HW1 4838   0.509   2.659   1.583
 1365SOL    HW2 4839   0.520   2.535   1.668
 1366SOL     OW 4840   1.602   2.641   1.681
 1366SOL    HW1 4841   1.515   2.681   1.674
 1366SOL    HW2 4842   1.653   2.683   1.612
 1367SOL     OW 4843   0.996   1.984   1.755
 1367SOL    HW1 4844   1.052   2.056   1.726
 1367SOL    HW2 4845   1.044   1.905   1.730
 1368SOL     OW 4846   0.497   1.905   1.747
 1368SOL    HW1 4847   0.456   1.848   1.681
 1368SOL    HW2 4848   0.438   1.979   1.755
 1369SOL     OW 4849   0.590   2.735   1.024
 1369SOL    HW1 4850   0.618   2.827   1.026
 1369SOL    HW2 4851   0.533   2.726   1.101
 1370SOL     OW 4852   1.359   2.721   1.031
 1370SOL    HW1 4853   1.276   2.713   0.984
 1370SOL    HW2 4854   1.398   2.634   1.026
 1371SOL     OW 4855   1.203   2.388   0.271
 1371SOL    HW1 4856   1.211   2.310   0.327
 1371SOL    HW2 4857   1.160   2.453   0.327
 1372SOL     OW 4858   0.302   2.054   1.242
 1372SOL    HW1 4859   0.263   2.087   1.322
 1372SOL    HW2 4860   0.285   1.959   1.245
 1373SOL     OW 4861   0.040   3.175   1.285
 1373SOL    HW1 4862   0.076   3.128   1.361
 1373SOL    HW2 4863   0.045   3.267   1.310
 1374SOL     OW 4864   0.726   2.493   1.059
 1374SOL    HW1 4865   0.800   2.475   1.001
 1374SOL    HW2 4866   0.698   2.582   1.036
 1375SOL     OW 4867   1.735   2.821   1.852
 1375SOL    HW1 4868   1.688   2.760   1.795
 1375SOL    HW2 4869   1.675   2.835   1.925
 1376SOL     OW 4870   0.311   1.932   0.620
 1376SOL    HW1 4871   0.287   2.021   0.647
 1376SOL    HW2 4872   0.307   1.881   0.700
 1377SOL     OW 4873   1.612   2.232   0.370
 1377SOL    HW1 4874   1.644   2.173   0.439
 1377SOL    HW2 4875   1.591   2.313   0.417
 1378SOL     OW 4876   1.027   2.621   0.961
 1378SOL    HW1 4877   1.025   2.639   1.055
 1378SOL    HW2 4878   1.001   2.529   0.953
 1379SOL     OW 4879   0.983   3.429   1.716
 1379SOL    HW1 4880   0.967   3.473   1.632
 1379SOL    HW2 4881   1.025   3.346   1.693
 1380SOL     OW 4882   1.855   3.368   1.605
 1380SOL    HW1 4883   1.873   3.394   1.515
 1380SOL    HW2 4884   1.937   3.388   1.652
 1381SOL     OW 4885   0.347   2.795   1.818
 1381SOL    HW1 4886   0.420   2.824   1.873
 1381SOL    HW2 4887   0.385   2.728   1.761
 1382SOL     OW 4888   1.538   2.149   0.117
 1382SOL    HW1 4889   1.475   2.078   0.133
 1382SOL    HW2 4890   1.566   2.175   0.205
 1383SOL     OW 4891   1.288   2.686   0.033
 1383SOL    HW1 4892   1.330   2.601   0.044
 1383SOL    HW2 4893   1.322   2.719  11.050
 1384SOL     OW 4894   1.066   3.197   0.853
 1384SOL    HW1 4895   1.068   3.125   0.791
 1384SOL    HW2 4896   1.127   3.262   0.818
 1385SOL     OW 4897   0.318   2.673   0.948
 1385SOL    HW1 4898   0.412   2.690   0.945
 1385SOL    HW2 4899   0.311   2.582   0.977
 1386SOL     OW 4900   0.331   2.386   0.990
 1386SOL    HW1 4901   0.293   2.300   0.975
 1386SOL    HW2 4902   0.409   2.388   0.936
 1387SOL     OW 4903   1.134   2.239   1.681
 1387SOL    HW1 4904   1.087   2.294   1.744
 1387SOL    HW2 4905   1.222   2.277   1.677
 1388SOL     OW 4906   1.160   2.065   1.470
 1388SOL    HW1 4907   1.150   2.128   1.541
 1388SOL    HW2 4908   1.200   2.116   1.399
 1389SOL     OW 4909   4.496   3.186   0.200
 1389SOL    HW1 4910   4.403   3.204   0.192
 1389SOL    HW2 4911   0.000   3.094   0.227
 1390SOL     OW 4912   0.097   3.639   0.940
 1390SOL    HW1 4913   0.058   3.586   0.871
 1390SOL    HW2 4914   0.185   3.660   0.908
 1391SOL     OW 4915   0.497   3.435   0.907
 1391SOL    HW1 4916   0.565   3.498   0.931
 1391SOL    HW2 4917   0.541   3.373   0.850
 1392SOL     OW 4918   0.985   2.655   1.227
 1392SOL    HW1 4919   1.039   2.631   1.302
 1392SOL    HW2 4920   0.899   2.618   1.247
 1393SOL     OW 4921   0.035   2.425   1.104
 1393SOL    HW1 4922   0.118   2.391   1.073
 1393SOL    HW2 4923   0.021   2.380   1.188
 1394SOL     OW 4924   0.179   2.381   1.714
 1394SOL    HW1 4925   0.259   2.351   1.671
 1394SOL    HW2 4926   0.156   2.462   1.669
 1395SOL     OW 4927   1.377   2.801   1.659
 1395SOL    HW1 4928   1.397   2.895   1.657
 1395SOL    HW2 4929   1.374   2.776   1.567
 1396SOL     OW 4930   0.816   2.436   0.365
 1396SOL    HW1 4931   0.824   2.361   0.306
 1396SOL    HW2 4932   0.741   2.485   0.330
 1397SOL     OW 4933   1.641   2.465   1.188
 1397SOL    HW1 4934   1.633   2.403   1.261
 1397SOL    HW2 4935   1.728   2.447   1.151
 1398SOL     OW 4936   0.273   3.423   1.741
 1398SOL    HW1 4937   0.217   3.476   1.797
 1398SOL    HW2 4938   0.253   3.333   1.764
 1399SOL     OW 4939   0.691   2.317   1.262
 1399SOL    HW1 4940   0.646   2.239   1.229
 1399SOL    HW2 4941   0.692   2.378   1.189
 1400SOL     OW 4942   0.929   3.541   1.467
 1400SOL    HW1 4943   0.902   3.507   1.382
 1400SOL    HW2 4944   0.924   3.636   1.457
 1401SOL     OW 4945   0.475   2.346   0.181
 1401SOL    HW1 4946   0.532   2.419   0.205
 1401SOL    HW2 4947   0.390   2.386   0.163
 1402SOL     OW 4948   0.162   3.003   1.461
 1402SOL    HW1 4949   0.146   2.957   1.544
 1402SOL    HW2 4950   0.169   2.933   1.396
 1403SOL     OW 4951   1.327   2.910   1.223
 1403SOL    HW1 4952   1.350   2.846   1.156
 1403SOL    HW2 4953   1.256   2.961   1.185
 1404SOL     OW 4954   1.307   2.715   0.310
 1404SOL    HW1 4955   1.231   2.682   0.358
 1404SOL    HW2 4956   1.286   2.701   0.218
 1405SOL     OW 4957   1.771   3.606   1.150
 1405SOL    HW1 4958   1.831   3.633   1.080
 1405SOL    HW2 4959   1.747   3.516   1.129
 1406SOL     OW 4960   1.241   3.595   1.115
 1406SOL    HW1 4961   1.323   3.615   1.069
 1406SOL    HW2 4962   1.246   3.501   1.132
 1407SOL     OW 4963   0.067   3.047   1.049
 1407SOL    HW1 4964   0.066   3.079   1.139
 1407SOL    HW2 4965   0.022   3.115   0.999
 1408SOL     OW 4966   0.679   3.528   1.729
 1408SOL    HW1 4967   0.623   3.605   1.723
 1408SOL    HW2 4968   0.741   3.538   1.657
 1409SOL     OW 4969   0.917   1.954   0.108
 1409SOL    HW1 4970   0.968   1.918   0.035
 1409SOL    HW2 4971   0.954   1.912   0.186
 1410SOL     OW 4972   1.721   2.000   0.515
 1410SOL    HW1 4973   1.773   1.958   0.447
 1410SOL    HW2 4974   1.691   1.927   0.570
 1411SOL     OW 4975   1.390   3.430   0.485
 1411SOL    HW1 4976   1.451   3.461   0.418
 1411SOL    HW2 4977   1.343   3.508   0.513
 1412SOL     OW 4978   0.119   3.669   1.847
 1412SOL    HW1 4979   0.079   3.596   1.895
 1412SOL    HW2 4980   0.182   3.706   1.909
 1413SOL     OW 4981   1.277   2.788   0.671
 1413SOL    HW1 4982   1.350   2.726   0.677
 1413SOL    HW2 4983   1.311   2.860   0.619
 1414SOL     OW 4984   0.815   3.135   1.430
 1414SOL    HW1 4985   0.787   3.174   1.513
 1414SOL    HW2 4986   0.744   3.157   1.369
 1415SOL     OW 4987   0.675   3.482   0.167
 1415SOL    HW1 4988   0.685   3.490   0.072
 1415SOL    HW2 4989   0.617   3.406   0.178
 1416SOL     OW 4990   1.628   3.588   1.392
 1416SOL    HW1 4991   1.677   3.595   1.310
 1416SOL    HW2 4992   1.615   3.679   1.419
 1417SOL     OW 4993   1.802   2.014   0.967
 1417SOL    HW1 4994   1.853   1.943   0.928
 1417SOL    HW2 4995   1.726   2.023   0.910
 1418SOL     OW 4996   0.265   2.182   0.720
 1418SOL    HW1 4997   0.182   2.221   0.691
 1418SOL    HW2 4998   0.254   2.169   0.814
 1419SOL     OW 4999   1.223   3.464   0.052
 1419SOL    HW1 5000   1.210   3.372   0.073
 1419SOL    HW2 5001   1.157   3.483  11.085
 1420SOL     OW 5002   0.826   2.869   1.372
 1420SOL    HW1 5003   0.868   2.865   1.286
 1420SOL    HW2 5004   0.825   2.962   1.395
 1421SOL     OW 5005   0.914   2.769   0.282
 1421SOL    HW1 5006   0.981   2.809   0.226
 1421SOL    HW2 5007   0.962   2.704   0.333
 1422SOL     OW 5008   1.499   3.484   0.047
 1422SOL    HW1 5009   1.403   3.479   0.044
 1422SOL    HW2 5010   1.525   3.498  11.056
 1423SOL     OW 5011   0.373   3.169   1.490
 1423SOL    HW1 5012   0.356   3.248   1.439
 1423SOL    HW2 5013   0.298   3.112   1.474
 1424SOL     OW 5014   1.612   3.145   1.281
 1424SOL    HW1 5015   1.670   3.135   1.356
 1424SOL    HW2 5016   1.551   3.214   1.307
 1425SOL     OW 5017   1.051   2.969   0.706
 1425SOL    HW1 5018   0.981   2.917   0.746
 1425SOL    HW2 5019   1.114   2.903   0.675
 1426SOL     OW 5020   1.020   2.102   0.966
 1426SOL    HW1 5021   1.016   2.054   0.883
 1426SOL    HW2 5022   1.016   2.034   1.033
 1427SOL     OW 5023   0.603   3.353   0.483
 1427SOL    HW1 5024   0.642   3.302   0.412
 1427SOL    HW2 5025   0.529   3.398   0.442
 1428SOL     OW 5026   1.721   2.254   1.379
 1428SOL    HW1 5027   1.799   2.310   1.377
 1428SOL    HW2 5028   1.743   2.180   1.323
 1429SOL     OW 5029   0.263   3.192   0.283
 1429SOL    HW1 5030   0.175   3.203   0.247
 1429SOL    HW2 5031   0.258   3.231   0.370
 1430SOL     OW 5032   0.116   2.870   1.694
 1430SOL    HW1 5033   0.052   2.911   1.752
 1430SOL    HW2 5034   0.194   2.859   1.749
 1431SOL     OW 5035   0.674   2.061   1.499
 1431SOL    HW1 5036   0.757   2.039   1.457
 1431SOL    HW2 5037   0.697   2.089   1.587
 1432SOL     OW 5038   0.058   2.204   0.003
 1432SOL    HW1 5039   4.471   2.191   0.040
 1432SOL    HW2 5040   0.078   2.296   0.020
 1433SOL     OW 5041   1.431   2.721   1.401
 1433SOL    HW1 5042   1.382   2.781   1.345
 1433SOL    HW2 5043   1.520   2.723   1.365
 1434SOL     OW 5044   0.079   2.033   0.307
 1434SOL    HW1 5045   0.084   2.115   0.259
 1434SOL    HW2 5046   0.154   1.982   0.277
 1435SOL     OW 5047   1.182   3.202   0.122
 1435SOL    HW1 5048   1.089   3.183   0.115
 1435SOL    HW2 5049   1.202   3.195   0.215
 1436SOL     OW 5050   0.623   2.693   1.430
 1436SOL    HW1 5051   0.679   2.770   1.417
 1436SOL    HW2 5052   0.684   2.620   1.438
 1437SOL     OW 5053   1.484   3.638   0.978
 1437SOL    HW1 5054   1.508   3.697   0.906
 1437SOL    HW2 5055   1.567   3.620   1.022
 1438SOL     OW 5056   0.715   2.424   1.704
 1438SOL    HW1 5057   0.754   2.488   1.764
 1438SOL    HW2 5058   0.747   2.340   1.735
 1439SOL     OW 5059   1.471   3.063   1.632
 1439SOL    HW1 5060   1.458   3.076   1.726
 1439SOL    HW2 5061   1.564   3.077   1.618
 1440SOL     OW 5062   0.381   3.605   1.564
 1440SOL    HW1 5063   0.296   3.645   1.547
 1440SOL    HW2 5064   0.360   3.525   1.612
 1441SOL     OW 5065   1.671   2.744   1.255
 1441SOL    HW1 5066   1.661   2.658   1.213
 1441SOL    HW2 5067   1.660   2.807   1.184
 1442SOL     OW 5068   1.216   2.180   0.459
 1442SOL    HW1 5069   1.280   2.109   0.450
 1442SOL    HW2 5070   1.246   2.229   0.536
 1443SOL     OW 5071   0.590   2.600   0.668
 1443SOL    HW1 5072   0.628   2.687   0.653
 1443SOL    HW2 5073   0.521   2.592   0.602
 1444SOL     OW 5074   1.763   2.235   1.653
 1444SOL    HW1 5075   1.749   2.239   1.558
 1444SOL    HW2 5076   1.698   2.172   1.684
 1445SOL     OW 5077   1.750   2.793   1.511
 1445SOL    HW1 5078   1.743   2.888   1.526
 1445SOL    HW2 5079   1.731   2.783   1.418
 1446SOL     OW 5080   0.903   3.219   0.067
 1446SOL    HW1 5081   0.833   3.218   0.132
 1446SOL    HW2 5082   0.890   3.301   0.019
 1447SOL     OW 5083   0.661   3.654   0.947
 1447SOL    HW1 5084   0.639   3.744   0.922
 1447SOL    HW2 5085   0.756   3.648   0.937
 1448SOL     OW 5086   0.868   2.829   0.855
 1448SOL    HW1 5087   0.917   2.757   0.895
 1448SOL    HW2 5088   0.833   2.878   0.929
 1449SOL     OW 5089   1.079   2.852   0.085
 1449SOL    HW1 5090   1.055   2.885  11.098
 1449SOL    HW2 5091   1.156   2.797   0.069
 1450SOL     OW 5092   1.854   3.417   0.845
 1450SOL    HW1 5093   1.778   3.406   0.789
 1450SOL    HW2 5094   1.844   3.350   0.912
 1451SOL     OW 5095   0.230   3.168   1.857
 1451SOL    HW1 5096   0.157   3.110   1.835
 1451SOL    HW2 5097   0.224   3.178   1.952
 1452SOL     OW 5098   0.104   3.095   0.668
 1452SOL    HW1 5099   0.119   3.050   0.751
 1452SOL    HW2 5100   0.168   3.057   0.608
 1453SOL     OW 5101   0.682   3.264   1.628
 1453SOL    HW1 5102   0.602   3.220   1.656
 1453SOL    HW2 5103   0.675   3.352   1.665
 1454SOL     OW 5104   1.775   2.036   1.232
 1454SOL    HW1 5105   1.798   1.945   1.253
 1454SOL    HW2 5106   1.783   2.041   1.136
 1455SOL     OW 5107   0.433   2.297   0.526
 1455SOL    HW1 5108   0.462   2.224   0.471
 1455SOL    HW2 5109   0.384   2.255   0.597
 1456SOL     OW 5110   1.700   3.352   1.097
 1456SOL    HW1 5111   1.619   3.328   1.051
 1456SOL    HW2 5112   1.711   3.282   1.163
 1457SOL     OW 5113   0.302   2.351   1.254
 1457SOL    HW1 5114   0.376   2.308   1.297
 1457SOL    HW2 5115   0.332   2.366   1.164
 1458SOL     OW 5116   0.827   3.440   0.678
 1458SOL    HW1 5117   0.814   3.491   0.598
 1458SOL    HW2 5118   0.750   3.383   0.682
 1459SOL     OW 5119   1.434   2.088   1.116
 1459SOL    HW1 5120   1.465   2.011   1.163
 1459SOL    HW2 5121   1.381   2.135   1.181
 1460SOL     OW 5122   1.008   1.881   1.143
 1460SOL    HW1 5123   0.954   1.813   1.103
 1460SOL    HW2 5124   1.096   1.843   1.145
 1461SOL     OW 5125   0.768   3.190   0.315
 1461SOL    HW1 5126   0.739   3.100   0.329
 1461SOL    HW2 5127   0.852   3.195   0.360
 1462SOL     OW 5128   0.621   3.418   1.285
 1462SOL    HW1 5129   0.623   3.500   1.335
 1462SOL    HW2 5130   0.708   3.412   1.246
 1463SOL     OW 5131   1.351   1.916   0.164
 1463SOL    HW1 5132   1.372   1.867   0.085
 1463SOL    HW2 5133   1.264   1.884   0.189
 1464SOL     OW 5134   1.296   2.323   0.682
 1464SOL    HW1 5135   1.242   2.402   0.689
 1464SOL    HW2 5136   1.292   2.283   0.768
 1465SOL     OW 5137   1.562   2.061   0.861
 1465SOL    HW1 5138   1.516   2.081   0.942
 1465SOL    HW2 5139   1.570   2.145   0.816
 1466SOL     OW 5140   0.038   2.912   0.283
 1466SOL    HW1 5141   0.134   2.906   0.284
 1466SOL    HW2 5142   0.012   2.880   0.369
 1467SOL     OW 5143   0.885   3.515   0.347
 1467SOL    HW1 5144   0.813   3.495   0.287
 1467SOL    HW2 5145   0.853   3.589   0.398
 1468SOL     OW 5146   0.248   2.491   1.982
 1468SOL    HW1 5147   0.174   2.471   2.039
 1468SOL    HW2 5148   0.216   2.472   1.893
 1469SOL     OW 5149   0.213   2.137   2.854
 1469SOL    HW1 5150   0.249   2.111   2.938
 1469SOL    HW2 5151   0.137   2.080   2.841
 1470SOL     OW 5152   0.009   2.252   2.502
 1470SOL    HW1 5153   4.428   2.284   2.542
 1470SOL    HW2 5154   4.483   2.173   2.456
 1471SOL     OW 5155   0.568   3.148   3.037
 1471SOL    HW1 5156   0.480   3.153   2.998
 1471SOL    HW2 5157   0.583   3.236   3.072
 1472SOL     OW 5158   1.560   3.373   2.569
 1472SOL    HW1 5159   1.517   3.354   2.652
 1472SOL    HW2 5160   1.489   3.378   2.505
 1473SOL     OW 5161   1.129   2.561   2.564
 1473SOL    HW1 5162   1.179   2.642   2.550
 1473SOL    HW2 5163   1.083   2.575   2.646
 1474SOL     OW 5164   1.779   2.459   2.090
 1474SOL    HW1 5165   1.750   2.456   1.999
 1474SOL    HW2 5166   1.726   2.391   2.133
 1475SOL     OW 5167   0.756   3.005   2.902
 1475SOL    HW1 5168   0.687   3.039   2.958
 1475SOL    HW2 5169   0.791   3.082   2.857
 1476SOL     OW 5170   0.866   2.637   3.683
 1476SOL    HW1 5171   0.851   2.708   3.745
 1476SOL    HW2 5172   0.889   2.680   3.601
 1477SOL     OW 5173   0.686   2.866   2.510
 1477SOL    HW1 5174   0.750   2.853   2.579
 1477SOL    HW2 5175   0.616   2.917   2.551
 1478SOL     OW 5176   0.710   3.012   3.674
 1478SOL    HW1 5177   0.757   3.091   3.700
 1478SOL    HW2 5178   0.628   3.044   3.638
 1479SOL     OW 5179   0.336   3.283   2.932
 1479SOL    HW1 5180   0.254   3.264   2.885
 1479SOL    HW2 5181   0.385   3.338   2.870
 1480SOL     OW 5182   1.461   3.361   3.215
 1480SOL    HW1 5183   1.510   3.442   3.226
 1480SOL    HW2 5184   1.400   3.360   3.289
 1481SOL     OW 5185   0.444   2.266   3.355
 1481SOL    HW1 5186   0.524   2.213   3.359
 1481SOL    HW2 5187   0.373   2.203   3.360
 1482SOL     OW 5188   1.599   2.305   2.606
 1482SOL    HW1 5189   1.524   2.334   2.553
 1482SOL    HW2 5190   1.637   2.386   2.640
 1483SOL     OW 5191   0.246   3.553   2.340
 1483SOL    HW1 5192   0.231   3.638   2.381
 1483SOL    HW2 5193   0.312   3.571   2.273
 1484SOL     OW 5194   1.136   3.203   3.554
 1484SOL    HW1 5195   1.176   3.199   3.641
 1484SOL    HW2 5196   1.084   3.124   3.548
 1485SOL     OW 5197   0.249   3.289   2.390
 1485SOL    HW1 5198   0.240   3.384   2.393
 1485SOL    HW2 5199   0.185   3.256   2.453
 1486SOL     OW 5200   0.248   2.944   2.746
 1486SOL    HW1 5201   0.264   2.854   2.775
 1486SOL    HW2 5202   0.188   2.980   2.812
 1487SOL     OW 5203   0.614   3.653   3.294
 1487SOL    HW1 5204   0.531   3.634   3.337
 1487SOL    HW2 5205   0.635   3.743   3.318
 1488SOL     OW 5206   0.580   2.848   2.000
 1488SOL    HW1 5207   0.627   2.892   1.929
 1488SOL    HW2 5208   0.625   2.876   2.079
 1489SOL     OW 5209   1.595   1.982   3.334
 1489SOL    HW1 5210   1.602   2.060   3.278
 1489SOL    HW2 5211   1.581   2.017   3.422
 1490SOL     OW 5212   0.136   2.507   2.436
 1490SOL    HW1 5213   0.088   2.427   2.453
 1490SOL    HW2 5214   0.106   2.568   2.503
 1491SOL     OW 5215   1.842   3.622   2.197
 1491SOL    HW1 5216   1.904   3.593   2.264
 1491SOL    HW2 5217   1.867   3.712   2.178
 1492SOL     OW 5218   0.033   3.464   2.002
 1492SOL    HW1 5219   0.021   3.369   2.000
 1492SOL    HW2 5220   0.019   3.488   2.093
 1493SOL     OW 5221   1.690   2.782   2.501
 1493SOL    HW1 5222   1.773   2.740   2.478
 1493SOL    HW2 5223   1.666   2.832   2.424
 1494SOL     OW 5224   1.645   2.969   2.291
 1494SOL    HW1 5225   1.731   2.976   2.249
 1494SOL    HW2 5226   1.650   3.030   2.365
 1495SOL     OW 5227   0.111   2.624   3.446
 1495SOL    HW1 5228   0.203   2.623   3.419
 1495SOL    HW2 5229   0.092   2.717   3.463
 1496SOL     OW 5230   0.614   3.247   2.598
 1496SOL    HW1 5231   0.567   3.164   2.607
 1496SOL    HW2 5232   0.597   3.273   2.508
 1497SOL     OW 5233   1.290   3.101   3.285
 1497SOL    HW1 5234   1.322   3.033   3.226
 1497SOL    HW2 5235   1.346   3.094   3.362
 1498SOL     OW 5236   0.815   1.861   2.369
 1498SOL    HW1 5237   0.855   1.946   2.352
 1498SOL    HW2 5238   0.722   1.880   2.379
 1499SOL     OW 5239   0.180   2.803   3.141
 1499SOL    HW1 5240   0.272   2.785   3.121
 1499SOL    HW2 5241   0.133   2.787   3.059
 1500SOL     OW 5242   1.533   2.854   2.060
 1500SOL    HW1 5243   1.462   2.797   2.090
 1500SOL    HW2 5244   1.571   2.889   2.140
 1501SOL     OW 5245   1.186   3.668   3.484
 1501SOL    HW1 5246   1.197   3.726   3.408
 1501SOL    HW2 5247   1.201   3.580   3.449
 1502SOL     OW 5248   0.330   2.118   3.660
 1502SOL    HW1 5249   0.380   2.191   3.696
 1502SOL    HW2 5250   0.244   2.126   3.699
 1503SOL     OW 5251   1.467   3.281   2.814
 1503SOL    HW1 5252   1.398   3.296   2.879
 1503SOL    HW2 5253   1.454   3.190   2.787
 1504SOL     OW 5254   1.660   3.599   2.440
 1504SOL    HW1 5255   1.638   3.570   2.351
 1504SOL    HW2 5256   1.634   3.526   2.496
 1505SOL     OW 5257   0.598   2.583   2.128
 1505SOL    HW1 5258   0.600   2.664   2.077
 1505SOL    HW2 5259   0.532   2.599   2.195
 1506SOL     OW 5260   1.278   2.215   2.794
 1506SOL    HW1 5261   1.189   2.181   2.803
 1506SOL    HW2 5262   1.330   2.162   2.855
 1507SOL     OW 5263   1.581   3.532   2.171
 1507SOL    HW1 5264   1.671   3.564   2.164
 1507SOL    HW2 5265   1.554   3.515   2.081
 1508SOL     OW 5266   0.793   2.478   3.313
 1508SOL    HW1 5267   0.767   2.455   3.402
 1508SOL    HW2 5268   0.751   2.413   3.258
 1509SOL     OW 5269   1.393   2.336   3.540
 1509SOL    HW1 5270   1.396   2.381   3.624
 1509SOL    HW2 5271   1.455   2.263   3.549
 1510SOL     OW 5272   0.956   2.750   3.444
 1510SOL    HW1 5273   1.010   2.679   3.409
 1510SOL    HW2 5274   0.908   2.784   3.368
 1511SOL     OW 5275   0.993   2.276   3.100
 1511SOL    HW1 5276   0.908   2.297   3.140
 1511SOL    HW2 5277   0.971   2.228   3.021
 1512SOL     OW 5278   1.051   2.560   2.288
 1512SOL    HW1 5279   1.066   2.553   2.382
 1512SOL    HW2 5280   0.969   2.514   2.274
 1513SOL     OW 5281   0.097   2.689   2.646
 1513SOL    HW1 5282   0.183   2.671   2.683
 1513SOL    HW2 5283   0.045   2.719   2.721
 1514SOL     OW 5284   0.125   3.714   3.438
 1514SOL    HW1 5285   0.117   3.693   3.531
 1514SOL    HW2 5286   0.044   3.681   3.399
 1515SOL     OW 5287   0.892   2.210   2.056
 1515SOL    HW1 5288   0.933   2.271   1.995
 1515SOL    HW2 5289   0.907   2.123   2.018
 1516SOL     OW 5290   1.695   2.451   3.691
 1516SOL    HW1 5291   1.660   2.522   3.637
 1516SOL    HW2 5292   1.723   2.385   3.628
 1517SOL     OW 5293   1.377   3.004   2.404
 1517SOL    HW1 5294   1.455   2.991   2.350
 1517SOL    HW2 5295   1.323   3.066   2.354
 1518SOL     OW 5296   0.551   2.045   2.755
 1518SOL    HW1 5297   0.554   2.074   2.846
 1518SOL    HW2 5298   0.552   2.125   2.703
 1519SOL     OW 5299   1.007   3.307   2.335
 1519SOL    HW1 5300   0.969   3.379   2.285
 1519SOL    HW2 5301   0.988   3.328   2.426
 1520SOL     OW 5302   0.355   3.672   2.720
 1520SOL    HW1 5303   0.397   3.586   2.730
 1520SOL    HW2 5304   0.426   3.735   2.735
 1521SOL     OW 5305   1.799   2.917   2.729
 1521SOL    HW1 5306   1.743   2.902   2.653
 1521SOL    HW2 5307   1.738   2.924   2.803
 1522SOL     OW 5308   1.228   3.401   3.375
 1522SOL    HW1 5309   1.214   3.328   3.436
 1522SOL    HW2 5310   1.165   3.386   3.305
 1523SOL     OW 5311   0.316   2.816   2.115
 1523SOL    HW1 5312   0.400   2.839   2.075
 1523SOL    HW2 5313   0.300   2.726   2.087
 1524SOL     OW 5314   1.479   2.601   2.588
 1524SOL    HW1 5315   1.467   2.557   2.672
 1524SOL    HW2 5316   1.554   2.659   2.601
 1525SOL     OW 5317   0.467   3.124   3.597
 1525SOL    HW1 5318   0.440   3.130   3.506
 1525SOL    HW2 5319   0.386   3.129   3.647
 1526SOL     OW 5320   1.121   3.640   2.093
 1526SOL    HW1 5321   1.049   3.598   2.139
 1526SOL    HW2 5322   1.144   3.579   2.023
 1527SOL     OW 5323   0.196   2.139   3.348
 1527SOL    HW1 5324   0.136   2.214   3.354
 1527SOL    HW2 5325   0.184   2.092   3.430
 1528SOL     OW 5326   1.629   3.242   1.949
 1528SOL    HW1 5327   1.587   3.327   1.934
 1528SOL    HW2 5328   1.560   3.178   1.931
 1529SOL     OW 5329   0.469   3.606   2.176
 1529SOL    HW1 5330   0.511   3.659   2.244
 1529SOL    HW2 5331   0.542   3.571   2.124
 1530SOL     OW 5332   1.401   1.971   2.295
 1530SOL    HW1 5333   1.395   1.944   2.203
 1530SOL    HW2 5334   1.494   1.975   2.313
 1531SOL     OW 5335   0.261   3.656   3.093
 1531SOL    HW1 5336   0.305   3.580   3.132
 1531SOL    HW2 5337   0.226   3.622   3.011
 1532SOL     OW 5338   0.938   3.561   2.761
 1532SOL    HW1 5339   1.014   3.508   2.783
 1532SOL    HW2 5340   0.893   3.511   2.692
 1533SOL     OW 5341   0.394   2.557   2.335
 1533SOL    HW1 5342   0.418   2.465   2.346
 1533SOL    HW2 5343   0.302   2.561   2.361
 1534SOL     OW 5344   1.533   2.087   3.587
 1534SOL    HW1 5345   1.542   2.107   3.681
 1534SOL    HW2 5346   1.466   2.018   3.584
 1535SOL     OW 5347   0.634   1.987   1.965
 1535SOL    HW1 5348   0.703   1.922   1.981
 1535SOL    HW2 5349   0.586   1.953   1.890
 1536SOL     OW 5350   0.767   2.139   3.616
 1536SOL    HW1 5351   0.842   2.080   3.617
 1536SOL    HW2 5352   0.718   2.118   3.696
 1537SOL     OW 5353   0.877   3.384   3.055
 1537SOL    HW1 5354   0.861   3.348   2.968
 1537SOL    HW2 5355   0.946   3.329   3.092
 1538SOL     OW 5356   1.341   2.451   3.294
 1538SOL    HW1 5357   1.371   2.419   3.379
 1538SOL    HW2 5358   1.377   2.539   3.287
 1539SOL     OW 5359   0.815   3.258   2.801
 1539SOL    HW1 5360   0.899   3.246   2.756
 1539SOL    HW2 5361   0.750   3.258   2.731
 1540SOL     OW 5362   0.927   2.371   2.766
 1540SOL    HW1 5363   0.904   2.363   2.673
 1540SOL    HW2 5364   0.960   2.284   2.790
 1541SOL     OW 5365   0.552   1.924   2.364
 1541SOL    HW1 5366   0.471   1.922   2.415
 1541SOL    HW2 5367   0.544   2.002   2.310
 1542SOL     OW 5368   1.428   3.060   1.903
 1542SOL    HW1 5369   1.458   2.984   1.953
 1542SOL    HW2 5370   1.342   3.081   1.940
 1543SOL     OW 5371   0.295   1.908   2.040
 1543SOL    HW1 5372   0.358   1.975   2.013
 1543SOL    HW2 5373   0.348   1.842   2.085
 1544SOL     OW 5374   0.938   2.108   2.323
 1544SOL    HW1 5375   0.911   2.150   2.241
 1544SOL    HW2 5376   1.032   2.121   2.327
 1545SOL     OW 5377   1.080   2.542   3.321
 1545SOL    HW1 5378   1.011   2.476   3.327
 1545SOL    HW2 5379   1.161   2.492   3.315
 1546SOL     OW 5380   1.225   3.431   2.655
 1546SOL    HW1 5381   1.241   3.499   2.589
 1546SOL    HW2 5382   1.292   3.446   2.722
 1547SOL     OW 5383   0.466   3.011   2.598
 1547SOL    HW1 5384   0.395   2.992   2.659
 1547SOL    HW2 5385   0.428   2.995   2.512
 1548SOL     OW 5386   1.270   3.656   2.470
 1548SOL    HW1 5387   1.315   3.717   2.412
 1548SOL    HW2 5388   1.203   3.709   2.514
 1549SOL     OW 5389   1.024   2.405   1.883
 1549SOL    HW1 5390   0.980   2.488   1.864
 1549SOL    HW2 5391   1.088   2.427   1.951
 1550SOL     OW 5392   0.083   2.391   3.271
 1550SOL    HW1 5393   0.148   2.389   3.201
 1550SOL    HW2 5394   0.068   2.484   3.287
 1551SOL     OW 5395   0.561   2.090   3.028
 1551SOL    HW1 5396   0.603   2.011   3.062
 1551SOL    HW2 5397   0.469   2.081   3.054
 1552SOL     OW 5398   0.869   2.322   2.502
 1552SOL    HW1 5399   0.822   2.375   2.438
 1552SOL    HW2 5400   0.889   2.241   2.455
 1553SOL     OW 5401   1.014   1.916   2.614
 1553SOL    HW1 5402   0.957   1.907   2.538
 1553SOL    HW2 5403   0.994   1.840   2.669
 1554SOL     OW 5404   1.437   3.025   2.719
 1554SOL    HW1 5405   1.367   2.959   2.720
 1554SOL    HW2 5406   1.458   3.036   2.626
 1555SOL     OW 5407   1.463   2.469   2.843
 1555SOL    HW1 5408   1.417   2.385   2.840
 1555SOL    HW2 5409   1.524   2.461   2.916
 1556SOL     OW 5410   1.847   2.677   2.243
 1556SOL    HW1 5411   1.905   2.627   2.301
 1556SOL    HW2 5412   1.821   2.615   2.175
 1557SOL     OW 5413   0.492   3.279   2.022
 1557SOL    HW1 5414   0.415   3.250   2.071
 1557SOL    HW2 5415   0.474   3.252   1.931
 1558SOL     OW 5416   1.670   3.127   2.508
 1558SOL    HW1 5417   1.764   3.131   2.521
 1558SOL    HW2 5418   1.638   3.215   2.529
 1559SOL     OW 5419   1.394   2.434   1.933
 1559SOL    HW1 5420   1.333   2.415   2.004
 1559SOL    HW2 5421   1.477   2.396   1.963
 1560SOL     OW 5422   0.524   2.122   2.180
 1560SOL    HW1 5423   0.570   2.076   2.110
 1560SOL    HW2 5424   0.505   2.208   2.143
 1561SOL     OW 5425   1.752   3.101   3.435
 1561SOL    HW1 5426   1.839   3.061   3.434
 1561SOL    HW2 5427   1.767   3.191   3.464
 1562SOL     OW 5428   1.059   3.216   3.196
 1562SOL    HW1 5429   0.984   3.185   3.247
 1562SOL    HW2 5430   1.135   3.174   3.237
 1563SOL     OW 5431   1.607   3.488   3.515
 1563SOL    HW1 5432   1.602   3.521   3.426
 1563SOL    HW2 5433   1.690   3.440   3.519
 1564SOL     OW 5434   1.129   3.065   2.968
 1564SOL    HW1 5435   1.069   3.102   3.033
 1564SOL    HW2 5436   1.095   3.096   2.884
 1565SOL     OW 5437   1.630   2.961   2.939
 1565SOL    HW1 5438   1.625   3.023   3.012
 1565SOL    HW2 5439   1.550   2.977   2.889
 1566SOL     OW 5440   0.917   1.960   3.259
 1566SOL    HW1 5441   0.940   1.940   3.168
 1566SOL    HW2 5442   0.997   1.999   3.296
 1567SOL     OW 5443   0.984   2.976   3.584
 1567SOL    HW1 5444   0.892   2.992   3.606
 1567SOL    HW2 5445   0.983   2.899   3.529
 1568SOL     OW 5446   0.709   2.923   2.234
 1568SOL    HW1 5447   0.695   2.907   2.328
 1568SOL    HW2 5448   0.784   2.870   2.211
 1569SOL     OW 5449   0.430   2.687   3.103
 1569SOL    HW1 5450   0.499   2.699   3.168
 1569SOL    HW2 5451   0.372   2.622   3.142
 1570SOL     OW 5452   1.266   2.239   3.137
 1570SOL    HW1 5453   1.299   2.316   3.183
 1570SOL    HW2 5454   1.176   2.261   3.113
 1571SOL     OW 5455   0.062   3.438   3.203
 1571SOL    HW1 5456   0.034   3.528   3.183
 1571SOL    HW2 5457   0.157   3.443   3.210
 1572SOL     OW 5458   0.348   2.970   2.355
 1572SOL    HW1 5459   0.356   3.043   2.294
 1572SOL    HW2 5460   0.348   2.892   2.299
 1573SOL     OW 5461   0.561   2.396   2.718
 1573SOL    HW1 5462   0.574   2.455   2.644
 1573SOL    HW2 5463   0.622   2.426   2.785
 1574SOL     OW 5464   1.248   3.210   2.252
 1574SOL    HW1 5465   1.304   3.282   2.282
 1574SOL    HW2 5466   1.161   3.231   2.285
 1575SOL     OW 5467   1.280   3.319   3.008
 1575SOL    HW1 5468   1.335   3.321   3.087
 1575SOL    HW2 5469   1.224   3.242   3.020
 1576SOL     OW 5470   1.585   2.489   2.338
 1576SOL    HW1 5471   1.534   2.535   2.405
 1576SOL    HW2 5472   1.624   2.559   2.285
 1577SOL     OW 5473   0.347   3.394   3.177
 1577SOL    HW1 5474   0.333   3.346   3.095
 1577SOL    HW2 5475   0.442   3.403   3.184
 1578SOL     OW 5476   0.479   2.621   3.527
 1578SOL    HW1 5477   0.509   2.659   3.445
 1578SOL    HW2 5478   0.520   2.535   3.530
 1579SOL     OW 5479   1.598   2.646   3.539
 1579SOL    HW1 5480   1.512   2.688   3.532
 1579SOL    HW2 5481   1.650   2.688   3.471
 1580SOL     OW 5482   0.996   1.984   3.617
 1580SOL    HW1 5483   1.052   2.057   3.588
 1580SOL    HW2 5484   1.044   1.905   3.592
 1581SOL     OW 5485   0.497   1.905   3.609
 1581SOL    HW1 5486   0.456   1.848   3.544
 1581SOL    HW2 5487   0.438   1.979   3.617
 1582SOL     OW 5488   0.590   2.735   2.886
 1582SOL    HW1 5489   0.618   2.827   2.888
 1582SOL    HW2 5490   0.533   2.726   2.963
 1583SOL     OW 5491   1.358   2.722   2.892
 1583SOL    HW1 5492   1.275   2.712   2.846
 1583SOL    HW2 5493   1.398   2.634   2.888
 1584SOL     OW 5494   1.206   2.391   2.130
 1584SOL    HW1 5495   1.213   2.312   2.184
 1584SOL    HW2 5496   1.162   2.455   2.186
 1585SOL     OW 5497   0.302   2.054   3.104
 1585SOL    HW1 5498   0.263   2.087   3.184
 1585SOL    HW2 5499   0.285   1.959   3.107
 1586SOL     OW 5500   0.040   3.175   3.147
 1586SOL    HW1 5501   0.076   3.128   3.223
 1586SOL    HW2 5502   0.045   3.267   3.172
 1587SOL     OW 5503   0.725   2.493   2.921
 1587SOL    HW1 5504   0.800   2.475   2.863
 1587SOL    HW2 5505   0.698   2.582   2.898
 1588SOL     OW 5506   1.733   2.823   3.712
 1588SOL    HW1 5507   1.688   2.760   3.656
 1588SOL    HW2 5508   1.674   2.835   3.787
 1589SOL     OW 5509   0.310   1.932   2.481
 1589SOL    HW1 5510   0.287   2.021   2.508
 1589SOL    HW2 5511   0.307   1.881   2.562
 1590SOL     OW 5512   1.627   2.236   2.234
 1590SOL    HW1 5513   1.636   2.168   2.301
 1590SOL    HW2 5514   1.598   2.314   2.281
 1591SOL     OW 5515   1.027   2.621   2.823
 1591SOL    HW1 5516   1.025   2.639   2.917
 1591SOL    HW2 5517   1.001   2.529   2.815
 1592SOL     OW 5518   0.983   3.429   3.578
 1592SOL    HW1 5519   0.967   3.472   3.494
 1592SOL    HW2 5520   1.025   3.346   3.555
 1593SOL     OW 5521   1.855   3.369   3.468
 1593SOL    HW1 5522   1.873   3.395   3.377
 1593SOL    HW2 5523   1.936   3.388   3.515
 1594SOL     OW 5524   0.347   2.795   3.680
 1594SOL    HW1 5525   0.420   2.824   3.735
 1594SOL    HW2 5526   0.385   2.728   3.623
 1595SOL     OW 5527   1.529   2.137   1.993
 1595SOL    HW1 5528   1.464   2.070   2.017
 1595SOL    HW2 5529   1.561   2.170   2.076
 1596SOL     OW 5530   1.293   2.689   1.894
 1596SOL    HW1 5531   1.335   2.603   1.897
 1596SOL    HW2 5532   1.323   2.727   1.812
 1597SOL     OW 5533   1.065   3.197   2.715
 1597SOL    HW1 5534   1.068   3.125   2.653
 1597SOL    HW2 5535   1.127   3.262   2.680
 1598SOL     OW 5536   0.318   2.673   2.810
 1598SOL    HW1 5537   0.412   2.690   2.807
 1598SOL    HW2 5538   0.311   2.582   2.839
 1599SOL     OW 5539   0.331   2.386   2.852
 1599SOL    HW1 5540   0.293   2.300   2.837
 1599SOL    HW2 5541   0.409   2.389   2.798
 1600SOL     OW 5542   1.134   2.239   3.543
 1600SOL    HW1 5543   1.087   2.294   3.606
 1600SOL    HW2 5544   1.222   2.276   3.540
 1601SOL     OW 5545   1.160   2.065   3.332
 1601SOL    HW1 5546   1.150   2.128   3.403
 1601SOL    HW2 5547   1.200   2.116   3.261
 1602SOL     OW 5548   4.492   3.184   2.067
 1602SOL    HW1 5549   4.399   3.200   2.049
 1602SOL    HW2 5550   4.496   3.091   2.088
 1603SOL     OW 5551   0.097   3.639   2.802
 1603SOL    HW1 5552   0.058   3.585   2.734
 1603SOL    HW2 5553   0.185   3.660   2.770
 1604SOL     OW 5554   0.497   3.436   2.769
 1604SOL    HW1 5555   0.565   3.498   2.793
 1604SOL    HW2 5556   0.541   3.372   2.712
 1605SOL     OW 5557   0.984   2.655   3.089
 1605SOL    HW1 5558   1.039   2.631   3.163
 1605SOL    HW2 5559   0.899   2.618   3.110
 1606SOL     OW 5560   0.035   2.425   2.966
 1606SOL    HW1 5561   0.118   2.391   2.935
 1606SOL    HW2 5562   0.021   2.381   3.050
 1607SOL     OW 5563   0.179   2.381   3.576
 1607SOL    HW1 5564   0.259   2.351   3.533
 1607SOL    HW2 5565   0.156   2.462   3.531
 1608SOL     OW 5566   1.374   2.803   3.520
 1608SOL    HW1 5567   1.396   2.896   3.518
 1608SOL    HW2 5568   1.371   2.777   3.428
 1609SOL     OW 5569   0.817   2.431   2.220
 1609SOL    HW1 5570   0.820   2.356   2.161
 1609SOL    HW2 5571   0.743   2.484   2.190
 1610SOL     OW 5572   1.643   2.466   3.050
 1610SOL    HW1 5573   1.634   2.404   3.122
 1610SOL    HW2 5574   1.730   2.449   3.014
 1611SOL     OW 5575   0.273   3.423   3.603
 1611SOL    HW1 5576   0.217   3.476   3.659
 1611SOL    HW2 5577   0.253   3.333   3.626
 1612SOL     OW 5578   0.691   2.316   3.124
 1612SOL    HW1 5579   0.645   2.239   3.091
 1612SOL    HW2 5580   0.692   2.378   3.051
 1613SOL     OW 5581   0.929   3.541   3.329
 1613SOL    HW1 5582   0.902   3.507   3.244
 1613SOL    HW2 5583   0.924   3.636   3.319
 1614SOL     OW 5584   0.472   2.352   2.048
 1614SOL    HW1 5585   0.531   2.423   2.071
 1614SOL    HW2 5586   0.388   2.395   2.032
 1615SOL     OW 5587   0.162   3.003   3.323
 1615SOL    HW1 5588   0.146   2.957   3.406
 1615SOL    HW2 5589   0.169   2.933   3.258
 1616SOL     OW 5590   1.327   2.910   3.085
 1616SOL    HW1 5591   1.350   2.846   3.017
 1616SOL    HW2 5592   1.256   2.961   3.047
 1617SOL     OW 5593   1.311   2.719   2.169
 1617SOL    HW1 5594   1.236   2.689   2.219
 1617SOL    HW2 5595   1.287   2.705   2.077
 1618SOL     OW 5596   1.771   3.607   3.012
 1618SOL    HW1 5597   1.831   3.633   2.942
 1618SOL    HW2 5598   1.747   3.516   2.990
 1619SOL     OW 5599   1.241   3.595   2.976
 1619SOL    HW1 5600   1.323   3.615   2.930
 1619SOL    HW2 5601   1.246   3.501   2.994
 1620SOL     OW 5602   0.067   3.047   2.911
 1620SOL    HW1 5603   0.067   3.079   3.001
 1620SOL    HW2 5604   0.021   3.115   2.861
 1621SOL     OW 5605   0.679   3.528   3.591
 1621SOL    HW1 5606   0.623   3.605   3.585
 1621SOL    HW2 5607   0.742   3.538   3.519
 1622SOL     OW 5608   1.679   1.996   2.377
 1622SOL    HW1 5609   1.753   1.988   2.317
 1622SOL    HW2 5610   1.677   1.913   2.425
 1623SOL     OW 5611   1.391   3.430   2.347
 1623SOL    HW1 5612   1.451   3.462   2.279
 1623SOL    HW2 5613   1.342   3.507   2.375
 1624SOL     OW 5614   0.119   3.669   3.709
 1624SOL    HW1 5615   0.079   3.596   3.757
 1624SOL    HW2 5616   0.182   3.706   3.771
 1625SOL     OW 5617   1.278   2.787   2.533
 1625SOL    HW1 5618   1.351   2.726   2.539
 1625SOL    HW2 5619   1.311   2.860   2.481
 1626SOL     OW 5620   0.815   3.136   3.292
 1626SOL    HW1 5621   0.788   3.174   3.375
 1626SOL    HW2 5622   0.744   3.157   3.231
 1627SOL     OW 5623   0.673   3.481   2.017
 1627SOL    HW1 5624   0.682   3.492   1.923
 1627SOL    HW2 5625   0.618   3.403   2.026
 1628SOL     OW 5626   1.628   3.589   3.253
 1628SOL    HW1 5627   1.677   3.596   3.172
 1628SOL    HW2 5628   1.614   3.679   3.281
 1629SOL     OW 5629   1.807   2.016   2.843
 1629SOL    HW1 5630   1.850   1.938   2.809
 1629SOL    HW2 5631   1.728   2.025   2.789
 1630SOL     OW 5632   0.265   2.182   2.581
 1630SOL    HW1 5633   0.182   2.220   2.553
 1630SOL    HW2 5634   0.255   2.169   2.675
 1631SOL     OW 5635   1.207   3.468   1.893
 1631SOL    HW1 5636   1.198   3.377   1.921
 1631SOL    HW2 5637   1.142   3.480   1.824
 1632SOL     OW 5638   0.825   2.869   3.234
 1632SOL    HW1 5639   0.868   2.865   3.148
 1632SOL    HW2 5640   0.825   2.962   3.257
 1633SOL     OW 5641   0.916   2.773   2.152
 1633SOL    HW1 5642   0.977   2.805   2.086
 1633SOL    HW2 5643   0.963   2.703   2.196
 1634SOL     OW 5644   1.492   3.487   1.904
 1634SOL    HW1 5645   1.398   3.481   1.891
 1634SOL    HW2 5646   1.529   3.493   1.816
 1635SOL     OW 5647   0.373   3.169   3.352
 1635SOL    HW1 5648   0.355   3.248   3.301
 1635SOL    HW2 5649   0.298   3.112   3.336
 1636SOL     OW 5650   1.613   3.146   3.143
 1636SOL    HW1 5651   1.669   3.134   3.219
 1636SOL    HW2 5652   1.551   3.214   3.169
 1637SOL     OW 5653   1.052   2.969   2.568
 1637SOL    HW1 5654   0.981   2.918   2.608
 1637SOL    HW2 5655   1.113   2.903   2.536
 1638SOL     OW 5656   1.020   2.102   2.828
 1638SOL    HW1 5657   1.016   2.054   2.746
 1638SOL    HW2 5658   1.016   2.034   2.896
 1639SOL     OW 5659   0.604   3.352   2.344
 1639SOL    HW1 5660   0.645   3.302   2.274
 1639SOL    HW2 5661   0.530   3.395   2.303
 1640SOL     OW 5662   1.722   2.260   3.241
 1640SOL    HW1 5663   1.800   2.315   3.241
 1640SOL    HW2 5664   1.746   2.183   3.189
 1641SOL     OW 5665   0.252   3.206   2.139
 1641SOL    HW1 5666   0.157   3.205   2.124
 1641SOL    HW2 5667   0.262   3.238   2.228
 1642SOL     OW 5668   0.116   2.869   3.556
 1642SOL    HW1 5669   0.052   2.911   3.614
 1642SOL    HW2 5670   0.194   2.859   3.611
 1643SOL     OW 5671   0.674   2.061   3.361
 1643SOL    HW1 5672   0.757   2.039   3.319
 1643SOL    HW2 5673   0.697   2.089   3.449
 1644SOL     OW 5674   0.072   2.187   1.894
 1644SOL    HW1 5675   4.477   2.199   1.899
 1644SOL    HW2 5676   0.104   2.269   1.856
 1645SOL     OW 5677   1.431   2.721   3.263
 1645SOL    HW1 5678   1.382   2.781   3.206
 1645SOL    HW2 5679   1.520   2.723   3.229
 1646SOL     OW 5680   0.086   2.039   2.167
 1646SOL    HW1 5681   0.079   2.111   2.104
 1646SOL    HW2 5682   0.161   1.988   2.138
 1647SOL     OW 5683   1.179   3.202   1.979
 1647SOL    HW1 5684   1.088   3.172   1.981
 1647SOL    HW2 5685   1.207   3.202   2.070
 1648SOL     OW 5686   0.623   2.693   3.292
 1648SOL    HW1 5687   0.679   2.770   3.279
 1648SOL    HW2 5688   0.684   2.620   3.300
 1649SOL     OW 5689   1.484   3.638   2.840
 1649SOL    HW1 5690   1.508   3.697   2.769
 1649SOL    HW2 5691   1.567   3.621   2.885
 1650SOL     OW 5692   0.715   2.425   3.566
 1650SOL    HW1 5693   0.754   2.488   3.625
 1650SOL    HW2 5694   0.747   2.340   3.597
 1651SOL     OW 5695   1.471   3.063   3.494
 1651SOL    HW1 5696   1.458   3.076   3.588
 1651SOL    HW2 5697   1.564   3.077   3.480
 1652SOL     OW 5698   0.381   3.605   3.426
 1652SOL    HW1 5699   0.296   3.645   3.409
 1652SOL    HW2 5700   0.360   3.525   3.474
 1653SOL     OW 5701   1.671   2.744   3.116
 1653SOL    HW1 5702   1.661   2.658   3.075
 1653SOL    HW2 5703   1.660   2.807   3.045
 1654SOL     OW 5704   1.218   2.182   2.319
 1654SOL    HW1 5705   1.280   2.110   2.311
 1654SOL    HW2 5706   1.246   2.230   2.397
 1655SOL     OW 5707   0.590   2.600   2.531
 1655SOL    HW1 5708   0.628   2.687   2.515
 1655SOL    HW2 5709   0.522   2.592   2.465
 1656SOL     OW 5710   1.751   2.235   3.514
 1656SOL    HW1 5711   1.743   2.244   3.419
 1656SOL    HW2 5712   1.682   2.174   3.539
 1657SOL     OW 5713   1.746   2.797   3.372
 1657SOL    HW1 5714   1.742   2.892   3.386
 1657SOL    HW2 5715   1.730   2.786   3.279
 1658SOL     OW 5716   0.864   3.230   1.896
 1658SOL    HW1 5717   0.824   3.256   1.978
 1658SOL    HW2 5718   0.880   3.312   1.850
 1659SOL     OW 5719   0.661   3.654   2.808
 1659SOL    HW1 5720   0.639   3.744   2.784
 1659SOL    HW2 5721   0.756   3.648   2.799
 1660SOL     OW 5722   0.868   2.829   2.717
 1660SOL    HW1 5723   0.917   2.757   2.757
 1660SOL    HW2 5724   0.833   2.878   2.791
 1661SOL     OW 5725   1.080   2.851   1.951
 1661SOL    HW1 5726   1.057   2.901   1.873
 1661SOL    HW2 5727   1.154   2.797   1.925
 1662SOL     OW 5728   1.855   3.416   2.706
 1662SOL    HW1 5729   1.776   3.406   2.652
 1662SOL    HW2 5730   1.844   3.351   2.776
 1663SOL     OW 5731   0.230   3.168   3.719
 1663SOL    HW1 5732   0.157   3.110   3.697
 1663SOL    HW2 5733   0.224   3.178   3.814
 1664SOL     OW 5734   0.106   3.098   2.530
 1664SOL    HW1 5735   0.117   3.051   2.612
 1664SOL    HW2 5736   0.165   3.054   2.469
 1665SOL     OW 5737   0.682   3.264   3.490
 1665SOL    HW1 5738   0.602   3.220   3.518
 1665SOL    HW2 5739   0.675   3.352   3.527
 1666SOL     OW 5740   1.792   2.042   3.104
 1666SOL    HW1 5741   1.822   1.954   3.126
 1666SOL    HW2 5742   1.802   2.048   3.009
 1667SOL     OW 5743   0.435   2.295   2.387
 1667SOL    HW1 5744   0.460   2.222   2.331
 1667SOL    HW2 5745   0.384   2.256   2.458
 1668SOL     OW 5746   1.701   3.351   2.958
 1668SOL    HW1 5747   1.620   3.328   2.913
 1668SOL    HW2 5748   1.712   3.283   3.024
 1669SOL     OW 5749   0.302   2.351   3.116
 1669SOL    HW1 5750   0.376   2.309   3.160
 1669SOL    HW2 5751   0.332   2.366   3.026
 1670SOL     OW 5752   0.827   3.440   2.540
 1670SOL    HW1 5753   0.815   3.491   2.460
 1670SOL    HW2 5754   0.750   3.383   2.544
 1671SOL     OW 5755   1.433   2.088   2.978
 1671SOL    HW1 5756   1.464   2.011   3.025
 1671SOL    HW2 5757   1.380   2.135   3.043
 1672SOL     OW 5758   1.008   1.881   3.005
 1672SOL    HW1 5759   0.954   1.813   2.965
 1672SOL    HW2 5760   1.097   1.843   3.007
 1673SOL     OW 5761   0.772   3.194   2.175
 1673SOL    HW1 5762   0.740   3.104   2.181
 1673SOL    HW2 5763   0.854   3.194   2.224
 1674SOL     OW 5764   0.621   3.418   3.147
 1674SOL    HW1 5765   0.623   3.500   3.197
 1674SOL    HW2 5766   0.708   3.412   3.108
 1675SOL     OW 5767   1.353   1.916   2.026
 1675SOL    HW1 5768   1.380   1.852   1.960
 1675SOL    HW2 5769   1.266   1.887   2.054
 1676SOL     OW 5770   1.295   2.324   2.543
 1676SOL    HW1 5771   1.240   2.402   2.552
 1676SOL    HW2 5772   1.293   2.283   2.629
 1677SOL     OW 5773   1.570   2.058   2.728
 1677SOL    HW1 5774   1.518   2.084   2.804
 1677SOL    HW2 5775   1.578   2.138   2.676
 1678SOL     OW 5776   0.041   2.914   2.150
 1678SOL    HW1 5777   0.135   2.898   2.140
 1678SOL    HW2 5778   0.020   2.880   2.237
 1679SOL     OW 5779   0.884   3.514   2.205
 1679SOL    HW1 5780   0.812   3.496   2.145
 1679SOL    HW2 5781   0.854   3.589   2.256
 1680SOL     OW 5782   0.248   2.490   3.844
 1680SOL    HW1 5783   0.174   2.471   3.901
 1680SOL    HW2 5784   0.216   2.472   3.755
 1681SOL     OW 5785   0.212   2.137   4.716
 1681SOL    HW1 5786   0.249   2.110   4.800
 1681SOL    HW2 5787   0.137   2.080   4.703
 1682SOL     OW 5788   0.008   2.252   4.364
 1682SOL    HW1 5789   4.427   2.283   4.404
 1682SOL    HW2 5790   4.483   2.172   4.318
 1683SOL     OW 5791   0.567   3.148   4.899
 1683SOL    HW1 5792   0.480   3.153   4.860
 1683SOL    HW2 5793   0.583   3.236   4.934
 1684SOL     OW 5794   1.560   3.374   4.431
 1684SOL    HW1 5795   1.517   3.354   4.514
 1684SOL    HW2 5796   1.488   3.378   4.368
 1685SOL     OW 5797   1.132   2.560   4.427
 1685SOL    HW1 5798   1.178   2.642   4.410
 1685SOL    HW2 5799   1.084   2.576   4.508
 1686SOL     OW 5800   1.762   2.471   3.953
 1686SOL    HW1 5801   1.743   2.464   3.860
 1686SOL    HW2 5802   1.742   2.384   3.989
 1687SOL     OW 5803   0.756   3.005   4.764
 1687SOL    HW1 5804   0.687   3.039   4.820
 1687SOL    HW2 5805   0.792   3.081   4.720
 1688SOL     OW 5806   0.867   2.637   5.546
 1688SOL    HW1 5807   0.850   2.707   5.609
 1688SOL    HW2 5808   0.889   2.682   5.464
 1689SOL     OW 5809   0.686   2.866   4.372
 1689SOL    HW1 5810   0.750   2.854   4.441
 1689SOL    HW2 5811   0.616   2.917   4.413
 1690SOL     OW 5812   0.711   3.012   5.536
 1690SOL    HW1 5813   0.757   3.092   5.562
 1690SOL    HW2 5814   0.628   3.044   5.500
 1691SOL     OW 5815   0.336   3.283   4.793
 1691SOL    HW1 5816   0.254   3.264   4.748
 1691SOL    HW2 5817   0.385   3.338   4.732
 1692SOL     OW 5818   1.459   3.362   5.077
 1692SOL    HW1 5819   1.508   3.443   5.086
 1692SOL    HW2 5820   1.397   3.363   5.151
 1693SOL     OW 5821   0.445   2.266   5.216
 1693SOL    HW1 5822   0.524   2.211   5.220
 1693SOL    HW2 5823   0.373   2.204   5.221
 1694SOL     OW 5824   1.599   2.332   4.456
 1694SOL    HW1 5825   1.520   2.343   4.404
 1694SOL    HW2 5826   1.634   2.421   4.466
 1695SOL     OW 5827   0.246   3.553   4.202
 1695SOL    HW1 5828   0.231   3.638   4.243
 1695SOL    HW2 5829   0.312   3.571   4.135
 1696SOL     OW 5830   1.136   3.203   5.416
 1696SOL    HW1 5831   1.175   3.199   5.504
 1696SOL    HW2 5832   1.084   3.123   5.410
 1697SOL     OW 5833   0.249   3.289   4.252
 1697SOL    HW1 5834   0.240   3.384   4.255
 1697SOL    HW2 5835   0.185   3.256   4.315
 1698SOL     OW 5836   0.248   2.944   4.609
 1698SOL    HW1 5837   0.263   2.854   4.637
 1698SOL    HW2 5838   0.188   2.980   4.674
 1699SOL     OW 5839   0.614   3.652   5.156
 1699SOL    HW1 5840   0.531   3.634   5.199
 1699SOL    HW2 5841   0.635   3.743   5.180
 1700SOL     OW 5842   0.580   2.848   3.861
 1700SOL    HW1 5843   0.627   2.892   3.791
 1700SOL    HW2 5844   0.625   2.876   3.941
 1701SOL     OW 5845   0.137   2.507   4.298
 1701SOL    HW1 5846   0.088   2.427   4.314
 1701SOL    HW2 5847   0.106   2.568   4.366
 1702SOL     OW 5848   1.842   3.622   4.059
 1702SOL    HW1 5849   1.905   3.593   4.125
 1702SOL    HW2 5850   1.867   3.712   4.040
 1703SOL     OW 5851   0.033   3.464   3.864
 1703SOL    HW1 5852   0.021   3.369   3.862
 1703SOL    HW2 5853   0.018   3.488   3.955
 1704SOL     OW 5854   1.697   2.784   4.361
 1704SOL    HW1 5855   1.775   2.738   4.329
 1704SOL    HW2 5856   1.666   2.834   4.286
 1705SOL     OW 5857   1.645   2.968   4.153
 1705SOL    HW1 5858   1.731   2.975   4.110
 1705SOL    HW2 5859   1.649   3.031   4.225
 1706SOL     OW 5860   0.110   2.625   5.307
 1706SOL    HW1 5861   0.203   2.624   5.282
 1706SOL    HW2 5862   0.091   2.717   5.324
 1707SOL     OW 5863   0.613   3.246   4.460
 1707SOL    HW1 5864   0.566   3.164   4.469
 1707SOL    HW2 5865   0.597   3.273   4.370
 1708SOL     OW 5866   1.288   3.100   5.149
 1708SOL    HW1 5867   1.320   3.034   5.088
 1708SOL    HW2 5868   1.347   3.094   5.224
 1709SOL     OW 5869   0.816   1.861   4.232
 1709SOL    HW1 5870   0.855   1.946   4.214
 1709SOL    HW2 5871   0.722   1.880   4.241
 1710SOL     OW 5872   0.180   2.802   5.004
 1710SOL    HW1 5873   0.271   2.785   4.982
 1710SOL    HW2 5874   0.132   2.788   4.922
 1711SOL     OW 5875   1.532   2.855   3.922
 1711SOL    HW1 5876   1.462   2.797   3.952
 1711SOL    HW2 5877   1.571   2.889   4.002
 1712SOL     OW 5878   1.186   3.668   5.346
 1712SOL    HW1 5879   1.197   3.726   5.271
 1712SOL    HW2 5880   1.201   3.580   5.311
 1713SOL     OW 5881   0.331   2.118   5.523
 1713SOL    HW1 5882   0.379   2.192   5.558
 1713SOL    HW2 5883   0.243   2.125   5.561
 1714SOL     OW 5884   1.466   3.283   4.675
 1714SOL    HW1 5885   1.398   3.297   4.741
 1714SOL    HW2 5886   1.455   3.192   4.648
 1715SOL     OW 5887   1.659   3.600   4.302
 1715SOL    HW1 5888   1.639   3.570   4.213
 1715SOL    HW2 5889   1.634   3.526   4.358
 1716SOL     OW 5890   0.598   2.583   3.990
 1716SOL    HW1 5891   0.600   2.664   3.939
 1716SOL    HW2 5892   0.532   2.599   4.057
 1717SOL     OW 5893   1.259   2.199   4.639
 1717SOL    HW1 5894   1.177   2.161   4.668
 1717SOL    HW2 5895   1.313   2.206   4.718
 1718SOL     OW 5896   1.581   3.532   4.033
 1718SOL    HW1 5897   1.671   3.564   4.026
 1718SOL    HW2 5898   1.554   3.515   3.943
 1719SOL     OW 5899   0.802   2.478   5.176
 1719SOL    HW1 5900   0.772   2.456   5.265
 1719SOL    HW2 5901   0.756   2.416   5.120
 1720SOL     OW 5902   1.358   2.331   5.422
 1720SOL    HW1 5903   1.361   2.380   5.504
 1720SOL    HW2 5904   1.416   2.256   5.436
 1721SOL     OW 5905   0.958   2.748   5.305
 1721SOL    HW1 5906   1.014   2.680   5.268
 1721SOL    HW2 5907   0.911   2.784   5.229
 1722SOL     OW 5908   0.985   2.275   4.957
 1722SOL    HW1 5909   0.901   2.297   4.998
 1722SOL    HW2 5910   0.961   2.228   4.878
 1723SOL     OW 5911   1.050   2.560   4.150
 1723SOL    HW1 5912   1.065   2.552   4.245
 1723SOL    HW2 5913   0.968   2.513   4.135
 1724SOL     OW 5914   0.096   2.690   4.508
 1724SOL    HW1 5915   0.183   2.672   4.545
 1724SOL    HW2 5916   0.044   2.719   4.583
 1725SOL     OW 5917   0.125   3.714   5.300
 1725SOL    HW1 5918   0.117   3.693   5.393
 1725SOL    HW2 5919   0.044   3.681   5.261
 1726SOL     OW 5920   0.892   2.210   3.918
 1726SOL    HW1 5921   0.933   2.271   3.858
 1726SOL    HW2 5922   0.908   2.124   3.880
 1727SOL     OW 5923   1.696   2.442   5.540
 1727SOL    HW1 5924   1.691   2.522   5.489
 1727SOL    HW2 5925   1.741   2.380   5.483
 1728SOL     OW 5926   1.376   3.004   4.265
 1728SOL    HW1 5927   1.455   2.991   4.212
 1728SOL    HW2 5928   1.323   3.067   4.215
 1729SOL     OW 5929   0.552   2.044   4.617
 1729SOL    HW1 5930   0.554   2.075   4.708
 1729SOL    HW2 5931   0.552   2.124   4.564
 1730SOL     OW 5932   1.006   3.307   4.197
 1730SOL    HW1 5933   0.968   3.379   4.147
 1730SOL    HW2 5934   0.989   3.328   4.288
 1731SOL     OW 5935   0.355   3.672   4.582
 1731SOL    HW1 5936   0.397   3.586   4.592
 1731SOL    HW2 5937   0.426   3.735   4.597
 1732SOL     OW 5938   1.806   2.940   4.575
 1732SOL    HW1 5939   1.745   2.910   4.507
 1732SOL    HW2 5940   1.753   2.941   4.655
 1733SOL     OW 5941   1.228   3.401   5.237
 1733SOL    HW1 5942   1.213   3.328   5.297
 1733SOL    HW2 5943   1.165   3.387   5.166
 1734SOL     OW 5944   0.316   2.816   3.977
 1734SOL    HW1 5945   0.400   2.839   3.937
 1734SOL    HW2 5946   0.300   2.726   3.949
 1735SOL     OW 5947   1.481   2.611   4.443
 1735SOL    HW1 5948   1.463   2.563   4.523
 1735SOL    HW2 5949   1.555   2.668   4.465
 1736SOL     OW 5950   0.467   3.124   5.459
 1736SOL    HW1 5951   0.440   3.130   5.368
 1736SOL    HW2 5952   0.386   3.128   5.509
 1737SOL     OW 5953   1.121   3.640   3.955
 1737SOL    HW1 5954   1.049   3.598   4.001
 1737SOL    HW2 5955   1.144   3.579   3.885
 1738SOL     OW 5956   0.197   2.140   5.210
 1738SOL    HW1 5957   0.136   2.213   5.215
 1738SOL    HW2 5958   0.183   2.091   5.292
 1739SOL     OW 5959   1.629   3.242   3.811
 1739SOL    HW1 5960   1.587   3.327   3.796
 1739SOL    HW2 5961   1.560   3.178   3.792
 1740SOL     OW 5962   0.469   3.606   4.038
 1740SOL    HW1 5963   0.511   3.659   4.106
 1740SOL    HW2 5964   0.542   3.571   3.986
 1741SOL     OW 5965   1.399   1.969   4.156
 1741SOL    HW1 5966   1.390   1.944   4.064
 1741SOL    HW2 5967   1.493   1.978   4.169
 1742SOL     OW 5968   0.261   3.656   4.955
 1742SOL    HW1 5969   0.305   3.580   4.994
 1742SOL    HW2 5970   0.226   3.623   4.873
 1743SOL     OW 5971   0.938   3.560   4.623
 1743SOL    HW1 5972   1.016   3.508   4.643
 1743SOL    HW2 5973   0.894   3.511   4.554
 1744SOL     OW 5974   0.394   2.557   4.198
 1744SOL    HW1 5975   0.418   2.464   4.208
 1744SOL    HW2 5976   0.302   2.561   4.223
 1745SOL     OW 5977   1.525   2.114   5.515
 1745SOL    HW1 5978   1.484   2.072   5.591
 1745SOL    HW2 5979   1.513   2.051   5.444
 1746SOL     OW 5980   0.634   1.987   3.828
 1746SOL    HW1 5981   0.703   1.922   3.843
 1746SOL    HW2 5982   0.586   1.953   3.752
 1747SOL     OW 5983   0.767   2.140   5.479
 1747SOL    HW1 5984   0.842   2.080   5.479
 1747SOL    HW2 5985   0.717   2.116   5.557
 1748SOL     OW 5986   0.877   3.384   4.918
 1748SOL    HW1 5987   0.861   3.348   4.830
 1748SOL    HW2 5988   0.947   3.329   4.954
 1749SOL     OW 5989   0.815   3.257   4.663
 1749SOL    HW1 5990   0.899   3.246   4.618
 1749SOL    HW2 5991   0.750   3.258   4.592
 1750SOL     OW 5992   0.927   2.372   4.627
 1750SOL    HW1 5993   0.904   2.364   4.535
 1750SOL    HW2 5994   0.958   2.285   4.652
 1751SOL     OW 5995   0.552   1.924   4.226
 1751SOL    HW1 5996   0.471   1.922   4.277
 1751SOL    HW2 5997   0.545   2.002   4.171
 1752SOL     OW 5998   1.428   3.060   3.765
 1752SOL    HW1 5999   1.459   2.984   3.815
 1752SOL    HW2 6000   1.342   3.080   3.802
 1753SOL     OW 6001   0.295   1.908   3.902
 1753SOL    HW1 6002   0.358   1.975   3.875
 1753SOL    HW2 6003   0.348   1.842   3.947
 1754SOL     OW 6004   0.938   2.108   4.186
 1754SOL    HW1 6005   0.911   2.149   4.104
 1754SOL    HW2 6006   1.033   2.121   4.189
 1755SOL     OW 6007   1.079   2.530   5.181
 1755SOL    HW1 6008   0.991   2.493   5.186
 1755SOL    HW2 6009   1.137   2.460   5.211
 1756SOL     OW 6010   1.223   3.432   4.518
 1756SOL    HW1 6011   1.240   3.499   4.452
 1756SOL    HW2 6012   1.293   3.444   4.583
 1757SOL     OW 6013   0.466   3.011   4.460
 1757SOL    HW1 6014   0.395   2.992   4.521
 1757SOL    HW2 6015   0.428   2.995   4.374
 1758SOL     OW 6016   1.270   3.656   4.332
 1758SOL    HW1 6017   1.315   3.717   4.274
 1758SOL    HW2 6018   1.204   3.709   4.376
 1759SOL     OW 6019   1.023   2.404   3.746
 1759SOL    HW1 6020   0.981   2.488   3.726
 1759SOL    HW2 6021   1.089   2.426   3.812
 1760SOL     OW 6022   0.084   2.391   5.135
 1760SOL    HW1 6023   0.148   2.390   5.063
 1760SOL    HW2 6024   0.066   2.483   5.149
 1761SOL     OW 6025   0.561   2.091   4.891
 1761SOL    HW1 6026   0.602   2.010   4.922
 1761SOL    HW2 6027   0.469   2.082   4.917
 1762SOL     OW 6028   0.869   2.322   4.364
 1762SOL    HW1 6029   0.821   2.375   4.299
 1762SOL    HW2 6030   0.889   2.241   4.317
 1763SOL     OW 6031   1.012   1.917   4.479
 1763SOL    HW1 6032   0.957   1.908   4.400
 1763SOL    HW2 6033   0.992   1.839   4.530
 1764SOL     OW 6034   1.431   3.029   4.578
 1764SOL    HW1 6035   1.366   2.958   4.579
 1764SOL    HW2 6036   1.456   3.038   4.485
 1765SOL     OW 6037   1.847   2.677   4.110
 1765SOL    HW1 6038   1.907   2.622   4.160
 1765SOL    HW2 6039   1.814   2.620   4.040
 1766SOL     OW 6040   0.492   3.279   3.884
 1766SOL    HW1 6041   0.415   3.250   3.933
 1766SOL    HW2 6042   0.474   3.252   3.793
 1767SOL     OW 6043   1.668   3.130   4.365
 1767SOL    HW1 6044   1.762   3.134   4.382
 1767SOL    HW2 6045   1.635   3.216   4.390
 1768SOL     OW 6046   1.393   2.435   3.794
 1768SOL    HW1 6047   1.335   2.413   3.867
 1768SOL    HW2 6048   1.480   2.406   3.823
 1769SOL     OW 6049   0.525   2.122   4.042
 1769SOL    HW1 6050   0.570   2.076   3.972
 1769SOL    HW2 6051   0.506   2.208   4.005
 1770SOL     OW 6052   1.750   3.114   5.299
 1770SOL    HW1 6053   1.826   3.059   5.319
 1770SOL    HW2 6054   1.778   3.203   5.325
 1771SOL     OW 6055   1.058   3.215   5.058
 1771SOL    HW1 6056   0.984   3.184   5.109
 1771SOL    HW2 6057   1.134   3.174   5.099
 1772SOL     OW 6058   1.608   3.487   5.378
 1772SOL    HW1 6059   1.602   3.521   5.288
 1772SOL    HW2 6060   1.692   3.440   5.380
 1773SOL     OW 6061   1.127   3.063   4.830
 1773SOL    HW1 6062   1.069   3.103   4.895
 1773SOL    HW2 6063   1.095   3.096   4.746
 1774SOL     OW 6064   1.646   3.002   4.794
 1774SOL    HW1 6065   1.630   3.047   4.877
 1774SOL    HW2 6066   1.559   2.987   4.757
 1775SOL     OW 6067   0.916   1.960   5.121
 1775SOL    HW1 6068   0.939   1.940   5.031
 1775SOL    HW2 6069   0.997   1.996   5.159
 1776SOL     OW 6070   0.984   2.976   5.447
 1776SOL    HW1 6071   0.892   2.992   5.468
 1776SOL    HW2 6072   0.982   2.898   5.391
 1777SOL     OW 6073   0.709   2.923   4.096
 1777SOL    HW1 6074   0.695   2.907   4.189
 1777SOL    HW2 6075   0.784   2.870   4.073
 1778SOL     OW 6076   0.430   2.687   4.965
 1778SOL    HW1 6077   0.499   2.698   5.030
 1778SOL    HW2 6078   0.371   2.621   5.003
 1779SOL     OW 6079   1.247   2.237   5.004
 1779SOL    HW1 6080   1.280   2.327   5.015
 1779SOL    HW2 6081   1.156   2.249   4.977
 1780SOL     OW 6082   0.062   3.438   5.065
 1780SOL    HW1 6083   0.034   3.527   5.045
 1780SOL    HW2 6084   0.157   3.444   5.072
 1781SOL     OW 6085   0.348   2.970   4.217
 1781SOL    HW1 6086   0.356   3.044   4.156
 1781SOL    HW2 6087   0.348   2.893   4.161
 1782SOL     OW 6088   0.561   2.396   4.580
 1782SOL    HW1 6089   0.574   2.455   4.506
 1782SOL    HW2 6090   0.622   2.427   4.647
 1783SOL     OW 6091   1.248   3.210   4.113
 1783SOL    HW1 6092   1.304   3.282   4.144
 1783SOL    HW2 6093   1.161   3.231   4.147
 1784SOL     OW 6094   1.279   3.319   4.870
 1784SOL    HW1 6095   1.335   3.322   4.948
 1784SOL    HW2 6096   1.225   3.241   4.883
 1785SOL     OW 6097   1.584   2.486   4.203
 1785SOL    HW1 6098   1.536   2.546   4.260
 1785SOL    HW2 6099   1.626   2.542   4.138
 1786SOL     OW 6100   0.347   3.394   5.039
 1786SOL    HW1 6101   0.333   3.346   4.957
 1786SOL    HW2 6102   0.442   3.403   5.045
 1787SOL     OW 6103   0.481   2.623   5.390
 1787SOL    HW1 6104   0.508   2.660   5.306
 1787SOL    HW2 6105   0.516   2.534   5.390
 1788SOL     OW 6106   0.994   1.982   5.479
 1788SOL    HW1 6107   1.048   2.056   5.451
 1788SOL    HW2 6108   1.045   1.905   5.456
 1789SOL     OW 6109   0.498   1.905   5.471
 1789SOL    HW1 6110   0.456   1.848   5.406
 1789SOL    HW2 6111   0.438   1.979   5.479
 1790SOL     OW 6112   0.591   2.735   4.749
 1790SOL    HW1 6113   0.617   2.827   4.749
 1790SOL    HW2 6114   0.533   2.726   4.825
 1791SOL     OW 6115   1.356   2.720   4.760
 1791SOL    HW1 6116   1.275   2.713   4.709
 1791SOL    HW2 6117   1.381   2.629   4.777
 1792SOL     OW 6118   1.206   2.390   3.992
 1792SOL    HW1 6119   1.214   2.312   4.046
 1792SOL    HW2 6120   1.162   2.454   4.048
 1793SOL     OW 6121   0.302   2.054   4.966
 1793SOL    HW1 6122   0.263   2.087   5.047
 1793SOL    HW2 6123   0.285   1.960   4.968
 1794SOL     OW 6124   0.041   3.174   5.009
 1794SOL    HW1 6125   0.076   3.128   5.085
 1794SOL    HW2 6126   0.046   3.267   5.034
 1795SOL     OW 6127   0.727   2.494   4.784
 1795SOL    HW1 6128   0.799   2.476   4.724
 1795SOL    HW2 6129   0.698   2.582   4.760
 1796SOL     OW 6130   1.711   2.792   5.579
 1796SOL    HW1 6131   1.659   2.794   5.499
 1796SOL    HW2 6132   1.651   2.823   5.647
 1797SOL     OW 6133   0.311   1.932   4.343
 1797SOL    HW1 6134   0.287   2.021   4.370
 1797SOL    HW2 6135   0.307   1.881   4.423
 1798SOL     OW 6136   1.611   2.232   4.094
 1798SOL    HW1 6137   1.645   2.172   4.161
 1798SOL    HW2 6138   1.593   2.313   4.142
 1799SOL     OW 6139   1.031   2.620   4.685
 1799SOL    HW1 6140   1.024   2.638   4.779
 1799SOL    HW2 6141   1.001   2.529   4.676
 1800SOL     OW 6142   0.983   3.429   5.440
 1800SOL    HW1 6143   0.967   3.473   5.357
 1800SOL    HW2 6144   1.025   3.346   5.416
 1801SOL     OW 6145   1.858   3.369   5.329
 1801SOL    HW1 6146   1.874   3.403   5.241
 1801SOL    HW2 6147   1.939   3.388   5.376
 1802SOL     OW 6148   0.347   2.795   5.542
 1802SOL    HW1 6149   0.420   2.825   5.597
 1802SOL    HW2 6150   0.385   2.728   5.485
 1803SOL     OW 6151   1.530   2.134   3.851
 1803SOL    HW1 6152   1.464   2.070   3.878
 1803SOL    HW2 6153   1.563   2.171   3.933
 1804SOL     OW 6154   1.293   2.689   3.756
 1804SOL    HW1 6155   1.335   2.603   3.759
 1804SOL    HW2 6156   1.323   2.728   3.674
 1805SOL     OW 6157   1.066   3.197   4.578
 1805SOL    HW1 6158   1.069   3.125   4.516
 1805SOL    HW2 6159   1.127   3.262   4.543
 1806SOL     OW 6160   0.318   2.673   4.672
 1806SOL    HW1 6161   0.412   2.690   4.668
 1806SOL    HW2 6162   0.310   2.582   4.701
 1807SOL     OW 6163   0.332   2.386   4.715
 1807SOL    HW1 6164   0.293   2.300   4.698
 1807SOL    HW2 6165   0.410   2.388   4.659
 1808SOL     OW 6166   1.111   2.237   5.399
 1808SOL    HW1 6167   1.063   2.288   5.465
 1808SOL    HW2 6168   1.200   2.270   5.404
 1809SOL     OW 6169   1.162   2.059   5.195
 1809SOL    HW1 6170   1.145   2.122   5.265
 1809SOL    HW2 6171   1.198   2.111   5.124
 1810SOL     OW 6172   4.492   3.184   3.929
 1810SOL    HW1 6173   4.399   3.200   3.911
 1810SOL    HW2 6174   4.496   3.091   3.950
 1811SOL     OW 6175   0.097   3.639   4.665
 1811SOL    HW1 6176   0.058   3.585   4.596
 1811SOL    HW2 6177   0.185   3.660   4.632
 1812SOL     OW 6178   0.497   3.436   4.631
 1812SOL    HW1 6179   0.565   3.498   4.655
 1812SOL    HW2 6180   0.541   3.372   4.574
 1813SOL     OW 6181   0.986   2.652   4.950
 1813SOL    HW1 6182   1.039   2.626   5.025
 1813SOL    HW2 6183   0.898   2.620   4.969
 1814SOL     OW 6184   0.036   2.426   4.829
 1814SOL    HW1 6185   0.118   2.390   4.797
 1814SOL    HW2 6186   0.020   2.380   4.911
 1815SOL     OW 6187   0.179   2.381   5.438
 1815SOL    HW1 6188   0.258   2.351   5.393
 1815SOL    HW2 6189   0.155   2.462   5.393
 1816SOL     OW 6190   1.380   2.808   5.389
 1816SOL    HW1 6191   1.403   2.901   5.383
 1816SOL    HW2 6192   1.371   2.780   5.298
 1817SOL     OW 6193   0.817   2.431   4.083
 1817SOL    HW1 6194   0.820   2.356   4.023
 1817SOL    HW2 6195   0.743   2.483   4.052
 1818SOL     OW 6196   0.274   3.423   5.465
 1818SOL    HW1 6197   0.217   3.476   5.521
 1818SOL    HW2 6198   0.253   3.333   5.489
 1819SOL     OW 6199   0.693   2.318   4.987
 1819SOL    HW1 6200   0.646   2.241   4.955
 1819SOL    HW2 6201   0.693   2.378   4.913
 1820SOL     OW 6202   0.929   3.541   5.191
 1820SOL    HW1 6203   0.902   3.507   5.106
 1820SOL    HW2 6204   0.924   3.636   5.181
 1821SOL     OW 6205   0.472   2.352   3.910
 1821SOL    HW1 6206   0.531   2.424   3.933
 1821SOL    HW2 6207   0.388   2.395   3.894
 1822SOL     OW 6208   0.163   3.003   5.186
 1822SOL    HW1 6209   0.145   2.957   5.268
 1822SOL    HW2 6210   0.169   2.933   5.121
 1823SOL     OW 6211   1.334   2.918   4.949
 1823SOL    HW1 6212   1.357   2.849   4.887
 1823SOL    HW2 6213   1.260   2.964   4.908
 1824SOL     OW 6214   1.311   2.718   4.031
 1824SOL    HW1 6215   1.234   2.688   4.080
 1824SOL    HW2 6216   1.287   2.705   3.939
 1825SOL     OW 6217   1.773   3.607   4.875
 1825SOL    HW1 6218   1.832   3.632   4.804
 1825SOL    HW2 6219   1.747   3.517   4.854
 1826SOL     OW 6220   1.241   3.595   4.839
 1826SOL    HW1 6221   1.323   3.616   4.793
 1826SOL    HW2 6222   1.246   3.501   4.856
 1827SOL     OW 6223   0.067   3.047   4.773
 1827SOL    HW1 6224   0.067   3.079   4.863
 1827SOL    HW2 6225   0.021   3.115   4.723
 1828SOL     OW 6226   0.679   3.528   5.453
 1828SOL    HW1 6227   0.622   3.605   5.447
 1828SOL    HW2 6228   0.741   3.539   5.381
 1829SOL     OW 6229   1.719   2.002   4.238
 1829SOL    HW1 6230   1.772   1.954   4.175
 1829SOL    HW2 6231   1.687   1.936   4.299
 1830SOL     OW 6232   1.390   3.430   4.208
 1830SOL    HW1 6233   1.451   3.462   4.141
 1830SOL    HW2 6234   1.342   3.507   4.236
 1831SOL     OW 6235   0.120   3.669   5.571
 1831SOL    HW1 6236   0.079   3.596   5.619
 1831SOL    HW2 6237   0.182   3.706   5.633
 1832SOL     OW 6238   1.276   2.788   4.393
 1832SOL    HW1 6239   1.350   2.728   4.396
 1832SOL    HW2 6240   1.308   2.863   4.342
 1833SOL     OW 6241   0.814   3.135   5.155
 1833SOL    HW1 6242   0.787   3.174   5.237
 1833SOL    HW2 6243   0.745   3.157   5.093
 1834SOL     OW 6244   0.673   3.481   3.879
 1834SOL    HW1 6245   0.682   3.492   3.785
 1834SOL    HW2 6246   0.618   3.403   3.888
 1835SOL     OW 6247   1.626   3.588   5.116
 1835SOL    HW1 6248   1.677   3.594   5.035
 1835SOL    HW2 6249   1.614   3.679   5.143
 1836SOL     OW 6250   0.265   2.182   4.443
 1836SOL    HW1 6251   0.182   2.220   4.415
 1836SOL    HW2 6252   0.254   2.169   4.537
 1837SOL     OW 6253   1.207   3.468   3.755
 1837SOL    HW1 6254   1.198   3.377   3.783
 1837SOL    HW2 6255   1.142   3.480   3.686
 1838SOL     OW 6256   0.828   2.868   5.096
 1838SOL    HW1 6257   0.866   2.868   5.008
 1838SOL    HW2 6258   0.825   2.961   5.120
 1839SOL     OW 6259   0.916   2.773   4.014
 1839SOL    HW1 6260   0.977   2.805   3.947
 1839SOL    HW2 6261   0.963   2.703   4.058
 1840SOL     OW 6262   1.492   3.487   3.766
 1840SOL    HW1 6263   1.398   3.481   3.753
 1840SOL    HW2 6264   1.528   3.493   3.678
 1841SOL     OW 6265   0.374   3.169   5.214
 1841SOL    HW1 6266   0.356   3.248   5.163
 1841SOL    HW2 6267   0.298   3.112   5.198
 1842SOL     OW 6268   1.621   3.150   5.022
 1842SOL    HW1 6269   1.660   3.137   5.108
 1842SOL    HW2 6270   1.555   3.218   5.037
 1843SOL     OW 6271   1.051   2.969   4.430
 1843SOL    HW1 6272   0.980   2.918   4.469
 1843SOL    HW2 6273   1.112   2.904   4.397
 1844SOL     OW 6274   1.009   2.098   4.697
 1844SOL    HW1 6275   1.008   2.054   4.612
 1844SOL    HW2 6276   1.006   2.028   4.761
 1845SOL     OW 6277   0.604   3.351   4.207
 1845SOL    HW1 6278   0.645   3.302   4.136
 1845SOL    HW2 6279   0.530   3.395   4.165
 1846SOL     OW 6280   0.252   3.206   4.001
 1846SOL    HW1 6281   0.157   3.205   3.986
 1846SOL    HW2 6282   0.263   3.238   4.090
 1847SOL     OW 6283   0.116   2.869   5.419
 1847SOL    HW1 6284   0.052   2.911   5.476
 1847SOL    HW2 6285   0.194   2.859   5.473
 1848SOL     OW 6286   0.674   2.061   5.223
 1848SOL    HW1 6287   0.757   2.039   5.182
 1848SOL    HW2 6288   0.697   2.089   5.311
 1849SOL     OW 6289   0.072   2.187   3.756
 1849SOL    HW1 6290   4.477   2.199   3.761
 1849SOL    HW2 6291   0.104   2.269   3.718
 1850SOL     OW 6292   0.086   2.039   4.029
 1850SOL    HW1 6293   0.079   2.110   3.966
 1850SOL    HW2 6294   0.162   1.988   4.000
 1851SOL     OW 6295   1.179   3.202   3.841
 1851SOL    HW1 6296   1.088   3.172   3.843
 1851SOL    HW2 6297   1.207   3.202   3.932
 1852SOL     OW 6298   0.624   2.692   5.153
 1852SOL    HW1 6299   0.679   2.770   5.140
 1852SOL    HW2 6300   0.686   2.620   5.163
 1853SOL     OW 6301   1.483   3.639   4.702
 1853SOL    HW1 6302   1.508   3.697   4.630
 1853SOL    HW2 6303   1.566   3.618   4.746
 1854SOL     OW 6304   0.717   2.424   5.426
 1854SOL    HW1 6305   0.752   2.487   5.489
 1854SOL    HW2 6306   0.746   2.339   5.459
 1855SOL     OW 6307   1.473   3.064   5.355
 1855SOL    HW1 6308   1.460   3.081   5.449
 1855SOL    HW2 6309   1.566   3.084   5.340
 1856SOL     OW 6310   0.381   3.605   5.288
 1856SOL    HW1 6311   0.296   3.645   5.271
 1856SOL    HW2 6312   0.360   3.525   5.337
 1857SOL     OW 6313   1.218   2.182   4.184
 1857SOL    HW1 6314   1.280   2.109   4.174
 1857SOL    HW2 6315   1.250   2.231   4.259
 1858SOL     OW 6316   0.590   2.600   4.393
 1858SOL    HW1 6317   0.628   2.687   4.377
 1858SOL    HW2 6318   0.522   2.592   4.327
 1859SOL     OW 6319   1.787   2.202   5.399
 1859SOL    HW1 6320   1.764   2.222   5.309
 1859SOL    HW2 6321   1.707   2.166   5.437
 1860SOL     OW 6322   0.864   3.230   3.758
 1860SOL    HW1 6323   0.824   3.256   3.840
 1860SOL    HW2 6324   0.880   3.312   3.711
 1861SOL     OW 6325   0.661   3.654   4.670
 1861SOL    HW1 6326   0.639   3.744   4.646
 1861SOL    HW2 6327   0.756   3.648   4.661
 1862SOL     OW 6328   0.868   2.828   4.579
 1862SOL    HW1 6329   0.918   2.758   4.620
 1862SOL    HW2 6330   0.833   2.878   4.653
 1863SOL     OW 6331   1.080   2.851   3.813
 1863SOL    HW1 6332   1.057   2.901   3.734
 1863SOL    HW2 6333   1.154   2.797   3.787
 1864SOL     OW 6334   1.854   3.418   4.570
 1864SOL    HW1 6335   1.777   3.404   4.515
 1864SOL    HW2 6336   1.854   3.344   4.631
 1865SOL     OW 6337   0.230   3.167   5.582
 1865SOL    HW1 6338   0.156   3.111   5.559
 1865SOL    HW2 6339   0.224   3.178   5.676
 1866SOL     OW 6340   0.106   3.098   4.392
 1866SOL    HW1 6341   0.116   3.051   4.474
 1866SOL    HW2 6342   0.165   3.054   4.331
 1867SOL     OW 6343   0.682   3.264   5.353
 1867SOL    HW1 6344   0.602   3.221   5.380
 1867SOL    HW2 6345   0.676   3.352   5.389
 1868SOL     OW 6346   0.436   2.295   4.250
 1868SOL    HW1 6347   0.460   2.222   4.193
 1868SOL    HW2 6348   0.384   2.255   4.320
 1869SOL     OW 6349   1.696   3.354   4.826
 1869SOL    HW1 6350   1.620   3.328   4.774
 1869SOL    HW2 6351   1.710   3.281   4.886
 1870SOL     OW 6352   0.303   2.352   4.978
 1870SOL    HW1 6353   0.376   2.307   5.021
 1870SOL    HW2 6354   0.333   2.366   4.888
 1871SOL     OW 6355   0.827   3.440   4.402
 1871SOL    HW1 6356   0.815   3.491   4.322
 1871SOL    HW2 6357   0.750   3.383   4.405
 1872SOL     OW 6358   1.007   1.878   4.869
 1872SOL    HW1 6359   0.953   1.810   4.828
 1872SOL    HW2 6360   1.095   1.840   4.872
 1873SOL     OW 6361   0.772   3.195   4.037
 1873SOL    HW1 6362   0.740   3.105   4.043
 1873SOL    HW2 6363   0.854   3.195   4.086
 1874SOL     OW 6364   0.621   3.418   5.009
 1874SOL    HW1 6365   0.623   3.500   5.059
 1874SOL    HW2 6366   0.708   3.412   4.970
 1875SOL     OW 6367   1.352   1.915   3.889
 1875SOL    HW1 6368   1.379   1.853   3.821
 1875SOL    HW2 6369   1.265   1.885   3.915
 1876SOL     OW 6370   1.303   2.330   4.405
 1876SOL    HW1 6371   1.241   2.402   4.413
 1876SOL    HW2 6372   1.290   2.279   4.485
 1877SOL     OW 6373   1.541   2.077   4.536
 1877SOL    HW1 6374   1.478   2.098   4.605
 1877SOL    HW2 6375   1.570   2.163   4.503
 1878SOL     OW 6376   0.041   2.914   4.012
 1878SOL    HW1 6377   0.135   2.898   4.002
 1878SOL    HW2 6378   0.020   2.880   4.099
 1879SOL     OW 6379   0.884   3.514   4.067
 1879SOL    HW1 6380   0.812   3.496   4.007
 1879SOL    HW2 6381   0.854   3.589   4.118
 1880SOL     OW 6382   0.248   2.489   5.706
 1880SOL    HW1 6383   0.174   2.470   5.763
 1880SOL    HW2 6384   0.216   2.473   5.617
 1881SOL     OW 6385   0.213   2.137   6.577
 1881SOL    HW1 6386   0.249   2.110   6.662
 1881SOL    HW2 6387   0.137   2.080   6.565
 1882SOL     OW 6388   0.008   2.252   6.226
 1882SOL    HW1 6389   4.428   2.284   6.266
 1882SOL    HW2 6390   4.482   2.173   6.179
 1883SOL     OW 6391   0.568   3.148   6.761
 1883SOL    HW1 6392   0.480   3.153   6.722
 1883SOL    HW2 6393   0.583   3.236   6.796
 1884SOL     OW 6394   1.558   3.368   6.291
 1884SOL    HW1 6395   1.514   3.353   6.374
 1884SOL    HW2 6396   1.486   3.378   6.228
 1885SOL     OW 6397   1.123   2.557   6.285
 1885SOL    HW1 6398   1.170   2.639   6.266
 1885SOL    HW2 6399   1.080   2.573   6.369
 1886SOL     OW 6400   1.830   2.389   5.769
 1886SOL    HW1 6401   1.785   2.413   5.688
 1886SOL    HW2 6402   1.761   2.386   5.836
 1887SOL     OW 6403   0.756   3.005   6.626
 1887SOL    HW1 6404   0.687   3.039   6.683
 1887SOL    HW2 6405   0.791   3.082   6.581
 1888SOL     OW 6406   0.866   2.636   7.407
 1888SOL    HW1 6407   0.851   2.707   7.470
 1888SOL    HW2 6408   0.889   2.681   7.326
 1889SOL     OW 6409   0.685   2.866   6.234
 1889SOL    HW1 6410   0.750   2.853   6.303
 1889SOL    HW2 6411   0.616   2.917   6.275
 1890SOL     OW 6412   0.711   3.012   7.398
 1890SOL    HW1 6413   0.757   3.092   7.424
 1890SOL    HW2 6414   0.628   3.044   7.362
 1891SOL     OW 6415   0.336   3.283   6.656
 1891SOL    HW1 6416   0.254   3.264   6.610
 1891SOL    HW2 6417   0.385   3.338   6.594
 1892SOL     OW 6418   1.461   3.361   6.939
 1892SOL    HW1 6419   1.510   3.442   6.949
 1892SOL    HW2 6420   1.400   3.360   7.013
 1893SOL     OW 6421   0.444   2.266   7.078
 1893SOL    HW1 6422   0.524   2.213   7.083
 1893SOL    HW2 6423   0.373   2.203   7.083
 1894SOL     OW 6424   0.246   3.553   6.064
 1894SOL    HW1 6425   0.230   3.638   6.105
 1894SOL    HW2 6426   0.312   3.571   5.997
 1895SOL     OW 6427   1.136   3.203   7.278
 1895SOL    HW1 6428   1.176   3.199   7.365
 1895SOL    HW2 6429   1.084   3.124   7.272
 1896SOL     OW 6430   0.249   3.289   6.114
 1896SOL    HW1 6431   0.240   3.384   6.117
 1896SOL    HW2 6432   0.185   3.256   6.177
 1897SOL     OW 6433   0.248   2.944   6.471
 1897SOL    HW1 6434   0.264   2.854   6.499
 1897SOL    HW2 6435   0.188   2.980   6.536
 1898SOL     OW 6436   0.614   3.652   7.018
 1898SOL    HW1 6437   0.531   3.634   7.061
 1898SOL    HW2 6438   0.635   3.743   7.042
 1899SOL     OW 6439   0.581   2.848   5.723
 1899SOL    HW1 6440   0.628   2.892   5.653
 1899SOL    HW2 6441   0.625   2.876   5.803
 1900SOL     OW 6442   1.602   1.985   7.056
 1900SOL    HW1 6443   1.595   2.064   7.003
 1900SOL    HW2 6444   1.583   2.014   7.145
 1901SOL     OW 6445   0.137   2.507   6.160
 1901SOL    HW1 6446   0.088   2.427   6.176
 1901SOL    HW2 6447   0.106   2.568   6.228
 1902SOL     OW 6448   1.843   3.621   5.921
 1902SOL    HW1 6449   1.905   3.592   5.989
 1902SOL    HW2 6450   1.868   3.711   5.903
 1903SOL     OW 6451   0.033   3.463   5.726
 1903SOL    HW1 6452   0.021   3.368   5.724
 1903SOL    HW2 6453   0.018   3.488   5.817
 1904SOL     OW 6454   1.623   2.980   6.018
 1904SOL    HW1 6455   1.712   2.965   5.986
 1904SOL    HW2 6456   1.634   3.036   6.095
 1905SOL     OW 6457   0.111   2.624   7.170
 1905SOL    HW1 6458   0.203   2.623   7.144
 1905SOL    HW2 6459   0.092   2.717   7.186
 1906SOL     OW 6460   0.614   3.247   6.322
 1906SOL    HW1 6461   0.567   3.164   6.332
 1906SOL    HW2 6462   0.597   3.273   6.232
 1907SOL     OW 6463   1.289   3.101   7.010
 1907SOL    HW1 6464   1.322   3.034   6.950
 1907SOL    HW2 6465   1.346   3.094   7.087
 1908SOL     OW 6466   0.815   1.861   6.094
 1908SOL    HW1 6467   0.854   1.947   6.075
 1908SOL    HW2 6468   0.722   1.879   6.104
 1909SOL     OW 6469   0.180   2.803   6.866
 1909SOL    HW1 6470   0.272   2.785   6.844
 1909SOL    HW2 6471   0.133   2.787   6.784
 1910SOL     OW 6472   1.522   2.858   5.780
 1910SOL    HW1 6473   1.450   2.802   5.808
 1910SOL    HW2 6474   1.558   2.893   5.861
 1911SOL     OW 6475   1.186   3.668   7.208
 1911SOL    HW1 6476   1.197   3.726   7.132
 1911SOL    HW2 6477   1.201   3.580   7.173
 1912SOL     OW 6478   0.331   2.118   7.383
 1912SOL    HW1 6479   0.380   2.191   7.420
 1912SOL    HW2 6480   0.244   2.126   7.423
 1913SOL     OW 6481   1.467   3.280   6.539
 1913SOL    HW1 6482   1.398   3.296   6.603
 1913SOL    HW2 6483   1.454   3.189   6.511
 1914SOL     OW 6484   1.660   3.597   6.164
 1914SOL    HW1 6485   1.638   3.570   6.075
 1914SOL    HW2 6486   1.635   3.523   6.219
 1915SOL     OW 6487   0.598   2.583   5.852
 1915SOL    HW1 6488   0.600   2.664   5.801
 1915SOL    HW2 6489   0.532   2.599   5.920
 1916SOL     OW 6490   1.282   2.210   6.516
 1916SOL    HW1 6491   1.193   2.177   6.531
 1916SOL    HW2 6492   1.337   2.157   6.574
 1917SOL     OW 6493   1.582   3.531   5.895
 1917SOL    HW1 6494   1.671   3.564   5.888
 1917SOL    HW2 6495   1.555   3.515   5.805
 1918SOL     OW 6496   0.795   2.478   7.037
 1918SOL    HW1 6497   0.768   2.455   7.126
 1918SOL    HW2 6498   0.751   2.413   6.982
 1919SOL     OW 6499   1.394   2.336   7.264
 1919SOL    HW1 6500   1.395   2.381   7.348
 1919SOL    HW2 6501   1.455   2.263   7.274
 1920SOL     OW 6502   0.956   2.750   7.168
 1920SOL    HW1 6503   1.010   2.679   7.132
 1920SOL    HW2 6504   0.908   2.784   7.092
 1921SOL     OW 6505   0.993   2.274   6.825
 1921SOL    HW1 6506   0.910   2.298   6.865
 1921SOL    HW2 6507   0.970   2.228   6.745
 1922SOL     OW 6508   1.050   2.560   6.012
 1922SOL    HW1 6509   1.063   2.555   6.106
 1922SOL    HW2 6510   0.967   2.514   5.997
 1923SOL     OW 6511   0.097   2.690   6.370
 1923SOL    HW1 6512   0.183   2.672   6.407
 1923SOL    HW2 6513   0.044   2.718   6.445
 1924SOL     OW 6514   0.125   3.714   7.162
 1924SOL    HW1 6515   0.117   3.693   7.255
 1924SOL    HW2 6516   0.044   3.681   7.123
 1925SOL     OW 6517   0.892   2.209   5.781
 1925SOL    HW1 6518   0.931   2.271   5.720
 1925SOL    HW2 6519   0.906   2.124   5.741
 1926SOL     OW 6520   1.696   2.448   7.414
 1926SOL    HW1 6521   1.660   2.521   7.363
 1926SOL    HW2 6522   1.723   2.384   7.349
 1927SOL     OW 6523   1.377   3.013   6.135
 1927SOL    HW1 6524   1.452   2.994   6.079
 1927SOL    HW2 6525   1.322   3.071   6.082
 1928SOL     OW 6526   0.553   2.045   6.479
 1928SOL    HW1 6527   0.554   2.074   6.570
 1928SOL    HW2 6528   0.552   2.125   6.427
 1929SOL     OW 6529   1.007   3.307   6.059
 1929SOL    HW1 6530   0.968   3.380   6.009
 1929SOL    HW2 6531   0.987   3.328   6.150
 1930SOL     OW 6532   0.355   3.672   6.444
 1930SOL    HW1 6533   0.397   3.586   6.454
 1930SOL    HW2 6534   0.426   3.735   6.459
 1931SOL     OW 6535   1.789   2.976   6.475
 1931SOL    HW1 6536   1.738   2.947   6.398
 1931SOL    HW2 6537   1.727   2.968   6.548
 1932SOL     OW 6538   1.228   3.401   7.099
 1932SOL    HW1 6539   1.214   3.328   7.160
 1932SOL    HW2 6540   1.164   3.386   7.029
 1933SOL     OW 6541   0.316   2.816   5.839
 1933SOL    HW1 6542   0.400   2.839   5.799
 1933SOL    HW2 6543   0.299   2.726   5.811
 1934SOL     OW 6544   1.406   2.635   6.369
 1934SOL    HW1 6545   1.408   2.551   6.416
 1934SOL    HW2 6546   1.498   2.660   6.362
 1935SOL     OW 6547   0.467   3.124   7.321
 1935SOL    HW1 6548   0.440   3.130   7.230
 1935SOL    HW2 6549   0.386   3.128   7.371
 1936SOL     OW 6550   1.122   3.639   5.818
 1936SOL    HW1 6551   1.048   3.598   5.863
 1936SOL    HW2 6552   1.144   3.578   5.747
 1937SOL     OW 6553   0.196   2.139   7.072
 1937SOL    HW1 6554   0.136   2.214   7.078
 1937SOL    HW2 6555   0.183   2.092   7.154
 1938SOL     OW 6556   1.629   3.241   5.673
 1938SOL    HW1 6557   1.590   3.327   5.659
 1938SOL    HW2 6558   1.558   3.180   5.655
 1939SOL     OW 6559   0.469   3.606   5.899
 1939SOL    HW1 6560   0.511   3.659   5.968
 1939SOL    HW2 6561   0.542   3.571   5.848
 1940SOL     OW 6562   0.261   3.656   6.817
 1940SOL    HW1 6563   0.305   3.580   6.856
 1940SOL    HW2 6564   0.225   3.623   6.735
 1941SOL     OW 6565   0.938   3.561   6.485
 1941SOL    HW1 6566   1.013   3.507   6.508
 1941SOL    HW2 6567   0.893   3.511   6.416
 1942SOL     OW 6568   0.394   2.556   6.059
 1942SOL    HW1 6569   0.418   2.464   6.070
 1942SOL    HW2 6570   0.302   2.561   6.085
 1943SOL     OW 6571   1.533   2.085   7.311
 1943SOL    HW1 6572   1.542   2.106   7.404
 1943SOL    HW2 6573   1.464   2.019   7.308
 1944SOL     OW 6574   0.635   1.988   5.688
 1944SOL    HW1 6575   0.702   1.921   5.705
 1944SOL    HW2 6576   0.586   1.954   5.614
 1945SOL     OW 6577   0.767   2.139   7.340
 1945SOL    HW1 6578   0.842   2.080   7.342
 1945SOL    HW2 6579   0.718   2.118   7.419
 1946SOL     OW 6580   0.878   3.385   6.779
 1946SOL    HW1 6581   0.861   3.347   6.692
 1946SOL    HW2 6582   0.946   3.329   6.816
 1947SOL     OW 6583   1.342   2.450   7.018
 1947SOL    HW1 6584   1.371   2.419   7.103
 1947SOL    HW2 6585   1.376   2.539   7.011
 1948SOL     OW 6586   0.815   3.258   6.525
 1948SOL    HW1 6587   0.899   3.246   6.480
 1948SOL    HW2 6588   0.750   3.258   6.455
 1949SOL     OW 6589   0.928   2.370   6.490
 1949SOL    HW1 6590   0.905   2.363   6.397
 1949SOL    HW2 6591   0.960   2.283   6.514
 1950SOL     OW 6592   0.552   1.924   6.088
 1950SOL    HW1 6593   0.472   1.922   6.139
 1950SOL    HW2 6594   0.544   2.002   6.034
 1951SOL     OW 6595   1.426   3.064   5.626
 1951SOL    HW1 6596   1.453   2.988   5.677
 1951SOL    HW2 6597   1.340   3.087   5.660
 1952SOL     OW 6598   0.295   1.908   5.764
 1952SOL    HW1 6599   0.357   1.975   5.737
 1952SOL    HW2 6600   0.348   1.842   5.809
 1953SOL     OW 6601   0.934   2.108   6.046
 1953SOL    HW1 6602   0.906   2.149   5.964
 1953SOL    HW2 6603   1.029   2.124   6.049
 1954SOL     OW 6604   1.080   2.542   7.045
 1954SOL    HW1 6605   1.010   2.477   7.051
 1954SOL    HW2 6606   1.161   2.491   7.038
 1955SOL     OW 6607   1.227   3.430   6.378
 1955SOL    HW1 6608   1.241   3.499   6.313
 1955SOL    HW2 6609   1.291   3.448   6.447
 1956SOL     OW 6610   0.466   3.011   6.322
 1956SOL    HW1 6611   0.396   2.992   6.383
 1956SOL    HW2 6612   0.428   2.995   6.236
 1957SOL     OW 6613   1.270   3.656   6.194
 1957SOL    HW1 6614   1.315   3.717   6.136
 1957SOL    HW2 6615   1.203   3.709   6.237
 1958SOL     OW 6616   1.019   2.405   5.609
 1958SOL    HW1 6617   0.976   2.488   5.589
 1958SOL    HW2 6618   1.088   2.428   5.671
 1959SOL     OW 6619   0.083   2.391   6.996
 1959SOL    HW1 6620   0.148   2.389   6.925
 1959SOL    HW2 6621   0.067   2.484   7.012
 1960SOL     OW 6622   0.561   2.089   6.752
 1960SOL    HW1 6623   0.602   2.010   6.786
 1960SOL    HW2 6624   0.469   2.082   6.778
 1961SOL     OW 6625   0.869   2.321   6.226
 1961SOL    HW1 6626   0.821   2.376   6.165
 1961SOL    HW2 6627   0.887   2.240   6.177
 1962SOL     OW 6628   1.020   1.912   6.334
 1962SOL    HW1 6629   0.956   1.907   6.262
 1962SOL    HW2 6630   0.997   1.839   6.391
 1963SOL     OW 6631   1.436   3.023   6.440
 1963SOL    HW1 6632   1.365   2.959   6.449
 1963SOL    HW2 6633   1.445   3.036   6.345
 1964SOL     OW 6634   1.457   2.455   6.576
 1964SOL    HW1 6635   1.412   2.370   6.580
 1964SOL    HW2 6636   1.522   2.451   6.647
 1965SOL     OW 6637   0.492   3.278   5.746
 1965SOL    HW1 6638   0.415   3.250   5.795
 1965SOL    HW2 6639   0.473   3.253   5.655
 1966SOL     OW 6640   1.684   3.128   6.238
 1966SOL    HW1 6641   1.763   3.143   6.289
 1966SOL    HW2 6642   1.633   3.208   6.248
 1967SOL     OW 6643   1.382   2.439   5.659
 1967SOL    HW1 6644   1.326   2.417   5.734
 1967SOL    HW2 6645   1.470   2.444   5.696
 1968SOL     OW 6646   0.525   2.122   5.903
 1968SOL    HW1 6647   0.570   2.076   5.833
 1968SOL    HW2 6648   0.506   2.208   5.867
 1969SOL     OW 6649   1.753   3.099   7.162
 1969SOL    HW1 6650   1.841   3.062   7.157
 1969SOL    HW2 6651   1.767   3.190   7.189
 1970SOL     OW 6652   1.059   3.215   6.920
 1970SOL    HW1 6653   0.984   3.185   6.971
 1970SOL    HW2 6654   1.135   3.175   6.961
 1971SOL     OW 6655   1.608   3.488   7.239
 1971SOL    HW1 6656   1.602   3.521   7.150
 1971SOL    HW2 6657   1.690   3.440   7.242
 1972SOL     OW 6658   1.129   3.066   6.691
 1972SOL    HW1 6659   1.070   3.102   6.757
 1972SOL    HW2 6660   1.094   3.097   6.608
 1973SOL     OW 6661   1.614   2.953   6.672
 1973SOL    HW1 6662   1.614   3.017   6.743
 1973SOL    HW2 6663   1.533   2.972   6.624
 1974SOL     OW 6664   0.918   1.960   6.983
 1974SOL    HW1 6665   0.941   1.940   6.892
 1974SOL    HW2 6666   0.997   1.999   7.020
 1975SOL     OW 6667   0.984   2.977   7.308
 1975SOL    HW1 6668   0.892   2.992   7.330
 1975SOL    HW2 6669   0.983   2.899   7.253
 1976SOL     OW 6670   0.709   2.923   5.958
 1976SOL    HW1 6671   0.695   2.907   6.051
 1976SOL    HW2 6672   0.784   2.869   5.935
 1977SOL     OW 6673   0.430   2.687   6.827
 1977SOL    HW1 6674   0.499   2.699   6.892
 1977SOL    HW2 6675   0.372   2.622   6.866
 1978SOL     OW 6676   1.267   2.239   6.859
 1978SOL    HW1 6677   1.299   2.316   6.905
 1978SOL    HW2 6678   1.177   2.260   6.836
 1979SOL     OW 6679   0.062   3.438   6.927
 1979SOL    HW1 6680   0.034   3.528   6.908
 1979SOL    HW2 6681   0.157   3.444   6.934
 1980SOL     OW 6682   0.348   2.970   6.079
 1980SOL    HW1 6683   0.356   3.044   6.018
 1980SOL    HW2 6684   0.348   2.893   6.023
 1981SOL     OW 6685   0.562   2.395   6.441
 1981SOL    HW1 6686   0.575   2.455   6.368
 1981SOL    HW2 6687   0.622   2.426   6.509
 1982SOL     OW 6688   1.248   3.211   5.975
 1982SOL    HW1 6689   1.303   3.282   6.006
 1982SOL    HW2 6690   1.160   3.232   6.009
 1983SOL     OW 6691   1.280   3.319   6.732
 1983SOL    HW1 6692   1.335   3.321   6.811
 1983SOL    HW2 6693   1.224   3.243   6.745
 1984SOL     OW 6694   0.347   3.394   6.901
 1984SOL    HW1 6695   0.333   3.346   6.819
 1984SOL    HW2 6696   0.442   3.403   6.907
 1985SOL     OW 6697   0.479   2.621   7.251
 1985SOL    HW1 6698   0.508   2.659   7.168
 1985SOL    HW2 6699   0.520   2.534   7.253
 1986SOL     OW 6700   1.598   2.645   7.263
 1986SOL    HW1 6701   1.512   2.687   7.256
 1986SOL    HW2 6702   1.651   2.688   7.195
 1987SOL     OW 6703   0.996   1.984   7.341
 1987SOL    HW1 6704   1.052   2.056   7.312
 1987SOL    HW2 6705   1.044   1.905   7.316
 1988SOL     OW 6706   0.498   1.905   7.332
 1988SOL    HW1 6707   0.456   1.848   7.267
 1988SOL    HW2 6708   0.438   1.979   7.341
 1989SOL     OW 6709   0.590   2.735   6.611
 1989SOL    HW1 6710   0.618   2.827   6.612
 1989SOL    HW2 6711   0.533   2.726   6.687
 1990SOL     OW 6712   1.357   2.716   6.635
 1990SOL    HW1 6713   1.290   2.717   6.567
 1990SOL    HW2 6714   1.401   2.631   6.624
 1991SOL     OW 6715   1.208   2.393   5.861
 1991SOL    HW1 6716   1.204   2.312   5.912
 1991SOL    HW2 6717   1.160   2.457   5.913
 1992SOL     OW 6718   0.302   2.054   6.828
 1992SOL    HW1 6719   0.263   2.087   6.908
 1992SOL    HW2 6720   0.285   1.960   6.831
 1993SOL     OW 6721   0.041   3.174   6.871
 1993SOL    HW1 6722   0.076   3.128   6.947
 1993SOL    HW2 6723   0.046   3.267   6.896
 1994SOL     OW 6724   0.725   2.493   6.645
 1994SOL    HW1 6725   0.800   2.476   6.587
 1994SOL    HW2 6726   0.698   2.582   6.622
 1995SOL     OW 6727   1.733   2.823   7.436
 1995SOL    HW1 6728   1.687   2.761   7.380
 1995SOL    HW2 6729   1.676   2.835   7.511
 1996SOL     OW 6730   0.311   1.932   6.205
 1996SOL    HW1 6731   0.287   2.021   6.232
 1996SOL    HW2 6732   0.307   1.881   6.285
 1997SOL     OW 6733   1.025   2.621   6.546
 1997SOL    HW1 6734   1.026   2.639   6.640
 1997SOL    HW2 6735   1.000   2.529   6.539
 1998SOL     OW 6736   0.983   3.429   7.302
 1998SOL    HW1 6737   0.968   3.473   7.218
 1998SOL    HW2 6738   1.025   3.346   7.279
 1999SOL     OW 6739   1.855   3.368   7.191
 1999SOL    HW1 6740   1.873   3.395   7.101
 1999SOL    HW2 6741   1.936   3.388   7.238
 2000SOL     OW 6742   0.347   2.795   7.404
 2000SOL    HW1 6743   0.420   2.824   7.459
 2000SOL    HW2 6744   0.385   2.728   7.347
 2001SOL     OW 6745   1.293   2.691   5.617
 2001SOL    HW1 6746   1.330   2.603   5.620
 2001SOL    HW2 6747   1.328   2.730   5.537
 2002SOL     OW 6748   1.066   3.198   6.440
 2002SOL    HW1 6749   1.067   3.126   6.377
 2002SOL    HW2 6750   1.127   3.262   6.403
 2003SOL     OW 6751   0.318   2.673   6.534
 2003SOL    HW1 6752   0.412   2.690   6.531
 2003SOL    HW2 6753   0.311   2.582   6.563
 2004SOL     OW 6754   0.332   2.386   6.576
 2004SOL    HW1 6755   0.293   2.300   6.561
 2004SOL    HW2 6756   0.410   2.388   6.521
 2005SOL     OW 6757   1.134   2.239   7.267
 2005SOL    HW1 6758   1.087   2.293   7.330
 2005SOL    HW2 6759   1.222   2.277   7.264
 2006SOL     OW 6760   1.161   2.065   7.055
 2006SOL    HW1 6761   1.150   2.128   7.127
 2006SOL    HW2 6762   1.200   2.116   6.984
 2007SOL     OW 6763   4.492   3.184   5.790
 2007SOL    HW1 6764   4.399   3.200   5.772
 2007SOL    HW2 6765   4.496   3.091   5.812
 2008SOL     OW 6766   0.097   3.639   6.527
 2008SOL    HW1 6767   0.058   3.585   6.458
 2008SOL    HW2 6768   0.185   3.660   6.494
 2009SOL     OW 6769   0.497   3.436   6.493
 2009SOL    HW1 6770   0.565   3.498   6.517
 2009SOL    HW2 6771   0.541   3.372   6.436
 2010SOL     OW 6772   0.985   2.655   6.813
 2010SOL    HW1 6773   1.040   2.631   6.887
 2010SOL    HW2 6774   0.899   2.619   6.834
 2011SOL     OW 6775   0.035   2.425   6.691
 2011SOL    HW1 6776   0.119   2.391   6.659
 2011SOL    HW2 6777   0.020   2.380   6.774
 2012SOL     OW 6778   0.179   2.381   7.300
 2012SOL    HW1 6779   0.259   2.352   7.257
 2012SOL    HW2 6780   0.155   2.462   7.255
 2013SOL     OW 6781   1.375   2.803   7.245
 2013SOL    HW1 6782   1.396   2.896   7.243
 2013SOL    HW2 6783   1.371   2.777   7.152
 2014SOL     OW 6784   0.817   2.431   5.944
 2014SOL    HW1 6785   0.819   2.356   5.885
 2014SOL    HW2 6786   0.743   2.484   5.914
 2015SOL     OW 6787   1.642   2.466   6.776
 2015SOL    HW1 6788   1.631   2.405   6.850
 2015SOL    HW2 6789   1.728   2.445   6.740
 2016SOL     OW 6790   0.274   3.423   7.327
 2016SOL    HW1 6791   0.217   3.476   7.383
 2016SOL    HW2 6792   0.253   3.333   7.351
 2017SOL     OW 6793   0.691   2.316   6.848
 2017SOL    HW1 6794   0.645   2.239   6.815
 2017SOL    HW2 6795   0.692   2.378   6.775
 2018SOL     OW 6796   0.930   3.541   7.052
 2018SOL    HW1 6797   0.902   3.507   6.967
 2018SOL    HW2 6798   0.924   3.636   7.043
 2019SOL     OW 6799   0.473   2.352   5.772
 2019SOL    HW1 6800   0.531   2.424   5.795
 2019SOL    HW2 6801   0.388   2.394   5.756
 2020SOL     OW 6802   0.162   3.003   7.048
 2020SOL    HW1 6803   0.145   2.957   7.130
 2020SOL    HW2 6804   0.169   2.933   6.983
 2021SOL     OW 6805   1.327   2.913   6.811
 2021SOL    HW1 6806   1.345   2.843   6.748
 2021SOL    HW2 6807   1.256   2.963   6.772
 2022SOL     OW 6808   1.303   2.723   5.892
 2022SOL    HW1 6809   1.226   2.695   5.942
 2022SOL    HW2 6810   1.279   2.706   5.801
 2023SOL     OW 6811   1.771   3.610   6.736
 2023SOL    HW1 6812   1.832   3.634   6.666
 2023SOL    HW2 6813   1.745   3.520   6.716
 2024SOL     OW 6814   1.241   3.595   6.699
 2024SOL    HW1 6815   1.323   3.615   6.654
 2024SOL    HW2 6816   1.246   3.501   6.718
 2025SOL     OW 6817   0.067   3.047   6.635
 2025SOL    HW1 6818   0.067   3.079   6.725
 2025SOL    HW2 6819   0.021   3.115   6.585
 2026SOL     OW 6820   0.679   3.528   7.315
 2026SOL    HW1 6821   0.623   3.605   7.309
 2026SOL    HW2 6822   0.741   3.538   7.243
 2027SOL     OW 6823   1.391   3.430   6.071
 2027SOL    HW1 6824   1.451   3.462   6.003
 2027SOL    HW2 6825   1.342   3.507   6.098
 2028SOL     OW 6826   0.120   3.669   7.433
 2028SOL    HW1 6827   0.079   3.596   7.481
 2028SOL    HW2 6828   0.182   3.706   7.495
 2029SOL     OW 6829   1.249   2.797   6.235
 2029SOL    HW1 6830   1.316   2.743   6.277
 2029SOL    HW2 6831   1.298   2.867   6.192
 2030SOL     OW 6832   0.815   3.136   7.016
 2030SOL    HW1 6833   0.788   3.174   7.099
 2030SOL    HW2 6834   0.744   3.157   6.955
 2031SOL     OW 6835   0.673   3.481   5.741
 2031SOL    HW1 6836   0.682   3.492   5.646
 2031SOL    HW2 6837   0.618   3.403   5.750
 2032SOL     OW 6838   1.628   3.589   6.978
 2032SOL    HW1 6839   1.677   3.596   6.896
 2032SOL    HW2 6840   1.614   3.679   7.006
 2033SOL     OW 6841   0.265   2.182   6.305
 2033SOL    HW1 6842   0.182   2.220   6.277
 2033SOL    HW2 6843   0.254   2.169   6.399
 2034SOL     OW 6844   1.207   3.468   5.617
 2034SOL    HW1 6845   1.197   3.377   5.644
 2034SOL    HW2 6846   1.142   3.480   5.548
 2035SOL     OW 6847   0.826   2.869   6.958
 2035SOL    HW1 6848   0.868   2.866   6.872
 2035SOL    HW2 6849   0.825   2.962   6.981
 2036SOL     OW 6850   0.915   2.772   5.875
 2036SOL    HW1 6851   0.977   2.804   5.809
 2036SOL    HW2 6852   0.963   2.703   5.921
 2037SOL     OW 6853   1.493   3.486   5.629
 2037SOL    HW1 6854   1.398   3.481   5.616
 2037SOL    HW2 6855   1.529   3.493   5.540
 2038SOL     OW 6856   0.373   3.169   7.076
 2038SOL    HW1 6857   0.355   3.248   7.025
 2038SOL    HW2 6858   0.298   3.112   7.060
 2039SOL     OW 6859   1.608   3.143   6.866
 2039SOL    HW1 6860   1.674   3.137   6.935
 2039SOL    HW2 6861   1.550   3.213   6.894
 2040SOL     OW 6862   1.046   2.972   6.292
 2040SOL    HW1 6863   0.977   2.920   6.331
 2040SOL    HW2 6864   1.109   2.908   6.259
 2041SOL     OW 6865   1.022   2.101   6.552
 2041SOL    HW1 6866   1.017   2.054   6.469
 2041SOL    HW2 6867   1.016   2.033   6.619
 2042SOL     OW 6868   0.604   3.352   6.068
 2042SOL    HW1 6869   0.645   3.302   5.997
 2042SOL    HW2 6870   0.529   3.395   6.028
 2043SOL     OW 6871   1.725   2.254   6.962
 2043SOL    HW1 6872   1.803   2.310   6.960
 2043SOL    HW2 6873   1.745   2.183   6.901
 2044SOL     OW 6874   0.252   3.206   5.863
 2044SOL    HW1 6875   0.157   3.206   5.848
 2044SOL    HW2 6876   0.262   3.238   5.952
 2045SOL     OW 6877   0.116   2.869   7.280
 2045SOL    HW1 6878   0.052   2.911   7.338
 2045SOL    HW2 6879   0.194   2.859   7.335
 2046SOL     OW 6880   0.674   2.061   7.085
 2046SOL    HW1 6881   0.757   2.039   7.044
 2046SOL    HW2 6882   0.697   2.089   7.173
 2047SOL     OW 6883   0.072   2.187   5.618
 2047SOL    HW1 6884   4.477   2.198   5.623
 2047SOL    HW2 6885   0.104   2.269   5.581
 2048SOL     OW 6886   1.431   2.721   6.987
 2048SOL    HW1 6887   1.382   2.780   6.931
 2048SOL    HW2 6888   1.520   2.723   6.954
 2049SOL     OW 6889   0.086   2.039   5.891
 2049SOL    HW1 6890   0.079   2.110   5.828
 2049SOL    HW2 6891   0.162   1.988   5.862
 2050SOL     OW 6892   1.179   3.201   5.702
 2050SOL    HW1 6893   1.088   3.173   5.705
 2050SOL    HW2 6894   1.206   3.201   5.794
 2051SOL     OW 6895   0.623   2.693   7.016
 2051SOL    HW1 6896   0.679   2.770   7.003
 2051SOL    HW2 6897   0.685   2.620   7.024
 2052SOL     OW 6898   1.484   3.636   6.562
 2052SOL    HW1 6899   1.508   3.698   6.493
 2052SOL    HW2 6900   1.566   3.621   6.610
 2053SOL     OW 6901   0.715   2.424   7.289
 2053SOL    HW1 6902   0.754   2.488   7.349
 2053SOL    HW2 6903   0.747   2.340   7.321
 2054SOL     OW 6904   1.471   3.063   7.218
 2054SOL    HW1 6905   1.458   3.076   7.312
 2054SOL    HW2 6906   1.564   3.077   7.204
 2055SOL     OW 6907   0.381   3.605   7.150
 2055SOL    HW1 6908   0.296   3.645   7.133
 2055SOL    HW2 6909   0.360   3.525   7.198
 2056SOL     OW 6910   1.674   2.742   6.843
 2056SOL    HW1 6911   1.659   2.657   6.801
 2056SOL    HW2 6912   1.654   2.806   6.775
 2057SOL     OW 6913   1.207   2.181   6.043
 2057SOL    HW1 6914   1.280   2.121   6.029
 2057SOL    HW2 6915   1.230   2.228   6.123
 2058SOL     OW 6916   0.591   2.600   6.254
 2058SOL    HW1 6917   0.628   2.687   6.239
 2058SOL    HW2 6918   0.522   2.592   6.189
 2059SOL     OW 6919   1.752   2.232   7.236
 2059SOL    HW1 6920   1.745   2.240   7.141
 2059SOL    HW2 6921   1.681   2.172   7.260
 2060SOL     OW 6922   1.750   2.796   7.097
 2060SOL    HW1 6923   1.743   2.891   7.112
 2060SOL    HW2 6924   1.732   2.785   7.004
 2061SOL     OW 6925   0.866   3.229   5.620
 2061SOL    HW1 6926   0.824   3.256   5.702
 2061SOL    HW2 6927   0.880   3.312   5.573
 2062SOL     OW 6928   0.661   3.654   6.532
 2062SOL    HW1 6929   0.639   3.744   6.508
 2062SOL    HW2 6930   0.756   3.649   6.523
 2063SOL     OW 6931   0.867   2.829   6.441
 2063SOL    HW1 6932   0.917   2.757   6.480
 2063SOL    HW2 6933   0.832   2.878   6.516
 2064SOL     OW 6934   1.080   2.850   5.675
 2064SOL    HW1 6935   1.057   2.901   5.597
 2064SOL    HW2 6936   1.155   2.798   5.648
 2065SOL     OW 6937   1.858   3.408   6.426
 2065SOL    HW1 6938   1.769   3.406   6.391
 2065SOL    HW2 6939   1.856   3.346   6.499
 2066SOL     OW 6940   0.230   3.168   7.444
 2066SOL    HW1 6941   0.157   3.110   7.421
 2066SOL    HW2 6942   0.224   3.178   7.538
 2067SOL     OW 6943   0.106   3.099   6.254
 2067SOL    HW1 6944   0.115   3.051   6.336
 2067SOL    HW2 6945   0.165   3.053   6.193
 2068SOL     OW 6946   0.682   3.264   7.214
 2068SOL    HW1 6947   0.602   3.220   7.242
 2068SOL    HW2 6948   0.675   3.352   7.251
 2069SOL     OW 6949   1.788   2.046   6.796
 2069SOL    HW1 6950   1.796   1.956   6.826
 2069SOL    HW2 6951   1.837   2.049   6.714
 2070SOL     OW 6952   0.436   2.295   6.112
 2070SOL    HW1 6953   0.459   2.221   6.056
 2070SOL    HW2 6954   0.384   2.256   6.182
 2071SOL     OW 6955   1.694   3.359   6.685
 2071SOL    HW1 6956   1.615   3.330   6.640
 2071SOL    HW2 6957   1.714   3.288   6.746
 2072SOL     OW 6958   0.302   2.351   6.839
 2072SOL    HW1 6959   0.375   2.308   6.884
 2072SOL    HW2 6960   0.333   2.366   6.750
 2073SOL     OW 6961   0.828   3.439   6.264
 2073SOL    HW1 6962   0.815   3.492   6.185
 2073SOL    HW2 6963   0.750   3.383   6.268
 2074SOL     OW 6964   1.443   2.094   6.702
 2074SOL    HW1 6965   1.461   2.009   6.742
 2074SOL    HW2 6966   1.387   2.139   6.766
 2075SOL     OW 6967   1.009   1.881   6.729
 2075SOL    HW1 6968   0.954   1.813   6.691
 2075SOL    HW2 6969   1.096   1.843   6.731
 2076SOL     OW 6970   0.772   3.194   5.898
 2076SOL    HW1 6971   0.740   3.104   5.905
 2076SOL    HW2 6972   0.854   3.194   5.949
 2077SOL     OW 6973   0.621   3.418   6.871
 2077SOL    HW1 6974   0.623   3.500   6.921
 2077SOL    HW2 6975   0.708   3.412   6.832
 2078SOL     OW 6976   1.321   1.934   5.724
 2078SOL    HW1 6977   1.378   1.863   5.696
 2078SOL    HW2 6978   1.246   1.891   5.764
 2079SOL     OW 6979   1.280   2.321   6.263
 2079SOL    HW1 6980   1.230   2.402   6.274
 2079SOL    HW2 6981   1.286   2.285   6.352
 2080SOL     OW 6982   0.041   2.914   5.874
 2080SOL    HW1 6983   0.135   2.898   5.864
 2080SOL    HW2 6984   0.020   2.880   5.961
 2081SOL     OW 6985   0.884   3.514   5.928
 2081SOL    HW1 6986   0.812   3.496   5.868
 2081SOL    HW2 6987   0.854   3.589   5.980
 2082SOL     OW 6988   0.248   2.490   7.568
 2082SOL    HW1 6989   0.174   2.470   7.625
 2082SOL    HW2 6990   0.216   2.472   7.479
 2083SOL     OW 6991   0.213   2.137   8.439
 2083SOL    HW1 6992   0.249   2.111   8.524
 2083SOL    HW2 6993   0.137   2.080   8.427
 2084SOL     OW 6994   0.008   2.252   8.088
 2084SOL    HW1 6995   4.428   2.284   8.128
 2084SOL    HW2 6996   4.483   2.173   8.042
 2085SOL     OW 6997   0.568   3.148   8.623
 2085SOL    HW1 6998   0.480   3.153   8.584
 2085SOL    HW2 6999   0.583   3.236   8.658
 2086SOL     OW 7000   1.560   3.374   8.155
 2086SOL    HW1 7001   1.517   3.354   8.238
 2086SOL    HW2 7002   1.489   3.378   8.091
 2087SOL     OW 7003   1.130   2.560   8.150
 2087SOL    HW1 7004   1.179   2.641   8.136
 2087SOL    HW2 7005   1.083   2.574   8.232
 2088SOL     OW 7006   1.766   2.471   7.677
 2088SOL    HW1 7007   1.745   2.463   7.584
 2088SOL    HW2 7008   1.740   2.386   7.714
 2089SOL     OW 7009   0.756   3.005   8.488
 2089SOL    HW1 7010   0.687   3.039   8.544
 2089SOL    HW2 7011   0.791   3.082   8.443
 2090SOL     OW 7012   0.866   2.636   9.269
 2090SOL    HW1 7013   0.851   2.708   9.331
 2090SOL    HW2 7014   0.889   2.681   9.187
 2091SOL     OW 7015   0.685   2.866   8.096
 2091SOL    HW1 7016   0.750   2.853   8.165
 2091SOL    HW2 7017   0.616   2.917   8.137
 2092SOL     OW 7018   0.710   3.012   9.260
 2092SOL    HW1 7019   0.757   3.092   9.286
 2092SOL    HW2 7020   0.628   3.044   9.224
 2093SOL     OW 7021   0.336   3.283   8.518
 2093SOL    HW1 7022   0.254   3.264   8.472
 2093SOL    HW2 7023   0.385   3.338   8.456
 2094SOL     OW 7024   1.461   3.361   8.801
 2094SOL    HW1 7025   1.510   3.442   8.812
 2094SOL    HW2 7026   1.400   3.360   8.875
 2095SOL     OW 7027   0.444   2.266   8.940
 2095SOL    HW1 7028   0.524   2.213   8.945
 2095SOL    HW2 7029   0.373   2.203   8.946
 2096SOL     OW 7030   1.603   2.314   8.192
 2096SOL    HW1 7031   1.529   2.337   8.137
 2096SOL    HW2 7032   1.620   2.393   8.243
 2097SOL     OW 7033   0.246   3.553   7.926
 2097SOL    HW1 7034   0.231   3.638   7.967
 2097SOL    HW2 7035   0.312   3.571   7.859
 2098SOL     OW 7036   1.136   3.203   9.140
 2098SOL    HW1 7037   1.176   3.199   9.227
 2098SOL    HW2 7038   1.084   3.124   9.134
 2099SOL     OW 7039   0.249   3.289   7.976
 2099SOL    HW1 7040   0.240   3.384   7.979
 2099SOL    HW2 7041   0.185   3.256   8.039
 2100SOL     OW 7042   0.248   2.944   8.332
 2100SOL    HW1 7043   0.264   2.854   8.361
 2100SOL    HW2 7044   0.188   2.980   8.398
 2101SOL     OW 7045   0.614   3.653   8.880
 2101SOL    HW1 7046   0.531   3.634   8.923
 2101SOL    HW2 7047   0.635   3.743   8.904
 2102SOL     OW 7048   0.580   2.848   7.586
 2102SOL    HW1 7049   0.628   2.892   7.515
 2102SOL    HW2 7050   0.625   2.876   7.665
 2103SOL     OW 7051   1.590   1.980   8.922
 2103SOL    HW1 7052   1.605   2.055   8.864
 2103SOL    HW2 7053   1.579   2.020   9.009
 2104SOL     OW 7054   0.136   2.507   8.022
 2104SOL    HW1 7055   0.088   2.427   8.039
 2104SOL    HW2 7056   0.106   2.568   8.089
 2105SOL     OW 7057   1.842   3.622   7.783
 2105SOL    HW1 7058   1.905   3.593   7.849
 2105SOL    HW2 7059   1.867   3.712   7.764
 2106SOL     OW 7060   0.033   3.464   7.588
 2106SOL    HW1 7061   0.021   3.369   7.586
 2106SOL    HW2 7062   0.019   3.488   7.679
 2107SOL     OW 7063   1.691   2.781   8.088
 2107SOL    HW1 7064   1.772   2.737   8.065
 2107SOL    HW2 7065   1.667   2.831   8.010
 2108SOL     OW 7066   1.645   2.969   7.877
 2108SOL    HW1 7067   1.731   2.975   7.835
 2108SOL    HW2 7068   1.650   3.030   7.951
 2109SOL     OW 7069   0.111   2.624   9.032
 2109SOL    HW1 7070   0.203   2.623   9.005
 2109SOL    HW2 7071   0.092   2.717   9.049
 2110SOL     OW 7072   0.614   3.247   8.184
 2110SOL    HW1 7073   0.567   3.164   8.194
 2110SOL    HW2 7074   0.597   3.273   8.094
 2111SOL     OW 7075   1.290   3.101   8.871
 2111SOL    HW1 7076   1.322   3.033   8.812
 2111SOL    HW2 7077   1.346   3.094   8.948
 2112SOL     OW 7078   0.815   1.861   7.955
 2112SOL    HW1 7079   0.855   1.946   7.938
 2112SOL    HW2 7080   0.722   1.880   7.965
 2113SOL     OW 7081   0.180   2.803   8.727
 2113SOL    HW1 7082   0.272   2.785   8.706
 2113SOL    HW2 7083   0.133   2.787   8.646
 2114SOL     OW 7084   1.532   2.855   7.646
 2114SOL    HW1 7085   1.462   2.797   7.676
 2114SOL    HW2 7086   1.572   2.889   7.726
 2115SOL     OW 7087   1.186   3.668   9.070
 2115SOL    HW1 7088   1.197   3.726   8.994
 2115SOL    HW2 7089   1.201   3.580   9.035
 2116SOL     OW 7090   0.330   2.118   9.245
 2116SOL    HW1 7091   0.380   2.191   9.282
 2116SOL    HW2 7092   0.244   2.126   9.285
 2117SOL     OW 7093   1.467   3.281   8.400
 2117SOL    HW1 7094   1.398   3.296   8.465
 2117SOL    HW2 7095   1.454   3.190   8.373
 2118SOL     OW 7096   1.660   3.599   8.026
 2118SOL    HW1 7097   1.638   3.571   7.937
 2118SOL    HW2 7098   1.634   3.526   8.082
 2119SOL     OW 7099   0.598   2.583   7.714
 2119SOL    HW1 7100   0.600   2.664   7.663
 2119SOL    HW2 7101   0.532   2.599   7.782
 2120SOL     OW 7102   1.278   2.215   8.381
 2120SOL    HW1 7103   1.189   2.181   8.389
 2120SOL    HW2 7104   1.330   2.161   8.441
 2121SOL     OW 7105   1.581   3.532   7.757
 2121SOL    HW1 7106   1.671   3.564   7.750
 2121SOL    HW2 7107   1.554   3.515   7.667
 2122SOL     OW 7108   0.794   2.478   8.899
 2122SOL    HW1 7109   0.768   2.455   8.988
 2122SOL    HW2 7110   0.751   2.413   8.844
 2123SOL     OW 7111   1.394   2.336   9.125
 2123SOL    HW1 7112   1.396   2.380   9.210
 2123SOL    HW2 7113   1.456   2.264   9.134
 2124SOL     OW 7114   0.956   2.750   9.030
 2124SOL    HW1 7115   1.010   2.679   8.994
 2124SOL    HW2 7116   0.908   2.784   8.954
 2125SOL     OW 7117   0.993   2.276   8.687
 2125SOL    HW1 7118   0.909   2.297   8.726
 2125SOL    HW2 7119   0.971   2.228   8.607
 2126SOL     OW 7120   1.051   2.560   7.874
 2126SOL    HW1 7121   1.066   2.553   7.968
 2126SOL    HW2 7122   0.968   2.514   7.860
 2127SOL     OW 7123   0.097   2.689   8.232
 2127SOL    HW1 7124   0.183   2.672   8.269
 2127SOL    HW2 7125   0.045   2.719   8.307
 2128SOL     OW 7126   0.125   3.714   9.024
 2128SOL    HW1 7127   0.117   3.693   9.117
 2128SOL    HW2 7128   0.044   3.681   8.985
 2129SOL     OW 7129   0.892   2.210   7.642
 2129SOL    HW1 7130   0.933   2.271   7.582
 2129SOL    HW2 7131   0.907   2.124   7.604
 2130SOL     OW 7132   1.710   2.441   9.279
 2130SOL    HW1 7133   1.671   2.511   9.228
 2130SOL    HW2 7134   1.735   2.375   9.214
 2131SOL     OW 7135   1.377   3.004   7.990
 2131SOL    HW1 7136   1.455   2.991   7.936
 2131SOL    HW2 7137   1.323   3.066   7.940
 2132SOL     OW 7138   0.552   2.045   8.341
 2132SOL    HW1 7139   0.554   2.074   8.432
 2132SOL    HW2 7140   0.552   2.125   8.289
 2133SOL     OW 7141   1.007   3.307   7.921
 2133SOL    HW1 7142   0.968   3.379   7.871
 2133SOL    HW2 7143   0.988   3.328   8.012
 2134SOL     OW 7144   0.355   3.672   8.306
 2134SOL    HW1 7145   0.397   3.586   8.316
 2134SOL    HW2 7146   0.426   3.735   8.321
 2135SOL     OW 7147   1.799   2.919   8.315
 2135SOL    HW1 7148   1.744   2.901   8.239
 2135SOL    HW2 7149   1.738   2.925   8.388
 2136SOL     OW 7150   1.228   3.401   8.961
 2136SOL    HW1 7151   1.214   3.328   9.021
 2136SOL    HW2 7152   1.164   3.386   8.891
 2137SOL     OW 7153   0.316   2.816   7.701
 2137SOL    HW1 7154   0.400   2.839   7.661
 2137SOL    HW2 7155   0.300   2.726   7.673
 2138SOL     OW 7156   1.478   2.604   8.175
 2138SOL    HW1 7157   1.467   2.560   8.260
 2138SOL    HW2 7158   1.555   2.659   8.186
 2139SOL     OW 7159   0.467   3.124   9.183
 2139SOL    HW1 7160   0.440   3.130   9.092
 2139SOL    HW2 7161   0.386   3.129   9.233
 2140SOL     OW 7162   1.121   3.640   7.679
 2140SOL    HW1 7163   1.049   3.598   7.725
 2140SOL    HW2 7164   1.144   3.579   7.609
 2141SOL     OW 7165   0.196   2.139   8.934
 2141SOL    HW1 7166   0.136   2.214   8.940
 2141SOL    HW2 7167   0.184   2.092   9.016
 2142SOL     OW 7168   1.629   3.242   7.535
 2142SOL    HW1 7169   1.587   3.327   7.520
 2142SOL    HW2 7170   1.560   3.178   7.517
 2143SOL     OW 7171   0.469   3.606   7.761
 2143SOL    HW1 7172   0.511   3.659   7.830
 2143SOL    HW2 7173   0.542   3.571   7.710
 2144SOL     OW 7174   1.399   1.969   7.880
 2144SOL    HW1 7175   1.388   1.944   7.788
 2144SOL    HW2 7176   1.494   1.980   7.890
 2145SOL     OW 7177   0.261   3.656   8.679
 2145SOL    HW1 7178   0.305   3.580   8.718
 2145SOL    HW2 7179   0.226   3.622   8.597
 2146SOL     OW 7180   0.938   3.561   8.347
 2146SOL    HW1 7181   1.015   3.508   8.369
 2146SOL    HW2 7182   0.894   3.511   8.278
 2147SOL     OW 7183   0.394   2.557   7.921
 2147SOL    HW1 7184   0.418   2.465   7.932
 2147SOL    HW2 7185   0.302   2.561   7.947
 2148SOL     OW 7186   1.535   2.088   9.175
 2148SOL    HW1 7187   1.545   2.108   9.268
 2148SOL    HW2 7188   1.469   2.020   9.172
 2149SOL     OW 7189   0.634   1.987   7.551
 2149SOL    HW1 7190   0.702   1.922   7.568
 2149SOL    HW2 7191   0.586   1.953   7.476
 2150SOL     OW 7192   0.767   2.139   9.202
 2150SOL    HW1 7193   0.842   2.080   9.204
 2150SOL    HW2 7194   0.718   2.118   9.282
 2151SOL     OW 7195   0.877   3.384   8.641
 2151SOL    HW1 7196   0.861   3.348   8.554
 2151SOL    HW2 7197   0.946   3.329   8.678
 2152SOL     OW 7198   1.340   2.451   8.880
 2152SOL    HW1 7199   1.371   2.418   8.964
 2152SOL    HW2 7200   1.377   2.539   8.873
 2153SOL     OW 7201   0.815   3.258   8.387
 2153SOL    HW1 7202   0.899   3.246   8.342
 2153SOL    HW2 7203   0.750   3.258   8.317
 2154SOL     OW 7204   0.927   2.371   8.352
 2154SOL    HW1 7205   0.904   2.363   8.259
 2154SOL    HW2 7206   0.959   2.284   8.376
 2155SOL     OW 7207   0.552   1.924   7.950
 2155SOL    HW1 7208   0.471   1.922   8.001
 2155SOL    HW2 7209   0.544   2.002   7.896
 2156SOL     OW 7210   1.428   3.060   7.489
 2156SOL    HW1 7211   1.458   2.984   7.539
 2156SOL    HW2 7212   1.342   3.081   7.526
 2157SOL     OW 7213   0.295   1.908   7.626
 2157SOL    HW1 7214   0.358   1.975   7.599
 2157SOL    HW2 7215   0.348   1.842   7.671
 2158SOL     OW 7216   0.938   2.108   7.909
 2158SOL    HW1 7217   0.910   2.150   7.827
 2158SOL    HW2 7218   1.032   2.122   7.913
 2159SOL     OW 7219   1.080   2.542   8.907
 2159SOL    HW1 7220   1.011   2.476   8.913
 2159SOL    HW2 7221   1.161   2.492   8.901
 2160SOL     OW 7222   1.225   3.431   8.241
 2160SOL    HW1 7223   1.241   3.499   8.175
 2160SOL    HW2 7224   1.292   3.446   8.308
 2161SOL     OW 7225   0.466   3.011   8.184
 2161SOL    HW1 7226   0.395   2.992   8.245
 2161SOL    HW2 7227   0.428   2.995   8.098
 2162SOL     OW 7228   1.270   3.656   8.056
 2162SOL    HW1 7229   1.315   3.717   7.998
 2162SOL    HW2 7230   1.203   3.709   8.100
 2163SOL     OW 7231   1.024   2.405   7.469
 2163SOL    HW1 7232   0.981   2.488   7.450
 2163SOL    HW2 7233   1.089   2.426   7.536
 2164SOL     OW 7234   0.083   2.391   8.857
 2164SOL    HW1 7235   0.148   2.389   8.787
 2164SOL    HW2 7236   0.068   2.484   8.874
 2165SOL     OW 7237   0.561   2.089   8.614
 2165SOL    HW1 7238   0.603   2.011   8.648
 2165SOL    HW2 7239   0.469   2.081   8.640
 2166SOL     OW 7240   0.869   2.322   8.088
 2166SOL    HW1 7241   0.822   2.375   8.024
 2166SOL    HW2 7242   0.889   2.241   8.041
 2167SOL     OW 7243   1.015   1.915   8.200
 2167SOL    HW1 7244   0.957   1.908   8.125
 2167SOL    HW2 7245   0.994   1.839   8.255
 2168SOL     OW 7246   1.437   3.025   8.305
 2168SOL    HW1 7247   1.367   2.959   8.305
 2168SOL    HW2 7248   1.459   3.036   8.213
 2169SOL     OW 7249   1.466   2.467   8.427
 2169SOL    HW1 7250   1.416   2.385   8.429
 2169SOL    HW2 7251   1.525   2.461   8.502
 2170SOL     OW 7252   1.849   2.678   7.832
 2170SOL    HW1 7253   1.904   2.625   7.889
 2170SOL    HW2 7254   1.818   2.617   7.765
 2171SOL     OW 7255   0.492   3.279   7.608
 2171SOL    HW1 7256   0.415   3.250   7.657
 2171SOL    HW2 7257   0.473   3.253   7.517
 2172SOL     OW 7258   1.670   3.127   8.094
 2172SOL    HW1 7259   1.764   3.131   8.107
 2172SOL    HW2 7260   1.638   3.215   8.115
 2173SOL     OW 7261   1.393   2.434   7.518
 2173SOL    HW1 7262   1.334   2.414   7.591
 2173SOL    HW2 7263   1.480   2.408   7.550
 2174SOL     OW 7264   0.524   2.122   7.766
 2174SOL    HW1 7265   0.570   2.076   7.695
 2174SOL    HW2 7266   0.505   2.208   7.729
 2175SOL     OW 7267   1.752   3.100   9.022
 2175SOL    HW1 7268   1.840   3.062   9.016
 2175SOL    HW2 7269   1.767   3.190   9.051
 2176SOL     OW 7270   1.059   3.216   8.782
 2176SOL    HW1 7271   0.984   3.185   8.833
 2176SOL    HW2 7272   1.135   3.174   8.823
 2177SOL     OW 7273   1.608   3.488   9.101
 2177SOL    HW1 7274   1.602   3.521   9.012
 2177SOL    HW2 7275   1.691   3.440   9.104
 2178SOL     OW 7276   1.129   3.065   8.554
 2178SOL    HW1 7277   1.069   3.102   8.619
 2178SOL    HW2 7278   1.095   3.096   8.470
 2179SOL     OW 7279   1.629   2.961   8.525
 2179SOL    HW1 7280   1.625   3.023   8.598
 2179SOL    HW2 7281   1.550   2.977   8.475
 2180SOL     OW 7282   0.917   1.960   8.845
 2180SOL    HW1 7283   0.940   1.940   8.754
 2180SOL    HW2 7284   0.997   1.999   8.882
 2181SOL     OW 7285   0.984   2.976   9.170
 2181SOL    HW1 7286   0.892   2.992   9.192
 2181SOL    HW2 7287   0.983   2.899   9.115
 2182SOL     OW 7288   0.709   2.923   7.820
 2182SOL    HW1 7289   0.695   2.907   7.914
 2182SOL    HW2 7290   0.784   2.870   7.797
 2183SOL     OW 7291   0.430   2.687   8.689
 2183SOL    HW1 7292   0.499   2.699   8.754
 2183SOL    HW2 7293   0.372   2.622   8.728
 2184SOL     OW 7294   1.266   2.239   8.722
 2184SOL    HW1 7295   1.299   2.316   8.768
 2184SOL    HW2 7296   1.176   2.261   8.699
 2185SOL     OW 7297   0.062   3.438   8.789
 2185SOL    HW1 7298   0.034   3.528   8.770
 2185SOL    HW2 7299   0.157   3.443   8.796
 2186SOL     OW 7300   0.348   2.970   7.941
 2186SOL    HW1 7301   0.356   3.044   7.880
 2186SOL    HW2 7302   0.348   2.892   7.885
 2187SOL     OW 7303   0.561   2.395   8.304
 2187SOL    HW1 7304   0.574   2.455   8.230
 2187SOL    HW2 7305   0.622   2.426   8.371
 2188SOL     OW 7306   1.248   3.210   7.837
 2188SOL    HW1 7307   1.304   3.282   7.868
 2188SOL    HW2 7308   1.161   3.231   7.871
 2189SOL     OW 7309   1.280   3.319   8.594
 2189SOL    HW1 7310   1.335   3.321   8.673
 2189SOL    HW2 7311   1.224   3.242   8.606
 2190SOL     OW 7312   1.581   2.483   7.925
 2190SOL    HW1 7313   1.536   2.539   7.989
 2190SOL    HW2 7314   1.627   2.544   7.868
 2191SOL     OW 7315   0.347   3.394   8.763
 2191SOL    HW1 7316   0.333   3.346   8.681
 2191SOL    HW2 7317   0.442   3.403   8.769
 2192SOL     OW 7318   0.479   2.621   9.113
 2192SOL    HW1 7319   0.508   2.659   9.031
 2192SOL    HW2 7320   0.520   2.535   9.116
 2193SOL     OW 7321   1.601   2.641   9.129
 2193SOL    HW1 7322   1.515   2.681   9.122
 2193SOL    HW2 7323   1.653   2.683   9.060
 2194SOL     OW 7324   0.996   1.984   9.203
 2194SOL    HW1 7325   1.052   2.056   9.174
 2194SOL    HW2 7326   1.044   1.905   9.177
 2195SOL     OW 7327   0.498   1.905   9.195
 2195SOL    HW1 7328   0.456   1.848   9.129
 2195SOL    HW2 7329   0.438   1.979   9.203
 2196SOL     OW 7330   0.590   2.735   8.472
 2196SOL    HW1 7331   0.618   2.827   8.474
 2196SOL    HW2 7332   0.533   2.726   8.549
 2197SOL     OW 7333   1.359   2.721   8.478
 2197SOL    HW1 7334   1.275   2.712   8.432
 2197SOL    HW2 7335   1.398   2.634   8.474
 2198SOL     OW 7336   1.206   2.391   7.716
 2198SOL    HW1 7337   1.213   2.313   7.770
 2198SOL    HW2 7338   1.162   2.455   7.772
 2199SOL     OW 7339   0.302   2.054   8.690
 2199SOL    HW1 7340   0.263   2.087   8.770
 2199SOL    HW2 7341   0.285   1.959   8.693
 2200SOL     OW 7342   0.040   3.174   8.733
 2200SOL    HW1 7343   0.076   3.128   8.809
 2200SOL    HW2 7344   0.046   3.267   8.758
 2201SOL     OW 7345   0.725   2.493   8.507
 2201SOL    HW1 7346   0.800   2.475   8.449
 2201SOL    HW2 7347   0.698   2.582   8.484
 2202SOL     OW 7348   1.735   2.821   9.300
 2202SOL    HW1 7349   1.688   2.760   9.243
 2202SOL    HW2 7350   1.675   2.835   9.374
 2203SOL     OW 7351   0.310   1.932   8.067
 2203SOL    HW1 7352   0.287   2.021   8.094
 2203SOL    HW2 7353   0.307   1.881   8.147
 2204SOL     OW 7354   1.611   2.232   7.819
 2204SOL    HW1 7355   1.643   2.174   7.888
 2204SOL    HW2 7356   1.591   2.314   7.863
 2205SOL     OW 7357   1.028   2.621   8.409
 2205SOL    HW1 7358   1.025   2.639   8.503
 2205SOL    HW2 7359   1.001   2.529   8.401
 2206SOL     OW 7360   0.983   3.429   9.164
 2206SOL    HW1 7361   0.968   3.473   9.080
 2206SOL    HW2 7362   1.025   3.346   9.141
 2207SOL     OW 7363   1.855   3.369   9.054
 2207SOL    HW1 7364   1.873   3.394   8.963
 2207SOL    HW2 7365   1.936   3.388   9.100
 2208SOL     OW 7366   0.347   2.795   9.266
 2208SOL    HW1 7367   0.420   2.824   9.321
 2208SOL    HW2 7368   0.385   2.728   9.209
 2209SOL     OW 7369   1.531   2.133   7.575
 2209SOL    HW1 7370   1.464   2.070   7.602
 2209SOL    HW2 7371   1.563   2.171   7.657
 2210SOL     OW 7372   1.292   2.689   7.480
 2210SOL    HW1 7373   1.334   2.603   7.483
 2210SOL    HW2 7374   1.323   2.727   7.398
 2211SOL     OW 7375   1.066   3.197   8.301
 2211SOL    HW1 7376   1.068   3.125   8.239
 2211SOL    HW2 7377   1.127   3.262   8.266
 2212SOL     OW 7378   0.318   2.673   8.396
 2212SOL    HW1 7379   0.412   2.690   8.393
 2212SOL    HW2 7380   0.311   2.582   8.425
 2213SOL     OW 7381   0.331   2.386   8.438
 2213SOL    HW1 7382   0.293   2.300   8.423
 2213SOL    HW2 7383   0.410   2.388   8.383
 2214SOL     OW 7384   1.134   2.239   9.129
 2214SOL    HW1 7385   1.087   2.294   9.192
 2214SOL    HW2 7386   1.222   2.276   9.125
 2215SOL     OW 7387   1.160   2.066   8.917
 2215SOL    HW1 7388   1.150   2.128   8.989
 2215SOL    HW2 7389   1.201   2.115   8.847
 2216SOL     OW 7390   4.492   3.184   7.652
 2216SOL    HW1 7391   4.399   3.200   7.634
 2216SOL    HW2 7392   4.496   3.091   7.674
 2217SOL     OW 7393   0.097   3.639   8.388
 2217SOL    HW1 7394   0.058   3.585   8.320
 2217SOL    HW2 7395   0.185   3.660   8.356
 2218SOL     OW 7396   0.497   3.436   8.355
 2218SOL    HW1 7397   0.565   3.498   8.379
 2218SOL    HW2 7398   0.541   3.372   8.298
 2219SOL     OW 7399   0.985   2.655   8.675
 2219SOL    HW1 7400   1.039   2.631   8.749
 2219SOL    HW2 7401   0.898   2.618   8.696
 2220SOL     OW 7402   0.035   2.425   8.552
 2220SOL    HW1 7403   0.119   2.391   8.521
 2220SOL    HW2 7404   0.021   2.381   8.636
 2221SOL     OW 7405   0.179   2.381   9.162
 2221SOL    HW1 7406   0.259   2.352   9.119
 2221SOL    HW2 7407   0.156   2.462   9.117
 2222SOL     OW 7408   1.377   2.801   9.107
 2222SOL    HW1 7409   1.397   2.895   9.105
 2222SOL    HW2 7410   1.374   2.776   9.015
 2223SOL     OW 7411   0.817   2.431   7.807
 2223SOL    HW1 7412   0.819   2.356   7.747
 2223SOL    HW2 7413   0.743   2.484   7.776
 2224SOL     OW 7414   1.642   2.465   8.635
 2224SOL    HW1 7415   1.634   2.404   8.709
 2224SOL    HW2 7416   1.729   2.446   8.599
 2225SOL     OW 7417   0.274   3.423   9.189
 2225SOL    HW1 7418   0.217   3.476   9.245
 2225SOL    HW2 7419   0.253   3.333   9.213
 2226SOL     OW 7420   0.691   2.316   8.710
 2226SOL    HW1 7421   0.645   2.239   8.677
 2226SOL    HW2 7422   0.692   2.378   8.637
 2227SOL     OW 7423   0.929   3.541   8.915
 2227SOL    HW1 7424   0.902   3.507   8.830
 2227SOL    HW2 7425   0.924   3.636   8.905
 2228SOL     OW 7426   0.472   2.352   7.633
 2228SOL    HW1 7427   0.531   2.423   7.657
 2228SOL    HW2 7428   0.388   2.395   7.618
 2229SOL     OW 7429   0.162   3.003   8.910
 2229SOL    HW1 7430   0.146   2.957   8.992
 2229SOL    HW2 7431   0.169   2.933   8.845
 2230SOL     OW 7432   1.327   2.910   8.671
 2230SOL    HW1 7433   1.350   2.846   8.603
 2230SOL    HW2 7434   1.256   2.961   8.633
 2231SOL     OW 7435   1.311   2.719   7.755
 2231SOL    HW1 7436   1.235   2.689   7.805
 2231SOL    HW2 7437   1.286   2.705   7.663
 2232SOL     OW 7438   1.771   3.607   8.598
 2232SOL    HW1 7439   1.831   3.633   8.528
 2232SOL    HW2 7440   1.747   3.516   8.576
 2233SOL     OW 7441   1.241   3.595   8.562
 2233SOL    HW1 7442   1.323   3.615   8.517
 2233SOL    HW2 7443   1.246   3.501   8.580
 2234SOL     OW 7444   0.067   3.047   8.497
 2234SOL    HW1 7445   0.067   3.079   8.587
 2234SOL    HW2 7446   0.021   3.115   8.448
 2235SOL     OW 7447   0.679   3.528   9.177
 2235SOL    HW1 7448   0.623   3.605   9.171
 2235SOL    HW2 7449   0.741   3.538   9.105
 2236SOL     OW 7450   1.720   2.001   7.967
 2236SOL    HW1 7451   1.775   1.960   7.900
 2236SOL    HW2 7452   1.688   1.927   8.020
 2237SOL     OW 7453   1.391   3.430   7.932
 2237SOL    HW1 7454   1.451   3.462   7.865
 2237SOL    HW2 7455   1.342   3.507   7.961
 2238SOL     OW 7456   0.120   3.669   9.295
 2238SOL    HW1 7457   0.079   3.596   9.343
 2238SOL    HW2 7458   0.182   3.706   9.357
 2239SOL     OW 7459   1.277   2.787   8.119
 2239SOL    HW1 7460   1.351   2.726   8.125
 2239SOL    HW2 7461   1.311   2.860   8.067
 2240SOL     OW 7462   0.815   3.136   8.878
 2240SOL    HW1 7463   0.788   3.174   8.961
 2240SOL    HW2 7464   0.744   3.157   8.817
 2241SOL     OW 7465   0.673   3.481   7.603
 2241SOL    HW1 7466   0.682   3.492   7.509
 2241SOL    HW2 7467   0.618   3.403   7.612
 2242SOL     OW 7468   1.628   3.589   8.839
 2242SOL    HW1 7469   1.677   3.596   8.758
 2242SOL    HW2 7470   1.614   3.679   8.867
 2243SOL     OW 7471   1.796   2.003   8.434
 2243SOL    HW1 7472   1.847   1.935   8.391
 2243SOL    HW2 7473   1.724   2.021   8.374
 2244SOL     OW 7474   0.265   2.182   8.167
 2244SOL    HW1 7475   0.182   2.220   8.139
 2244SOL    HW2 7476   0.255   2.169   8.261
 2245SOL     OW 7477   1.207   3.468   7.479
 2245SOL    HW1 7478   1.198   3.377   7.507
 2245SOL    HW2 7479   1.142   3.480   7.410
 2246SOL     OW 7480   0.826   2.869   8.820
 2246SOL    HW1 7481   0.868   2.866   8.734
 2246SOL    HW2 7482   0.825   2.962   8.843
 2247SOL     OW 7483   0.916   2.773   7.737
 2247SOL    HW1 7484   0.977   2.805   7.671
 2247SOL    HW2 7485   0.963   2.703   7.783
 2248SOL     OW 7486   1.492   3.487   7.490
 2248SOL    HW1 7487   1.398   3.481   7.477
 2248SOL    HW2 7488   1.528   3.493   7.402
 2249SOL     OW 7489   0.373   3.169   8.938
 2249SOL    HW1 7490   0.355   3.248   8.887
 2249SOL    HW2 7491   0.298   3.112   8.922
 2250SOL     OW 7492   1.612   3.145   8.729
 2250SOL    HW1 7493   1.670   3.134   8.804
 2250SOL    HW2 7494   1.551   3.214   8.755
 2251SOL     OW 7495   1.052   2.969   8.154
 2251SOL    HW1 7496   0.981   2.918   8.193
 2251SOL    HW2 7497   1.113   2.903   8.122
 2252SOL     OW 7498   1.020   2.102   8.414
 2252SOL    HW1 7499   1.016   2.054   8.331
 2252SOL    HW2 7500   1.016   2.034   8.481
 2253SOL     OW 7501   0.604   3.352   7.930
 2253SOL    HW1 7502   0.645   3.302   7.860
 2253SOL    HW2 7503   0.529   3.395   7.889
 2254SOL     OW 7504   1.719   2.260   8.828
 2254SOL    HW1 7505   1.798   2.314   8.826
 2254SOL    HW2 7506   1.742   2.182   8.777
 2255SOL     OW 7507   0.252   3.206   7.725
 2255SOL    HW1 7508   0.157   3.206   7.710
 2255SOL    HW2 7509   0.262   3.238   7.814
 2256SOL     OW 7510   0.116   2.869   9.142
 2256SOL    HW1 7511   0.052   2.911   9.200
 2256SOL    HW2 7512   0.194   2.859   9.197
 2257SOL     OW 7513   0.674   2.061   8.947
 2257SOL    HW1 7514   0.757   2.039   8.905
 2257SOL    HW2 7515   0.697   2.089   9.035
 2258SOL     OW 7516   0.072   2.187   7.480
 2258SOL    HW1 7517   4.477   2.199   7.486
 2258SOL    HW2 7518   0.104   2.269   7.442
 2259SOL     OW 7519   1.431   2.721   8.849
 2259SOL    HW1 7520   1.382   2.781   8.793
 2259SOL    HW2 7521   1.520   2.723   8.814
 2260SOL     OW 7522   0.086   2.038   7.753
 2260SOL    HW1 7523   0.079   2.111   7.690
 2260SOL    HW2 7524   0.161   1.988   7.724
 2261SOL     OW 7525   1.179   3.202   7.565
 2261SOL    HW1 7526   1.088   3.172   7.567
 2261SOL    HW2 7527   1.207   3.202   7.656
 2262SOL     OW 7528   0.623   2.693   8.878
 2262SOL    HW1 7529   0.679   2.770   8.865
 2262SOL    HW2 7530   0.684   2.620   8.886
 2263SOL     OW 7531   1.484   3.638   8.426
 2263SOL    HW1 7532   1.508   3.697   8.354
 2263SOL    HW2 7533   1.567   3.620   8.471
 2264SOL     OW 7534   0.715   2.424   9.152
 2264SOL    HW1 7535   0.754   2.488   9.212
 2264SOL    HW2 7536   0.747   2.340   9.183
 2265SOL     OW 7537   1.471   3.063   9.080
 2265SOL    HW1 7538   1.458   3.076   9.174
 2265SOL    HW2 7539   1.564   3.077   9.066
 2266SOL     OW 7540   0.381   3.605   9.012
 2266SOL    HW1 7541   0.296   3.645   8.995
 2266SOL    HW2 7542   0.360   3.525   9.060
 2267SOL     OW 7543   1.671   2.743   8.703
 2267SOL    HW1 7544   1.662   2.658   8.661
 2267SOL    HW2 7545   1.660   2.807   8.632
 2268SOL     OW 7546   1.217   2.182   7.906
 2268SOL    HW1 7547   1.280   2.110   7.898
 2268SOL    HW2 7548   1.246   2.230   7.983
 2269SOL     OW 7549   0.590   2.600   8.116
 2269SOL    HW1 7550   0.628   2.687   8.101
 2269SOL    HW2 7551   0.522   2.592   8.051
 2270SOL     OW 7552   1.757   2.239   9.100
 2270SOL    HW1 7553   1.743   2.244   9.005
 2270SOL    HW2 7554   1.692   2.175   9.130
 2271SOL     OW 7555   1.749   2.794   8.959
 2271SOL    HW1 7556   1.743   2.888   8.974
 2271SOL    HW2 7557   1.731   2.783   8.866
 2272SOL     OW 7558   0.864   3.230   7.481
 2272SOL    HW1 7559   0.824   3.256   7.565
 2272SOL    HW2 7560   0.880   3.312   7.436
 2273SOL     OW 7561   0.661   3.654   8.394
 2273SOL    HW1 7562   0.639   3.744   8.370
 2273SOL    HW2 7563   0.756   3.648   8.385
 2274SOL     OW 7564   0.868   2.829   8.303
 2274SOL    HW1 7565   0.917   2.757   8.343
 2274SOL    HW2 7566   0.833   2.878   8.377
 2275SOL     OW 7567   1.080   2.851   7.537
 2275SOL    HW1 7568   1.057   2.901   7.458
 2275SOL    HW2 7569   1.154   2.797   7.511
 2276SOL     OW 7570   1.854   3.417   8.292
 2276SOL    HW1 7571   1.776   3.406   8.238
 2276SOL    HW2 7572   1.845   3.351   8.361
 2277SOL     OW 7573   0.230   3.168   9.306
 2277SOL    HW1 7574   0.157   3.110   9.283
 2277SOL    HW2 7575   0.224   3.178   9.400
 2278SOL     OW 7576   0.106   3.098   8.116
 2278SOL    HW1 7577   0.116   3.051   8.199
 2278SOL    HW2 7578   0.165   3.054   8.055
 2279SOL     OW 7579   0.682   3.264   9.076
 2279SOL    HW1 7580   0.602   3.220   9.104
 2279SOL    HW2 7581   0.675   3.352   9.113
 2280SOL     OW 7582   1.775   2.034   8.697
 2280SOL    HW1 7583   1.812   1.949   8.722
 2280SOL    HW2 7584   1.779   2.035   8.601
 2281SOL     OW 7585   0.435   2.295   7.973
 2281SOL    HW1 7586   0.459   2.222   7.917
 2281SOL    HW2 7587   0.384   2.256   8.044
 2282SOL     OW 7588   1.701   3.351   8.545
 2282SOL    HW1 7589   1.620   3.328   8.499
 2282SOL    HW2 7590   1.712   3.283   8.610
 2283SOL     OW 7591   0.302   2.351   8.702
 2283SOL    HW1 7592   0.376   2.309   8.746
 2283SOL    HW2 7593   0.332   2.366   8.612
 2284SOL     OW 7594   0.827   3.440   8.126
 2284SOL    HW1 7595   0.815   3.491   8.046
 2284SOL    HW2 7596   0.750   3.383   8.130
 2285SOL     OW 7597   1.434   2.088   8.564
 2285SOL    HW1 7598   1.467   2.011   8.611
 2285SOL    HW2 7599   1.381   2.135   8.629
 2286SOL     OW 7600   1.008   1.881   8.591
 2286SOL    HW1 7601   0.954   1.813   8.552
 2286SOL    HW2 7602   1.096   1.843   8.593
 2287SOL     OW 7603   0.772   3.194   7.760
 2287SOL    HW1 7604   0.740   3.104   7.767
 2287SOL    HW2 7605   0.854   3.195   7.811
 2288SOL     OW 7606   0.621   3.418   8.733
 2288SOL    HW1 7607   0.623   3.500   8.783
 2288SOL    HW2 7608   0.708   3.412   8.694
 2289SOL     OW 7609   1.352   1.915   7.613
 2289SOL    HW1 7610   1.378   1.853   7.545
 2289SOL    HW2 7611   1.265   1.885   7.640
 2290SOL     OW 7612   1.297   2.323   8.130
 2290SOL    HW1 7613   1.243   2.401   8.137
 2290SOL    HW2 7614   1.293   2.283   8.216
 2291SOL     OW 7615   1.567   2.062   8.310
 2291SOL    HW1 7616   1.516   2.083   8.389
 2291SOL    HW2 7617   1.574   2.146   8.264
 2292SOL     OW 7618   0.041   2.914   7.736
 2292SOL    HW1 7619   0.135   2.898   7.726
 2292SOL    HW2 7620   0.020   2.880   7.823
 2293SOL     OW 7621   0.884   3.514   7.790
 2293SOL    HW1 7622   0.812   3.496   7.731
 2293SOL    HW2 7623   0.854   3.589   7.842
 2294SOL     OW 7624   0.248   2.490   9.430
 2294SOL    HW1 7625   0.174   2.471   9.487
 2294SOL    HW2 7626   0.216   2.472   9.341
 2295SOL     OW 7627   0.214   2.137  10.301
 2295SOL    HW1 7628   0.249   2.111  10.386
 2295SOL    HW2 7629   0.137   2.081  10.289
 2296SOL     OW 7630   0.009   2.253   9.949
 2296SOL    HW1 7631   4.428   2.284   9.990
 2296SOL    HW2 7632   4.483   2.173   9.904
 2297SOL     OW 7633   0.568   3.148  10.486
 2297SOL    HW1 7634   0.481   3.152  10.446
 2297SOL    HW2 7635   0.582   3.236  10.520
 2298SOL     OW 7636   1.560   3.374  10.017
 2298SOL    HW1 7637   1.517   3.354  10.100
 2298SOL    HW2 7638   1.489   3.378   9.953
 2299SOL     OW 7639   1.130   2.560  10.012
 2299SOL    HW1 7640   1.179   2.641   9.998
 2299SOL    HW2 7641   1.083   2.575  10.094
 2300SOL     OW 7642   1.779   2.461   9.537
 2300SOL    HW1 7643   1.749   2.457   9.446
 2300SOL    HW2 7644   1.729   2.393   9.581
 2301SOL     OW 7645   0.757   3.005  10.351
 2301SOL    HW1 7646   0.687   3.040  10.407
 2301SOL    HW2 7647   0.791   3.082  10.305
 2302SOL     OW 7648   0.851   2.642   0.021
 2302SOL    HW1 7649   0.861   2.697   0.098
 2302SOL    HW2 7650   0.886   2.695  11.049
 2303SOL     OW 7651   0.686   2.866   9.958
 2303SOL    HW1 7652   0.750   2.854  10.027
 2303SOL    HW2 7653   0.616   2.917   9.999
 2304SOL     OW 7654   0.336   3.283  10.378
 2304SOL    HW1 7655   0.254   3.264  10.333
 2304SOL    HW2 7656   0.385   3.337  10.317
 2305SOL     OW 7657   1.464   3.361  10.659
 2305SOL    HW1 7658   1.518   3.439  10.668
 2305SOL    HW2 7659   1.409   3.361  10.738
 2306SOL     OW 7660   0.449   2.264  10.788
 2306SOL    HW1 7661   0.526   2.208  10.799
 2306SOL    HW2 7662   0.376   2.207  10.813
 2307SOL     OW 7663   1.597   2.314  10.057
 2307SOL    HW1 7664   1.519   2.335  10.006
 2307SOL    HW2 7665   1.615   2.393  10.108
 2308SOL     OW 7666   0.246   3.553   9.788
 2308SOL    HW1 7667   0.231   3.638   9.829
 2308SOL    HW2 7668   0.312   3.571   9.721
 2309SOL     OW 7669   0.249   3.289   9.838
 2309SOL    HW1 7670   0.240   3.384   9.841
 2309SOL    HW2 7671   0.185   3.256   9.901
 2310SOL     OW 7672   0.248   2.944  10.195
 2310SOL    HW1 7673   0.263   2.854  10.223
 2310SOL    HW2 7674   0.188   2.980  10.260
 2311SOL     OW 7675   0.612   3.651  10.739
 2311SOL    HW1 7676   0.532   3.632  10.787
 2311SOL    HW2 7677   0.634   3.742  10.764
 2312SOL     OW 7678   0.580   2.848   9.447
 2312SOL    HW1 7679   0.627   2.892   9.377
 2312SOL    HW2 7680   0.625   2.876   9.527
 2313SOL     OW 7681   1.584   1.977  10.782
 2313SOL    HW1 7682   1.603   2.049  10.722
 2313SOL    HW2 7683   1.607   2.011  10.869
 2314SOL     OW 7684   0.136   2.507   9.884
 2314SOL    HW1 7685   0.088   2.427   9.901
 2314SOL    HW2 7686   0.106   2.568   9.951
 2315SOL     OW 7687   1.842   3.621   9.645
 2315SOL    HW1 7688   1.904   3.593   9.712
 2315SOL    HW2 7689   1.867   3.712   9.626
 2316SOL     OW 7690   0.033   3.464   9.450
 2316SOL    HW1 7691   0.021   3.369   9.448
 2316SOL    HW2 7692   0.019   3.488   9.541
 2317SOL     OW 7693   1.690   2.781   9.950
 2317SOL    HW1 7694   1.773   2.738   9.930
 2317SOL    HW2 7695   1.668   2.831   9.871
 2318SOL     OW 7696   1.645   2.969   9.739
 2318SOL    HW1 7697   1.731   2.975   9.697
 2318SOL    HW2 7698   1.650   3.030   9.813
 2319SOL     OW 7699   0.102   2.622  10.911
 2319SOL    HW1 7700   0.192   2.607  10.882
 2319SOL    HW2 7701   0.090   2.717  10.907
 2320SOL     OW 7702   0.613   3.246  10.046
 2320SOL    HW1 7703   0.566   3.164  10.055
 2320SOL    HW2 7704   0.597   3.273   9.956
 2321SOL     OW 7705   1.294   3.099  10.752
 2321SOL    HW1 7706   1.320   3.039  10.682
 2321SOL    HW2 7707   1.350   3.075  10.826
 2322SOL     OW 7708   0.815   1.861   9.818
 2322SOL    HW1 7709   0.855   1.946   9.800
 2322SOL    HW2 7710   0.722   1.880   9.827
 2323SOL     OW 7711   0.179   2.802  10.590
 2323SOL    HW1 7712   0.271   2.784  10.569
 2323SOL    HW2 7713   0.132   2.785  10.508
 2324SOL     OW 7714   1.532   2.855   9.508
 2324SOL    HW1 7715   1.462   2.797   9.539
 2324SOL    HW2 7716   1.572   2.889   9.588
 2325SOL     OW 7717   1.196   3.668  10.927
 2325SOL    HW1 7718   1.195   3.731  10.855
 2325SOL    HW2 7719   1.205   3.583  10.884
 2326SOL     OW 7720   0.340   2.126   0.005
 2326SOL    HW1 7721   0.387   2.199   0.044
 2326SOL    HW2 7722   0.247   2.146   0.018
 2327SOL     OW 7723   1.467   3.281  10.262
 2327SOL    HW1 7724   1.398   3.297  10.326
 2327SOL    HW2 7725   1.454   3.190  10.235
 2328SOL     OW 7726   1.660   3.599   9.888
 2328SOL    HW1 7727   1.638   3.570   9.799
 2328SOL    HW2 7728   1.634   3.526   9.944
 2329SOL     OW 7729   0.598   2.583   9.576
 2329SOL    HW1 7730   0.600   2.664   9.525
 2329SOL    HW2 7731   0.532   2.599   9.644
 2330SOL     OW 7732   1.278   2.215  10.243
 2330SOL    HW1 7733   1.189   2.180  10.251
 2330SOL    HW2 7734   1.330   2.161  10.303
 2331SOL     OW 7735   1.581   3.532   9.619
 2331SOL    HW1 7736   1.671   3.564   9.612
 2331SOL    HW2 7737   1.554   3.515   9.529
 2332SOL     OW 7738   0.794   2.477  10.762
 2332SOL    HW1 7739   0.767   2.454  10.850
 2332SOL    HW2 7740   0.752   2.412  10.705
 2333SOL     OW 7741   0.966   2.761  10.901
 2333SOL    HW1 7742   1.014   2.689  10.862
 2333SOL    HW2 7743   0.916   2.799  10.829
 2334SOL     OW 7744   0.992   2.276  10.549
 2334SOL    HW1 7745   0.907   2.297  10.586
 2334SOL    HW2 7746   0.972   2.228  10.469
 2335SOL     OW 7747   1.051   2.560   9.736
 2335SOL    HW1 7748   1.066   2.553   9.830
 2335SOL    HW2 7749   0.968   2.514   9.722
 2336SOL     OW 7750   0.097   2.690  10.094
 2336SOL    HW1 7751   0.183   2.671  10.131
 2336SOL    HW2 7752   0.044   2.718  10.169
 2337SOL     OW 7753   0.119   3.711  10.899
 2337SOL    HW1 7754   0.114   3.651  10.974
 2337SOL    HW2 7755   0.051   3.681  10.839
 2338SOL     OW 7756   0.892   2.210   9.504
 2338SOL    HW1 7757   0.933   2.271   9.443
 2338SOL    HW2 7758   0.907   2.124   9.466
 2339SOL     OW 7759   1.376   3.004   9.852
 2339SOL    HW1 7760   1.455   2.991   9.799
 2339SOL    HW2 7761   1.323   3.066   9.802
 2340SOL     OW 7762   0.552   2.044  10.203
 2340SOL    HW1 7763   0.553   2.074  10.294
 2340SOL    HW2 7764   0.552   2.125  10.152
 2341SOL     OW 7765   1.007   3.307   9.783
 2341SOL    HW1 7766   0.968   3.379   9.733
 2341SOL    HW2 7767   0.988   3.328   9.874
 2342SOL     OW 7768   0.355   3.672  10.168
 2342SOL    HW1 7769   0.398   3.586  10.178
 2342SOL    HW2 7770   0.425   3.735  10.183
 2343SOL     OW 7771   1.799   2.919  10.177
 2343SOL    HW1 7772   1.743   2.901  10.101
 2343SOL    HW2 7773   1.738   2.925  10.251
 2344SOL     OW 7774   1.228   3.400  10.823
 2344SOL    HW1 7775   1.235   3.313  10.862
 2344SOL    HW2 7776   1.166   3.390  10.752
 2345SOL     OW 7777   0.316   2.816   9.563
 2345SOL    HW1 7778   0.400   2.839   9.523
 2345SOL    HW2 7779   0.300   2.726   9.535
 2346SOL     OW 7780   1.479   2.602  10.036
 2346SOL    HW1 7781   1.467   2.561  10.122
 2346SOL    HW2 7782   1.555   2.659  10.047
 2347SOL     OW 7783   0.455   3.130  11.052
 2347SOL    HW1 7784   0.426   3.142  10.961
 2347SOL    HW2 7785   0.388   3.074  11.091
 2348SOL     OW 7786   1.121   3.640   9.541
 2348SOL    HW1 7787   1.049   3.598   9.587
 2348SOL    HW2 7788   1.144   3.579   9.471
 2349SOL     OW 7789   0.193   2.139  10.797
 2349SOL    HW1 7790   0.138   2.217  10.804
 2349SOL    HW2 7791   0.188   2.097  10.883
 2350SOL     OW 7792   1.629   3.242   9.397
 2350SOL    HW1 7793   1.587   3.327   9.382
 2350SOL    HW2 7794   1.560   3.178   9.379
 2351SOL     OW 7795   0.469   3.606   9.623
 2351SOL    HW1 7796   0.511   3.659   9.692
 2351SOL    HW2 7797   0.542   3.571   9.572
 2352SOL     OW 7798   1.400   1.971   9.742
 2352SOL    HW1 7799   1.390   1.944   9.650
 2352SOL    HW2 7800   1.494   1.972   9.756
 2353SOL     OW 7801   0.257   3.654  10.544
 2353SOL    HW1 7802   0.305   3.581  10.584
 2353SOL    HW2 7803   0.228   3.621  10.459
 2354SOL     OW 7804   0.938   3.560  10.209
 2354SOL    HW1 7805   1.016   3.508  10.230
 2354SOL    HW2 7806   0.894   3.511  10.140
 2355SOL     OW 7807   0.394   2.557   9.783
 2355SOL    HW1 7808   0.418   2.465   9.794
 2355SOL    HW2 7809   0.302   2.561   9.809
 2356SOL     OW 7810   0.634   1.987   9.413
 2356SOL    HW1 7811   0.703   1.922   9.429
 2356SOL    HW2 7812   0.586   1.953   9.338
 2357SOL     OW 7813   0.770   2.135  11.046
 2357SOL    HW1 7814   0.834   2.077  11.087
 2357SOL    HW2 7815   0.708   2.156   0.016
 2358SOL     OW 7816   0.876   3.384  10.503
 2358SOL    HW1 7817   0.860   3.348  10.416
 2358SOL    HW2 7818   0.948   3.331  10.538
 2359SOL     OW 7819   1.343   2.452  10.753
 2359SOL    HW1 7820   1.394   2.431  10.831
 2359SOL    HW2 7821   1.371   2.540  10.730
 2360SOL     OW 7822   0.815   3.258  10.249
 2360SOL    HW1 7823   0.899   3.246  10.204
 2360SOL    HW2 7824   0.750   3.258  10.179
 2361SOL     OW 7825   0.928   2.371  10.213
 2361SOL    HW1 7826   0.904   2.363  10.121
 2361SOL    HW2 7827   0.959   2.284  10.238
 2362SOL     OW 7828   0.552   1.924   9.812
 2362SOL    HW1 7829   0.471   1.922   9.863
 2362SOL    HW2 7830   0.544   2.002   9.758
 2363SOL     OW 7831   1.428   3.060   9.351
 2363SOL    HW1 7832   1.458   2.984   9.401
 2363SOL    HW2 7833   1.342   3.081   9.388
 2364SOL     OW 7834   0.295   1.908   9.488
 2364SOL    HW1 7835   0.358   1.975   9.461
 2364SOL    HW2 7836   0.348   1.842   9.533
 2365SOL     OW 7837   0.938   2.108   9.771
 2365SOL    HW1 7838   0.910   2.150   9.689
 2365SOL    HW2 7839   1.032   2.122   9.774
 2366SOL     OW 7840   1.079   2.547  10.771
 2366SOL    HW1 7841   1.008   2.483  10.776
 2366SOL    HW2 7842   1.159   2.495  10.769
 2367SOL     OW 7843   1.224   3.432  10.104
 2367SOL    HW1 7844   1.240   3.499  10.037
 2367SOL    HW2 7845   1.292   3.446  10.170
 2368SOL     OW 7846   0.466   3.011  10.046
 2368SOL    HW1 7847   0.395   2.992  10.107
 2368SOL    HW2 7848   0.428   2.995   9.960
 2369SOL     OW 7849   1.270   3.656   9.918
 2369SOL    HW1 7850   1.315   3.717   9.860
 2369SOL    HW2 7851   1.203   3.709   9.962
 2370SOL     OW 7852   1.024   2.405   9.332
 2370SOL    HW1 7853   0.981   2.488   9.312
 2370SOL    HW2 7854   1.088   2.427   9.398
 2371SOL     OW 7855   0.075   2.391  10.716
 2371SOL    HW1 7856   0.147   2.391  10.652
 2371SOL    HW2 7857   0.069   2.481  10.746
 2372SOL     OW 7858   0.560   2.090  10.476
 2372SOL    HW1 7859   0.602   2.011  10.511
 2372SOL    HW2 7860   0.469   2.083  10.503
 2373SOL     OW 7861   0.869   2.322   9.950
 2373SOL    HW1 7862   0.821   2.375   9.886
 2373SOL    HW2 7863   0.889   2.241   9.903
 2374SOL     OW 7864   1.015   1.915  10.062
 2374SOL    HW1 7865   0.957   1.908   9.987
 2374SOL    HW2 7866   0.994   1.840  10.117
 2375SOL     OW 7867   1.436   3.025  10.167
 2375SOL    HW1 7868   1.368   2.958  10.166
 2375SOL    HW2 7869   1.459   3.036  10.075
 2376SOL     OW 7870   1.465   2.468  10.289
 2376SOL    HW1 7871   1.416   2.386  10.290
 2376SOL    HW2 7872   1.524   2.462  10.363
 2377SOL     OW 7873   1.846   2.677   9.692
 2377SOL    HW1 7874   1.901   2.626   9.751
 2377SOL    HW2 7875   1.822   2.615   9.623
 2378SOL     OW 7876   0.492   3.279   9.470
 2378SOL    HW1 7877   0.415   3.250   9.519
 2378SOL    HW2 7878   0.474   3.253   9.379
 2379SOL     OW 7879   1.669   3.127   9.956
 2379SOL    HW1 7880   1.764   3.131   9.970
 2379SOL    HW2 7881   1.638   3.215   9.977
 2380SOL     OW 7882   1.394   2.434   9.381
 2380SOL    HW1 7883   1.333   2.415   9.453
 2380SOL    HW2 7884   1.477   2.398   9.411
 2381SOL     OW 7885   0.524   2.122   9.628
 2381SOL    HW1 7886   0.570   2.076   9.558
 2381SOL    HW2 7887   0.505   2.208   9.591
 2382SOL     OW 7888   1.759   3.091  10.868
 2382SOL    HW1 7889   1.851   3.063  10.871
 2382SOL    HW2 7890   1.759   3.177  10.909
 2383SOL     OW 7891   1.064   3.216  10.649
 2383SOL    HW1 7892   0.986   3.183  10.694
 2383SOL    HW2 7893   1.136   3.168  10.690
 2384SOL     OW 7894   1.128   3.068  10.416
 2384SOL    HW1 7895   1.064   3.102  10.477
 2384SOL    HW2 7896   1.098   3.096  10.330
 2385SOL     OW 7897   1.630   2.961  10.388
 2385SOL    HW1 7898   1.626   3.023  10.461
 2385SOL    HW2 7899   1.550   2.978  10.338
 2386SOL     OW 7900   0.917   1.961  10.706
 2386SOL    HW1 7901   0.941   1.941  10.615
 2386SOL    HW2 7902   0.996   2.002  10.743
 2387SOL     OW 7903   0.709   2.923   9.682
 2387SOL    HW1 7904   0.695   2.907   9.776
 2387SOL    HW2 7905   0.784   2.870   9.659
 2388SOL     OW 7906   0.428   2.685  10.552
 2388SOL    HW1 7907   0.497   2.695  10.618
 2388SOL    HW2 7908   0.369   2.621  10.589
 2389SOL     OW 7909   1.267   2.241  10.587
 2389SOL    HW1 7910   1.299   2.318  10.633
 2389SOL    HW2 7911   1.177   2.263  10.562
 2390SOL     OW 7912   0.063   3.440  10.656
 2390SOL    HW1 7913   0.038   3.527  10.623
 2390SOL    HW2 7914   0.159   3.442  10.658
 2391SOL     OW 7915   0.348   2.970   9.803
 2391SOL    HW1 7916   0.356   3.044   9.742
 2391SOL    HW2 7917   0.348   2.892   9.747
 2392SOL     OW 7918   0.561   2.395  10.165
 2392SOL    HW1 7919   0.575   2.455  10.092
 2392SOL    HW2 7920   0.622   2.426  10.233
 2393SOL     OW 7921   1.248   3.210   9.699
 2393SOL    HW1 7922   1.304   3.282   9.730
 2393SOL    HW2 7923   1.161   3.231   9.733
 2394SOL     OW 7924   1.279   3.320  10.455
 2394SOL    HW1 7925   1.336   3.323  10.532
 2394SOL    HW2 7926   1.226   3.242  10.467
 2395SOL     OW 7927   1.580   2.487   9.782
 2395SOL    HW1 7928   1.534   2.535   9.851
 2395SOL    HW2 7929   1.630   2.555   9.736
 2396SOL     OW 7930   0.346   3.390  10.624
 2396SOL    HW1 7931   0.333   3.344  10.542
 2396SOL    HW2 7932   0.441   3.403  10.631
 2397SOL     OW 7933   0.485   2.608  10.969
 2397SOL    HW1 7934   0.520   2.645  10.887
 2397SOL    HW2 7935   0.523   2.521  10.973
 2398SOL     OW 7936   1.595   2.622  10.965
 2398SOL    HW1 7937   1.517   2.678  10.965
 2398SOL    HW2 7938   1.663   2.675  10.924
 2399SOL     OW 7939   0.590   2.735  10.335
 2399SOL    HW1 7940   0.617   2.827  10.337
 2399SOL    HW2 7941   0.532   2.726  10.411
 2400SOL     OW 7942   1.358   2.723  10.344
 2400SOL    HW1 7943   1.276   2.714  10.296
 2400SOL    HW2 7944   1.398   2.636  10.339
 2401SOL     OW 7945   1.206   2.391   9.578
 2401SOL    HW1 7946   1.213   2.312   9.632
 2401SOL    HW2 7947   1.163   2.455   9.634
 2402SOL     OW 7948   0.301   2.054  10.551
 2402SOL    HW1 7949   0.264   2.089  10.633
 2402SOL    HW2 7950   0.284   1.960  10.555
 2403SOL     OW 7951   0.042   3.177  10.595
 2403SOL    HW1 7952   0.075   3.128  10.670
 2403SOL    HW2 7953   0.044   3.268  10.623
 2404SOL     OW 7954   0.726   2.494  10.369
 2404SOL    HW1 7955   0.799   2.476  10.310
 2404SOL    HW2 7956   0.698   2.583  10.345
 2405SOL     OW 7957   0.310   1.932   9.929
 2405SOL    HW1 7958   0.287   2.021   9.956
 2405SOL    HW2 7959   0.307   1.881  10.010
 2406SOL     OW 7960   1.621   2.235   9.680
 2406SOL    HW1 7961   1.641   2.173   9.750
 2406SOL    HW2 7962   1.595   2.315   9.725
 2407SOL     OW 7963   1.027   2.621  10.271
 2407SOL    HW1 7964   1.025   2.639  10.365
 2407SOL    HW2 7965   1.001   2.529  10.263
 2408SOL     OW 7966   0.974   3.435  11.004
 2408SOL    HW1 7967   0.960   3.484  10.923
 2408SOL    HW2 7968   1.003   3.348  10.974
 2409SOL     OW 7969   1.857   3.356  10.911
 2409SOL    HW1 7970   1.873   3.391  10.824
 2409SOL    HW2 7971   1.923   3.398  10.966
 2410SOL     OW 7972   0.348   2.796  11.093
 2410SOL    HW1 7973   0.421   2.825   0.048
 2410SOL    HW2 7974   0.384   2.723  11.042
 2411SOL     OW 7975   1.529   2.136   9.440
 2411SOL    HW1 7976   1.463   2.070   9.464
 2411SOL    HW2 7977   1.560   2.171   9.523
 2412SOL     OW 7978   1.293   2.689   9.342
 2412SOL    HW1 7979   1.335   2.603   9.345
 2412SOL    HW2 7980   1.323   2.727   9.260
 2413SOL     OW 7981   1.066   3.197  10.164
 2413SOL    HW1 7982   1.069   3.125  10.101
 2413SOL    HW2 7983   1.127   3.261  10.129
 2414SOL     OW 7984   0.317   2.673  10.258
 2414SOL    HW1 7985   0.412   2.690  10.254
 2414SOL    HW2 7986   0.310   2.582  10.287
 2415SOL     OW 7987   0.331   2.386  10.301
 2415SOL    HW1 7988   0.293   2.300  10.286
 2415SOL    HW2 7989   0.410   2.388  10.245
 2416SOL     OW 7990   1.156   2.071  10.782
 2416SOL    HW1 7991   1.170   2.126  10.858
 2416SOL    HW2 7992   1.197   2.118  10.709
 2417SOL     OW 7993   4.492   3.184   9.514
 2417SOL    HW1 7994   4.399   3.200   9.497
 2417SOL    HW2 7995   4.496   3.091   9.536
 2418SOL     OW 7996   0.097   3.638  10.250
 2418SOL    HW1 7997   0.058   3.584  10.181
 2418SOL    HW2 7998   0.184   3.660  10.218
 2419SOL     OW 7999   0.497   3.436  10.217
 2419SOL    HW1 8000   0.565   3.499  10.240
 2419SOL    HW2 8001   0.541   3.373  10.160
 2420SOL     OW 8002   0.984   2.656  10.537
 2420SOL    HW1 8003   1.039   2.633  10.612
 2420SOL    HW2 8004   0.898   2.618  10.557
 2421SOL     OW 8005   0.033   2.422  10.412
 2421SOL    HW1 8006   0.119   2.391  10.384
 2421SOL    HW2 8007   0.022   2.387  10.500
 2422SOL     OW 8008   0.817   2.431   9.669
 2422SOL    HW1 8009   0.820   2.356   9.609
 2422SOL    HW2 8010   0.743   2.484   9.638
 2423SOL     OW 8011   1.642   2.465  10.496
 2423SOL    HW1 8012   1.635   2.405  10.570
 2423SOL    HW2 8013   1.730   2.451  10.461
 2424SOL     OW 8014   0.263   3.435  11.056
 2424SOL    HW1 8015   0.210   3.461   0.031
 2424SOL    HW2 8016   0.245   3.342  11.044
 2425SOL     OW 8017   0.697   2.315  10.571
 2425SOL    HW1 8018   0.646   2.240  10.540
 2425SOL    HW2 8019   0.694   2.377  10.498
 2426SOL     OW 8020   0.940   3.544  10.758
 2426SOL    HW1 8021   0.902   3.511  10.677
 2426SOL    HW2 8022   0.925   3.639  10.755
 2427SOL     OW 8023   0.472   2.352   9.496
 2427SOL    HW1 8024   0.531   2.423   9.519
 2427SOL    HW2 8025   0.388   2.395   9.480
 2428SOL     OW 8026   0.163   3.004  10.769
 2428SOL    HW1 8027   0.138   2.963  10.852
 2428SOL    HW2 8028   0.169   2.931  10.707
 2429SOL     OW 8029   1.325   2.915  10.538
 2429SOL    HW1 8030   1.351   2.850  10.473
 2429SOL    HW2 8031   1.255   2.964  10.496
 2430SOL     OW 8032   1.311   2.719   9.617
 2430SOL    HW1 8033   1.235   2.689   9.666
 2430SOL    HW2 8034   1.286   2.705   9.525
 2431SOL     OW 8035   1.772   3.608  10.460
 2431SOL    HW1 8036   1.832   3.633  10.390
 2431SOL    HW2 8037   1.747   3.517  10.440
 2432SOL     OW 8038   1.241   3.596  10.423
 2432SOL    HW1 8039   1.323   3.617  10.379
 2432SOL    HW2 8040   1.246   3.502  10.441
 2433SOL     OW 8041   0.067   3.047  10.359
 2433SOL    HW1 8042   0.068   3.080  10.449
 2433SOL    HW2 8043   0.020   3.115  10.310
 2434SOL     OW 8044   1.712   2.006   9.834
 2434SOL    HW1 8045   1.771   1.988   9.761
 2434SOL    HW2 8046   1.695   1.920   9.873
 2435SOL     OW 8047   1.390   3.430   9.794
 2435SOL    HW1 8048   1.451   3.462   9.727
 2435SOL    HW2 8049   1.342   3.507   9.822
 2436SOL     OW 8050   1.278   2.787   9.981
 2436SOL    HW1 8051   1.351   2.726   9.986
 2436SOL    HW2 8052   1.311   2.860   9.929
 2437SOL     OW 8053   0.818   3.136  10.738
 2437SOL    HW1 8054   0.788   3.170  10.822
 2437SOL    HW2 8055   0.748   3.157  10.677
 2438SOL     OW 8056   0.673   3.481   9.465
 2438SOL    HW1 8057   0.682   3.492   9.371
 2438SOL    HW2 8058   0.618   3.403   9.474
 2439SOL     OW 8059   1.623   3.582  10.697
 2439SOL    HW1 8060   1.677   3.596  10.619
 2439SOL    HW2 8061   1.608   3.669  10.732
 2440SOL     OW 8062   1.823   2.037  10.283
 2440SOL    HW1 8063   1.867   1.955  10.259
 2440SOL    HW2 8064   1.741   2.036  10.233
 2441SOL     OW 8065   0.265   2.182  10.029
 2441SOL    HW1 8066   0.182   2.221  10.001
 2441SOL    HW2 8067   0.255   2.169  10.123
 2442SOL     OW 8068   1.207   3.468   9.341
 2442SOL    HW1 8069   1.198   3.377   9.369
 2442SOL    HW2 8070   1.142   3.480   9.272
 2443SOL     OW 8071   0.826   2.868  10.685
 2443SOL    HW1 8072   0.868   2.862  10.600
 2443SOL    HW2 8073   0.826   2.962  10.706
 2444SOL     OW 8074   0.916   2.773   9.600
 2444SOL    HW1 8075   0.977   2.805   9.534
 2444SOL    HW2 8076   0.963   2.703   9.644
 2445SOL     OW 8077   1.492   3.487   9.352
 2445SOL    HW1 8078   1.398   3.481   9.339
 2445SOL    HW2 8079   1.528   3.493   9.264
 2446SOL     OW 8080   0.368   3.173  10.806
 2446SOL    HW1 8081   0.354   3.248  10.747
 2446SOL    HW2 8082   0.297   3.113  10.785
 2447SOL     OW 8083   1.613   3.144  10.593
 2447SOL    HW1 8084   1.669   3.131  10.670
 2447SOL    HW2 8085   1.556   3.216  10.617
 2448SOL     OW 8086   1.052   2.969  10.016
 2448SOL    HW1 8087   0.981   2.918  10.055
 2448SOL    HW2 8088   1.113   2.903   9.984
 2449SOL     OW 8089   1.021   2.102  10.276
 2449SOL    HW1 8090   1.016   2.054  10.194
 2449SOL    HW2 8091   1.016   2.034  10.344
 2450SOL     OW 8092   0.604   3.352   9.793
 2450SOL    HW1 8093   0.645   3.302   9.722
 2450SOL    HW2 8094   0.530   3.395   9.751
 2451SOL     OW 8095   1.721   2.260  10.687
 2451SOL    HW1 8096   1.801   2.313  10.688
 2451SOL    HW2 8097   1.742   2.185  10.632
 2452SOL     OW 8098   0.252   3.206   9.587
 2452SOL    HW1 8099   0.157   3.206   9.572
 2452SOL    HW2 8100   0.262   3.238   9.676
 2453SOL     OW 8101   0.110   2.881  11.003
 2453SOL    HW1 8102   0.052   2.885  11.079
 2453SOL    HW2 8103   0.197   2.862  11.040
 2454SOL     OW 8104   0.674   2.059  10.803
 2454SOL    HW1 8105   0.756   2.036  10.758
 2454SOL    HW2 8106   0.702   2.092  10.888
 2455SOL     OW 8107   0.072   2.187   9.342
 2455SOL    HW1 8108   4.477   2.199   9.348
 2455SOL    HW2 8109   0.104   2.269   9.304
 2456SOL     OW 8110   1.429   2.711  10.709
 2456SOL    HW1 8111   1.381   2.780  10.662
 2456SOL    HW2 8112   1.519   2.720  10.679
 2457SOL     OW 8113   0.086   2.038   9.615
 2457SOL    HW1 8114   0.079   2.111   9.552
 2457SOL    HW2 8115   0.161   1.988   9.586
 2458SOL     OW 8116   1.179   3.202   9.427
 2458SOL    HW1 8117   1.088   3.172   9.429
 2458SOL    HW2 8118   1.207   3.202   9.518
 2459SOL     OW 8119   0.624   2.691  10.739
 2459SOL    HW1 8120   0.679   2.768  10.726
 2459SOL    HW2 8121   0.686   2.618  10.747
 2460SOL     OW 8122   1.484   3.638  10.288
 2460SOL    HW1 8123   1.509   3.697  10.217
 2460SOL    HW2 8124   1.566   3.620  10.334
 2461SOL     OW 8125   0.716   2.425  11.014
 2461SOL    HW1 8126   0.748   2.498  11.067
 2461SOL    HW2 8127   0.767   2.350  11.043
 2462SOL     OW 8128   0.383   3.599  10.872
 2462SOL    HW1 8129   0.306   3.656  10.865
 2462SOL    HW2 8130   0.356   3.530  10.932
 2463SOL     OW 8131   1.672   2.745  10.568
 2463SOL    HW1 8132   1.661   2.659  10.525
 2463SOL    HW2 8133   1.662   2.808  10.496
 2464SOL     OW 8134   1.217   2.182   9.768
 2464SOL    HW1 8135   1.280   2.110   9.759
 2464SOL    HW2 8136   1.246   2.230   9.845
 2465SOL     OW 8137   0.590   2.600   9.979
 2465SOL    HW1 8138   0.628   2.687   9.963
 2465SOL    HW2 8139   0.522   2.592   9.913
 2466SOL     OW 8140   1.734   2.165  10.948
 2466SOL    HW1 8141   1.729   2.210  10.864
 2466SOL    HW2 8142   1.660   2.199  10.998
 2467SOL     OW 8143   1.754   2.798  10.825
 2467SOL    HW1 8144   1.743   2.892  10.840
 2467SOL    HW2 8145   1.733   2.785  10.732
 2468SOL     OW 8146   0.864   3.230   9.344
 2468SOL    HW1 8147   0.824   3.256   9.426
 2468SOL    HW2 8148   0.880   3.312   9.298
 2469SOL     OW 8149   0.661   3.654  10.256
 2469SOL    HW1 8150   0.639   3.744  10.232
 2469SOL    HW2 8151   0.756   3.649  10.247
 2470SOL     OW 8152   0.868   2.829  10.165
 2470SOL    HW1 8153   0.917   2.757  10.204
 2470SOL    HW2 8154   0.833   2.878  10.240
 2471SOL     OW 8155   1.080   2.851   9.399
 2471SOL    HW1 8156   1.057   2.901   9.320
 2471SOL    HW2 8157   1.154   2.797   9.373
 2472SOL     OW 8158   1.855   3.416  10.154
 2472SOL    HW1 8159   1.776   3.406  10.101
 2472SOL    HW2 8160   1.845   3.351  10.224
 2473SOL     OW 8161   0.106   3.098   9.978
 2473SOL    HW1 8162   0.116   3.051  10.061
 2473SOL    HW2 8163   0.165   3.054   9.917
 2474SOL     OW 8164   0.680   3.257  10.939
 2474SOL    HW1 8165   0.608   3.206  10.975
 2474SOL    HW2 8166   0.645   3.346  10.932
 2475SOL     OW 8167   1.779   2.039  10.545
 2475SOL    HW1 8168   1.804   1.948  10.561
 2475SOL    HW2 8169   1.798   2.053  10.452
 2476SOL     OW 8170   0.435   2.295   9.836
 2476SOL    HW1 8171   0.459   2.222   9.779
 2476SOL    HW2 8172   0.384   2.256   9.906
 2477SOL     OW 8173   1.702   3.352  10.406
 2477SOL    HW1 8174   1.620   3.327  10.363
 2477SOL    HW2 8175   1.715   3.284  10.472
 2478SOL     OW 8176   0.299   2.352  10.565
 2478SOL    HW1 8177   0.371   2.311  10.614
 2478SOL    HW2 8178   0.334   2.364  10.477
 2479SOL     OW 8179   0.827   3.440   9.988
 2479SOL    HW1 8180   0.815   3.492   9.909
 2479SOL    HW2 8181   0.750   3.383   9.991
 2480SOL     OW 8182   1.432   2.087  10.427
 2480SOL    HW1 8183   1.465   2.010  10.473
 2480SOL    HW2 8184   1.381   2.134  10.492
 2481SOL     OW 8185   1.008   1.881  10.453
 2481SOL    HW1 8186   0.954   1.814  10.413
 2481SOL    HW2 8187   1.096   1.843  10.455
 2482SOL     OW 8188   0.772   3.194   9.623
 2482SOL    HW1 8189   0.740   3.104   9.629
 2482SOL    HW2 8190   0.854   3.194   9.672
 2483SOL     OW 8191   0.620   3.417  10.597
 2483SOL    HW1 8192   0.621   3.501  10.644
 2483SOL    HW2 8193   0.707   3.412  10.557
 2484SOL     OW 8194   1.352   1.915   9.475
 2484SOL    HW1 8195   1.380   1.853   9.408
 2484SOL    HW2 8196   1.265   1.885   9.501
 2485SOL     OW 8197   1.298   2.324   9.992
 2485SOL    HW1 8198   1.242   2.401   9.999
 2485SOL    HW2 8199   1.292   2.283  10.078
 2486SOL     OW 8200   1.575   2.060  10.181
 2486SOL    HW1 8201   1.521   2.080  10.257
 2486SOL    HW2 8202   1.578   2.142  10.131
 2487SOL     OW 8203   0.041   2.914   9.598
 2487SOL    HW1 8204   0.135   2.898   9.588
 2487SOL    HW2 8205   0.020   2.880   9.685
 2488SOL     OW 8206   0.884   3.514   9.653
 2488SOL    HW1 8207   0.812   3.496   9.593
 2488SOL    HW2 8208   0.854   3.589   9.704
 2489SOL     OW 8209   0.206   4.282   0.085
 2489SOL    HW1 8210   0.152   4.312   0.158
 2489SOL    HW2 8211   0.229   4.363   0.039
 2490SOL     OW 8212   0.209   3.996   0.991
 2490SOL    HW1 8213   0.245   3.968   1.076
 2490SOL    HW2 8214   0.134   3.937   0.977
 2491SOL     OW 8215   4.499   4.101   0.629
 2491SOL    HW1 8216   4.418   4.127   0.673
 2491SOL    HW2 8217   4.480   4.015   0.592
 2492SOL     OW 8218   1.731   4.332   0.230
 2492SOL    HW1 8219   1.750   4.307   0.139
 2492SOL    HW2 8220   1.726   4.249   0.277
 2493SOL     OW 8221   0.734   0.270   0.685
 2493SOL    HW1 8222   0.721   0.204   0.754
 2493SOL    HW2 8223   0.646   0.289   0.653
 2494SOL     OW 8224   0.445   4.120   1.488
 2494SOL    HW1 8225   0.526   4.069   1.490
 2494SOL    HW2 8226   0.375   4.055   1.498
 2495SOL     OW 8227   1.615   4.172   0.741
 2495SOL    HW1 8228   1.548   4.197   0.678
 2495SOL    HW2 8229   1.616   4.243   0.805
 2496SOL     OW 8230   1.597   3.847   1.469
 2496SOL    HW1 8231   1.600   3.927   1.417
 2496SOL    HW2 8232   1.582   3.877   1.558
 2497SOL     OW 8233   0.164   4.320   0.633
 2497SOL    HW1 8234   0.103   4.248   0.620
 2497SOL    HW2 8235   0.118   4.398   0.602
 2498SOL     OW 8236   0.121   0.002   1.588
 2498SOL    HW1 8237   0.216   4.485   1.588
 2498SOL    HW2 8238   0.112   0.088   1.547
 2499SOL     OW 8239   0.816   3.725   0.508
 2499SOL    HW1 8240   0.854   3.812   0.492
 2499SOL    HW2 8241   0.722   3.742   0.517
 2500SOL     OW 8242   0.329   3.979   1.798
 2500SOL    HW1 8243   0.374   4.058   1.830
 2500SOL    HW2 8244   0.240   3.987   1.833
 2501SOL     OW 8245   1.277   4.073   0.933
 2501SOL    HW1 8246   1.188   4.039   0.942
 2501SOL    HW2 8247   1.329   4.021   0.994
 2502SOL     OW 8248   0.827   4.305   1.448
 2502SOL    HW1 8249   0.787   4.310   1.534
 2502SOL    HW2 8250   0.759   4.266   1.392
 2503SOL     OW 8251   1.395   4.199   1.676
 2503SOL    HW1 8252   1.397   4.244   1.761
 2503SOL    HW2 8253   1.454   4.124   1.687
 2504SOL     OW 8254   0.998   4.150   1.233
 2504SOL    HW1 8255   0.925   4.170   1.293
 2504SOL    HW2 8256   0.959   4.090   1.169
 2505SOL     OW 8257   1.060   4.403   0.423
 2505SOL    HW1 8258   1.056   4.457   0.501
 2505SOL    HW2 8259   0.968   4.382   0.404
 2506SOL     OW 8260   0.052   0.053   0.846
 2506SOL    HW1 8261   0.143   0.024   0.856
 2506SOL    HW2 8262   0.053   0.107   0.767
 2507SOL     OW 8263   0.887   4.073   0.209
 2507SOL    HW1 8264   0.932   4.131   0.148
 2507SOL    HW2 8265   0.901   3.985   0.174
 2508SOL     OW 8266   1.707   4.298   1.829
 2508SOL    HW1 8267   1.720   4.387   1.795
 2508SOL    HW2 8268   1.730   4.241   1.756
 2509SOL     OW 8269   0.552   3.905   0.893
 2509SOL    HW1 8270   0.554   3.936   0.984
 2509SOL    HW2 8271   0.548   3.985   0.841
 2510SOL     OW 8272   1.487   4.464   0.739
 2510SOL    HW1 8273   1.472   4.409   0.816
 2510SOL    HW2 8274   1.529   0.043   0.774
 2511SOL     OW 8275   0.189   4.001   1.485
 2511SOL    HW1 8276   0.138   4.081   1.495
 2511SOL    HW2 8277   0.183   3.958   1.571
 2512SOL     OW 8278   1.402   3.830   0.431
 2512SOL    HW1 8279   1.393   3.808   0.338
 2512SOL    HW2 8280   1.496   3.840   0.445
 2513SOL     OW 8281   0.348   4.376   0.403
 2513SOL    HW1 8282   0.394   4.304   0.445
 2513SOL    HW2 8283   0.299   4.418   0.474
 2514SOL     OW 8284   1.535   3.950   1.725
 2514SOL    HW1 8285   1.544   3.971   1.818
 2514SOL    HW2 8286   1.467   3.883   1.722
 2515SOL     OW 8287   0.617   3.833   0.122
 2515SOL    HW1 8288   0.705   3.798   0.121
 2515SOL    HW2 8289   0.581   3.812   0.036
 2516SOL     OW 8290   0.766   4.002   1.755
 2516SOL    HW1 8291   0.842   3.944   1.755
 2516SOL    HW2 8292   0.717   3.978   1.833
 2517SOL     OW 8293   1.343   4.312   1.429
 2517SOL    HW1 8294   1.365   4.275   1.515
 2517SOL    HW2 8295   1.385   4.398   1.428
 2518SOL     OW 8296   0.923   4.236   0.899
 2518SOL    HW1 8297   0.901   4.220   0.808
 2518SOL    HW2 8298   0.963   4.153   0.929
 2519SOL     OW 8299   0.553   3.786   0.504
 2519SOL    HW1 8300   0.471   3.783   0.553
 2519SOL    HW2 8301   0.545   3.864   0.449
 2520SOL     OW 8302   0.285   3.772   0.192
 2520SOL    HW1 8303   0.332   3.824   0.127
 2520SOL    HW2 8304   0.349   3.708   0.223
 2521SOL     OW 8305   0.939   3.973   0.464
 2521SOL    HW1 8306   0.912   4.013   0.381
 2521SOL    HW2 8307   1.034   3.986   0.467
 2522SOL     OW 8308   1.075   4.396   1.521
 2522SOL    HW1 8309   0.992   4.366   1.484
 2522SOL    HW2 8310   1.142   4.356   1.465
 2523SOL     OW 8311   1.009   4.263   0.041
 2523SOL    HW1 8312   1.020   4.322  11.066
 2523SOL    HW2 8313   1.089   4.273   0.092
 2524SOL     OW 8314   0.085   4.257   1.409
 2524SOL    HW1 8315   0.158   4.270   1.350
 2524SOL    HW2 8316   0.052   4.346   1.426
 2525SOL     OW 8317   0.560   3.951   1.165
 2525SOL    HW1 8318   0.601   3.871   1.199
 2525SOL    HW2 8319   0.469   3.946   1.194
 2526SOL     OW 8320   0.869   4.189   0.640
 2526SOL    HW1 8321   0.838   4.251   0.574
 2526SOL    HW2 8322   0.887   4.109   0.590
 2527SOL     OW 8323   1.014   3.777   0.752
 2527SOL    HW1 8324   0.956   3.769   0.676
 2527SOL    HW2 8325   0.994   3.701   0.806
 2528SOL     OW 8326   1.477   4.312   0.967
 2528SOL    HW1 8327   1.418   4.239   0.985
 2528SOL    HW2 8328   1.528   4.323   1.047
 2529SOL     OW 8329   1.401   4.293   0.072
 2529SOL    HW1 8330   1.335   4.276   0.140
 2529SOL    HW2 8331   1.468   4.226   0.087
 2530SOL     OW 8332   0.527   3.989   0.325
 2530SOL    HW1 8333   0.554   3.929   0.256
 2530SOL    HW2 8334   0.511   4.072   0.280
 2531SOL     OW 8335   0.917   3.823   1.396
 2531SOL    HW1 8336   0.941   3.801   1.306
 2531SOL    HW2 8337   0.997   3.861   1.434
 2532SOL     OW 8338   0.442   0.004   1.262
 2532SOL    HW1 8339   0.498   0.002   1.339
 2532SOL    HW2 8340   0.404   4.416   1.258
 2533SOL     OW 8341   1.266   4.100   1.275
 2533SOL    HW1 8342   1.299   4.177   1.320
 2533SOL    HW2 8343   1.177   4.124   1.249
 2534SOL     OW 8344   0.556   4.254   0.864
 2534SOL    HW1 8345   0.576   4.294   0.779
 2534SOL    HW2 8346   0.621   4.289   0.924
 2535SOL     OW 8347   1.578   4.339   0.481
 2535SOL    HW1 8348   1.536   4.404   0.536
 2535SOL    HW2 8349   1.623   4.390   0.413
 2536SOL     OW 8350   0.996   3.847   1.755
 2536SOL    HW1 8351   1.052   3.919   1.728
 2536SOL    HW2 8352   1.044   3.768   1.730
 2537SOL     OW 8353   0.497   3.767   1.747
 2537SOL    HW1 8354   0.456   3.710   1.682
 2537SOL    HW2 8355   0.437   3.841   1.756
 2538SOL     OW 8356   1.211   4.250   0.264
 2538SOL    HW1 8357   1.222   4.172   0.317
 2538SOL    HW2 8358   1.162   4.311   0.320
 2539SOL     OW 8359   0.299   3.923   1.244
 2539SOL    HW1 8360   0.259   3.951   1.327
 2539SOL    HW2 8361   0.287   3.828   1.242
 2540SOL     OW 8362   0.733   4.360   1.046
 2540SOL    HW1 8363   0.806   4.322   0.996
 2540SOL    HW2 8364   0.741   4.454   1.032
 2541SOL     OW 8365   1.751   0.133   1.854
 2541SOL    HW1 8366   1.686   0.148   1.786
 2541SOL    HW2 8367   1.707   0.159   1.935
 2542SOL     OW 8368   0.311   3.794   0.619
 2542SOL    HW1 8369   0.287   3.882   0.647
 2542SOL    HW2 8370   0.306   3.742   0.699
 2543SOL     OW 8371   1.615   4.092   0.368
 2543SOL    HW1 8372   1.644   4.029   0.434
 2543SOL    HW2 8373   1.592   4.170   0.417
 2544SOL     OW 8374   1.535   4.013   0.116
 2544SOL    HW1 8375   1.475   3.940   0.132
 2544SOL    HW2 8376   1.567   4.037   0.203
 2545SOL     OW 8377   0.317   0.017   0.915
 2545SOL    HW1 8378   0.399   0.066   0.923
 2545SOL    HW2 8379   0.331   4.439   0.969
 2546SOL     OW 8380   0.334   4.237   1.011
 2546SOL    HW1 8381   0.290   4.155   0.988
 2546SOL    HW2 8382   0.409   4.242   0.952
 2547SOL     OW 8383   1.137   4.094   1.685
 2547SOL    HW1 8384   1.085   4.153   1.740
 2547SOL    HW2 8385   1.222   4.138   1.677
 2548SOL     OW 8386   1.160   3.927   1.469
 2548SOL    HW1 8387   1.151   3.988   1.542
 2548SOL    HW2 8388   1.200   3.979   1.399
 2549SOL     OW 8389   0.024   4.279   1.106
 2549SOL    HW1 8390   0.110   4.259   1.069
 2549SOL    HW2 8391   0.026   4.239   1.193
 2550SOL     OW 8392   0.175   4.236   1.693
 2550SOL    HW1 8393   0.263   4.218   1.660
 2550SOL    HW2 8394   0.149   4.317   1.649
 2551SOL     OW 8395   0.814   4.309   0.327
 2551SOL    HW1 8396   0.825   4.223   0.288
 2551SOL    HW2 8397   0.720   4.316   0.346
 2552SOL     OW 8398   1.637   4.318   1.187
 2552SOL    HW1 8399   1.632   4.260   1.263
 2552SOL    HW2 8400   1.725   4.305   1.152
 2553SOL     OW 8401   0.675   4.187   1.258
 2553SOL    HW1 8402   0.638   4.105   1.224
 2553SOL    HW2 8403   0.684   4.243   1.181
 2554SOL     OW 8404   0.475   4.217   0.183
 2554SOL    HW1 8405   0.520   4.301   0.193
 2554SOL    HW2 8406   0.382   4.239   0.186
 2555SOL     OW 8407   0.918   3.814   0.106
 2555SOL    HW1 8408   0.969   3.778   0.033
 2555SOL    HW2 8409   0.955   3.772   0.184
 2556SOL     OW 8410   1.720   3.869   0.511
 2556SOL    HW1 8411   1.792   3.856   0.450
 2556SOL    HW2 8412   1.705   3.783   0.550
 2557SOL     OW 8413   1.278   0.137   0.682
 2557SOL    HW1 8414   1.335   0.060   0.691
 2557SOL    HW2 8415   1.327   0.196   0.625
 2558SOL     OW 8416   1.839   3.896   0.967
 2558SOL    HW1 8417   1.868   3.810   0.939
 2558SOL    HW2 8418   1.754   3.908   0.927
 2559SOL     OW 8419   0.268   4.041   0.721
 2559SOL    HW1 8420   0.192   4.091   0.692
 2559SOL    HW2 8421   0.254   4.029   0.815
 2560SOL     OW 8422   1.062   0.300   0.729
 2560SOL    HW1 8423   0.980   0.267   0.691
 2560SOL    HW2 8424   1.128   0.236   0.703
 2561SOL     OW 8425   1.020   3.964   0.965
 2561SOL    HW1 8426   1.015   3.916   0.883
 2561SOL    HW2 8427   1.015   3.896   1.033
 2562SOL     OW 8428   1.721   4.114   1.380
 2562SOL    HW1 8429   1.792   4.178   1.378
 2562SOL    HW2 8430   1.751   4.043   1.323
 2563SOL     OW 8431   0.674   3.923   1.499
 2563SOL    HW1 8432   0.757   3.901   1.458
 2563SOL    HW2 8433   0.697   3.952   1.587
 2564SOL     OW 8434   0.060   4.061   0.003
 2564SOL    HW1 8435   4.469   4.072   0.031
 2564SOL    HW2 8436   0.101   4.146   0.022
 2565SOL     OW 8437   0.081   3.897   0.310
 2565SOL    HW1 8438   0.078   3.972   0.251
 2565SOL    HW2 8439   0.155   3.845   0.280
 2566SOL     OW 8440   0.726   4.283   1.700
 2566SOL    HW1 8441   0.729   4.332   1.782
 2566SOL    HW2 8442   0.749   4.193   1.724
 2567SOL     OW 8443   1.217   4.039   0.456
 2567SOL    HW1 8444   1.281   3.969   0.447
 2567SOL    HW2 8445   1.246   4.089   0.533
 2568SOL     OW 8446   1.760   4.090   1.648
 2568SOL    HW1 8447   1.743   4.100   1.555
 2568SOL    HW2 8448   1.691   4.031   1.679
 2569SOL     OW 8449   1.100   0.204   0.051
 2569SOL    HW1 8450   1.096   0.290   0.009
 2569SOL    HW2 8451   1.191   0.176   0.041
 2570SOL     OW 8452   1.815   3.908   1.238
 2570SOL    HW1 8453   1.823   3.814   1.252
 2570SOL    HW2 8454   1.822   3.919   1.143
 2571SOL     OW 8455   0.450   4.155   0.536
 2571SOL    HW1 8456   0.469   4.081   0.478
 2571SOL    HW2 8457   0.392   4.119   0.603
 2572SOL     OW 8458   0.322   4.260   1.277
 2572SOL    HW1 8459   0.375   4.193   1.320
 2572SOL    HW2 8460   0.333   4.242   1.183
 2573SOL     OW 8461   1.432   3.949   1.118
 2573SOL    HW1 8462   1.457   3.868   1.164
 2573SOL    HW2 8463   1.380   3.998   1.181
 2574SOL     OW 8464   1.009   3.743   1.144
 2574SOL    HW1 8465   0.954   3.675   1.104
 2574SOL    HW2 8466   1.096   3.705   1.145
 2575SOL     OW 8467   1.350   3.778   0.164
 2575SOL    HW1 8468   1.373   3.727   0.086
 2575SOL    HW2 8469   1.264   3.747   0.190
 2576SOL     OW 8470   1.300   4.174   0.681
 2576SOL    HW1 8471   1.262   4.261   0.693
 2576SOL    HW2 8472   1.299   4.135   0.768
 2577SOL     OW 8473   1.587   3.927   0.878
 2577SOL    HW1 8474   1.526   3.948   0.948
 2577SOL    HW2 8475   1.587   4.005   0.822
 2578SOL     OW 8476   0.230   4.281   1.972
 2578SOL    HW1 8477   0.164   4.314   2.033
 2578SOL    HW2 8478   0.213   4.329   1.891
 2579SOL     OW 8479   0.209   3.996   2.853
 2579SOL    HW1 8480   0.245   3.968   2.938
 2579SOL    HW2 8481   0.134   3.939   2.840
 2580SOL     OW 8482   4.500   4.100   2.493
 2580SOL    HW1 8483   4.419   4.130   2.534
 2580SOL    HW2 8484   4.476   4.017   2.451
 2581SOL     OW 8485   1.730   4.335   2.100
 2581SOL    HW1 8486   1.731   4.322   2.005
 2581SOL    HW2 8487   1.732   4.246   2.136
 2582SOL     OW 8488   0.729   0.269   2.546
 2582SOL    HW1 8489   0.718   0.208   2.619
 2582SOL    HW2 8490   0.639   0.289   2.518
 2583SOL     OW 8491   0.445   4.120   3.350
 2583SOL    HW1 8492   0.526   4.069   3.353
 2583SOL    HW2 8493   0.375   4.054   3.360
 2584SOL     OW 8494   1.615   4.172   2.602
 2584SOL    HW1 8495   1.546   4.197   2.541
 2584SOL    HW2 8496   1.616   4.242   2.668
 2585SOL     OW 8497   1.596   3.847   3.331
 2585SOL    HW1 8498   1.600   3.927   3.279
 2585SOL    HW2 8499   1.582   3.877   3.420
 2586SOL     OW 8500   0.163   4.323   2.496
 2586SOL    HW1 8501   0.104   4.250   2.479
 2586SOL    HW2 8502   0.118   4.400   2.463
 2587SOL     OW 8503   0.121   0.002   3.451
 2587SOL    HW1 8504   0.215   4.485   3.450
 2587SOL    HW2 8505   0.112   0.088   3.409
 2588SOL     OW 8506   0.815   3.724   2.370
 2588SOL    HW1 8507   0.855   3.809   2.352
 2588SOL    HW2 8508   0.722   3.742   2.379
 2589SOL     OW 8509   0.329   3.979   3.660
 2589SOL    HW1 8510   0.374   4.058   3.692
 2589SOL    HW2 8511   0.240   3.987   3.695
 2590SOL     OW 8512   1.277   4.072   2.794
 2590SOL    HW1 8513   1.188   4.039   2.805
 2590SOL    HW2 8514   1.329   4.020   2.856
 2591SOL     OW 8515   0.827   4.305   3.310
 2591SOL    HW1 8516   0.787   4.310   3.396
 2591SOL    HW2 8517   0.759   4.266   3.254
 2592SOL     OW 8518   1.395   4.199   3.538
 2592SOL    HW1 8519   1.397   4.244   3.623
 2592SOL    HW2 8520   1.454   4.124   3.549
 2593SOL     OW 8521   0.998   4.150   3.095
 2593SOL    HW1 8522   0.926   4.171   3.155
 2593SOL    HW2 8523   0.959   4.090   3.031
 2594SOL     OW 8524   1.057   4.410   2.279
 2594SOL    HW1 8525   1.054   4.450   2.366
 2594SOL    HW2 8526   0.970   4.372   2.268
 2595SOL     OW 8527   0.054   0.063   2.713
 2595SOL    HW1 8528   0.142   0.026   2.719
 2595SOL    HW2 8529   0.049   0.098   2.625
 2596SOL     OW 8530   0.891   4.064   2.052
 2596SOL    HW1 8531   0.932   4.126   1.993
 2596SOL    HW2 8532   0.908   3.978   2.013
 2597SOL     OW 8533   1.707   4.298   3.691
 2597SOL    HW1 8534   1.721   4.387   3.657
 2597SOL    HW2 8535   1.730   4.241   3.618
 2598SOL     OW 8536   0.552   3.905   2.755
 2598SOL    HW1 8537   0.554   3.935   2.845
 2598SOL    HW2 8538   0.547   3.986   2.703
 2599SOL     OW 8539   1.490   4.465   2.600
 2599SOL    HW1 8540   1.473   4.410   2.676
 2599SOL    HW2 8541   1.530   0.044   2.636
 2600SOL     OW 8542   0.189   4.000   3.347
 2600SOL    HW1 8543   0.139   4.081   3.356
 2600SOL    HW2 8544   0.183   3.959   3.434
 2601SOL     OW 8545   1.401   3.830   2.294
 2601SOL    HW1 8546   1.391   3.806   2.202
 2601SOL    HW2 8547   1.495   3.840   2.306
 2602SOL     OW 8548   0.349   4.379   2.266
 2602SOL    HW1 8549   0.394   4.305   2.308
 2602SOL    HW2 8550   0.299   4.419   2.337
 2603SOL     OW 8551   1.535   3.950   3.587
 2603SOL    HW1 8552   1.544   3.971   3.680
 2603SOL    HW2 8553   1.467   3.882   3.584
 2604SOL     OW 8554   0.635   3.849   1.964
 2604SOL    HW1 8555   0.702   3.783   1.981
 2604SOL    HW2 8556   0.586   3.816   1.889
 2605SOL     OW 8557   0.766   4.002   3.616
 2605SOL    HW1 8558   0.842   3.944   3.617
 2605SOL    HW2 8559   0.717   3.978   3.695
 2606SOL     OW 8560   1.343   4.312   3.291
 2606SOL    HW1 8561   1.365   4.275   3.377
 2606SOL    HW2 8562   1.385   4.398   3.290
 2607SOL     OW 8563   0.923   4.236   2.760
 2607SOL    HW1 8564   0.901   4.220   2.669
 2607SOL    HW2 8565   0.962   4.154   2.790
 2608SOL     OW 8566   0.552   3.786   2.364
 2608SOL    HW1 8567   0.471   3.784   2.415
 2608SOL    HW2 8568   0.543   3.865   2.309
 2609SOL     OW 8569   0.294   3.770   2.040
 2609SOL    HW1 8570   0.355   3.837   2.011
 2609SOL    HW2 8571   0.348   3.705   2.084
 2610SOL     OW 8572   0.937   3.972   2.324
 2610SOL    HW1 8573   0.911   4.010   2.240
 2610SOL    HW2 8574   1.032   3.984   2.327
 2611SOL     OW 8575   1.075   4.396   3.383
 2611SOL    HW1 8576   0.992   4.366   3.346
 2611SOL    HW2 8577   1.142   4.356   3.327
 2612SOL     OW 8578   1.025   4.267   1.888
 2612SOL    HW1 8579   1.008   4.354   1.854
 2612SOL    HW2 8580   1.088   4.280   1.958
 2613SOL     OW 8581   0.085   4.257   3.271
 2613SOL    HW1 8582   0.159   4.270   3.212
 2613SOL    HW2 8583   0.052   4.345   3.288
 2614SOL     OW 8584   0.560   3.951   3.027
 2614SOL    HW1 8585   0.601   3.871   3.062
 2614SOL    HW2 8586   0.469   3.946   3.056
 2615SOL     OW 8587   0.870   4.190   2.499
 2615SOL    HW1 8588   0.834   4.248   2.433
 2615SOL    HW2 8589   0.888   4.108   2.452
 2616SOL     OW 8590   1.014   3.777   2.614
 2616SOL    HW1 8591   0.956   3.769   2.538
 2616SOL    HW2 8592   0.994   3.702   2.668
 2617SOL     OW 8593   1.478   4.311   2.827
 2617SOL    HW1 8594   1.418   4.239   2.847
 2617SOL    HW2 8595   1.528   4.324   2.908
 2618SOL     OW 8596   1.402   4.296   1.935
 2618SOL    HW1 8597   1.340   4.269   2.002
 2618SOL    HW2 8598   1.485   4.255   1.961
 2619SOL     OW 8599   0.523   3.985   2.178
 2619SOL    HW1 8600   0.568   3.937   2.108
 2619SOL    HW2 8601   0.510   4.073   2.142
 2620SOL     OW 8602   0.917   3.823   3.258
 2620SOL    HW1 8603   0.941   3.801   3.168
 2620SOL    HW2 8604   0.997   3.861   3.296
 2621SOL     OW 8605   0.442   0.004   3.124
 2621SOL    HW1 8606   0.498   0.002   3.201
 2621SOL    HW2 8607   0.404   4.416   3.120
 2622SOL     OW 8608   1.266   4.100   3.136
 2622SOL    HW1 8609   1.299   4.177   3.182
 2622SOL    HW2 8610   1.176   4.124   3.111
 2623SOL     OW 8611   0.556   4.253   2.726
 2623SOL    HW1 8612   0.575   4.295   2.642
 2623SOL    HW2 8613   0.621   4.289   2.786
 2624SOL     OW 8614   1.569   4.338   2.340
 2624SOL    HW1 8615   1.541   4.405   2.403
 2624SOL    HW2 8616   1.629   4.385   2.281
 2625SOL     OW 8617   0.996   3.847   3.617
 2625SOL    HW1 8618   1.052   3.919   3.590
 2625SOL    HW2 8619   1.044   3.768   3.592
 2626SOL     OW 8620   0.497   3.767   3.609
 2626SOL    HW1 8621   0.456   3.710   3.544
 2626SOL    HW2 8622   0.437   3.841   3.618
 2627SOL     OW 8623   1.210   4.254   2.126
 2627SOL    HW1 8624   1.220   4.175   2.178
 2627SOL    HW2 8625   1.161   4.314   2.182
 2628SOL     OW 8626   0.299   3.923   3.106
 2628SOL    HW1 8627   0.259   3.951   3.189
 2628SOL    HW2 8628   0.287   3.828   3.104
 2629SOL     OW 8629   0.733   4.360   2.908
 2629SOL    HW1 8630   0.806   4.323   2.858
 2629SOL    HW2 8631   0.741   4.454   2.895
 2630SOL     OW 8632   1.751   0.132   3.716
 2630SOL    HW1 8633   1.686   0.148   3.648
 2630SOL    HW2 8634   1.707   0.159   3.797
 2631SOL     OW 8635   0.310   3.793   2.480
 2631SOL    HW1 8636   0.286   3.882   2.507
 2631SOL    HW2 8637   0.307   3.742   2.561
 2632SOL     OW 8638   1.614   4.091   2.231
 2632SOL    HW1 8639   1.643   4.030   2.299
 2632SOL    HW2 8640   1.590   4.171   2.278
 2633SOL     OW 8641   1.527   3.999   1.989
 2633SOL    HW1 8642   1.464   3.932   2.015
 2633SOL    HW2 8643   1.562   4.032   2.072
 2634SOL     OW 8644   0.319   0.016   2.777
 2634SOL    HW1 8645   0.400   0.066   2.785
 2634SOL    HW2 8646   0.333   4.439   2.832
 2635SOL     OW 8647   0.334   4.237   2.873
 2635SOL    HW1 8648   0.290   4.155   2.850
 2635SOL    HW2 8649   0.409   4.242   2.814
 2636SOL     OW 8650   1.137   4.094   3.547
 2636SOL    HW1 8651   1.085   4.153   3.602
 2636SOL    HW2 8652   1.222   4.138   3.539
 2637SOL     OW 8653   1.160   3.927   3.331
 2637SOL    HW1 8654   1.151   3.988   3.404
 2637SOL    HW2 8655   1.200   3.979   3.261
 2638SOL     OW 8656   0.024   4.278   2.968
 2638SOL    HW1 8657   0.110   4.259   2.931
 2638SOL    HW2 8658   0.027   4.239   3.055
 2639SOL     OW 8659   0.176   4.236   3.555
 2639SOL    HW1 8660   0.264   4.218   3.522
 2639SOL    HW2 8661   0.149   4.317   3.511
 2640SOL     OW 8662   0.820   4.284   2.209
 2640SOL    HW1 8663   0.820   4.209   2.150
 2640SOL    HW2 8664   0.731   4.319   2.203
 2641SOL     OW 8665   1.637   4.318   3.049
 2641SOL    HW1 8666   1.632   4.260   3.125
 2641SOL    HW2 8667   1.725   4.304   3.014
 2642SOL     OW 8668   0.675   4.187   3.120
 2642SOL    HW1 8669   0.638   4.105   3.086
 2642SOL    HW2 8670   0.684   4.243   3.043
 2643SOL     OW 8671   0.486   4.223   2.050
 2643SOL    HW1 8672   0.516   4.309   2.079
 2643SOL    HW2 8673   0.392   4.235   2.034
 2644SOL     OW 8674   1.720   3.869   2.374
 2644SOL    HW1 8675   1.792   3.854   2.312
 2644SOL    HW2 8676   1.704   3.783   2.413
 2645SOL     OW 8677   1.279   0.137   2.541
 2645SOL    HW1 8678   1.337   0.061   2.551
 2645SOL    HW2 8679   1.330   0.199   2.489
 2646SOL     OW 8680   1.840   3.896   2.829
 2646SOL    HW1 8681   1.868   3.809   2.801
 2646SOL    HW2 8682   1.753   3.908   2.789
 2647SOL     OW 8683   0.268   4.041   2.583
 2647SOL    HW1 8684   0.190   4.089   2.554
 2647SOL    HW2 8685   0.255   4.029   2.677
 2648SOL     OW 8686   0.906   0.092   2.081
 2648SOL    HW1 8687   0.988   0.131   2.050
 2648SOL    HW2 8688   0.928   0.053   2.165
 2649SOL     OW 8689   1.066   0.299   2.604
 2649SOL    HW1 8690   0.989   0.286   2.549
 2649SOL    HW2 8691   1.130   0.235   2.572
 2650SOL     OW 8692   1.020   3.964   2.827
 2650SOL    HW1 8693   1.015   3.915   2.745
 2650SOL    HW2 8694   1.015   3.896   2.895
 2651SOL     OW 8695   1.721   4.114   3.242
 2651SOL    HW1 8696   1.792   4.178   3.240
 2651SOL    HW2 8697   1.751   4.043   3.185
 2652SOL     OW 8698   0.674   3.923   3.361
 2652SOL    HW1 8699   0.757   3.901   3.320
 2652SOL    HW2 8700   0.697   3.952   3.449
 2653SOL     OW 8701   0.067   4.045   1.897
 2653SOL    HW1 8702   4.474   4.064   1.889
 2653SOL    HW2 8703   0.110   4.130   1.885
 2654SOL     OW 8704   0.086   3.902   2.167
 2654SOL    HW1 8705   0.076   3.969   2.101
 2654SOL    HW2 8706   0.161   3.850   2.138
 2655SOL     OW 8707   0.726   4.283   3.562
 2655SOL    HW1 8708   0.729   4.332   3.644
 2655SOL    HW2 8709   0.749   4.193   3.586
 2656SOL     OW 8710   1.219   4.043   2.316
 2656SOL    HW1 8711   1.281   3.970   2.308
 2656SOL    HW2 8712   1.247   4.090   2.394
 2657SOL     OW 8713   1.760   4.090   3.510
 2657SOL    HW1 8714   1.743   4.100   3.417
 2657SOL    HW2 8715   1.691   4.031   3.541
 2658SOL     OW 8716   1.111   0.227   1.965
 2658SOL    HW1 8717   1.096   0.270   1.880
 2658SOL    HW2 8718   1.195   0.183   1.955
 2659SOL     OW 8719   1.814   3.908   3.100
 2659SOL    HW1 8720   1.823   3.814   3.114
 2659SOL    HW2 8721   1.822   3.919   3.005
 2660SOL     OW 8722   0.451   4.154   2.397
 2660SOL    HW1 8723   0.464   4.080   2.338
 2660SOL    HW2 8724   0.392   4.120   2.465
 2661SOL     OW 8725   0.322   4.260   3.139
 2661SOL    HW1 8726   0.375   4.193   3.182
 2661SOL    HW2 8727   0.333   4.243   3.045
 2662SOL     OW 8728   1.432   3.948   2.980
 2662SOL    HW1 8729   1.457   3.869   3.026
 2662SOL    HW2 8730   1.380   3.998   3.043
 2663SOL     OW 8731   1.009   3.743   3.005
 2663SOL    HW1 8732   0.954   3.675   2.966
 2663SOL    HW2 8733   1.096   3.705   3.007
 2664SOL     OW 8734   1.352   3.777   2.026
 2664SOL    HW1 8735   1.379   3.714   1.960
 2664SOL    HW2 8736   1.265   3.748   2.053
 2665SOL     OW 8737   1.299   4.175   2.543
 2665SOL    HW1 8738   1.261   4.262   2.557
 2665SOL    HW2 8739   1.299   4.134   2.630
 2666SOL     OW 8740   1.587   3.927   2.739
 2666SOL    HW1 8741   1.526   3.948   2.810
 2666SOL    HW2 8742   1.587   4.005   2.684
 2667SOL     OW 8743   0.230   4.281   3.834
 2667SOL    HW1 8744   0.164   4.314   3.895
 2667SOL    HW2 8745   0.214   4.329   3.753
 2668SOL     OW 8746   0.209   3.996   4.715
 2668SOL    HW1 8747   0.245   3.968   4.800
 2668SOL    HW2 8748   0.134   3.939   4.702
 2669SOL     OW 8749   4.500   4.100   4.355
 2669SOL    HW1 8750   4.419   4.130   4.396
 2669SOL    HW2 8751   4.476   4.017   4.313
 2670SOL     OW 8752   1.730   4.335   3.962
 2670SOL    HW1 8753   1.730   4.323   3.867
 2670SOL    HW2 8754   1.732   4.246   3.998
 2671SOL     OW 8755   0.729   0.269   4.408
 2671SOL    HW1 8756   0.718   0.207   4.480
 2671SOL    HW2 8757   0.639   0.288   4.379
 2672SOL     OW 8758   0.445   4.120   5.212
 2672SOL    HW1 8759   0.526   4.069   5.214
 2672SOL    HW2 8760   0.375   4.054   5.222
 2673SOL     OW 8761   1.615   4.172   4.463
 2673SOL    HW1 8762   1.546   4.198   4.402
 2673SOL    HW2 8763   1.616   4.242   4.529
 2674SOL     OW 8764   1.596   3.847   5.193
 2674SOL    HW1 8765   1.600   3.927   5.140
 2674SOL    HW2 8766   1.582   3.877   5.282
 2675SOL     OW 8767   0.163   4.323   4.358
 2675SOL    HW1 8768   0.104   4.250   4.341
 2675SOL    HW2 8769   0.118   4.400   4.325
 2676SOL     OW 8770   0.121   0.002   5.313
 2676SOL    HW1 8771   0.215   4.485   5.312
 2676SOL    HW2 8772   0.112   0.088   5.271
 2677SOL     OW 8773   0.816   3.724   4.232
 2677SOL    HW1 8774   0.855   3.809   4.214
 2677SOL    HW2 8775   0.722   3.742   4.241
 2678SOL     OW 8776   0.330   3.979   5.523
 2678SOL    HW1 8777   0.374   4.058   5.554
 2678SOL    HW2 8778   0.240   3.987   5.557
 2679SOL     OW 8779   1.277   4.072   4.656
 2679SOL    HW1 8780   1.188   4.039   4.667
 2679SOL    HW2 8781   1.329   4.021   4.718
 2680SOL     OW 8782   0.827   4.305   5.172
 2680SOL    HW1 8783   0.787   4.310   5.258
 2680SOL    HW2 8784   0.759   4.266   5.116
 2681SOL     OW 8785   1.395   4.199   5.400
 2681SOL    HW1 8786   1.397   4.244   5.485
 2681SOL    HW2 8787   1.454   4.125   5.411
 2682SOL     OW 8788   0.998   4.150   4.957
 2682SOL    HW1 8789   0.925   4.171   5.017
 2682SOL    HW2 8790   0.959   4.091   4.893
 2683SOL     OW 8791   1.056   4.410   4.141
 2683SOL    HW1 8792   1.054   4.450   4.228
 2683SOL    HW2 8793   0.969   4.372   4.130
 2684SOL     OW 8794   0.055   0.063   4.576
 2684SOL    HW1 8795   0.142   0.026   4.581
 2684SOL    HW2 8796   0.048   0.098   4.486
 2685SOL     OW 8797   0.890   4.064   3.914
 2685SOL    HW1 8798   0.932   4.126   3.855
 2685SOL    HW2 8799   0.908   3.978   3.875
 2686SOL     OW 8800   1.707   4.299   5.553
 2686SOL    HW1 8801   1.721   4.387   5.519
 2686SOL    HW2 8802   1.730   4.241   5.480
 2687SOL     OW 8803   0.552   3.905   4.617
 2687SOL    HW1 8804   0.554   3.936   4.707
 2687SOL    HW2 8805   0.547   3.985   4.565
 2688SOL     OW 8806   1.490   4.465   4.462
 2688SOL    HW1 8807   1.472   4.410   4.539
 2688SOL    HW2 8808   1.530   0.044   4.498
 2689SOL     OW 8809   0.189   4.000   5.209
 2689SOL    HW1 8810   0.139   4.081   5.218
 2689SOL    HW2 8811   0.183   3.959   5.296
 2690SOL     OW 8812   1.401   3.831   4.156
 2690SOL    HW1 8813   1.391   3.806   4.064
 2690SOL    HW2 8814   1.495   3.839   4.168
 2691SOL     OW 8815   0.349   4.379   4.128
 2691SOL    HW1 8816   0.394   4.305   4.170
 2691SOL    HW2 8817   0.299   4.419   4.199
 2692SOL     OW 8818   1.535   3.950   5.449
 2692SOL    HW1 8819   1.544   3.971   5.542
 2692SOL    HW2 8820   1.467   3.883   5.446
 2693SOL     OW 8821   0.635   3.849   3.827
 2693SOL    HW1 8822   0.702   3.783   3.843
 2693SOL    HW2 8823   0.586   3.816   3.751
 2694SOL     OW 8824   0.766   4.002   5.479
 2694SOL    HW1 8825   0.842   3.944   5.479
 2694SOL    HW2 8826   0.717   3.978   5.557
 2695SOL     OW 8827   1.343   4.312   5.153
 2695SOL    HW1 8828   1.365   4.275   5.238
 2695SOL    HW2 8829   1.385   4.398   5.152
 2696SOL     OW 8830   0.923   4.236   4.622
 2696SOL    HW1 8831   0.901   4.220   4.531
 2696SOL    HW2 8832   0.962   4.154   4.652
 2697SOL     OW 8833   0.552   3.786   4.226
 2697SOL    HW1 8834   0.471   3.784   4.277
 2697SOL    HW2 8835   0.544   3.865   4.171
 2698SOL     OW 8836   0.294   3.770   3.902
 2698SOL    HW1 8837   0.355   3.837   3.873
 2698SOL    HW2 8838   0.348   3.705   3.946
 2699SOL     OW 8839   0.937   3.972   4.186
 2699SOL    HW1 8840   0.911   4.010   4.102
 2699SOL    HW2 8841   1.032   3.984   4.189
 2700SOL     OW 8842   1.075   4.396   5.246
 2700SOL    HW1 8843   0.992   4.366   5.209
 2700SOL    HW2 8844   1.142   4.357   5.189
 2701SOL     OW 8845   1.025   4.267   3.750
 2701SOL    HW1 8846   1.008   4.354   3.716
 2701SOL    HW2 8847   1.088   4.280   3.820
 2702SOL     OW 8848   0.086   4.257   5.134
 2702SOL    HW1 8849   0.159   4.270   5.074
 2702SOL    HW2 8850   0.051   4.345   5.150
 2703SOL     OW 8851   0.560   3.951   4.889
 2703SOL    HW1 8852   0.601   3.871   4.924
 2703SOL    HW2 8853   0.469   3.946   4.918
 2704SOL     OW 8854   0.870   4.190   4.361
 2704SOL    HW1 8855   0.834   4.248   4.295
 2704SOL    HW2 8856   0.888   4.108   4.314
 2705SOL     OW 8857   1.014   3.778   4.476
 2705SOL    HW1 8858   0.956   3.769   4.400
 2705SOL    HW2 8859   0.994   3.701   4.530
 2706SOL     OW 8860   1.477   4.312   4.690
 2706SOL    HW1 8861   1.418   4.239   4.709
 2706SOL    HW2 8862   1.528   4.324   4.770
 2707SOL     OW 8863   1.402   4.296   3.797
 2707SOL    HW1 8864   1.340   4.268   3.864
 2707SOL    HW2 8865   1.485   4.255   3.822
 2708SOL     OW 8866   0.523   3.985   4.040
 2708SOL    HW1 8867   0.568   3.937   3.970
 2708SOL    HW2 8868   0.510   4.073   4.004
 2709SOL     OW 8869   0.917   3.822   5.120
 2709SOL    HW1 8870   0.941   3.801   5.030
 2709SOL    HW2 8871   0.997   3.861   5.158
 2710SOL     OW 8872   0.442   0.004   4.986
 2710SOL    HW1 8873   0.498   0.002   5.063
 2710SOL    HW2 8874   0.404   4.416   4.982
 2711SOL     OW 8875   1.266   4.100   4.999
 2711SOL    HW1 8876   1.299   4.177   5.044
 2711SOL    HW2 8877   1.176   4.124   4.973
 2712SOL     OW 8878   0.556   4.253   4.588
 2712SOL    HW1 8879   0.575   4.294   4.504
 2712SOL    HW2 8880   0.621   4.290   4.648
 2713SOL     OW 8881   1.569   4.338   4.202
 2713SOL    HW1 8882   1.542   4.405   4.265
 2713SOL    HW2 8883   1.629   4.385   4.143
 2714SOL     OW 8884   0.996   3.847   5.479
 2714SOL    HW1 8885   1.052   3.919   5.452
 2714SOL    HW2 8886   1.044   3.768   5.454
 2715SOL     OW 8887   0.497   3.767   5.471
 2715SOL    HW1 8888   0.456   3.710   5.406
 2715SOL    HW2 8889   0.437   3.841   5.480
 2716SOL     OW 8890   1.210   4.254   3.988
 2716SOL    HW1 8891   1.220   4.175   4.040
 2716SOL    HW2 8892   1.161   4.314   4.044
 2717SOL     OW 8893   0.299   3.923   4.968
 2717SOL    HW1 8894   0.259   3.951   5.051
 2717SOL    HW2 8895   0.287   3.828   4.966
 2718SOL     OW 8896   0.733   4.360   4.770
 2718SOL    HW1 8897   0.806   4.323   4.720
 2718SOL    HW2 8898   0.741   4.454   4.757
 2719SOL     OW 8899   1.751   0.133   5.578
 2719SOL    HW1 8900   1.687   0.148   5.510
 2719SOL    HW2 8901   1.707   0.160   5.659
 2720SOL     OW 8902   0.310   3.793   4.342
 2720SOL    HW1 8903   0.286   3.882   4.369
 2720SOL    HW2 8904   0.307   3.742   4.423
 2721SOL     OW 8905   1.614   4.091   4.093
 2721SOL    HW1 8906   1.643   4.030   4.161
 2721SOL    HW2 8907   1.590   4.170   4.140
 2722SOL     OW 8908   1.527   3.999   3.851
 2722SOL    HW1 8909   1.464   3.932   3.877
 2722SOL    HW2 8910   1.562   4.032   3.933
 2723SOL     OW 8911   0.319   0.016   4.640
 2723SOL    HW1 8912   0.401   0.066   4.647
 2723SOL    HW2 8913   0.334   4.438   4.694
 2724SOL     OW 8914   0.334   4.237   4.735
 2724SOL    HW1 8915   0.290   4.155   4.711
 2724SOL    HW2 8916   0.409   4.242   4.676
 2725SOL     OW 8917   1.137   4.094   5.409
 2725SOL    HW1 8918   1.085   4.153   5.464
 2725SOL    HW2 8919   1.222   4.138   5.401
 2726SOL     OW 8920   1.160   3.927   5.193
 2726SOL    HW1 8921   1.151   3.988   5.266
 2726SOL    HW2 8922   1.200   3.978   5.123
 2727SOL     OW 8923   0.024   4.279   4.831
 2727SOL    HW1 8924   0.110   4.259   4.792
 2727SOL    HW2 8925   0.027   4.238   4.917
 2728SOL     OW 8926   0.176   4.236   5.417
 2728SOL    HW1 8927   0.263   4.218   5.383
 2728SOL    HW2 8928   0.149   4.316   5.373
 2729SOL     OW 8929   0.819   4.284   4.071
 2729SOL    HW1 8930   0.820   4.209   4.012
 2729SOL    HW2 8931   0.731   4.319   4.065
 2730SOL     OW 8932   1.637   4.318   4.911
 2730SOL    HW1 8933   1.632   4.260   4.987
 2730SOL    HW2 8934   1.725   4.304   4.876
 2731SOL     OW 8935   0.675   4.187   4.982
 2731SOL    HW1 8936   0.638   4.105   4.948
 2731SOL    HW2 8937   0.684   4.243   4.905
 2732SOL     OW 8938   0.486   4.223   3.912
 2732SOL    HW1 8939   0.516   4.309   3.941
 2732SOL    HW2 8940   0.392   4.235   3.896
 2733SOL     OW 8941   1.720   3.869   4.236
 2733SOL    HW1 8942   1.792   3.854   4.174
 2733SOL    HW2 8943   1.704   3.783   4.274
 2734SOL     OW 8944   1.280   0.137   4.403
 2734SOL    HW1 8945   1.337   0.061   4.414
 2734SOL    HW2 8946   1.330   0.198   4.350
 2735SOL     OW 8947   1.839   3.896   4.691
 2735SOL    HW1 8948   1.868   3.810   4.663
 2735SOL    HW2 8949   1.753   3.908   4.651
 2736SOL     OW 8950   0.268   4.041   4.445
 2736SOL    HW1 8951   0.190   4.089   4.415
 2736SOL    HW2 8952   0.255   4.029   4.539
 2737SOL     OW 8953   0.906   0.092   3.943
 2737SOL    HW1 8954   0.988   0.131   3.912
 2737SOL    HW2 8955   0.929   0.052   4.027
 2738SOL     OW 8956   1.066   0.299   4.466
 2738SOL    HW1 8957   0.989   0.286   4.411
 2738SOL    HW2 8958   1.130   0.236   4.434
 2739SOL     OW 8959   1.020   3.964   4.689
 2739SOL    HW1 8960   1.015   3.916   4.607
 2739SOL    HW2 8961   1.015   3.896   4.757
 2740SOL     OW 8962   1.721   4.114   5.104
 2740SOL    HW1 8963   1.792   4.178   5.102
 2740SOL    HW2 8964   1.751   4.043   5.048
 2741SOL     OW 8965   0.674   3.922   5.223
 2741SOL    HW1 8966   0.757   3.901   5.181
 2741SOL    HW2 8967   0.697   3.952   5.311
 2742SOL     OW 8968   0.067   4.045   3.759
 2742SOL    HW1 8969   4.474   4.064   3.751
 2742SOL    HW2 8970   0.110   4.130   3.747
 2743SOL     OW 8971   0.087   3.902   4.030
 2743SOL    HW1 8972   0.076   3.969   3.963
 2743SOL    HW2 8973   0.161   3.850   4.000
 2744SOL     OW 8974   0.726   4.283   5.424
 2744SOL    HW1 8975   0.729   4.332   5.506
 2744SOL    HW2 8976   0.749   4.193   5.448
 2745SOL     OW 8977   1.218   4.043   4.178
 2745SOL    HW1 8978   1.281   3.970   4.170
 2745SOL    HW2 8979   1.247   4.090   4.256
 2746SOL     OW 8980   1.760   4.090   5.373
 2746SOL    HW1 8981   1.744   4.101   5.279
 2746SOL    HW2 8982   1.691   4.031   5.403
 2747SOL     OW 8983   1.111   0.227   3.827
 2747SOL    HW1 8984   1.096   0.270   3.742
 2747SOL    HW2 8985   1.195   0.183   3.817
 2748SOL     OW 8986   1.814   3.908   4.962
 2748SOL    HW1 8987   1.822   3.814   4.976
 2748SOL    HW2 8988   1.822   3.919   4.867
 2749SOL     OW 8989   0.451   4.154   4.260
 2749SOL    HW1 8990   0.464   4.080   4.200
 2749SOL    HW2 8991   0.392   4.120   4.327
 2750SOL     OW 8992   0.322   4.260   5.001
 2750SOL    HW1 8993   0.375   4.193   5.044
 2750SOL    HW2 8994   0.333   4.243   4.907
 2751SOL     OW 8995   1.432   3.949   4.841
 2751SOL    HW1 8996   1.457   3.868   4.887
 2751SOL    HW2 8997   1.380   3.997   4.905
 2752SOL     OW 8998   1.009   3.743   4.868
 2752SOL    HW1 8999   0.954   3.675   4.827
 2752SOL    HW2 9000   1.097   3.705   4.869
 2753SOL     OW 9001   1.352   3.777   3.888
 2753SOL    HW1 9002   1.380   3.714   3.822
 2753SOL    HW2 9003   1.265   3.748   3.915
 2754SOL     OW 9004   1.299   4.175   4.405
 2754SOL    HW1 9005   1.261   4.262   4.420
 2754SOL    HW2 9006   1.299   4.134   4.492
 2755SOL     OW 9007   1.587   3.927   4.601
 2755SOL    HW1 9008   1.526   3.948   4.672
 2755SOL    HW2 9009   1.587   4.006   4.546
 2756SOL     OW 9010   0.230   4.281   5.696
 2756SOL    HW1 9011   0.164   4.314   5.757
 2756SOL    HW2 9012   0.214   4.329   5.615
 2757SOL     OW 9013   0.209   3.995   6.577
 2757SOL    HW1 9014   0.245   3.968   6.662
 2757SOL    HW2 9015   0.134   3.939   6.564
 2758SOL     OW 9016   4.500   4.100   6.217
 2758SOL    HW1 9017   4.419   4.130   6.258
 2758SOL    HW2 9018   4.476   4.017   6.175
 2759SOL     OW 9019   1.730   4.335   5.824
 2759SOL    HW1 9020   1.730   4.323   5.729
 2759SOL    HW2 9021   1.732   4.246   5.859
 2760SOL     OW 9022   0.729   0.269   6.270
 2760SOL    HW1 9023   0.718   0.208   6.343
 2760SOL    HW2 9024   0.640   0.288   6.241
 2761SOL     OW 9025   0.445   4.120   7.074
 2761SOL    HW1 9026   0.526   4.069   7.077
 2761SOL    HW2 9027   0.375   4.054   7.084
 2762SOL     OW 9028   1.615   4.172   6.326
 2762SOL    HW1 9029   1.546   4.197   6.265
 2762SOL    HW2 9030   1.616   4.242   6.391
 2763SOL     OW 9031   1.596   3.847   7.055
 2763SOL    HW1 9032   1.600   3.927   7.003
 2763SOL    HW2 9033   1.582   3.876   7.145
 2764SOL     OW 9034   0.163   4.323   6.220
 2764SOL    HW1 9035   0.104   4.250   6.202
 2764SOL    HW2 9036   0.118   4.400   6.187
 2765SOL     OW 9037   0.121   0.002   7.175
 2765SOL    HW1 9038   0.215   4.485   7.174
 2765SOL    HW2 9039   0.112   0.088   7.133
 2766SOL     OW 9040   0.816   3.724   6.094
 2766SOL    HW1 9041   0.855   3.809   6.076
 2766SOL    HW2 9042   0.722   3.742   6.103
 2767SOL     OW 9043   0.329   3.979   7.384
 2767SOL    HW1 9044   0.374   4.058   7.416
 2767SOL    HW2 9045   0.240   3.987   7.419
 2768SOL     OW 9046   1.277   4.072   6.518
 2768SOL    HW1 9047   1.188   4.039   6.529
 2768SOL    HW2 9048   1.329   4.020   6.580
 2769SOL     OW 9049   0.827   4.305   7.033
 2769SOL    HW1 9050   0.788   4.310   7.120
 2769SOL    HW2 9051   0.759   4.266   6.978
 2770SOL     OW 9052   1.395   4.199   7.262
 2770SOL    HW1 9053   1.397   4.244   7.347
 2770SOL    HW2 9054   1.454   4.124   7.273
 2771SOL     OW 9055   0.998   4.150   6.819
 2771SOL    HW1 9056   0.926   4.171   6.879
 2771SOL    HW2 9057   0.959   4.091   6.755
 2772SOL     OW 9058   1.057   4.410   6.004
 2772SOL    HW1 9059   1.054   4.450   6.090
 2772SOL    HW2 9060   0.969   4.372   5.992
 2773SOL     OW 9061   0.054   0.063   6.437
 2773SOL    HW1 9062   0.142   0.026   6.443
 2773SOL    HW2 9063   0.049   0.098   6.349
 2774SOL     OW 9064   0.891   4.064   5.777
 2774SOL    HW1 9065   0.932   4.126   5.717
 2774SOL    HW2 9066   0.907   3.978   5.737
 2775SOL     OW 9067   1.707   4.298   7.415
 2775SOL    HW1 9068   1.720   4.387   7.381
 2775SOL    HW2 9069   1.730   4.241   7.342
 2776SOL     OW 9070   0.552   3.905   6.479
 2776SOL    HW1 9071   0.554   3.935   6.569
 2776SOL    HW2 9072   0.547   3.985   6.427
 2777SOL     OW 9073   1.490   4.465   6.324
 2777SOL    HW1 9074   1.473   4.410   6.400
 2777SOL    HW2 9075   1.530   0.044   6.360
 2778SOL     OW 9076   0.189   4.000   7.071
 2778SOL    HW1 9077   0.139   4.081   7.080
 2778SOL    HW2 9078   0.183   3.959   7.158
 2779SOL     OW 9079   1.401   3.830   6.018
 2779SOL    HW1 9080   1.391   3.806   5.926
 2779SOL    HW2 9081   1.495   3.841   6.030
 2780SOL     OW 9082   0.349   4.379   5.990
 2780SOL    HW1 9083   0.394   4.305   6.032
 2780SOL    HW2 9084   0.299   4.419   6.061
 2781SOL     OW 9085   1.535   3.950   7.311
 2781SOL    HW1 9086   1.544   3.971   7.404
 2781SOL    HW2 9087   1.467   3.883   7.308
 2782SOL     OW 9088   0.635   3.849   5.688
 2782SOL    HW1 9089   0.702   3.783   5.705
 2782SOL    HW2 9090   0.586   3.816   5.613
 2783SOL     OW 9091   0.766   4.002   7.340
 2783SOL    HW1 9092   0.842   3.944   7.341
 2783SOL    HW2 9093   0.717   3.978   7.419
 2784SOL     OW 9094   1.343   4.311   7.015
 2784SOL    HW1 9095   1.365   4.275   7.101
 2784SOL    HW2 9096   1.385   4.398   7.014
 2785SOL     OW 9097   0.923   4.236   6.484
 2785SOL    HW1 9098   0.901   4.220   6.393
 2785SOL    HW2 9099   0.962   4.154   6.514
 2786SOL     OW 9100   0.552   3.786   6.088
 2786SOL    HW1 9101   0.471   3.784   6.139
 2786SOL    HW2 9102   0.544   3.865   6.033
 2787SOL     OW 9103   0.294   3.770   5.764
 2787SOL    HW1 9104   0.355   3.837   5.735
 2787SOL    HW2 9105   0.348   3.705   5.808
 2788SOL     OW 9106   0.937   3.972   6.048
 2788SOL    HW1 9107   0.911   4.010   5.964
 2788SOL    HW2 9108   1.032   3.984   6.051
 2789SOL     OW 9109   1.075   4.396   7.107
 2789SOL    HW1 9110   0.992   4.366   7.070
 2789SOL    HW2 9111   1.142   4.356   7.051
 2790SOL     OW 9112   1.025   4.267   5.612
 2790SOL    HW1 9113   1.008   4.354   5.578
 2790SOL    HW2 9114   1.088   4.280   5.682
 2791SOL     OW 9115   0.085   4.257   6.996
 2791SOL    HW1 9116   0.159   4.270   6.936
 2791SOL    HW2 9117   0.052   4.345   7.012
 2792SOL     OW 9118   0.560   3.951   6.751
 2792SOL    HW1 9119   0.600   3.871   6.786
 2792SOL    HW2 9120   0.469   3.946   6.780
 2793SOL     OW 9121   0.870   4.190   6.223
 2793SOL    HW1 9122   0.834   4.248   6.157
 2793SOL    HW2 9123   0.888   4.108   6.176
 2794SOL     OW 9124   1.015   3.777   6.337
 2794SOL    HW1 9125   0.956   3.769   6.262
 2794SOL    HW2 9126   0.994   3.701   6.392
 2795SOL     OW 9127   1.477   4.311   6.551
 2795SOL    HW1 9128   1.418   4.239   6.571
 2795SOL    HW2 9129   1.528   4.324   6.632
 2796SOL     OW 9130   1.402   4.296   5.659
 2796SOL    HW1 9131   1.340   4.269   5.726
 2796SOL    HW2 9132   1.485   4.256   5.684
 2797SOL     OW 9133   0.523   3.985   5.902
 2797SOL    HW1 9134   0.568   3.937   5.832
 2797SOL    HW2 9135   0.510   4.073   5.866
 2798SOL     OW 9136   0.917   3.822   6.982
 2798SOL    HW1 9137   0.941   3.801   6.892
 2798SOL    HW2 9138   0.997   3.860   7.020
 2799SOL     OW 9139   0.442   0.004   6.848
 2799SOL    HW1 9140   0.498   0.002   6.925
 2799SOL    HW2 9141   0.404   4.416   6.844
 2800SOL     OW 9142   1.266   4.100   6.860
 2800SOL    HW1 9143   1.299   4.177   6.905
 2800SOL    HW2 9144   1.176   4.124   6.835
 2801SOL     OW 9145   0.556   4.253   6.450
 2801SOL    HW1 9146   0.574   4.295   6.366
 2801SOL    HW2 9147   0.621   4.289   6.510
 2802SOL     OW 9148   1.569   4.338   6.064
 2802SOL    HW1 9149   1.542   4.405   6.127
 2802SOL    HW2 9150   1.629   4.385   6.005
 2803SOL     OW 9151   0.996   3.847   7.341
 2803SOL    HW1 9152   1.052   3.919   7.314
 2803SOL    HW2 9153   1.044   3.768   7.316
 2804SOL     OW 9154   0.497   3.767   7.333
 2804SOL    HW1 9155   0.456   3.710   7.268
 2804SOL    HW2 9156   0.437   3.841   7.342
 2805SOL     OW 9157   1.210   4.254   5.850
 2805SOL    HW1 9158   1.220   4.175   5.902
 2805SOL    HW2 9159   1.161   4.314   5.906
 2806SOL     OW 9160   0.299   3.923   6.830
 2806SOL    HW1 9161   0.259   3.951   6.913
 2806SOL    HW2 9162   0.287   3.828   6.828
 2807SOL     OW 9163   0.733   4.360   6.632
 2807SOL    HW1 9164   0.806   4.323   6.582
 2807SOL    HW2 9165   0.741   4.454   6.619
 2808SOL     OW 9166   1.751   0.133   7.440
 2808SOL    HW1 9167   1.686   0.148   7.372
 2808SOL    HW2 9168   1.707   0.159   7.521
 2809SOL     OW 9169   0.310   3.793   6.204
 2809SOL    HW1 9170   0.286   3.882   6.231
 2809SOL    HW2 9171   0.307   3.742   6.285
 2810SOL     OW 9172   1.613   4.091   5.955
 2810SOL    HW1 9173   1.643   4.030   6.023
 2810SOL    HW2 9174   1.590   4.171   6.002
 2811SOL     OW 9175   1.527   3.999   5.713
 2811SOL    HW1 9176   1.464   3.932   5.739
 2811SOL    HW2 9177   1.562   4.032   5.795
 2812SOL     OW 9178   0.319   0.016   6.501
 2812SOL    HW1 9179   0.401   0.066   6.509
 2812SOL    HW2 9180   0.333   4.439   6.556
 2813SOL     OW 9181   0.334   4.237   6.597
 2813SOL    HW1 9182   0.290   4.155   6.574
 2813SOL    HW2 9183   0.409   4.242   6.538
 2814SOL     OW 9184   1.137   4.094   7.271
 2814SOL    HW1 9185   1.085   4.152   7.326
 2814SOL    HW2 9186   1.222   4.138   7.263
 2815SOL     OW 9187   1.160   3.927   7.055
 2815SOL    HW1 9188   1.151   3.988   7.128
 2815SOL    HW2 9189   1.200   3.979   6.985
 2816SOL     OW 9190   0.024   4.278   6.692
 2816SOL    HW1 9191   0.110   4.259   6.655
 2816SOL    HW2 9192   0.027   4.238   6.779
 2817SOL     OW 9193   0.176   4.236   7.279
 2817SOL    HW1 9194   0.263   4.218   7.246
 2817SOL    HW2 9195   0.149   4.316   7.235
 2818SOL     OW 9196   0.819   4.284   5.933
 2818SOL    HW1 9197   0.820   4.209   5.874
 2818SOL    HW2 9198   0.730   4.319   5.927
 2819SOL     OW 9199   1.637   4.318   6.773
 2819SOL    HW1 9200   1.632   4.260   6.849
 2819SOL    HW2 9201   1.725   4.304   6.738
 2820SOL     OW 9202   0.675   4.187   6.844
 2820SOL    HW1 9203   0.638   4.105   6.810
 2820SOL    HW2 9204   0.684   4.243   6.767
 2821SOL     OW 9205   0.486   4.223   5.774
 2821SOL    HW1 9206   0.516   4.309   5.803
 2821SOL    HW2 9207   0.392   4.235   5.757
 2822SOL     OW 9208   1.720   3.869   6.098
 2822SOL    HW1 9209   1.792   3.854   6.036
 2822SOL    HW2 9210   1.704   3.782   6.137
 2823SOL     OW 9211   1.279   0.137   6.265
 2823SOL    HW1 9212   1.337   0.061   6.275
 2823SOL    HW2 9213   1.330   0.199   6.213
 2824SOL     OW 9214   1.840   3.895   6.553
 2824SOL    HW1 9215   1.868   3.808   6.524
 2824SOL    HW2 9216   1.754   3.907   6.513
 2825SOL     OW 9217   0.268   4.041   6.307
 2825SOL    HW1 9218   0.190   4.089   6.277
 2825SOL    HW2 9219   0.255   4.029   6.401
 2826SOL     OW 9220   0.906   0.092   5.805
 2826SOL    HW1 9221   0.988   0.131   5.774
 2826SOL    HW2 9222   0.928   0.053   5.889
 2827SOL     OW 9223   1.066   0.299   6.328
 2827SOL    HW1 9224   0.989   0.286   6.273
 2827SOL    HW2 9225   1.130   0.235   6.296
 2828SOL     OW 9226   1.020   3.964   6.551
 2828SOL    HW1 9227   1.015   3.915   6.468
 2828SOL    HW2 9228   1.015   3.897   6.619
 2829SOL     OW 9229   1.721   4.114   6.966
 2829SOL    HW1 9230   1.792   4.178   6.964
 2829SOL    HW2 9231   1.751   4.043   6.909
 2830SOL     OW 9232   0.674   3.922   7.085
 2830SOL    HW1 9233   0.757   3.901   7.044
 2830SOL    HW2 9234   0.697   3.951   7.173
 2831SOL     OW 9235   0.067   4.045   5.621
 2831SOL    HW1 9236   4.474   4.064   5.613
 2831SOL    HW2 9237   0.110   4.130   5.609
 2832SOL     OW 9238   0.087   3.902   5.892
 2832SOL    HW1 9239   0.076   3.969   5.825
 2832SOL    HW2 9240   0.161   3.850   5.862
 2833SOL     OW 9241   0.726   4.283   7.286
 2833SOL    HW1 9242   0.729   4.332   7.368
 2833SOL    HW2 9243   0.749   4.193   7.310
 2834SOL     OW 9244   1.219   4.042   6.040
 2834SOL    HW1 9245   1.281   3.970   6.032
 2834SOL    HW2 9246   1.247   4.090   6.118
 2835SOL     OW 9247   1.760   4.090   7.234
 2835SOL    HW1 9248   1.743   4.100   7.141
 2835SOL    HW2 9249   1.691   4.031   7.265
 2836SOL     OW 9250   1.111   0.228   5.689
 2836SOL    HW1 9251   1.096   0.269   5.604
 2836SOL    HW2 9252   1.195   0.183   5.679
 2837SOL     OW 9253   1.814   3.908   6.824
 2837SOL    HW1 9254   1.822   3.814   6.838
 2837SOL    HW2 9255   1.822   3.919   6.729
 2838SOL     OW 9256   0.451   4.154   6.122
 2838SOL    HW1 9257   0.464   4.080   6.062
 2838SOL    HW2 9258   0.392   4.120   6.189
 2839SOL     OW 9259   0.322   4.260   6.863
 2839SOL    HW1 9260   0.375   4.193   6.906
 2839SOL    HW2 9261   0.333   4.243   6.769
 2840SOL     OW 9262   1.432   3.948   6.704
 2840SOL    HW1 9263   1.458   3.869   6.752
 2840SOL    HW2 9264   1.380   3.998   6.767
 2841SOL     OW 9265   1.009   3.743   6.729
 2841SOL    HW1 9266   0.954   3.675   6.690
 2841SOL    HW2 9267   1.096   3.705   6.731
 2842SOL     OW 9268   1.352   3.777   5.751
 2842SOL    HW1 9269   1.379   3.715   5.683
 2842SOL    HW2 9270   1.265   3.747   5.778
 2843SOL     OW 9271   1.299   4.175   6.267
 2843SOL    HW1 9272   1.261   4.262   6.281
 2843SOL    HW2 9273   1.299   4.134   6.354
 2844SOL     OW 9274   1.586   3.927   6.464
 2844SOL    HW1 9275   1.526   3.948   6.535
 2844SOL    HW2 9276   1.587   4.005   6.408
 2845SOL     OW 9277   0.230   4.281   7.558
 2845SOL    HW1 9278   0.164   4.314   7.619
 2845SOL    HW2 9279   0.213   4.329   7.477
 2846SOL     OW 9280   0.209   3.995   8.439
 2846SOL    HW1 9281   0.245   3.968   8.524
 2846SOL    HW2 9282   0.134   3.939   8.426
 2847SOL     OW 9283   4.500   4.100   8.079
 2847SOL    HW1 9284   4.419   4.130   8.120
 2847SOL    HW2 9285   4.476   4.017   8.037
 2848SOL     OW 9286   1.730   4.335   7.686
 2848SOL    HW1 9287   1.731   4.322   7.591
 2848SOL    HW2 9288   1.732   4.246   7.722
 2849SOL     OW 9289   0.729   0.269   8.132
 2849SOL    HW1 9290   0.718   0.208   8.205
 2849SOL    HW2 9291   0.639   0.289   8.104
 2850SOL     OW 9292   0.445   4.120   8.936
 2850SOL    HW1 9293   0.526   4.069   8.939
 2850SOL    HW2 9294   0.375   4.054   8.946
 2851SOL     OW 9295   1.615   4.172   8.188
 2851SOL    HW1 9296   1.546   4.197   8.127
 2851SOL    HW2 9297   1.616   4.242   8.253
 2852SOL     OW 9298   1.597   3.847   8.917
 2852SOL    HW1 9299   1.600   3.927   8.865
 2852SOL    HW2 9300   1.582   3.877   9.007
 2853SOL     OW 9301   0.163   4.323   8.082
 2853SOL    HW1 9302   0.104   4.250   8.065
 2853SOL    HW2 9303   0.118   4.400   8.049
 2854SOL     OW 9304   0.121   0.002   9.036
 2854SOL    HW1 9305   0.216   4.485   9.036
 2854SOL    HW2 9306   0.112   0.088   8.995
 2855SOL     OW 9307   0.815   3.724   7.956
 2855SOL    HW1 9308   0.855   3.809   7.938
 2855SOL    HW2 9309   0.722   3.742   7.965
 2856SOL     OW 9310   0.329   3.979   9.246
 2856SOL    HW1 9311   0.374   4.058   9.278
 2856SOL    HW2 9312   0.240   3.987   9.281
 2857SOL     OW 9313   1.277   4.072   8.380
 2857SOL    HW1 9314   1.188   4.039   8.391
 2857SOL    HW2 9315   1.329   4.020   8.442
 2858SOL     OW 9316   0.827   4.305   8.896
 2858SOL    HW1 9317   0.788   4.310   8.982
 2858SOL    HW2 9318   0.759   4.266   8.840
 2859SOL     OW 9319   1.395   4.199   9.124
 2859SOL    HW1 9320   1.397   4.244   9.209
 2859SOL    HW2 9321   1.454   4.124   9.135
 2860SOL     OW 9322   0.998   4.150   8.681
 2860SOL    HW1 9323   0.926   4.171   8.741
 2860SOL    HW2 9324   0.959   4.090   8.617
 2861SOL     OW 9325   1.057   4.410   7.866
 2861SOL    HW1 9326   1.054   4.450   7.952
 2861SOL    HW2 9327   0.970   4.372   7.854
 2862SOL     OW 9328   0.054   0.062   8.299
 2862SOL    HW1 9329   0.142   0.026   8.305
 2862SOL    HW2 9330   0.049   0.098   8.211
 2863SOL     OW 9331   0.890   4.064   7.638
 2863SOL    HW1 9332   0.932   4.126   7.579
 2863SOL    HW2 9333   0.908   3.978   7.599
 2864SOL     OW 9334   1.707   4.298   9.277
 2864SOL    HW1 9335   1.720   4.387   9.243
 2864SOL    HW2 9336   1.730   4.241   9.204
 2865SOL     OW 9337   0.552   3.905   8.341
 2865SOL    HW1 9338   0.554   3.935   8.431
 2865SOL    HW2 9339   0.547   3.986   8.289
 2866SOL     OW 9340   1.490   4.465   8.186
 2866SOL    HW1 9341   1.473   4.410   8.262
 2866SOL    HW2 9342   1.530   0.044   8.222
 2867SOL     OW 9343   0.189   4.000   8.933
 2867SOL    HW1 9344   0.139   4.081   8.942
 2867SOL    HW2 9345   0.183   3.959   9.020
 2868SOL     OW 9346   1.401   3.831   7.880
 2868SOL    HW1 9347   1.391   3.806   7.788
 2868SOL    HW2 9348   1.495   3.840   7.892
 2869SOL     OW 9349   0.349   4.379   7.852
 2869SOL    HW1 9350   0.394   4.305   7.894
 2869SOL    HW2 9351   0.299   4.419   7.923
 2870SOL     OW 9352   1.535   3.950   9.173
 2870SOL    HW1 9353   1.544   3.971   9.266
 2870SOL    HW2 9354   1.467   3.883   9.170
 2871SOL     OW 9355   0.635   3.849   7.550
 2871SOL    HW1 9356   0.702   3.783   7.567
 2871SOL    HW2 9357   0.586   3.816   7.475
 2872SOL     OW 9358   0.766   4.002   9.202
 2872SOL    HW1 9359   0.842   3.944   9.203
 2872SOL    HW2 9360   0.717   3.978   9.281
 2873SOL     OW 9361   1.343   4.312   8.877
 2873SOL    HW1 9362   1.365   4.275   8.963
 2873SOL    HW2 9363   1.385   4.398   8.877
 2874SOL     OW 9364   0.923   4.236   8.346
 2874SOL    HW1 9365   0.901   4.220   8.255
 2874SOL    HW2 9366   0.962   4.154   8.376
 2875SOL     OW 9367   0.552   3.786   7.950
 2875SOL    HW1 9368   0.471   3.784   8.001
 2875SOL    HW2 9369   0.543   3.865   7.895
 2876SOL     OW 9370   0.294   3.770   7.626
 2876SOL    HW1 9371   0.356   3.837   7.598
 2876SOL    HW2 9372   0.348   3.705   7.670
 2877SOL     OW 9373   0.937   3.972   7.910
 2877SOL    HW1 9374   0.911   4.010   7.826
 2877SOL    HW2 9375   1.032   3.984   7.913
 2878SOL     OW 9376   1.075   4.396   8.969
 2878SOL    HW1 9377   0.992   4.366   8.932
 2878SOL    HW2 9378   1.142   4.356   8.913
 2879SOL     OW 9379   1.025   4.267   7.474
 2879SOL    HW1 9380   1.008   4.354   7.440
 2879SOL    HW2 9381   1.088   4.280   7.545
 2880SOL     OW 9382   0.085   4.257   8.857
 2880SOL    HW1 9383   0.159   4.270   8.798
 2880SOL    HW2 9384   0.052   4.345   8.874
 2881SOL     OW 9385   0.560   3.951   8.613
 2881SOL    HW1 9386   0.601   3.871   8.648
 2881SOL    HW2 9387   0.469   3.946   8.642
 2882SOL     OW 9388   0.870   4.190   8.085
 2882SOL    HW1 9389   0.834   4.248   8.019
 2882SOL    HW2 9390   0.888   4.108   8.038
 2883SOL     OW 9391   1.014   3.777   8.200
 2883SOL    HW1 9392   0.956   3.769   8.124
 2883SOL    HW2 9393   0.994   3.702   8.254
 2884SOL     OW 9394   1.478   4.311   8.413
 2884SOL    HW1 9395   1.418   4.239   8.433
 2884SOL    HW2 9396   1.528   4.324   8.494
 2885SOL     OW 9397   1.402   4.296   7.521
 2885SOL    HW1 9398   1.340   4.269   7.588
 2885SOL    HW2 9399   1.485   4.255   7.547
 2886SOL     OW 9400   0.523   3.985   7.764
 2886SOL    HW1 9401   0.568   3.937   7.694
 2886SOL    HW2 9402   0.510   4.073   7.728
 2887SOL     OW 9403   0.917   3.823   8.844
 2887SOL    HW1 9404   0.941   3.801   8.754
 2887SOL    HW2 9405   0.997   3.860   8.882
 2888SOL     OW 9406   0.442   0.004   8.710
 2888SOL    HW1 9407   0.498   0.002   8.787
 2888SOL    HW2 9408   0.404   4.416   8.706
 2889SOL     OW 9409   1.266   4.100   8.722
 2889SOL    HW1 9410   1.299   4.177   8.768
 2889SOL    HW2 9411   1.176   4.124   8.697
 2890SOL     OW 9412   0.556   4.253   8.312
 2890SOL    HW1 9413   0.575   4.295   8.228
 2890SOL    HW2 9414   0.621   4.289   8.372
 2891SOL     OW 9415   1.569   4.339   7.925
 2891SOL    HW1 9416   1.542   4.405   7.989
 2891SOL    HW2 9417   1.629   4.385   7.867
 2892SOL     OW 9418   0.996   3.847   9.203
 2892SOL    HW1 9419   1.052   3.919   9.176
 2892SOL    HW2 9420   1.044   3.768   9.178
 2893SOL     OW 9421   0.497   3.767   9.195
 2893SOL    HW1 9422   0.456   3.710   9.130
 2893SOL    HW2 9423   0.437   3.841   9.204
 2894SOL     OW 9424   1.210   4.254   7.712
 2894SOL    HW1 9425   1.220   4.175   7.764
 2894SOL    HW2 9426   1.161   4.314   7.768
 2895SOL     OW 9427   0.299   3.923   8.692
 2895SOL    HW1 9428   0.259   3.951   8.775
 2895SOL    HW2 9429   0.287   3.828   8.690
 2896SOL     OW 9430   0.733   4.360   8.494
 2896SOL    HW1 9431   0.806   4.323   8.444
 2896SOL    HW2 9432   0.741   4.454   8.481
 2897SOL     OW 9433   1.751   0.133   9.302
 2897SOL    HW1 9434   1.686   0.148   9.234
 2897SOL    HW2 9435   1.707   0.159   9.383
 2898SOL     OW 9436   0.310   3.793   8.066
 2898SOL    HW1 9437   0.286   3.882   8.093
 2898SOL    HW2 9438   0.307   3.742   8.147
 2899SOL     OW 9439   1.614   4.091   7.816
 2899SOL    HW1 9440   1.643   4.030   7.885
 2899SOL    HW2 9441   1.590   4.171   7.864
 2900SOL     OW 9442   1.527   3.999   7.575
 2900SOL    HW1 9443   1.464   3.932   7.601
 2900SOL    HW2 9444   1.562   4.032   7.657
 2901SOL     OW 9445   0.319   0.016   8.363
 2901SOL    HW1 9446   0.400   0.066   8.371
 2901SOL    HW2 9447   0.333   4.439   8.418
 2902SOL     OW 9448   0.334   4.237   8.459
 2902SOL    HW1 9449   0.290   4.155   8.436
 2902SOL    HW2 9450   0.409   4.242   8.400
 2903SOL     OW 9451   1.137   4.094   9.133
 2903SOL    HW1 9452   1.085   4.153   9.188
 2903SOL    HW2 9453   1.222   4.138   9.125
 2904SOL     OW 9454   1.160   3.927   8.917
 2904SOL    HW1 9455   1.151   3.988   8.990
 2904SOL    HW2 9456   1.200   3.979   8.847
 2905SOL     OW 9457   0.024   4.278   8.554
 2905SOL    HW1 9458   0.110   4.259   8.517
 2905SOL    HW2 9459   0.027   4.239   8.641
 2906SOL     OW 9460   0.176   4.236   9.141
 2906SOL    HW1 9461   0.263   4.218   9.108
 2906SOL    HW2 9462   0.149   4.317   9.097
 2907SOL     OW 9463   0.820   4.284   7.795
 2907SOL    HW1 9464   0.820   4.209   7.736
 2907SOL    HW2 9465   0.730   4.319   7.789
 2908SOL     OW 9466   1.637   4.318   8.635
 2908SOL    HW1 9467   1.632   4.260   8.711
 2908SOL    HW2 9468   1.725   4.304   8.600
 2909SOL     OW 9469   0.675   4.187   8.706
 2909SOL    HW1 9470   0.638   4.105   8.672
 2909SOL    HW2 9471   0.684   4.243   8.629
 2910SOL     OW 9472   0.486   4.223   7.636
 2910SOL    HW1 9473   0.516   4.309   7.665
 2910SOL    HW2 9474   0.392   4.235   7.619
 2911SOL     OW 9475   1.720   3.869   7.960
 2911SOL    HW1 9476   1.792   3.854   7.898
 2911SOL    HW2 9477   1.704   3.783   7.999
 2912SOL     OW 9478   1.279   0.137   8.127
 2912SOL    HW1 9479   1.337   0.061   8.137
 2912SOL    HW2 9480   1.330   0.199   8.075
 2913SOL     OW 9481   1.839   3.896   8.415
 2913SOL    HW1 9482   1.868   3.809   8.387
 2913SOL    HW2 9483   1.753   3.908   8.375
 2914SOL     OW 9484   0.268   4.041   8.169
 2914SOL    HW1 9485   0.190   4.089   8.140
 2914SOL    HW2 9486   0.255   4.029   8.263
 2915SOL     OW 9487   0.906   0.092   7.667
 2915SOL    HW1 9488   0.988   0.131   7.636
 2915SOL    HW2 9489   0.928   0.053   7.751
 2916SOL     OW 9490   1.066   0.299   8.190
 2916SOL    HW1 9491   0.989   0.286   8.135
 2916SOL    HW2 9492   1.130   0.235   8.158
 2917SOL     OW 9493   1.020   3.964   8.413
 2917SOL    HW1 9494   1.015   3.915   8.331
 2917SOL    HW2 9495   1.015   3.896   8.481
 2918SOL     OW 9496   1.721   4.114   8.828
 2918SOL    HW1 9497   1.792   4.178   8.826
 2918SOL    HW2 9498   1.751   4.043   8.771
 2919SOL     OW 9499   0.674   3.922   8.947
 2919SOL    HW1 9500   0.757   3.901   8.906
 2919SOL    HW2 9501   0.697   3.952   9.035
 2920SOL     OW 9502   0.067   4.045   7.483
 2920SOL    HW1 9503   4.474   4.064   7.475
 2920SOL    HW2 9504   0.110   4.130   7.471
 2921SOL     OW 9505   0.086   3.902   7.753
 2921SOL    HW1 9506   0.076   3.969   7.687
 2921SOL    HW2 9507   0.161   3.850   7.724
 2922SOL     OW 9508   0.726   4.283   9.148
 2922SOL    HW1 9509   0.729   4.332   9.230
 2922SOL    HW2 9510   0.749   4.193   9.172
 2923SOL     OW 9511   1.219   4.043   7.902
 2923SOL    HW1 9512   1.281   3.970   7.894
 2923SOL    HW2 9513   1.247   4.090   7.980
 2924SOL     OW 9514   1.760   4.090   9.096
 2924SOL    HW1 9515   1.743   4.100   9.003
 2924SOL    HW2 9516   1.691   4.031   9.127
 2925SOL     OW 9517   1.111   0.227   7.551
 2925SOL    HW1 9518   1.096   0.269   7.466
 2925SOL    HW2 9519   1.195   0.183   7.541
 2926SOL     OW 9520   1.814   3.908   8.686
 2926SOL    HW1 9521   1.823   3.814   8.700
 2926SOL    HW2 9522   1.822   3.919   8.591
 2927SOL     OW 9523   0.451   4.154   7.983
 2927SOL    HW1 9524   0.464   4.080   7.924
 2927SOL    HW2 9525   0.392   4.120   8.051
 2928SOL     OW 9526   0.322   4.260   8.725
 2928SOL    HW1 9527   0.375   4.193   8.768
 2928SOL    HW2 9528   0.333   4.243   8.631
 2929SOL     OW 9529   1.432   3.948   8.566
 2929SOL    HW1 9530   1.457   3.868   8.612
 2929SOL    HW2 9531   1.380   3.998   8.629
 2930SOL     OW 9532   1.009   3.743   8.591
 2930SOL    HW1 9533   0.954   3.675   8.552
 2930SOL    HW2 9534   1.097   3.705   8.593
 2931SOL     OW 9535   1.352   3.777   7.612
 2931SOL    HW1 9536   1.380   3.714   7.546
 2931SOL    HW2 9537   1.265   3.748   7.639
 2932SOL     OW 9538   1.299   4.175   8.129
 2932SOL    HW1 9539   1.261   4.262   8.144
 2932SOL    HW2 9540   1.299   4.134   8.216
 2933SOL     OW 9541   1.587   3.927   8.325
 2933SOL    HW1 9542   1.526   3.948   8.396
 2933SOL    HW2 9543   1.587   4.005   8.270
 2934SOL     OW 9544   0.230   4.281   9.420
 2934SOL    HW1 9545   0.164   4.314   9.481
 2934SOL    HW2 9546   0.213   4.329   9.339
 2935SOL     OW 9547   0.211   3.995  10.300
 2935SOL    HW1 9548   0.246   3.970  10.386
 2935SOL    HW2 9549   0.134   3.940  10.289
 2936SOL     OW 9550   4.500   4.100   9.941
 2936SOL    HW1 9551   4.419   4.130   9.982
 2936SOL    HW2 9552   4.476   4.017   9.899
 2937SOL     OW 9553   1.731   4.335   9.548
 2937SOL    HW1 9554   1.731   4.322   9.453
 2937SOL    HW2 9555   1.732   4.246   9.584
 2938SOL     OW 9556   0.729   0.269   9.994
 2938SOL    HW1 9557   0.719   0.208  10.067
 2938SOL    HW2 9558   0.639   0.289   9.966
 2939SOL     OW 9559   0.447   4.123  10.790
 2939SOL    HW1 9560   0.526   4.069  10.798
 2939SOL    HW2 9561   0.375   4.065  10.815
 2940SOL     OW 9562   1.615   4.172  10.050
 2940SOL    HW1 9563   1.546   4.198   9.989
 2940SOL    HW2 9564   1.616   4.242  10.115
 2941SOL     OW 9565   1.589   3.840  10.778
 2941SOL    HW1 9566   1.603   3.921  10.728
 2941SOL    HW2 9567   1.590   3.868  10.870
 2942SOL     OW 9568   0.164   4.322   9.944
 2942SOL    HW1 9569   0.104   4.250   9.926
 2942SOL    HW2 9570   0.118   4.400   9.911
 2943SOL     OW 9571   0.101   4.490  10.935
 2943SOL    HW1 9572   0.195   4.476  10.944
 2943SOL    HW2 9573   0.093   0.074  10.890
 2944SOL     OW 9574   0.815   3.724   9.818
 2944SOL    HW1 9575   0.855   3.809   9.800
 2944SOL    HW2 9576   0.722   3.742   9.828
 2945SOL     OW 9577   0.340   3.985   0.008
 2945SOL    HW1 9578   0.384   4.065   0.036
 2945SOL    HW2 9579   0.247   4.005   0.015
 2946SOL     OW 9580   1.277   4.073  10.243
 2946SOL    HW1 9581   1.188   4.039  10.252
 2946SOL    HW2 9582   1.329   4.020  10.304
 2947SOL     OW 9583   0.825   4.300  10.763
 2947SOL    HW1 9584   0.779   4.313  10.846
 2947SOL    HW2 9585   0.759   4.263  10.704
 2948SOL     OW 9586   0.997   4.149  10.545
 2948SOL    HW1 9587   0.923   4.171  10.601
 2948SOL    HW2 9588   0.960   4.092  10.478
 2949SOL     OW 9589   1.057   4.410   9.728
 2949SOL    HW1 9590   1.054   4.450   9.814
 2949SOL    HW2 9591   0.970   4.372   9.716
 2950SOL     OW 9592   0.054   0.062  10.161
 2950SOL    HW1 9593   0.142   0.025  10.168
 2950SOL    HW2 9594   0.050   0.100  10.073
 2951SOL     OW 9595   0.890   4.064   9.500
 2951SOL    HW1 9596   0.932   4.126   9.441
 2951SOL    HW2 9597   0.908   3.978   9.461
 2952SOL     OW 9598   0.552   3.905  10.203
 2952SOL    HW1 9599   0.554   3.935  10.294
 2952SOL    HW2 9600   0.549   3.986  10.151
 2953SOL     OW 9601   1.490   4.465  10.048
 2953SOL    HW1 9602   1.472   4.410  10.124
 2953SOL    HW2 9603   1.530   0.044  10.084
 2954SOL     OW 9604   0.191   4.001  10.797
 2954SOL    HW1 9605   0.142   4.083  10.804
 2954SOL    HW2 9606   0.184   3.961  10.883
 2955SOL     OW 9607   1.401   3.830   9.742
 2955SOL    HW1 9608   1.391   3.806   9.650
 2955SOL    HW2 9609   1.495   3.840   9.754
 2956SOL     OW 9610   0.349   4.379   9.714
 2956SOL    HW1 9611   0.394   4.305   9.755
 2956SOL    HW2 9612   0.299   4.419   9.785
 2957SOL     OW 9613   0.635   3.849   9.412
 2957SOL    HW1 9614   0.702   3.783   9.429
 2957SOL    HW2 9615   0.586   3.816   9.337
 2958SOL     OW 9616   0.770   4.001  11.045
 2958SOL    HW1 9617   0.835   3.941  11.083
 2958SOL    HW2 9618   0.707   4.015   0.016
 2959SOL     OW 9619   1.352   4.308  10.743
 2959SOL    HW1 9620   1.372   4.289  10.835
 2959SOL    HW2 9621   1.376   4.400  10.732
 2960SOL     OW 9622   0.924   4.236  10.208
 2960SOL    HW1 9623   0.901   4.220  10.116
 2960SOL    HW2 9624   0.962   4.154  10.238
 2961SOL     OW 9625   0.552   3.786   9.812
 2961SOL    HW1 9626   0.471   3.784   9.863
 2961SOL    HW2 9627   0.544   3.865   9.757
 2962SOL     OW 9628   0.294   3.770   9.488
 2962SOL    HW1 9629   0.356   3.837   9.460
 2962SOL    HW2 9630   0.348   3.705   9.532
 2963SOL     OW 9631   0.937   3.972   9.772
 2963SOL    HW1 9632   0.911   4.010   9.688
 2963SOL    HW2 9633   1.032   3.984   9.775
 2964SOL     OW 9634   1.079   4.381  10.823
 2964SOL    HW1 9635   0.992   4.363  10.787
 2964SOL    HW2 9636   1.139   4.345  10.757
 2965SOL     OW 9637   1.025   4.267   9.336
 2965SOL    HW1 9638   1.008   4.354   9.302
 2965SOL    HW2 9639   1.088   4.280   9.407
 2966SOL     OW 9640   0.084   4.254  10.722
 2966SOL    HW1 9641   0.156   4.262  10.660
 2966SOL    HW2 9642   0.052   4.344  10.733
 2967SOL     OW 9643   0.560   3.950  10.475
 2967SOL    HW1 9644   0.600   3.872  10.511
 2967SOL    HW2 9645   0.468   3.946  10.503
 2968SOL     OW 9646   0.871   4.190   9.947
 2968SOL    HW1 9647   0.834   4.248   9.881
 2968SOL    HW2 9648   0.888   4.108   9.900
 2969SOL     OW 9649   1.014   3.777  10.062
 2969SOL    HW1 9650   0.956   3.769   9.986
 2969SOL    HW2 9651   0.993   3.701  10.116
 2970SOL     OW 9652   1.477   4.311  10.275
 2970SOL    HW1 9653   1.418   4.238  10.295
 2970SOL    HW2 9654   1.528   4.323  10.355
 2971SOL     OW 9655   1.402   4.296   9.383
 2971SOL    HW1 9656   1.340   4.269   9.450
 2971SOL    HW2 9657   1.485   4.255   9.409
 2972SOL     OW 9658   0.523   3.985   9.626
 2972SOL    HW1 9659   0.568   3.937   9.556
 2972SOL    HW2 9660   0.510   4.073   9.590
 2973SOL     OW 9661   0.918   3.823  10.706
 2973SOL    HW1 9662   0.942   3.802  10.615
 2973SOL    HW2 9663   0.996   3.863  10.743
 2974SOL     OW 9664   0.446   4.498  10.559
 2974SOL    HW1 9665   0.498   0.006  10.638
 2974SOL    HW2 9666   0.393   4.419  10.572
 2975SOL     OW 9667   1.266   4.099  10.586
 2975SOL    HW1 9668   1.302   4.176  10.630
 2975SOL    HW2 9669   1.178   4.125  10.560
 2976SOL     OW 9670   0.560   4.249  10.171
 2976SOL    HW1 9671   0.577   4.296  10.089
 2976SOL    HW2 9672   0.622   4.288  10.234
 2977SOL     OW 9673   1.569   4.339   9.787
 2977SOL    HW1 9674   1.542   4.404   9.851
 2977SOL    HW2 9675   1.629   4.385   9.729
 2978SOL     OW 9676   0.491   0.001  11.001
 2978SOL    HW1 9677   0.480   0.050  10.919
 2978SOL    HW2 9678   0.490   4.409  10.974
 2979SOL     OW 9679   1.210   4.254   9.574
 2979SOL    HW1 9680   1.220   4.175   9.626
 2979SOL    HW2 9681   1.161   4.314   9.630
 2980SOL     OW 9682   0.299   3.921  10.553
 2980SOL    HW1 9683   0.262   3.951  10.636
 2980SOL    HW2 9684   0.285   3.826  10.554
 2981SOL     OW 9685   0.733   4.359  10.355
 2981SOL    HW1 9686   0.806   4.324  10.305
 2981SOL    HW2 9687   0.740   4.454  10.344
 2982SOL     OW 9688   0.310   3.793   9.928
 2982SOL    HW1 9689   0.286   3.882   9.955
 2982SOL    HW2 9690   0.307   3.742  10.009
 2983SOL     OW 9691   1.614   4.091   9.678
 2983SOL    HW1 9692   1.643   4.030   9.746
 2983SOL    HW2 9693   1.590   4.171   9.726
 2984SOL     OW 9694   1.527   3.999   9.437
 2984SOL    HW1 9695   1.464   3.932   9.463
 2984SOL    HW2 9696   1.562   4.032   9.519
 2985SOL     OW 9697   0.319   0.016  10.225
 2985SOL    HW1 9698   0.400   0.066  10.235
 2985SOL    HW2 9699   0.332   4.438  10.279
 2986SOL     OW 9700   0.334   4.238  10.311
 2986SOL    HW1 9701   0.291   4.156  10.290
 2986SOL    HW2 9702   0.410   4.241  10.253
 2987SOL     OW 9703   1.157   3.932  10.782
 2987SOL    HW1 9704   1.165   3.991  10.856
 2987SOL    HW2 9705   1.198   3.979  10.709
 2988SOL     OW 9706   0.023   4.275  10.413
 2988SOL    HW1 9707   0.111   4.262  10.378
 2988SOL    HW2 9708   0.028   4.241  10.503
 2989SOL     OW 9709   1.347   0.192  10.987
 2989SOL    HW1 9710   1.416   0.255  11.007
 2989SOL    HW2 9711   1.372   0.155  10.903
 2990SOL     OW 9712   0.820   4.284   9.657
 2990SOL    HW1 9713   0.820   4.209   9.598
 2990SOL    HW2 9714   0.731   4.319   9.651
 2991SOL     OW 9715   1.637   4.318  10.496
 2991SOL    HW1 9716   1.633   4.259  10.572
 2991SOL    HW2 9717   1.725   4.306  10.461
 2992SOL     OW 9718   0.682   4.184  10.566
 2992SOL    HW1 9719   0.639   4.105  10.533
 2992SOL    HW2 9720   0.684   4.243  10.491
 2993SOL     OW 9721   0.486   4.223   9.498
 2993SOL    HW1 9722   0.516   4.309   9.527
 2993SOL    HW2 9723   0.392   4.235   9.481
 2994SOL     OW 9724   1.720   3.869   9.821
 2994SOL    HW1 9725   1.792   3.854   9.760
 2994SOL    HW2 9726   1.704   3.783   9.861
 2995SOL     OW 9727   1.279   0.137   9.989
 2995SOL    HW1 9728   1.337   0.061  10.000
 2995SOL    HW2 9729   1.330   0.199   9.937
 2996SOL     OW 9730   1.840   3.897  10.277
 2996SOL    HW1 9731   1.868   3.810  10.250
 2996SOL    HW2 9732   1.753   3.908  10.237
 2997SOL     OW 9733   0.268   4.041  10.030
 2997SOL    HW1 9734   0.191   4.089  10.002
 2997SOL    HW2 9735   0.255   4.028  10.124
 2998SOL     OW 9736   0.906   0.092   9.529
 2998SOL    HW1 9737   0.988   0.131   9.498
 2998SOL    HW2 9738   0.928   0.053   9.613
 2999SOL     OW 9739   1.066   0.300  10.051
 2999SOL    HW1 9740   0.989   0.285   9.997
 2999SOL    HW2 9741   1.130   0.235  10.020
 3000SOL     OW 9742   1.020   3.964  10.275
 3000SOL    HW1 9743   1.015   3.916  10.193
 3000SOL    HW2 9744   1.015   3.896  10.343
 3001SOL     OW 9745   1.717   4.116  10.690
 3001SOL    HW1 9746   1.789   4.179  10.692
 3001SOL    HW2 9747   1.748   4.046  10.633
 3002SOL     OW 9748   0.674   3.920  10.803
 3002SOL    HW1 9749   0.755   3.898  10.758
 3002SOL    HW2 9750   0.701   3.956  10.888
 3003SOL     OW 9751   0.067   4.045   9.345
 3003SOL    HW1 9752   4.474   4.064   9.337
 3003SOL    HW2 9753   0.110   4.130   9.333
 3004SOL     OW 9754   0.086   3.901   9.615
 3004SOL    HW1 9755   0.076   3.969   9.549
 3004SOL    HW2 9756   0.161   3.850   9.586
 3005SOL     OW 9757   0.721   4.290  11.021
 3005SOL    HW1 9758   0.755   4.344  11.092
 3005SOL    HW2 9759   0.766   4.206  11.030
 3006SOL     OW 9760   1.219   4.042   9.764
 3006SOL    HW1 9761   1.281   3.970   9.756
 3006SOL    HW2 9762   1.247   4.090   9.842
 3007SOL     OW 9763   1.753   4.051  10.956
 3007SOL    HW1 9764   1.732   4.081  10.867
 3007SOL    HW2 9765   1.671   4.057  11.004
 3008SOL     OW 9766   1.111   0.227   9.413
 3008SOL    HW1 9767   1.096   0.269   9.328
 3008SOL    HW2 9768   1.195   0.183   9.403
 3009SOL     OW 9769   1.809   3.908  10.548
 3009SOL    HW1 9770   1.822   3.814  10.562
 3009SOL    HW2 9771   1.820   3.920  10.454
 3010SOL     OW 9772   0.450   4.154   9.845
 3010SOL    HW1 9773   0.464   4.079   9.786
 3010SOL    HW2 9774   0.392   4.121   9.913
 3011SOL     OW 9775   0.313   4.241  10.575
 3011SOL    HW1 9776   0.372   4.179  10.618
 3011SOL    HW2 9777   0.333   4.232  10.481
 3012SOL     OW 9778   1.431   3.948  10.427
 3012SOL    HW1 9779   1.460   3.869  10.474
 3012SOL    HW2 9780   1.380   3.997  10.492
 3013SOL     OW 9781   1.008   3.743  10.454
 3013SOL    HW1 9782   0.954   3.676  10.413
 3013SOL    HW2 9783   1.096   3.706  10.455
 3014SOL     OW 9784   1.352   3.777   9.474
 3014SOL    HW1 9785   1.380   3.714   9.408
 3014SOL    HW2 9786   1.265   3.748   9.501
 3015SOL     OW 9787   1.299   4.175   9.991
 3015SOL    HW1 9788   1.261   4.262  10.005
 3015SOL    HW2 9789   1.299   4.135  10.078
 3016SOL     OW 9790   1.586   3.927  10.187
 3016SOL    HW1 9791   1.526   3.948  10.258
 3016SOL    HW2 9792   1.587   4.005  10.132
 3017SOL     OW 9793   2.086   0.612   0.117
 3017SOL    HW1 9794   2.001   0.620   0.160
 3017SOL    HW2 9795   2.071   0.642   0.027
 3018SOL     OW 9796   2.070   0.298   0.989
 3018SOL    HW1 9797   2.101   0.270   1.075
 3018SOL    HW2 9798   1.988   0.250   0.976
 3019SOL     OW 9799   1.869   0.385   0.638
 3019SOL    HW1 9800   1.783   0.405   0.675
 3019SOL    HW2 9801   1.853   0.310   0.581
 3020SOL     OW 9802   2.429   1.286   1.174
 3020SOL    HW1 9803   2.341   1.289   1.136
 3020SOL    HW2 9804   2.444   1.375   1.208
 3021SOL     OW 9805   3.422   1.512   0.707
 3021SOL    HW1 9806   3.379   1.491   0.790
 3021SOL    HW2 9807   3.351   1.515   0.643
 3022SOL     OW 9808   2.996   0.699   0.699
 3022SOL    HW1 9809   3.043   0.782   0.689
 3022SOL    HW2 9810   2.946   0.709   0.779
 3023SOL     OW 9811   3.639   0.602   0.217
 3023SOL    HW1 9812   3.583   0.606   0.139
 3023SOL    HW2 9813   3.599   0.533   0.270
 3024SOL     OW 9814   2.619   1.143   1.041
 3024SOL    HW1 9815   2.549   1.177   1.097
 3024SOL    HW2 9816   2.653   1.220   0.996
 3025SOL     OW 9817   2.727   0.776   1.822
 3025SOL    HW1 9818   2.714   0.847   1.885
 3025SOL    HW2 9819   2.751   0.820   1.740
 3026SOL     OW 9820   2.549   1.004   0.647
 3026SOL    HW1 9821   2.613   0.991   0.716
 3026SOL    HW2 9822   2.479   1.055   0.688
 3027SOL     OW 9823   2.572   1.151   1.811
 3027SOL    HW1 9824   2.619   1.230   1.838
 3027SOL    HW2 9825   2.489   1.183   1.777
 3028SOL     OW 9826   2.193   1.425   1.069
 3028SOL    HW1 9827   2.119   1.390   1.019
 3028SOL    HW2 9828   2.242   1.476   1.004
 3029SOL     OW 9829   3.323   1.499   1.354
 3029SOL    HW1 9830   3.372   1.580   1.363
 3029SOL    HW2 9831   3.262   1.498   1.427
 3030SOL     OW 9832   2.304   0.395   1.489
 3030SOL    HW1 9833   2.386   0.346   1.491
 3030SOL    HW2 9834   2.236   0.329   1.503
 3031SOL     OW 9835   3.473   0.447   0.738
 3031SOL    HW1 9836   3.391   0.467   0.693
 3031SOL    HW2 9837   3.491   0.524   0.791
 3032SOL     OW 9838   2.081   1.719   0.473
 3032SOL    HW1 9839   2.124   1.756   0.551
 3032SOL    HW2 9840   2.153   1.707   0.411
 3033SOL     OW 9841   2.998   1.341   1.692
 3033SOL    HW1 9842   3.038   1.337   1.779
 3033SOL    HW2 9843   2.946   1.262   1.686
 3034SOL     OW 9844   2.086   1.443   0.534
 3034SOL    HW1 9845   2.063   1.535   0.543
 3034SOL    HW2 9846   2.029   1.398   0.597
 3035SOL     OW 9847   2.119   1.090   0.891
 3035SOL    HW1 9848   2.115   1.004   0.932
 3035SOL    HW2 9849   2.061   1.145   0.944
 3036SOL     OW 9850   2.473   1.791   1.428
 3036SOL    HW1 9851   2.391   1.773   1.474
 3036SOL    HW2 9852   2.496   1.881   1.452
 3037SOL     OW 9853   2.446   0.987   0.141
 3037SOL    HW1 9854   2.485   1.043   0.074
 3037SOL    HW2 9855   2.489   1.014   0.222
 3038SOL     OW 9856   3.445   0.115   1.472
 3038SOL    HW1 9857   3.465   0.183   1.408
 3038SOL    HW2 9858   3.434   0.162   1.555
 3039SOL     OW 9859   1.977   0.652   0.559
 3039SOL    HW1 9860   1.948   0.564   0.582
 3039SOL    HW2 9861   1.969   0.701   0.641
 3040SOL     OW 9862   3.704   1.759   0.334
 3040SOL    HW1 9863   3.767   1.729   0.400
 3040SOL    HW2 9864   3.730   1.850   0.316
 3041SOL     OW 9865   1.896   1.601   0.120
 3041SOL    HW1 9866   1.878   1.509   0.139
 3041SOL    HW2 9867   1.870   1.647   0.199
 3042SOL     OW 9868   3.552   0.919   0.641
 3042SOL    HW1 9869   3.636   0.879   0.621
 3042SOL    HW2 9870   3.530   0.970   0.563
 3043SOL     OW 9871   3.508   1.105   0.431
 3043SOL    HW1 9872   3.591   1.117   0.384
 3043SOL    HW2 9873   3.513   1.167   0.504
 3044SOL     OW 9874   1.984   0.745   1.585
 3044SOL    HW1 9875   2.076   0.770   1.594
 3044SOL    HW2 9876   1.935   0.826   1.592
 3045SOL     OW 9877   2.477   1.385   0.735
 3045SOL    HW1 9878   2.430   1.302   0.745
 3045SOL    HW2 9879   2.459   1.412   0.644
 3046SOL     OW 9880   3.151   1.239   1.423
 3046SOL    HW1 9881   3.183   1.171   1.363
 3046SOL    HW2 9882   3.208   1.231   1.500
 3047SOL     OW 9883   2.680   0.011   0.552
 3047SOL    HW1 9884   2.718   0.088   0.510
 3047SOL    HW2 9885   2.585   0.024   0.545
 3048SOL     OW 9886   2.052   0.966   1.272
 3048SOL    HW1 9887   2.137   0.924   1.256
 3048SOL    HW2 9888   1.989   0.913   1.224
 3049SOL     OW 9889   3.380   1.000   0.203
 3049SOL    HW1 9890   3.315   0.939   0.238
 3049SOL    HW2 9891   3.429   1.030   0.279
 3050SOL     OW 9892   3.049   1.805   1.621
 3050SOL    HW1 9893   3.061   1.862   1.545
 3050SOL    HW2 9894   3.063   1.717   1.587
 3051SOL     OW 9895   2.177   0.254   1.780
 3051SOL    HW1 9896   2.241   0.318   1.813
 3051SOL    HW2 9897   2.103   0.260   1.841
 3052SOL     OW 9898   3.328   1.419   0.952
 3052SOL    HW1 9899   3.260   1.434   1.017
 3052SOL    HW2 9900   3.316   1.329   0.925
 3053SOL     OW 9901   3.520   1.739   0.579
 3053SOL    HW1 9902   3.501   1.710   0.490
 3053SOL    HW2 9903   3.495   1.664   0.634
 3054SOL     OW 9904   2.454   0.719   0.263
 3054SOL    HW1 9905   2.463   0.802   0.215
 3054SOL    HW2 9906   2.391   0.738   0.332
 3055SOL     OW 9907   3.151   0.361   0.934
 3055SOL    HW1 9908   3.060   0.330   0.924
 3055SOL    HW2 9909   3.190   0.299   0.995
 3056SOL     OW 9910   3.444   1.670   0.312
 3056SOL    HW1 9911   3.534   1.701   0.305
 3056SOL    HW2 9912   3.418   1.652   0.222
 3057SOL     OW 9913   2.657   0.619   1.454
 3057SOL    HW1 9914   2.629   0.594   1.542
 3057SOL    HW2 9915   2.617   0.554   1.397
 3058SOL     OW 9916   3.251   0.479   1.676
 3058SOL    HW1 9917   3.254   0.523   1.761
 3058SOL    HW2 9918   3.317   0.410   1.682
 3059SOL     OW 9919   2.818   0.888   1.582
 3059SOL    HW1 9920   2.871   0.817   1.547
 3059SOL    HW2 9921   2.770   0.921   1.506
 3060SOL     OW 9922   2.858   0.417   1.237
 3060SOL    HW1 9923   2.771   0.428   1.275
 3060SOL    HW2 9924   2.842   0.367   1.156
 3061SOL     OW 9925   2.911   0.701   0.428
 3061SOL    HW1 9926   2.929   0.692   0.521
 3061SOL    HW2 9927   2.829   0.653   0.414
 3062SOL     OW 9928   1.951   0.821   0.775
 3062SOL    HW1 9929   2.032   0.814   0.827
 3062SOL    HW2 9930   1.907   0.898   0.810
 3063SOL     OW 9931   1.980   1.805   1.575
 3063SOL    HW1 9932   1.974   1.801   1.670
 3063SOL    HW2 9933   1.912   1.866   1.548
 3064SOL     OW 9934   2.736   0.360   0.197
 3064SOL    HW1 9935   2.793   0.415   0.142
 3064SOL    HW2 9936   2.772   0.272   0.189
 3065SOL     OW 9937   3.567   0.574   1.828
 3065SOL    HW1 9938   3.531   0.649   1.781
 3065SOL    HW2 9939   3.602   0.517   1.759
 3066SOL     OW 9940   3.239   1.142   0.541
 3066SOL    HW1 9941   3.317   1.129   0.487
 3066SOL    HW2 9942   3.186   1.204   0.491
 3067SOL     OW 9943   2.401   0.204   0.900
 3067SOL    HW1 9944   2.422   0.222   0.992
 3067SOL    HW2 9945   2.394   0.290   0.860
 3068SOL     OW 9946   2.869   1.445   0.474
 3068SOL    HW1 9947   2.830   1.517   0.425
 3068SOL    HW2 9948   2.850   1.466   0.565
 3069SOL     OW 9949   2.215   1.795   0.837
 3069SOL    HW1 9950   2.263   1.715   0.859
 3069SOL    HW2 9951   2.278   1.865   0.855
 3070SOL     OW 9952   3.660   1.059   0.868
 3070SOL    HW1 9953   3.605   1.041   0.792
 3070SOL    HW2 9954   3.598   1.064   0.942
 3071SOL     OW 9955   3.090   1.539   1.513
 3071SOL    HW1 9956   3.076   1.466   1.574
 3071SOL    HW2 9957   3.027   1.523   1.442
 3072SOL     OW 9958   2.178   0.957   0.275
 3072SOL    HW1 9959   2.256   0.983   0.226
 3072SOL    HW2 9960   2.151   0.875   0.235
 3073SOL     OW 9961   3.341   0.740   0.724
 3073SOL    HW1 9962   3.329   0.697   0.808
 3073SOL    HW2 9963   3.417   0.797   0.737
 3074SOL     OW 9964   2.328   1.264   1.738
 3074SOL    HW1 9965   2.300   1.268   1.647
 3074SOL    HW2 9966   2.246   1.262   1.788
 3075SOL     OW 9967   2.968   1.779   0.226
 3075SOL    HW1 9968   2.909   1.728   0.281
 3075SOL    HW2 9969   3.010   1.716   0.168
 3076SOL     OW 9970   2.050   0.268   1.511
 3076SOL    HW1 9971   1.984   0.335   1.495
 3076SOL    HW2 9972   2.064   0.270   1.606
 3077SOL     OW 9973   3.490   1.375   0.089
 3077SOL    HW1 9974   3.447   1.460   0.077
 3077SOL    HW2 9975   3.424   1.311   0.061
 3078SOL     OW 9976   2.337   1.732   0.339
 3078SOL    HW1 9977   2.376   1.800   0.393
 3078SOL    HW2 9978   2.406   1.707   0.277
 3079SOL     OW 9979   3.281   0.135   0.424
 3079SOL    HW1 9980   3.260   0.100   0.338
 3079SOL    HW2 9981   3.377   0.133   0.428
 3080SOL     OW 9982   2.105   1.758   1.227
 3080SOL    HW1 9983   2.168   1.698   1.267
 3080SOL    HW2 9984   2.113   1.741   1.133
 3081SOL     OW 9985   2.802   1.698   0.899
 3081SOL    HW1 9986   2.879   1.645   0.920
 3081SOL    HW2 9987   2.757   1.649   0.830
 3082SOL     OW 9988   2.254   0.693   0.474
 3082SOL    HW1 9989   2.276   0.601   0.489
 3082SOL    HW2 9990   2.161   0.699   0.495
 3083SOL     OW 9991   3.387   0.233   1.723
 3083SOL    HW1 9992   3.387   0.256   1.816
 3083SOL    HW2 9993   3.310   0.178   1.711
 3084SOL     OW 9994   2.465   0.094   0.123
 3084SOL    HW1 9995   2.559   0.080   0.130
 3084SOL    HW2 9996   2.448   0.101   0.029
 3085SOL     OW 9997   2.631   0.271   1.754
 3085SOL    HW1 9998   2.696   0.202   1.765
 3085SOL    HW2 9999   2.586   0.275   1.838
 3086SOL     OW10000   2.740   1.523   1.193
 3086SOL    HW110001   2.723   1.486   1.106
 3086SOL    HW210002   2.808   1.467   1.230
 3087SOL     OW10003   3.204   0.589   1.429
 3087SOL    HW110004   3.231   0.560   1.516
 3087SOL    HW210005   3.238   0.678   1.421
 3088SOL     OW10006   2.677   1.396   0.939
 3088SOL    HW110007   2.761   1.384   0.894
 3088SOL    HW210008   2.612   1.396   0.868
 3089SOL     OW10009   2.787   0.517   0.900
 3089SOL    HW110010   2.770   0.517   0.806
 3089SOL    HW210011   2.824   0.430   0.917
 3090SOL     OW10012   2.417   0.075   0.523
 3090SOL    HW110013   2.329   0.050   0.550
 3090SOL    HW210014   2.404   0.140   0.454
 3091SOL     OW10015   3.288   1.196   0.030
 3091SOL    HW110016   3.319   1.124   0.085
 3091SOL    HW210017   3.204   1.222   0.070
 3092SOL     OW10018   2.148   0.055   0.199
 3092SOL    HW110019   2.217   0.103   0.153
 3092SOL    HW210020   2.194   0.005   0.266
 3093SOL     OW10021   2.813   0.225   0.442
 3093SOL    HW110022   2.765   0.293   0.395
 3093SOL    HW210023   2.901   0.260   0.452
 3094SOL     OW10024   2.942   0.680   1.461
 3094SOL    HW110025   2.871   0.617   1.461
 3094SOL    HW210026   3.021   0.628   1.449
 3095SOL     OW10027   3.085   1.570   0.794
 3095SOL    HW110028   3.103   1.636   0.727
 3095SOL    HW210029   3.154   1.583   0.859
 3096SOL     OW10030   2.332   1.149   0.737
 3096SOL    HW110031   2.262   1.130   0.799
 3096SOL    HW210032   2.292   1.135   0.651
 3097SOL     OW10033   3.131   1.795   0.606
 3097SOL    HW110034   3.177   1.856   0.549
 3097SOL    HW210035   3.066   1.848   0.651
 3098SOL     OW10036   2.883   0.532   0.035
 3098SOL    HW110037   2.846   0.617   0.012
 3098SOL    HW210038   2.956   0.553   0.094
 3099SOL     OW10039   1.944   0.551   1.395
 3099SOL    HW110040   2.034   0.554   1.365
 3099SOL    HW210041   1.936   0.622   1.458
 3100SOL     OW10042   2.425   0.243   1.166
 3100SOL    HW110043   2.451   0.160   1.206
 3100SOL    HW210044   2.333   0.253   1.191
 3101SOL     OW10045   2.724   0.510   0.628
 3101SOL    HW110046   2.681   0.544   0.549
 3101SOL    HW210047   2.697   0.418   0.632
 3102SOL     OW10048   2.824   0.033   0.781
 3102SOL    HW110049   2.775   0.026   0.699
 3102SOL    HW210050   2.844   4.442   0.804
 3103SOL     OW10051   3.299   1.163   0.857
 3103SOL    HW110052   3.230   1.096   0.856
 3103SOL    HW210053   3.322   1.174   0.765
 3104SOL     OW10054   3.328   0.605   0.976
 3104SOL    HW110055   3.275   0.525   0.978
 3104SOL    HW210056   3.386   0.597   1.051
 3105SOL     OW10057   3.712   0.814   0.378
 3105SOL    HW110058   3.764   0.764   0.440
 3105SOL    HW210059   3.683   0.750   0.313
 3106SOL     OW10060   2.356   1.423   0.173
 3106SOL    HW110061   2.278   1.397   0.223
 3106SOL    HW210062   2.350   1.373   0.092
 3107SOL     OW10063   3.532   1.264   0.647
 3107SOL    HW110064   3.627   1.268   0.660
 3107SOL    HW210065   3.501   1.353   0.668
 3108SOL     OW10066   3.252   0.574   0.077
 3108SOL    HW110067   3.190   0.556   0.148
 3108SOL    HW210068   3.322   0.510   0.089
 3109SOL     OW10069   2.386   0.262   0.325
 3109SOL    HW110070   2.418   0.203   0.257
 3109SOL    HW210071   2.370   0.345   0.279
 3110SOL     OW10072   3.615   1.238   1.574
 3110SOL    HW110073   3.702   1.199   1.570
 3110SOL    HW210074   3.630   1.328   1.603
 3111SOL     OW10075   2.921   1.354   1.335
 3111SOL    HW110076   2.846   1.323   1.385
 3111SOL    HW210077   2.997   1.312   1.375
 3112SOL     OW10078   3.469   1.626   1.653
 3112SOL    HW110079   3.464   1.660   1.564
 3112SOL    HW210080   3.552   1.578   1.656
 3113SOL     OW10081   2.991   1.204   1.106
 3113SOL    HW110082   2.930   1.240   1.171
 3113SOL    HW210083   2.957   1.234   1.022
 3114SOL     OW10084   3.490   1.098   1.078
 3114SOL    HW110085   3.486   1.161   1.151
 3114SOL    HW210086   3.411   1.115   1.027
 3115SOL     OW10087   2.765   0.133   1.388
 3115SOL    HW110088   2.787   0.089   1.306
 3115SOL    HW210089   2.849   0.147   1.431
 3116SOL     OW10090   2.846   1.115   1.723
 3116SOL    HW110091   2.754   1.131   1.744
 3116SOL    HW210092   2.845   1.037   1.667
 3117SOL     OW10093   2.572   1.060   0.373
 3117SOL    HW110094   2.558   1.044   0.466
 3117SOL    HW210095   2.648   1.005   0.351
 3118SOL     OW10096   2.281   0.815   1.251
 3118SOL    HW110097   2.349   0.824   1.317
 3118SOL    HW210098   2.246   0.727   1.265
 3119SOL     OW10099   3.130   0.376   1.273
 3119SOL    HW110100   3.162   0.454   1.317
 3119SOL    HW210101   3.041   0.398   1.247
 3120SOL     OW10102   1.926   1.568   1.349
 3120SOL    HW110103   1.892   1.643   1.300
 3120SOL    HW210104   2.021   1.582   1.352
 3121SOL     OW10105   2.211   1.116   0.497
 3121SOL    HW110106   2.213   1.189   0.435
 3121SOL    HW210107   2.205   1.038   0.441
 3122SOL     OW10108   2.418   0.530   0.858
 3122SOL    HW110109   2.432   0.589   0.784
 3122SOL    HW210110   2.482   0.558   0.924
 3123SOL     OW10111   3.109   1.346   0.395
 3123SOL    HW110112   3.165   1.419   0.422
 3123SOL    HW210113   3.022   1.369   0.426
 3124SOL     OW10114   3.142   1.457   1.146
 3124SOL    HW110115   3.197   1.459   1.225
 3124SOL    HW210116   3.086   1.380   1.157
 3125SOL     OW10117   3.447   0.628   0.475
 3125SOL    HW110118   3.397   0.670   0.545
 3125SOL    HW210119   3.482   0.701   0.424
 3126SOL     OW10120   2.216   1.517   1.320
 3126SOL    HW110121   2.199   1.478   1.234
 3126SOL    HW210122   2.310   1.531   1.321
 3127SOL     OW10123   2.276   0.743   1.602
 3127SOL    HW110124   2.336   0.790   1.544
 3127SOL    HW210125   2.321   0.660   1.620
 3128SOL     OW10126   3.463   0.778   1.681
 3128SOL    HW110127   3.376   0.819   1.674
 3128SOL    HW210128   3.515   0.820   1.612
 3129SOL     OW10129   2.868   0.085   1.721
 3129SOL    HW110130   2.895   0.168   1.683
 3129SOL    HW210131   2.892   0.019   1.656
 3130SOL     OW10132   2.361   0.046   1.759
 3130SOL    HW110133   2.357   0.004   1.673
 3130SOL    HW210134   2.293   0.114   1.756
 3131SOL     OW10135   2.444   0.873   1.031
 3131SOL    HW110136   2.474   0.964   1.030
 3131SOL    HW210137   2.388   0.867   1.108
 3132SOL     OW10138   3.220   0.858   1.031
 3132SOL    HW110139   3.137   0.850   0.984
 3132SOL    HW210140   3.260   0.772   1.024
 3133SOL     OW10141   3.062   0.532   0.265
 3133SOL    HW110142   3.072   0.454   0.320
 3133SOL    HW210143   3.020   0.596   0.323
 3134SOL     OW10144   2.153   0.234   1.241
 3134SOL    HW110145   2.109   0.250   1.325
 3134SOL    HW210146   2.186   0.145   1.248
 3135SOL     OW10147   1.907   1.308   1.276
 3135SOL    HW110148   1.941   1.256   1.349
 3135SOL    HW210149   1.914   1.399   1.306
 3136SOL     OW10150   2.585   0.631   1.057
 3136SOL    HW110151   2.659   0.613   1.000
 3136SOL    HW210152   2.558   0.720   1.034
 3137SOL     OW10153   3.596   0.959   1.852
 3137SOL    HW110154   3.549   0.899   1.794
 3137SOL    HW210155   3.537   0.972   1.926
 3138SOL     OW10156   2.163   0.058   0.653
 3138SOL    HW110157   2.150   0.152   0.657
 3138SOL    HW210158   2.172   0.031   0.745
 3139SOL     OW10159   3.479   0.377   0.364
 3139SOL    HW110160   3.506   0.312   0.429
 3139SOL    HW210161   3.454   0.454   0.415
 3140SOL     OW10162   2.891   0.761   0.961
 3140SOL    HW110163   2.887   0.777   1.056
 3140SOL    HW210164   2.862   0.670   0.951
 3141SOL     OW10165   2.845   1.567   1.716
 3141SOL    HW110166   2.829   1.610   1.633
 3141SOL    HW210167   2.887   1.484   1.693
 3142SOL     OW10168   3.717   1.507   1.606
 3142SOL    HW110169   3.734   1.533   1.515
 3142SOL    HW210170   3.798   1.526   1.652
 3143SOL     OW10171   2.216   0.916   1.808
 3143SOL    HW110172   2.298   0.935   1.854
 3143SOL    HW210173   2.240   0.853   1.740
 3144SOL     OW10174   3.397   0.296   0.111
 3144SOL    HW110175   3.338   0.221   0.125
 3144SOL    HW210176   3.429   0.317   0.199
 3145SOL     OW10177   3.149   0.822   0.032
 3145SOL    HW110178   3.193   0.738   0.042
 3145SOL    HW210179   3.183   0.857  11.049
 3146SOL     OW10180   2.927   1.335   0.853
 3146SOL    HW110181   2.930   1.263   0.791
 3146SOL    HW210182   2.989   1.399   0.818
 3147SOL     OW10183   2.171   0.810   0.947
 3147SOL    HW110184   2.264   0.832   0.941
 3147SOL    HW210185   2.170   0.720   0.981
 3148SOL     OW10186   2.199   0.531   1.013
 3148SOL    HW110187   2.156   0.447   0.994
 3148SOL    HW210188   2.274   0.533   0.955
 3149SOL     OW10189   2.997   0.374   1.695
 3149SOL    HW110190   2.948   0.438   1.746
 3149SOL    HW210191   3.083   0.415   1.682
 3150SOL     OW10192   3.020   0.212   1.473
 3150SOL    HW110193   3.013   0.276   1.544
 3150SOL    HW210194   3.059   0.261   1.401
 3151SOL     OW10195   1.869   1.328   0.196
 3151SOL    HW110196   1.783   1.339   0.157
 3151SOL    HW210197   1.870   1.237   0.226
 3152SOL     OW10198   1.953   1.786   0.929
 3152SOL    HW110199   1.924   1.704   0.890
 3152SOL    HW210200   2.040   1.801   0.892
 3153SOL     OW10201   2.359   1.570   0.906
 3153SOL    HW110202   2.428   1.633   0.930
 3153SOL    HW210203   2.404   1.507   0.850
 3154SOL     OW10204   2.846   0.793   1.228
 3154SOL    HW110205   2.901   0.770   1.302
 3154SOL    HW210206   2.761   0.754   1.247
 3155SOL     OW10207   1.895   0.543   1.118
 3155SOL    HW110208   1.973   0.524   1.066
 3155SOL    HW210209   1.928   0.548   1.208
 3156SOL     OW10210   2.047   0.519   1.721
 3156SOL    HW110211   2.121   0.499   1.664
 3156SOL    HW210212   2.005   0.595   1.679
 3157SOL     OW10213   3.239   0.939   1.659
 3157SOL    HW110214   3.260   1.033   1.657
 3157SOL    HW210215   3.236   0.914   1.567
 3158SOL     OW10216   2.673   0.575   0.358
 3158SOL    HW110217   2.679   0.500   0.299
 3158SOL    HW210218   2.599   0.626   0.324
 3159SOL     OW10219   3.503   0.602   1.187
 3159SOL    HW110220   3.492   0.542   1.261
 3159SOL    HW210221   3.590   0.582   1.153
 3160SOL     OW10222   2.113   1.549   1.731
 3160SOL    HW110223   2.080   1.610   1.797
 3160SOL    HW210224   2.110   1.464   1.774
 3161SOL     OW10225   2.560   0.459   1.264
 3161SOL    HW110226   2.513   0.382   1.232
 3161SOL    HW210227   2.560   0.520   1.190
 3162SOL     OW10228   2.790   1.679   1.467
 3162SOL    HW110229   2.764   1.645   1.382
 3162SOL    HW210230   2.787   1.774   1.457
 3163SOL     OW10231   2.325   0.486   0.180
 3163SOL    HW110232   2.385   0.558   0.201
 3163SOL    HW210233   2.240   0.528   0.172
 3164SOL     OW10234   2.008   1.140   1.473
 3164SOL    HW110235   2.011   1.088   1.553
 3164SOL    HW210236   2.025   1.077   1.403
 3165SOL     OW10237   3.189   1.047   1.223
 3165SOL    HW110238   3.212   0.984   1.156
 3165SOL    HW210239   3.118   1.099   1.185
 3166SOL     OW10240   3.171   0.852   0.310
 3166SOL    HW110241   3.094   0.822   0.359
 3166SOL    HW210242   3.147   0.839   0.218
 3167SOL     OW10243   3.634   1.744   1.150
 3167SOL    HW110244   3.693   1.770   1.080
 3167SOL    HW210245   3.609   1.654   1.129
 3168SOL     OW10246   3.103   1.733   1.115
 3168SOL    HW110247   3.185   1.753   1.069
 3168SOL    HW210248   3.108   1.639   1.132
 3169SOL     OW10249   1.947   1.265   1.013
 3169SOL    HW110250   1.933   1.279   1.107
 3169SOL    HW210251   1.872   1.213   0.984
 3170SOL     OW10252   2.540   1.664   1.728
 3170SOL    HW110253   2.487   1.744   1.726
 3170SOL    HW210254   2.604   1.676   1.657
 3171SOL     OW10255   2.741   0.064   0.127
 3171SOL    HW110256   2.826   0.093   0.094
 3171SOL    HW210257   2.763   0.013   0.205
 3172SOL     OW10258   3.581   0.133   0.496
 3172SOL    HW110259   3.654   0.139   0.434
 3172SOL    HW210260   3.601   0.057   0.550
 3173SOL     OW10261   3.252   1.568   0.485
 3173SOL    HW110262   3.313   1.599   0.418
 3173SOL    HW210263   3.205   1.646   0.513
 3174SOL     OW10264   1.989   1.787   1.850
 3174SOL    HW110265   1.938   1.718   1.891
 3174SOL    HW210266   2.047   1.820   1.920
 3175SOL     OW10267   3.141   0.927   0.673
 3175SOL    HW110268   3.213   0.865   0.677
 3175SOL    HW210269   3.174   1.000   0.620
 3176SOL     OW10270   2.677   1.273   1.430
 3176SOL    HW110271   2.649   1.312   1.513
 3176SOL    HW210272   2.607   1.294   1.369
 3177SOL     OW10273   2.534   1.621   0.169
 3177SOL    HW110274   2.545   1.633   0.074
 3177SOL    HW210275   2.478   1.544   0.177
 3178SOL     OW10276   3.490   1.727   1.392
 3178SOL    HW110277   3.539   1.734   1.310
 3178SOL    HW210278   3.476   1.817   1.419
 3179SOL     OW10279   3.701   0.154   0.966
 3179SOL    HW110280   3.731   0.077   0.919
 3179SOL    HW210281   3.614   0.173   0.930
 3180SOL     OW10282   2.126   0.323   0.717
 3180SOL    HW110283   2.040   0.356   0.690
 3180SOL    HW210284   2.119   0.314   0.813
 3181SOL     OW10285   3.085   1.602   0.052
 3181SOL    HW110286   3.072   1.509   0.073
 3181SOL    HW210287   3.019   1.621  11.086
 3182SOL     OW10288   2.686   1.006   1.372
 3182SOL    HW110289   2.729   1.001   1.287
 3182SOL    HW210290   2.686   1.099   1.395
 3183SOL     OW10291   2.776   0.906   0.282
 3183SOL    HW110292   2.843   0.946   0.226
 3183SOL    HW210293   2.824   0.842   0.334
 3184SOL     OW10294   3.361   1.622   0.046
 3184SOL    HW110295   3.265   1.617   0.044
 3184SOL    HW210296   3.387   1.636  11.055
 3185SOL     OW10297   2.232   1.299   1.493
 3185SOL    HW110298   2.220   1.377   1.438
 3185SOL    HW210299   2.154   1.247   1.476
 3186SOL     OW10300   3.473   1.283   1.281
 3186SOL    HW110301   3.532   1.272   1.356
 3186SOL    HW210302   3.413   1.352   1.307
 3187SOL     OW10303   2.913   1.106   0.706
 3187SOL    HW110304   2.842   1.055   0.745
 3187SOL    HW210305   2.976   1.041   0.676
 3188SOL     OW10306   2.875   0.241   0.995
 3188SOL    HW110307   2.874   0.208   0.905
 3188SOL    HW210308   2.864   0.162   1.049
 3189SOL     OW10309   2.464   1.491   0.482
 3189SOL    HW110310   2.505   1.438   0.413
 3189SOL    HW210311   2.398   1.542   0.435
 3190SOL     OW10312   3.583   0.394   1.377
 3190SOL    HW110313   3.656   0.456   1.376
 3190SOL    HW210314   3.612   0.322   1.321
 3191SOL     OW10315   2.128   1.336   0.293
 3191SOL    HW110316   2.040   1.339   0.253
 3191SOL    HW210317   2.117   1.378   0.378
 3192SOL     OW10318   1.974   1.020   1.719
 3192SOL    HW110319   1.898   0.998   1.773
 3192SOL    HW210320   2.049   0.984   1.767
 3193SOL     OW10321   2.520   0.204   1.498
 3193SOL    HW110322   2.600   0.179   1.451
 3193SOL    HW210323   2.550   0.225   1.587
 3194SOL     OW10324   1.939   0.343   0.053
 3194SOL    HW110325   1.864   0.311   0.003
 3194SOL    HW210326   1.957   0.429   0.016
 3195SOL     OW10327   3.292   0.858   1.400
 3195SOL    HW110328   3.243   0.919   1.345
 3195SOL    HW210329   3.381   0.861   1.366
 3196SOL     OW10330   1.928   0.181   0.325
 3196SOL    HW110331   1.922   0.247   0.256
 3196SOL    HW210332   2.000   0.124   0.297
 3197SOL     OW10333   3.044   1.340   0.122
 3197SOL    HW110334   2.951   1.322   0.115
 3197SOL    HW210335   3.064   1.332   0.215
 3198SOL     OW10336   2.481   0.830   1.433
 3198SOL    HW110337   2.536   0.907   1.418
 3198SOL    HW210338   2.542   0.757   1.442
 3199SOL     OW10339   3.346   1.777   0.978
 3199SOL    HW110340   3.370   1.835   0.906
 3199SOL    HW210341   3.428   1.757   1.022
 3200SOL     OW10342   2.578   0.563   1.706
 3200SOL    HW110343   2.616   0.628   1.765
 3200SOL    HW210344   2.611   0.479   1.737
 3201SOL     OW10345   3.333   1.201   1.632
 3201SOL    HW110346   3.320   1.214   1.726
 3201SOL    HW210347   3.426   1.215   1.618
 3202SOL     OW10348   2.244   1.741   1.566
 3202SOL    HW110349   2.157   1.775   1.545
 3202SOL    HW210350   2.227   1.656   1.606
 3203SOL     OW10351   3.532   0.881   1.255
 3203SOL    HW110352   3.524   0.796   1.212
 3203SOL    HW210353   3.522   0.945   1.185
 3204SOL     OW10354   3.080   0.327   0.447
 3204SOL    HW110355   3.146   0.259   0.437
 3204SOL    HW210356   3.104   0.373   0.527
 3205SOL     OW10357   2.448   0.739   0.670
 3205SOL    HW110358   2.490   0.823   0.655
 3205SOL    HW210359   2.382   0.732   0.602
 3206SOL     OW10360   3.625   0.365   1.643
 3206SOL    HW110361   3.609   0.378   1.550
 3206SOL    HW210362   3.547   0.319   1.675
 3207SOL     OW10363   3.608   0.933   1.512
 3207SOL    HW110364   3.604   1.028   1.525
 3207SOL    HW210365   3.592   0.921   1.419
 3208SOL     OW10366   2.765   1.358   0.068
 3208SOL    HW110367   2.693   1.356   0.132
 3208SOL    HW210368   2.752   1.439   0.019
 3209SOL     OW10369   2.529   1.777   0.943
 3209SOL    HW110370   2.510   1.868   0.919
 3209SOL    HW210371   2.625   1.771   0.941
 3210SOL     OW10372   2.729   0.967   0.855
 3210SOL    HW110373   2.779   0.895   0.894
 3210SOL    HW210374   2.695   1.016   0.930
 3211SOL     OW10375   2.942   0.990   0.086
 3211SOL    HW110376   2.916   1.023  11.100
 3211SOL    HW210377   3.017   0.934   0.068
 3212SOL     OW10378   3.716   1.556   0.845
 3212SOL    HW110379   3.640   1.543   0.789
 3212SOL    HW210380   3.709   1.487   0.912
 3213SOL     OW10381   2.087   1.302   1.856
 3213SOL    HW110382   2.019   1.242   1.826
 3213SOL    HW210383   2.068   1.314   1.949
 3214SOL     OW10384   1.948   1.234   0.664
 3214SOL    HW110385   1.950   1.187   0.747
 3214SOL    HW210386   2.017   1.193   0.612
 3215SOL     OW10387   2.543   1.402   1.627
 3215SOL    HW110388   2.463   1.359   1.657
 3215SOL    HW210389   2.538   1.490   1.664
 3216SOL     OW10390   3.670   0.182   1.239
 3216SOL    HW110391   3.669   0.088   1.259
 3216SOL    HW210392   3.687   0.186   1.144
 3217SOL     OW10393   2.297   0.433   0.529
 3217SOL    HW110394   2.320   0.362   0.468
 3217SOL    HW210395   2.242   0.391   0.595
 3218SOL     OW10396   3.562   1.490   1.098
 3218SOL    HW110397   3.481   1.466   1.052
 3218SOL    HW210398   3.574   1.420   1.162
 3219SOL     OW10399   2.191   0.557   1.292
 3219SOL    HW110400   2.247   0.500   1.346
 3219SOL    HW210401   2.211   0.530   1.202
 3220SOL     OW10402   2.689   1.578   0.678
 3220SOL    HW110403   2.676   1.625   0.596
 3220SOL    HW210404   2.612   1.520   0.685
 3221SOL     OW10405   3.294   0.217   1.117
 3221SOL    HW110406   3.330   0.145   1.170
 3221SOL    HW210407   3.243   0.269   1.179
 3222SOL     OW10408   2.858   0.010   1.149
 3222SOL    HW110409   2.814   4.425   1.142
 3222SOL    HW210410   2.951   4.489   1.162
 3223SOL     OW10411   2.629   1.328   0.317
 3223SOL    HW110412   2.600   1.238   0.330
 3223SOL    HW210413   2.714   1.332   0.360
 3224SOL     OW10414   2.484   1.556   1.284
 3224SOL    HW110415   2.485   1.638   1.334
 3224SOL    HW210416   2.571   1.550   1.246
 3225SOL     OW10417   3.211   0.059   0.170
 3225SOL    HW110418   3.247   0.002   0.101
 3225SOL    HW210419   3.132   0.013   0.199
 3226SOL     OW10420   3.178   0.463   0.679
 3226SOL    HW110421   3.116   0.536   0.678
 3226SOL    HW210422   3.164   0.420   0.763
 3227SOL     OW10423   3.448   0.200   0.867
 3227SOL    HW110424   3.388   0.215   0.941
 3227SOL    HW210425   3.450   0.284   0.821
 3228SOL     OW10426   1.904   1.071   0.301
 3228SOL    HW110427   2.000   1.065   0.296
 3228SOL    HW210428   1.876   0.983   0.327
 3229SOL     OW10429   2.746   1.653   0.348
 3229SOL    HW110430   2.675   1.632   0.287
 3229SOL    HW210431   2.713   1.728   0.398
 3230SOL     OW10432   2.091   0.626   1.983
 3230SOL    HW110433   2.004   0.620   2.021
 3230SOL    HW210434   2.080   0.596   1.892
 3231SOL     OW10435   2.070   0.298   2.851
 3231SOL    HW110436   2.101   0.270   2.937
 3231SOL    HW210437   1.988   0.250   2.838
 3232SOL     OW10438   1.870   0.386   2.500
 3232SOL    HW110439   1.783   0.405   2.537
 3232SOL    HW210440   1.855   0.312   2.442
 3233SOL     OW10441   2.429   1.287   3.036
 3233SOL    HW110442   2.341   1.289   2.999
 3233SOL    HW210443   2.443   1.375   3.070
 3234SOL     OW10444   3.422   1.512   2.569
 3234SOL    HW110445   3.379   1.491   2.652
 3234SOL    HW210446   3.351   1.516   2.505
 3235SOL     OW10447   2.996   0.699   2.561
 3235SOL    HW110448   3.042   0.782   2.551
 3235SOL    HW210449   2.946   0.709   2.642
 3236SOL     OW10450   3.629   0.607   2.090
 3236SOL    HW110451   3.608   0.597   1.997
 3236SOL    HW210452   3.596   0.527   2.131
 3237SOL     OW10453   2.619   1.143   2.902
 3237SOL    HW110454   2.549   1.177   2.959
 3237SOL    HW210455   2.654   1.221   2.858
 3238SOL     OW10456   2.727   0.775   3.684
 3238SOL    HW110457   2.714   0.846   3.747
 3238SOL    HW210458   2.751   0.820   3.603
 3239SOL     OW10459   2.548   1.004   2.509
 3239SOL    HW110460   2.613   0.991   2.579
 3239SOL    HW210461   2.479   1.055   2.550
 3240SOL     OW10462   2.572   1.151   3.672
 3240SOL    HW110463   2.619   1.230   3.700
 3240SOL    HW210464   2.489   1.183   3.639
 3241SOL     OW10465   2.194   1.424   2.930
 3241SOL    HW110466   2.119   1.389   2.882
 3241SOL    HW210467   2.242   1.475   2.866
 3242SOL     OW10468   3.323   1.499   3.215
 3242SOL    HW110469   3.372   1.581   3.226
 3242SOL    HW210470   3.261   1.498   3.288
 3243SOL     OW10471   2.304   0.395   3.351
 3243SOL    HW110472   2.386   0.346   3.353
 3243SOL    HW210473   2.236   0.329   3.365
 3244SOL     OW10474   3.473   0.446   2.600
 3244SOL    HW110475   3.393   0.468   2.553
 3244SOL    HW210476   3.492   0.524   2.653
 3245SOL     OW10477   2.083   1.724   2.339
 3245SOL    HW110478   2.123   1.763   2.416
 3245SOL    HW210479   2.155   1.711   2.278
 3246SOL     OW10480   2.999   1.341   3.554
 3246SOL    HW110481   3.038   1.338   3.641
 3246SOL    HW210482   2.946   1.262   3.548
 3247SOL     OW10483   2.089   1.443   2.397
 3247SOL    HW110484   2.065   1.536   2.407
 3247SOL    HW210485   2.032   1.397   2.458
 3248SOL     OW10486   2.119   1.090   2.753
 3248SOL    HW110487   2.115   1.004   2.794
 3248SOL    HW210488   2.061   1.145   2.806
 3249SOL     OW10489   2.475   1.781   3.295
 3249SOL    HW110490   2.391   1.769   3.338
 3249SOL    HW210491   2.498   1.873   3.312
 3250SOL     OW10492   2.449   0.981   1.996
 3250SOL    HW110493   2.493   1.031   1.927
 3250SOL    HW210494   2.488   1.011   2.077
 3251SOL     OW10495   3.445   0.115   3.334
 3251SOL    HW110496   3.465   0.184   3.270
 3251SOL    HW210497   3.434   0.162   3.417
 3252SOL     OW10498   1.978   0.653   2.422
 3252SOL    HW110499   1.948   0.564   2.443
 3252SOL    HW210500   1.969   0.702   2.503
 3253SOL     OW10501   3.704   1.759   2.197
 3253SOL    HW110502   3.766   1.731   2.263
 3253SOL    HW210503   3.728   1.850   2.179
 3254SOL     OW10504   1.892   1.585   1.985
 3254SOL    HW110505   1.876   1.492   2.002
 3254SOL    HW210506   1.868   1.629   2.066
 3255SOL     OW10507   3.553   0.921   2.503
 3255SOL    HW110508   3.636   0.878   2.482
 3255SOL    HW210509   3.531   0.969   2.424
 3256SOL     OW10510   3.508   1.107   2.291
 3256SOL    HW110511   3.594   1.114   2.249
 3256SOL    HW210512   3.512   1.168   2.365
 3257SOL     OW10513   1.984   0.745   3.447
 3257SOL    HW110514   2.076   0.770   3.456
 3257SOL    HW210515   1.936   0.827   3.455
 3258SOL     OW10516   2.476   1.385   2.596
 3258SOL    HW110517   2.430   1.301   2.606
 3258SOL    HW210518   2.459   1.411   2.506
 3259SOL     OW10519   3.152   1.239   3.285
 3259SOL    HW110520   3.184   1.171   3.225
 3259SOL    HW210521   3.208   1.232   3.362
 3260SOL     OW10522   2.679   0.014   2.412
 3260SOL    HW110523   2.714   0.099   2.387
 3260SOL    HW210524   2.584   0.024   2.405
 3261SOL     OW10525   2.053   0.966   3.133
 3261SOL    HW110526   2.137   0.924   3.118
 3261SOL    HW210527   1.990   0.912   3.086
 3262SOL     OW10528   3.394   0.992   2.060
 3262SOL    HW110529   3.323   0.936   2.091
 3262SOL    HW210530   3.434   1.027   2.140
 3263SOL     OW10531   3.049   1.806   3.483
 3263SOL    HW110532   3.060   1.863   3.407
 3263SOL    HW210533   3.063   1.718   3.450
 3264SOL     OW10534   2.177   0.254   3.642
 3264SOL    HW110535   2.241   0.318   3.675
 3264SOL    HW210536   2.104   0.261   3.703
 3265SOL     OW10537   3.328   1.420   2.814
 3265SOL    HW110538   3.260   1.434   2.879
 3265SOL    HW210539   3.316   1.329   2.787
 3266SOL     OW10540   3.521   1.738   2.440
 3266SOL    HW110541   3.500   1.709   2.351
 3266SOL    HW210542   3.496   1.665   2.496
 3267SOL     OW10543   2.455   0.723   2.127
 3267SOL    HW110544   2.461   0.805   2.077
 3267SOL    HW210545   2.390   0.741   2.195
 3268SOL     OW10546   3.153   0.362   2.795
 3268SOL    HW110547   3.064   0.332   2.780
 3268SOL    HW210548   3.189   0.299   2.857
 3269SOL     OW10549   3.443   1.670   2.171
 3269SOL    HW110550   3.533   1.702   2.164
 3269SOL    HW210551   3.416   1.653   2.081
 3270SOL     OW10552   2.657   0.619   3.316
 3270SOL    HW110553   2.629   0.594   3.404
 3270SOL    HW210554   2.617   0.554   3.259
 3271SOL     OW10555   3.251   0.479   3.538
 3271SOL    HW110556   3.254   0.523   3.623
 3271SOL    HW210557   3.317   0.410   3.544
 3272SOL     OW10558   2.818   0.888   3.444
 3272SOL    HW110559   2.871   0.817   3.409
 3272SOL    HW210560   2.770   0.921   3.368
 3273SOL     OW10561   2.858   0.417   3.098
 3273SOL    HW110562   2.771   0.428   3.136
 3273SOL    HW210563   2.844   0.365   3.019
 3274SOL     OW10564   2.912   0.697   2.289
 3274SOL    HW110565   2.928   0.690   2.383
 3274SOL    HW210566   2.829   0.651   2.275
 3275SOL     OW10567   1.951   0.820   2.638
 3275SOL    HW110568   2.032   0.814   2.689
 3275SOL    HW210569   1.907   0.898   2.673
 3276SOL     OW10570   1.968   1.799   3.428
 3276SOL    HW110571   1.969   1.795   3.523
 3276SOL    HW210572   1.882   1.834   3.406
 3277SOL     OW10573   2.717   0.369   2.044
 3277SOL    HW110574   2.789   0.403   1.992
 3277SOL    HW210575   2.732   0.274   2.048
 3278SOL     OW10576   3.567   0.574   3.690
 3278SOL    HW110577   3.531   0.649   3.643
 3278SOL    HW210578   3.602   0.517   3.621
 3279SOL     OW10579   3.239   1.143   2.403
 3279SOL    HW110580   3.317   1.129   2.350
 3279SOL    HW210581   3.186   1.204   2.353
 3280SOL     OW10582   2.400   0.204   2.763
 3280SOL    HW110583   2.421   0.221   2.855
 3280SOL    HW210584   2.392   0.290   2.723
 3281SOL     OW10585   2.869   1.445   2.334
 3281SOL    HW110586   2.830   1.517   2.285
 3281SOL    HW210587   2.852   1.466   2.426
 3282SOL     OW10588   2.214   1.792   2.694
 3282SOL    HW110589   2.251   1.705   2.712
 3282SOL    HW210590   2.282   1.853   2.721
 3283SOL     OW10591   3.660   1.060   2.730
 3283SOL    HW110592   3.606   1.039   2.654
 3283SOL    HW210593   3.598   1.064   2.803
 3284SOL     OW10594   3.091   1.538   3.374
 3284SOL    HW110595   3.076   1.467   3.436
 3284SOL    HW210596   3.025   1.525   3.306
 3285SOL     OW10597   2.182   0.956   2.112
 3285SOL    HW110598   2.264   0.975   2.066
 3285SOL    HW210599   2.151   0.875   2.073
 3286SOL     OW10600   3.341   0.742   2.587
 3286SOL    HW110601   3.329   0.697   2.670
 3286SOL    HW210602   3.418   0.797   2.600
 3287SOL     OW10603   2.328   1.264   3.599
 3287SOL    HW110604   2.301   1.268   3.508
 3287SOL    HW210605   2.246   1.262   3.649
 3288SOL     OW10606   2.984   1.777   2.094
 3288SOL    HW110607   2.910   1.735   2.139
 3288SOL    HW210608   3.006   1.717   2.023
 3289SOL     OW10609   2.050   0.268   3.373
 3289SOL    HW110610   1.984   0.335   3.357
 3289SOL    HW210611   2.064   0.270   3.468
 3290SOL     OW10612   3.491   1.380   1.949
 3290SOL    HW110613   3.449   1.465   1.934
 3290SOL    HW210614   3.422   1.316   1.931
 3291SOL     OW10615   2.328   1.722   2.201
 3291SOL    HW110616   2.368   1.795   2.250
 3291SOL    HW210617   2.388   1.707   2.127
 3292SOL     OW10618   3.282   0.138   2.279
 3292SOL    HW110619   3.266   0.086   2.200
 3292SOL    HW210620   3.377   0.131   2.293
 3293SOL     OW10621   2.097   1.771   3.103
 3293SOL    HW110622   2.167   1.715   3.137
 3293SOL    HW210623   2.108   1.769   3.008
 3294SOL     OW10624   2.797   1.697   2.762
 3294SOL    HW110625   2.874   1.646   2.784
 3294SOL    HW210626   2.755   1.648   2.691
 3295SOL     OW10627   2.254   0.694   2.338
 3295SOL    HW110628   2.277   0.602   2.350
 3295SOL    HW210629   2.160   0.699   2.356
 3296SOL     OW10630   3.387   0.233   3.585
 3296SOL    HW110631   3.387   0.256   3.678
 3296SOL    HW210632   3.309   0.178   3.573
 3297SOL     OW10633   2.489   0.122   1.984
 3297SOL    HW110634   2.577   0.085   1.993
 3297SOL    HW210635   2.456   0.086   1.902
 3298SOL     OW10636   2.630   0.270   3.615
 3298SOL    HW110637   2.696   0.202   3.627
 3298SOL    HW210638   2.587   0.276   3.701
 3299SOL     OW10639   2.740   1.523   3.054
 3299SOL    HW110640   2.723   1.484   2.968
 3299SOL    HW210641   2.808   1.468   3.093
 3300SOL     OW10642   3.204   0.589   3.291
 3300SOL    HW110643   3.231   0.560   3.378
 3300SOL    HW210644   3.238   0.678   3.283
 3301SOL     OW10645   2.677   1.397   2.800
 3301SOL    HW110646   2.761   1.384   2.757
 3301SOL    HW210647   2.612   1.395   2.730
 3302SOL     OW10648   2.785   0.518   2.762
 3302SOL    HW110649   2.769   0.516   2.667
 3302SOL    HW210650   2.823   0.432   2.781
 3303SOL     OW10651   2.416   0.076   2.383
 3303SOL    HW110652   2.328   0.048   2.407
 3303SOL    HW210653   2.403   0.141   2.314
 3304SOL     OW10654   3.290   1.198   1.903
 3304SOL    HW110655   3.320   1.122   1.953
 3304SOL    HW210656   3.204   1.219   1.940
 3305SOL     OW10657   2.158   0.069   2.059
 3305SOL    HW110658   2.236   0.121   2.042
 3305SOL    HW210659   2.188   4.500   2.118
 3306SOL     OW10660   2.814   0.240   2.330
 3306SOL    HW110661   2.762   0.295   2.272
 3306SOL    HW210662   2.903   0.276   2.325
 3307SOL     OW10663   2.942   0.680   3.322
 3307SOL    HW110664   2.870   0.617   3.323
 3307SOL    HW210665   3.021   0.628   3.311
 3308SOL     OW10666   3.085   1.570   2.656
 3308SOL    HW110667   3.104   1.637   2.589
 3308SOL    HW210668   3.154   1.582   2.721
 3309SOL     OW10669   2.331   1.150   2.596
 3309SOL    HW110670   2.261   1.130   2.659
 3309SOL    HW210671   2.291   1.133   2.511
 3310SOL     OW10672   3.132   1.794   2.469
 3310SOL    HW110673   3.178   1.855   2.411
 3310SOL    HW210674   3.067   1.848   2.514
 3311SOL     OW10675   2.892   0.548   1.878
 3311SOL    HW110676   2.843   0.629   1.863
 3311SOL    HW210677   2.950   0.568   1.952
 3312SOL     OW10678   1.944   0.551   3.257
 3312SOL    HW110679   2.034   0.554   3.227
 3312SOL    HW210680   1.936   0.623   3.320
 3313SOL     OW10681   2.425   0.243   3.028
 3313SOL    HW110682   2.452   0.161   3.069
 3313SOL    HW210683   2.333   0.253   3.053
 3314SOL     OW10684   2.728   0.504   2.488
 3314SOL    HW110685   2.682   0.544   2.415
 3314SOL    HW210686   2.696   0.413   2.489
 3315SOL     OW10687   2.826   0.026   2.643
 3315SOL    HW110688   2.777   0.024   2.561
 3315SOL    HW210689   2.839   4.434   2.666
 3316SOL     OW10690   3.298   1.163   2.719
 3316SOL    HW110691   3.230   1.096   2.719
 3316SOL    HW210692   3.321   1.174   2.627
 3317SOL     OW10693   3.328   0.604   2.837
 3317SOL    HW110694   3.275   0.525   2.840
 3317SOL    HW210695   3.386   0.597   2.913
 3318SOL     OW10696   3.708   0.817   2.244
 3318SOL    HW110697   3.764   0.765   2.303
 3318SOL    HW210698   3.680   0.755   2.177
 3319SOL     OW10699   2.353   1.418   2.019
 3319SOL    HW110700   2.279   1.389   2.072
 3319SOL    HW210701   2.337   1.380   1.932
 3320SOL     OW10702   3.532   1.265   2.507
 3320SOL    HW110703   3.626   1.268   2.522
 3320SOL    HW210704   3.501   1.353   2.529
 3321SOL     OW10705   3.256   0.570   1.932
 3321SOL    HW110706   3.195   0.555   2.003
 3321SOL    HW210707   3.342   0.551   1.970
 3322SOL     OW10708   2.384   0.266   2.186
 3322SOL    HW110709   2.431   0.214   2.119
 3322SOL    HW210710   2.367   0.349   2.143
 3323SOL     OW10711   3.615   1.238   3.435
 3323SOL    HW110712   3.702   1.199   3.433
 3323SOL    HW210713   3.629   1.328   3.465
 3324SOL     OW10714   2.920   1.354   3.196
 3324SOL    HW110715   2.846   1.323   3.247
 3324SOL    HW210716   2.997   1.313   3.237
 3325SOL     OW10717   3.470   1.626   3.515
 3325SOL    HW110718   3.465   1.659   3.426
 3325SOL    HW210719   3.552   1.578   3.518
 3326SOL     OW10720   2.991   1.204   2.968
 3326SOL    HW110721   2.931   1.240   3.033
 3326SOL    HW210722   2.956   1.234   2.884
 3327SOL     OW10723   3.491   1.098   2.940
 3327SOL    HW110724   3.486   1.161   3.013
 3327SOL    HW210725   3.411   1.115   2.890
 3328SOL     OW10726   2.765   0.132   3.250
 3328SOL    HW110727   2.787   0.089   3.168
 3328SOL    HW210728   2.849   0.147   3.293
 3329SOL     OW10729   2.846   1.115   3.584
 3329SOL    HW110730   2.754   1.131   3.606
 3329SOL    HW210731   2.845   1.037   3.529
 3330SOL     OW10732   2.571   1.061   2.233
 3330SOL    HW110733   2.557   1.045   2.327
 3330SOL    HW210734   2.646   1.007   2.211
 3331SOL     OW10735   2.281   0.815   3.113
 3331SOL    HW110736   2.349   0.824   3.179
 3331SOL    HW210737   2.246   0.727   3.127
 3332SOL     OW10738   3.130   0.376   3.135
 3332SOL    HW110739   3.162   0.454   3.179
 3332SOL    HW210740   3.041   0.398   3.108
 3333SOL     OW10741   1.927   1.567   3.210
 3333SOL    HW110742   1.895   1.645   3.164
 3333SOL    HW210743   2.022   1.579   3.214
 3334SOL     OW10744   2.212   1.109   2.353
 3334SOL    HW110745   2.216   1.182   2.291
 3334SOL    HW210746   2.210   1.030   2.298
 3335SOL     OW10747   2.418   0.530   2.720
 3335SOL    HW110748   2.432   0.589   2.646
 3335SOL    HW210749   2.482   0.558   2.786
 3336SOL     OW10750   3.110   1.348   2.251
 3336SOL    HW110751   3.166   1.420   2.282
 3336SOL    HW210752   3.023   1.369   2.285
 3337SOL     OW10753   3.142   1.457   3.008
 3337SOL    HW110754   3.197   1.459   3.087
 3337SOL    HW210755   3.086   1.380   3.020
 3338SOL     OW10756   3.444   0.624   2.339
 3338SOL    HW110757   3.397   0.674   2.406
 3338SOL    HW210758   3.488   0.690   2.285
 3339SOL     OW10759   2.214   1.518   3.181
 3339SOL    HW110760   2.197   1.480   3.095
 3339SOL    HW210761   2.308   1.533   3.183
 3340SOL     OW10762   2.276   0.742   3.464
 3340SOL    HW110763   2.336   0.790   3.406
 3340SOL    HW210764   2.322   0.660   3.482
 3341SOL     OW10765   3.463   0.778   3.543
 3341SOL    HW110766   3.377   0.819   3.536
 3341SOL    HW210767   3.515   0.820   3.474
 3342SOL     OW10768   2.868   0.084   3.583
 3342SOL    HW110769   2.895   0.168   3.545
 3342SOL    HW210770   2.892   0.019   3.518
 3343SOL     OW10771   2.361   0.046   3.621
 3343SOL    HW110772   2.357   0.005   3.535
 3343SOL    HW210773   2.294   0.114   3.618
 3344SOL     OW10774   2.444   0.873   2.893
 3344SOL    HW110775   2.475   0.964   2.892
 3344SOL    HW210776   2.388   0.867   2.970
 3345SOL     OW10777   3.220   0.859   2.892
 3345SOL    HW110778   3.137   0.849   2.846
 3345SOL    HW210779   3.260   0.772   2.886
 3346SOL     OW10780   3.066   0.535   2.125
 3346SOL    HW110781   3.072   0.455   2.177
 3346SOL    HW210782   3.023   0.598   2.183
 3347SOL     OW10783   2.152   0.234   3.103
 3347SOL    HW110784   2.109   0.250   3.187
 3347SOL    HW210785   2.186   0.145   3.110
 3348SOL     OW10786   1.906   1.308   3.138
 3348SOL    HW110787   1.941   1.256   3.211
 3348SOL    HW210788   1.914   1.399   3.167
 3349SOL     OW10789   2.585   0.631   2.920
 3349SOL    HW110790   2.659   0.612   2.862
 3349SOL    HW210791   2.558   0.720   2.896
 3350SOL     OW10792   3.596   0.959   3.714
 3350SOL    HW110793   3.549   0.900   3.656
 3350SOL    HW210794   3.537   0.972   3.788
 3351SOL     OW10795   2.159   0.055   2.516
 3351SOL    HW110796   2.149   0.151   2.518
 3351SOL    HW210797   2.171   0.031   2.608
 3352SOL     OW10798   3.477   0.378   2.225
 3352SOL    HW110799   3.505   0.314   2.290
 3352SOL    HW210800   3.453   0.455   2.276
 3353SOL     OW10801   2.891   0.762   2.824
 3353SOL    HW110802   2.887   0.777   2.918
 3353SOL    HW210803   2.862   0.671   2.813
 3354SOL     OW10804   2.846   1.568   3.579
 3354SOL    HW110805   2.830   1.611   3.495
 3354SOL    HW210806   2.887   1.484   3.555
 3355SOL     OW10807   3.717   1.507   3.468
 3355SOL    HW110808   3.735   1.533   3.377
 3355SOL    HW210809   3.798   1.526   3.514
 3356SOL     OW10810   2.216   0.916   3.670
 3356SOL    HW110811   2.297   0.935   3.716
 3356SOL    HW210812   2.241   0.853   3.602
 3357SOL     OW10813   3.393   0.265   1.990
 3357SOL    HW110814   3.321   0.209   2.019
 3357SOL    HW210815   3.422   0.310   2.069
 3358SOL     OW10816   3.154   0.826   1.893
 3358SOL    HW110817   3.196   0.740   1.896
 3358SOL    HW210818   3.185   0.866   1.811
 3359SOL     OW10819   2.926   1.336   2.715
 3359SOL    HW110820   2.930   1.262   2.653
 3359SOL    HW210821   2.989   1.399   2.680
 3360SOL     OW10822   2.171   0.810   2.809
 3360SOL    HW110823   2.264   0.832   2.803
 3360SOL    HW210824   2.170   0.720   2.843
 3361SOL     OW10825   2.198   0.531   2.875
 3361SOL    HW110826   2.156   0.448   2.856
 3361SOL    HW210827   2.274   0.534   2.817
 3362SOL     OW10828   2.997   0.374   3.557
 3362SOL    HW110829   2.948   0.438   3.608
 3362SOL    HW210830   3.083   0.415   3.544
 3363SOL     OW10831   3.020   0.212   3.335
 3363SOL    HW110832   3.013   0.276   3.406
 3363SOL    HW210833   3.058   0.261   3.263
 3364SOL     OW10834   1.867   1.319   2.056
 3364SOL    HW110835   1.779   1.333   2.020
 3364SOL    HW210836   1.864   1.229   2.090
 3365SOL     OW10837   1.947   1.781   2.793
 3365SOL    HW110838   1.917   1.699   2.754
 3365SOL    HW210839   2.036   1.793   2.758
 3366SOL     OW10840   2.359   1.571   2.765
 3366SOL    HW110841   2.428   1.634   2.786
 3366SOL    HW210842   2.403   1.505   2.711
 3367SOL     OW10843   2.846   0.794   3.090
 3367SOL    HW110844   2.901   0.770   3.164
 3367SOL    HW210845   2.761   0.754   3.109
 3368SOL     OW10846   1.895   0.542   2.980
 3368SOL    HW110847   1.974   0.525   2.928
 3368SOL    HW210848   1.928   0.548   3.070
 3369SOL     OW10849   2.046   0.519   3.582
 3369SOL    HW110850   2.122   0.499   3.527
 3369SOL    HW210851   2.005   0.595   3.541
 3370SOL     OW10852   3.240   0.939   3.521
 3370SOL    HW110853   3.259   1.033   3.519
 3370SOL    HW210854   3.236   0.914   3.428
 3371SOL     OW10855   2.673   0.575   2.217
 3371SOL    HW110856   2.677   0.503   2.154
 3371SOL    HW210857   2.599   0.629   2.188
 3372SOL     OW10858   3.503   0.602   3.049
 3372SOL    HW110859   3.492   0.542   3.123
 3372SOL    HW210860   3.590   0.582   3.015
 3373SOL     OW10861   2.110   1.550   3.595
 3373SOL    HW110862   2.088   1.612   3.665
 3373SOL    HW210863   2.109   1.464   3.637
 3374SOL     OW10864   2.560   0.459   3.126
 3374SOL    HW110865   2.514   0.382   3.094
 3374SOL    HW210866   2.560   0.520   3.052
 3375SOL     OW10867   2.793   1.678   3.328
 3375SOL    HW110868   2.763   1.645   3.244
 3375SOL    HW210869   2.789   1.773   3.320
 3376SOL     OW10870   2.327   0.493   2.046
 3376SOL    HW110871   2.386   0.565   2.068
 3376SOL    HW210872   2.241   0.534   2.035
 3377SOL     OW10873   2.008   1.140   3.335
 3377SOL    HW110874   2.011   1.088   3.415
 3377SOL    HW210875   2.025   1.077   3.265
 3378SOL     OW10876   3.189   1.047   3.085
 3378SOL    HW110877   3.212   0.984   3.017
 3378SOL    HW210878   3.118   1.099   3.047
 3379SOL     OW10879   3.173   0.857   2.168
 3379SOL    HW110880   3.098   0.827   2.220
 3379SOL    HW210881   3.147   0.843   2.077
 3380SOL     OW10882   3.633   1.745   3.012
 3380SOL    HW110883   3.693   1.770   2.942
 3380SOL    HW210884   3.609   1.655   2.991
 3381SOL     OW10885   3.104   1.733   2.976
 3381SOL    HW110886   3.186   1.753   2.930
 3381SOL    HW210887   3.108   1.640   2.994
 3382SOL     OW10888   1.947   1.265   2.875
 3382SOL    HW110889   1.933   1.279   2.969
 3382SOL    HW210890   1.872   1.213   2.846
 3383SOL     OW10891   2.540   1.665   3.590
 3383SOL    HW110892   2.487   1.745   3.591
 3383SOL    HW210893   2.601   1.678   3.517
 3384SOL     OW10894   3.580   0.129   2.355
 3384SOL    HW110895   3.652   0.137   2.292
 3384SOL    HW210896   3.607   0.058   2.413
 3385SOL     OW10897   3.253   1.567   2.347
 3385SOL    HW110898   3.313   1.599   2.279
 3385SOL    HW210899   3.204   1.645   2.374
 3386SOL     OW10900   1.975   1.798   3.696
 3386SOL    HW110901   1.933   1.729   3.747
 3386SOL    HW210902   2.049   1.825   3.750
 3387SOL     OW10903   3.140   0.927   2.535
 3387SOL    HW110904   3.213   0.865   2.539
 3387SOL    HW210905   3.174   1.000   2.482
 3388SOL     OW10906   2.677   1.273   3.292
 3388SOL    HW110907   2.650   1.312   3.375
 3388SOL    HW210908   2.605   1.293   3.231
 3389SOL     OW10909   2.534   1.619   2.015
 3389SOL    HW110910   2.544   1.630   1.920
 3389SOL    HW210911   2.479   1.542   2.025
 3390SOL     OW10912   3.490   1.727   3.253
 3390SOL    HW110913   3.539   1.734   3.171
 3390SOL    HW210914   3.477   1.817   3.281
 3391SOL     OW10915   3.701   0.154   2.828
 3391SOL    HW110916   3.732   0.078   2.780
 3391SOL    HW210917   3.614   0.172   2.792
 3392SOL     OW10918   2.127   0.323   2.579
 3392SOL    HW110919   2.041   0.357   2.552
 3392SOL    HW210920   2.120   0.314   2.675
 3393SOL     OW10921   3.069   1.606   1.893
 3393SOL    HW110922   3.060   1.515   1.921
 3393SOL    HW210923   3.003   1.618   1.824
 3394SOL     OW10924   2.686   1.006   3.234
 3394SOL    HW110925   2.729   1.001   3.149
 3394SOL    HW210926   2.686   1.099   3.257
 3395SOL     OW10927   2.778   0.910   2.152
 3395SOL    HW110928   2.840   0.942   2.086
 3395SOL    HW210929   2.824   0.840   2.197
 3396SOL     OW10930   3.354   1.625   1.904
 3396SOL    HW110931   3.260   1.619   1.891
 3396SOL    HW210932   3.391   1.631   1.816
 3397SOL     OW10933   2.232   1.300   3.354
 3397SOL    HW110934   2.219   1.378   3.300
 3397SOL    HW210935   2.153   1.247   3.338
 3398SOL     OW10936   3.474   1.284   3.143
 3398SOL    HW110937   3.531   1.272   3.219
 3398SOL    HW210938   3.413   1.352   3.169
 3399SOL     OW10939   2.913   1.107   2.568
 3399SOL    HW110940   2.842   1.056   2.607
 3399SOL    HW210941   2.976   1.041   2.537
 3400SOL     OW10942   2.868   0.243   2.865
 3400SOL    HW110943   2.874   0.219   2.773
 3400SOL    HW210944   2.860   0.160   2.911
 3401SOL     OW10945   2.464   1.490   2.343
 3401SOL    HW110946   2.507   1.439   2.274
 3401SOL    HW210947   2.400   1.543   2.296
 3402SOL     OW10948   3.583   0.394   3.239
 3402SOL    HW110949   3.656   0.456   3.238
 3402SOL    HW210950   3.612   0.322   3.183
 3403SOL     OW10951   2.121   1.346   2.151
 3403SOL    HW110952   2.028   1.342   2.128
 3403SOL    HW210953   2.123   1.384   2.238
 3404SOL     OW10954   1.974   1.019   3.581
 3404SOL    HW110955   1.898   0.997   3.635
 3404SOL    HW210956   2.049   0.984   3.629
 3405SOL     OW10957   2.520   0.203   3.360
 3405SOL    HW110958   2.600   0.179   3.313
 3405SOL    HW210959   2.550   0.225   3.449
 3406SOL     OW10960   1.943   0.339   1.909
 3406SOL    HW110961   1.872   0.286   1.873
 3406SOL    HW210962   1.957   0.408   1.844
 3407SOL     OW10963   3.292   0.858   3.262
 3407SOL    HW110964   3.243   0.919   3.206
 3407SOL    HW210965   3.382   0.861   3.228
 3408SOL     OW10966   1.926   0.182   2.182
 3408SOL    HW110967   1.925   0.250   2.113
 3408SOL    HW210968   2.001   0.127   2.159
 3409SOL     OW10969   3.041   1.340   1.979
 3409SOL    HW110970   2.950   1.310   1.981
 3409SOL    HW210971   3.069   1.340   2.070
 3410SOL     OW10972   2.481   0.830   3.295
 3410SOL    HW110973   2.536   0.907   3.281
 3410SOL    HW210974   2.542   0.757   3.304
 3411SOL     OW10975   3.346   1.777   2.840
 3411SOL    HW110976   3.371   1.835   2.768
 3411SOL    HW210977   3.428   1.757   2.885
 3412SOL     OW10978   2.578   0.563   3.568
 3412SOL    HW110979   2.616   0.628   3.627
 3412SOL    HW210980   2.611   0.479   3.600
 3413SOL     OW10981   3.332   1.201   3.494
 3413SOL    HW110982   3.320   1.214   3.588
 3413SOL    HW210983   3.426   1.215   3.481
 3414SOL     OW10984   2.239   1.739   3.426
 3414SOL    HW110985   2.151   1.770   3.403
 3414SOL    HW210986   2.224   1.656   3.471
 3415SOL     OW10987   3.532   0.881   3.117
 3415SOL    HW110988   3.524   0.796   3.075
 3415SOL    HW210989   3.522   0.945   3.047
 3416SOL     OW10990   3.080   0.330   2.309
 3416SOL    HW110991   3.145   0.260   2.299
 3416SOL    HW210992   3.108   0.377   2.388
 3417SOL     OW10993   2.449   0.738   2.532
 3417SOL    HW110994   2.491   0.823   2.516
 3417SOL    HW210995   2.382   0.731   2.465
 3418SOL     OW10996   3.625   0.365   3.505
 3418SOL    HW110997   3.609   0.378   3.412
 3418SOL    HW210998   3.547   0.319   3.537
 3419SOL     OW10999   3.608   0.933   3.374
 3419SOL    HW111000   3.604   1.028   3.387
 3419SOL    HW211001   3.592   0.922   3.281
 3420SOL     OW11002   2.725   1.368   1.895
 3420SOL    HW111003   2.685   1.394   1.978
 3420SOL    HW211004   2.742   1.450   1.850
 3421SOL     OW11005   2.522   1.798   2.795
 3421SOL    HW111006   2.521   1.885   2.836
 3421SOL    HW211007   2.614   1.772   2.796
 3422SOL     OW11008   2.729   0.967   2.717
 3422SOL    HW111009   2.779   0.895   2.756
 3422SOL    HW211010   2.695   1.015   2.792
 3423SOL     OW11011   2.942   0.989   1.951
 3423SOL    HW111012   2.919   1.039   1.873
 3423SOL    HW211013   3.016   0.935   1.924
 3424SOL     OW11014   3.716   1.556   2.707
 3424SOL    HW111015   3.639   1.543   2.652
 3424SOL    HW211016   3.710   1.487   2.774
 3425SOL     OW11017   2.087   1.303   3.718
 3425SOL    HW111018   2.018   1.243   3.689
 3425SOL    HW211019   2.072   1.314   3.812
 3426SOL     OW11020   1.948   1.234   2.525
 3426SOL    HW111021   1.950   1.187   2.609
 3426SOL    HW211022   2.016   1.191   2.472
 3427SOL     OW11023   2.542   1.403   3.488
 3427SOL    HW111024   2.463   1.359   3.520
 3427SOL    HW211025   2.538   1.490   3.527
 3428SOL     OW11026   3.670   0.182   3.101
 3428SOL    HW111027   3.669   0.088   3.121
 3428SOL    HW211028   3.687   0.186   3.006
 3429SOL     OW11029   2.298   0.433   2.392
 3429SOL    HW111030   2.320   0.364   2.329
 3429SOL    HW211031   2.242   0.390   2.457
 3430SOL     OW11032   3.562   1.490   2.960
 3430SOL    HW111033   3.481   1.466   2.914
 3430SOL    HW211034   3.574   1.421   3.025
 3431SOL     OW11035   2.191   0.557   3.154
 3431SOL    HW111036   2.247   0.500   3.208
 3431SOL    HW211037   2.211   0.530   3.064
 3432SOL     OW11038   2.688   1.578   2.540
 3432SOL    HW111039   2.676   1.626   2.458
 3432SOL    HW211040   2.612   1.520   2.545
 3433SOL     OW11041   3.294   0.216   2.980
 3433SOL    HW111042   3.330   0.145   3.033
 3433SOL    HW211043   3.243   0.269   3.041
 3434SOL     OW11044   2.858   0.008   3.012
 3434SOL    HW111045   2.815   4.423   3.004
 3434SOL    HW211046   2.951   4.487   3.024
 3435SOL     OW11047   2.634   1.332   2.176
 3435SOL    HW111048   2.601   1.243   2.182
 3435SOL    HW211049   2.716   1.331   2.225
 3436SOL     OW11050   2.483   1.556   3.143
 3436SOL    HW111051   2.484   1.635   3.197
 3436SOL    HW211052   2.572   1.549   3.108
 3437SOL     OW11053   3.203   0.053   2.015
 3437SOL    HW111054   3.241   4.477   1.971
 3437SOL    HW211055   3.127   0.017   2.062
 3438SOL     OW11056   3.177   0.463   2.539
 3438SOL    HW111057   3.117   0.537   2.540
 3438SOL    HW211058   3.165   0.422   2.625
 3439SOL     OW11059   3.447   0.200   2.729
 3439SOL    HW111060   3.388   0.215   2.803
 3439SOL    HW211061   3.450   0.284   2.683
 3440SOL     OW11062   1.906   1.071   2.168
 3440SOL    HW111063   2.000   1.062   2.150
 3440SOL    HW211064   1.877   0.983   2.191
 3441SOL     OW11065   2.745   1.652   2.205
 3441SOL    HW111066   2.673   1.634   2.144
 3441SOL    HW211067   2.715   1.727   2.256
 3442SOL     OW11068   2.091   0.626   3.844
 3442SOL    HW111069   2.004   0.620   3.883
 3442SOL    HW211070   2.080   0.596   3.754
 3443SOL     OW11071   2.070   0.298   4.713
 3443SOL    HW111072   2.101   0.270   4.799
 3443SOL    HW211073   1.988   0.250   4.700
 3444SOL     OW11074   1.870   0.386   4.362
 3444SOL    HW111075   1.783   0.405   4.399
 3444SOL    HW211076   1.855   0.312   4.304
 3445SOL     OW11077   2.425   1.277   4.890
 3445SOL    HW111078   2.342   1.286   4.843
 3445SOL    HW211079   2.469   1.361   4.879
 3446SOL     OW11080   3.420   1.512   4.431
 3446SOL    HW111081   3.377   1.493   4.515
 3446SOL    HW211082   3.349   1.516   4.368
 3447SOL     OW11083   2.996   0.698   4.423
 3447SOL    HW111084   3.042   0.781   4.412
 3447SOL    HW211085   2.946   0.709   4.504
 3448SOL     OW11086   3.630   0.607   3.952
 3448SOL    HW111087   3.609   0.597   3.859
 3448SOL    HW211088   3.596   0.528   3.993
 3449SOL     OW11089   2.621   1.139   4.764
 3449SOL    HW111090   2.549   1.170   4.818
 3449SOL    HW211091   2.653   1.217   4.719
 3450SOL     OW11092   2.727   0.776   5.546
 3450SOL    HW111093   2.714   0.847   5.608
 3450SOL    HW211094   2.751   0.819   5.464
 3451SOL     OW11095   2.547   1.002   4.371
 3451SOL    HW111096   2.613   0.992   4.440
 3451SOL    HW211097   2.479   1.056   4.411
 3452SOL     OW11098   2.571   1.144   5.541
 3452SOL    HW111099   2.620   1.224   5.563
 3452SOL    HW211100   2.488   1.176   5.507
 3453SOL     OW11101   2.216   1.378   4.739
 3453SOL    HW111102   2.123   1.367   4.718
 3453SOL    HW211103   2.239   1.464   4.702
 3454SOL     OW11104   3.323   1.497   5.078
 3454SOL    HW111105   3.367   1.582   5.085
 3454SOL    HW211106   3.266   1.494   5.155
 3455SOL     OW11107   2.304   0.395   5.214
 3455SOL    HW111108   2.386   0.346   5.215
 3455SOL    HW211109   2.236   0.328   5.227
 3456SOL     OW11110   3.473   0.446   4.462
 3456SOL    HW111111   3.393   0.468   4.415
 3456SOL    HW211112   3.492   0.524   4.515
 3457SOL     OW11113   2.083   1.719   4.195
 3457SOL    HW111114   2.122   1.760   4.273
 3457SOL    HW211115   2.158   1.703   4.137
 3458SOL     OW11116   2.995   1.342   5.415
 3458SOL    HW111117   3.037   1.337   5.501
 3458SOL    HW211118   2.942   1.263   5.409
 3459SOL     OW11119   2.083   1.442   4.257
 3459SOL    HW111120   2.065   1.535   4.273
 3459SOL    HW211121   2.031   1.396   4.323
 3460SOL     OW11122   2.110   1.087   4.607
 3460SOL    HW111123   2.116   1.004   4.654
 3460SOL    HW211124   2.065   1.146   4.668
 3461SOL     OW11125   2.449   0.981   3.858
 3461SOL    HW111126   2.494   1.031   3.789
 3461SOL    HW211127   2.488   1.012   3.939
 3462SOL     OW11128   3.445   0.115   5.196
 3462SOL    HW111129   3.465   0.183   5.132
 3462SOL    HW211130   3.434   0.162   5.279
 3463SOL     OW11131   1.977   0.653   4.284
 3463SOL    HW111132   1.948   0.564   4.306
 3463SOL    HW211133   1.969   0.702   4.366
 3464SOL     OW11134   3.704   1.760   4.058
 3464SOL    HW111135   3.765   1.730   4.126
 3464SOL    HW211136   3.729   1.850   4.041
 3465SOL     OW11137   1.892   1.595   3.851
 3465SOL    HW111138   1.878   1.501   3.865
 3465SOL    HW211139   1.865   1.636   3.933
 3466SOL     OW11140   3.553   0.920   4.365
 3466SOL    HW111141   3.636   0.878   4.343
 3466SOL    HW211142   3.530   0.970   4.286
 3467SOL     OW11143   3.508   1.107   4.153
 3467SOL    HW111144   3.594   1.114   4.111
 3467SOL    HW211145   3.512   1.168   4.226
 3468SOL     OW11146   1.985   0.744   5.309
 3468SOL    HW111147   2.077   0.770   5.318
 3468SOL    HW211148   1.937   0.827   5.317
 3469SOL     OW11149   2.486   1.380   4.454
 3469SOL    HW111150   2.432   1.303   4.468
 3469SOL    HW211151   2.463   1.411   4.367
 3470SOL     OW11152   3.158   1.234   5.152
 3470SOL    HW111153   3.189   1.168   5.090
 3470SOL    HW211154   3.217   1.225   5.227
 3471SOL     OW11155   2.679   0.014   4.274
 3471SOL    HW111156   2.714   0.099   4.249
 3471SOL    HW211157   2.584   0.024   4.267
 3472SOL     OW11158   2.049   0.969   4.993
 3472SOL    HW111159   2.136   0.932   4.980
 3472SOL    HW211160   1.990   0.910   4.946
 3473SOL     OW11161   3.394   0.992   3.922
 3473SOL    HW111162   3.323   0.936   3.954
 3473SOL    HW211163   3.434   1.027   4.002
 3474SOL     OW11164   3.101   1.787   5.356
 3474SOL    HW111165   3.042   1.837   5.300
 3474SOL    HW211166   3.101   1.699   5.318
 3475SOL     OW11167   2.177   0.254   5.504
 3475SOL    HW111168   2.241   0.318   5.536
 3475SOL    HW211169   2.104   0.261   5.565
 3476SOL     OW11170   3.335   1.416   4.681
 3476SOL    HW111171   3.263   1.433   4.741
 3476SOL    HW211172   3.320   1.327   4.650
 3477SOL     OW11173   3.522   1.737   4.302
 3477SOL    HW111174   3.499   1.708   4.213
 3477SOL    HW211175   3.494   1.665   4.358
 3478SOL     OW11176   2.455   0.723   3.989
 3478SOL    HW111177   2.462   0.805   3.940
 3478SOL    HW211178   2.391   0.741   4.057
 3479SOL     OW11179   3.153   0.362   4.657
 3479SOL    HW111180   3.064   0.333   4.641
 3479SOL    HW211181   3.189   0.299   4.719
 3480SOL     OW11182   3.443   1.672   4.033
 3480SOL    HW111183   3.533   1.703   4.025
 3480SOL    HW211184   3.416   1.654   3.942
 3481SOL     OW11185   2.658   0.619   5.178
 3481SOL    HW111186   2.629   0.594   5.266
 3481SOL    HW211187   2.617   0.554   5.121
 3482SOL     OW11188   3.250   0.479   5.400
 3482SOL    HW111189   3.254   0.523   5.485
 3482SOL    HW211190   3.317   0.411   5.406
 3483SOL     OW11191   2.817   0.888   5.306
 3483SOL    HW111192   2.871   0.817   5.271
 3483SOL    HW211193   2.770   0.921   5.230
 3484SOL     OW11194   2.858   0.416   4.961
 3484SOL    HW111195   2.770   0.428   4.997
 3484SOL    HW211196   2.845   0.365   4.881
 3485SOL     OW11197   2.912   0.697   4.151
 3485SOL    HW111198   2.928   0.690   4.245
 3485SOL    HW211199   2.829   0.651   4.137
 3486SOL     OW11200   1.950   0.820   4.502
 3486SOL    HW111201   2.032   0.814   4.550
 3486SOL    HW211202   1.910   0.901   4.533
 3487SOL     OW11203   1.991   1.817   5.307
 3487SOL    HW111204   1.977   1.806   5.401
 3487SOL    HW211205   1.903   1.833   5.272
 3488SOL     OW11206   2.716   0.369   3.905
 3488SOL    HW111207   2.789   0.403   3.854
 3488SOL    HW211208   2.732   0.274   3.910
 3489SOL     OW11209   3.567   0.574   5.552
 3489SOL    HW111210   3.531   0.649   5.505
 3489SOL    HW211211   3.602   0.517   5.483
 3490SOL     OW11212   3.239   1.142   4.266
 3490SOL    HW111213   3.317   1.131   4.211
 3490SOL    HW211214   3.185   1.205   4.218
 3491SOL     OW11215   2.400   0.204   4.625
 3491SOL    HW111216   2.421   0.222   4.717
 3491SOL    HW211217   2.391   0.290   4.585
 3492SOL     OW11218   2.868   1.445   4.197
 3492SOL    HW111219   2.831   1.519   4.148
 3492SOL    HW211220   2.851   1.467   4.289
 3493SOL     OW11221   3.660   1.060   4.592
 3493SOL    HW111222   3.605   1.040   4.516
 3493SOL    HW211223   3.599   1.064   4.665
 3494SOL     OW11224   3.077   1.536   5.232
 3494SOL    HW111225   3.067   1.463   5.294
 3494SOL    HW211226   3.033   1.506   5.153
 3495SOL     OW11227   2.182   0.956   3.973
 3495SOL    HW111228   2.265   0.976   3.928
 3495SOL    HW211229   2.152   0.875   3.934
 3496SOL     OW11230   3.342   0.740   4.448
 3496SOL    HW111231   3.329   0.697   4.532
 3496SOL    HW211232   3.417   0.798   4.462
 3497SOL     OW11233   2.326   1.259   5.462
 3497SOL    HW111234   2.304   1.258   5.368
 3497SOL    HW211235   2.241   1.255   5.506
 3498SOL     OW11236   2.984   1.778   3.955
 3498SOL    HW111237   2.912   1.737   4.002
 3498SOL    HW211238   3.006   1.716   3.885
 3499SOL     OW11239   2.049   0.267   5.235
 3499SOL    HW111240   1.984   0.335   5.219
 3499SOL    HW211241   2.064   0.270   5.330
 3500SOL     OW11242   3.491   1.380   3.810
 3500SOL    HW111243   3.449   1.465   3.797
 3500SOL    HW211244   3.422   1.316   3.793
 3501SOL     OW11245   2.339   1.724   4.062
 3501SOL    HW111246   2.375   1.791   4.120
 3501SOL    HW211247   2.412   1.702   4.004
 3502SOL     OW11248   3.282   0.137   4.142
 3502SOL    HW111249   3.266   0.087   4.062
 3502SOL    HW211250   3.377   0.131   4.155
 3503SOL     OW11251   2.254   0.694   4.199
 3503SOL    HW111252   2.277   0.602   4.212
 3503SOL    HW211253   2.160   0.699   4.218
 3504SOL     OW11254   3.387   0.233   5.446
 3504SOL    HW111255   3.387   0.256   5.539
 3504SOL    HW211256   3.309   0.178   5.435
 3505SOL     OW11257   2.489   0.121   3.847
 3505SOL    HW111258   2.577   0.086   3.855
 3505SOL    HW211259   2.456   0.086   3.764
 3506SOL     OW11260   2.631   0.271   5.478
 3506SOL    HW111261   2.696   0.202   5.488
 3506SOL    HW211262   2.587   0.276   5.563
 3507SOL     OW11263   2.747   1.474   4.918
 3507SOL    HW111264   2.733   1.452   4.826
 3507SOL    HW211265   2.830   1.433   4.940
 3508SOL     OW11266   3.204   0.589   5.152
 3508SOL    HW111267   3.231   0.560   5.240
 3508SOL    HW211268   3.237   0.678   5.145
 3509SOL     OW11269   2.674   1.389   4.662
 3509SOL    HW111270   2.756   1.395   4.612
 3509SOL    HW211271   2.605   1.399   4.596
 3510SOL     OW11272   2.785   0.518   4.624
 3510SOL    HW111273   2.769   0.516   4.530
 3510SOL    HW211274   2.823   0.432   4.643
 3511SOL     OW11275   2.416   0.075   4.245
 3511SOL    HW111276   2.327   0.048   4.268
 3511SOL    HW211277   2.403   0.140   4.176
 3512SOL     OW11278   3.290   1.198   3.766
 3512SOL    HW111279   3.320   1.122   3.816
 3512SOL    HW211280   3.205   1.220   3.803
 3513SOL     OW11281   2.158   0.069   3.921
 3513SOL    HW111282   2.236   0.121   3.904
 3513SOL    HW211283   2.188   4.500   3.980
 3514SOL     OW11284   2.814   0.240   4.192
 3514SOL    HW111285   2.762   0.296   4.135
 3514SOL    HW211286   2.903   0.276   4.187
 3515SOL     OW11287   2.942   0.680   5.186
 3515SOL    HW111288   2.870   0.616   5.185
 3515SOL    HW211289   3.021   0.628   5.173
 3516SOL     OW11290   3.102   1.556   4.505
 3516SOL    HW111291   3.106   1.632   4.447
 3516SOL    HW211292   3.145   1.586   4.585
 3517SOL     OW11293   2.329   1.147   4.458
 3517SOL    HW111294   2.259   1.133   4.521
 3517SOL    HW211295   2.288   1.131   4.373
 3518SOL     OW11296   3.135   1.791   4.330
 3518SOL    HW111297   3.174   1.859   4.276
 3518SOL    HW211298   3.058   1.833   4.368
 3519SOL     OW11299   2.892   0.548   3.741
 3519SOL    HW111300   2.843   0.629   3.725
 3519SOL    HW211301   2.950   0.568   3.814
 3520SOL     OW11302   1.944   0.550   5.119
 3520SOL    HW111303   2.034   0.554   5.089
 3520SOL    HW211304   1.937   0.622   5.182
 3521SOL     OW11305   2.425   0.243   4.890
 3521SOL    HW111306   2.452   0.160   4.930
 3521SOL    HW211307   2.333   0.253   4.915
 3522SOL     OW11308   2.728   0.503   4.350
 3522SOL    HW111309   2.682   0.545   4.278
 3522SOL    HW211310   2.696   0.413   4.350
 3523SOL     OW11311   2.826   0.026   4.505
 3523SOL    HW111312   2.777   0.024   4.423
 3523SOL    HW211313   2.838   4.433   4.528
 3524SOL     OW11314   3.301   1.161   4.581
 3524SOL    HW111315   3.227   1.100   4.582
 3524SOL    HW211316   3.320   1.175   4.488
 3525SOL     OW11317   3.328   0.604   4.699
 3525SOL    HW111318   3.275   0.525   4.702
 3525SOL    HW211319   3.386   0.597   4.775
 3526SOL     OW11320   3.709   0.817   4.106
 3526SOL    HW111321   3.764   0.765   4.165
 3526SOL    HW211322   3.680   0.755   4.039
 3527SOL     OW11323   2.353   1.417   3.882
 3527SOL    HW111324   2.279   1.388   3.934
 3527SOL    HW211325   2.336   1.382   3.794
 3528SOL     OW11326   3.532   1.266   4.368
 3528SOL    HW111327   3.626   1.271   4.384
 3528SOL    HW211328   3.499   1.353   4.391
 3529SOL     OW11329   3.256   0.570   3.794
 3529SOL    HW111330   3.194   0.555   3.865
 3529SOL    HW211331   3.342   0.551   3.832
 3530SOL     OW11332   2.384   0.265   4.048
 3530SOL    HW111333   2.431   0.214   3.982
 3530SOL    HW211334   2.367   0.349   4.005
 3531SOL     OW11335   3.615   1.238   5.298
 3531SOL    HW111336   3.702   1.199   5.294
 3531SOL    HW211337   3.630   1.328   5.327
 3532SOL     OW11338   2.933   1.344   5.064
 3532SOL    HW111339   2.855   1.315   5.113
 3532SOL    HW211340   3.006   1.298   5.106
 3533SOL     OW11341   3.470   1.623   5.377
 3533SOL    HW111342   3.464   1.660   5.289
 3533SOL    HW211343   3.553   1.576   5.378
 3534SOL     OW11344   2.992   1.200   4.828
 3534SOL    HW111345   2.929   1.234   4.891
 3534SOL    HW211346   2.962   1.235   4.744
 3535SOL     OW11347   3.490   1.098   4.802
 3535SOL    HW111348   3.485   1.161   4.874
 3535SOL    HW211349   3.412   1.115   4.749
 3536SOL     OW11350   2.765   0.132   5.113
 3536SOL    HW111351   2.787   0.089   5.030
 3536SOL    HW211352   2.849   0.147   5.155
 3537SOL     OW11353   2.848   1.113   5.446
 3537SOL    HW111354   2.757   1.131   5.468
 3537SOL    HW211355   2.845   1.036   5.390
 3538SOL     OW11356   2.570   1.061   4.095
 3538SOL    HW111357   2.556   1.046   4.189
 3538SOL    HW211358   2.646   1.007   4.073
 3539SOL     OW11359   2.278   0.817   4.977
 3539SOL    HW111360   2.349   0.826   5.042
 3539SOL    HW211361   2.245   0.729   4.990
 3540SOL     OW11362   3.131   0.375   4.997
 3540SOL    HW111363   3.163   0.454   5.041
 3540SOL    HW211364   3.041   0.398   4.970
 3541SOL     OW11365   2.208   1.109   4.215
 3541SOL    HW111366   2.219   1.182   4.154
 3541SOL    HW211367   2.208   1.031   4.159
 3542SOL     OW11368   2.418   0.530   4.582
 3542SOL    HW111369   2.432   0.589   4.508
 3542SOL    HW211370   2.482   0.559   4.648
 3543SOL     OW11371   3.110   1.349   4.113
 3543SOL    HW111372   3.165   1.420   4.145
 3543SOL    HW211373   3.023   1.369   4.148
 3544SOL     OW11374   3.143   1.453   4.868
 3544SOL    HW111375   3.196   1.456   4.947
 3544SOL    HW211376   3.087   1.376   4.879
 3545SOL     OW11377   3.444   0.624   4.201
 3545SOL    HW111378   3.398   0.673   4.268
 3545SOL    HW211379   3.487   0.691   4.147
 3546SOL     OW11380   2.276   0.743   5.326
 3546SOL    HW111381   2.335   0.790   5.267
 3546SOL    HW211382   2.321   0.660   5.344
 3547SOL     OW11383   3.463   0.778   5.405
 3547SOL    HW111384   3.377   0.819   5.398
 3547SOL    HW211385   3.515   0.820   5.336
 3548SOL     OW11386   2.867   0.084   5.445
 3548SOL    HW111387   2.895   0.168   5.407
 3548SOL    HW211388   2.892   0.019   5.379
 3549SOL     OW11389   2.360   0.046   5.483
 3549SOL    HW111390   2.358   0.005   5.397
 3549SOL    HW211391   2.293   0.114   5.479
 3550SOL     OW11392   2.444   0.873   4.755
 3550SOL    HW111393   2.476   0.963   4.751
 3550SOL    HW211394   2.388   0.871   4.833
 3551SOL     OW11395   3.221   0.858   4.756
 3551SOL    HW111396   3.138   0.851   4.709
 3551SOL    HW211397   3.260   0.771   4.748
 3552SOL     OW11398   3.066   0.535   3.987
 3552SOL    HW111399   3.072   0.455   4.039
 3552SOL    HW211400   3.023   0.598   4.045
 3553SOL     OW11401   2.152   0.234   4.965
 3553SOL    HW111402   2.109   0.249   5.049
 3553SOL    HW211403   2.187   0.145   4.972
 3554SOL     OW11404   2.585   0.631   4.782
 3554SOL    HW111405   2.659   0.613   4.724
 3554SOL    HW211406   2.558   0.720   4.759
 3555SOL     OW11407   3.596   0.959   5.576
 3555SOL    HW111408   3.549   0.900   5.517
 3555SOL    HW211409   3.537   0.972   5.650
 3556SOL     OW11410   2.159   0.055   4.378
 3556SOL    HW111411   2.149   0.150   4.380
 3556SOL    HW211412   2.171   0.030   4.469
 3557SOL     OW11413   3.476   0.378   4.087
 3557SOL    HW111414   3.505   0.314   4.153
 3557SOL    HW211415   3.453   0.456   4.138
 3558SOL     OW11416   2.892   0.761   4.686
 3558SOL    HW111417   2.888   0.777   4.780
 3558SOL    HW211418   2.862   0.671   4.676
 3559SOL     OW11419   2.844   1.575   5.441
 3559SOL    HW111420   2.816   1.616   5.359
 3559SOL    HW211421   2.878   1.489   5.415
 3560SOL     OW11422   3.718   1.506   5.330
 3560SOL    HW111423   3.734   1.532   5.239
 3560SOL    HW211424   3.799   1.526   5.376
 3561SOL     OW11425   2.216   0.917   5.531
 3561SOL    HW111426   2.298   0.934   5.579
 3561SOL    HW211427   2.241   0.854   5.463
 3562SOL     OW11428   3.393   0.265   3.852
 3562SOL    HW111429   3.321   0.209   3.881
 3562SOL    HW211430   3.422   0.310   3.931
 3563SOL     OW11431   3.154   0.826   3.755
 3563SOL    HW111432   3.196   0.740   3.757
 3563SOL    HW211433   3.185   0.866   3.673
 3564SOL     OW11434   2.937   1.331   4.582
 3564SOL    HW111435   2.934   1.262   4.516
 3564SOL    HW211436   2.993   1.399   4.543
 3565SOL     OW11437   2.172   0.810   4.672
 3565SOL    HW111438   2.265   0.833   4.665
 3565SOL    HW211439   2.172   0.720   4.706
 3566SOL     OW11440   2.199   0.531   4.738
 3566SOL    HW111441   2.156   0.448   4.718
 3566SOL    HW211442   2.275   0.534   4.679
 3567SOL     OW11443   2.997   0.373   5.420
 3567SOL    HW111444   2.948   0.438   5.470
 3567SOL    HW211445   3.083   0.414   5.406
 3568SOL     OW11446   3.020   0.212   5.197
 3568SOL    HW111447   3.013   0.276   5.268
 3568SOL    HW211448   3.058   0.261   5.125
 3569SOL     OW11449   1.867   1.321   3.918
 3569SOL    HW111450   1.779   1.335   3.881
 3569SOL    HW211451   1.864   1.232   3.952
 3570SOL     OW11452   2.847   0.792   4.951
 3570SOL    HW111453   2.901   0.769   5.027
 3570SOL    HW211454   2.761   0.755   4.971
 3571SOL     OW11455   1.895   0.542   4.842
 3571SOL    HW111456   1.973   0.525   4.789
 3571SOL    HW211457   1.928   0.547   4.932
 3572SOL     OW11458   2.047   0.519   5.445
 3572SOL    HW111459   2.122   0.499   5.389
 3572SOL    HW211460   2.006   0.595   5.403
 3573SOL     OW11461   3.239   0.939   5.383
 3573SOL    HW111462   3.260   1.032   5.382
 3573SOL    HW211463   3.235   0.914   5.291
 3574SOL     OW11464   2.673   0.575   4.079
 3574SOL    HW111465   2.676   0.503   4.016
 3574SOL    HW211466   2.599   0.629   4.050
 3575SOL     OW11467   3.502   0.601   4.911
 3575SOL    HW111468   3.492   0.542   4.985
 3575SOL    HW211469   3.590   0.582   4.877
 3576SOL     OW11470   2.117   1.544   5.444
 3576SOL    HW111471   2.091   1.613   5.505
 3576SOL    HW211472   2.108   1.463   5.493
 3577SOL     OW11473   2.559   0.459   4.988
 3577SOL    HW111474   2.513   0.382   4.955
 3577SOL    HW211475   2.560   0.520   4.914
 3578SOL     OW11476   2.327   0.493   3.908
 3578SOL    HW111477   2.386   0.565   3.930
 3578SOL    HW211478   2.241   0.534   3.897
 3579SOL     OW11479   1.999   1.139   5.199
 3579SOL    HW111480   2.009   1.084   5.276
 3579SOL    HW211481   2.018   1.081   5.125
 3580SOL     OW11482   3.189   1.047   4.948
 3580SOL    HW111483   3.212   0.984   4.880
 3580SOL    HW211484   3.118   1.099   4.909
 3581SOL     OW11485   3.175   0.856   4.030
 3581SOL    HW111486   3.099   0.829   4.082
 3581SOL    HW211487   3.147   0.843   3.939
 3582SOL     OW11488   3.634   1.744   4.874
 3582SOL    HW111489   3.694   1.770   4.803
 3582SOL    HW211490   3.609   1.655   4.853
 3583SOL     OW11491   3.125   1.732   4.862
 3583SOL    HW111492   3.196   1.749   4.800
 3583SOL    HW211493   3.115   1.636   4.861
 3584SOL     OW11494   1.949   1.258   4.749
 3584SOL    HW111495   1.926   1.255   4.842
 3584SOL    HW211496   1.874   1.219   4.705
 3585SOL     OW11497   3.580   0.130   4.217
 3585SOL    HW111498   3.652   0.137   4.155
 3585SOL    HW211499   3.606   0.058   4.275
 3586SOL     OW11500   3.253   1.567   4.206
 3586SOL    HW111501   3.312   1.603   4.140
 3586SOL    HW211502   3.205   1.643   4.238
 3587SOL     OW11503   2.000   1.767   5.577
 3587SOL    HW111504   1.963   1.711   5.645
 3587SOL    HW211505   2.044   1.837   5.625
 3588SOL     OW11506   3.140   0.926   4.395
 3588SOL    HW111507   3.214   0.865   4.400
 3588SOL    HW211508   3.173   1.000   4.344
 3589SOL     OW11509   2.685   1.267   5.159
 3589SOL    HW111510   2.654   1.300   5.244
 3589SOL    HW211511   2.619   1.295   5.096
 3590SOL     OW11512   2.533   1.619   3.880
 3590SOL    HW111513   2.543   1.632   3.786
 3590SOL    HW211514   2.479   1.541   3.888
 3591SOL     OW11515   3.493   1.728   5.117
 3591SOL    HW111516   3.539   1.735   5.034
 3591SOL    HW211517   3.476   1.818   5.144
 3592SOL     OW11518   3.701   0.154   4.690
 3592SOL    HW111519   3.732   0.078   4.642
 3592SOL    HW211520   3.614   0.172   4.654
 3593SOL     OW11521   2.127   0.322   4.441
 3593SOL    HW111522   2.041   0.357   4.414
 3593SOL    HW211523   2.120   0.314   4.537
 3594SOL     OW11524   3.070   1.606   3.755
 3594SOL    HW111525   3.060   1.515   3.784
 3594SOL    HW211526   3.003   1.617   3.687
 3595SOL     OW11527   2.686   1.004   5.095
 3595SOL    HW111528   2.727   1.000   5.008
 3595SOL    HW211529   2.688   1.096   5.118
 3596SOL     OW11530   2.777   0.909   4.013
 3596SOL    HW111531   2.839   0.942   3.948
 3596SOL    HW211532   2.824   0.840   4.059
 3597SOL     OW11533   3.355   1.625   3.766
 3597SOL    HW111534   3.260   1.619   3.754
 3597SOL    HW211535   3.390   1.631   3.678
 3598SOL     OW11536   2.241   1.273   5.210
 3598SOL    HW111537   2.228   1.363   5.178
 3598SOL    HW211538   2.159   1.228   5.192
 3599SOL     OW11539   3.475   1.283   5.005
 3599SOL    HW111540   3.531   1.273   5.081
 3599SOL    HW211541   3.413   1.352   5.030
 3600SOL     OW11542   2.913   1.106   4.427
 3600SOL    HW111543   2.841   1.057   4.468
 3600SOL    HW211544   2.974   1.039   4.398
 3601SOL     OW11545   2.868   0.243   4.728
 3601SOL    HW111546   2.874   0.220   4.635
 3601SOL    HW211547   2.860   0.160   4.773
 3602SOL     OW11548   2.462   1.490   4.201
 3602SOL    HW111549   2.504   1.438   4.132
 3602SOL    HW211550   2.398   1.543   4.154
 3603SOL     OW11551   3.583   0.394   5.101
 3603SOL    HW111552   3.656   0.456   5.100
 3603SOL    HW211553   3.612   0.322   5.045
 3604SOL     OW11554   2.120   1.346   4.011
 3604SOL    HW111555   2.027   1.343   3.989
 3604SOL    HW211556   2.122   1.383   4.099
 3605SOL     OW11557   1.975   1.023   5.449
 3605SOL    HW111558   1.899   0.997   5.501
 3605SOL    HW211559   2.049   0.982   5.494
 3606SOL     OW11560   2.520   0.203   5.223
 3606SOL    HW111561   2.599   0.179   5.175
 3606SOL    HW211562   2.550   0.225   5.311
 3607SOL     OW11563   1.943   0.339   3.771
 3607SOL    HW111564   1.872   0.286   3.734
 3607SOL    HW211565   1.957   0.408   3.706
 3608SOL     OW11566   3.292   0.858   5.124
 3608SOL    HW111567   3.243   0.918   5.068
 3608SOL    HW211568   3.381   0.861   5.089
 3609SOL     OW11569   1.926   0.183   4.044
 3609SOL    HW111570   1.925   0.250   3.975
 3609SOL    HW211571   2.001   0.127   4.022
 3610SOL     OW11572   3.041   1.340   3.841
 3610SOL    HW111573   2.950   1.310   3.844
 3610SOL    HW211574   3.069   1.341   3.933
 3611SOL     OW11575   2.481   0.830   5.157
 3611SOL    HW111576   2.536   0.907   5.141
 3611SOL    HW211577   2.543   0.758   5.166
 3612SOL     OW11578   3.348   1.778   4.700
 3612SOL    HW111579   3.373   1.834   4.626
 3612SOL    HW211580   3.430   1.758   4.744
 3613SOL     OW11581   2.577   0.564   5.430
 3613SOL    HW111582   2.616   0.628   5.489
 3613SOL    HW211583   2.611   0.480   5.462
 3614SOL     OW11584   3.335   1.199   5.358
 3614SOL    HW111585   3.322   1.214   5.452
 3614SOL    HW211586   3.429   1.215   5.344
 3615SOL     OW11587   2.248   1.761   5.321
 3615SOL    HW111588   2.164   1.799   5.294
 3615SOL    HW211589   2.224   1.675   5.356
 3616SOL     OW11590   3.532   0.881   4.979
 3616SOL    HW111591   3.524   0.797   4.936
 3616SOL    HW211592   3.522   0.946   4.909
 3617SOL     OW11593   3.080   0.329   4.172
 3617SOL    HW111594   3.146   0.260   4.161
 3617SOL    HW211595   3.108   0.377   4.250
 3618SOL     OW11596   2.450   0.737   4.394
 3618SOL    HW111597   2.490   0.823   4.381
 3618SOL    HW211598   2.382   0.732   4.326
 3619SOL     OW11599   3.625   0.365   5.368
 3619SOL    HW111600   3.609   0.378   5.274
 3619SOL    HW211601   3.547   0.319   5.399
 3620SOL     OW11602   3.608   0.933   5.236
 3620SOL    HW111603   3.604   1.028   5.249
 3620SOL    HW211604   3.592   0.921   5.143
 3621SOL     OW11605   2.724   1.367   3.756
 3621SOL    HW111606   2.687   1.391   3.841
 3621SOL    HW211607   2.741   1.451   3.714
 3622SOL     OW11608   2.730   0.966   4.578
 3622SOL    HW111609   2.781   0.896   4.619
 3622SOL    HW211610   2.696   1.018   4.652
 3623SOL     OW11611   2.942   0.988   3.813
 3623SOL    HW111612   2.919   1.039   3.735
 3623SOL    HW211613   3.016   0.935   3.786
 3624SOL     OW11614   3.716   1.556   4.569
 3624SOL    HW111615   3.638   1.544   4.514
 3624SOL    HW211616   3.707   1.488   4.637
 3625SOL     OW11617   2.081   1.301   5.578
 3625SOL    HW111618   2.026   1.230   5.544
 3625SOL    HW211619   2.050   1.313   5.668
 3626SOL     OW11620   1.948   1.231   4.387
 3626SOL    HW111621   1.956   1.184   4.471
 3626SOL    HW211622   2.015   1.192   4.331
 3627SOL     OW11623   2.555   1.381   5.368
 3627SOL    HW111624   2.478   1.335   5.402
 3627SOL    HW211625   2.520   1.461   5.329
 3628SOL     OW11626   3.670   0.181   4.963
 3628SOL    HW111627   3.669   0.088   4.983
 3628SOL    HW211628   3.687   0.186   4.869
 3629SOL     OW11629   2.298   0.433   4.254
 3629SOL    HW111630   2.320   0.364   4.191
 3629SOL    HW211631   2.242   0.390   4.318
 3630SOL     OW11632   3.563   1.490   4.822
 3630SOL    HW111633   3.483   1.467   4.775
 3630SOL    HW211634   3.573   1.420   4.887
 3631SOL     OW11635   2.191   0.556   5.016
 3631SOL    HW111636   2.247   0.501   5.069
 3631SOL    HW211637   2.211   0.531   4.925
 3632SOL     OW11638   2.691   1.579   4.397
 3632SOL    HW111639   2.665   1.614   4.312
 3632SOL    HW211640   2.617   1.525   4.424
 3633SOL     OW11641   3.294   0.216   4.842
 3633SOL    HW111642   3.330   0.145   4.895
 3633SOL    HW211643   3.243   0.269   4.903
 3634SOL     OW11644   2.858   0.008   4.874
 3634SOL    HW111645   2.816   4.422   4.866
 3634SOL    HW211646   2.951   4.487   4.885
 3635SOL     OW11647   2.636   1.332   4.034
 3635SOL    HW111648   2.604   1.242   4.044
 3635SOL    HW211649   2.714   1.335   4.089
 3636SOL     OW11650   3.203   0.053   3.877
 3636SOL    HW111651   3.241   4.477   3.833
 3636SOL    HW211652   3.127   0.018   3.924
 3637SOL     OW11653   3.176   0.462   4.401
 3637SOL    HW111654   3.117   0.538   4.402
 3637SOL    HW211655   3.164   0.422   4.487
 3638SOL     OW11656   3.447   0.200   4.591
 3638SOL    HW111657   3.388   0.215   4.665
 3638SOL    HW211658   3.450   0.284   4.545
 3639SOL     OW11659   1.905   1.072   4.029
 3639SOL    HW111660   1.999   1.064   4.013
 3639SOL    HW211661   1.877   0.983   4.052
 3640SOL     OW11662   2.747   1.653   4.065
 3640SOL    HW111663   2.674   1.634   4.006
 3640SOL    HW211664   2.716   1.727   4.118
 3641SOL     OW11665   2.091   0.627   5.706
 3641SOL    HW111666   2.004   0.619   5.745
 3641SOL    HW211667   2.080   0.596   5.616
 3642SOL     OW11668   2.070   0.298   6.575
 3642SOL    HW111669   2.101   0.270   6.661
 3642SOL    HW211670   1.988   0.250   6.562
 3643SOL     OW11671   1.870   0.386   6.224
 3643SOL    HW111672   1.783   0.405   6.261
 3643SOL    HW211673   1.855   0.312   6.166
 3644SOL     OW11674   2.429   1.285   6.762
 3644SOL    HW111675   2.343   1.286   6.722
 3644SOL    HW211676   2.445   1.375   6.788
 3645SOL     OW11677   3.421   1.512   6.293
 3645SOL    HW111678   3.378   1.492   6.376
 3645SOL    HW211679   3.350   1.516   6.229
 3646SOL     OW11680   2.996   0.699   6.285
 3646SOL    HW111681   3.042   0.782   6.275
 3646SOL    HW211682   2.946   0.709   6.366
 3647SOL     OW11683   3.629   0.607   5.814
 3647SOL    HW111684   3.608   0.598   5.721
 3647SOL    HW211685   3.596   0.527   5.854
 3648SOL     OW11686   2.621   1.145   6.628
 3648SOL    HW111687   2.549   1.178   6.682
 3648SOL    HW211688   2.657   1.223   6.586
 3649SOL     OW11689   2.727   0.776   7.408
 3649SOL    HW111690   2.714   0.847   7.470
 3649SOL    HW211691   2.751   0.819   7.326
 3650SOL     OW11692   2.548   1.005   6.235
 3650SOL    HW111693   2.612   0.992   6.305
 3650SOL    HW211694   2.479   1.059   6.274
 3651SOL     OW11695   2.572   1.151   7.398
 3651SOL    HW111696   2.620   1.230   7.424
 3651SOL    HW211697   2.489   1.184   7.363
 3652SOL     OW11698   2.189   1.428   6.659
 3652SOL    HW111699   2.118   1.400   6.600
 3652SOL    HW211700   2.255   1.465   6.601
 3653SOL     OW11701   3.323   1.499   6.940
 3653SOL    HW111702   3.372   1.580   6.950
 3653SOL    HW211703   3.262   1.498   7.013
 3654SOL     OW11704   2.304   0.395   7.076
 3654SOL    HW111705   2.386   0.346   7.077
 3654SOL    HW211706   2.236   0.329   7.089
 3655SOL     OW11707   3.473   0.446   6.324
 3655SOL    HW111708   3.393   0.468   6.277
 3655SOL    HW211709   3.492   0.524   6.377
 3656SOL     OW11710   2.999   1.341   7.278
 3656SOL    HW111711   3.038   1.337   7.365
 3656SOL    HW211712   2.946   1.262   7.272
 3657SOL     OW11713   2.116   1.093   6.475
 3657SOL    HW111714   2.115   1.006   6.516
 3657SOL    HW211715   2.059   1.146   6.530
 3658SOL     OW11716   2.477   1.780   7.022
 3658SOL    HW111717   2.391   1.770   7.064
 3658SOL    HW211718   2.498   1.873   7.034
 3659SOL     OW11719   2.446   0.980   5.722
 3659SOL    HW111720   2.494   1.028   5.654
 3659SOL    HW211721   2.486   1.009   5.804
 3660SOL     OW11722   3.445   0.115   7.058
 3660SOL    HW111723   3.465   0.183   6.994
 3660SOL    HW211724   3.434   0.162   7.141
 3661SOL     OW11725   1.978   0.653   6.146
 3661SOL    HW111726   1.948   0.564   6.168
 3661SOL    HW211727   1.969   0.702   6.228
 3662SOL     OW11728   3.704   1.760   5.920
 3662SOL    HW111729   3.766   1.731   5.988
 3662SOL    HW211730   3.729   1.850   5.903
 3663SOL     OW11731   3.553   0.921   6.227
 3663SOL    HW111732   3.636   0.878   6.206
 3663SOL    HW211733   3.530   0.970   6.148
 3664SOL     OW11734   3.508   1.107   6.015
 3664SOL    HW111735   3.593   1.114   5.973
 3664SOL    HW211736   3.512   1.168   6.089
 3665SOL     OW11737   1.984   0.745   7.171
 3665SOL    HW111738   2.076   0.770   7.180
 3665SOL    HW211739   1.935   0.826   7.178
 3666SOL     OW11740   3.151   1.239   7.009
 3666SOL    HW111741   3.183   1.171   6.949
 3666SOL    HW211742   3.208   1.232   7.086
 3667SOL     OW11743   2.679   0.014   6.136
 3667SOL    HW111744   2.714   0.099   6.111
 3667SOL    HW211745   2.584   0.024   6.129
 3668SOL     OW11746   2.052   0.966   6.857
 3668SOL    HW111747   2.137   0.925   6.842
 3668SOL    HW211748   1.990   0.912   6.809
 3669SOL     OW11749   3.394   0.992   5.784
 3669SOL    HW111750   3.323   0.935   5.815
 3669SOL    HW211751   3.434   1.027   5.864
 3670SOL     OW11752   3.049   1.806   7.208
 3670SOL    HW111753   3.061   1.863   7.132
 3670SOL    HW211754   3.063   1.718   7.174
 3671SOL     OW11755   2.177   0.254   7.366
 3671SOL    HW111756   2.241   0.318   7.399
 3671SOL    HW211757   2.104   0.260   7.427
 3672SOL     OW11758   3.331   1.418   6.541
 3672SOL    HW111759   3.261   1.434   6.604
 3672SOL    HW211760   3.317   1.328   6.512
 3673SOL     OW11761   3.522   1.737   6.164
 3673SOL    HW111762   3.500   1.709   6.075
 3673SOL    HW211763   3.496   1.664   6.219
 3674SOL     OW11764   2.455   0.723   5.851
 3674SOL    HW111765   2.462   0.804   5.801
 3674SOL    HW211766   2.390   0.741   5.919
 3675SOL     OW11767   3.153   0.363   6.519
 3675SOL    HW111768   3.064   0.332   6.504
 3675SOL    HW211769   3.189   0.299   6.581
 3676SOL     OW11770   3.443   1.669   5.895
 3676SOL    HW111771   3.533   1.702   5.887
 3676SOL    HW211772   3.416   1.653   5.804
 3677SOL     OW11773   2.657   0.619   7.040
 3677SOL    HW111774   2.629   0.594   7.128
 3677SOL    HW211775   2.617   0.554   6.983
 3678SOL     OW11776   3.251   0.479   7.262
 3678SOL    HW111777   3.254   0.523   7.347
 3678SOL    HW211778   3.317   0.410   7.268
 3679SOL     OW11779   2.818   0.888   7.168
 3679SOL    HW111780   2.871   0.817   7.133
 3679SOL    HW211781   2.770   0.921   7.093
 3680SOL     OW11782   2.858   0.417   6.823
 3680SOL    HW111783   2.770   0.427   6.859
 3680SOL    HW211784   2.845   0.365   6.743
 3681SOL     OW11785   2.912   0.697   6.013
 3681SOL    HW111786   2.928   0.690   6.107
 3681SOL    HW211787   2.829   0.651   5.999
 3682SOL     OW11788   1.951   0.821   6.362
 3682SOL    HW111789   2.032   0.814   6.413
 3682SOL    HW211790   1.907   0.899   6.397
 3683SOL     OW11791   1.967   1.799   7.153
 3683SOL    HW111792   1.974   1.793   7.248
 3683SOL    HW211793   1.877   1.830   7.138
 3684SOL     OW11794   2.717   0.369   5.768
 3684SOL    HW111795   2.789   0.404   5.716
 3684SOL    HW211796   2.733   0.275   5.771
 3685SOL     OW11797   3.567   0.574   7.414
 3685SOL    HW111798   3.531   0.649   7.367
 3685SOL    HW211799   3.602   0.517   7.345
 3686SOL     OW11800   3.238   1.143   6.127
 3686SOL    HW111801   3.317   1.130   6.074
 3686SOL    HW211802   3.185   1.205   6.077
 3687SOL     OW11803   2.400   0.204   6.487
 3687SOL    HW111804   2.421   0.222   6.579
 3687SOL    HW211805   2.392   0.290   6.447
 3688SOL     OW11806   2.867   1.459   6.052
 3688SOL    HW111807   2.786   1.504   6.026
 3688SOL    HW211808   2.872   1.474   6.147
 3689SOL     OW11809   3.660   1.060   6.454
 3689SOL    HW111810   3.606   1.040   6.378
 3689SOL    HW211811   3.598   1.064   6.527
 3690SOL     OW11812   3.090   1.539   7.099
 3690SOL    HW111813   3.076   1.466   7.160
 3690SOL    HW211814   3.026   1.524   7.029
 3691SOL     OW11815   2.181   0.955   5.834
 3691SOL    HW111816   2.264   0.974   5.792
 3691SOL    HW211817   2.152   0.873   5.795
 3692SOL     OW11818   3.341   0.742   6.311
 3692SOL    HW111819   3.329   0.697   6.395
 3692SOL    HW211820   3.418   0.797   6.324
 3693SOL     OW11821   2.328   1.264   7.325
 3693SOL    HW111822   2.301   1.269   7.233
 3693SOL    HW211823   2.246   1.262   7.374
 3694SOL     OW11824   3.012   1.732   5.808
 3694SOL    HW111825   2.930   1.693   5.839
 3694SOL    HW211826   3.035   1.680   5.731
 3695SOL     OW11827   2.050   0.268   7.097
 3695SOL    HW111828   1.984   0.335   7.081
 3695SOL    HW211829   2.064   0.270   7.192
 3696SOL     OW11830   3.491   1.380   5.673
 3696SOL    HW111831   3.450   1.465   5.658
 3696SOL    HW211832   3.422   1.316   5.655
 3697SOL     OW11833   3.282   0.137   6.004
 3697SOL    HW111834   3.266   0.087   5.924
 3697SOL    HW211835   3.377   0.131   6.017
 3698SOL     OW11836   2.090   1.764   6.803
 3698SOL    HW111837   2.153   1.727   6.866
 3698SOL    HW211838   2.130   1.750   6.717
 3699SOL     OW11839   2.254   0.695   6.062
 3699SOL    HW111840   2.277   0.603   6.074
 3699SOL    HW211841   2.160   0.699   6.080
 3700SOL     OW11842   3.387   0.233   7.308
 3700SOL    HW111843   3.387   0.256   7.401
 3700SOL    HW211844   3.310   0.178   7.297
 3701SOL     OW11845   2.489   0.121   5.709
 3701SOL    HW111846   2.577   0.086   5.717
 3701SOL    HW211847   2.456   0.086   5.626
 3702SOL     OW11848   2.631   0.271   7.340
 3702SOL    HW111849   2.696   0.202   7.350
 3702SOL    HW211850   2.587   0.275   7.425
 3703SOL     OW11851   2.745   1.530   6.775
 3703SOL    HW111852   2.724   1.487   6.692
 3703SOL    HW211853   2.809   1.473   6.816
 3704SOL     OW11854   3.203   0.589   7.015
 3704SOL    HW111855   3.231   0.560   7.102
 3704SOL    HW211856   3.238   0.678   7.007
 3705SOL     OW11857   2.691   1.400   6.536
 3705SOL    HW111858   2.769   1.384   6.482
 3705SOL    HW211859   2.620   1.409   6.473
 3706SOL     OW11860   2.785   0.518   6.486
 3706SOL    HW111861   2.769   0.516   6.391
 3706SOL    HW211862   2.823   0.432   6.505
 3707SOL     OW11863   2.416   0.076   6.107
 3707SOL    HW111864   2.327   0.048   6.130
 3707SOL    HW211865   2.403   0.141   6.038
 3708SOL     OW11866   3.291   1.199   5.628
 3708SOL    HW111867   3.320   1.122   5.678
 3708SOL    HW211868   3.204   1.219   5.664
 3709SOL     OW11869   2.157   0.069   5.783
 3709SOL    HW111870   2.236   0.121   5.765
 3709SOL    HW211871   2.188   4.500   5.842
 3710SOL     OW11872   2.814   0.240   6.054
 3710SOL    HW111873   2.762   0.295   5.996
 3710SOL    HW211874   2.903   0.276   6.049
 3711SOL     OW11875   2.942   0.680   7.047
 3711SOL    HW111876   2.870   0.616   7.047
 3711SOL    HW211877   3.021   0.628   7.035
 3712SOL     OW11878   3.098   1.556   6.370
 3712SOL    HW111879   3.105   1.631   6.310
 3712SOL    HW211880   3.152   1.581   6.445
 3713SOL     OW11881   2.332   1.149   6.320
 3713SOL    HW111882   2.261   1.133   6.382
 3713SOL    HW211883   2.292   1.137   6.234
 3714SOL     OW11884   3.132   1.789   6.191
 3714SOL    HW111885   3.181   1.848   6.135
 3714SOL    HW211886   3.068   1.845   6.235
 3715SOL     OW11887   2.891   0.548   5.603
 3715SOL    HW111888   2.843   0.629   5.587
 3715SOL    HW211889   2.950   0.568   5.675
 3716SOL     OW11890   1.944   0.550   6.981
 3716SOL    HW111891   2.034   0.554   6.951
 3716SOL    HW211892   1.936   0.622   7.044
 3717SOL     OW11893   2.425   0.243   6.752
 3717SOL    HW111894   2.452   0.161   6.792
 3717SOL    HW211895   2.333   0.253   6.777
 3718SOL     OW11896   2.728   0.504   6.212
 3718SOL    HW111897   2.682   0.544   6.139
 3718SOL    HW211898   2.696   0.413   6.213
 3719SOL     OW11899   2.826   0.026   6.367
 3719SOL    HW111900   2.777   0.024   6.285
 3719SOL    HW211901   2.839   4.434   6.390
 3720SOL     OW11902   3.298   1.163   6.443
 3720SOL    HW111903   3.230   1.095   6.442
 3720SOL    HW211904   3.322   1.175   6.351
 3721SOL     OW11905   3.328   0.605   6.562
 3721SOL    HW111906   3.275   0.525   6.564
 3721SOL    HW211907   3.386   0.597   6.637
 3722SOL     OW11908   3.708   0.817   5.968
 3722SOL    HW111909   3.764   0.765   6.027
 3722SOL    HW211910   3.680   0.755   5.902
 3723SOL     OW11911   2.358   1.390   5.718
 3723SOL    HW111912   2.294   1.343   5.772
 3723SOL    HW211913   2.338   1.362   5.628
 3724SOL     OW11914   3.532   1.265   6.232
 3724SOL    HW111915   3.626   1.269   6.246
 3724SOL    HW211916   3.500   1.353   6.253
 3725SOL     OW11917   3.256   0.570   5.656
 3725SOL    HW111918   3.195   0.555   5.727
 3725SOL    HW211919   3.342   0.551   5.694
 3726SOL     OW11920   2.384   0.266   5.910
 3726SOL    HW111921   2.431   0.214   5.844
 3726SOL    HW211922   2.367   0.349   5.867
 3727SOL     OW11923   3.615   1.238   7.160
 3727SOL    HW111924   3.702   1.199   7.157
 3727SOL    HW211925   3.630   1.328   7.189
 3728SOL     OW11926   2.920   1.355   6.921
 3728SOL    HW111927   2.845   1.323   6.971
 3728SOL    HW211928   2.996   1.313   6.961
 3729SOL     OW11929   3.470   1.626   7.240
 3729SOL    HW111930   3.464   1.659   7.150
 3729SOL    HW211931   3.552   1.578   7.242
 3730SOL     OW11932   2.991   1.205   6.692
 3730SOL    HW111933   2.931   1.241   6.757
 3730SOL    HW211934   2.955   1.233   6.608
 3731SOL     OW11935   3.490   1.098   6.664
 3731SOL    HW111936   3.486   1.161   6.736
 3731SOL    HW211937   3.411   1.115   6.613
 3732SOL     OW11938   2.765   0.132   6.974
 3732SOL    HW111939   2.787   0.089   6.892
 3732SOL    HW211940   2.849   0.147   7.017
 3733SOL     OW11941   2.846   1.115   7.309
 3733SOL    HW111942   2.754   1.130   7.330
 3733SOL    HW211943   2.845   1.037   7.253
 3734SOL     OW11944   2.567   1.056   5.960
 3734SOL    HW111945   2.555   1.041   6.054
 3734SOL    HW211946   2.644   1.004   5.937
 3735SOL     OW11947   2.280   0.816   6.837
 3735SOL    HW111948   2.350   0.825   6.903
 3735SOL    HW211949   2.246   0.727   6.851
 3736SOL     OW11950   3.130   0.376   6.859
 3736SOL    HW111951   3.162   0.454   6.903
 3736SOL    HW211952   3.041   0.398   6.832
 3737SOL     OW11953   1.931   1.564   6.938
 3737SOL    HW111954   1.903   1.644   6.895
 3737SOL    HW211955   2.027   1.568   6.936
 3738SOL     OW11956   2.212   1.113   6.076
 3738SOL    HW111957   2.204   1.178   6.005
 3738SOL    HW211958   2.214   1.029   6.030
 3739SOL     OW11959   2.418   0.530   6.444
 3739SOL    HW111960   2.432   0.589   6.370
 3739SOL    HW211961   2.482   0.559   6.510
 3740SOL     OW11962   3.108   1.349   5.976
 3740SOL    HW111963   3.165   1.419   6.005
 3740SOL    HW211964   3.021   1.375   6.004
 3741SOL     OW11965   3.142   1.458   6.733
 3741SOL    HW111966   3.197   1.459   6.811
 3741SOL    HW211967   3.086   1.381   6.743
 3742SOL     OW11968   3.444   0.624   6.063
 3742SOL    HW111969   3.397   0.674   6.129
 3742SOL    HW211970   3.488   0.689   6.009
 3743SOL     OW11971   2.213   1.519   6.909
 3743SOL    HW111972   2.195   1.482   6.822
 3743SOL    HW211973   2.307   1.533   6.910
 3744SOL     OW11974   2.276   0.743   7.188
 3744SOL    HW111975   2.336   0.790   7.130
 3744SOL    HW211976   2.321   0.660   7.206
 3745SOL     OW11977   3.463   0.778   7.267
 3745SOL    HW111978   3.377   0.819   7.260
 3745SOL    HW211979   3.515   0.820   7.198
 3746SOL     OW11980   2.868   0.085   7.307
 3746SOL    HW111981   2.895   0.168   7.269
 3746SOL    HW211982   2.892   0.019   7.242
 3747SOL     OW11983   2.361   0.046   7.345
 3747SOL    HW111984   2.358   0.005   7.259
 3747SOL    HW211985   2.293   0.114   7.342
 3748SOL     OW11986   2.445   0.873   6.617
 3748SOL    HW111987   2.473   0.964   6.614
 3748SOL    HW211988   2.388   0.868   6.694
 3749SOL     OW11989   3.220   0.858   6.617
 3749SOL    HW111990   3.137   0.850   6.570
 3749SOL    HW211991   3.260   0.772   6.610
 3750SOL     OW11992   3.066   0.535   5.849
 3750SOL    HW111993   3.072   0.455   5.901
 3750SOL    HW211994   3.023   0.598   5.907
 3751SOL     OW11995   2.152   0.234   6.827
 3751SOL    HW111996   2.109   0.250   6.911
 3751SOL    HW211997   2.187   0.145   6.834
 3752SOL     OW11998   1.905   1.306   6.862
 3752SOL    HW111999   1.941   1.254   6.933
 3752SOL    HW212000   1.913   1.397   6.891
 3753SOL     OW12001   2.585   0.631   6.644
 3753SOL    HW112002   2.659   0.613   6.586
 3753SOL    HW212003   2.558   0.720   6.621
 3754SOL     OW12004   3.596   0.959   7.438
 3754SOL    HW112005   3.549   0.899   7.380
 3754SOL    HW212006   3.537   0.972   7.512
 3755SOL     OW12007   2.159   0.055   6.240
 3755SOL    HW112008   2.149   0.150   6.242
 3755SOL    HW212009   2.171   0.030   6.332
 3756SOL     OW12010   3.476   0.377   5.949
 3756SOL    HW112011   3.505   0.314   6.015
 3756SOL    HW212012   3.454   0.455   6.000
 3757SOL     OW12013   2.891   0.762   6.548
 3757SOL    HW112014   2.887   0.777   6.642
 3757SOL    HW212015   2.862   0.671   6.537
 3758SOL     OW12016   2.845   1.567   7.303
 3758SOL    HW112017   2.829   1.610   7.219
 3758SOL    HW212018   2.887   1.484   7.279
 3759SOL     OW12019   3.717   1.507   7.192
 3759SOL    HW112020   3.734   1.533   7.101
 3759SOL    HW212021   3.798   1.526   7.238
 3760SOL     OW12022   2.216   0.917   7.394
 3760SOL    HW112023   2.298   0.935   7.440
 3760SOL    HW212024   2.240   0.853   7.326
 3761SOL     OW12025   3.393   0.265   5.714
 3761SOL    HW112026   3.321   0.209   5.743
 3761SOL    HW212027   3.422   0.310   5.793
 3762SOL     OW12028   3.155   0.826   5.617
 3762SOL    HW112029   3.196   0.740   5.619
 3762SOL    HW212030   3.185   0.866   5.535
 3763SOL     OW12031   2.928   1.336   6.431
 3763SOL    HW112032   2.935   1.262   6.371
 3763SOL    HW212033   2.996   1.397   6.401
 3764SOL     OW12034   2.171   0.810   6.533
 3764SOL    HW112035   2.264   0.832   6.526
 3764SOL    HW212036   2.170   0.721   6.567
 3765SOL     OW12037   2.198   0.531   6.599
 3765SOL    HW112038   2.156   0.448   6.580
 3765SOL    HW212039   2.274   0.534   6.541
 3766SOL     OW12040   2.997   0.374   7.281
 3766SOL    HW112041   2.948   0.438   7.332
 3766SOL    HW212042   3.083   0.415   7.268
 3767SOL     OW12043   3.020   0.212   7.059
 3767SOL    HW112044   3.013   0.276   7.130
 3767SOL    HW212045   3.058   0.261   6.987
 3768SOL     OW12046   1.875   1.322   5.782
 3768SOL    HW112047   1.791   1.344   5.742
 3768SOL    HW212048   1.865   1.232   5.814
 3769SOL     OW12049   2.417   1.522   6.526
 3769SOL    HW112050   2.439   1.611   6.554
 3769SOL    HW212051   2.386   1.532   6.436
 3770SOL     OW12052   2.846   0.794   6.814
 3770SOL    HW112053   2.901   0.770   6.889
 3770SOL    HW212054   2.761   0.754   6.832
 3771SOL     OW12055   1.895   0.543   6.704
 3771SOL    HW112056   1.973   0.524   6.652
 3771SOL    HW212057   1.928   0.548   6.794
 3772SOL     OW12058   2.047   0.519   7.307
 3772SOL    HW112059   2.122   0.499   7.250
 3772SOL    HW212060   2.006   0.595   7.265
 3773SOL     OW12061   3.239   0.939   7.245
 3773SOL    HW112062   3.259   1.033   7.243
 3773SOL    HW212063   3.236   0.914   7.153
 3774SOL     OW12064   2.673   0.575   5.941
 3774SOL    HW112065   2.677   0.503   5.878
 3774SOL    HW212066   2.599   0.629   5.912
 3775SOL     OW12067   3.503   0.602   6.773
 3775SOL    HW112068   3.492   0.542   6.847
 3775SOL    HW212069   3.590   0.582   6.739
 3776SOL     OW12070   2.110   1.548   7.315
 3776SOL    HW112071   2.083   1.611   7.382
 3776SOL    HW212072   2.109   1.463   7.360
 3777SOL     OW12073   2.560   0.459   6.850
 3777SOL    HW112074   2.514   0.382   6.818
 3777SOL    HW212075   2.560   0.520   6.776
 3778SOL     OW12076   2.793   1.678   7.053
 3778SOL    HW112077   2.760   1.644   6.970
 3778SOL    HW212078   2.788   1.773   7.044
 3779SOL     OW12079   2.327   0.493   5.771
 3779SOL    HW112080   2.386   0.565   5.792
 3779SOL    HW212081   2.241   0.534   5.759
 3780SOL     OW12082   2.008   1.140   7.058
 3780SOL    HW112083   2.011   1.088   7.139
 3780SOL    HW212084   2.025   1.077   6.988
 3781SOL     OW12085   3.189   1.047   6.809
 3781SOL    HW112086   3.212   0.984   6.742
 3781SOL    HW212087   3.118   1.099   6.771
 3782SOL     OW12088   3.174   0.856   5.892
 3782SOL    HW112089   3.098   0.827   5.943
 3782SOL    HW212090   3.147   0.844   5.801
 3783SOL     OW12091   3.634   1.744   6.737
 3783SOL    HW112092   3.693   1.771   6.666
 3783SOL    HW212093   3.609   1.655   6.715
 3784SOL     OW12094   3.100   1.733   6.696
 3784SOL    HW112095   3.183   1.754   6.654
 3784SOL    HW212096   3.105   1.640   6.716
 3785SOL     OW12097   1.936   1.269   6.596
 3785SOL    HW112098   1.928   1.277   6.691
 3785SOL    HW212099   1.870   1.204   6.571
 3786SOL     OW12100   2.539   1.665   7.313
 3786SOL    HW112101   2.487   1.746   7.314
 3786SOL    HW212102   2.600   1.677   7.241
 3787SOL     OW12103   3.580   0.130   6.079
 3787SOL    HW112104   3.652   0.138   6.016
 3787SOL    HW212105   3.607   0.058   6.137
 3788SOL     OW12106   3.254   1.566   6.069
 3788SOL    HW112107   3.313   1.598   6.001
 3788SOL    HW212108   3.204   1.643   6.097
 3789SOL     OW12109   1.994   1.791   7.421
 3789SOL    HW112110   1.952   1.729   7.481
 3789SOL    HW212111   2.042   1.851   7.478
 3790SOL     OW12112   3.141   0.927   6.259
 3790SOL    HW112113   3.213   0.865   6.263
 3790SOL    HW212114   3.174   1.000   6.206
 3791SOL     OW12115   2.676   1.274   7.015
 3791SOL    HW112116   2.649   1.313   7.098
 3791SOL    HW212117   2.604   1.294   6.954
 3792SOL     OW12118   2.541   1.599   5.718
 3792SOL    HW112119   2.525   1.629   5.629
 3792SOL    HW212120   2.496   1.515   5.723
 3793SOL     OW12121   3.490   1.727   6.978
 3793SOL    HW112122   3.539   1.734   6.896
 3793SOL    HW212123   3.476   1.817   7.005
 3794SOL     OW12124   3.701   0.154   6.552
 3794SOL    HW112125   3.732   0.078   6.504
 3794SOL    HW212126   3.614   0.172   6.516
 3795SOL     OW12127   2.127   0.322   6.303
 3795SOL    HW112128   2.041   0.357   6.277
 3795SOL    HW212129   2.120   0.314   6.399
 3796SOL     OW12130   3.079   1.587   5.598
 3796SOL    HW112131   3.065   1.497   5.629
 3796SOL    HW212132   3.010   1.600   5.532
 3797SOL     OW12133   2.686   1.006   6.959
 3797SOL    HW112134   2.728   1.001   6.873
 3797SOL    HW212135   2.685   1.099   6.980
 3798SOL     OW12136   2.777   0.910   5.877
 3798SOL    HW112137   2.838   0.943   5.811
 3798SOL    HW212138   2.825   0.840   5.921
 3799SOL     OW12139   3.355   1.626   5.627
 3799SOL    HW112140   3.261   1.616   5.613
 3799SOL    HW212141   3.392   1.632   5.539
 3800SOL     OW12142   2.231   1.300   7.080
 3800SOL    HW112143   2.221   1.377   7.024
 3800SOL    HW212144   2.154   1.247   7.062
 3801SOL     OW12145   3.474   1.283   6.867
 3801SOL    HW112146   3.532   1.272   6.942
 3801SOL    HW212147   3.413   1.352   6.893
 3802SOL     OW12148   2.913   1.106   6.290
 3802SOL    HW112149   2.843   1.055   6.330
 3802SOL    HW212150   2.975   1.040   6.259
 3803SOL     OW12151   2.868   0.243   6.590
 3803SOL    HW112152   2.873   0.220   6.497
 3803SOL    HW212153   2.860   0.160   6.635
 3804SOL     OW12154   3.583   0.394   6.963
 3804SOL    HW112155   3.656   0.456   6.962
 3804SOL    HW212156   3.612   0.322   6.907
 3805SOL     OW12157   2.131   1.310   5.888
 3805SOL    HW112158   2.039   1.322   5.865
 3805SOL    HW212159   2.158   1.393   5.926
 3806SOL     OW12160   1.974   1.021   7.306
 3806SOL    HW112161   1.898   0.998   7.359
 3806SOL    HW212162   2.049   0.984   7.353
 3807SOL     OW12163   2.520   0.204   7.084
 3807SOL    HW112164   2.600   0.179   7.037
 3807SOL    HW212165   2.550   0.225   7.173
 3808SOL     OW12166   1.943   0.340   5.633
 3808SOL    HW112167   1.873   0.286   5.597
 3808SOL    HW212168   1.957   0.408   5.568
 3809SOL     OW12169   3.292   0.858   6.986
 3809SOL    HW112170   3.243   0.919   6.931
 3809SOL    HW212171   3.381   0.861   6.952
 3810SOL     OW12172   1.926   0.183   5.906
 3810SOL    HW112173   1.925   0.250   5.837
 3810SOL    HW212174   2.001   0.127   5.884
 3811SOL     OW12175   3.040   1.335   5.702
 3811SOL    HW112176   2.948   1.309   5.703
 3811SOL    HW212177   3.066   1.336   5.795
 3812SOL     OW12178   2.481   0.830   7.019
 3812SOL    HW112179   2.536   0.907   7.004
 3812SOL    HW212180   2.542   0.758   7.028
 3813SOL     OW12181   3.345   1.777   6.564
 3813SOL    HW112182   3.371   1.835   6.492
 3813SOL    HW212183   3.427   1.756   6.609
 3814SOL     OW12184   2.578   0.563   7.292
 3814SOL    HW112185   2.616   0.628   7.351
 3814SOL    HW212186   2.611   0.479   7.323
 3815SOL     OW12187   3.333   1.201   7.218
 3815SOL    HW112188   3.320   1.214   7.312
 3815SOL    HW212189   3.426   1.215   7.204
 3816SOL     OW12190   2.237   1.741   7.150
 3816SOL    HW112191   2.147   1.770   7.132
 3816SOL    HW212192   2.227   1.655   7.190
 3817SOL     OW12193   3.532   0.881   6.841
 3817SOL    HW112194   3.524   0.796   6.798
 3817SOL    HW212195   3.522   0.945   6.771
 3818SOL     OW12196   3.080   0.329   6.034
 3818SOL    HW112197   3.146   0.260   6.023
 3818SOL    HW212198   3.108   0.377   6.112
 3819SOL     OW12199   2.449   0.739   6.257
 3819SOL    HW112200   2.490   0.824   6.241
 3819SOL    HW212201   2.382   0.732   6.189
 3820SOL     OW12202   3.625   0.365   7.229
 3820SOL    HW112203   3.609   0.378   7.136
 3820SOL    HW212204   3.547   0.319   7.261
 3821SOL     OW12205   3.608   0.933   7.098
 3821SOL    HW112206   3.604   1.028   7.111
 3821SOL    HW212207   3.592   0.921   7.005
 3822SOL     OW12208   2.743   1.360   5.617
 3822SOL    HW112209   2.700   1.367   5.702
 3822SOL    HW212210   2.741   1.449   5.582
 3823SOL     OW12211   2.512   1.787   6.583
 3823SOL    HW112212   2.471   1.868   6.552
 3823SOL    HW212213   2.597   1.785   6.539
 3824SOL     OW12214   2.729   0.967   6.442
 3824SOL    HW112215   2.779   0.895   6.481
 3824SOL    HW212216   2.695   1.016   6.517
 3825SOL     OW12217   2.941   0.987   5.675
 3825SOL    HW112218   2.919   1.039   5.598
 3825SOL    HW212219   3.016   0.934   5.648
 3826SOL     OW12220   3.716   1.556   6.431
 3826SOL    HW112221   3.639   1.544   6.376
 3826SOL    HW212222   3.709   1.487   6.497
 3827SOL     OW12223   2.086   1.302   7.442
 3827SOL    HW112224   2.019   1.241   7.413
 3827SOL    HW212225   2.070   1.313   7.536
 3828SOL     OW12226   1.946   1.234   6.244
 3828SOL    HW112227   1.954   1.190   6.328
 3828SOL    HW212228   2.018   1.200   6.192
 3829SOL     OW12229   2.543   1.402   7.214
 3829SOL    HW112230   2.463   1.359   7.244
 3829SOL    HW212231   2.538   1.490   7.251
 3830SOL     OW12232   3.670   0.181   6.825
 3830SOL    HW112233   3.669   0.088   6.845
 3830SOL    HW212234   3.687   0.186   6.731
 3831SOL     OW12235   2.298   0.433   6.116
 3831SOL    HW112236   2.320   0.364   6.053
 3831SOL    HW212237   2.242   0.390   6.180
 3832SOL     OW12238   3.562   1.490   6.684
 3832SOL    HW112239   3.482   1.466   6.637
 3832SOL    HW212240   3.574   1.420   6.749
 3833SOL     OW12241   2.191   0.557   6.878
 3833SOL    HW112242   2.247   0.500   6.932
 3833SOL    HW212243   2.211   0.530   6.788
 3834SOL     OW12244   3.294   0.216   6.704
 3834SOL    HW112245   3.330   0.145   6.757
 3834SOL    HW212246   3.243   0.269   6.765
 3835SOL     OW12247   2.858   0.008   6.736
 3835SOL    HW112248   2.816   4.422   6.728
 3835SOL    HW212249   2.951   4.487   6.747
 3836SOL     OW12250   2.647   1.306   5.867
 3836SOL    HW112251   2.605   1.224   5.893
 3836SOL    HW212252   2.707   1.326   5.939
 3837SOL     OW12253   2.484   1.554   6.871
 3837SOL    HW112254   2.486   1.634   6.924
 3837SOL    HW212255   2.568   1.552   6.827
 3838SOL     OW12256   3.203   0.053   5.740
 3838SOL    HW112257   3.242   4.477   5.695
 3838SOL    HW212258   3.127   0.017   5.786
 3839SOL     OW12259   3.177   0.463   6.263
 3839SOL    HW112260   3.117   0.537   6.264
 3839SOL    HW212261   3.165   0.422   6.349
 3840SOL     OW12262   3.447   0.200   6.453
 3840SOL    HW112263   3.388   0.215   6.527
 3840SOL    HW212264   3.450   0.284   6.407
 3841SOL     OW12265   1.904   1.070   5.891
 3841SOL    HW112266   1.998   1.064   5.876
 3841SOL    HW212267   1.877   0.982   5.914
 3842SOL     OW12268   2.091   0.626   7.569
 3842SOL    HW112269   2.004   0.619   7.607
 3842SOL    HW212270   2.080   0.596   7.478
 3843SOL     OW12271   2.070   0.298   8.437
 3843SOL    HW112272   2.101   0.270   8.523
 3843SOL    HW212273   1.988   0.250   8.424
 3844SOL     OW12274   1.870   0.386   8.086
 3844SOL    HW112275   1.783   0.405   8.123
 3844SOL    HW212276   1.855   0.312   8.028
 3845SOL     OW12277   2.429   1.287   8.622
 3845SOL    HW112278   2.341   1.288   8.585
 3845SOL    HW212279   2.443   1.375   8.656
 3846SOL     OW12280   3.422   1.512   8.155
 3846SOL    HW112281   3.379   1.492   8.238
 3846SOL    HW212282   3.351   1.516   8.091
 3847SOL     OW12283   2.996   0.699   8.147
 3847SOL    HW112284   3.042   0.782   8.137
 3847SOL    HW212285   2.946   0.709   8.228
 3848SOL     OW12286   3.629   0.607   7.676
 3848SOL    HW112287   3.608   0.597   7.583
 3848SOL    HW212288   3.596   0.527   7.717
 3849SOL     OW12289   2.619   1.143   8.488
 3849SOL    HW112290   2.549   1.177   8.545
 3849SOL    HW212291   2.654   1.220   8.443
 3850SOL     OW12292   2.727   0.776   9.270
 3850SOL    HW112293   2.714   0.847   9.332
 3850SOL    HW212294   2.751   0.820   9.188
 3851SOL     OW12295   2.548   1.004   8.095
 3851SOL    HW112296   2.613   0.991   8.165
 3851SOL    HW212297   2.479   1.055   8.136
 3852SOL     OW12298   2.572   1.151   9.259
 3852SOL    HW112299   2.619   1.230   9.286
 3852SOL    HW212300   2.489   1.184   9.225
 3853SOL     OW12301   2.193   1.425   8.517
 3853SOL    HW112302   2.119   1.389   8.468
 3853SOL    HW212303   2.242   1.475   8.452
 3854SOL     OW12304   3.323   1.499   8.802
 3854SOL    HW112305   3.372   1.581   8.812
 3854SOL    HW212306   3.261   1.498   8.875
 3855SOL     OW12307   2.304   0.395   8.937
 3855SOL    HW112308   2.386   0.346   8.939
 3855SOL    HW212309   2.236   0.329   8.951
 3856SOL     OW12310   3.473   0.446   8.186
 3856SOL    HW112311   3.393   0.468   8.139
 3856SOL    HW212312   3.492   0.524   8.239
 3857SOL     OW12313   2.082   1.719   7.922
 3857SOL    HW112314   2.118   1.758   8.002
 3857SOL    HW212315   2.158   1.706   7.866
 3858SOL     OW12316   2.998   1.341   9.140
 3858SOL    HW112317   3.038   1.337   9.227
 3858SOL    HW212318   2.946   1.262   9.134
 3859SOL     OW12319   2.087   1.442   7.983
 3859SOL    HW112320   2.065   1.534   7.994
 3859SOL    HW212321   2.031   1.395   8.045
 3860SOL     OW12322   2.119   1.090   8.339
 3860SOL    HW112323   2.116   1.004   8.380
 3860SOL    HW212324   2.061   1.144   8.392
 3861SOL     OW12325   2.477   1.785   8.882
 3861SOL    HW112326   2.392   1.772   8.925
 3861SOL    HW212327   2.497   1.877   8.897
 3862SOL     OW12328   2.448   0.981   7.582
 3862SOL    HW112329   2.493   1.031   7.513
 3862SOL    HW212330   2.488   1.012   7.663
 3863SOL     OW12331   3.445   0.115   8.920
 3863SOL    HW112332   3.465   0.183   8.856
 3863SOL    HW212333   3.434   0.162   9.003
 3864SOL     OW12334   1.978   0.653   8.008
 3864SOL    HW112335   1.948   0.564   8.029
 3864SOL    HW212336   1.969   0.702   8.089
 3865SOL     OW12337   3.704   1.759   7.783
 3865SOL    HW112338   3.766   1.731   7.850
 3865SOL    HW212339   3.728   1.850   7.765
 3866SOL     OW12340   1.898   1.598   7.579
 3866SOL    HW112341   1.881   1.504   7.587
 3866SOL    HW212342   1.863   1.636   7.659
 3867SOL     OW12343   3.553   0.921   8.089
 3867SOL    HW112344   3.636   0.878   8.068
 3867SOL    HW212345   3.531   0.969   8.010
 3868SOL     OW12346   3.508   1.107   7.877
 3868SOL    HW112347   3.594   1.114   7.835
 3868SOL    HW212348   3.512   1.168   7.951
 3869SOL     OW12349   1.984   0.745   9.032
 3869SOL    HW112350   2.076   0.770   9.042
 3869SOL    HW212351   1.935   0.826   9.041
 3870SOL     OW12352   2.476   1.385   8.182
 3870SOL    HW112353   2.430   1.301   8.192
 3870SOL    HW212354   2.459   1.411   8.092
 3871SOL     OW12355   3.151   1.239   8.871
 3871SOL    HW112356   3.183   1.171   8.811
 3871SOL    HW212357   3.208   1.232   8.948
 3872SOL     OW12358   2.679   0.014   7.998
 3872SOL    HW112359   2.714   0.099   7.973
 3872SOL    HW212360   2.584   0.024   7.991
 3873SOL     OW12361   2.053   0.966   8.719
 3873SOL    HW112362   2.137   0.924   8.704
 3873SOL    HW212363   1.990   0.912   8.672
 3874SOL     OW12364   3.394   0.992   7.646
 3874SOL    HW112365   3.323   0.936   7.677
 3874SOL    HW212366   3.434   1.027   7.726
 3875SOL     OW12367   3.049   1.806   9.069
 3875SOL    HW112368   3.060   1.863   8.994
 3875SOL    HW212369   3.064   1.718   9.035
 3876SOL     OW12370   2.177   0.254   9.228
 3876SOL    HW112371   2.241   0.318   9.261
 3876SOL    HW212372   2.103   0.260   9.289
 3877SOL     OW12373   3.328   1.420   8.400
 3877SOL    HW112374   3.260   1.434   8.465
 3877SOL    HW212375   3.316   1.329   8.373
 3878SOL     OW12376   3.521   1.738   8.026
 3878SOL    HW112377   3.500   1.709   7.937
 3878SOL    HW212378   3.496   1.664   8.082
 3879SOL     OW12379   2.455   0.723   7.713
 3879SOL    HW112380   2.461   0.805   7.663
 3879SOL    HW212381   2.390   0.741   7.781
 3880SOL     OW12382   3.153   0.363   8.381
 3880SOL    HW112383   3.064   0.332   8.366
 3880SOL    HW212384   3.189   0.299   8.443
 3881SOL     OW12385   3.443   1.670   7.757
 3881SOL    HW112386   3.533   1.702   7.750
 3881SOL    HW212387   3.416   1.653   7.667
 3882SOL     OW12388   2.657   0.619   8.902
 3882SOL    HW112389   2.629   0.594   8.990
 3882SOL    HW212390   2.617   0.554   8.845
 3883SOL     OW12391   3.251   0.479   9.124
 3883SOL    HW112392   3.254   0.523   9.209
 3883SOL    HW212393   3.317   0.410   9.130
 3884SOL     OW12394   2.818   0.888   9.030
 3884SOL    HW112395   2.871   0.817   8.995
 3884SOL    HW212396   2.770   0.921   8.954
 3885SOL     OW12397   2.858   0.417   8.684
 3885SOL    HW112398   2.770   0.427   8.722
 3885SOL    HW212399   2.845   0.365   8.605
 3886SOL     OW12400   2.912   0.697   7.875
 3886SOL    HW112401   2.928   0.690   7.969
 3886SOL    HW212402   2.829   0.651   7.861
 3887SOL     OW12403   1.951   0.821   8.224
 3887SOL    HW112404   2.032   0.814   8.275
 3887SOL    HW212405   1.907   0.899   8.259
 3888SOL     OW12406   1.974   1.796   9.013
 3888SOL    HW112407   1.969   1.793   9.109
 3888SOL    HW212408   1.904   1.856   8.988
 3889SOL     OW12409   2.717   0.369   7.630
 3889SOL    HW112410   2.789   0.403   7.578
 3889SOL    HW212411   2.732   0.274   7.634
 3890SOL     OW12412   3.567   0.574   9.276
 3890SOL    HW112413   3.531   0.649   9.229
 3890SOL    HW212414   3.602   0.517   9.207
 3891SOL     OW12415   3.239   1.143   7.989
 3891SOL    HW112416   3.317   1.129   7.936
 3891SOL    HW212417   3.186   1.204   7.939
 3892SOL     OW12418   2.400   0.204   8.349
 3892SOL    HW112419   2.421   0.221   8.441
 3892SOL    HW212420   2.392   0.290   8.309
 3893SOL     OW12421   2.869   1.445   7.920
 3893SOL    HW112422   2.830   1.517   7.871
 3893SOL    HW212423   2.852   1.466   8.012
 3894SOL     OW12424   2.212   1.789   8.288
 3894SOL    HW112425   2.253   1.704   8.305
 3894SOL    HW212426   2.282   1.853   8.304
 3895SOL     OW12427   3.660   1.060   8.316
 3895SOL    HW112428   3.606   1.039   8.240
 3895SOL    HW212429   3.598   1.064   8.389
 3896SOL     OW12430   3.090   1.538   8.961
 3896SOL    HW112431   3.076   1.466   9.021
 3896SOL    HW212432   3.026   1.524   8.891
 3897SOL     OW12433   2.182   0.957   7.697
 3897SOL    HW112434   2.264   0.975   7.652
 3897SOL    HW212435   2.151   0.875   7.659
 3898SOL     OW12436   3.341   0.742   8.173
 3898SOL    HW112437   3.329   0.697   8.256
 3898SOL    HW212438   3.418   0.797   8.186
 3899SOL     OW12439   2.328   1.264   9.186
 3899SOL    HW112440   2.301   1.268   9.095
 3899SOL    HW212441   2.246   1.262   9.236
 3900SOL     OW12442   2.984   1.777   7.680
 3900SOL    HW112443   2.910   1.735   7.725
 3900SOL    HW212444   3.006   1.716   7.609
 3901SOL     OW12445   2.050   0.268   8.959
 3901SOL    HW112446   1.984   0.335   8.944
 3901SOL    HW212447   2.064   0.270   9.054
 3902SOL     OW12448   3.491   1.380   7.535
 3902SOL    HW112449   3.449   1.465   7.520
 3902SOL    HW212450   3.422   1.316   7.517
 3903SOL     OW12451   2.329   1.721   7.790
 3903SOL    HW112452   2.367   1.795   7.837
 3903SOL    HW212453   2.386   1.709   7.713
 3904SOL     OW12454   3.282   0.138   7.866
 3904SOL    HW112455   3.266   0.086   7.786
 3904SOL    HW212456   3.377   0.131   7.879
 3905SOL     OW12457   2.101   1.757   8.685
 3905SOL    HW112458   2.169   1.704   8.726
 3905SOL    HW212459   2.114   1.743   8.591
 3906SOL     OW12460   2.796   1.697   8.348
 3906SOL    HW112461   2.875   1.647   8.370
 3906SOL    HW212462   2.755   1.648   8.277
 3907SOL     OW12463   2.254   0.695   7.924
 3907SOL    HW112464   2.277   0.602   7.936
 3907SOL    HW212465   2.160   0.699   7.942
 3908SOL     OW12466   3.387   0.233   9.170
 3908SOL    HW112467   3.387   0.256   9.263
 3908SOL    HW212468   3.310   0.178   9.159
 3909SOL     OW12469   2.489   0.122   7.570
 3909SOL    HW112470   2.577   0.086   7.579
 3909SOL    HW212471   2.456   0.086   7.488
 3910SOL     OW12472   2.631   0.271   9.202
 3910SOL    HW112473   2.696   0.202   9.212
 3910SOL    HW212474   2.586   0.275   9.286
 3911SOL     OW12475   2.739   1.523   8.640
 3911SOL    HW112476   2.723   1.484   8.554
 3911SOL    HW212477   2.808   1.468   8.679
 3912SOL     OW12478   3.203   0.589   8.877
 3912SOL    HW112479   3.231   0.560   8.964
 3912SOL    HW212480   3.238   0.678   8.869
 3913SOL     OW12481   2.676   1.397   8.386
 3913SOL    HW112482   2.761   1.384   8.343
 3913SOL    HW212483   2.612   1.395   8.315
 3914SOL     OW12484   2.785   0.518   8.348
 3914SOL    HW112485   2.769   0.516   8.253
 3914SOL    HW212486   2.823   0.432   8.367
 3915SOL     OW12487   2.416   0.076   7.969
 3915SOL    HW112488   2.328   0.048   7.992
 3915SOL    HW212489   2.403   0.141   7.900
 3916SOL     OW12490   3.290   1.198   7.489
 3916SOL    HW112491   3.320   1.122   7.539
 3916SOL    HW212492   3.205   1.219   7.526
 3917SOL     OW12493   2.158   0.069   7.645
 3917SOL    HW112494   2.236   0.121   7.628
 3917SOL    HW212495   2.188   4.500   7.704
 3918SOL     OW12496   2.814   0.240   7.916
 3918SOL    HW112497   2.762   0.295   7.858
 3918SOL    HW212498   2.903   0.276   7.911
 3919SOL     OW12499   2.942   0.680   8.909
 3919SOL    HW112500   2.870   0.617   8.909
 3919SOL    HW212501   3.021   0.628   8.897
 3920SOL     OW12502   3.085   1.570   8.242
 3920SOL    HW112503   3.103   1.637   8.175
 3920SOL    HW212504   3.154   1.583   8.307
 3921SOL     OW12505   2.330   1.150   8.182
 3921SOL    HW112506   2.261   1.130   8.245
 3921SOL    HW212507   2.291   1.133   8.097
 3922SOL     OW12508   3.132   1.794   8.055
 3922SOL    HW112509   3.177   1.855   7.997
 3922SOL    HW212510   3.067   1.848   8.100
 3923SOL     OW12511   2.891   0.548   7.465
 3923SOL    HW112512   2.843   0.629   7.449
 3923SOL    HW212513   2.950   0.568   7.538
 3924SOL     OW12514   1.944   0.551   8.843
 3924SOL    HW112515   2.034   0.554   8.813
 3924SOL    HW212516   1.936   0.622   8.906
 3925SOL     OW12517   2.425   0.243   8.614
 3925SOL    HW112518   2.452   0.161   8.654
 3925SOL    HW212519   2.333   0.253   8.639
 3926SOL     OW12520   2.728   0.504   8.074
 3926SOL    HW112521   2.682   0.544   8.000
 3926SOL    HW212522   2.696   0.413   8.075
 3927SOL     OW12523   2.826   0.026   8.229
 3927SOL    HW112524   2.777   0.024   8.147
 3927SOL    HW212525   2.839   4.434   8.252
 3928SOL     OW12526   3.298   1.163   8.305
 3928SOL    HW112527   3.230   1.096   8.305
 3928SOL    HW212528   3.322   1.174   8.213
 3929SOL     OW12529   3.328   0.604   8.424
 3929SOL    HW112530   3.275   0.525   8.426
 3929SOL    HW212531   3.386   0.597   8.499
 3930SOL     OW12532   3.708   0.817   7.830
 3930SOL    HW112533   3.764   0.765   7.889
 3930SOL    HW212534   3.679   0.755   7.763
 3931SOL     OW12535   2.353   1.418   7.604
 3931SOL    HW112536   2.279   1.389   7.657
 3931SOL    HW212537   2.337   1.379   7.518
 3932SOL     OW12538   3.532   1.265   8.093
 3932SOL    HW112539   3.626   1.268   8.108
 3932SOL    HW212540   3.501   1.353   8.115
 3933SOL     OW12541   3.256   0.570   7.518
 3933SOL    HW112542   3.195   0.555   7.589
 3933SOL    HW212543   3.342   0.551   7.555
 3934SOL     OW12544   2.384   0.266   7.772
 3934SOL    HW112545   2.431   0.214   7.706
 3934SOL    HW212546   2.367   0.349   7.729
 3935SOL     OW12547   3.615   1.238   9.022
 3935SOL    HW112548   3.702   1.199   9.019
 3935SOL    HW212549   3.630   1.328   9.051
 3936SOL     OW12550   2.921   1.354   8.782
 3936SOL    HW112551   2.846   1.323   8.833
 3936SOL    HW212552   2.997   1.313   8.823
 3937SOL     OW12553   3.469   1.626   9.102
 3937SOL    HW112554   3.464   1.660   9.012
 3937SOL    HW212555   3.552   1.578   9.104
 3938SOL     OW12556   2.991   1.204   8.554
 3938SOL    HW112557   2.931   1.240   8.619
 3938SOL    HW212558   2.957   1.234   8.470
 3939SOL     OW12559   3.490   1.098   8.526
 3939SOL    HW112560   3.486   1.161   8.599
 3939SOL    HW212561   3.411   1.115   8.476
 3940SOL     OW12562   2.765   0.132   8.836
 3940SOL    HW112563   2.787   0.088   8.754
 3940SOL    HW212564   2.849   0.147   8.879
 3941SOL     OW12565   2.846   1.115   9.171
 3941SOL    HW112566   2.754   1.130   9.192
 3941SOL    HW212567   2.845   1.037   9.115
 3942SOL     OW12568   2.570   1.061   7.819
 3942SOL    HW112569   2.557   1.045   7.913
 3942SOL    HW212570   2.646   1.007   7.797
 3943SOL     OW12571   2.281   0.815   8.699
 3943SOL    HW112572   2.349   0.824   8.765
 3943SOL    HW212573   2.246   0.727   8.713
 3944SOL     OW12574   3.130   0.376   8.721
 3944SOL    HW112575   3.162   0.454   8.765
 3944SOL    HW212576   3.041   0.398   8.694
 3945SOL     OW12577   1.924   1.566   8.796
 3945SOL    HW112578   1.889   1.642   8.750
 3945SOL    HW212579   2.018   1.582   8.800
 3946SOL     OW12580   2.211   1.109   7.939
 3946SOL    HW112581   2.217   1.181   7.877
 3946SOL    HW212582   2.209   1.030   7.884
 3947SOL     OW12583   2.418   0.530   8.306
 3947SOL    HW112584   2.432   0.589   8.232
 3947SOL    HW212585   2.482   0.558   8.372
 3948SOL     OW12586   3.110   1.348   7.837
 3948SOL    HW112587   3.166   1.420   7.868
 3948SOL    HW212588   3.023   1.369   7.870
 3949SOL     OW12589   3.142   1.457   8.594
 3949SOL    HW112590   3.197   1.459   8.673
 3949SOL    HW212591   3.087   1.380   8.606
 3950SOL     OW12592   3.444   0.624   7.925
 3950SOL    HW112593   3.397   0.674   7.991
 3950SOL    HW212594   3.488   0.690   7.871
 3951SOL     OW12595   2.217   1.515   8.769
 3951SOL    HW112596   2.198   1.478   8.683
 3951SOL    HW212597   2.311   1.530   8.769
 3952SOL     OW12598   2.276   0.743   9.050
 3952SOL    HW112599   2.336   0.790   8.992
 3952SOL    HW212600   2.321   0.660   9.068
 3953SOL     OW12601   3.463   0.778   9.129
 3953SOL    HW112602   3.376   0.819   9.122
 3953SOL    HW212603   3.515   0.820   9.060
 3954SOL     OW12604   2.868   0.085   9.169
 3954SOL    HW112605   2.895   0.168   9.131
 3954SOL    HW212606   2.892   0.019   9.104
 3955SOL     OW12607   2.361   0.046   9.207
 3955SOL    HW112608   2.357   0.004   9.121
 3955SOL    HW212609   2.293   0.114   9.204
 3956SOL     OW12610   2.444   0.873   8.478
 3956SOL    HW112611   2.475   0.964   8.478
 3956SOL    HW212612   2.388   0.867   8.556
 3957SOL     OW12613   3.220   0.858   8.478
 3957SOL    HW112614   3.137   0.850   8.432
 3957SOL    HW212615   3.260   0.772   8.472
 3958SOL     OW12616   3.066   0.535   7.711
 3958SOL    HW112617   3.072   0.455   7.763
 3958SOL    HW212618   3.023   0.598   7.770
 3959SOL     OW12619   2.152   0.234   8.689
 3959SOL    HW112620   2.109   0.250   8.773
 3959SOL    HW212621   2.186   0.145   8.696
 3960SOL     OW12622   1.907   1.308   8.724
 3960SOL    HW112623   1.942   1.256   8.797
 3960SOL    HW212624   1.914   1.398   8.754
 3961SOL     OW12625   2.585   0.631   8.506
 3961SOL    HW112626   2.659   0.612   8.448
 3961SOL    HW212627   2.559   0.720   8.482
 3962SOL     OW12628   3.596   0.959   9.300
 3962SOL    HW112629   3.549   0.899   9.242
 3962SOL    HW212630   3.537   0.972   9.374
 3963SOL     OW12631   2.159   0.055   8.102
 3963SOL    HW112632   2.149   0.151   8.104
 3963SOL    HW212633   2.171   0.031   8.194
 3964SOL     OW12634   3.477   0.378   7.811
 3964SOL    HW112635   3.505   0.314   7.876
 3964SOL    HW212636   3.454   0.455   7.862
 3965SOL     OW12637   2.891   0.762   8.410
 3965SOL    HW112638   2.887   0.777   8.504
 3965SOL    HW212639   2.862   0.671   8.399
 3966SOL     OW12640   2.845   1.567   9.164
 3966SOL    HW112641   2.829   1.611   9.081
 3966SOL    HW212642   2.887   1.484   9.141
 3967SOL     OW12643   3.717   1.507   9.054
 3967SOL    HW112644   3.734   1.533   8.963
 3967SOL    HW212645   3.798   1.526   9.100
 3968SOL     OW12646   2.216   0.916   9.256
 3968SOL    HW112647   2.298   0.935   9.302
 3968SOL    HW212648   2.240   0.853   9.188
 3969SOL     OW12649   3.393   0.265   7.576
 3969SOL    HW112650   3.321   0.209   7.605
 3969SOL    HW212651   3.422   0.310   7.655
 3970SOL     OW12652   3.154   0.826   7.479
 3970SOL    HW112653   3.196   0.740   7.482
 3970SOL    HW212654   3.185   0.866   7.397
 3971SOL     OW12655   2.926   1.336   8.301
 3971SOL    HW112656   2.930   1.263   8.239
 3971SOL    HW212657   2.989   1.399   8.266
 3972SOL     OW12658   2.171   0.810   8.395
 3972SOL    HW112659   2.264   0.832   8.389
 3972SOL    HW212660   2.170   0.720   8.429
 3973SOL     OW12661   2.198   0.531   8.461
 3973SOL    HW112662   2.156   0.448   8.442
 3973SOL    HW212663   2.274   0.534   8.403
 3974SOL     OW12664   2.997   0.374   9.143
 3974SOL    HW112665   2.948   0.438   9.194
 3974SOL    HW212666   3.083   0.415   9.130
 3975SOL     OW12667   3.020   0.212   8.921
 3975SOL    HW112668   3.013   0.276   8.992
 3975SOL    HW212669   3.058   0.261   8.849
 3976SOL     OW12670   1.867   1.322   7.643
 3976SOL    HW112671   1.780   1.336   7.605
 3976SOL    HW212672   1.865   1.232   7.676
 3977SOL     OW12673   1.948   1.782   8.375
 3977SOL    HW112674   1.919   1.699   8.337
 3977SOL    HW212675   2.037   1.794   8.341
 3978SOL     OW12676   2.360   1.570   8.352
 3978SOL    HW112677   2.429   1.634   8.372
 3978SOL    HW212678   2.404   1.505   8.297
 3979SOL     OW12679   2.846   0.794   8.676
 3979SOL    HW112680   2.901   0.770   8.750
 3979SOL    HW212681   2.761   0.754   8.695
 3980SOL     OW12682   1.895   0.543   8.566
 3980SOL    HW112683   1.973   0.524   8.514
 3980SOL    HW212684   1.928   0.548   8.656
 3981SOL     OW12685   2.047   0.519   9.169
 3981SOL    HW112686   2.121   0.499   9.112
 3981SOL    HW212687   2.005   0.595   9.127
 3982SOL     OW12688   3.239   0.939   9.107
 3982SOL    HW112689   3.259   1.033   9.105
 3982SOL    HW212690   3.236   0.914   9.015
 3983SOL     OW12691   2.673   0.575   7.803
 3983SOL    HW112692   2.677   0.503   7.740
 3983SOL    HW212693   2.599   0.629   7.774
 3984SOL     OW12694   3.503   0.602   8.635
 3984SOL    HW112695   3.492   0.542   8.709
 3984SOL    HW212696   3.590   0.582   8.601
 3985SOL     OW12697   2.114   1.548   9.178
 3985SOL    HW112698   2.081   1.610   9.243
 3985SOL    HW212699   2.110   1.463   9.222
 3986SOL     OW12700   2.560   0.459   8.712
 3986SOL    HW112701   2.514   0.382   8.680
 3986SOL    HW212702   2.560   0.520   8.638
 3987SOL     OW12703   2.793   1.679   8.915
 3987SOL    HW112704   2.764   1.645   8.830
 3987SOL    HW212705   2.787   1.774   8.906
 3988SOL     OW12706   2.327   0.493   7.633
 3988SOL    HW112707   2.386   0.565   7.654
 3988SOL    HW212708   2.241   0.534   7.621
 3989SOL     OW12709   2.008   1.140   8.921
 3989SOL    HW112710   2.011   1.088   9.001
 3989SOL    HW212711   2.025   1.077   8.851
 3990SOL     OW12712   3.189   1.047   8.671
 3990SOL    HW112713   3.212   0.984   8.604
 3990SOL    HW212714   3.118   1.099   8.633
 3991SOL     OW12715   3.173   0.857   7.754
 3991SOL    HW112716   3.098   0.827   7.805
 3991SOL    HW212717   3.147   0.843   7.663
 3992SOL     OW12718   3.634   1.744   8.598
 3992SOL    HW112719   3.693   1.771   8.528
 3992SOL    HW212720   3.609   1.655   8.577
 3993SOL     OW12721   3.103   1.733   8.562
 3993SOL    HW112722   3.185   1.753   8.516
 3993SOL    HW212723   3.108   1.639   8.580
 3994SOL     OW12724   1.947   1.266   8.461
 3994SOL    HW112725   1.933   1.279   8.555
 3994SOL    HW212726   1.873   1.213   8.432
 3995SOL     OW12727   2.539   1.665   9.176
 3995SOL    HW112728   2.485   1.744   9.173
 3995SOL    HW212729   2.602   1.677   9.104
 3996SOL     OW12730   3.580   0.129   7.941
 3996SOL    HW112731   3.652   0.137   7.878
 3996SOL    HW212732   3.607   0.058   7.999
 3997SOL     OW12733   3.253   1.568   7.933
 3997SOL    HW112734   3.313   1.599   7.865
 3997SOL    HW212735   3.204   1.645   7.960
 3998SOL     OW12736   1.986   1.786   9.287
 3998SOL    HW112737   1.936   1.718   9.332
 3998SOL    HW212738   2.045   1.821   9.353
 3999SOL     OW12739   3.140   0.927   8.121
 3999SOL    HW112740   3.213   0.865   8.125
 3999SOL    HW212741   3.174   1.000   8.068
 4000SOL     OW12742   2.677   1.273   8.878
 4000SOL    HW112743   2.649   1.312   8.961
 4000SOL    HW212744   2.606   1.293   8.817
 4001SOL     OW12745   2.536   1.618   7.601
 4001SOL    HW112746   2.544   1.630   7.506
 4001SOL    HW212747   2.480   1.541   7.611
 4002SOL     OW12748   3.490   1.727   8.840
 4002SOL    HW112749   3.539   1.734   8.758
 4002SOL    HW212750   3.476   1.817   8.867
 4003SOL     OW12751   3.701   0.154   8.414
 4003SOL    HW112752   3.732   0.077   8.366
 4003SOL    HW212753   3.614   0.172   8.378
 4004SOL     OW12754   2.127   0.323   8.166
 4004SOL    HW112755   2.041   0.357   8.139
 4004SOL    HW212756   2.120   0.314   8.261
 4005SOL     OW12757   3.069   1.606   7.479
 4005SOL    HW112758   3.060   1.515   7.507
 4005SOL    HW212759   3.003   1.618   7.410
 4006SOL     OW12760   2.686   1.006   8.821
 4006SOL    HW112761   2.729   1.001   8.735
 4006SOL    HW212762   2.686   1.099   8.842
 4007SOL     OW12763   2.778   0.910   7.738
 4007SOL    HW112764   2.840   0.942   7.672
 4007SOL    HW212765   2.824   0.840   7.783
 4008SOL     OW12766   3.354   1.625   7.491
 4008SOL    HW112767   3.260   1.619   7.477
 4008SOL    HW212768   3.390   1.631   7.402
 4009SOL     OW12769   2.232   1.298   8.941
 4009SOL    HW112770   2.221   1.377   8.887
 4009SOL    HW212771   2.154   1.246   8.925
 4010SOL     OW12772   3.474   1.283   8.729
 4010SOL    HW112773   3.532   1.272   8.804
 4010SOL    HW212774   3.413   1.352   8.755
 4011SOL     OW12775   2.913   1.107   8.154
 4011SOL    HW112776   2.842   1.056   8.193
 4011SOL    HW212777   2.975   1.041   8.123
 4012SOL     OW12778   2.868   0.243   8.451
 4012SOL    HW112779   2.873   0.219   8.359
 4012SOL    HW212780   2.860   0.160   8.497
 4013SOL     OW12781   2.463   1.490   7.929
 4013SOL    HW112782   2.507   1.439   7.860
 4013SOL    HW212783   2.402   1.546   7.881
 4014SOL     OW12784   3.583   0.394   8.825
 4014SOL    HW112785   3.656   0.456   8.824
 4014SOL    HW212786   3.612   0.322   8.769
 4015SOL     OW12787   2.121   1.346   7.736
 4015SOL    HW112788   2.028   1.343   7.714
 4015SOL    HW212789   2.124   1.383   7.824
 4016SOL     OW12790   1.974   1.020   9.167
 4016SOL    HW112791   1.898   0.998   9.221
 4016SOL    HW212792   2.049   0.984   9.215
 4017SOL     OW12793   2.520   0.204   8.946
 4017SOL    HW112794   2.600   0.179   8.899
 4017SOL    HW212795   2.550   0.225   9.035
 4018SOL     OW12796   1.943   0.339   7.495
 4018SOL    HW112797   1.872   0.286   7.459
 4018SOL    HW212798   1.957   0.408   7.430
 4019SOL     OW12799   3.292   0.858   8.848
 4019SOL    HW112800   3.243   0.919   8.793
 4019SOL    HW212801   3.381   0.861   8.814
 4020SOL     OW12802   1.926   0.183   7.768
 4020SOL    HW112803   1.925   0.250   7.699
 4020SOL    HW212804   2.001   0.127   7.746
 4021SOL     OW12805   3.041   1.340   7.565
 4021SOL    HW112806   2.950   1.310   7.567
 4021SOL    HW212807   3.069   1.340   7.656
 4022SOL     OW12808   2.481   0.830   8.881
 4022SOL    HW112809   2.536   0.907   8.866
 4022SOL    HW212810   2.542   0.757   8.890
 4023SOL     OW12811   3.346   1.776   8.426
 4023SOL    HW112812   3.370   1.835   8.354
 4023SOL    HW212813   3.428   1.758   8.471
 4024SOL     OW12814   2.578   0.563   9.154
 4024SOL    HW112815   2.616   0.628   9.213
 4024SOL    HW212816   2.611   0.479   9.185
 4025SOL     OW12817   3.333   1.201   9.080
 4025SOL    HW112818   3.320   1.214   9.174
 4025SOL    HW212819   3.426   1.215   9.066
 4026SOL     OW12820   2.242   1.743   9.016
 4026SOL    HW112821   2.155   1.773   8.989
 4026SOL    HW212822   2.226   1.657   9.056
 4027SOL     OW12823   3.532   0.881   8.703
 4027SOL    HW112824   3.524   0.796   8.661
 4027SOL    HW212825   3.522   0.945   8.633
 4028SOL     OW12826   3.080   0.330   7.895
 4028SOL    HW112827   3.145   0.260   7.885
 4028SOL    HW212828   3.108   0.377   7.974
 4029SOL     OW12829   2.449   0.738   8.119
 4029SOL    HW112830   2.491   0.823   8.102
 4029SOL    HW212831   2.382   0.731   8.051
 4030SOL     OW12832   3.625   0.365   9.091
 4030SOL    HW112833   3.609   0.378   8.998
 4030SOL    HW212834   3.547   0.319   9.123
 4031SOL     OW12835   3.608   0.933   8.960
 4031SOL    HW112836   3.604   1.028   8.973
 4031SOL    HW212837   3.592   0.921   8.867
 4032SOL     OW12838   2.726   1.368   7.482
 4032SOL    HW112839   2.685   1.395   7.564
 4032SOL    HW212840   2.743   1.450   7.435
 4033SOL     OW12841   2.522   1.797   8.381
 4033SOL    HW112842   2.521   1.885   8.418
 4033SOL    HW212843   2.614   1.772   8.382
 4034SOL     OW12844   2.729   0.967   8.303
 4034SOL    HW112845   2.779   0.895   8.342
 4034SOL    HW212846   2.695   1.015   8.378
 4035SOL     OW12847   2.942   0.989   7.537
 4035SOL    HW112848   2.919   1.039   7.459
 4035SOL    HW212849   3.016   0.935   7.510
 4036SOL     OW12850   3.717   1.555   8.293
 4036SOL    HW112851   3.639   1.543   8.238
 4036SOL    HW212852   3.710   1.487   8.360
 4037SOL     OW12853   2.087   1.302   9.304
 4037SOL    HW112854   2.019   1.242   9.274
 4037SOL    HW212855   2.069   1.314   9.398
 4038SOL     OW12856   1.948   1.234   8.111
 4038SOL    HW112857   1.950   1.187   8.195
 4038SOL    HW212858   2.015   1.190   8.059
 4039SOL     OW12859   2.543   1.403   9.075
 4039SOL    HW112860   2.463   1.359   9.105
 4039SOL    HW212861   2.538   1.490   9.112
 4040SOL     OW12862   3.670   0.182   8.687
 4040SOL    HW112863   3.669   0.088   8.707
 4040SOL    HW212864   3.687   0.186   8.592
 4041SOL     OW12865   2.298   0.433   7.978
 4041SOL    HW112866   2.320   0.364   7.915
 4041SOL    HW212867   2.242   0.390   8.042
 4042SOL     OW12868   3.562   1.490   8.546
 4042SOL    HW112869   3.481   1.466   8.500
 4042SOL    HW212870   3.574   1.420   8.610
 4043SOL     OW12871   2.191   0.557   8.740
 4043SOL    HW112872   2.247   0.500   8.794
 4043SOL    HW212873   2.211   0.530   8.650
 4044SOL     OW12874   2.688   1.578   8.126
 4044SOL    HW112875   2.677   1.626   8.044
 4044SOL    HW212876   2.612   1.520   8.130
 4045SOL     OW12877   3.294   0.216   8.566
 4045SOL    HW112878   3.330   0.145   8.619
 4045SOL    HW212879   3.243   0.269   8.627
 4046SOL     OW12880   2.858   0.008   8.598
 4046SOL    HW112881   2.815   4.423   8.590
 4046SOL    HW212882   2.951   4.487   8.610
 4047SOL     OW12883   2.633   1.332   7.763
 4047SOL    HW112884   2.601   1.242   7.768
 4047SOL    HW212885   2.716   1.331   7.810
 4048SOL     OW12886   2.483   1.558   8.730
 4048SOL    HW112887   2.485   1.637   8.783
 4048SOL    HW212888   2.572   1.550   8.695
 4049SOL     OW12889   3.203   0.053   7.601
 4049SOL    HW112890   3.241   4.477   7.557
 4049SOL    HW212891   3.127   0.017   7.648
 4050SOL     OW12892   3.177   0.463   8.125
 4050SOL    HW112893   3.117   0.537   8.126
 4050SOL    HW212894   3.165   0.422   8.211
 4051SOL     OW12895   3.447   0.200   8.315
 4051SOL    HW112896   3.388   0.215   8.389
 4051SOL    HW212897   3.450   0.284   8.269
 4052SOL     OW12898   1.906   1.072   7.753
 4052SOL    HW112899   2.000   1.063   7.736
 4052SOL    HW212900   1.877   0.983   7.776
 4053SOL     OW12901   2.744   1.652   7.792
 4053SOL    HW112902   2.673   1.634   7.730
 4053SOL    HW212903   2.714   1.728   7.842
 4054SOL     OW12904   2.091   0.626   9.431
 4054SOL    HW112905   2.004   0.620   9.469
 4054SOL    HW212906   2.080   0.596   9.340
 4055SOL     OW12907   2.071   0.298  10.299
 4055SOL    HW112908   2.101   0.270  10.385
 4055SOL    HW212909   1.988   0.250  10.286
 4056SOL     OW12910   1.870   0.386   9.948
 4056SOL    HW112911   1.784   0.405   9.985
 4056SOL    HW212912   1.855   0.312   9.890
 4057SOL     OW12913   2.430   1.287  10.484
 4057SOL    HW112914   2.342   1.287  10.448
 4057SOL    HW212915   2.443   1.375  10.518
 4058SOL     OW12916   3.423   1.512  10.017
 4058SOL    HW112917   3.380   1.492  10.100
 4058SOL    HW212918   3.351   1.516   9.953
 4059SOL     OW12919   2.996   0.699  10.009
 4059SOL    HW112920   3.042   0.782   9.999
 4059SOL    HW212921   2.946   0.709  10.090
 4060SOL     OW12922   3.629   0.607   9.538
 4060SOL    HW112923   3.608   0.597   9.445
 4060SOL    HW212924   3.596   0.527   9.579
 4061SOL     OW12925   2.620   1.144  10.352
 4061SOL    HW112926   2.550   1.178  10.407
 4061SOL    HW212927   2.654   1.221  10.305
 4062SOL     OW12928   2.716   0.777   0.021
 4062SOL    HW112929   2.722   0.834   0.098
 4062SOL    HW212930   2.749   0.831  11.049
 4063SOL     OW12931   2.549   1.004   9.957
 4063SOL    HW112932   2.613   0.991  10.027
 4063SOL    HW212933   2.478   1.055   9.998
 4064SOL     OW12934   2.194   1.423  10.378
 4064SOL    HW112935   2.119   1.389  10.330
 4064SOL    HW212936   2.243   1.474  10.313
 4065SOL     OW12937   3.326   1.499  10.659
 4065SOL    HW112938   3.381   1.577  10.669
 4065SOL    HW212939   3.270   1.500  10.737
 4066SOL     OW12940   2.310   0.394  10.786
 4066SOL    HW112941   2.388   0.339  10.796
 4066SOL    HW212942   2.238   0.341  10.819
 4067SOL     OW12943   3.473   0.446  10.048
 4067SOL    HW112944   3.393   0.468  10.002
 4067SOL    HW212945   3.493   0.524  10.100
 4068SOL     OW12946   2.082   1.721   9.785
 4068SOL    HW112947   2.123   1.756   9.864
 4068SOL    HW212948   2.155   1.709   9.724
 4069SOL     OW12949   2.089   1.442   9.845
 4069SOL    HW112950   2.064   1.535   9.854
 4069SOL    HW212951   2.031   1.396   9.906
 4070SOL     OW12952   2.120   1.090  10.201
 4070SOL    HW112953   2.115   1.004  10.242
 4070SOL    HW212954   2.061   1.145  10.254
 4071SOL     OW12955   2.475   1.780  10.742
 4071SOL    HW112956   2.393   1.766  10.790
 4071SOL    HW212957   2.497   1.872  10.759
 4072SOL     OW12958   2.449   0.981   9.444
 4072SOL    HW112959   2.493   1.031   9.375
 4072SOL    HW212960   2.488   1.012   9.525
 4073SOL     OW12961   3.416   0.135  10.782
 4073SOL    HW112962   3.464   0.192  10.721
 4073SOL    HW212963   3.474   0.127  10.858
 4074SOL     OW12964   1.978   0.653   9.870
 4074SOL    HW112965   1.948   0.564   9.891
 4074SOL    HW212966   1.969   0.702   9.951
 4075SOL     OW12967   3.704   1.759   9.645
 4075SOL    HW112968   3.766   1.731   9.712
 4075SOL    HW212969   3.728   1.850   9.627
 4076SOL     OW12970   1.893   1.588   9.434
 4076SOL    HW112971   1.876   1.496   9.451
 4076SOL    HW212972   1.868   1.633   9.515
 4077SOL     OW12973   3.553   0.921   9.951
 4077SOL    HW112974   3.636   0.878   9.931
 4077SOL    HW212975   3.531   0.969   9.872
 4078SOL     OW12976   3.508   1.107   9.739
 4078SOL    HW112977   3.594   1.114   9.697
 4078SOL    HW212978   3.512   1.168   9.813
 4079SOL     OW12979   1.988   0.726  10.915
 4079SOL    HW112980   2.081   0.747  10.905
 4079SOL    HW212981   1.944   0.810  10.910
 4080SOL     OW12982   2.476   1.384  10.044
 4080SOL    HW112983   2.430   1.301  10.053
 4080SOL    HW212984   2.459   1.411   9.954
 4081SOL     OW12985   3.156   1.237  10.751
 4081SOL    HW112986   3.181   1.176  10.681
 4081SOL    HW212987   3.213   1.213  10.825
 4082SOL     OW12988   2.679   0.014   9.860
 4082SOL    HW112989   2.714   0.099   9.835
 4082SOL    HW212990   2.584   0.024   9.853
 4083SOL     OW12991   2.053   0.965  10.579
 4083SOL    HW112992   2.137   0.922  10.563
 4083SOL    HW212993   1.988   0.910  10.534
 4084SOL     OW12994   3.394   0.992   9.508
 4084SOL    HW112995   3.323   0.936   9.539
 4084SOL    HW212996   3.434   1.027   9.588
 4085SOL     OW12997   3.061   1.806  10.927
 4085SOL    HW112998   3.058   1.869  10.855
 4085SOL    HW212999   3.068   1.721  10.884
 4086SOL     OW13000   2.197   0.277  11.088
 4086SOL    HW113001   2.253   0.340   0.032
 4086SOL    HW213002   2.113   0.282   0.034
 4087SOL     OW13003   3.328   1.420  10.261
 4087SOL    HW113004   3.260   1.435  10.326
 4087SOL    HW213005   3.316   1.329  10.234
 4088SOL     OW13006   3.521   1.738   9.888
 4088SOL    HW113007   3.500   1.709   9.799
 4088SOL    HW213008   3.496   1.665   9.944
 4089SOL     OW13009   2.455   0.723   9.575
 4089SOL    HW113010   2.461   0.805   9.525
 4089SOL    HW213011   2.390   0.741   9.643
 4090SOL     OW13012   3.153   0.362  10.244
 4090SOL    HW113013   3.064   0.332  10.228
 4090SOL    HW213014   3.189   0.299  10.306
 4091SOL     OW13015   3.443   1.670   9.619
 4091SOL    HW113016   3.533   1.702   9.612
 4091SOL    HW213017   3.416   1.653   9.529
 4092SOL     OW13018   2.658   0.618  10.766
 4092SOL    HW113019   2.626   0.593  10.852
 4092SOL    HW213020   2.619   0.553  10.706
 4093SOL     OW13021   2.828   0.899  10.902
 4093SOL    HW113022   2.876   0.826  10.862
 4093SOL    HW213023   2.777   0.936  10.830
 4094SOL     OW13024   2.858   0.418  10.546
 4094SOL    HW113025   2.770   0.428  10.582
 4094SOL    HW213026   2.846   0.365  10.467
 4095SOL     OW13027   2.912   0.697   9.737
 4095SOL    HW113028   2.928   0.690   9.831
 4095SOL    HW213029   2.829   0.651   9.723
 4096SOL     OW13030   1.951   0.821  10.086
 4096SOL    HW113031   2.032   0.814  10.137
 4096SOL    HW213032   1.907   0.898  10.121
 4097SOL     OW13033   1.968   1.792  10.894
 4097SOL    HW113034   1.960   1.790  10.989
 4097SOL    HW213035   1.885   1.830  10.864
 4098SOL     OW13036   2.717   0.369   9.493
 4098SOL    HW113037   2.789   0.403   9.440
 4098SOL    HW213038   2.732   0.274   9.496
 4099SOL     OW13039   3.239   1.143   9.851
 4099SOL    HW113040   3.317   1.129   9.798
 4099SOL    HW213041   3.186   1.204   9.801
 4100SOL     OW13042   2.401   0.204  10.212
 4100SOL    HW113043   2.421   0.222  10.303
 4100SOL    HW213044   2.392   0.290  10.171
 4101SOL     OW13045   2.869   1.445   9.783
 4101SOL    HW113046   2.830   1.517   9.733
 4101SOL    HW213047   2.851   1.466   9.874
 4102SOL     OW13048   2.216   1.785  10.149
 4102SOL    HW113049   2.255   1.699  10.164
 4102SOL    HW213050   2.284   1.847  10.177
 4103SOL     OW13051   3.660   1.060  10.178
 4103SOL    HW113052   3.606   1.039  10.102
 4103SOL    HW213053   3.599   1.064  10.251
 4104SOL     OW13054   3.091   1.538  10.823
 4104SOL    HW113055   3.097   1.451  10.861
 4104SOL    HW213056   3.027   1.529  10.752
 4105SOL     OW13057   2.182   0.957   9.560
 4105SOL    HW113058   2.264   0.975   9.514
 4105SOL    HW213059   2.151   0.875   9.521
 4106SOL     OW13060   3.341   0.742  10.035
 4106SOL    HW113061   3.329   0.697  10.118
 4106SOL    HW213062   3.418   0.797  10.048
 4107SOL     OW13063   2.316   1.265  11.053
 4107SOL    HW113064   2.288   1.278  10.963
 4107SOL    HW213065   2.250   1.207  11.091
 4108SOL     OW13066   2.984   1.777   9.542
 4108SOL    HW113067   2.910   1.735   9.587
 4108SOL    HW213068   3.006   1.717   9.471
 4109SOL     OW13069   2.056   0.266  10.815
 4109SOL    HW113070   1.987   0.332  10.808
 4109SOL    HW213071   2.074   0.260  10.909
 4110SOL     OW13072   3.491   1.380   9.397
 4110SOL    HW113073   3.450   1.465   9.382
 4110SOL    HW213074   3.422   1.316   9.379
 4111SOL     OW13075   2.330   1.720   9.652
 4111SOL    HW113076   2.367   1.794   9.700
 4111SOL    HW213077   2.387   1.709   9.576
 4112SOL     OW13078   3.282   0.138   9.728
 4112SOL    HW113079   3.266   0.086   9.649
 4112SOL    HW213080   3.376   0.131   9.742
 4113SOL     OW13081   2.094   1.761  10.542
 4113SOL    HW113082   2.165   1.712  10.584
 4113SOL    HW213083   2.115   1.758  10.448
 4114SOL     OW13084   2.797   1.697  10.210
 4114SOL    HW113085   2.876   1.647  10.231
 4114SOL    HW213086   2.755   1.648  10.139
 4115SOL     OW13087   2.254   0.694   9.786
 4115SOL    HW113088   2.277   0.602   9.798
 4115SOL    HW213089   2.160   0.699   9.804
 4116SOL     OW13090   2.489   0.122   9.432
 4116SOL    HW113091   2.577   0.085   9.441
 4116SOL    HW213092   2.456   0.086   9.350
 4117SOL     OW13093   2.622   0.266  11.045
 4117SOL    HW113094   2.691   0.207  11.075
 4117SOL    HW213095   2.585   0.303   0.026
 4118SOL     OW13096   2.739   1.523  10.502
 4118SOL    HW113097   2.723   1.485  10.415
 4118SOL    HW213098   2.810   1.470  10.538
 4119SOL     OW13099   3.206   0.590  10.753
 4119SOL    HW113100   3.256   0.573  10.833
 4119SOL    HW213101   3.232   0.678  10.727
 4120SOL     OW13102   2.677   1.397  10.248
 4120SOL    HW113103   2.761   1.384  10.204
 4120SOL    HW213104   2.612   1.395  10.178
 4121SOL     OW13105   2.785   0.518  10.210
 4121SOL    HW113106   2.769   0.516  10.115
 4121SOL    HW213107   2.822   0.432  10.230
 4122SOL     OW13108   2.416   0.076   9.831
 4122SOL    HW113109   2.328   0.048   9.855
 4122SOL    HW213110   2.403   0.141   9.762
 4123SOL     OW13111   3.290   1.198   9.351
 4123SOL    HW113112   3.320   1.122   9.401
 4123SOL    HW213113   3.204   1.219   9.388
 4124SOL     OW13114   2.158   0.069   9.507
 4124SOL    HW113115   2.236   0.121   9.490
 4124SOL    HW213116   2.188   4.500   9.566
 4125SOL     OW13117   2.814   0.240   9.778
 4125SOL    HW113118   2.762   0.295   9.720
 4125SOL    HW213119   2.903   0.276   9.773
 4126SOL     OW13120   2.940   0.684  10.772
 4126SOL    HW113121   2.867   0.622  10.772
 4126SOL    HW213122   3.018   0.630  10.766
 4127SOL     OW13123   3.085   1.571  10.104
 4127SOL    HW113124   3.103   1.637  10.037
 4127SOL    HW213125   3.154   1.583  10.169
 4128SOL     OW13126   2.331   1.149  10.044
 4128SOL    HW113127   2.261   1.130  10.107
 4128SOL    HW213128   2.291   1.133   9.959
 4129SOL     OW13129   3.132   1.794   9.917
 4129SOL    HW113130   3.178   1.855   9.859
 4129SOL    HW213131   3.067   1.848   9.962
 4130SOL     OW13132   2.892   0.548   9.326
 4130SOL    HW113133   2.843   0.629   9.311
 4130SOL    HW213134   2.950   0.568   9.400
 4131SOL     OW13135   1.942   0.549  10.708
 4131SOL    HW113136   2.033   0.554  10.677
 4131SOL    HW213137   1.937   0.614  10.778
 4132SOL     OW13138   2.424   0.244  10.477
 4132SOL    HW113139   2.447   0.157  10.512
 4132SOL    HW213140   2.333   0.256  10.502
 4133SOL     OW13141   2.728   0.504   9.936
 4133SOL    HW113142   2.682   0.544   9.863
 4133SOL    HW213143   2.696   0.413   9.937
 4134SOL     OW13144   2.826   0.026  10.091
 4134SOL    HW113145   2.777   0.024  10.009
 4134SOL    HW213146   2.839   4.434  10.114
 4135SOL     OW13147   3.298   1.163  10.167
 4135SOL    HW113148   3.230   1.095  10.166
 4135SOL    HW213149   3.322   1.174  10.075
 4136SOL     OW13150   3.327   0.605  10.285
 4136SOL    HW113151   3.275   0.525  10.287
 4136SOL    HW213152   3.386   0.597  10.361
 4137SOL     OW13153   3.708   0.817   9.692
 4137SOL    HW113154   3.764   0.766   9.751
 4137SOL    HW213155   3.679   0.755   9.625
 4138SOL     OW13156   2.353   1.418   9.467
 4138SOL    HW113157   2.279   1.389   9.520
 4138SOL    HW213158   2.337   1.381   9.380
 4139SOL     OW13159   3.532   1.265   9.955
 4139SOL    HW113160   3.626   1.268   9.970
 4139SOL    HW213161   3.501   1.353   9.977
 4140SOL     OW13162   3.256   0.570   9.380
 4140SOL    HW113163   3.195   0.555   9.451
 4140SOL    HW213164   3.342   0.551   9.417
 4141SOL     OW13165   2.384   0.266   9.633
 4141SOL    HW113166   2.431   0.214   9.567
 4141SOL    HW213167   2.366   0.349   9.591
 4142SOL     OW13168   3.621   1.229  10.869
 4142SOL    HW113169   3.713   1.201  10.871
 4142SOL    HW213170   3.622   1.316  10.910
 4143SOL     OW13171   2.925   1.354  10.650
 4143SOL    HW113172   2.847   1.321  10.694
 4143SOL    HW213173   2.998   1.306  10.689
 4144SOL     OW13174   2.991   1.207  10.416
 4144SOL    HW113175   2.925   1.239  10.477
 4144SOL    HW213176   2.959   1.234  10.330
 4145SOL     OW13177   3.491   1.099  10.388
 4145SOL    HW113178   3.487   1.160  10.461
 4145SOL    HW213179   3.411   1.116  10.338
 4146SOL     OW13180   2.760   0.126  10.698
 4146SOL    HW113181   2.787   0.089  10.614
 4146SOL    HW213182   2.843   0.144  10.744
 4147SOL     OW13183   2.571   1.061   9.681
 4147SOL    HW113184   2.557   1.045   9.774
 4147SOL    HW213185   2.646   1.007   9.658
 4148SOL     OW13186   2.281   0.815  10.560
 4148SOL    HW113187   2.350   0.824  10.627
 4148SOL    HW213188   2.246   0.727  10.575
 4149SOL     OW13189   3.132   0.382  10.581
 4149SOL    HW113190   3.162   0.459  10.629
 4149SOL    HW213191   3.043   0.404  10.554
 4150SOL     OW13192   1.925   1.568  10.657
 4150SOL    HW113193   1.896   1.645  10.609
 4150SOL    HW213194   2.020   1.577  10.661
 4151SOL     OW13195   2.212   1.109   9.801
 4151SOL    HW113196   2.217   1.182   9.739
 4151SOL    HW213197   2.210   1.031   9.746
 4152SOL     OW13198   2.418   0.530  10.168
 4152SOL    HW113199   2.432   0.589  10.094
 4152SOL    HW213200   2.482   0.559  10.234
 4153SOL     OW13201   3.110   1.348   9.699
 4153SOL    HW113202   3.166   1.420   9.730
 4153SOL    HW213203   3.023   1.369   9.733
 4154SOL     OW13204   3.141   1.459  10.455
 4154SOL    HW113205   3.197   1.461  10.532
 4154SOL    HW213206   3.088   1.380  10.466
 4155SOL     OW13207   3.444   0.624   9.787
 4155SOL    HW113208   3.397   0.674   9.853
 4155SOL    HW213209   3.488   0.689   9.733
 4156SOL     OW13210   2.213   1.514  10.629
 4156SOL    HW113211   2.197   1.477  10.543
 4156SOL    HW213212   2.308   1.532  10.630
 4157SOL     OW13213   2.276   0.735  10.905
 4157SOL    HW113214   2.338   0.780  10.848
 4157SOL    HW213215   2.313   0.648  10.919
 4158SOL     OW13216   3.456   0.760  10.969
 4158SOL    HW113217   3.379   0.816  10.963
 4158SOL    HW213218   3.525   0.810  10.926
 4159SOL     OW13219   2.445   0.873  10.341
 4159SOL    HW113220   2.473   0.965  10.340
 4159SOL    HW213221   2.388   0.866  10.418
 4160SOL     OW13222   3.220   0.860  10.344
 4160SOL    HW113223   3.138   0.852  10.296
 4160SOL    HW213224   3.261   0.774  10.337
 4161SOL     OW13225   3.066   0.535   9.573
 4161SOL    HW113226   3.072   0.455   9.625
 4161SOL    HW213227   3.023   0.598   9.632
 4162SOL     OW13228   2.151   0.232  10.549
 4162SOL    HW113229   2.114   0.250  10.635
 4162SOL    HW213230   2.185   0.143  10.556
 4163SOL     OW13231   1.910   1.309  10.584
 4163SOL    HW113232   1.940   1.256  10.659
 4163SOL    HW213233   1.913   1.399  10.616
 4164SOL     OW13234   2.586   0.632  10.368
 4164SOL    HW113235   2.659   0.613  10.310
 4164SOL    HW213236   2.558   0.720  10.344
 4165SOL     OW13237   2.159   0.056   9.964
 4165SOL    HW113238   2.149   0.151   9.966
 4165SOL    HW213239   2.171   0.030  10.055
 4166SOL     OW13240   3.476   0.377   9.673
 4166SOL    HW113241   3.505   0.314   9.738
 4166SOL    HW213242   3.454   0.455   9.724
 4167SOL     OW13243   2.890   0.762  10.271
 4167SOL    HW113244   2.887   0.777  10.366
 4167SOL    HW213245   2.861   0.671  10.261
 4168SOL     OW13246   2.838   1.572  11.004
 4168SOL    HW113247   2.822   1.622  10.923
 4168SOL    HW213248   2.865   1.486  10.974
 4169SOL     OW13249   3.719   1.494  10.912
 4169SOL    HW113250   3.734   1.529  10.824
 4169SOL    HW213251   3.786   1.536  10.966
 4170SOL     OW13252   2.222   0.918  11.095
 4170SOL    HW113253   2.307   0.934   0.037
 4170SOL    HW213254   2.240   0.852  11.028
 4171SOL     OW13255   3.393   0.265   9.438
 4171SOL    HW113256   3.321   0.209   9.467
 4171SOL    HW213257   3.422   0.310   9.517
 4172SOL     OW13258   3.154   0.826   9.341
 4172SOL    HW113259   3.196   0.740   9.344
 4172SOL    HW213260   3.185   0.866   9.260
 4173SOL     OW13261   2.927   1.335  10.163
 4173SOL    HW113262   2.930   1.262  10.101
 4173SOL    HW213263   2.989   1.399  10.128
 4174SOL     OW13264   2.171   0.809  10.257
 4174SOL    HW113265   2.264   0.831  10.250
 4174SOL    HW213266   2.170   0.720  10.291
 4175SOL     OW13267   2.198   0.531  10.323
 4175SOL    HW113268   2.156   0.447  10.304
 4175SOL    HW213269   2.274   0.533  10.265
 4176SOL     OW13270   3.015   0.216  10.769
 4176SOL    HW113271   3.029   0.266  10.849
 4176SOL    HW213272   3.055   0.269  10.700
 4177SOL     OW13273   1.867   1.320   9.505
 4177SOL    HW113274   1.779   1.334   9.468
 4177SOL    HW213275   1.864   1.230   9.538
 4178SOL     OW13276   1.947   1.790  10.241
 4178SOL    HW113277   1.917   1.708  10.202
 4178SOL    HW213278   2.037   1.799  10.210
 4179SOL     OW13279   2.363   1.568  10.215
 4179SOL    HW113280   2.431   1.632  10.234
 4179SOL    HW213281   2.405   1.503  10.159
 4180SOL     OW13282   2.846   0.795  10.538
 4180SOL    HW113283   2.900   0.772  10.613
 4180SOL    HW213284   2.761   0.754  10.555
 4181SOL     OW13285   1.896   0.543  10.429
 4181SOL    HW113286   1.975   0.525  10.378
 4181SOL    HW213287   1.927   0.548  10.519
 4182SOL     OW13288   2.673   0.575   9.665
 4182SOL    HW113289   2.677   0.503   9.602
 4182SOL    HW213290   2.599   0.629   9.636
 4183SOL     OW13291   3.502   0.601  10.496
 4183SOL    HW113292   3.493   0.543  10.571
 4183SOL    HW213293   3.590   0.583  10.462
 4184SOL     OW13294   2.127   1.559  11.054
 4184SOL    HW113295   2.094   1.617   0.022
 4184SOL    HW213296   2.102   1.471  11.083
 4185SOL     OW13297   2.565   0.457  10.574
 4185SOL    HW113298   2.515   0.382  10.543
 4185SOL    HW213299   2.562   0.519  10.500
 4186SOL     OW13300   2.804   1.680  10.758
 4186SOL    HW113301   2.763   1.648  10.678
 4186SOL    HW213302   2.791   1.775  10.755
 4187SOL     OW13303   2.327   0.493   9.495
 4187SOL    HW113304   2.386   0.565   9.516
 4187SOL    HW213305   2.241   0.534   9.483
 4188SOL     OW13306   2.015   1.138  10.780
 4188SOL    HW113307   2.008   1.083  10.858
 4188SOL    HW213308   2.028   1.076  10.709
 4189SOL     OW13309   3.187   1.053  10.538
 4189SOL    HW113310   3.213   0.987  10.473
 4189SOL    HW213311   3.117   1.102  10.495
 4190SOL     OW13312   3.173   0.857   9.616
 4190SOL    HW113313   3.098   0.827   9.667
 4190SOL    HW213314   3.147   0.843   9.525
 4191SOL     OW13315   3.636   1.745  10.461
 4191SOL    HW113316   3.694   1.771  10.390
 4191SOL    HW213317   3.610   1.656  10.441
 4192SOL     OW13318   3.103   1.734  10.424
 4192SOL    HW113319   3.185   1.754  10.379
 4192SOL    HW213320   3.108   1.640  10.441
 4193SOL     OW13321   1.947   1.266  10.322
 4193SOL    HW113322   1.934   1.279  10.416
 4193SOL    HW213323   1.872   1.213  10.295
 4194SOL     OW13324   3.580   0.129   9.803
 4194SOL    HW113325   3.652   0.137   9.740
 4194SOL    HW213326   3.607   0.058   9.861
 4195SOL     OW13327   3.252   1.568   9.795
 4195SOL    HW113328   3.313   1.599   9.727
 4195SOL    HW213329   3.204   1.645   9.822
 4196SOL     OW13330   3.141   0.927   9.983
 4196SOL    HW113331   3.213   0.865   9.987
 4196SOL    HW213332   3.174   1.000   9.930
 4197SOL     OW13333   2.680   1.274  10.738
 4197SOL    HW113334   2.649   1.308  10.822
 4197SOL    HW213335   2.609   1.294  10.677
 4198SOL     OW13336   2.535   1.619   9.463
 4198SOL    HW113337   2.544   1.630   9.368
 4198SOL    HW213338   2.480   1.542   9.473
 4199SOL     OW13339   3.486   1.720  10.697
 4199SOL    HW113340   3.540   1.734  10.620
 4199SOL    HW213341   3.470   1.808  10.732
 4200SOL     OW13342   3.701   0.155  10.277
 4200SOL    HW113343   3.732   0.078  10.229
 4200SOL    HW213344   3.614   0.172  10.240
 4201SOL     OW13345   2.127   0.323  10.027
 4201SOL    HW113346   2.041   0.357  10.001
 4201SOL    HW213347   2.120   0.314  10.123
 4202SOL     OW13348   3.069   1.606   9.341
 4202SOL    HW113349   3.060   1.515   9.368
 4202SOL    HW213350   3.004   1.618   9.272
 4203SOL     OW13351   2.687   1.005  10.687
 4203SOL    HW113352   2.729   0.998  10.601
 4203SOL    HW213353   2.687   1.099  10.705
 4204SOL     OW13354   2.778   0.910   9.600
 4204SOL    HW113355   2.840   0.942   9.534
 4204SOL    HW213356   2.824   0.840   9.645
 4205SOL     OW13357   3.354   1.625   9.353
 4205SOL    HW113358   3.260   1.619   9.339
 4205SOL    HW213359   3.390   1.631   9.264
 4206SOL     OW13360   2.231   1.302  10.806
 4206SOL    HW113361   2.219   1.379  10.750
 4206SOL    HW213362   2.155   1.246  10.787
 4207SOL     OW13363   3.475   1.282  10.593
 4207SOL    HW113364   3.530   1.268  10.670
 4207SOL    HW213365   3.418   1.354  10.617
 4208SOL     OW13366   2.913   1.107  10.017
 4208SOL    HW113367   2.842   1.056  10.055
 4208SOL    HW213368   2.975   1.041   9.985
 4209SOL     OW13369   2.869   0.244  10.314
 4209SOL    HW113370   2.874   0.220  10.221
 4209SOL    HW213371   2.860   0.160  10.359
 4210SOL     OW13372   2.464   1.490   9.791
 4210SOL    HW113373   2.506   1.439   9.722
 4210SOL    HW213374   2.401   1.545   9.744
 4211SOL     OW13375   3.581   0.394  10.689
 4211SOL    HW113376   3.653   0.457  10.690
 4211SOL    HW213377   3.610   0.324  10.631
 4212SOL     OW13378   2.121   1.346   9.598
 4212SOL    HW113379   2.028   1.343   9.576
 4212SOL    HW213380   2.124   1.384   9.686
 4213SOL     OW13381   1.977   1.009  11.018
 4213SOL    HW113382   1.908   1.000  11.083
 4213SOL    HW213383   2.057   0.981  11.063
 4214SOL     OW13384   2.514   0.186  10.809
 4214SOL    HW113385   2.592   0.165  10.757
 4214SOL    HW213386   2.548   0.222  10.891
 4215SOL     OW13387   1.943   0.339   9.357
 4215SOL    HW113388   1.872   0.286   9.321
 4215SOL    HW213389   1.957   0.408   9.292
 4216SOL     OW13390   3.291   0.849  10.710
 4216SOL    HW113391   3.243   0.917  10.662
 4216SOL    HW213392   3.381   0.858  10.678
 4217SOL     OW13393   1.926   0.182   9.630
 4217SOL    HW113394   1.925   0.250   9.561
 4217SOL    HW213395   2.001   0.127   9.608
 4218SOL     OW13396   3.041   1.340   9.427
 4218SOL    HW113397   2.950   1.310   9.429
 4218SOL    HW213398   3.069   1.340   9.518
 4219SOL     OW13399   2.482   0.830  10.744
 4219SOL    HW113400   2.538   0.906  10.729
 4219SOL    HW213401   2.543   0.756  10.752
 4220SOL     OW13402   3.345   1.777  10.288
 4220SOL    HW113403   3.371   1.835  10.216
 4220SOL    HW213404   3.427   1.757  10.333
 4221SOL     OW13405   2.576   0.565  11.017
 4221SOL    HW113406   2.611   0.638  11.068
 4221SOL    HW213407   2.627   0.489  11.044
 4222SOL     OW13408   2.243   1.731  10.873
 4222SOL    HW113409   2.158   1.771  10.855
 4222SOL    HW213410   2.223   1.658  10.932
 4223SOL     OW13411   3.533   0.882  10.567
 4223SOL    HW113412   3.524   0.797  10.524
 4223SOL    HW213413   3.524   0.946  10.496
 4224SOL     OW13414   3.080   0.330   9.758
 4224SOL    HW113415   3.146   0.261   9.747
 4224SOL    HW213416   3.108   0.377   9.836
 4225SOL     OW13417   2.449   0.738   9.981
 4225SOL    HW113418   2.491   0.823   9.964
 4225SOL    HW213419   2.382   0.731   9.913
 4226SOL     OW13420   3.613   0.313  10.951
 4226SOL    HW113421   3.595   0.353  10.866
 4226SOL    HW213422   3.536   0.332  11.004
 4227SOL     OW13423   3.612   0.935  10.825
 4227SOL    HW113424   3.603   1.029  10.839
 4227SOL    HW213425   3.594   0.923  10.732
 4228SOL     OW13426   2.725   1.368   9.343
 4228SOL    HW113427   2.685   1.395   9.426
 4228SOL    HW213428   2.743   1.450   9.297
 4229SOL     OW13429   2.522   1.798  10.244
 4229SOL    HW113430   2.520   1.886  10.282
 4229SOL    HW213431   2.614   1.773  10.244
 4230SOL     OW13432   2.729   0.967  10.166
 4230SOL    HW113433   2.779   0.895  10.204
 4230SOL    HW213434   2.695   1.015  10.241
 4231SOL     OW13435   2.942   0.989   9.399
 4231SOL    HW113436   2.919   1.039   9.321
 4231SOL    HW213437   3.016   0.935   9.372
 4232SOL     OW13438   3.717   1.556  10.155
 4232SOL    HW113439   3.639   1.543  10.100
 4232SOL    HW213440   3.710   1.487  10.222
 4233SOL     OW13441   1.948   1.234   9.973
 4233SOL    HW113442   1.949   1.187  10.057
 4233SOL    HW213443   2.015   1.190   9.921
 4234SOL     OW13444   2.542   1.396  10.940
 4234SOL    HW113445   2.469   1.345  10.975
 4234SOL    HW213446   2.506   1.484  10.930
 4235SOL     OW13447   3.665   0.180  10.550
 4235SOL    HW113448   3.676   0.087  10.569
 4235SOL    HW213449   3.683   0.187  10.456
 4236SOL     OW13450   2.298   0.433   9.840
 4236SOL    HW113451   2.320   0.364   9.777
 4236SOL    HW213452   2.242   0.390   9.905
 4237SOL     OW13453   3.562   1.491  10.408
 4237SOL    HW113454   3.482   1.466  10.363
 4237SOL    HW213455   3.576   1.421  10.472
 4238SOL     OW13456   2.190   0.557  10.601
 4238SOL    HW113457   2.244   0.500  10.656
 4238SOL    HW213458   2.210   0.530  10.512
 4239SOL     OW13459   2.688   1.578   9.988
 4239SOL    HW113460   2.677   1.626   9.906
 4239SOL    HW213461   2.612   1.520   9.992
 4240SOL     OW13462   3.293   0.215  10.429
 4240SOL    HW113463   3.333   0.147  10.483
 4240SOL    HW213464   3.244   0.269  10.490
 4241SOL     OW13465   2.857   0.009  10.460
 4241SOL    HW113466   2.815   4.424  10.450
 4241SOL    HW213467   2.950   4.488  10.472
 4242SOL     OW13468   2.634   1.332   9.624
 4242SOL    HW113469   2.601   1.242   9.630
 4242SOL    HW213470   2.716   1.331   9.672
 4243SOL     OW13471   2.483   1.554  10.593
 4243SOL    HW113472   2.483   1.635  10.644
 4243SOL    HW213473   2.571   1.549  10.556
 4244SOL     OW13474   3.203   0.053   9.463
 4244SOL    HW113475   3.242   4.477   9.419
 4244SOL    HW213476   3.127   0.017   9.510
 4245SOL     OW13477   3.177   0.463   9.987
 4245SOL    HW113478   3.116   0.537   9.988
 4245SOL    HW213479   3.164   0.421  10.073
 4246SOL     OW13480   3.447   0.200  10.177
 4246SOL    HW113481   3.388   0.215  10.251
 4246SOL    HW213482   3.450   0.284  10.131
 4247SOL     OW13483   1.906   1.071   9.616
 4247SOL    HW113484   2.000   1.062   9.598
 4247SOL    HW213485   1.877   0.983   9.639
 4248SOL     OW13486   2.745   1.652   9.654
 4248SOL    HW113487   2.673   1.634   9.592
 4248SOL    HW213488   2.714   1.727   9.704
 4249SOL     OW13489   2.043   2.527   0.077
 4249SOL    HW113490   1.981   2.506   0.146
 4249SOL    HW213491   2.089   2.445   0.059
 4250SOL     OW13492   1.843   2.263   0.638
 4250SOL    HW113493   1.760   2.283   0.682
 4250SOL    HW213494   1.833   2.173   0.609
 4251SOL     OW13495   2.429   3.148   1.175
 4251SOL    HW113496   2.342   3.151   1.135
 4251SOL    HW213497   2.443   3.237   1.207
 4252SOL     OW13498   3.422   3.373   0.706
 4252SOL    HW113499   3.379   3.354   0.789
 4252SOL    HW213500   3.351   3.377   0.643
 4253SOL     OW13501   2.991   2.562   0.700
 4253SOL    HW113502   3.041   2.643   0.690
 4253SOL    HW213503   2.945   2.572   0.783
 4254SOL     OW13504   3.637   2.464   0.218
 4254SOL    HW113505   3.583   2.468   0.139
 4254SOL    HW213506   3.598   2.393   0.270
 4255SOL     OW13507   2.619   3.003   1.043
 4255SOL    HW113508   2.548   3.039   1.097
 4255SOL    HW213509   2.654   3.080   0.997
 4256SOL     OW13510   2.729   2.641   1.819
 4256SOL    HW113511   2.721   2.711   1.883
 4256SOL    HW213512   2.754   2.685   1.738
 4257SOL     OW13513   2.560   2.903   0.650
 4257SOL    HW113514   2.619   2.880   0.722
 4257SOL    HW213515   2.484   2.941   0.693
 4258SOL     OW13516   2.573   3.015   1.807
 4258SOL    HW113517   2.621   3.093   1.835
 4258SOL    HW213518   2.490   3.049   1.773
 4259SOL     OW13519   2.193   3.288   1.068
 4259SOL    HW113520   2.120   3.251   1.018
 4259SOL    HW213521   2.243   3.339   1.004
 4260SOL     OW13522   3.323   3.361   1.353
 4260SOL    HW113523   3.372   3.442   1.363
 4260SOL    HW213524   3.263   3.361   1.428
 4261SOL     OW13525   3.474   2.310   0.740
 4261SOL    HW113526   3.397   2.333   0.688
 4261SOL    HW213527   3.491   2.388   0.794
 4262SOL     OW13528   2.081   3.575   0.474
 4262SOL    HW113529   2.103   3.653   0.525
 4262SOL    HW213530   2.150   3.569   0.408
 4263SOL     OW13531   2.998   3.204   1.692
 4263SOL    HW113532   3.039   3.199   1.779
 4263SOL    HW213533   2.946   3.124   1.686
 4264SOL     OW13534   2.090   3.302   0.534
 4264SOL    HW113535   2.076   3.397   0.536
 4264SOL    HW213536   2.029   3.267   0.598
 4265SOL     OW13537   2.117   2.956   0.890
 4265SOL    HW113538   2.112   2.868   0.929
 4265SOL    HW213539   2.058   3.009   0.943
 4266SOL     OW13540   2.475   3.653   1.431
 4266SOL    HW113541   2.392   3.635   1.476
 4266SOL    HW213542   2.497   3.742   1.455
 4267SOL     OW13543   2.438   2.862   0.135
 4267SOL    HW113544   2.486   2.914   0.070
 4267SOL    HW213545   2.482   2.880   0.218
 4268SOL     OW13546   3.458   1.985   1.468
 4268SOL    HW113547   3.463   2.065   1.417
 4268SOL    HW213548   3.444   2.015   1.558
 4269SOL     OW13549   1.966   2.507   0.561
 4269SOL    HW113550   1.932   2.421   0.587
 4269SOL    HW213551   1.964   2.559   0.642
 4270SOL     OW13552   3.704   3.622   0.334
 4270SOL    HW113553   3.767   3.592   0.400
 4270SOL    HW213554   3.730   3.712   0.315
 4271SOL     OW13555   1.907   3.464   0.119
 4271SOL    HW113556   1.879   3.375   0.143
 4271SOL    HW213557   1.880   3.518   0.193
 4272SOL     OW13558   3.550   2.779   0.641
 4272SOL    HW113559   3.635   2.740   0.622
 4272SOL    HW213560   3.530   2.831   0.563
 4273SOL     OW13561   3.508   2.967   0.432
 4273SOL    HW113562   3.591   2.979   0.385
 4273SOL    HW213563   3.513   3.029   0.504
 4274SOL     OW13564   1.997   2.606   1.580
 4274SOL    HW113565   2.035   2.609   1.667
 4274SOL    HW213566   1.939   2.682   1.576
 4275SOL     OW13567   2.475   3.248   0.735
 4275SOL    HW113568   2.428   3.165   0.745
 4275SOL    HW213569   2.459   3.275   0.645
 4276SOL     OW13570   3.151   3.100   1.424
 4276SOL    HW113571   3.183   3.033   1.364
 4276SOL    HW213572   3.208   3.093   1.500
 4277SOL     OW13573   2.671   1.866   0.504
 4277SOL    HW113574   2.713   1.950   0.489
 4277SOL    HW213575   2.578   1.886   0.513
 4278SOL     OW13576   2.047   2.834   1.270
 4278SOL    HW113577   2.132   2.792   1.255
 4278SOL    HW213578   1.984   2.777   1.226
 4279SOL     OW13579   3.380   2.863   0.202
 4279SOL    HW113580   3.316   2.802   0.238
 4279SOL    HW213581   3.430   2.893   0.278
 4280SOL     OW13582   3.047   3.668   1.622
 4280SOL    HW113583   3.059   3.726   1.547
 4280SOL    HW213584   3.063   3.580   1.586
 4281SOL     OW13585   3.328   3.282   0.952
 4281SOL    HW113586   3.260   3.296   1.017
 4281SOL    HW213587   3.316   3.191   0.925
 4282SOL     OW13588   3.521   3.600   0.579
 4282SOL    HW113589   3.501   3.572   0.490
 4282SOL    HW213590   3.496   3.526   0.634
 4283SOL     OW13591   2.499   2.639   0.304
 4283SOL    HW113592   2.488   2.684   0.220
 4283SOL    HW213593   2.410   2.626   0.336
 4284SOL     OW13594   3.142   2.213   0.932
 4284SOL    HW113595   3.052   2.180   0.941
 4284SOL    HW213596   3.193   2.160   0.994
 4285SOL     OW13597   3.444   3.532   0.312
 4285SOL    HW113598   3.534   3.563   0.305
 4285SOL    HW213599   3.418   3.513   0.222
 4286SOL     OW13600   2.668   2.471   1.469
 4286SOL    HW113601   2.667   2.476   1.565
 4286SOL    HW213602   2.611   2.398   1.447
 4287SOL     OW13603   3.256   2.336   1.678
 4287SOL    HW113604   3.258   2.380   1.763
 4287SOL    HW213605   3.317   2.263   1.688
 4288SOL     OW13606   2.817   2.749   1.580
 4288SOL    HW113607   2.875   2.682   1.545
 4288SOL    HW213608   2.776   2.788   1.503
 4289SOL     OW13609   2.864   2.273   1.235
 4289SOL    HW113610   2.783   2.288   1.283
 4289SOL    HW213611   2.837   2.233   1.153
 4290SOL     OW13612   2.912   2.563   0.431
 4290SOL    HW113613   2.936   2.560   0.523
 4290SOL    HW213614   2.824   2.525   0.427
 4291SOL     OW13615   1.950   2.683   0.774
 4291SOL    HW113616   2.031   2.680   0.825
 4291SOL    HW213617   1.904   2.760   0.808
 4292SOL     OW13618   1.989   3.708   1.577
 4292SOL    HW113619   1.989   3.687   1.671
 4292SOL    HW213620   1.897   3.702   1.551
 4293SOL     OW13621   2.752   2.214   0.217
 4293SOL    HW113622   2.802   2.274   0.162
 4293SOL    HW213623   2.763   2.129   0.175
 4294SOL     OW13624   3.571   2.437   1.828
 4294SOL    HW113625   3.533   2.511   1.781
 4294SOL    HW213626   3.598   2.376   1.759
 4295SOL     OW13627   3.239   3.003   0.541
 4295SOL    HW113628   3.317   2.990   0.488
 4295SOL    HW213629   3.186   3.066   0.492
 4296SOL     OW13630   2.450   2.030   0.871
 4296SOL    HW113631   2.441   2.039   0.966
 4296SOL    HW213632   2.453   2.120   0.839
 4297SOL     OW13633   2.869   3.307   0.474
 4297SOL    HW113634   2.830   3.379   0.425
 4297SOL    HW213635   2.850   3.328   0.565
 4298SOL     OW13636   2.216   3.670   0.862
 4298SOL    HW113637   2.260   3.585   0.869
 4298SOL    HW213638   2.286   3.734   0.879
 4299SOL     OW13639   3.660   2.920   0.869
 4299SOL    HW113640   3.605   2.904   0.792
 4299SOL    HW213641   3.598   2.925   0.942
 4300SOL     OW13642   3.090   3.401   1.513
 4300SOL    HW113643   3.076   3.328   1.573
 4300SOL    HW213644   3.027   3.386   1.442
 4301SOL     OW13645   2.186   2.810   0.270
 4301SOL    HW113646   2.264   2.838   0.222
 4301SOL    HW213647   2.147   2.742   0.216
 4302SOL     OW13648   3.340   2.601   0.726
 4302SOL    HW113649   3.331   2.560   0.812
 4302SOL    HW213650   3.417   2.658   0.735
 4303SOL     OW13651   2.327   3.125   1.737
 4303SOL    HW113652   2.300   3.130   1.645
 4303SOL    HW213653   2.245   3.125   1.787
 4304SOL     OW13654   2.969   3.641   0.227
 4304SOL    HW113655   2.910   3.589   0.281
 4304SOL    HW213656   3.011   3.577   0.169
 4305SOL     OW13657   3.490   3.236   0.089
 4305SOL    HW113658   3.447   3.321   0.077
 4305SOL    HW213659   3.424   3.173   0.060
 4306SOL     OW13660   2.331   3.595   0.327
 4306SOL    HW113661   2.369   3.657   0.389
 4306SOL    HW213662   2.403   3.572   0.269
 4307SOL     OW13663   3.264   1.970   0.431
 4307SOL    HW113664   3.255   1.947   0.338
 4307SOL    HW213665   3.358   1.976   0.445
 4308SOL     OW13666   2.118   3.654   1.232
 4308SOL    HW113667   2.169   3.587   1.278
 4308SOL    HW213668   2.106   3.619   1.144
 4309SOL     OW13669   2.800   3.560   0.899
 4309SOL    HW113670   2.878   3.508   0.919
 4309SOL    HW213671   2.755   3.511   0.830
 4310SOL     OW13672   3.398   2.087   1.725
 4310SOL    HW113673   3.407   2.108   1.818
 4310SOL    HW213674   3.329   2.020   1.722
 4311SOL     OW13675   2.476   1.969   0.131
 4311SOL    HW113676   2.568   1.942   0.129
 4311SOL    HW213677   2.443   1.949   0.044
 4312SOL     OW13678   2.633   2.115   1.744
 4312SOL    HW113679   2.713   2.062   1.750
 4312SOL    HW213680   2.590   2.103   1.828
 4313SOL     OW13681   2.738   3.383   1.194
 4313SOL    HW113682   2.723   3.347   1.106
 4313SOL    HW213683   2.808   3.329   1.230
 4314SOL     OW13684   3.203   2.452   1.433
 4314SOL    HW113685   3.235   2.419   1.518
 4314SOL    HW213686   3.241   2.539   1.425
 4315SOL     OW13687   2.676   3.257   0.939
 4315SOL    HW113688   2.761   3.246   0.895
 4315SOL    HW213689   2.612   3.258   0.868
 4316SOL     OW13690   2.795   2.363   0.914
 4316SOL    HW113691   2.770   2.360   0.821
 4316SOL    HW213692   2.828   2.275   0.933
 4317SOL     OW13693   2.405   1.939   0.506
 4317SOL    HW113694   2.357   1.942   0.589
 4317SOL    HW213695   2.374   2.015   0.458
 4318SOL     OW13696   3.287   3.058   0.030
 4318SOL    HW113697   3.319   2.986   0.084
 4318SOL    HW213698   3.204   3.084   0.070
 4319SOL     OW13699   2.158   1.803   0.131
 4319SOL    HW113700   2.167   1.891   0.095
 4319SOL    HW213701   2.228   1.796   0.196
 4320SOL     OW13702   2.798   2.111   0.463
 4320SOL    HW113703   2.773   2.152   0.380
 4320SOL    HW213704   2.893   2.121   0.468
 4321SOL     OW13705   2.947   2.544   1.459
 4321SOL    HW113706   2.881   2.475   1.467
 4321SOL    HW213707   3.030   2.498   1.452
 4322SOL     OW13708   3.085   3.432   0.794
 4322SOL    HW113709   3.102   3.498   0.727
 4322SOL    HW213710   3.154   3.445   0.859
 4323SOL     OW13711   2.329   3.014   0.737
 4323SOL    HW113712   2.259   2.995   0.799
 4323SOL    HW213713   2.290   2.998   0.651
 4324SOL     OW13714   3.131   3.656   0.606
 4324SOL    HW113715   3.178   3.718   0.549
 4324SOL    HW213716   3.067   3.710   0.651
 4325SOL     OW13717   2.902   2.379   0.056
 4325SOL    HW113718   2.869   2.447  11.097
 4325SOL    HW213719   2.974   2.421   0.103
 4326SOL     OW13720   1.944   2.424   1.379
 4326SOL    HW113721   2.037   2.404   1.387
 4326SOL    HW213722   1.928   2.490   1.447
 4327SOL     OW13723   2.419   2.027   1.142
 4327SOL    HW113724   2.445   1.972   1.216
 4327SOL    HW213725   2.332   2.060   1.166
 4328SOL     OW13726   2.744   2.315   0.650
 4328SOL    HW113727   2.689   2.375   0.600
 4328SOL    HW213728   2.758   2.241   0.591
 4329SOL     OW13729   2.877   1.914   0.751
 4329SOL    HW113730   2.817   1.907   0.677
 4329SOL    HW213731   2.857   1.839   0.807
 4330SOL     OW13732   3.299   3.025   0.857
 4330SOL    HW113733   3.230   2.959   0.856
 4330SOL    HW213734   3.323   3.037   0.766
 4331SOL     OW13735   3.329   2.467   0.978
 4331SOL    HW113736   3.278   2.385   0.981
 4331SOL    HW213737   3.389   2.461   1.052
 4332SOL     OW13738   3.711   2.676   0.378
 4332SOL    HW113739   3.764   2.626   0.440
 4332SOL    HW213740   3.683   2.612   0.313
 4333SOL     OW13741   2.356   3.286   0.172
 4333SOL    HW113742   2.279   3.260   0.223
 4333SOL    HW213743   2.351   3.233   0.093
 4334SOL     OW13744   3.532   3.126   0.648
 4334SOL    HW113745   3.627   3.130   0.660
 4334SOL    HW213746   3.502   3.215   0.668
 4335SOL     OW13747   3.254   2.439   0.081
 4335SOL    HW113748   3.196   2.419   0.154
 4335SOL    HW213749   3.320   2.369   0.083
 4336SOL     OW13750   3.615   3.101   1.574
 4336SOL    HW113751   3.702   3.061   1.571
 4336SOL    HW213752   3.630   3.190   1.603
 4337SOL     OW13753   2.921   3.216   1.334
 4337SOL    HW113754   2.846   3.185   1.386
 4337SOL    HW213755   2.997   3.174   1.375
 4338SOL     OW13756   3.469   3.487   1.653
 4338SOL    HW113757   3.464   3.521   1.564
 4338SOL    HW213758   3.552   3.440   1.656
 4339SOL     OW13759   2.990   3.065   1.106
 4339SOL    HW113760   2.931   3.104   1.171
 4339SOL    HW213761   2.957   3.096   1.022
 4340SOL     OW13762   3.490   2.960   1.078
 4340SOL    HW113763   3.486   3.022   1.151
 4340SOL    HW213764   3.411   2.977   1.027
 4341SOL     OW13765   2.785   1.958   1.397
 4341SOL    HW113766   2.806   1.938   1.305
 4341SOL    HW213767   2.865   1.997   1.432
 4342SOL     OW13768   2.846   2.977   1.721
 4342SOL    HW113769   2.754   2.993   1.742
 4342SOL    HW213770   2.845   2.899   1.666
 4343SOL     OW13771   2.571   2.929   0.369
 4343SOL    HW113772   2.560   2.920   0.464
 4343SOL    HW213773   2.644   2.869   0.349
 4344SOL     OW13774   2.277   2.688   1.251
 4344SOL    HW113775   2.344   2.704   1.317
 4344SOL    HW213776   2.271   2.592   1.246
 4345SOL     OW13777   3.133   2.239   1.276
 4345SOL    HW113778   3.163   2.317   1.321
 4345SOL    HW213779   3.043   2.260   1.250
 4346SOL     OW13780   1.931   3.435   1.352
 4346SOL    HW113781   1.900   3.507   1.298
 4346SOL    HW213782   2.027   3.440   1.346
 4347SOL     OW13783   2.213   2.974   0.493
 4347SOL    HW113784   2.215   3.050   0.436
 4347SOL    HW213785   2.206   2.899   0.434
 4348SOL     OW13786   3.109   3.208   0.395
 4348SOL    HW113787   3.165   3.281   0.422
 4348SOL    HW213788   3.022   3.231   0.426
 4349SOL     OW13789   3.142   3.319   1.146
 4349SOL    HW113790   3.197   3.321   1.224
 4349SOL    HW213791   3.087   3.242   1.158
 4350SOL     OW13792   3.447   2.489   0.477
 4350SOL    HW113793   3.397   2.535   0.545
 4350SOL    HW213794   3.483   2.559   0.422
 4351SOL     OW13795   2.209   3.389   1.315
 4351SOL    HW113796   2.196   3.346   1.231
 4351SOL    HW213797   2.304   3.401   1.322
 4352SOL     OW13798   3.463   2.641   1.682
 4352SOL    HW113799   3.376   2.681   1.674
 4352SOL    HW213800   3.515   2.682   1.613
 4353SOL     OW13801   2.867   1.979   1.758
 4353SOL    HW113802   2.919   2.053   1.727
 4353SOL    HW213803   2.916   1.902   1.730
 4354SOL     OW13804   2.363   1.897   1.752
 4354SOL    HW113805   2.320   1.847   1.683
 4354SOL    HW213806   2.310   1.976   1.760
 4355SOL     OW13807   2.422   2.749   1.021
 4355SOL    HW113808   2.483   2.823   1.024
 4355SOL    HW213809   2.386   2.744   1.109
 4356SOL     OW13810   3.220   2.720   1.031
 4356SOL    HW113811   3.137   2.711   0.984
 4356SOL    HW213812   3.260   2.634   1.025
 4357SOL     OW13813   3.077   2.394   0.281
 4357SOL    HW113814   3.078   2.312   0.330
 4357SOL    HW213815   3.027   2.455   0.336
 4358SOL     OW13816   1.909   3.173   1.277
 4358SOL    HW113817   1.942   3.119   1.349
 4358SOL    HW213818   1.915   3.263   1.309
 4359SOL     OW13819   3.596   2.822   1.852
 4359SOL    HW113820   3.550   2.761   1.794
 4359SOL    HW213821   3.537   2.834   1.926
 4360SOL     OW13822   3.479   2.236   0.366
 4360SOL    HW113823   3.505   2.172   0.432
 4360SOL    HW213824   3.455   2.314   0.417
 4361SOL     OW13825   2.886   2.618   0.959
 4361SOL    HW113826   2.887   2.637   1.052
 4361SOL    HW213827   2.851   2.529   0.952
 4362SOL     OW13828   2.844   3.428   1.716
 4362SOL    HW113829   2.829   3.473   1.633
 4362SOL    HW213830   2.887   3.346   1.693
 4363SOL     OW13831   3.717   3.369   1.606
 4363SOL    HW113832   3.735   3.395   1.515
 4363SOL    HW213833   3.798   3.388   1.652
 4364SOL     OW13834   2.223   2.769   1.797
 4364SOL    HW113835   2.293   2.799   1.855
 4364SOL    HW213836   2.269   2.728   1.724
 4365SOL     OW13837   3.398   2.151   0.116
 4365SOL    HW113838   3.338   2.078   0.132
 4365SOL    HW213839   3.430   2.175   0.203
 4366SOL     OW13840   3.149   2.683   0.031
 4366SOL    HW113841   3.195   2.600   0.044
 4366SOL    HW213842   3.188   2.721  11.052
 4367SOL     OW13843   2.927   3.197   0.854
 4367SOL    HW113844   2.930   3.125   0.792
 4367SOL    HW213845   2.989   3.262   0.819
 4368SOL     OW13846   2.168   2.680   0.944
 4368SOL    HW113847   2.259   2.708   0.947
 4368SOL    HW213848   2.164   2.605   1.003
 4369SOL     OW13849   2.996   2.241   1.679
 4369SOL    HW113850   2.949   2.293   1.744
 4369SOL    HW213851   3.084   2.278   1.677
 4370SOL     OW13852   3.024   2.066   1.469
 4370SOL    HW113853   3.013   2.129   1.541
 4370SOL    HW213854   3.065   2.117   1.399
 4371SOL     OW13855   1.869   3.190   0.195
 4371SOL    HW113856   1.783   3.202   0.156
 4371SOL    HW213857   1.869   3.099   0.225
 4372SOL     OW13858   1.952   3.649   0.938
 4372SOL    HW113859   1.922   3.570   0.894
 4372SOL    HW213860   2.042   3.661   0.907
 4373SOL     OW13861   2.359   3.436   0.906
 4373SOL    HW113862   2.428   3.498   0.930
 4373SOL    HW213863   2.403   3.372   0.849
 4374SOL     OW13864   2.852   2.657   1.226
 4374SOL    HW113865   2.907   2.631   1.300
 4374SOL    HW213866   2.763   2.629   1.251
 4375SOL     OW13867   1.899   2.418   1.113
 4375SOL    HW113868   1.961   2.355   1.076
 4375SOL    HW213869   1.920   2.420   1.206
 4376SOL     OW13870   3.238   2.802   1.658
 4376SOL    HW113871   3.260   2.895   1.657
 4376SOL    HW213872   3.237   2.776   1.566
 4377SOL     OW13873   3.504   2.463   1.187
 4377SOL    HW113874   3.494   2.403   1.261
 4377SOL    HW213875   3.591   2.444   1.152
 4378SOL     OW13876   2.107   3.414   1.728
 4378SOL    HW113877   2.083   3.478   1.794
 4378SOL    HW213878   2.107   3.330   1.775
 4379SOL     OW13879   2.790   3.541   1.467
 4379SOL    HW113880   2.764   3.507   1.382
 4379SOL    HW213881   2.786   3.636   1.458
 4380SOL     OW13882   2.008   3.003   1.475
 4380SOL    HW113883   2.010   2.950   1.554
 4380SOL    HW213884   2.023   2.941   1.404
 4381SOL     OW13885   3.188   2.909   1.224
 4381SOL    HW113886   3.212   2.846   1.156
 4381SOL    HW213887   3.118   2.961   1.185
 4382SOL     OW13888   3.170   2.716   0.309
 4382SOL    HW113889   3.095   2.684   0.358
 4382SOL    HW213890   3.149   2.701   0.217
 4383SOL     OW13891   3.634   3.606   1.151
 4383SOL    HW113892   3.693   3.633   1.080
 4383SOL    HW213893   3.609   3.517   1.129
 4384SOL     OW13894   3.103   3.595   1.114
 4384SOL    HW113895   3.185   3.616   1.069
 4384SOL    HW213896   3.108   3.501   1.132
 4385SOL     OW13897   1.945   3.129   1.013
 4385SOL    HW113898   1.931   3.141   1.107
 4385SOL    HW213899   1.871   3.075   0.985
 4386SOL     OW13900   2.539   3.527   1.728
 4386SOL    HW113901   2.486   3.607   1.724
 4386SOL    HW213902   2.604   3.539   1.658
 4387SOL     OW13903   2.777   1.956   0.107
 4387SOL    HW113904   2.828   1.921   0.033
 4387SOL    HW213905   2.815   1.914   0.184
 4388SOL     OW13906   3.580   2.008   0.510
 4388SOL    HW113907   3.653   1.994   0.450
 4388SOL    HW213908   3.565   1.922   0.550
 4389SOL     OW13909   3.252   3.430   0.485
 4389SOL    HW113910   3.313   3.461   0.419
 4389SOL    HW213911   3.205   3.508   0.513
 4390SOL     OW13912   1.999   3.657   1.843
 4390SOL    HW113913   1.948   3.593   1.891
 4390SOL    HW213914   2.045   3.707   1.910
 4391SOL     OW13915   3.140   2.787   0.671
 4391SOL    HW113916   3.214   2.726   0.676
 4391SOL    HW213917   3.173   2.860   0.619
 4392SOL     OW13918   2.677   3.136   1.430
 4392SOL    HW113919   2.649   3.175   1.513
 4392SOL    HW213920   2.608   3.160   1.368
 4393SOL     OW13921   2.536   3.483   0.168
 4393SOL    HW113922   2.549   3.492   0.073
 4393SOL    HW213923   2.479   3.407   0.177
 4394SOL     OW13924   3.490   3.588   1.391
 4394SOL    HW113925   3.539   3.595   1.310
 4394SOL    HW213926   3.476   3.679   1.419
 4395SOL     OW13927   3.702   2.035   0.968
 4395SOL    HW113928   3.732   1.948   0.940
 4395SOL    HW213929   3.616   2.045   0.927
 4396SOL     OW13930   3.085   3.464   0.052
 4396SOL    HW113931   3.072   3.372   0.072
 4396SOL    HW213932   3.019   3.484  11.085
 4397SOL     OW13933   2.698   2.874   1.369
 4397SOL    HW113934   2.737   2.874   1.281
 4397SOL    HW213935   2.693   2.966   1.393
 4398SOL     OW13936   2.785   2.781   0.287
 4398SOL    HW113937   2.853   2.817   0.230
 4398SOL    HW213938   2.830   2.712   0.337
 4399SOL     OW13939   3.361   3.484   0.047
 4399SOL    HW113940   3.265   3.479   0.044
 4399SOL    HW213941   3.387   3.498  11.056
 4400SOL     OW13942   2.231   3.164   1.492
 4400SOL    HW113943   2.218   3.241   1.437
 4400SOL    HW213944   2.154   3.110   1.476
 4401SOL     OW13945   3.473   3.145   1.281
 4401SOL    HW113946   3.532   3.134   1.355
 4401SOL    HW213947   3.413   3.214   1.308
 4402SOL     OW13948   2.915   2.969   0.707
 4402SOL    HW113949   2.844   2.918   0.746
 4402SOL    HW213950   2.976   2.904   0.674
 4403SOL     OW13951   2.884   2.100   0.967
 4403SOL    HW113952   2.878   2.053   0.884
 4403SOL    HW213953   2.878   2.031   1.034
 4404SOL     OW13954   2.464   3.352   0.482
 4404SOL    HW113955   2.505   3.301   0.413
 4404SOL    HW213956   2.396   3.402   0.438
 4405SOL     OW13957   3.583   2.254   1.380
 4405SOL    HW113958   3.655   2.317   1.379
 4405SOL    HW213959   3.613   2.183   1.324
 4406SOL     OW13960   2.128   3.198   0.291
 4406SOL    HW113961   2.040   3.201   0.253
 4406SOL    HW213962   2.118   3.239   0.377
 4407SOL     OW13963   1.976   2.883   1.722
 4407SOL    HW113964   1.898   2.860   1.773
 4407SOL    HW213965   2.048   2.841   1.768
 4408SOL     OW13966   2.544   2.051   1.487
 4408SOL    HW113967   2.631   2.025   1.456
 4408SOL    HW213968   2.559   2.083   1.576
 4409SOL     OW13969   1.885   2.267   0.063
 4409SOL    HW113970   1.824   2.201   0.030
 4409SOL    HW213971   1.941   2.287  11.088
 4410SOL     OW13972   3.292   2.721   1.401
 4410SOL    HW113973   3.244   2.781   1.344
 4410SOL    HW213974   3.382   2.723   1.366
 4411SOL     OW13975   3.044   3.202   0.122
 4411SOL    HW113976   2.951   3.182   0.116
 4411SOL    HW213977   3.064   3.195   0.215
 4412SOL     OW13978   2.493   2.710   1.423
 4412SOL    HW113979   2.551   2.785   1.410
 4412SOL    HW213980   2.551   2.639   1.448
 4413SOL     OW13981   3.346   3.638   0.978
 4413SOL    HW113982   3.370   3.697   0.906
 4413SOL    HW213983   3.428   3.619   1.022
 4414SOL     OW13984   3.333   3.063   1.632
 4414SOL    HW113985   3.321   3.076   1.726
 4414SOL    HW213986   3.426   3.077   1.618
 4415SOL     OW13987   2.242   3.601   1.564
 4415SOL    HW113988   2.157   3.642   1.550
 4415SOL    HW213989   2.222   3.518   1.606
 4416SOL     OW13990   3.532   2.743   1.256
 4416SOL    HW113991   3.525   2.658   1.213
 4416SOL    HW213992   3.523   2.806   1.184
 4417SOL     OW13993   3.077   2.178   0.461
 4417SOL    HW113994   3.142   2.109   0.450
 4417SOL    HW213995   3.107   2.228   0.537
 4418SOL     OW13996   2.530   2.640   0.616
 4418SOL    HW113997   2.549   2.734   0.621
 4418SOL    HW213998   2.435   2.636   0.601
 4419SOL     OW13999   3.625   2.223   1.650
 4419SOL    HW114000   3.608   2.238   1.557
 4419SOL    HW214001   3.553   2.166   1.679
 4420SOL     OW14002   3.607   2.796   1.512
 4420SOL    HW114003   3.605   2.890   1.525
 4420SOL    HW214004   3.592   2.783   1.419
 4421SOL     OW14005   2.764   3.218   0.066
 4421SOL    HW114006   2.695   3.218   0.132
 4421SOL    HW214007   2.752   3.301   0.019
 4422SOL     OW14008   2.522   3.654   0.946
 4422SOL    HW114009   2.502   3.744   0.922
 4422SOL    HW214010   2.617   3.648   0.938
 4423SOL     OW14011   2.730   2.831   0.856
 4423SOL    HW114012   2.774   2.754   0.892
 4423SOL    HW214013   2.697   2.878   0.933
 4424SOL     OW14014   2.945   2.854   0.084
 4424SOL    HW114015   2.920   2.888  11.098
 4424SOL    HW214016   3.019   2.797   0.066
 4425SOL     OW14017   3.717   3.418   0.845
 4425SOL    HW114018   3.640   3.406   0.789
 4425SOL    HW214019   3.709   3.349   0.911
 4426SOL     OW14020   2.087   3.165   1.856
 4426SOL    HW114021   2.017   3.107   1.826
 4426SOL    HW214022   2.068   3.179   1.949
 4427SOL     OW14023   1.945   3.097   0.666
 4427SOL    HW114024   1.949   3.046   0.747
 4427SOL    HW214025   2.014   3.060   0.611
 4428SOL     OW14026   2.542   3.265   1.627
 4428SOL    HW114027   2.461   3.222   1.657
 4428SOL    HW214028   2.538   3.353   1.664
 4429SOL     OW14029   3.675   2.046   1.238
 4429SOL    HW114030   3.684   1.952   1.252
 4429SOL    HW214031   3.684   2.057   1.144
 4430SOL     OW14032   3.562   3.352   1.098
 4430SOL    HW114033   3.481   3.328   1.052
 4430SOL    HW214034   3.574   3.282   1.162
 4431SOL     OW14035   2.688   3.440   0.678
 4431SOL    HW114036   2.676   3.490   0.598
 4431SOL    HW214037   2.612   3.383   0.682
 4432SOL     OW14038   3.295   2.086   1.118
 4432SOL    HW114039   3.320   2.006   1.164
 4432SOL    HW214040   3.243   2.136   1.182
 4433SOL     OW14041   2.872   1.881   1.143
 4433SOL    HW114042   2.816   1.813   1.104
 4433SOL    HW214043   2.959   1.842   1.145
 4434SOL     OW14044   2.630   3.192   0.315
 4434SOL    HW114045   2.601   3.102   0.327
 4434SOL    HW214046   2.715   3.196   0.360
 4435SOL     OW14047   2.482   3.419   1.285
 4435SOL    HW114048   2.485   3.500   1.335
 4435SOL    HW214049   2.569   3.411   1.247
 4436SOL     OW14050   3.213   1.916   0.164
 4436SOL    HW114051   3.234   1.865   0.086
 4436SOL    HW214052   3.126   1.885   0.190
 4437SOL     OW14053   3.159   2.323   0.682
 4437SOL    HW114054   3.105   2.402   0.689
 4437SOL    HW214055   3.155   2.283   0.768
 4438SOL     OW14056   3.449   2.065   0.877
 4438SOL    HW114057   3.387   2.084   0.948
 4438SOL    HW214058   3.448   2.143   0.822
 4439SOL     OW14059   1.903   2.933   0.301
 4439SOL    HW114060   1.999   2.929   0.298
 4439SOL    HW214061   1.877   2.845   0.327
 4440SOL     OW14062   2.746   3.515   0.347
 4440SOL    HW114063   2.675   3.495   0.287
 4440SOL    HW214064   2.715   3.590   0.399
 4441SOL     OW14065   2.072   2.521   1.982
 4441SOL    HW114066   1.983   2.493   2.007
 4441SOL    HW214067   2.104   2.450   1.926
 4442SOL     OW14068   2.428   3.148   3.036
 4442SOL    HW114069   2.340   3.153   2.998
 4442SOL    HW214070   2.444   3.236   3.071
 4443SOL     OW14071   3.422   3.374   2.569
 4443SOL    HW114072   3.379   3.354   2.652
 4443SOL    HW214073   3.351   3.378   2.505
 4444SOL     OW14074   2.992   2.561   2.563
 4444SOL    HW114075   3.042   2.641   2.549
 4444SOL    HW214076   2.949   2.574   2.648
 4445SOL     OW14077   3.629   2.468   2.091
 4445SOL    HW114078   3.608   2.460   1.998
 4445SOL    HW214079   3.593   2.389   2.131
 4446SOL     OW14080   2.616   3.004   2.901
 4446SOL    HW114081   2.548   3.040   2.958
 4446SOL    HW214082   2.653   3.080   2.857
 4447SOL     OW14083   2.734   2.641   3.685
 4447SOL    HW114084   2.716   2.713   3.745
 4447SOL    HW214085   2.755   2.684   3.602
 4448SOL     OW14086   2.559   2.892   2.508
 4448SOL    HW114087   2.620   2.872   2.578
 4448SOL    HW214088   2.486   2.936   2.551
 4449SOL     OW14089   2.572   3.014   3.671
 4449SOL    HW114090   2.620   3.092   3.698
 4449SOL    HW214091   2.489   3.047   3.638
 4450SOL     OW14092   2.193   3.287   2.930
 4450SOL    HW114093   2.120   3.251   2.880
 4450SOL    HW214094   2.243   3.338   2.866
 4451SOL     OW14095   3.323   3.361   3.215
 4451SOL    HW114096   3.372   3.442   3.225
 4451SOL    HW214097   3.262   3.361   3.290
 4452SOL     OW14098   3.474   2.310   2.602
 4452SOL    HW114099   3.399   2.334   2.548
 4452SOL    HW214100   3.491   2.388   2.655
 4453SOL     OW14101   2.082   3.575   2.335
 4453SOL    HW114102   2.103   3.652   2.388
 4453SOL    HW214103   2.154   3.569   2.272
 4454SOL     OW14104   2.998   3.203   3.554
 4454SOL    HW114105   3.038   3.199   3.641
 4454SOL    HW214106   2.946   3.123   3.548
 4455SOL     OW14107   2.092   3.302   2.397
 4455SOL    HW114108   2.076   3.397   2.400
 4455SOL    HW214109   2.031   3.265   2.460
 4456SOL     OW14110   2.118   2.956   2.751
 4456SOL    HW114111   2.114   2.869   2.791
 4456SOL    HW214112   2.059   3.009   2.805
 4457SOL     OW14113   2.475   3.653   3.292
 4457SOL    HW114114   2.392   3.635   3.338
 4457SOL    HW214115   2.497   3.742   3.317
 4458SOL     OW14116   2.443   2.854   1.988
 4458SOL    HW114117   2.490   2.903   1.920
 4458SOL    HW214118   2.481   2.884   2.070
 4459SOL     OW14119   3.458   1.985   3.330
 4459SOL    HW114120   3.463   2.066   3.279
 4459SOL    HW214121   3.444   2.014   3.420
 4460SOL     OW14122   1.974   2.513   2.422
 4460SOL    HW114123   1.931   2.432   2.452
 4460SOL    HW214124   1.974   2.570   2.499
 4461SOL     OW14125   3.704   3.622   2.197
 4461SOL    HW114126   3.767   3.593   2.263
 4461SOL    HW214127   3.728   3.712   2.178
 4462SOL     OW14128   1.894   3.457   1.986
 4462SOL    HW114129   1.875   3.365   2.006
 4462SOL    HW214130   1.870   3.505   2.065
 4463SOL     OW14131   3.551   2.781   2.503
 4463SOL    HW114132   3.635   2.740   2.483
 4463SOL    HW214133   3.530   2.831   2.424
 4464SOL     OW14134   3.508   2.969   2.291
 4464SOL    HW114135   3.593   2.975   2.249
 4464SOL    HW214136   3.512   3.030   2.365
 4465SOL     OW14137   1.979   2.598   3.446
 4465SOL    HW114138   2.068   2.622   3.471
 4465SOL    HW214139   1.928   2.678   3.459
 4466SOL     OW14140   2.475   3.247   2.598
 4466SOL    HW114141   2.429   3.164   2.607
 4466SOL    HW214142   2.459   3.274   2.507
 4467SOL     OW14143   3.151   3.100   3.286
 4467SOL    HW114144   3.183   3.033   3.226
 4467SOL    HW214145   3.208   3.094   3.362
 4468SOL     OW14146   2.674   1.862   2.369
 4468SOL    HW114147   2.715   1.946   2.349
 4468SOL    HW214148   2.580   1.882   2.376
 4469SOL     OW14149   2.038   2.839   3.130
 4469SOL    HW114150   2.125   2.804   3.110
 4469SOL    HW214151   1.977   2.778   3.088
 4470SOL     OW14152   3.394   2.855   2.060
 4470SOL    HW114153   3.324   2.798   2.091
 4470SOL    HW214154   3.434   2.889   2.140
 4471SOL     OW14155   3.047   3.668   3.484
 4471SOL    HW114156   3.059   3.726   3.409
 4471SOL    HW214157   3.064   3.580   3.448
 4472SOL     OW14158   3.328   3.282   2.814
 4472SOL    HW114159   3.260   3.297   2.879
 4472SOL    HW214160   3.316   3.191   2.787
 4473SOL     OW14161   3.521   3.600   2.440
 4473SOL    HW114162   3.501   3.571   2.351
 4473SOL    HW214163   3.496   3.526   2.496
 4474SOL     OW14164   2.528   2.635   2.145
 4474SOL    HW114165   2.521   2.690   2.067
 4474SOL    HW214166   2.446   2.650   2.192
 4475SOL     OW14167   3.141   2.213   2.794
 4475SOL    HW114168   3.052   2.179   2.803
 4475SOL    HW214169   3.192   2.161   2.856
 4476SOL     OW14170   3.443   3.532   2.171
 4476SOL    HW114171   3.533   3.564   2.165
 4476SOL    HW214172   3.417   3.515   2.081
 4477SOL     OW14173   3.256   2.336   3.539
 4477SOL    HW114174   3.258   2.380   3.624
 4477SOL    HW214175   3.316   2.262   3.549
 4478SOL     OW14176   2.818   2.747   3.439
 4478SOL    HW114177   2.872   2.676   3.403
 4478SOL    HW214178   2.775   2.786   3.363
 4479SOL     OW14179   2.859   2.273   3.097
 4479SOL    HW114180   2.774   2.294   3.136
 4479SOL    HW214181   2.836   2.228   3.015
 4480SOL     OW14182   2.920   2.565   2.289
 4480SOL    HW114183   2.935   2.559   2.383
 4480SOL    HW214184   2.839   2.517   2.274
 4481SOL     OW14185   1.953   2.685   2.634
 4481SOL    HW114186   2.033   2.682   2.686
 4481SOL    HW214187   1.904   2.759   2.669
 4482SOL     OW14188   1.989   3.708   3.439
 4482SOL    HW114189   1.989   3.687   3.533
 4482SOL    HW214190   1.897   3.702   3.413
 4483SOL     OW14191   2.754   2.211   2.057
 4483SOL    HW114192   2.796   2.270   1.994
 4483SOL    HW214193   2.762   2.125   2.017
 4484SOL     OW14194   3.572   2.438   3.690
 4484SOL    HW114195   3.534   2.511   3.643
 4484SOL    HW214196   3.598   2.376   3.621
 4485SOL     OW14197   3.238   3.004   2.404
 4485SOL    HW114198   3.317   2.991   2.351
 4485SOL    HW214199   3.186   3.066   2.353
 4486SOL     OW14200   2.868   3.307   2.334
 4486SOL    HW114201   2.830   3.380   2.286
 4486SOL    HW214202   2.852   3.328   2.426
 4487SOL     OW14203   2.216   3.670   2.723
 4487SOL    HW114204   2.260   3.585   2.731
 4487SOL    HW214205   2.285   3.734   2.741
 4488SOL     OW14206   3.660   2.922   2.730
 4488SOL    HW114207   3.605   2.903   2.654
 4488SOL    HW214208   3.598   2.926   2.803
 4489SOL     OW14209   3.090   3.401   3.375
 4489SOL    HW114210   3.076   3.328   3.436
 4489SOL    HW214211   3.027   3.386   3.304
 4490SOL     OW14212   2.189   2.807   2.114
 4490SOL    HW114213   2.267   2.830   2.064
 4490SOL    HW214214   2.151   2.732   2.068
 4491SOL     OW14215   3.340   2.603   2.589
 4491SOL    HW114216   3.330   2.560   2.674
 4491SOL    HW214217   3.417   2.659   2.599
 4492SOL     OW14218   2.328   3.126   3.599
 4492SOL    HW114219   2.300   3.131   3.507
 4492SOL    HW214220   2.246   3.124   3.649
 4493SOL     OW14221   2.983   3.640   2.093
 4493SOL    HW114222   2.911   3.597   2.139
 4493SOL    HW214223   3.006   3.579   2.023
 4494SOL     OW14224   3.491   3.242   1.949
 4494SOL    HW114225   3.450   3.327   1.934
 4494SOL    HW214226   3.422   3.178   1.931
 4495SOL     OW14227   2.328   3.599   2.183
 4495SOL    HW114228   2.370   3.657   2.247
 4495SOL    HW214229   2.401   3.570   2.127
 4496SOL     OW14230   3.263   1.970   2.294
 4496SOL    HW114231   3.253   1.945   2.202
 4496SOL    HW214232   3.358   1.976   2.306
 4497SOL     OW14233   2.117   3.654   3.094
 4497SOL    HW114234   2.169   3.588   3.141
 4497SOL    HW214235   2.107   3.618   3.006
 4498SOL     OW14236   2.800   3.560   2.762
 4498SOL    HW114237   2.878   3.509   2.782
 4498SOL    HW214238   2.756   3.511   2.692
 4499SOL     OW14239   3.397   2.087   3.587
 4499SOL    HW114240   3.406   2.108   3.680
 4499SOL    HW214241   3.329   2.020   3.585
 4500SOL     OW14242   2.507   1.987   1.966
 4500SOL    HW114243   2.568   1.917   1.989
 4500SOL    HW214244   2.453   1.950   1.897
 4501SOL     OW14245   2.628   2.122   3.606
 4501SOL    HW114246   2.704   2.067   3.627
 4501SOL    HW214247   2.585   2.136   3.690
 4502SOL     OW14248   2.738   3.383   3.056
 4502SOL    HW114249   2.723   3.347   2.968
 4502SOL    HW214250   2.808   3.329   3.092
 4503SOL     OW14251   3.197   2.457   3.297
 4503SOL    HW114252   3.230   2.422   3.380
 4503SOL    HW214253   3.241   2.542   3.288
 4504SOL     OW14254   2.677   3.257   2.801
 4504SOL    HW114255   2.761   3.246   2.757
 4504SOL    HW214256   2.612   3.258   2.730
 4505SOL     OW14257   2.789   2.368   2.769
 4505SOL    HW114258   2.774   2.363   2.674
 4505SOL    HW214259   2.824   2.282   2.792
 4506SOL     OW14260   2.406   1.932   2.365
 4506SOL    HW114261   2.348   1.939   2.440
 4506SOL    HW214262   2.397   2.017   2.320
 4507SOL     OW14263   3.290   3.060   1.903
 4507SOL    HW114264   3.321   2.984   1.953
 4507SOL    HW214265   3.205   3.081   1.941
 4508SOL     OW14266   2.800   2.106   2.319
 4508SOL    HW114267   2.774   2.148   2.237
 4508SOL    HW214268   2.895   2.117   2.323
 4509SOL     OW14269   2.931   2.526   3.316
 4509SOL    HW114270   2.894   2.445   3.351
 4509SOL    HW214271   3.025   2.507   3.307
 4510SOL     OW14272   3.086   3.432   2.656
 4510SOL    HW114273   3.102   3.499   2.590
 4510SOL    HW214274   3.154   3.445   2.721
 4511SOL     OW14275   2.329   3.011   2.596
 4511SOL    HW114276   2.260   2.994   2.659
 4511SOL    HW214277   2.290   2.994   2.510
 4512SOL     OW14278   3.131   3.656   2.469
 4512SOL    HW114279   3.177   3.717   2.412
 4512SOL    HW214280   3.066   3.710   2.514
 4513SOL     OW14281   2.886   2.405   1.882
 4513SOL    HW114282   2.838   2.485   1.864
 4513SOL    HW214283   2.949   2.429   1.949
 4514SOL     OW14284   1.952   2.419   3.244
 4514SOL    HW114285   2.034   2.378   3.272
 4514SOL    HW214286   1.934   2.486   3.310
 4515SOL     OW14287   2.755   2.315   2.499
 4515SOL    HW114288   2.719   2.375   2.434
 4515SOL    HW214289   2.772   2.234   2.451
 4516SOL     OW14290   2.874   1.915   2.615
 4516SOL    HW114291   2.819   1.904   2.537
 4516SOL    HW214292   2.854   1.839   2.670
 4517SOL     OW14293   3.298   3.025   2.719
 4517SOL    HW114294   3.230   2.958   2.718
 4517SOL    HW214295   3.322   3.036   2.627
 4518SOL     OW14296   3.329   2.467   2.840
 4518SOL    HW114297   3.279   2.385   2.843
 4518SOL    HW214298   3.389   2.461   2.914
 4519SOL     OW14299   3.708   2.679   2.244
 4519SOL    HW114300   3.764   2.627   2.303
 4519SOL    HW214301   3.680   2.616   2.178
 4520SOL     OW14302   2.353   3.279   2.020
 4520SOL    HW114303   2.278   3.250   2.072
 4520SOL    HW214304   2.336   3.244   1.933
 4521SOL     OW14305   3.532   3.126   2.508
 4521SOL    HW114306   3.626   3.130   2.522
 4521SOL    HW214307   3.501   3.215   2.529
 4522SOL     OW14308   3.256   2.434   1.933
 4522SOL    HW114309   3.195   2.414   2.005
 4522SOL    HW214310   3.340   2.401   1.965
 4523SOL     OW14311   3.615   3.101   3.436
 4523SOL    HW114312   3.702   3.061   3.433
 4523SOL    HW214313   3.630   3.190   3.465
 4524SOL     OW14314   2.921   3.216   3.196
 4524SOL    HW114315   2.846   3.185   3.247
 4524SOL    HW214316   2.997   3.174   3.237
 4525SOL     OW14317   3.469   3.487   3.515
 4525SOL    HW114318   3.464   3.521   3.426
 4525SOL    HW214319   3.552   3.440   3.518
 4526SOL     OW14320   2.991   3.066   2.968
 4526SOL    HW114321   2.931   3.103   3.033
 4526SOL    HW214322   2.957   3.097   2.884
 4527SOL     OW14323   3.490   2.960   2.940
 4527SOL    HW114324   3.486   3.022   3.013
 4527SOL    HW214325   3.411   2.977   2.889
 4528SOL     OW14326   2.792   1.953   3.259
 4528SOL    HW114327   2.812   1.937   3.167
 4528SOL    HW214328   2.871   1.994   3.294
 4529SOL     OW14329   2.846   2.975   3.583
 4529SOL    HW114330   2.754   2.991   3.604
 4529SOL    HW214331   2.844   2.897   3.527
 4530SOL     OW14332   2.569   2.927   2.230
 4530SOL    HW114333   2.560   2.919   2.325
 4530SOL    HW214334   2.645   2.873   2.207
 4531SOL     OW14335   2.272   2.703   3.115
 4531SOL    HW114336   2.345   2.716   3.175
 4531SOL    HW214337   2.225   2.627   3.151
 4532SOL     OW14338   3.130   2.242   3.138
 4532SOL    HW114339   3.160   2.320   3.184
 4532SOL    HW214340   3.040   2.262   3.113
 4533SOL     OW14341   1.931   3.435   3.214
 4533SOL    HW114342   1.901   3.508   3.161
 4533SOL    HW214343   2.027   3.440   3.209
 4534SOL     OW14344   2.214   2.968   2.350
 4534SOL    HW114345   2.218   3.046   2.296
 4534SOL    HW214346   2.209   2.896   2.287
 4535SOL     OW14347   3.110   3.210   2.251
 4535SOL    HW114348   3.166   3.282   2.282
 4535SOL    HW214349   3.023   3.231   2.285
 4536SOL     OW14350   3.142   3.319   3.009
 4536SOL    HW114351   3.197   3.321   3.087
 4536SOL    HW214352   3.087   3.242   3.020
 4537SOL     OW14353   3.444   2.485   2.340
 4537SOL    HW114354   3.398   2.539   2.405
 4537SOL    HW214355   3.488   2.549   2.284
 4538SOL     OW14356   2.209   3.389   3.177
 4538SOL    HW114357   2.196   3.346   3.093
 4538SOL    HW214358   2.303   3.401   3.184
 4539SOL     OW14359   2.263   2.629   3.442
 4539SOL    HW114360   2.332   2.681   3.400
 4539SOL    HW214361   2.288   2.538   3.424
 4540SOL     OW14362   3.463   2.640   3.544
 4540SOL    HW114363   3.376   2.681   3.537
 4540SOL    HW214364   3.515   2.683   3.475
 4541SOL     OW14365   2.863   1.981   3.624
 4541SOL    HW114366   2.912   2.054   3.587
 4541SOL    HW214367   2.911   1.903   3.596
 4542SOL     OW14368   2.364   1.897   3.608
 4542SOL    HW114369   2.326   1.845   3.537
 4542SOL    HW214370   2.293   1.955   3.637
 4543SOL     OW14371   2.439   2.745   2.892
 4543SOL    HW114372   2.483   2.829   2.886
 4543SOL    HW214373   2.385   2.751   2.971
 4544SOL     OW14374   3.220   2.720   2.892
 4544SOL    HW114375   3.136   2.711   2.846
 4544SOL    HW214376   3.260   2.634   2.887
 4545SOL     OW14377   3.068   2.391   2.130
 4545SOL    HW114378   3.075   2.312   2.184
 4545SOL    HW214379   3.027   2.456   2.187
 4546SOL     OW14380   1.911   3.173   3.138
 4546SOL    HW114381   1.941   3.119   3.212
 4546SOL    HW214382   1.915   3.263   3.171
 4547SOL     OW14383   2.642   2.542   2.953
 4547SOL    HW114384   2.667   2.480   2.884
 4547SOL    HW214385   2.576   2.598   2.913
 4548SOL     OW14386   3.596   2.822   3.714
 4548SOL    HW114387   3.550   2.761   3.656
 4548SOL    HW214388   3.537   2.834   3.788
 4549SOL     OW14389   3.478   2.236   2.229
 4549SOL    HW114390   3.505   2.172   2.295
 4549SOL    HW214391   3.455   2.314   2.280
 4550SOL     OW14392   2.899   2.622   2.820
 4550SOL    HW114393   2.895   2.645   2.913
 4550SOL    HW214394   2.861   2.534   2.817
 4551SOL     OW14395   2.844   3.428   3.578
 4551SOL    HW114396   2.829   3.473   3.495
 4551SOL    HW214397   2.887   3.346   3.555
 4552SOL     OW14398   3.717   3.369   3.468
 4552SOL    HW114399   3.735   3.395   3.377
 4552SOL    HW214400   3.798   3.388   3.514
 4553SOL     OW14401   2.218   2.781   3.670
 4553SOL    HW114402   2.301   2.796   3.715
 4553SOL    HW214403   2.241   2.725   3.595
 4554SOL     OW14404   3.392   2.135   1.989
 4554SOL    HW114405   3.327   2.070   2.015
 4554SOL    HW214406   3.424   2.171   2.072
 4555SOL     OW14407   3.155   2.688   1.893
 4555SOL    HW114408   3.197   2.603   1.897
 4555SOL    HW214409   3.186   2.727   1.811
 4556SOL     OW14410   2.927   3.198   2.715
 4556SOL    HW114411   2.930   3.125   2.653
 4556SOL    HW214412   2.989   3.262   2.681
 4557SOL     OW14413   2.172   2.683   2.804
 4557SOL    HW114414   2.266   2.702   2.801
 4557SOL    HW214415   2.167   2.597   2.846
 4558SOL     OW14416   2.994   2.246   3.537
 4558SOL    HW114417   2.948   2.295   3.605
 4558SOL    HW214418   3.084   2.280   3.539
 4559SOL     OW14419   3.027   2.067   3.332
 4559SOL    HW114420   3.014   2.130   3.403
 4559SOL    HW214421   3.066   2.118   3.261
 4560SOL     OW14422   1.867   3.183   2.056
 4560SOL    HW114423   1.780   3.198   2.018
 4560SOL    HW214424   1.863   3.094   2.090
 4561SOL     OW14425   1.952   3.649   2.800
 4561SOL    HW114426   1.922   3.569   2.756
 4561SOL    HW214427   2.042   3.661   2.768
 4562SOL     OW14428   2.359   3.436   2.768
 4562SOL    HW114429   2.427   3.498   2.792
 4562SOL    HW214430   2.403   3.372   2.712
 4563SOL     OW14431   2.850   2.667   3.089
 4563SOL    HW114432   2.887   2.621   3.164
 4563SOL    HW214433   2.772   2.616   3.066
 4564SOL     OW14434   1.905   2.422   2.977
 4564SOL    HW114435   1.946   2.343   2.943
 4564SOL    HW214436   1.925   2.422   3.070
 4565SOL     OW14437   3.238   2.801   3.520
 4565SOL    HW114438   3.259   2.895   3.520
 4565SOL    HW214439   3.238   2.777   3.427
 4566SOL     OW14440   2.693   2.430   2.233
 4566SOL    HW114441   2.688   2.360   2.168
 4566SOL    HW214442   2.631   2.496   2.201
 4567SOL     OW14443   3.504   2.463   3.049
 4567SOL    HW114444   3.495   2.403   3.123
 4567SOL    HW214445   3.591   2.444   3.014
 4568SOL     OW14446   2.107   3.413   3.590
 4568SOL    HW114447   2.083   3.478   3.657
 4568SOL    HW214448   2.107   3.330   3.637
 4569SOL     OW14449   2.790   3.541   3.329
 4569SOL    HW114450   2.764   3.507   3.243
 4569SOL    HW214451   2.787   3.636   3.320
 4570SOL     OW14452   2.009   3.005   3.338
 4570SOL    HW114453   2.009   2.950   3.417
 4570SOL    HW214454   2.019   2.943   3.266
 4571SOL     OW14455   3.189   2.909   3.085
 4571SOL    HW114456   3.212   2.846   3.018
 4571SOL    HW214457   3.118   2.961   3.047
 4572SOL     OW14458   3.172   2.719   2.169
 4572SOL    HW114459   3.097   2.688   2.219
 4572SOL    HW214460   3.148   2.705   2.077
 4573SOL     OW14461   3.634   3.607   3.012
 4573SOL    HW114462   3.693   3.633   2.942
 4573SOL    HW214463   3.609   3.517   2.990
 4574SOL     OW14464   3.103   3.595   2.976
 4574SOL    HW114465   3.185   3.615   2.930
 4574SOL    HW214466   3.108   3.501   2.994
 4575SOL     OW14467   1.945   3.129   2.875
 4575SOL    HW114468   1.933   3.141   2.969
 4575SOL    HW214469   1.870   3.075   2.848
 4576SOL     OW14470   2.539   3.527   3.590
 4576SOL    HW114471   2.486   3.607   3.586
 4576SOL    HW214472   2.604   3.539   3.520
 4577SOL     OW14473   3.581   2.007   2.372
 4577SOL    HW114474   3.654   1.993   2.312
 4577SOL    HW214475   3.565   1.922   2.412
 4578SOL     OW14476   3.252   3.430   2.346
 4578SOL    HW114477   3.313   3.462   2.279
 4578SOL    HW214478   3.204   3.507   2.374
 4579SOL     OW14479   1.999   3.658   3.705
 4579SOL    HW114480   1.947   3.593   3.753
 4579SOL    HW214481   2.045   3.707   3.772
 4580SOL     OW14482   3.140   2.787   2.532
 4580SOL    HW114483   3.213   2.726   2.539
 4580SOL    HW214484   3.173   2.860   2.481
 4581SOL     OW14485   2.677   3.135   3.292
 4581SOL    HW114486   2.650   3.174   3.375
 4581SOL    HW214487   2.608   3.158   3.231
 4582SOL     OW14488   2.534   3.481   2.018
 4582SOL    HW114489   2.544   3.493   1.923
 4582SOL    HW214490   2.479   3.403   2.026
 4583SOL     OW14491   3.490   3.588   3.253
 4583SOL    HW114492   3.539   3.596   3.172
 4583SOL    HW214493   3.476   3.679   3.281
 4584SOL     OW14494   3.702   2.035   2.830
 4584SOL    HW114495   3.732   1.948   2.802
 4584SOL    HW214496   3.616   2.045   2.789
 4585SOL     OW14497   3.069   3.468   1.894
 4585SOL    HW114498   3.059   3.377   1.920
 4585SOL    HW214499   3.004   3.480   1.824
 4586SOL     OW14500   2.686   2.869   3.234
 4586SOL    HW114501   2.734   2.860   3.152
 4586SOL    HW214502   2.688   2.962   3.253
 4587SOL     OW14503   2.786   2.784   2.156
 4587SOL    HW114504   2.846   2.810   2.086
 4587SOL    HW214505   2.828   2.710   2.198
 4588SOL     OW14506   3.354   3.487   1.904
 4588SOL    HW114507   3.260   3.481   1.891
 4588SOL    HW214508   3.391   3.493   1.816
 4589SOL     OW14509   2.233   3.163   3.352
 4589SOL    HW114510   2.218   3.241   3.299
 4589SOL    HW214511   2.154   3.110   3.339
 4590SOL     OW14512   3.473   3.145   3.143
 4590SOL    HW114513   3.532   3.134   3.217
 4590SOL    HW214514   3.413   3.214   3.170
 4591SOL     OW14515   2.914   2.969   2.569
 4591SOL    HW114516   2.843   2.917   2.608
 4591SOL    HW214517   2.976   2.903   2.536
 4592SOL     OW14518   2.882   2.101   2.828
 4592SOL    HW114519   2.878   2.054   2.745
 4592SOL    HW214520   2.879   2.033   2.895
 4593SOL     OW14521   2.464   3.350   2.344
 4593SOL    HW114522   2.508   3.300   2.274
 4593SOL    HW214523   2.396   3.399   2.298
 4594SOL     OW14524   3.583   2.255   3.242
 4594SOL    HW114525   3.655   2.317   3.241
 4594SOL    HW214526   3.613   2.183   3.186
 4595SOL     OW14527   2.121   3.206   2.151
 4595SOL    HW114528   2.028   3.205   2.127
 4595SOL    HW214529   2.123   3.244   2.239
 4596SOL     OW14530   1.974   2.882   3.582
 4596SOL    HW114531   1.897   2.859   3.634
 4596SOL    HW214532   2.048   2.845   3.631
 4597SOL     OW14533   2.552   2.037   3.357
 4597SOL    HW114534   2.639   2.014   3.325
 4597SOL    HW214535   2.568   2.069   3.446
 4598SOL     OW14536   3.293   2.721   3.262
 4598SOL    HW114537   3.244   2.782   3.206
 4598SOL    HW214538   3.382   2.723   3.228
 4599SOL     OW14539   1.867   1.997   2.190
 4599SOL    HW114540   1.840   2.079   2.147
 4599SOL    HW214541   1.957   2.013   2.219
 4600SOL     OW14542   3.041   3.202   1.979
 4600SOL    HW114543   2.951   3.171   1.982
 4600SOL    HW214544   3.070   3.202   2.070
 4601SOL     OW14545   2.480   2.702   3.290
 4601SOL    HW114546   2.540   2.775   3.274
 4601SOL    HW214547   2.538   2.627   3.307
 4602SOL     OW14548   3.346   3.638   2.840
 4602SOL    HW114549   3.370   3.698   2.769
 4602SOL    HW214550   3.428   3.620   2.885
 4603SOL     OW14551   3.333   3.063   3.494
 4603SOL    HW114552   3.321   3.076   3.588
 4603SOL    HW214553   3.426   3.077   3.480
 4604SOL     OW14554   2.242   3.601   3.426
 4604SOL    HW114555   2.157   3.642   3.412
 4604SOL    HW214556   2.222   3.518   3.469
 4605SOL     OW14557   3.532   2.743   3.117
 4605SOL    HW114558   3.526   2.658   3.075
 4605SOL    HW214559   3.523   2.807   3.046
 4606SOL     OW14560   3.078   2.180   2.320
 4606SOL    HW114561   3.142   2.110   2.311
 4606SOL    HW214562   3.107   2.230   2.397
 4607SOL     OW14563   2.477   2.639   2.546
 4607SOL    HW114564   2.514   2.724   2.520
 4607SOL    HW214565   2.389   2.639   2.508
 4608SOL     OW14566   3.625   2.223   3.512
 4608SOL    HW114567   3.607   2.238   3.419
 4608SOL    HW214568   3.553   2.166   3.541
 4609SOL     OW14569   3.606   2.796   3.374
 4609SOL    HW114570   3.605   2.891   3.387
 4609SOL    HW214571   3.592   2.784   3.281
 4610SOL     OW14572   2.723   3.230   1.894
 4610SOL    HW114573   2.686   3.257   1.979
 4610SOL    HW214574   2.743   3.312   1.849
 4611SOL     OW14575   2.522   3.654   2.807
 4611SOL    HW114576   2.502   3.744   2.784
 4611SOL    HW214577   2.617   3.648   2.800
 4612SOL     OW14578   2.729   2.829   2.718
 4612SOL    HW114579   2.777   2.756   2.755
 4612SOL    HW214580   2.696   2.878   2.793
 4613SOL     OW14581   2.943   2.850   1.948
 4613SOL    HW114582   2.922   2.901   1.870
 4613SOL    HW214583   3.018   2.797   1.923
 4614SOL     OW14584   3.717   3.417   2.707
 4614SOL    HW114585   3.639   3.405   2.652
 4614SOL    HW214586   3.710   3.349   2.774
 4615SOL     OW14587   2.087   3.165   3.718
 4615SOL    HW114588   2.020   3.104   3.689
 4615SOL    HW214589   2.069   3.178   3.811
 4616SOL     OW14590   1.945   3.096   2.527
 4616SOL    HW114591   1.948   3.048   2.610
 4616SOL    HW214592   2.014   3.057   2.473
 4617SOL     OW14593   2.542   3.265   3.488
 4617SOL    HW114594   2.463   3.221   3.519
 4617SOL    HW214595   2.538   3.352   3.526
 4618SOL     OW14596   3.675   2.047   3.100
 4618SOL    HW114597   3.684   1.953   3.115
 4618SOL    HW214598   3.685   2.057   3.006
 4619SOL     OW14599   3.562   3.352   2.960
 4619SOL    HW114600   3.481   3.328   2.914
 4619SOL    HW214601   3.575   3.282   3.024
 4620SOL     OW14602   2.689   3.440   2.540
 4620SOL    HW114603   2.678   3.491   2.460
 4620SOL    HW214604   2.612   3.383   2.543
 4621SOL     OW14605   3.294   2.087   2.980
 4621SOL    HW114606   3.319   2.007   3.026
 4621SOL    HW214607   3.243   2.136   3.044
 4622SOL     OW14608   2.873   1.881   3.003
 4622SOL    HW114609   2.818   1.811   2.968
 4622SOL    HW214610   2.961   1.844   3.006
 4623SOL     OW14611   2.635   3.196   2.175
 4623SOL    HW114612   2.603   3.105   2.181
 4623SOL    HW214613   2.717   3.196   2.225
 4624SOL     OW14614   2.482   3.419   3.147
 4624SOL    HW114615   2.484   3.500   3.197
 4624SOL    HW214616   2.569   3.411   3.109
 4625SOL     OW14617   3.214   1.915   2.027
 4625SOL    HW114618   3.242   1.852   1.960
 4625SOL    HW214619   3.127   1.886   2.053
 4626SOL     OW14620   3.159   2.322   2.543
 4626SOL    HW114621   3.105   2.402   2.550
 4626SOL    HW214622   3.155   2.283   2.630
 4627SOL     OW14623   3.449   2.065   2.739
 4627SOL    HW114624   3.387   2.084   2.810
 4627SOL    HW214625   3.448   2.143   2.684
 4628SOL     OW14626   1.904   2.933   2.169
 4628SOL    HW114627   1.998   2.925   2.153
 4628SOL    HW214628   1.876   2.844   2.190
 4629SOL     OW14629   2.745   3.514   2.205
 4629SOL    HW114630   2.673   3.497   2.145
 4629SOL    HW214631   2.716   3.590   2.256
 4630SOL     OW14632   2.056   2.529   3.842
 4630SOL    HW114633   1.975   2.500   3.884
 4630SOL    HW214634   2.057   2.483   3.758
 4631SOL     OW14635   1.841   2.264   4.359
 4631SOL    HW114636   1.757   2.282   4.400
 4631SOL    HW214637   1.837   2.171   4.337
 4632SOL     OW14638   2.424   3.178   4.855
 4632SOL    HW114639   2.336   3.196   4.823
 4632SOL    HW214640   2.449   3.258   4.902
 4633SOL     OW14641   3.422   3.374   4.430
 4633SOL    HW114642   3.379   3.354   4.514
 4633SOL    HW214643   3.350   3.378   4.367
 4634SOL     OW14644   2.997   2.557   4.439
 4634SOL    HW114645   3.042   2.640   4.425
 4634SOL    HW214646   2.935   2.575   4.510
 4635SOL     OW14647   3.627   2.467   3.954
 4635SOL    HW114648   3.607   2.460   3.861
 4635SOL    HW214649   3.593   2.387   3.992
 4636SOL     OW14650   2.646   3.019   4.700
 4636SOL    HW114651   2.562   3.014   4.745
 4636SOL    HW214652   2.664   3.113   4.692
 4637SOL     OW14653   2.708   2.670   5.548
 4637SOL    HW114654   2.757   2.722   5.612
 4637SOL    HW214655   2.708   2.723   5.469
 4638SOL     OW14656   2.568   2.920   4.383
 4638SOL    HW114657   2.604   2.890   4.467
 4638SOL    HW214658   2.484   2.959   4.405
 4639SOL     OW14659   2.583   3.012   5.527
 4639SOL    HW114660   2.623   3.095   5.556
 4639SOL    HW214661   2.493   3.036   5.506
 4640SOL     OW14662   2.184   3.291   4.785
 4640SOL    HW114663   2.110   3.253   4.739
 4640SOL    HW214664   2.230   3.342   4.719
 4641SOL     OW14665   3.323   3.361   5.078
 4641SOL    HW114666   3.372   3.442   5.088
 4641SOL    HW214667   3.262   3.360   5.152
 4642SOL     OW14668   3.473   2.311   4.466
 4642SOL    HW114669   3.406   2.340   4.404
 4642SOL    HW214670   3.495   2.389   4.516
 4643SOL     OW14671   2.081   3.576   4.197
 4643SOL    HW114672   2.103   3.653   4.250
 4643SOL    HW214673   2.153   3.569   4.134
 4644SOL     OW14674   2.996   3.201   5.417
 4644SOL    HW114675   3.036   3.195   5.504
 4644SOL    HW214676   2.946   3.120   5.409
 4645SOL     OW14677   2.095   3.303   4.259
 4645SOL    HW114678   2.075   3.397   4.263
 4645SOL    HW214679   2.033   3.263   4.320
 4646SOL     OW14680   2.474   3.653   5.154
 4646SOL    HW114681   2.392   3.635   5.200
 4646SOL    HW214682   2.497   3.742   5.179
 4647SOL     OW14683   2.448   2.844   3.853
 4647SOL    HW114684   2.493   2.895   3.785
 4647SOL    HW214685   2.485   2.875   3.935
 4648SOL     OW14686   3.458   1.987   5.192
 4648SOL    HW114687   3.464   2.068   5.141
 4648SOL    HW214688   3.443   2.015   5.282
 4649SOL     OW14689   1.984   2.494   4.273
 4649SOL    HW114690   1.940   2.414   4.299
 4649SOL    HW214691   1.971   2.554   4.347
 4650SOL     OW14692   3.704   3.622   4.059
 4650SOL    HW114693   3.766   3.593   4.126
 4650SOL    HW214694   3.728   3.712   4.040
 4651SOL     OW14695   1.893   3.457   3.848
 4651SOL    HW114696   1.876   3.365   3.868
 4651SOL    HW214697   1.869   3.504   3.928
 4652SOL     OW14698   3.550   2.779   4.364
 4652SOL    HW114699   3.635   2.739   4.346
 4652SOL    HW214700   3.530   2.830   4.285
 4653SOL     OW14701   3.508   2.969   4.153
 4653SOL    HW114702   3.593   2.975   4.111
 4653SOL    HW214703   3.512   3.030   4.227
 4654SOL     OW14704   1.996   2.567   5.344
 4654SOL    HW114705   2.062   2.592   5.409
 4654SOL    HW214706   1.943   2.646   5.332
 4655SOL     OW14707   2.476   3.250   4.460
 4655SOL    HW114708   2.429   3.167   4.471
 4655SOL    HW214709   2.460   3.275   4.369
 4656SOL     OW14710   3.153   3.097   5.151
 4656SOL    HW114711   3.185   3.031   5.090
 4656SOL    HW214712   3.212   3.090   5.226
 4657SOL     OW14713   2.668   1.864   4.223
 4657SOL    HW114714   2.711   1.948   4.211
 4657SOL    HW214715   2.576   1.885   4.237
 4658SOL     OW14716   3.393   2.855   3.922
 4658SOL    HW114717   3.323   2.798   3.953
 4658SOL    HW214718   3.434   2.889   4.002
 4659SOL     OW14719   3.048   3.667   5.346
 4659SOL    HW114720   3.058   3.726   5.271
 4659SOL    HW214721   3.063   3.580   5.310
 4660SOL     OW14722   3.330   3.281   4.675
 4660SOL    HW114723   3.262   3.296   4.741
 4660SOL    HW214724   3.318   3.190   4.648
 4661SOL     OW14725   3.522   3.599   4.302
 4661SOL    HW114726   3.500   3.570   4.213
 4661SOL    HW214727   3.496   3.526   4.358
 4662SOL     OW14728   2.491   2.626   4.034
 4662SOL    HW114729   2.486   2.682   3.957
 4662SOL    HW214730   2.403   2.630   4.073
 4663SOL     OW14731   3.443   3.532   4.033
 4663SOL    HW114732   3.533   3.564   4.026
 4663SOL    HW214733   3.417   3.515   3.943
 4664SOL     OW14734   3.262   2.340   5.395
 4664SOL    HW114735   3.245   2.377   5.482
 4664SOL    HW214736   3.312   2.260   5.411
 4665SOL     OW14737   2.937   2.573   4.158
 4665SOL    HW114738   2.947   2.559   4.253
 4665SOL    HW214739   2.856   2.527   4.136
 4666SOL     OW14740   1.965   2.693   4.454
 4666SOL    HW114741   2.043   2.688   4.509
 4666SOL    HW214742   1.911   2.761   4.495
 4667SOL     OW14743   1.990   3.710   5.302
 4667SOL    HW114744   1.989   3.689   5.395
 4667SOL    HW214745   1.899   3.701   5.275
 4668SOL     OW14746   2.756   2.214   3.922
 4668SOL    HW114747   2.796   2.271   3.856
 4668SOL    HW214748   2.761   2.126   3.884
 4669SOL     OW14749   3.568   2.437   5.552
 4669SOL    HW114750   3.532   2.512   5.505
 4669SOL    HW214751   3.594   2.375   5.484
 4670SOL     OW14752   3.237   3.003   4.266
 4670SOL    HW114753   3.317   2.990   4.213
 4670SOL    HW214754   3.185   3.066   4.215
 4671SOL     OW14755   2.440   2.030   4.562
 4671SOL    HW114756   2.438   2.016   4.657
 4671SOL    HW214757   2.453   2.125   4.552
 4672SOL     OW14758   2.868   3.306   4.197
 4672SOL    HW114759   2.830   3.379   4.147
 4672SOL    HW214760   2.852   3.328   4.288
 4673SOL     OW14761   2.217   3.670   4.585
 4673SOL    HW114762   2.260   3.585   4.593
 4673SOL    HW214763   2.285   3.734   4.603
 4674SOL     OW14764   3.660   2.921   4.592
 4674SOL    HW114765   3.604   2.903   4.516
 4674SOL    HW214766   3.599   2.926   4.665
 4675SOL     OW14767   3.090   3.400   5.238
 4675SOL    HW114768   3.075   3.327   5.298
 4675SOL    HW214769   3.029   3.384   5.165
 4676SOL     OW14770   2.177   2.823   3.970
 4676SOL    HW114771   2.259   2.838   3.923
 4676SOL    HW214772   2.144   2.740   3.935
 4677SOL     OW14773   3.340   2.603   4.453
 4677SOL    HW114774   3.332   2.562   4.540
 4677SOL    HW214775   3.416   2.660   4.461
 4678SOL     OW14776   2.325   3.121   5.461
 4678SOL    HW114777   2.288   3.148   5.377
 4678SOL    HW214778   2.250   3.115   5.519
 4679SOL     OW14779   2.983   3.640   3.955
 4679SOL    HW114780   2.911   3.598   4.001
 4679SOL    HW214781   3.006   3.579   3.885
 4680SOL     OW14782   3.491   3.242   3.811
 4680SOL    HW114783   3.450   3.327   3.797
 4680SOL    HW214784   3.422   3.178   3.793
 4681SOL     OW14785   2.328   3.600   4.045
 4681SOL    HW114786   2.370   3.657   4.109
 4681SOL    HW214787   2.400   3.569   3.990
 4682SOL     OW14788   3.263   1.974   4.155
 4682SOL    HW114789   3.252   1.945   4.064
 4682SOL    HW214790   3.358   1.973   4.169
 4683SOL     OW14791   2.118   3.655   4.955
 4683SOL    HW114792   2.172   3.589   4.999
 4683SOL    HW214793   2.107   3.621   4.866
 4684SOL     OW14794   2.800   3.564   4.623
 4684SOL    HW114795   2.874   3.510   4.648
 4684SOL    HW214796   2.755   3.513   4.555
 4685SOL     OW14797   2.233   2.589   4.175
 4685SOL    HW114798   2.266   2.505   4.143
 4685SOL    HW214799   2.144   2.571   4.204
 4686SOL     OW14800   3.398   2.085   5.450
 4686SOL    HW114801   3.405   2.107   5.543
 4686SOL    HW214802   3.330   2.018   5.447
 4687SOL     OW14803   2.489   1.985   3.835
 4687SOL    HW114804   2.562   1.926   3.854
 4687SOL    HW214805   2.454   1.954   3.752
 4688SOL     OW14806   2.647   2.102   5.460
 4688SOL    HW114807   2.708   2.038   5.498
 4688SOL    HW214808   2.609   2.147   5.535
 4689SOL     OW14809   2.739   3.390   4.916
 4689SOL    HW114810   2.722   3.357   4.828
 4689SOL    HW214811   2.805   3.331   4.952
 4690SOL     OW14812   3.240   2.443   5.138
 4690SOL    HW114813   3.239   2.408   5.227
 4690SOL    HW214814   3.250   2.537   5.150
 4691SOL     OW14815   2.680   3.284   4.659
 4691SOL    HW114816   2.763   3.263   4.615
 4691SOL    HW214817   2.615   3.275   4.590
 4692SOL     OW14818   2.399   1.933   4.235
 4692SOL    HW114819   2.375   1.944   4.327
 4692SOL    HW214820   2.377   2.016   4.194
 4693SOL     OW14821   3.290   3.060   3.765
 4693SOL    HW114822   3.321   2.984   3.815
 4693SOL    HW214823   3.204   3.081   3.803
 4694SOL     OW14824   2.189   1.828   3.860
 4694SOL    HW114825   2.227   1.915   3.851
 4694SOL    HW214826   2.240   1.787   3.931
 4695SOL     OW14827   2.795   2.110   4.183
 4695SOL    HW114828   2.776   2.150   4.098
 4695SOL    HW214829   2.890   2.116   4.192
 4696SOL     OW14830   3.088   3.430   4.516
 4696SOL    HW114831   3.103   3.499   4.451
 4696SOL    HW214832   3.154   3.446   4.584
 4697SOL     OW14833   2.327   3.013   4.463
 4697SOL    HW114834   2.276   2.972   4.533
 4697SOL    HW214835   2.277   2.994   4.383
 4698SOL     OW14836   3.132   3.656   4.332
 4698SOL    HW114837   3.177   3.717   4.274
 4698SOL    HW214838   3.066   3.709   4.376
 4699SOL     OW14839   2.887   2.405   3.744
 4699SOL    HW114840   2.837   2.484   3.725
 4699SOL    HW214841   2.949   2.431   3.812
 4700SOL     OW14842   1.975   2.437   5.094
 4700SOL    HW114843   2.070   2.426   5.102
 4700SOL    HW214844   1.949   2.477   5.177
 4701SOL     OW14845   2.404   2.043   4.857
 4701SOL    HW114846   2.443   2.021   4.941
 4701SOL    HW214847   2.324   2.091   4.880
 4702SOL     OW14848   2.751   2.320   4.367
 4702SOL    HW114849   2.712   2.382   4.305
 4702SOL    HW214850   2.760   2.239   4.317
 4703SOL     OW14851   2.901   1.888   4.448
 4703SOL    HW114852   2.821   1.882   4.397
 4703SOL    HW214853   2.879   1.850   4.533
 4704SOL     OW14854   3.299   3.025   4.581
 4704SOL    HW114855   3.230   2.959   4.581
 4704SOL    HW214856   3.322   3.036   4.489
 4705SOL     OW14857   3.330   2.462   4.708
 4705SOL    HW114858   3.296   2.373   4.721
 4705SOL    HW214859   3.395   2.473   4.778
 4706SOL     OW14860   3.709   2.679   4.106
 4706SOL    HW114861   3.764   2.627   4.164
 4706SOL    HW214862   3.679   2.616   4.040
 4707SOL     OW14863   2.353   3.279   3.882
 4707SOL    HW114864   2.278   3.250   3.934
 4707SOL    HW214865   2.336   3.243   3.795
 4708SOL     OW14866   3.532   3.126   4.370
 4708SOL    HW114867   3.626   3.130   4.384
 4708SOL    HW214868   3.501   3.214   4.392
 4709SOL     OW14869   3.256   2.434   3.795
 4709SOL    HW114870   3.194   2.415   3.865
 4709SOL    HW214871   3.340   2.400   3.826
 4710SOL     OW14872   3.615   3.101   5.298
 4710SOL    HW114873   3.701   3.061   5.296
 4710SOL    HW214874   3.630   3.191   5.327
 4711SOL     OW14875   2.937   3.221   5.047
 4711SOL    HW114876   2.858   3.205   5.100
 4711SOL    HW214877   3.007   3.175   5.094
 4712SOL     OW14878   3.469   3.488   5.378
 4712SOL    HW114879   3.464   3.522   5.288
 4712SOL    HW214880   3.552   3.440   5.380
 4713SOL     OW14881   2.985   3.056   4.828
 4713SOL    HW114882   2.936   3.102   4.896
 4713SOL    HW214883   2.952   3.091   4.745
 4714SOL     OW14884   3.491   2.961   4.802
 4714SOL    HW114885   3.486   3.022   4.875
 4714SOL    HW214886   3.411   2.978   4.751
 4715SOL     OW14887   2.841   2.960   5.432
 4715SOL    HW114888   2.752   2.982   5.458
 4715SOL    HW214889   2.832   2.922   5.345
 4716SOL     OW14890   2.571   2.928   4.092
 4716SOL    HW114891   2.565   2.924   4.188
 4716SOL    HW214892   2.644   2.871   4.071
 4717SOL     OW14893   1.930   3.457   5.081
 4717SOL    HW114894   1.899   3.526   5.021
 4717SOL    HW214895   2.025   3.461   5.074
 4718SOL     OW14896   2.209   2.965   4.219
 4718SOL    HW114897   2.215   3.039   4.160
 4718SOL    HW214898   2.205   2.888   4.162
 4719SOL     OW14899   3.110   3.210   4.113
 4719SOL    HW114900   3.166   3.282   4.144
 4719SOL    HW214901   3.023   3.232   4.147
 4720SOL     OW14902   3.145   3.321   4.869
 4720SOL    HW114903   3.201   3.324   4.946
 4720SOL    HW214904   3.080   3.253   4.889
 4721SOL     OW14905   3.445   2.484   4.206
 4721SOL    HW114906   3.398   2.542   4.266
 4721SOL    HW214907   3.489   2.544   4.145
 4722SOL     OW14908   2.208   3.394   5.033
 4722SOL    HW114909   2.193   3.351   4.949
 4722SOL    HW214910   2.304   3.403   5.039
 4723SOL     OW14911   3.465   2.644   5.409
 4723SOL    HW114912   3.376   2.677   5.397
 4723SOL    HW214913   3.515   2.684   5.338
 4724SOL     OW14914   2.866   1.958   5.552
 4724SOL    HW114915   2.898   2.026   5.493
 4724SOL    HW214916   2.908   1.878   5.522
 4725SOL     OW14917   2.380   1.929   5.477
 4725SOL    HW114918   2.343   1.870   5.412
 4725SOL    HW214919   2.315   1.997   5.489
 4726SOL     OW14920   3.222   2.721   4.755
 4726SOL    HW114921   3.136   2.714   4.713
 4726SOL    HW214922   3.257   2.632   4.755
 4727SOL     OW14923   3.069   2.392   3.991
 4727SOL    HW114924   3.074   2.312   4.044
 4727SOL    HW214925   3.033   2.458   4.050
 4728SOL     OW14926   1.927   3.206   4.992
 4728SOL    HW114927   1.937   3.161   5.076
 4728SOL    HW214928   1.917   3.298   5.015
 4729SOL     OW14929   3.597   2.823   5.576
 4729SOL    HW114930   3.551   2.761   5.519
 4729SOL    HW214931   3.537   2.836   5.650
 4730SOL     OW14932   3.480   2.237   4.090
 4730SOL    HW114933   3.505   2.171   4.156
 4730SOL    HW214934   3.456   2.314   4.142
 4731SOL     OW14935   2.843   3.427   5.440
 4731SOL    HW114936   2.828   3.472   5.357
 4731SOL    HW214937   2.887   3.345   5.415
 4732SOL     OW14938   3.717   3.369   5.330
 4732SOL    HW114939   3.734   3.395   5.239
 4732SOL    HW214940   3.798   3.388   5.376
 4733SOL     OW14941   2.213   2.756   5.465
 4733SOL    HW114942   2.242   2.799   5.546
 4733SOL    HW214943   2.289   2.705   5.437
 4734SOL     OW14944   3.391   2.135   3.851
 4734SOL    HW114945   3.327   2.070   3.877
 4734SOL    HW214946   3.424   2.171   3.934
 4735SOL     OW14947   3.154   2.689   3.756
 4735SOL    HW114948   3.197   2.603   3.760
 4735SOL    HW214949   3.186   2.727   3.674
 4736SOL     OW14950   2.925   3.202   4.577
 4736SOL    HW114951   2.931   3.127   4.518
 4736SOL    HW214952   2.990   3.264   4.543
 4737SOL     OW14953   1.867   3.183   3.919
 4737SOL    HW114954   1.780   3.197   3.881
 4737SOL    HW214955   1.864   3.093   3.952
 4738SOL     OW14956   1.952   3.650   4.662
 4738SOL    HW114957   1.921   3.570   4.619
 4738SOL    HW214958   2.042   3.661   4.630
 4739SOL     OW14959   2.358   3.436   4.630
 4739SOL    HW114960   2.427   3.497   4.656
 4739SOL    HW214961   2.403   3.371   4.576
 4740SOL     OW14962   1.986   2.388   4.822
 4740SOL    HW114963   2.052   2.318   4.825
 4740SOL    HW214964   1.964   2.404   4.913
 4741SOL     OW14965   3.235   2.804   5.382
 4741SOL    HW114966   3.259   2.896   5.380
 4741SOL    HW214967   3.238   2.776   5.290
 4742SOL     OW14968   2.714   2.455   4.082
 4742SOL    HW114969   2.708   2.379   4.023
 4742SOL    HW214970   2.638   2.509   4.060
 4743SOL     OW14971   3.507   2.471   4.911
 4743SOL    HW114972   3.487   2.414   4.985
 4743SOL    HW214973   3.593   2.443   4.881
 4744SOL     OW14974   2.106   3.417   5.455
 4744SOL    HW114975   2.081   3.477   5.526
 4744SOL    HW214976   2.110   3.331   5.497
 4745SOL     OW14977   2.790   3.543   5.193
 4745SOL    HW114978   2.764   3.506   5.108
 4745SOL    HW214979   2.785   3.637   5.180
 4746SOL     OW14980   3.187   2.910   4.947
 4746SOL    HW114981   3.213   2.848   4.879
 4746SOL    HW214982   3.117   2.961   4.907
 4747SOL     OW14983   3.172   2.718   4.032
 4747SOL    HW114984   3.097   2.686   4.082
 4747SOL    HW214985   3.147   2.705   3.940
 4748SOL     OW14986   3.634   3.606   4.874
 4748SOL    HW114987   3.693   3.633   4.804
 4748SOL    HW214988   3.609   3.517   4.853
 4749SOL     OW14989   3.103   3.596   4.838
 4749SOL    HW114990   3.185   3.616   4.792
 4749SOL    HW214991   3.109   3.502   4.855
 4750SOL     OW14992   1.948   3.147   4.724
 4750SOL    HW114993   1.930   3.157   4.817
 4750SOL    HW214994   1.891   3.075   4.696
 4751SOL     OW14995   2.539   3.527   5.452
 4751SOL    HW114996   2.486   3.607   5.446
 4751SOL    HW214997   2.604   3.536   5.383
 4752SOL     OW14998   3.581   2.007   4.235
 4752SOL    HW114999   3.654   1.992   4.174
 4752SOL    HW215000   3.565   1.922   4.275
 4753SOL     OW15001   3.252   3.430   4.208
 4753SOL    HW115002   3.313   3.462   4.141
 4753SOL    HW215003   3.204   3.507   4.237
 4754SOL     OW15004   1.996   3.661   5.568
 4754SOL    HW115005   1.945   3.595   5.616
 4754SOL    HW215006   2.044   3.708   5.636
 4755SOL     OW15007   3.138   2.786   4.395
 4755SOL    HW115008   3.211   2.725   4.401
 4755SOL    HW215009   3.172   2.859   4.342
 4756SOL     OW15010   2.703   3.186   5.164
 4756SOL    HW115011   2.656   3.216   5.241
 4756SOL    HW215012   2.638   3.136   5.114
 4757SOL     OW15013   2.533   3.481   3.879
 4757SOL    HW115014   2.544   3.493   3.785
 4757SOL    HW215015   2.479   3.403   3.888
 4758SOL     OW15016   3.490   3.588   5.116
 4758SOL    HW115017   3.539   3.596   5.034
 4758SOL    HW215018   3.476   3.679   5.143
 4759SOL     OW15019   3.702   2.035   4.690
 4759SOL    HW115020   3.731   1.948   4.663
 4759SOL    HW215021   3.615   2.044   4.651
 4760SOL     OW15022   3.069   3.468   3.755
 4760SOL    HW115023   3.059   3.377   3.782
 4760SOL    HW215024   3.004   3.480   3.686
 4761SOL     OW15025   2.781   2.778   4.017
 4761SOL    HW115026   2.841   2.808   3.948
 4761SOL    HW215027   2.829   2.707   4.060
 4762SOL     OW15028   3.354   3.487   3.766
 4762SOL    HW115029   3.260   3.481   3.753
 4762SOL    HW215030   3.391   3.493   3.678
 4763SOL     OW15031   2.200   3.209   5.241
 4763SOL    HW115032   2.197   3.274   5.171
 4763SOL    HW215033   2.150   3.135   5.208
 4764SOL     OW15034   3.473   3.145   5.005
 4764SOL    HW115035   3.531   3.134   5.080
 4764SOL    HW215036   3.413   3.214   5.031
 4765SOL     OW15037   2.918   2.969   4.434
 4765SOL    HW115038   2.835   2.922   4.433
 4765SOL    HW215039   2.982   2.905   4.403
 4766SOL     OW15040   2.465   3.350   4.205
 4766SOL    HW115041   2.507   3.301   4.135
 4766SOL    HW215042   2.395   3.398   4.161
 4767SOL     OW15043   3.585   2.252   5.105
 4767SOL    HW115044   3.655   2.317   5.102
 4767SOL    HW215045   3.616   2.181   5.048
 4768SOL     OW15046   2.121   3.208   4.012
 4768SOL    HW115047   2.028   3.205   3.990
 4768SOL    HW215048   2.124   3.245   4.100
 4769SOL     OW15049   1.954   2.880   5.470
 4769SOL    HW115050   1.895   2.841   5.534
 4769SOL    HW215051   2.039   2.841   5.488
 4770SOL     OW15052   2.522   2.065   5.206
 4770SOL    HW115053   2.602   2.025   5.171
 4770SOL    HW215054   2.540   2.079   5.298
 4771SOL     OW15055   1.872   2.240   3.774
 4771SOL    HW115056   1.805   2.182   3.738
 4771SOL    HW215057   1.914   2.278   3.697
 4772SOL     OW15058   3.292   2.729   5.127
 4772SOL    HW115059   3.246   2.788   5.068
 4772SOL    HW215060   3.381   2.723   5.092
 4773SOL     OW15061   3.041   3.202   3.841
 4773SOL    HW115062   2.951   3.171   3.844
 4773SOL    HW215063   3.070   3.202   3.932
 4774SOL     OW15064   3.346   3.638   4.702
 4774SOL    HW115065   3.370   3.698   4.630
 4774SOL    HW215066   3.428   3.620   4.746
 4775SOL     OW15067   3.335   3.063   5.357
 4775SOL    HW115068   3.322   3.076   5.451
 4775SOL    HW215069   3.428   3.076   5.343
 4776SOL     OW15070   2.242   3.601   5.288
 4776SOL    HW115071   2.157   3.642   5.275
 4776SOL    HW215072   2.221   3.517   5.331
 4777SOL     OW15073   3.532   2.744   4.980
 4777SOL    HW115074   3.526   2.658   4.940
 4777SOL    HW215075   3.522   2.806   4.907
 4778SOL     OW15076   3.079   2.182   4.180
 4778SOL    HW115077   3.142   2.110   4.171
 4778SOL    HW215078   3.107   2.229   4.258
 4779SOL     OW15079   2.497   2.663   4.385
 4779SOL    HW115080   2.525   2.750   4.356
 4779SOL    HW215081   2.424   2.642   4.327
 4780SOL     OW15082   3.625   2.222   5.375
 4780SOL    HW115083   3.607   2.238   5.282
 4780SOL    HW215084   3.552   2.167   5.403
 4781SOL     OW15085   3.609   2.796   5.236
 4781SOL    HW115086   3.604   2.891   5.248
 4781SOL    HW215087   3.592   2.783   5.142
 4782SOL     OW15088   2.723   3.229   3.756
 4782SOL    HW115089   2.686   3.256   3.840
 4782SOL    HW215090   2.743   3.312   3.712
 4783SOL     OW15091   2.521   3.654   4.670
 4783SOL    HW115092   2.502   3.745   4.646
 4783SOL    HW215093   2.617   3.647   4.663
 4784SOL     OW15094   2.943   2.853   3.813
 4784SOL    HW115095   2.921   2.901   3.734
 4784SOL    HW215096   3.016   2.797   3.787
 4785SOL     OW15097   3.717   3.417   4.569
 4785SOL    HW115098   3.639   3.406   4.514
 4785SOL    HW215099   3.709   3.349   4.636
 4786SOL     OW15100   2.089   3.166   5.583
 4786SOL    HW115101   2.018   3.107   5.558
 4786SOL    HW215102   2.068   3.191   5.673
 4787SOL     OW15103   1.945   3.104   4.388
 4787SOL    HW115104   1.927   3.052   4.467
 4787SOL    HW215105   2.010   3.053   4.340
 4788SOL     OW15106   2.534   3.266   5.355
 4788SOL    HW115107   2.459   3.219   5.393
 4788SOL    HW215108   2.529   3.354   5.392
 4789SOL     OW15109   3.680   2.046   4.961
 4789SOL    HW115110   3.682   1.951   4.975
 4789SOL    HW215111   3.687   2.056   4.866
 4790SOL     OW15112   3.562   3.352   4.822
 4790SOL    HW115113   3.482   3.328   4.775
 4790SOL    HW215114   3.574   3.282   4.886
 4791SOL     OW15115   2.689   3.442   4.398
 4791SOL    HW115116   2.677   3.493   4.318
 4791SOL    HW215117   2.612   3.386   4.403
 4792SOL     OW15118   3.296   2.100   4.834
 4792SOL    HW115119   3.313   2.009   4.858
 4792SOL    HW215120   3.232   2.130   4.899
 4793SOL     OW15121   2.635   3.196   4.036
 4793SOL    HW115122   2.603   3.106   4.041
 4793SOL    HW215123   2.716   3.196   4.086
 4794SOL     OW15124   2.481   3.422   5.004
 4794SOL    HW115125   2.484   3.502   5.057
 4794SOL    HW215126   2.571   3.411   4.972
 4795SOL     OW15127   3.214   1.915   3.888
 4795SOL    HW115128   3.241   1.851   3.822
 4795SOL    HW215129   3.127   1.886   3.915
 4796SOL     OW15130   3.153   2.322   4.407
 4796SOL    HW115131   3.101   2.401   4.412
 4796SOL    HW215132   3.154   2.288   4.497
 4797SOL     OW15133   3.447   2.066   4.603
 4797SOL    HW115134   3.387   2.087   4.674
 4797SOL    HW215135   3.449   2.144   4.548
 4798SOL     OW15136   1.906   2.933   4.030
 4798SOL    HW115137   1.999   2.923   4.010
 4798SOL    HW215138   1.878   2.844   4.053
 4799SOL     OW15139   2.746   3.514   4.067
 4799SOL    HW115140   2.673   3.496   4.007
 4799SOL    HW215141   2.717   3.590   4.118
 4800SOL     OW15142   2.074   2.518   5.692
 4800SOL    HW115143   1.992   2.481   5.725
 4800SOL    HW215144   2.111   2.450   5.637
 4801SOL     OW15145   2.429   3.150   6.760
 4801SOL    HW115146   2.342   3.150   6.722
 4801SOL    HW215147   2.440   3.240   6.793
 4802SOL     OW15148   3.422   3.374   6.293
 4802SOL    HW115149   3.379   3.354   6.376
 4802SOL    HW215150   3.351   3.378   6.229
 4803SOL     OW15151   3.632   2.467   5.814
 4803SOL    HW115152   3.609   2.459   5.721
 4803SOL    HW215153   3.593   2.390   5.855
 4804SOL     OW15154   2.612   3.003   6.622
 4804SOL    HW115155   2.545   3.042   6.679
 4804SOL    HW215156   2.653   3.077   6.578
 4805SOL     OW15157   2.734   2.641   7.409
 4805SOL    HW115158   2.720   2.713   7.471
 4805SOL    HW215159   2.755   2.684   7.326
 4806SOL     OW15160   2.572   3.013   7.396
 4806SOL    HW115161   2.620   3.091   7.423
 4806SOL    HW215162   2.489   3.047   7.361
 4807SOL     OW15163   2.191   3.294   6.655
 4807SOL    HW115164   2.123   3.250   6.604
 4807SOL    HW215165   2.243   3.341   6.590
 4808SOL     OW15166   3.323   3.360   6.940
 4808SOL    HW115167   3.372   3.442   6.949
 4808SOL    HW215168   3.262   3.360   7.013
 4809SOL     OW15169   3.483   2.311   6.327
 4809SOL    HW115170   3.397   2.323   6.285
 4809SOL    HW215171   3.493   2.389   6.382
 4810SOL     OW15172   2.085   3.569   6.061
 4810SOL    HW115173   2.105   3.647   6.113
 4810SOL    HW215174   2.154   3.566   5.995
 4811SOL     OW15175   2.998   3.203   7.279
 4811SOL    HW115176   3.038   3.198   7.366
 4811SOL    HW215177   2.946   3.123   7.272
 4812SOL     OW15178   2.080   3.298   6.126
 4812SOL    HW115179   2.078   3.393   6.116
 4812SOL    HW215180   2.036   3.281   6.209
 4813SOL     OW15181   2.121   3.036   6.485
 4813SOL    HW115182   2.127   2.941   6.498
 4813SOL    HW215183   2.042   3.062   6.532
 4814SOL     OW15184   2.474   3.653   7.016
 4814SOL    HW115185   2.392   3.636   7.062
 4814SOL    HW215186   2.497   3.743   7.041
 4815SOL     OW15187   3.457   1.985   7.054
 4815SOL    HW115188   3.465   2.067   7.003
 4815SOL    HW215189   3.444   2.014   7.144
 4816SOL     OW15190   2.037   2.460   6.174
 4816SOL    HW115191   1.960   2.409   6.151
 4816SOL    HW215192   2.008   2.551   6.171
 4817SOL     OW15193   3.704   3.622   5.921
 4817SOL    HW115194   3.766   3.593   5.987
 4817SOL    HW215195   3.728   3.712   5.902
 4818SOL     OW15196   1.889   3.458   5.708
 4818SOL    HW115197   1.870   3.366   5.728
 4818SOL    HW215198   1.869   3.505   5.789
 4819SOL     OW15199   3.553   2.782   6.227
 4819SOL    HW115200   3.637   2.740   6.206
 4819SOL    HW215201   3.531   2.831   6.148
 4820SOL     OW15202   3.508   2.969   6.015
 4820SOL    HW115203   3.593   2.976   5.973
 4820SOL    HW215204   3.513   3.030   6.089
 4821SOL     OW15205   1.989   2.605   7.166
 4821SOL    HW115206   2.041   2.614   7.247
 4821SOL    HW215207   1.931   2.681   7.167
 4822SOL     OW15208   2.476   3.246   6.323
 4822SOL    HW115209   2.427   3.165   6.338
 4822SOL    HW215210   2.455   3.270   6.233
 4823SOL     OW15211   3.151   3.100   7.009
 4823SOL    HW115212   3.183   3.033   6.949
 4823SOL    HW215213   3.208   3.093   7.086
 4824SOL     OW15214   2.037   2.842   6.850
 4824SOL    HW115215   2.123   2.801   6.841
 4824SOL    HW215216   1.976   2.775   6.820
 4825SOL     OW15217   3.398   2.857   5.783
 4825SOL    HW115218   3.329   2.797   5.813
 4825SOL    HW215219   3.436   2.891   5.864
 4826SOL     OW15220   3.047   3.668   7.208
 4826SOL    HW115221   3.059   3.726   7.133
 4826SOL    HW215222   3.063   3.580   7.172
 4827SOL     OW15223   3.328   3.282   6.538
 4827SOL    HW115224   3.260   3.297   6.603
 4827SOL    HW215225   3.316   3.191   6.511
 4828SOL     OW15226   3.521   3.600   6.164
 4828SOL    HW115227   3.501   3.571   6.075
 4828SOL    HW215228   3.496   3.526   6.220
 4829SOL     OW15229   2.460   2.678   5.741
 4829SOL    HW115230   2.551   2.706   5.735
 4829SOL    HW215231   2.460   2.608   5.806
 4830SOL     OW15232   3.175   2.226   6.525
 4830SOL    HW115233   3.086   2.201   6.503
 4830SOL    HW215234   3.202   2.163   6.591
 4831SOL     OW15235   3.443   3.532   5.895
 4831SOL    HW115236   3.533   3.564   5.888
 4831SOL    HW215237   3.416   3.515   5.805
 4832SOL     OW15238   3.256   2.336   7.264
 4832SOL    HW115239   3.258   2.380   7.349
 4832SOL    HW215240   3.317   2.263   7.274
 4833SOL     OW15241   2.819   2.747   7.164
 4833SOL    HW115242   2.872   2.676   7.127
 4833SOL    HW215243   2.775   2.786   7.088
 4834SOL     OW15244   2.858   2.272   6.819
 4834SOL    HW115245   2.781   2.303   6.868
 4834SOL    HW215246   2.824   2.206   6.759
 4835SOL     OW15247   1.989   3.707   7.163
 4835SOL    HW115248   1.989   3.687   7.257
 4835SOL    HW215249   1.897   3.702   7.138
 4836SOL     OW15250   2.701   2.175   5.726
 4836SOL    HW115251   2.750   2.252   5.755
 4836SOL    HW215252   2.760   2.101   5.746
 4837SOL     OW15253   3.572   2.437   7.414
 4837SOL    HW115254   3.533   2.511   7.367
 4837SOL    HW215255   3.598   2.376   7.345
 4838SOL     OW15256   3.239   3.003   6.126
 4838SOL    HW115257   3.319   2.991   6.076
 4838SOL    HW215258   3.188   3.067   6.076
 4839SOL     OW15259   2.868   3.304   6.060
 4839SOL    HW115260   2.829   3.376   6.010
 4839SOL    HW215261   2.855   3.329   6.151
 4840SOL     OW15262   2.216   3.670   6.447
 4840SOL    HW115263   2.260   3.586   6.456
 4840SOL    HW215264   2.284   3.735   6.465
 4841SOL     OW15265   3.660   2.922   6.454
 4841SOL    HW115266   3.606   2.901   6.378
 4841SOL    HW215267   3.598   2.926   6.527
 4842SOL     OW15268   3.089   3.401   7.099
 4842SOL    HW115269   3.076   3.328   7.160
 4842SOL    HW215270   3.028   3.384   7.028
 4843SOL     OW15271   2.192   2.776   5.745
 4843SOL    HW115272   2.285   2.759   5.757
 4843SOL    HW215273   2.154   2.689   5.730
 4844SOL     OW15274   3.331   2.613   6.311
 4844SOL    HW115275   3.326   2.563   6.393
 4844SOL    HW215276   3.410   2.666   6.320
 4845SOL     OW15277   2.327   3.125   7.324
 4845SOL    HW115278   2.300   3.131   7.232
 4845SOL    HW215279   2.245   3.126   7.373
 4846SOL     OW15280   2.983   3.640   5.817
 4846SOL    HW115281   2.911   3.597   5.863
 4846SOL    HW215282   3.006   3.579   5.747
 4847SOL     OW15283   3.491   3.242   5.673
 4847SOL    HW115284   3.450   3.327   5.658
 4847SOL    HW215285   3.422   3.178   5.655
 4848SOL     OW15286   2.329   3.598   5.908
 4848SOL    HW115287   2.370   3.658   5.971
 4848SOL    HW215288   2.401   3.570   5.851
 4849SOL     OW15289   3.259   1.959   6.019
 4849SOL    HW115290   3.250   1.943   5.925
 4849SOL    HW215291   3.351   1.982   6.031
 4850SOL     OW15292   2.118   3.653   6.818
 4850SOL    HW115293   2.169   3.589   6.866
 4850SOL    HW215294   2.108   3.616   6.730
 4851SOL     OW15295   2.800   3.561   6.485
 4851SOL    HW115296   2.876   3.508   6.508
 4851SOL    HW215297   2.756   3.511   6.417
 4852SOL     OW15298   3.398   2.087   7.311
 4852SOL    HW115299   3.407   2.108   7.404
 4852SOL    HW215300   3.329   2.020   7.309
 4853SOL     OW15301   2.464   1.965   5.727
 4853SOL    HW115302   2.559   1.952   5.730
 4853SOL    HW215303   2.440   1.949   5.636
 4854SOL     OW15304   2.624   2.121   7.320
 4854SOL    HW115305   2.700   2.068   7.345
 4854SOL    HW215306   2.583   2.145   7.404
 4855SOL     OW15307   2.738   3.384   6.780
 4855SOL    HW115308   2.723   3.347   6.693
 4855SOL    HW215309   2.808   3.330   6.817
 4856SOL     OW15310   3.198   2.457   7.021
 4856SOL    HW115311   3.231   2.423   7.104
 4856SOL    HW215312   3.241   2.542   7.011
 4857SOL     OW15313   2.678   3.261   6.526
 4857SOL    HW115314   2.762   3.246   6.483
 4857SOL    HW215315   2.614   3.259   6.454
 4858SOL     OW15316   3.291   3.061   5.628
 4858SOL    HW115317   3.322   2.984   5.676
 4858SOL    HW215318   3.204   3.078   5.664
 4859SOL     OW15319   2.932   2.524   7.041
 4859SOL    HW115320   2.896   2.445   7.081
 4859SOL    HW215321   3.025   2.506   7.032
 4860SOL     OW15322   3.086   3.431   6.379
 4860SOL    HW115323   3.103   3.499   6.314
 4860SOL    HW215324   3.154   3.444   6.446
 4861SOL     OW15325   3.132   3.656   6.193
 4861SOL    HW115326   3.177   3.717   6.135
 4861SOL    HW215327   3.066   3.710   6.238
 4862SOL     OW15328   1.957   2.419   6.966
 4862SOL    HW115329   2.039   2.377   6.993
 4862SOL    HW215330   1.943   2.489   7.030
 4863SOL     OW15331   3.298   3.025   6.444
 4863SOL    HW115332   3.233   2.955   6.446
 4863SOL    HW215333   3.320   3.034   6.351
 4864SOL     OW15334   3.332   2.467   6.561
 4864SOL    HW115335   3.280   2.386   6.563
 4864SOL    HW215336   3.389   2.460   6.638
 4865SOL     OW15337   3.708   2.678   5.969
 4865SOL    HW115338   3.764   2.627   6.027
 4865SOL    HW215339   3.680   2.616   5.901
 4866SOL     OW15340   2.358   3.278   5.744
 4866SOL    HW115341   2.277   3.264   5.794
 4866SOL    HW215342   2.337   3.247   5.656
 4867SOL     OW15343   3.532   3.127   6.231
 4867SOL    HW115344   3.626   3.130   6.246
 4867SOL    HW215345   3.501   3.215   6.254
 4868SOL     OW15346   3.254   2.431   5.661
 4868SOL    HW115347   3.216   2.404   5.745
 4868SOL    HW215348   3.346   2.406   5.668
 4869SOL     OW15349   3.615   3.100   7.160
 4869SOL    HW115350   3.702   3.061   7.157
 4869SOL    HW215351   3.630   3.190   7.189
 4870SOL     OW15352   2.921   3.219   6.924
 4870SOL    HW115353   2.846   3.186   6.973
 4870SOL    HW215354   2.997   3.175   6.962
 4871SOL     OW15355   3.469   3.488   7.239
 4871SOL    HW115356   3.464   3.521   7.150
 4871SOL    HW215357   3.552   3.440   7.242
 4872SOL     OW15358   2.995   3.071   6.693
 4872SOL    HW115359   2.930   3.099   6.758
 4872SOL    HW215360   2.955   3.092   6.609
 4873SOL     OW15361   3.490   2.960   6.664
 4873SOL    HW115362   3.486   3.022   6.737
 4873SOL    HW215363   3.411   2.976   6.614
 4874SOL     OW15364   2.792   1.955   6.983
 4874SOL    HW115365   2.813   1.941   6.891
 4874SOL    HW215366   2.871   1.995   7.019
 4875SOL     OW15367   2.846   2.975   7.307
 4875SOL    HW115368   2.754   2.991   7.327
 4875SOL    HW215369   2.845   2.897   7.251
 4876SOL     OW15370   2.261   2.693   6.848
 4876SOL    HW115371   2.337   2.714   6.902
 4876SOL    HW215372   2.231   2.608   6.881
 4877SOL     OW15373   3.130   2.241   6.864
 4877SOL    HW115374   3.162   2.319   6.908
 4877SOL    HW215375   3.042   2.263   6.834
 4878SOL     OW15376   1.932   3.435   6.938
 4878SOL    HW115377   1.902   3.508   6.884
 4878SOL    HW215378   2.028   3.439   6.932
 4879SOL     OW15379   3.110   3.210   5.976
 4879SOL    HW115380   3.166   3.282   6.006
 4879SOL    HW215381   3.023   3.232   6.010
 4880SOL     OW15382   3.141   3.319   6.731
 4880SOL    HW115383   3.195   3.320   6.811
 4880SOL    HW215384   3.087   3.241   6.739
 4881SOL     OW15385   3.439   2.489   6.058
 4881SOL    HW115386   3.396   2.539   6.128
 4881SOL    HW215387   3.489   2.555   6.009
 4882SOL     OW15388   2.209   3.389   6.903
 4882SOL    HW115389   2.196   3.348   6.817
 4882SOL    HW215390   2.304   3.401   6.909
 4883SOL     OW15391   3.463   2.640   7.267
 4883SOL    HW115392   3.376   2.682   7.260
 4883SOL    HW215393   3.515   2.682   7.199
 4884SOL     OW15394   2.862   1.982   7.348
 4884SOL    HW115395   2.912   2.055   7.312
 4884SOL    HW215396   2.910   1.904   7.320
 4885SOL     OW15397   2.356   1.897   7.340
 4885SOL    HW115398   2.320   1.846   7.267
 4885SOL    HW215399   2.289   1.961   7.361
 4886SOL     OW15400   2.468   2.725   6.654
 4886SOL    HW115401   2.485   2.812   6.616
 4886SOL    HW215402   2.384   2.735   6.699
 4887SOL     OW15403   3.216   2.719   6.613
 4887SOL    HW115404   3.129   2.702   6.577
 4887SOL    HW215405   3.261   2.635   6.609
 4888SOL     OW15406   1.899   3.172   6.873
 4888SOL    HW115407   1.939   3.118   6.942
 4888SOL    HW215408   1.913   3.262   6.902
 4889SOL     OW15409   2.658   2.533   6.660
 4889SOL    HW115410   2.625   2.475   6.592
 4889SOL    HW215411   2.594   2.604   6.665
 4890SOL     OW15412   3.596   2.822   7.438
 4890SOL    HW115413   3.550   2.761   7.380
 4890SOL    HW215414   3.537   2.834   7.512
 4891SOL     OW15415   3.476   2.235   5.956
 4891SOL    HW115416   3.505   2.172   6.021
 4891SOL    HW215417   3.454   2.314   6.005
 4892SOL     OW15418   2.944   2.600   6.574
 4892SOL    HW115419   2.927   2.654   6.651
 4892SOL    HW215420   2.868   2.541   6.569
 4893SOL     OW15421   2.844   3.428   7.302
 4893SOL    HW115422   2.829   3.472   7.219
 4893SOL    HW215423   2.887   3.346   7.279
 4894SOL     OW15424   3.717   3.369   7.192
 4894SOL    HW115425   3.735   3.395   7.101
 4894SOL    HW215426   3.798   3.388   7.238
 4895SOL     OW15427   2.226   2.763   7.380
 4895SOL    HW115428   2.293   2.797   7.439
 4895SOL    HW215429   2.275   2.735   7.302
 4896SOL     OW15430   3.390   2.138   5.714
 4896SOL    HW115431   3.327   2.070   5.739
 4896SOL    HW215432   3.424   2.171   5.797
 4897SOL     OW15433   3.155   2.691   5.616
 4897SOL    HW115434   3.191   2.602   5.615
 4897SOL    HW215435   3.183   2.729   5.533
 4898SOL     OW15436   2.924   3.199   6.435
 4898SOL    HW115437   2.929   3.125   6.374
 4898SOL    HW215438   2.989   3.261   6.403
 4899SOL     OW15439   2.994   2.246   7.261
 4899SOL    HW115440   2.949   2.295   7.330
 4899SOL    HW215441   3.084   2.280   7.263
 4900SOL     OW15442   3.027   2.067   7.056
 4900SOL    HW115443   3.015   2.130   7.128
 4900SOL    HW215444   3.067   2.119   6.986
 4901SOL     OW15445   1.864   3.175   5.782
 4901SOL    HW115446   1.778   3.193   5.743
 4901SOL    HW215447   1.852   3.092   5.829
 4902SOL     OW15448   1.950   3.646   6.521
 4902SOL    HW115449   1.923   3.566   6.477
 4902SOL    HW215450   2.041   3.660   6.492
 4903SOL     OW15451   2.360   3.437   6.491
 4903SOL    HW115452   2.427   3.500   6.517
 4903SOL    HW215453   2.407   3.372   6.439
 4904SOL     OW15454   2.850   2.675   6.822
 4904SOL    HW115455   2.888   2.625   6.894
 4904SOL    HW215456   2.776   2.621   6.792
 4905SOL     OW15457   1.897   2.415   6.700
 4905SOL    HW115458   1.967   2.366   6.658
 4905SOL    HW215459   1.923   2.420   6.792
 4906SOL     OW15460   3.239   2.801   7.244
 4906SOL    HW115461   3.259   2.895   7.244
 4906SOL    HW215462   3.238   2.777   7.151
 4907SOL     OW15463   3.504   2.463   6.774
 4907SOL    HW115464   3.495   2.402   6.848
 4907SOL    HW215465   3.591   2.444   6.738
 4908SOL     OW15466   2.107   3.414   7.314
 4908SOL    HW115467   2.083   3.478   7.381
 4908SOL    HW215468   2.107   3.330   7.361
 4909SOL     OW15469   2.789   3.542   7.054
 4909SOL    HW115470   2.765   3.507   6.968
 4909SOL    HW215471   2.786   3.637   7.043
 4910SOL     OW15472   2.010   3.004   7.063
 4910SOL    HW115473   2.011   2.948   7.141
 4910SOL    HW215474   2.022   2.943   6.990
 4911SOL     OW15475   3.190   2.909   6.808
 4911SOL    HW115476   3.210   2.845   6.740
 4911SOL    HW215477   3.119   2.962   6.771
 4912SOL     OW15478   3.180   2.719   5.883
 4912SOL    HW115479   3.093   2.727   5.924
 4912SOL    HW215480   3.161   2.708   5.790
 4913SOL     OW15481   3.634   3.606   6.736
 4913SOL    HW115482   3.693   3.633   6.666
 4913SOL    HW215483   3.609   3.517   6.715
 4914SOL     OW15484   3.103   3.595   6.700
 4914SOL    HW115485   3.185   3.615   6.654
 4914SOL    HW215486   3.108   3.501   6.718
 4915SOL     OW15487   1.919   3.171   6.605
 4915SOL    HW115488   1.910   3.161   6.700
 4915SOL    HW215489   1.866   3.100   6.568
 4916SOL     OW15490   2.539   3.527   7.314
 4916SOL    HW115491   2.486   3.607   7.309
 4916SOL    HW215492   2.605   3.538   7.245
 4917SOL     OW15493   3.583   2.008   6.098
 4917SOL    HW115494   3.654   1.993   6.036
 4917SOL    HW215495   3.565   1.922   6.136
 4918SOL     OW15496   3.252   3.429   6.070
 4918SOL    HW115497   3.313   3.462   6.003
 4918SOL    HW215498   3.204   3.507   6.098
 4919SOL     OW15499   1.999   3.658   7.429
 4919SOL    HW115500   1.947   3.593   7.477
 4919SOL    HW215501   2.046   3.707   7.496
 4920SOL     OW15502   3.121   2.790   6.246
 4920SOL    HW115503   3.186   2.722   6.265
 4920SOL    HW215504   3.170   2.858   6.199
 4921SOL     OW15505   2.677   3.136   7.015
 4921SOL    HW115506   2.648   3.175   7.098
 4921SOL    HW215507   2.607   3.156   6.953
 4922SOL     OW15508   2.533   3.485   5.741
 4922SOL    HW115509   2.544   3.495   5.646
 4922SOL    HW215510   2.482   3.404   5.750
 4923SOL     OW15511   3.490   3.589   6.978
 4923SOL    HW115512   3.539   3.596   6.896
 4923SOL    HW215513   3.476   3.679   7.005
 4924SOL     OW15514   3.702   2.035   6.554
 4924SOL    HW115515   3.732   1.948   6.526
 4924SOL    HW215516   3.616   2.045   6.514
 4925SOL     OW15517   3.068   3.469   5.618
 4925SOL    HW115518   3.059   3.377   5.644
 4925SOL    HW215519   3.004   3.480   5.547
 4926SOL     OW15520   2.685   2.869   6.961
 4926SOL    HW115521   2.727   2.858   6.876
 4926SOL    HW215522   2.687   2.963   6.977
 4927SOL     OW15523   3.354   3.487   5.628
 4927SOL    HW115524   3.260   3.481   5.615
 4927SOL    HW215525   3.391   3.493   5.540
 4928SOL     OW15526   2.232   3.165   7.078
 4928SOL    HW115527   2.218   3.242   7.023
 4928SOL    HW215528   2.155   3.111   7.063
 4929SOL     OW15529   3.473   3.145   6.867
 4929SOL    HW115530   3.532   3.134   6.942
 4929SOL    HW215531   3.413   3.214   6.893
 4930SOL     OW15532   2.911   2.967   6.290
 4930SOL    HW115533   2.849   2.907   6.331
 4930SOL    HW215534   2.986   2.911   6.268
 4931SOL     OW15535   2.457   3.343   6.069
 4931SOL    HW115536   2.508   3.307   5.996
 4931SOL    HW215537   2.393   3.401   6.027
 4932SOL     OW15538   3.583   2.254   6.966
 4932SOL    HW115539   3.655   2.317   6.965
 4932SOL    HW215540   3.613   2.182   6.910
 4933SOL     OW15541   2.108   3.260   5.856
 4933SOL    HW115542   2.015   3.240   5.842
 4933SOL    HW215543   2.118   3.262   5.951
 4934SOL     OW15544   1.976   2.880   7.308
 4934SOL    HW115545   1.898   2.859   7.358
 4934SOL    HW215546   2.048   2.838   7.356
 4935SOL     OW15547   2.550   2.038   7.073
 4935SOL    HW115548   2.638   2.014   7.042
 4935SOL    HW215549   2.564   2.071   7.162
 4936SOL     OW15550   3.293   2.721   6.986
 4936SOL    HW115551   3.244   2.781   6.930
 4936SOL    HW215552   3.382   2.723   6.952
 4937SOL     OW15553   1.874   2.017   5.839
 4937SOL    HW115554   1.865   2.111   5.824
 4937SOL    HW215555   1.953   2.008   5.892
 4938SOL     OW15556   3.041   3.203   5.703
 4938SOL    HW115557   2.953   3.166   5.706
 4938SOL    HW215558   3.071   3.203   5.794
 4939SOL     OW15559   2.476   2.702   7.009
 4939SOL    HW115560   2.541   2.771   6.994
 4939SOL    HW215561   2.527   2.628   7.042
 4940SOL     OW15562   3.346   3.638   6.564
 4940SOL    HW115563   3.370   3.698   6.493
 4940SOL    HW215564   3.428   3.619   6.608
 4941SOL     OW15565   3.333   3.063   7.218
 4941SOL    HW115566   3.321   3.076   7.312
 4941SOL    HW215567   3.426   3.077   7.204
 4942SOL     OW15568   2.242   3.601   7.150
 4942SOL    HW115569   2.157   3.642   7.136
 4942SOL    HW215570   2.222   3.518   7.192
 4943SOL     OW15571   3.532   2.743   6.842
 4943SOL    HW115572   3.525   2.658   6.799
 4943SOL    HW215573   3.523   2.806   6.770
 4944SOL     OW15574   3.625   2.223   7.236
 4944SOL    HW115575   3.608   2.238   7.143
 4944SOL    HW215576   3.553   2.166   7.265
 4945SOL     OW15577   3.607   2.796   7.098
 4945SOL    HW115578   3.604   2.890   7.111
 4945SOL    HW215579   3.592   2.783   7.004
 4946SOL     OW15580   2.724   3.233   5.618
 4946SOL    HW115581   2.688   3.266   5.700
 4946SOL    HW215582   2.746   3.311   5.567
 4947SOL     OW15583   2.522   3.654   6.531
 4947SOL    HW115584   2.502   3.745   6.508
 4947SOL    HW215585   2.617   3.648   6.525
 4948SOL     OW15586   2.943   2.866   5.672
 4948SOL    HW115587   2.921   2.902   5.586
 4948SOL    HW215588   3.010   2.800   5.654
 4949SOL     OW15589   3.717   3.417   6.431
 4949SOL    HW115590   3.639   3.405   6.376
 4949SOL    HW215591   3.710   3.349   6.498
 4950SOL     OW15592   2.087   3.165   7.442
 4950SOL    HW115593   2.017   3.107   7.413
 4950SOL    HW215594   2.069   3.179   7.535
 4951SOL     OW15595   2.542   3.265   7.212
 4951SOL    HW115596   2.462   3.221   7.243
 4951SOL    HW215597   2.538   3.352   7.250
 4952SOL     OW15598   3.675   2.046   6.824
 4952SOL    HW115599   3.684   1.952   6.838
 4952SOL    HW215600   3.684   2.058   6.730
 4953SOL     OW15601   3.562   3.352   6.684
 4953SOL    HW115602   3.481   3.328   6.638
 4953SOL    HW215603   3.574   3.282   6.748
 4954SOL     OW15604   2.689   3.441   6.263
 4954SOL    HW115605   2.679   3.492   6.183
 4954SOL    HW215606   2.610   3.386   6.265
 4955SOL     OW15607   3.294   2.076   6.715
 4955SOL    HW115608   3.323   2.000   6.764
 4955SOL    HW215609   3.245   2.128   6.778
 4956SOL     OW15610   2.866   1.877   6.729
 4956SOL    HW115611   2.812   1.798   6.733
 4956SOL    HW215612   2.956   1.845   6.724
 4957SOL     OW15613   2.632   3.222   5.887
 4957SOL    HW115614   2.584   3.142   5.870
 4957SOL    HW215615   2.712   3.193   5.932
 4958SOL     OW15616   2.481   3.420   6.870
 4958SOL    HW115617   2.485   3.501   6.920
 4958SOL    HW215618   2.569   3.411   6.833
 4959SOL     OW15619   3.216   1.918   5.748
 4959SOL    HW115620   3.247   1.857   5.681
 4959SOL    HW215621   3.130   1.883   5.772
 4960SOL     OW15622   3.213   2.333   6.274
 4960SOL    HW115623   3.150   2.405   6.270
 4960SOL    HW215624   3.194   2.289   6.357
 4961SOL     OW15625   3.449   2.065   6.464
 4961SOL    HW115626   3.387   2.087   6.533
 4961SOL    HW215627   3.452   2.143   6.409
 4962SOL     OW15628   2.746   3.514   5.931
 4962SOL    HW115629   2.675   3.496   5.870
 4962SOL    HW215630   2.717   3.591   5.980
 4963SOL     OW15631   2.053   2.534   7.559
 4963SOL    HW115632   1.979   2.507   7.613
 4963SOL    HW215633   2.071   2.459   7.503
 4964SOL     OW15634   1.845   2.255   8.082
 4964SOL    HW115635   1.763   2.279   8.126
 4964SOL    HW215636   1.833   2.163   8.057
 4965SOL     OW15637   2.429   3.149   8.623
 4965SOL    HW115638   2.341   3.152   8.584
 4965SOL    HW215639   2.444   3.237   8.656
 4966SOL     OW15640   3.422   3.374   8.155
 4966SOL    HW115641   3.379   3.354   8.238
 4966SOL    HW215642   3.351   3.378   8.091
 4967SOL     OW15643   2.994   2.560   8.152
 4967SOL    HW115644   3.043   2.641   8.136
 4967SOL    HW215645   2.950   2.573   8.236
 4968SOL     OW15646   3.630   2.468   7.677
 4968SOL    HW115647   3.609   2.459   7.584
 4968SOL    HW215648   3.593   2.389   7.717
 4969SOL     OW15649   2.616   3.004   8.487
 4969SOL    HW115650   2.548   3.039   8.544
 4969SOL    HW215651   2.652   3.081   8.443
 4970SOL     OW15652   2.731   2.640   9.268
 4970SOL    HW115653   2.720   2.712   9.331
 4970SOL    HW215654   2.754   2.684   9.186
 4971SOL     OW15655   2.564   2.907   8.095
 4971SOL    HW115656   2.622   2.882   8.166
 4971SOL    HW215657   2.487   2.944   8.138
 4972SOL     OW15658   2.573   3.015   9.256
 4972SOL    HW115659   2.621   3.093   9.283
 4972SOL    HW215660   2.490   3.049   9.221
 4973SOL     OW15661   2.193   3.288   8.516
 4973SOL    HW115662   2.120   3.251   8.466
 4973SOL    HW215663   2.243   3.339   8.452
 4974SOL     OW15664   3.323   3.361   8.801
 4974SOL    HW115665   3.372   3.442   8.811
 4974SOL    HW215666   3.262   3.360   8.876
 4975SOL     OW15667   3.474   2.311   8.188
 4975SOL    HW115668   3.399   2.334   8.134
 4975SOL    HW215669   3.490   2.388   8.242
 4976SOL     OW15670   2.082   3.576   7.921
 4976SOL    HW115671   2.103   3.652   7.974
 4976SOL    HW215672   2.154   3.569   7.858
 4977SOL     OW15673   2.998   3.204   9.141
 4977SOL    HW115674   3.039   3.199   9.227
 4977SOL    HW215675   2.946   3.124   9.134
 4978SOL     OW15676   2.092   3.303   7.983
 4978SOL    HW115677   2.075   3.397   7.987
 4978SOL    HW215678   2.032   3.264   8.046
 4979SOL     OW15679   2.118   2.953   8.339
 4979SOL    HW115680   2.113   2.867   8.380
 4979SOL    HW215681   2.060   3.008   8.391
 4980SOL     OW15682   2.474   3.653   8.878
 4980SOL    HW115683   2.392   3.635   8.924
 4980SOL    HW215684   2.497   3.743   8.903
 4981SOL     OW15685   2.444   2.847   7.577
 4981SOL    HW115686   2.491   2.896   7.510
 4981SOL    HW215687   2.483   2.876   7.659
 4982SOL     OW15688   3.458   1.985   8.916
 4982SOL    HW115689   3.462   2.066   8.865
 4982SOL    HW215690   3.444   2.014   9.006
 4983SOL     OW15691   1.969   2.506   8.010
 4983SOL    HW115692   1.934   2.420   8.034
 4983SOL    HW215693   1.965   2.557   8.090
 4984SOL     OW15694   3.704   3.622   7.783
 4984SOL    HW115695   3.766   3.593   7.849
 4984SOL    HW215696   3.728   3.712   7.764
 4985SOL     OW15697   1.894   3.457   7.572
 4985SOL    HW115698   1.875   3.365   7.592
 4985SOL    HW215699   1.870   3.504   7.651
 4986SOL     OW15700   3.551   2.781   8.089
 4986SOL    HW115701   3.635   2.740   8.069
 4986SOL    HW215702   3.530   2.831   8.010
 4987SOL     OW15703   3.508   2.969   7.877
 4987SOL    HW115704   3.594   2.975   7.835
 4987SOL    HW215705   3.512   3.030   7.951
 4988SOL     OW15706   1.996   2.607   9.027
 4988SOL    HW115707   2.037   2.608   9.113
 4988SOL    HW215708   1.939   2.683   9.026
 4989SOL     OW15709   2.475   3.248   8.184
 4989SOL    HW115710   2.428   3.164   8.193
 4989SOL    HW215711   2.459   3.274   8.093
 4990SOL     OW15712   3.151   3.100   8.871
 4990SOL    HW115713   3.183   3.033   8.811
 4990SOL    HW215714   3.208   3.093   8.948
 4991SOL     OW15715   2.672   1.864   7.955
 4991SOL    HW115716   2.713   1.948   7.936
 4991SOL    HW215717   2.578   1.884   7.962
 4992SOL     OW15718   2.040   2.839   8.716
 4992SOL    HW115719   2.127   2.803   8.700
 4992SOL    HW215720   1.981   2.777   8.673
 4993SOL     OW15721   3.394   2.854   7.646
 4993SOL    HW115722   3.323   2.798   7.677
 4993SOL    HW215723   3.434   2.889   7.726
 4994SOL     OW15724   3.047   3.668   9.070
 4994SOL    HW115725   3.059   3.726   8.995
 4994SOL    HW215726   3.063   3.580   9.034
 4995SOL     OW15727   3.328   3.282   8.400
 4995SOL    HW115728   3.260   3.296   8.465
 4995SOL    HW215729   3.316   3.191   8.373
 4996SOL     OW15730   3.521   3.600   8.026
 4996SOL    HW115731   3.500   3.570   7.937
 4996SOL    HW215732   3.496   3.526   8.082
 4997SOL     OW15733   2.494   2.620   7.739
 4997SOL    HW115734   2.486   2.684   7.669
 4997SOL    HW215735   2.404   2.601   7.765
 4998SOL     OW15736   3.141   2.213   8.380
 4998SOL    HW115737   3.052   2.180   8.389
 4998SOL    HW215738   3.192   2.160   8.442
 4999SOL     OW15739   3.443   3.532   7.757
 4999SOL    HW115740   3.533   3.564   7.750
 4999SOL    HW215741   3.417   3.515   7.667
 5000SOL     OW15742   2.668   2.460   8.907
 5000SOL    HW115743   2.671   2.464   9.003
 5000SOL    HW215744   2.593   2.404   8.888
 5001SOL     OW15745   3.256   2.336   9.126
 5001SOL    HW115746   3.257   2.380   9.211
 5001SOL    HW215747   3.317   2.263   9.136
 5002SOL     OW15748   2.817   2.749   9.028
 5002SOL    HW115749   2.874   2.681   8.991
 5002SOL    HW215750   2.772   2.786   8.952
 5003SOL     OW15751   2.863   2.274   8.687
 5003SOL    HW115752   2.785   2.309   8.728
 5003SOL    HW215753   2.831   2.233   8.606
 5004SOL     OW15754   2.935   2.573   7.878
 5004SOL    HW115755   2.943   2.563   7.973
 5004SOL    HW215756   2.854   2.527   7.856
 5005SOL     OW15757   1.951   2.682   8.223
 5005SOL    HW115758   2.033   2.678   8.274
 5005SOL    HW215759   1.906   2.759   8.257
 5006SOL     OW15760   1.989   3.708   9.025
 5006SOL    HW115761   1.989   3.687   9.119
 5006SOL    HW215762   1.897   3.702   8.999
 5007SOL     OW15763   2.756   2.211   7.644
 5007SOL    HW115764   2.798   2.269   7.580
 5007SOL    HW215765   2.761   2.124   7.604
 5008SOL     OW15766   3.572   2.437   9.276
 5008SOL    HW115767   3.534   2.511   9.229
 5008SOL    HW215768   3.598   2.376   9.207
 5009SOL     OW15769   3.239   3.005   7.990
 5009SOL    HW115770   3.317   2.991   7.937
 5009SOL    HW215771   3.186   3.066   7.939
 5010SOL     OW15772   2.869   3.307   7.920
 5010SOL    HW115773   2.830   3.380   7.872
 5010SOL    HW215774   2.852   3.328   8.012
 5011SOL     OW15775   2.216   3.670   8.309
 5011SOL    HW115776   2.260   3.585   8.317
 5011SOL    HW215777   2.285   3.734   8.327
 5012SOL     OW15778   3.660   2.922   8.316
 5012SOL    HW115779   3.605   2.902   8.240
 5012SOL    HW215780   3.598   2.926   8.389
 5013SOL     OW15781   3.090   3.401   8.961
 5013SOL    HW115782   3.076   3.328   9.022
 5013SOL    HW215783   3.028   3.385   8.890
 5014SOL     OW15784   2.185   2.810   7.698
 5014SOL    HW115785   2.267   2.828   7.651
 5014SOL    HW215786   2.147   2.735   7.652
 5015SOL     OW15787   3.340   2.602   8.174
 5015SOL    HW115788   3.330   2.560   8.259
 5015SOL    HW215789   3.417   2.659   8.185
 5016SOL     OW15790   2.327   3.126   9.185
 5016SOL    HW115791   2.300   3.131   9.094
 5016SOL    HW215792   2.245   3.126   9.235
 5017SOL     OW15793   2.983   3.640   7.679
 5017SOL    HW115794   2.911   3.597   7.725
 5017SOL    HW215795   3.006   3.579   7.609
 5018SOL     OW15796   3.491   3.242   7.535
 5018SOL    HW115797   3.450   3.327   7.521
 5018SOL    HW215798   3.422   3.178   7.517
 5019SOL     OW15799   2.328   3.599   7.769
 5019SOL    HW115800   2.370   3.657   7.833
 5019SOL    HW215801   2.400   3.569   7.713
 5020SOL     OW15802   3.263   1.970   7.880
 5020SOL    HW115803   3.253   1.945   7.788
 5020SOL    HW215804   3.358   1.976   7.892
 5021SOL     OW15805   2.117   3.654   8.680
 5021SOL    HW115806   2.169   3.588   8.727
 5021SOL    HW215807   2.107   3.618   8.592
 5022SOL     OW15808   2.800   3.560   8.347
 5022SOL    HW115809   2.877   3.508   8.368
 5022SOL    HW215810   2.756   3.511   8.278
 5023SOL     OW15811   3.398   2.087   9.173
 5023SOL    HW115812   3.407   2.108   9.266
 5023SOL    HW215813   3.329   2.021   9.170
 5024SOL     OW15814   2.500   1.983   7.559
 5024SOL    HW115815   2.572   1.920   7.568
 5024SOL    HW215816   2.452   1.953   7.482
 5025SOL     OW15817   2.633   2.117   9.199
 5025SOL    HW115818   2.712   2.063   9.204
 5025SOL    HW215819   2.589   2.103   9.282
 5026SOL     OW15820   2.738   3.383   8.642
 5026SOL    HW115821   2.723   3.347   8.554
 5026SOL    HW215822   2.808   3.329   8.678
 5027SOL     OW15823   3.202   2.451   8.881
 5027SOL    HW115824   3.234   2.420   8.965
 5027SOL    HW215825   3.239   2.539   8.873
 5028SOL     OW15826   2.676   3.257   8.387
 5028SOL    HW115827   2.761   3.246   8.343
 5028SOL    HW215828   2.612   3.258   8.316
 5029SOL     OW15829   2.788   2.369   8.356
 5029SOL    HW115830   2.765   2.363   8.264
 5029SOL    HW215831   2.825   2.283   8.377
 5030SOL     OW15832   2.402   1.934   7.951
 5030SOL    HW115833   2.344   1.943   8.027
 5030SOL    HW215834   2.385   2.012   7.898
 5031SOL     OW15835   3.290   3.060   7.489
 5031SOL    HW115836   3.321   2.984   7.539
 5031SOL    HW215837   3.205   3.080   7.527
 5032SOL     OW15838   2.798   2.110   7.906
 5032SOL    HW115839   2.776   2.149   7.821
 5032SOL    HW215840   2.893   2.120   7.914
 5033SOL     OW15841   2.942   2.543   8.903
 5033SOL    HW115842   2.876   2.473   8.909
 5033SOL    HW215843   3.026   2.496   8.898
 5034SOL     OW15844   3.086   3.432   8.242
 5034SOL    HW115845   3.103   3.499   8.176
 5034SOL    HW215846   3.154   3.445   8.307
 5035SOL     OW15847   2.328   3.012   8.182
 5035SOL    HW115848   2.259   2.993   8.245
 5035SOL    HW215849   2.289   2.994   8.097
 5036SOL     OW15850   3.132   3.656   8.055
 5036SOL    HW115851   3.177   3.717   7.998
 5036SOL    HW215852   3.066   3.710   8.100
 5037SOL     OW15853   2.886   2.404   7.468
 5037SOL    HW115854   2.836   2.483   7.449
 5037SOL    HW215855   2.948   2.431   7.536
 5038SOL     OW15856   1.945   2.425   8.827
 5038SOL    HW115857   2.034   2.393   8.844
 5038SOL    HW215858   1.931   2.492   8.894
 5039SOL     OW15859   2.735   2.316   8.093
 5039SOL    HW115860   2.699   2.382   8.034
 5039SOL    HW215861   2.755   2.241   8.036
 5040SOL     OW15862   2.875   1.914   8.201
 5040SOL    HW115863   2.819   1.905   8.124
 5040SOL    HW215864   2.854   1.839   8.255
 5041SOL     OW15865   3.298   3.025   8.305
 5041SOL    HW115866   3.230   2.958   8.305
 5041SOL    HW215867   3.321   3.036   8.213
 5042SOL     OW15868   3.329   2.467   8.426
 5042SOL    HW115869   3.278   2.385   8.430
 5042SOL    HW215870   3.389   2.461   8.500
 5043SOL     OW15871   3.709   2.679   7.830
 5043SOL    HW115872   3.764   2.627   7.889
 5043SOL    HW215873   3.680   2.616   7.764
 5044SOL     OW15874   2.353   3.280   7.606
 5044SOL    HW115875   2.278   3.250   7.658
 5044SOL    HW215876   2.337   3.243   7.519
 5045SOL     OW15877   3.532   3.127   8.093
 5045SOL    HW115878   3.627   3.130   8.108
 5045SOL    HW215879   3.501   3.215   8.115
 5046SOL     OW15880   3.256   2.434   7.519
 5046SOL    HW115881   3.194   2.415   7.590
 5046SOL    HW215882   3.340   2.401   7.551
 5047SOL     OW15883   3.614   3.101   9.022
 5047SOL    HW115884   3.702   3.061   9.019
 5047SOL    HW215885   3.630   3.190   9.051
 5048SOL     OW15886   2.921   3.217   8.783
 5048SOL    HW115887   2.847   3.186   8.833
 5048SOL    HW215888   2.997   3.175   8.823
 5049SOL     OW15889   3.469   3.488   9.101
 5049SOL    HW115890   3.464   3.522   9.012
 5049SOL    HW215891   3.552   3.440   9.104
 5050SOL     OW15892   2.992   3.067   8.554
 5050SOL    HW115893   2.931   3.102   8.619
 5050SOL    HW215894   2.957   3.096   8.470
 5051SOL     OW15895   3.491   2.960   8.526
 5051SOL    HW115896   3.486   3.022   8.599
 5051SOL    HW215897   3.411   2.977   8.476
 5052SOL     OW15898   2.786   1.956   8.845
 5052SOL    HW115899   2.808   1.939   8.753
 5052SOL    HW215900   2.865   1.997   8.881
 5053SOL     OW15901   2.846   2.976   9.169
 5053SOL    HW115902   2.754   2.992   9.190
 5053SOL    HW215903   2.845   2.898   9.113
 5054SOL     OW15904   2.569   2.926   7.815
 5054SOL    HW115905   2.562   2.920   7.910
 5054SOL    HW215906   2.643   2.869   7.793
 5055SOL     OW15907   2.276   2.707   8.698
 5055SOL    HW115908   2.345   2.717   8.764
 5055SOL    HW215909   2.245   2.617   8.710
 5056SOL     OW15910   3.132   2.239   8.723
 5056SOL    HW115911   3.163   2.317   8.769
 5056SOL    HW215912   3.042   2.259   8.699
 5057SOL     OW15913   1.932   3.435   8.800
 5057SOL    HW115914   1.901   3.508   8.746
 5057SOL    HW215915   2.027   3.440   8.795
 5058SOL     OW15916   2.213   2.968   7.937
 5058SOL    HW115917   2.219   3.046   7.881
 5058SOL    HW215918   2.209   2.895   7.875
 5059SOL     OW15919   3.110   3.210   7.837
 5059SOL    HW115920   3.166   3.282   7.868
 5059SOL    HW215921   3.023   3.231   7.871
 5060SOL     OW15922   3.142   3.319   8.594
 5060SOL    HW115923   3.197   3.321   8.672
 5060SOL    HW215924   3.087   3.241   8.605
 5061SOL     OW15925   3.444   2.485   7.926
 5061SOL    HW115926   3.397   2.538   7.991
 5061SOL    HW215927   3.488   2.550   7.870
 5062SOL     OW15928   2.209   3.389   8.764
 5062SOL    HW115929   2.196   3.346   8.679
 5062SOL    HW215930   2.303   3.401   8.770
 5063SOL     OW15931   3.463   2.641   9.130
 5063SOL    HW115932   3.376   2.681   9.122
 5063SOL    HW215933   3.515   2.682   9.061
 5064SOL     OW15934   2.866   1.979   9.207
 5064SOL    HW115935   2.918   2.054   9.175
 5064SOL    HW215936   2.915   1.902   9.178
 5065SOL     OW15937   2.358   1.904   9.202
 5065SOL    HW115938   2.317   1.852   9.133
 5065SOL    HW215939   2.309   1.986   9.202
 5066SOL     OW15940   2.434   2.739   8.473
 5066SOL    HW115941   2.482   2.822   8.469
 5066SOL    HW215942   2.386   2.743   8.555
 5067SOL     OW15943   3.219   2.721   8.478
 5067SOL    HW115944   3.135   2.711   8.434
 5067SOL    HW215945   3.260   2.634   8.473
 5068SOL     OW15946   3.069   2.390   7.716
 5068SOL    HW115947   3.074   2.312   7.770
 5068SOL    HW215948   3.033   2.458   7.773
 5069SOL     OW15949   1.910   3.173   8.724
 5069SOL    HW115950   1.941   3.119   8.797
 5069SOL    HW215951   1.915   3.263   8.757
 5070SOL     OW15952   2.641   2.553   8.533
 5070SOL    HW115953   2.666   2.493   8.463
 5070SOL    HW215954   2.569   2.604   8.496
 5071SOL     OW15955   3.596   2.822   9.300
 5071SOL    HW115956   3.550   2.761   9.242
 5071SOL    HW215957   3.537   2.834   9.374
 5072SOL     OW15958   3.478   2.236   7.815
 5072SOL    HW115959   3.505   2.172   7.881
 5072SOL    HW215960   3.455   2.314   7.865
 5073SOL     OW15961   2.902   2.621   8.408
 5073SOL    HW115962   2.895   2.646   8.500
 5073SOL    HW215963   2.863   2.534   8.404
 5074SOL     OW15964   2.844   3.428   9.164
 5074SOL    HW115965   2.829   3.472   9.081
 5074SOL    HW215966   2.887   3.346   9.141
 5075SOL     OW15967   3.717   3.369   9.054
 5075SOL    HW115968   3.735   3.395   8.963
 5075SOL    HW215969   3.798   3.388   9.100
 5076SOL     OW15970   2.224   2.770   9.245
 5076SOL    HW115971   2.295   2.801   9.302
 5076SOL    HW215972   2.268   2.719   9.178
 5077SOL     OW15973   3.392   2.135   7.575
 5077SOL    HW115974   3.327   2.070   7.601
 5077SOL    HW215975   3.425   2.171   7.658
 5078SOL     OW15976   3.154   2.689   7.479
 5078SOL    HW115977   3.197   2.603   7.483
 5078SOL    HW215978   3.186   2.727   7.398
 5079SOL     OW15979   2.926   3.198   8.301
 5079SOL    HW115980   2.930   3.125   8.239
 5079SOL    HW215981   2.989   3.261   8.266
 5080SOL     OW15982   2.175   2.672   8.391
 5080SOL    HW115983   2.266   2.701   8.390
 5080SOL    HW215984   2.176   2.590   8.439
 5081SOL     OW15985   2.996   2.240   9.127
 5081SOL    HW115986   2.949   2.293   9.192
 5081SOL    HW215987   3.084   2.278   9.125
 5082SOL     OW15988   3.025   2.066   8.918
 5082SOL    HW115989   3.013   2.128   8.989
 5082SOL    HW215990   3.064   2.117   8.847
 5083SOL     OW15991   1.867   3.183   7.642
 5083SOL    HW115992   1.780   3.197   7.605
 5083SOL    HW215993   1.864   3.093   7.676
 5084SOL     OW15994   1.952   3.649   8.386
 5084SOL    HW115995   1.922   3.570   8.342
 5084SOL    HW215996   2.042   3.661   8.354
 5085SOL     OW15997   2.359   3.436   8.354
 5085SOL    HW115998   2.428   3.498   8.378
 5085SOL    HW215999   2.403   3.372   8.298
 5086SOL     OW16000   2.854   2.670   8.674
 5086SOL    HW116001   2.891   2.630   8.753
 5086SOL    HW216002   2.773   2.621   8.659
 5087SOL     OW16003   1.900   2.415   8.560
 5087SOL    HW116004   1.965   2.355   8.523
 5087SOL    HW216005   1.922   2.418   8.653
 5088SOL     OW16006   3.238   2.802   9.106
 5088SOL    HW116007   3.260   2.895   9.105
 5088SOL    HW216008   3.236   2.776   9.014
 5089SOL     OW16009   2.715   2.453   7.796
 5089SOL    HW116010   2.707   2.377   7.739
 5089SOL    HW216011   2.641   2.508   7.773
 5090SOL     OW16012   3.504   2.464   8.635
 5090SOL    HW116013   3.494   2.404   8.709
 5090SOL    HW216014   3.591   2.443   8.600
 5091SOL     OW16015   2.107   3.414   9.176
 5091SOL    HW116016   2.083   3.478   9.243
 5091SOL    HW216017   2.107   3.330   9.223
 5092SOL     OW16018   2.790   3.541   8.916
 5092SOL    HW116019   2.765   3.507   8.830
 5092SOL    HW216020   2.786   3.636   8.905
 5093SOL     OW16021   2.007   3.004   8.924
 5093SOL    HW116022   2.010   2.950   9.003
 5093SOL    HW216023   2.020   2.943   8.852
 5094SOL     OW16024   3.189   2.910   8.671
 5094SOL    HW116025   3.212   2.846   8.603
 5094SOL    HW216026   3.118   2.961   8.633
 5095SOL     OW16027   3.172   2.719   7.755
 5095SOL    HW116028   3.098   2.686   7.806
 5095SOL    HW216029   3.147   2.705   7.664
 5096SOL     OW16030   3.634   3.606   8.598
 5096SOL    HW116031   3.693   3.633   8.528
 5096SOL    HW216032   3.609   3.517   8.577
 5097SOL     OW16033   3.103   3.595   8.562
 5097SOL    HW116034   3.185   3.615   8.516
 5097SOL    HW216035   3.108   3.501   8.580
 5098SOL     OW16036   1.946   3.128   8.460
 5098SOL    HW116037   1.932   3.141   8.554
 5098SOL    HW216038   1.872   3.075   8.433
 5099SOL     OW16039   2.539   3.527   9.176
 5099SOL    HW116040   2.486   3.607   9.172
 5099SOL    HW216041   2.604   3.538   9.106
 5100SOL     OW16042   3.581   2.007   7.958
 5100SOL    HW116043   3.654   1.993   7.898
 5100SOL    HW216044   3.565   1.922   7.998
 5101SOL     OW16045   3.252   3.430   7.932
 5101SOL    HW116046   3.313   3.462   7.865
 5101SOL    HW216047   3.204   3.507   7.961
 5102SOL     OW16048   1.999   3.658   9.291
 5102SOL    HW116049   1.948   3.593   9.339
 5102SOL    HW216050   2.045   3.707   9.358
 5103SOL     OW16051   3.140   2.787   8.119
 5103SOL    HW116052   3.213   2.726   8.125
 5103SOL    HW216053   3.173   2.860   8.066
 5104SOL     OW16054   2.678   3.137   8.877
 5104SOL    HW116055   2.650   3.175   8.961
 5104SOL    HW216056   2.607   3.158   8.817
 5105SOL     OW16057   2.533   3.482   7.604
 5105SOL    HW116058   2.544   3.493   7.509
 5105SOL    HW216059   2.479   3.403   7.612
 5106SOL     OW16060   3.490   3.588   8.839
 5106SOL    HW116061   3.539   3.596   8.758
 5106SOL    HW216062   3.476   3.679   8.867
 5107SOL     OW16063   3.702   2.035   8.416
 5107SOL    HW116064   3.732   1.948   8.387
 5107SOL    HW216065   3.616   2.045   8.375
 5108SOL     OW16066   3.069   3.468   7.480
 5108SOL    HW116067   3.059   3.377   7.507
 5108SOL    HW216068   3.004   3.480   7.410
 5109SOL     OW16069   2.689   2.871   8.821
 5109SOL    HW116070   2.736   2.861   8.738
 5109SOL    HW216071   2.691   2.965   8.838
 5110SOL     OW16072   2.780   2.777   7.737
 5110SOL    HW116073   2.842   2.808   7.671
 5110SOL    HW216074   2.827   2.708   7.784
 5111SOL     OW16075   3.354   3.487   7.490
 5111SOL    HW116076   3.260   3.481   7.477
 5111SOL    HW216077   3.391   3.493   7.402
 5112SOL     OW16078   2.231   3.164   8.940
 5112SOL    HW116079   2.218   3.242   8.885
 5112SOL    HW216080   2.154   3.110   8.925
 5113SOL     OW16081   3.473   3.145   8.729
 5113SOL    HW116082   3.532   3.134   8.804
 5113SOL    HW216083   3.413   3.214   8.755
 5114SOL     OW16084   2.915   2.969   8.155
 5114SOL    HW116085   2.844   2.918   8.194
 5114SOL    HW216086   2.976   2.903   8.122
 5115SOL     OW16087   2.881   2.101   8.414
 5115SOL    HW116088   2.878   2.053   8.331
 5115SOL    HW216089   2.879   2.033   8.481
 5116SOL     OW16090   2.465   3.350   7.929
 5116SOL    HW116091   2.508   3.300   7.861
 5116SOL    HW216092   2.396   3.399   7.884
 5117SOL     OW16093   3.583   2.254   8.828
 5117SOL    HW116094   3.655   2.317   8.827
 5117SOL    HW216095   3.613   2.183   8.772
 5118SOL     OW16096   2.121   3.207   7.736
 5118SOL    HW116097   2.028   3.205   7.713
 5118SOL    HW216098   2.123   3.244   7.824
 5119SOL     OW16099   1.976   2.882   9.169
 5119SOL    HW116100   1.898   2.859   9.221
 5119SOL    HW216101   2.049   2.841   9.216
 5120SOL     OW16102   2.545   2.045   8.944
 5120SOL    HW116103   2.631   2.024   8.907
 5120SOL    HW216104   2.564   2.078   9.032
 5121SOL     OW16105   1.880   2.235   7.489
 5121SOL    HW116106   1.804   2.190   7.452
 5121SOL    HW216107   1.920   2.279   7.414
 5122SOL     OW16108   3.292   2.721   8.849
 5122SOL    HW116109   3.243   2.780   8.793
 5122SOL    HW216110   3.382   2.723   8.814
 5123SOL     OW16111   3.041   3.202   7.565
 5123SOL    HW116112   2.951   3.170   7.568
 5123SOL    HW216113   3.070   3.202   7.656
 5124SOL     OW16114   2.487   2.701   8.872
 5124SOL    HW116115   2.543   2.777   8.860
 5124SOL    HW216116   2.548   2.628   8.881
 5125SOL     OW16117   3.346   3.638   8.426
 5125SOL    HW116118   3.370   3.697   8.355
 5125SOL    HW216119   3.428   3.620   8.470
 5126SOL     OW16120   3.333   3.063   9.080
 5126SOL    HW116121   3.321   3.076   9.174
 5126SOL    HW216122   3.426   3.077   9.066
 5127SOL     OW16123   2.242   3.601   9.012
 5127SOL    HW116124   2.157   3.642   8.998
 5127SOL    HW216125   2.222   3.518   9.054
 5128SOL     OW16126   3.532   2.743   8.704
 5128SOL    HW116127   3.525   2.658   8.661
 5128SOL    HW216128   3.522   2.806   8.632
 5129SOL     OW16129   3.078   2.180   7.907
 5129SOL    HW116130   3.142   2.110   7.898
 5129SOL    HW216131   3.108   2.230   7.983
 5130SOL     OW16132   2.513   2.647   8.110
 5130SOL    HW116133   2.536   2.738   8.093
 5130SOL    HW216134   2.425   2.637   8.073
 5131SOL     OW16135   3.625   2.223   9.098
 5131SOL    HW116136   3.608   2.238   9.005
 5131SOL    HW216137   3.553   2.166   9.127
 5132SOL     OW16138   3.607   2.796   8.960
 5132SOL    HW116139   3.604   2.890   8.973
 5132SOL    HW216140   3.592   2.783   8.867
 5133SOL     OW16141   2.722   3.229   7.480
 5133SOL    HW116142   2.686   3.256   7.565
 5133SOL    HW216143   2.743   3.311   7.435
 5134SOL     OW16144   2.522   3.654   8.393
 5134SOL    HW116145   2.502   3.745   8.370
 5134SOL    HW216146   2.617   3.647   8.386
 5135SOL     OW16147   2.730   2.830   8.304
 5135SOL    HW116148   2.776   2.755   8.341
 5135SOL    HW216149   2.697   2.878   8.380
 5136SOL     OW16150   2.944   2.853   7.537
 5136SOL    HW116151   2.921   2.901   7.457
 5136SOL    HW216152   3.017   2.797   7.511
 5137SOL     OW16153   3.717   3.417   8.293
 5137SOL    HW116154   3.639   3.405   8.238
 5137SOL    HW216155   3.710   3.349   8.360
 5138SOL     OW16156   2.087   3.165   9.304
 5138SOL    HW116157   2.017   3.107   9.274
 5138SOL    HW216158   2.068   3.179   9.397
 5139SOL     OW16159   1.946   3.097   8.113
 5139SOL    HW116160   1.948   3.047   8.195
 5139SOL    HW216161   2.013   3.056   8.059
 5140SOL     OW16162   2.542   3.265   9.074
 5140SOL    HW116163   2.462   3.222   9.105
 5140SOL    HW216164   2.538   3.353   9.112
 5141SOL     OW16165   3.675   2.046   8.686
 5141SOL    HW116166   3.684   1.952   8.700
 5141SOL    HW216167   3.685   2.058   8.592
 5142SOL     OW16168   3.562   3.352   8.546
 5142SOL    HW116169   3.481   3.328   8.500
 5142SOL    HW216170   3.574   3.282   8.610
 5143SOL     OW16171   2.688   3.440   8.126
 5143SOL    HW116172   2.677   3.490   8.045
 5143SOL    HW216173   2.612   3.383   8.130
 5144SOL     OW16174   3.294   2.086   8.566
 5144SOL    HW116175   3.320   2.007   8.612
 5144SOL    HW216176   3.243   2.136   8.629
 5145SOL     OW16177   2.871   1.881   8.590
 5145SOL    HW116178   2.818   1.810   8.553
 5145SOL    HW216179   2.960   1.844   8.593
 5146SOL     OW16180   2.634   3.195   7.761
 5146SOL    HW116181   2.603   3.105   7.766
 5146SOL    HW216182   2.716   3.195   7.811
 5147SOL     OW16183   2.482   3.419   8.732
 5147SOL    HW116184   2.485   3.501   8.783
 5147SOL    HW216185   2.569   3.411   8.695
 5148SOL     OW16186   3.214   1.916   7.613
 5148SOL    HW116187   3.241   1.852   7.546
 5148SOL    HW216188   3.127   1.886   7.640
 5149SOL     OW16189   3.159   2.322   8.129
 5149SOL    HW116190   3.106   2.402   8.137
 5149SOL    HW216191   3.155   2.283   8.217
 5150SOL     OW16192   3.449   2.065   8.325
 5150SOL    HW116193   3.387   2.084   8.396
 5150SOL    HW216194   3.448   2.143   8.270
 5151SOL     OW16195   1.905   2.933   7.754
 5151SOL    HW116196   1.999   2.925   7.738
 5151SOL    HW216197   1.877   2.844   7.777
 5152SOL     OW16198   2.745   3.514   7.791
 5152SOL    HW116199   2.673   3.497   7.731
 5152SOL    HW216200   2.716   3.590   7.842
 5153SOL     OW16201   2.063   2.525   9.418
 5153SOL    HW116202   1.978   2.500   9.455
 5153SOL    HW216203   2.081   2.457   9.353
 5154SOL     OW16204   1.837   2.269   9.936
 5154SOL    HW116205   1.757   2.290   9.983
 5154SOL    HW216206   1.829   2.176   9.914
 5155SOL     OW16207   2.429   3.148  10.485
 5155SOL    HW116208   2.341   3.151  10.446
 5155SOL    HW216209   2.443   3.237  10.518
 5156SOL     OW16210   3.422   3.374  10.016
 5156SOL    HW116211   3.380   3.354  10.100
 5156SOL    HW216212   3.351   3.378   9.953
 5157SOL     OW16213   2.992   2.560  10.011
 5157SOL    HW116214   3.041   2.641   9.996
 5157SOL    HW216215   2.949   2.574  10.096
 5158SOL     OW16216   3.629   2.468   9.539
 5158SOL    HW116217   3.608   2.460   9.446
 5158SOL    HW216218   3.593   2.389   9.579
 5159SOL     OW16219   2.618   3.005  10.350
 5159SOL    HW116220   2.549   3.039  10.406
 5159SOL    HW216221   2.653   3.081  10.305
 5160SOL     OW16222   2.691   2.674   0.029
 5160SOL    HW116223   2.719   2.718   0.110
 5160SOL    HW216224   2.743   2.714  11.060
 5161SOL     OW16225   2.554   2.884   9.956
 5161SOL    HW116226   2.616   2.864  10.026
 5161SOL    HW216227   2.482   2.931  10.000
 5162SOL     OW16228   2.194   3.287  10.377
 5162SOL    HW116229   2.120   3.251  10.328
 5162SOL    HW216230   2.242   3.338  10.312
 5163SOL     OW16231   3.326   3.361  10.659
 5163SOL    HW116232   3.380   3.439  10.668
 5163SOL    HW216233   3.272   3.361  10.739
 5164SOL     OW16234   3.474   2.310  10.050
 5164SOL    HW116235   3.399   2.334   9.996
 5164SOL    HW216236   3.491   2.388  10.103
 5165SOL     OW16237   2.082   3.576   9.783
 5165SOL    HW116238   2.103   3.652   9.836
 5165SOL    HW216239   2.154   3.569   9.720
 5166SOL     OW16240   2.093   3.303   9.845
 5166SOL    HW116241   2.075   3.397   9.849
 5166SOL    HW216242   2.031   3.265   9.908
 5167SOL     OW16243   2.118   2.956  10.200
 5167SOL    HW116244   2.114   2.869  10.239
 5167SOL    HW216245   2.060   3.010  10.254
 5168SOL     OW16246   2.473   3.651  10.739
 5168SOL    HW116247   2.393   3.632  10.788
 5168SOL    HW216248   2.496   3.741  10.764
 5169SOL     OW16249   2.443   2.853   9.436
 5169SOL    HW116250   2.491   2.901   9.368
 5169SOL    HW216251   2.482   2.883   9.518
 5170SOL     OW16252   3.450   1.979  10.778
 5170SOL    HW116253   3.465   2.059  10.728
 5170SOL    HW216254   3.455   2.006  10.870
 5171SOL     OW16255   1.969   2.509   9.868
 5171SOL    HW116256   1.933   2.423   9.893
 5171SOL    HW216257   1.969   2.559   9.950
 5172SOL     OW16258   3.704   3.622   9.645
 5172SOL    HW116259   3.766   3.593   9.711
 5172SOL    HW216260   3.728   3.712   9.626
 5173SOL     OW16261   1.894   3.457   9.434
 5173SOL    HW116262   1.875   3.365   9.454
 5173SOL    HW216263   1.870   3.505   9.513
 5174SOL     OW16264   3.551   2.781   9.951
 5174SOL    HW116265   3.635   2.740   9.931
 5174SOL    HW216266   3.530   2.830   9.872
 5175SOL     OW16267   3.508   2.969   9.739
 5175SOL    HW116268   3.593   2.975   9.697
 5175SOL    HW216269   3.512   3.030   9.813
 5176SOL     OW16270   1.995   2.603  10.891
 5176SOL    HW116271   2.025   2.602  10.982
 5176SOL    HW216272   1.937   2.679  10.886
 5177SOL     OW16273   2.475   3.247  10.046
 5177SOL    HW116274   2.429   3.164  10.055
 5177SOL    HW216275   2.460   3.274   9.955
 5178SOL     OW16276   3.157   3.099  10.752
 5178SOL    HW116277   3.181   3.039  10.682
 5178SOL    HW216278   3.213   3.075  10.825
 5179SOL     OW16279   2.674   1.862   9.817
 5179SOL    HW116280   2.714   1.947   9.797
 5179SOL    HW216281   2.580   1.881   9.825
 5180SOL     OW16282   2.042   2.838  10.572
 5180SOL    HW116283   2.127   2.795  10.565
 5180SOL    HW216284   1.979   2.775  10.537
 5181SOL     OW16285   3.394   2.855   9.508
 5181SOL    HW116286   3.324   2.798   9.539
 5181SOL    HW216287   3.434   2.889   9.588
 5182SOL     OW16288   3.058   3.668  10.927
 5182SOL    HW116289   3.057   3.731  10.855
 5182SOL    HW216290   3.066   3.583  10.884
 5183SOL     OW16291   3.329   3.282  10.261
 5183SOL    HW116292   3.260   3.297  10.326
 5183SOL    HW216293   3.316   3.191  10.234
 5184SOL     OW16294   3.521   3.600   9.888
 5184SOL    HW116295   3.500   3.571   9.799
 5184SOL    HW216296   3.496   3.526   9.944
 5185SOL     OW16297   2.519   2.640   9.606
 5185SOL    HW116298   2.514   2.693   9.526
 5185SOL    HW216299   2.432   2.648   9.645
 5186SOL     OW16300   3.141   2.214  10.243
 5186SOL    HW116301   3.052   2.180  10.251
 5186SOL    HW216302   3.192   2.160  10.304
 5187SOL     OW16303   3.443   3.532   9.619
 5187SOL    HW116304   3.533   3.564   9.612
 5187SOL    HW216305   3.417   3.515   9.529
 5188SOL     OW16306   2.830   2.757  10.902
 5188SOL    HW116307   2.873   2.682  10.860
 5188SOL    HW216308   2.781   2.799  10.832
 5189SOL     OW16309   2.860   2.270  10.547
 5189SOL    HW116310   2.778   2.303  10.584
 5189SOL    HW216311   2.834   2.230  10.464
 5190SOL     OW16312   2.920   2.565   9.736
 5190SOL    HW116313   2.932   2.558   9.831
 5190SOL    HW216314   2.838   2.517   9.719
 5191SOL     OW16315   1.951   2.686  10.083
 5191SOL    HW116316   2.032   2.681  10.133
 5191SOL    HW216317   1.905   2.761  10.119
 5192SOL     OW16318   1.990   3.705  10.897
 5192SOL    HW116319   1.972   3.670  10.984
 5192SOL    HW216320   1.905   3.706  10.853
 5193SOL     OW16321   2.755   2.208   9.504
 5193SOL    HW116322   2.795   2.270   9.443
 5193SOL    HW216323   2.764   2.123   9.462
 5194SOL     OW16324   3.239   3.004   9.852
 5194SOL    HW116325   3.317   2.991   9.799
 5194SOL    HW216326   3.186   3.066   9.801
 5195SOL     OW16327   2.869   3.307   9.782
 5195SOL    HW116328   2.830   3.380   9.733
 5195SOL    HW216329   2.852   3.328   9.874
 5196SOL     OW16330   2.216   3.670  10.171
 5196SOL    HW116331   2.260   3.585  10.179
 5196SOL    HW216332   2.285   3.734  10.190
 5197SOL     OW16333   3.660   2.921  10.178
 5197SOL    HW116334   3.605   2.902  10.102
 5197SOL    HW216335   3.599   2.926  10.251
 5198SOL     OW16336   3.089   3.400  10.824
 5198SOL    HW116337   3.098   3.312  10.861
 5198SOL    HW216338   3.028   3.390  10.752
 5199SOL     OW16339   2.189   2.808   9.562
 5199SOL    HW116340   2.267   2.830   9.511
 5199SOL    HW216341   2.150   2.735   9.514
 5200SOL     OW16342   3.340   2.603  10.037
 5200SOL    HW116343   3.330   2.560  10.122
 5200SOL    HW216344   3.417   2.659  10.047
 5201SOL     OW16345   2.314   3.130  11.053
 5201SOL    HW116346   2.286   3.140  10.962
 5201SOL    HW216347   2.249   3.071  11.091
 5202SOL     OW16348   2.983   3.640   9.541
 5202SOL    HW116349   2.911   3.597   9.587
 5202SOL    HW216350   3.006   3.579   9.471
 5203SOL     OW16351   3.491   3.242   9.397
 5203SOL    HW116352   3.450   3.327   9.382
 5203SOL    HW216353   3.422   3.178   9.379
 5204SOL     OW16354   2.328   3.599   9.631
 5204SOL    HW116355   2.370   3.657   9.695
 5204SOL    HW216356   2.400   3.569   9.575
 5205SOL     OW16357   3.263   1.970   9.742
 5205SOL    HW116358   3.252   1.945   9.650
 5205SOL    HW216359   3.358   1.976   9.754
 5206SOL     OW16360   2.117   3.654  10.543
 5206SOL    HW116361   2.168   3.591  10.593
 5206SOL    HW216362   2.108   3.616  10.456
 5207SOL     OW16363   2.800   3.560  10.210
 5207SOL    HW116364   2.878   3.509  10.229
 5207SOL    HW216365   2.756   3.511  10.141
 5208SOL     OW16366   2.505   1.986   9.417
 5208SOL    HW116367   2.567   1.916   9.436
 5208SOL    HW216368   2.449   1.951   9.347
 5209SOL     OW16369   2.625   2.145  11.048
 5209SOL    HW116370   2.690   2.087  11.088
 5209SOL    HW216371   2.559   2.157   0.016
 5210SOL     OW16372   2.737   3.383  10.504
 5210SOL    HW116373   2.722   3.348  10.416
 5210SOL    HW216374   2.810   3.331  10.538
 5211SOL     OW16375   3.200   2.457  10.756
 5211SOL    HW116376   3.253   2.433  10.831
 5211SOL    HW216377   3.231   2.543  10.731
 5212SOL     OW16378   2.677   3.257  10.249
 5212SOL    HW116379   2.761   3.246  10.204
 5212SOL    HW216380   2.612   3.258  10.178
 5213SOL     OW16381   2.785   2.366  10.219
 5213SOL    HW116382   2.770   2.362  10.124
 5213SOL    HW216383   2.822   2.281  10.241
 5214SOL     OW16384   2.405   1.932   9.817
 5214SOL    HW116385   2.352   1.948   9.894
 5214SOL    HW216386   2.401   2.014   9.767
 5215SOL     OW16387   3.290   3.060   9.351
 5215SOL    HW116388   3.321   2.984   9.401
 5215SOL    HW216389   3.205   3.080   9.389
 5216SOL     OW16390   2.798   2.108   9.767
 5216SOL    HW116391   2.774   2.148   9.684
 5216SOL    HW216392   2.893   2.119   9.772
 5217SOL     OW16393   2.929   2.534  10.766
 5217SOL    HW116394   2.880   2.465  10.811
 5217SOL    HW216395   3.019   2.501  10.764
 5218SOL     OW16396   3.085   3.432  10.104
 5218SOL    HW116397   3.102   3.499  10.037
 5218SOL    HW216398   3.154   3.446  10.169
 5219SOL     OW16399   2.329   3.012  10.044
 5219SOL    HW116400   2.259   2.995  10.107
 5219SOL    HW216401   2.290   2.995   9.959
 5220SOL     OW16402   3.131   3.656   9.917
 5220SOL    HW116403   3.177   3.717   9.860
 5220SOL    HW216404   3.066   3.710   9.962
 5221SOL     OW16405   2.886   2.405   9.330
 5221SOL    HW116406   2.837   2.485   9.311
 5221SOL    HW216407   2.949   2.430   9.398
 5222SOL     OW16408   1.958   2.415  10.692
 5222SOL    HW116409   2.043   2.376  10.714
 5222SOL    HW216410   1.946   2.486  10.755
 5223SOL     OW16411   2.751   2.313   9.952
 5223SOL    HW116412   2.716   2.377   9.890
 5223SOL    HW216413   2.768   2.235   9.899
 5224SOL     OW16414   2.874   1.915  10.063
 5224SOL    HW116415   2.819   1.905   9.985
 5224SOL    HW216416   2.854   1.839  10.117
 5225SOL     OW16417   3.298   3.025  10.167
 5225SOL    HW116418   3.230   2.957  10.166
 5225SOL    HW216419   3.322   3.036  10.075
 5226SOL     OW16420   3.328   2.468  10.288
 5226SOL    HW116421   3.279   2.386  10.290
 5226SOL    HW216422   3.389   2.462  10.362
 5227SOL     OW16423   3.709   2.679   9.692
 5227SOL    HW116424   3.764   2.627   9.751
 5227SOL    HW216425   3.680   2.616   9.626
 5228SOL     OW16426   2.353   3.279   9.468
 5228SOL    HW116427   2.278   3.250   9.520
 5228SOL    HW216428   2.337   3.243   9.381
 5229SOL     OW16429   3.532   3.127   9.956
 5229SOL    HW116430   3.626   3.130   9.970
 5229SOL    HW216431   3.501   3.215   9.977
 5230SOL     OW16432   3.256   2.434   9.381
 5230SOL    HW116433   3.195   2.415   9.452
 5230SOL    HW216434   3.340   2.401   9.413
 5231SOL     OW16435   3.621   3.091  10.869
 5231SOL    HW116436   3.712   3.062  10.871
 5231SOL    HW216437   3.622   3.178  10.909
 5232SOL     OW16438   2.926   3.216  10.650
 5232SOL    HW116439   2.848   3.183  10.694
 5232SOL    HW216440   2.998   3.168  10.690
 5233SOL     OW16441   2.991   3.069  10.416
 5233SOL    HW116442   2.925   3.102  10.477
 5233SOL    HW216443   2.960   3.096  10.330
 5234SOL     OW16444   3.491   2.961  10.388
 5234SOL    HW116445   3.487   3.022  10.461
 5234SOL    HW216446   3.411   2.978  10.338
 5235SOL     OW16447   2.792   1.955  10.707
 5235SOL    HW116448   2.812   1.939  10.615
 5235SOL    HW216449   2.871   1.998  10.741
 5236SOL     OW16450   2.570   2.929   9.679
 5236SOL    HW116451   2.559   2.916   9.773
 5236SOL    HW216452   2.644   2.873   9.655
 5237SOL     OW16453   2.267   2.689  10.579
 5237SOL    HW116454   2.342   2.708  10.635
 5237SOL    HW216455   2.231   2.608  10.614
 5238SOL     OW16456   3.131   2.242  10.589
 5238SOL    HW116457   3.160   2.322  10.633
 5238SOL    HW216458   3.041   2.261  10.562
 5239SOL     OW16459   1.932   3.438  10.661
 5239SOL    HW116460   1.902   3.510  10.606
 5239SOL    HW216461   2.027   3.440  10.655
 5240SOL     OW16462   2.214   2.968   9.798
 5240SOL    HW116463   2.219   3.046   9.743
 5240SOL    HW216464   2.209   2.895   9.737
 5241SOL     OW16465   3.110   3.210   9.699
 5241SOL    HW116466   3.166   3.282   9.730
 5241SOL    HW216467   3.023   3.231   9.733
 5242SOL     OW16468   3.141   3.321  10.455
 5242SOL    HW116469   3.198   3.323  10.532
 5242SOL    HW216470   3.088   3.241  10.466
 5243SOL     OW16471   3.444   2.485   9.788
 5243SOL    HW116472   3.397   2.539   9.853
 5243SOL    HW216473   3.488   2.549   9.732
 5244SOL     OW16474   2.208   3.386  10.625
 5244SOL    HW116475   2.196   3.344  10.540
 5244SOL    HW216476   2.302   3.401  10.631
 5245SOL     OW16477   3.456   2.622  10.969
 5245SOL    HW116478   3.379   2.679  10.962
 5245SOL    HW216479   3.526   2.672  10.926
 5246SOL     OW16480   2.432   2.739  10.344
 5246SOL    HW116481   2.479   2.822  10.336
 5246SOL    HW216482   2.386   2.745  10.428
 5247SOL     OW16483   3.219   2.723  10.344
 5247SOL    HW116484   3.137   2.713  10.297
 5247SOL    HW216485   3.260   2.636  10.338
 5248SOL     OW16486   3.069   2.391   9.578
 5248SOL    HW116487   3.075   2.312   9.632
 5248SOL    HW216488   3.027   2.456   9.634
 5249SOL     OW16489   1.913   3.174  10.585
 5249SOL    HW116490   1.939   3.119  10.659
 5249SOL    HW216491   1.914   3.264  10.620
 5250SOL     OW16492   2.642   2.540  10.399
 5250SOL    HW116493   2.663   2.475  10.332
 5250SOL    HW216494   2.571   2.592  10.361
 5251SOL     OW16495   3.478   2.236   9.677
 5251SOL    HW116496   3.505   2.172   9.743
 5251SOL    HW216497   3.455   2.314   9.728
 5252SOL     OW16498   2.898   2.621  10.268
 5252SOL    HW116499   2.894   2.645  10.361
 5252SOL    HW216500   2.858   2.534  10.264
 5253SOL     OW16501   2.835   3.434  11.004
 5253SOL    HW116502   2.821   3.484  10.924
 5253SOL    HW216503   2.866   3.349  10.974
 5254SOL     OW16504   3.719   3.356  10.912
 5254SOL    HW116505   3.735   3.391  10.824
 5254SOL    HW216506   3.785   3.398  10.966
 5255SOL     OW16507   2.230   2.769  11.082
 5255SOL    HW116508   2.309   2.797   0.027
 5255SOL    HW216509   2.262   2.720  11.006
 5256SOL     OW16510   3.392   2.135   9.437
 5256SOL    HW116511   3.327   2.070   9.463
 5256SOL    HW216512   3.424   2.171   9.520
 5257SOL     OW16513   3.155   2.688   9.341
 5257SOL    HW116514   3.197   2.603   9.345
 5257SOL    HW216515   3.186   2.727   9.260
 5258SOL     OW16516   2.928   3.197  10.164
 5258SOL    HW116517   2.930   3.124  10.101
 5258SOL    HW216518   2.989   3.261  10.129
 5259SOL     OW16519   2.171   2.682  10.253
 5259SOL    HW116520   2.264   2.703  10.256
 5259SOL    HW216521   2.163   2.603  10.306
 5260SOL     OW16522   3.024   2.072  10.783
 5260SOL    HW116523   3.034   2.128  10.859
 5260SOL    HW216524   3.063   2.121  10.711
 5261SOL     OW16525   1.867   3.183   9.504
 5261SOL    HW116526   1.780   3.197   9.466
 5261SOL    HW216527   1.863   3.093   9.538
 5262SOL     OW16528   1.951   3.650  10.247
 5262SOL    HW116529   1.922   3.570  10.204
 5262SOL    HW216530   2.041   3.662  10.217
 5263SOL     OW16531   2.359   3.436  10.215
 5263SOL    HW116532   2.428   3.498  10.239
 5263SOL    HW216533   2.403   3.372  10.159
 5264SOL     OW16534   2.850   2.668  10.535
 5264SOL    HW116535   2.886   2.626  10.614
 5264SOL    HW216536   2.771   2.618  10.515
 5265SOL     OW16537   1.902   2.422  10.425
 5265SOL    HW116538   1.946   2.346  10.385
 5265SOL    HW216539   1.928   2.418  10.517
 5266SOL     OW16540   2.694   2.431   9.675
 5266SOL    HW116541   2.683   2.358   9.613
 5266SOL    HW216542   2.626   2.494   9.649
 5267SOL     OW16543   3.504   2.463  10.496
 5267SOL    HW116544   3.496   2.404  10.571
 5267SOL    HW216545   3.591   2.445  10.460
 5268SOL     OW16546   2.117   3.427  11.052
 5268SOL    HW116547   2.061   3.462   0.022
 5268SOL    HW216548   2.122   3.333  11.071
 5269SOL     OW16549   2.801   3.544  10.758
 5269SOL    HW116550   2.765   3.511  10.677
 5269SOL    HW216551   2.787   3.639  10.754
 5270SOL     OW16552   2.015   3.002  10.783
 5270SOL    HW116553   2.009   2.945  10.860
 5270SOL    HW216554   2.024   2.941  10.709
 5271SOL     OW16555   3.187   2.915  10.538
 5271SOL    HW116556   3.213   2.850  10.473
 5271SOL    HW216557   3.116   2.964  10.496
 5272SOL     OW16558   3.172   2.719   9.617
 5272SOL    HW116559   3.097   2.688   9.667
 5272SOL    HW216560   3.148   2.705   9.525
 5273SOL     OW16561   3.636   3.607  10.461
 5273SOL    HW116562   3.694   3.633  10.390
 5273SOL    HW216563   3.610   3.518  10.440
 5274SOL     OW16564   3.103   3.596  10.424
 5274SOL    HW116565   3.185   3.617  10.379
 5274SOL    HW216566   3.108   3.502  10.441
 5275SOL     OW16567   1.945   3.130  10.322
 5275SOL    HW116568   1.934   3.142  10.416
 5275SOL    HW216569   1.871   3.075  10.296
 5276SOL     OW16570   3.581   2.007   9.820
 5276SOL    HW116571   3.654   1.993   9.760
 5276SOL    HW216572   3.565   1.922   9.860
 5277SOL     OW16573   3.252   3.430   9.794
 5277SOL    HW116574   3.313   3.462   9.727
 5277SOL    HW216575   3.204   3.507   9.822
 5278SOL     OW16576   3.140   2.787   9.981
 5278SOL    HW116577   3.213   2.726   9.987
 5278SOL    HW216578   3.173   2.860   9.929
 5279SOL     OW16579   2.681   3.136  10.737
 5279SOL    HW116580   2.650   3.169  10.821
 5279SOL    HW216581   2.611   3.157  10.676
 5280SOL     OW16582   2.533   3.481   9.466
 5280SOL    HW116583   2.544   3.493   9.371
 5280SOL    HW216584   2.479   3.403   9.474
 5281SOL     OW16585   3.485   3.582  10.697
 5281SOL    HW116586   3.539   3.596  10.619
 5281SOL    HW216587   3.470   3.670  10.732
 5282SOL     OW16588   3.702   2.035  10.278
 5282SOL    HW116589   3.732   1.948  10.250
 5282SOL    HW216590   3.616   2.045  10.238
 5283SOL     OW16591   3.069   3.468   9.342
 5283SOL    HW116592   3.059   3.377   9.368
 5283SOL    HW216593   3.004   3.480   9.272
 5284SOL     OW16594   2.690   2.867  10.689
 5284SOL    HW116595   2.735   2.855  10.606
 5284SOL    HW216596   2.691   2.961  10.704
 5285SOL     OW16597   2.784   2.783   9.601
 5285SOL    HW116598   2.846   2.809   9.533
 5285SOL    HW216599   2.826   2.708   9.644
 5286SOL     OW16600   3.354   3.487   9.352
 5286SOL    HW116601   3.260   3.481   9.339
 5286SOL    HW216602   3.391   3.493   9.264
 5287SOL     OW16603   2.228   3.169  10.806
 5287SOL    HW116604   2.216   3.243  10.746
 5287SOL    HW216605   2.155   3.111  10.787
 5288SOL     OW16606   3.475   3.144  10.593
 5288SOL    HW116607   3.531   3.131  10.670
 5288SOL    HW216608   3.418   3.217  10.617
 5289SOL     OW16609   2.914   2.968  10.018
 5289SOL    HW116610   2.842   2.917  10.055
 5289SOL    HW216611   2.975   2.903   9.984
 5290SOL     OW16612   2.882   2.101  10.276
 5290SOL    HW116613   2.879   2.054  10.193
 5290SOL    HW216614   2.879   2.033  10.343
 5291SOL     OW16615   2.465   3.350   9.792
 5291SOL    HW116616   2.508   3.300   9.723
 5291SOL    HW216617   2.396   3.399   9.746
 5292SOL     OW16618   3.579   2.256  10.689
 5292SOL    HW116619   3.652   2.318  10.690
 5292SOL    HW216620   3.610   2.185  10.633
 5293SOL     OW16621   2.121   3.206   9.598
 5293SOL    HW116622   2.028   3.205   9.575
 5293SOL    HW216623   2.123   3.244   9.686
 5294SOL     OW16624   1.980   2.875  11.023
 5294SOL    HW116625   1.909   2.858  11.085
 5294SOL    HW216626   2.057   2.835  11.064
 5295SOL     OW16627   2.552   2.037  10.804
 5295SOL    HW116628   2.637   2.014  10.766
 5295SOL    HW216629   2.574   2.082  10.885
 5296SOL     OW16630   3.291   2.712  10.710
 5296SOL    HW116631   3.243   2.780  10.662
 5296SOL    HW216632   3.382   2.720  10.679
 5297SOL     OW16633   1.872   2.005   9.615
 5297SOL    HW116634   1.839   2.089   9.581
 5297SOL    HW216635   1.967   2.018   9.620
 5298SOL     OW16636   3.041   3.202   9.427
 5298SOL    HW116637   2.951   3.170   9.430
 5298SOL    HW216638   3.070   3.202   9.518
 5299SOL     OW16639   2.482   2.701  10.738
 5299SOL    HW116640   2.548   2.768  10.724
 5299SOL    HW216641   2.531   2.625  10.769
 5300SOL     OW16642   3.345   3.638  10.288
 5300SOL    HW116643   3.370   3.697  10.217
 5300SOL    HW216644   3.427   3.619  10.333
 5301SOL     OW16645   2.706   2.447  10.973
 5301SOL    HW116646   2.681   2.515  11.036
 5301SOL    HW216647   2.682   2.365  11.017
 5302SOL     OW16648   2.245   3.593  10.871
 5302SOL    HW116649   2.166   3.648  10.864
 5302SOL    HW216650   2.219   3.522  10.929
 5303SOL     OW16651   3.533   2.744  10.567
 5303SOL    HW116652   3.525   2.659  10.525
 5303SOL    HW216653   3.524   2.808  10.496
 5304SOL     OW16654   3.078   2.180   9.769
 5304SOL    HW116655   3.142   2.110   9.759
 5304SOL    HW216656   3.107   2.230   9.845
 5305SOL     OW16657   2.476   2.626   9.968
 5305SOL    HW116658   2.505   2.716   9.951
 5305SOL    HW216659   2.383   2.627   9.945
 5306SOL     OW16660   3.612   2.181  10.953
 5306SOL    HW116661   3.594   2.218  10.867
 5306SOL    HW216662   3.533   2.198  11.004
 5307SOL     OW16663   3.611   2.798  10.825
 5307SOL    HW116664   3.604   2.892  10.839
 5307SOL    HW216665   3.594   2.785  10.732
 5308SOL     OW16666   2.722   3.230   9.342
 5308SOL    HW116667   2.686   3.257   9.427
 5308SOL    HW216668   2.743   3.312   9.298
 5309SOL     OW16669   2.522   3.654  10.256
 5309SOL    HW116670   2.502   3.744  10.232
 5309SOL    HW216671   2.617   3.648  10.247
 5310SOL     OW16672   2.728   2.828  10.166
 5310SOL    HW116673   2.777   2.755  10.204
 5310SOL    HW216674   2.696   2.878  10.242
 5311SOL     OW16675   2.944   2.852   9.397
 5311SOL    HW116676   2.922   2.901   9.318
 5311SOL    HW216677   3.018   2.797   9.371
 5312SOL     OW16678   3.717   3.417  10.155
 5312SOL    HW116679   3.639   3.405  10.100
 5312SOL    HW216680   3.710   3.349  10.222
 5313SOL     OW16681   1.945   3.096   9.975
 5313SOL    HW116682   1.948   3.048  10.058
 5313SOL    HW216683   2.014   3.056   9.921
 5314SOL     OW16684   2.541   3.256  10.938
 5314SOL    HW116685   2.468   3.207  10.975
 5314SOL    HW216686   2.509   3.346  10.934
 5315SOL     OW16687   3.672   2.046  10.549
 5315SOL    HW116688   3.682   1.952  10.562
 5315SOL    HW216689   3.684   2.059  10.455
 5316SOL     OW16690   3.563   3.353  10.408
 5316SOL    HW116691   3.482   3.328  10.363
 5316SOL    HW216692   3.577   3.283  10.472
 5317SOL     OW16693   2.689   3.440   9.988
 5317SOL    HW116694   2.678   3.491   9.908
 5317SOL    HW216695   2.612   3.383   9.991
 5318SOL     OW16696   3.293   2.086  10.428
 5318SOL    HW116697   3.320   2.007  10.474
 5318SOL    HW216698   3.243   2.136  10.493
 5319SOL     OW16699   2.872   1.881  10.451
 5319SOL    HW116700   2.818   1.811  10.415
 5319SOL    HW216701   2.960   1.844  10.454
 5320SOL     OW16702   2.635   3.196   9.623
 5320SOL    HW116703   2.603   3.106   9.629
 5320SOL    HW216704   2.717   3.196   9.672
 5321SOL     OW16705   2.481   3.418  10.596
 5321SOL    HW116706   2.482   3.501  10.644
 5321SOL    HW216707   2.568   3.411  10.557
 5322SOL     OW16708   3.214   1.916   9.475
 5322SOL    HW116709   3.241   1.853   9.408
 5322SOL    HW216710   3.127   1.886   9.502
 5323SOL     OW16711   3.159   2.322   9.991
 5323SOL    HW116712   3.105   2.402   9.998
 5323SOL    HW216713   3.155   2.283  10.079
 5324SOL     OW16714   3.449   2.065  10.187
 5324SOL    HW116715   3.387   2.085  10.258
 5324SOL    HW216716   3.448   2.143  10.132
 5325SOL     OW16717   1.904   2.933   9.617
 5325SOL    HW116718   1.998   2.925   9.601
 5325SOL    HW216719   1.876   2.844   9.639
 5326SOL     OW16720   2.745   3.514   9.653
 5326SOL    HW116721   2.673   3.497   9.593
 5326SOL    HW216722   2.716   3.590   9.704
 5327SOL     OW16723   2.063   4.296   0.088
 5327SOL    HW116724   2.041   4.354   0.161
 5327SOL    HW216725   2.079   4.355   0.014
 5328SOL     OW16726   2.086   4.001   0.991
 5328SOL    HW116727   2.114   3.968   1.076
 5328SOL    HW216728   1.996   3.970   0.981
 5329SOL     OW16729   1.867   4.102   0.643
 5329SOL    HW116730   1.784   4.130   0.682
 5329SOL    HW216731   1.844   4.025   0.591
 5330SOL     OW16732   3.597   4.332   0.230
 5330SOL    HW116733   3.608   4.305   0.138
 5330SOL    HW216734   3.588   4.249   0.278
 5331SOL     OW16735   2.597   0.270   0.686
 5331SOL    HW116736   2.586   0.204   0.755
 5331SOL    HW216737   2.508   0.286   0.653
 5332SOL     OW16738   2.311   4.117   1.485
 5332SOL    HW116739   2.387   4.059   1.492
 5332SOL    HW216740   2.236   4.059   1.502
 5333SOL     OW16741   3.477   4.172   0.741
 5333SOL    HW116742   3.409   4.198   0.679
 5333SOL    HW216743   3.478   4.242   0.805
 5334SOL     OW16744   3.458   3.847   1.469
 5334SOL    HW116745   3.462   3.927   1.417
 5334SOL    HW216746   3.444   3.877   1.558
 5335SOL     OW16747   1.948   4.368   0.562
 5335SOL    HW116748   1.931   4.278   0.589
 5335SOL    HW216749   2.003   4.404   0.631
 5336SOL     OW16750   1.981   4.475   1.584
 5336SOL    HW116751   2.050   4.492   1.648
 5336SOL    HW216752   1.948   0.062   1.560
 5337SOL     OW16753   2.676   3.726   0.507
 5337SOL    HW116754   2.715   3.812   0.491
 5337SOL    HW216755   2.583   3.743   0.517
 5338SOL     OW16756   2.195   3.974   1.810
 5338SOL    HW116757   2.235   4.060   1.826
 5338SOL    HW216758   2.104   3.985   1.839
 5339SOL     OW16759   3.139   4.073   0.932
 5339SOL    HW116760   3.050   4.039   0.943
 5339SOL    HW216761   3.191   4.021   0.994
 5340SOL     OW16762   2.689   4.306   1.448
 5340SOL    HW116763   2.648   4.311   1.535
 5340SOL    HW216764   2.623   4.266   1.393
 5341SOL     OW16765   3.257   4.199   1.676
 5341SOL    HW116766   3.259   4.243   1.761
 5341SOL    HW216767   3.316   4.124   1.687
 5342SOL     OW16768   2.859   4.149   1.234
 5342SOL    HW116769   2.786   4.171   1.292
 5342SOL    HW216770   2.821   4.091   1.168
 5343SOL     OW16771   2.921   4.403   0.422
 5343SOL    HW116772   2.919   4.458   0.501
 5343SOL    HW216773   2.829   4.382   0.405
 5344SOL     OW16774   2.749   4.073   0.209
 5344SOL    HW116775   2.794   4.131   0.148
 5344SOL    HW216776   2.763   3.985   0.174
 5345SOL     OW16777   3.570   4.298   1.829
 5345SOL    HW116778   3.581   4.386   1.794
 5345SOL    HW216779   3.592   4.240   1.756
 5346SOL     OW16780   2.413   3.905   0.892
 5346SOL    HW116781   2.414   3.933   0.984
 5346SOL    HW216782   2.410   3.986   0.842
 5347SOL     OW16783   3.350   4.464   0.739
 5347SOL    HW116784   3.334   4.409   0.816
 5347SOL    HW216785   3.391   0.043   0.773
 5348SOL     OW16786   2.060   4.004   1.503
 5348SOL    HW116787   1.976   4.049   1.495
 5348SOL    HW216788   2.045   3.935   1.567
 5349SOL     OW16789   3.264   3.830   0.431
 5349SOL    HW116790   3.256   3.808   0.338
 5349SOL    HW216791   3.358   3.840   0.445
 5350SOL     OW16792   2.216   4.382   0.406
 5350SOL    HW116793   2.256   4.309   0.453
 5350SOL    HW216794   2.145   4.411   0.462
 5351SOL     OW16795   3.398   3.950   1.725
 5351SOL    HW116796   3.406   3.971   1.818
 5351SOL    HW216797   3.329   3.883   1.722
 5352SOL     OW16798   2.478   3.830   0.126
 5352SOL    HW116799   2.568   3.797   0.120
 5352SOL    HW216800   2.441   3.816   0.039
 5353SOL     OW16801   2.628   4.002   1.754
 5353SOL    HW116802   2.703   3.943   1.755
 5353SOL    HW216803   2.579   3.980   1.833
 5354SOL     OW16804   3.205   4.311   1.429
 5354SOL    HW116805   3.227   4.275   1.514
 5354SOL    HW216806   3.247   4.398   1.428
 5355SOL     OW16807   2.785   4.236   0.899
 5355SOL    HW116808   2.763   4.220   0.807
 5355SOL    HW216809   2.825   4.154   0.929
 5356SOL     OW16810   2.411   3.787   0.505
 5356SOL    HW116811   2.329   3.786   0.554
 5356SOL    HW216812   2.405   3.866   0.450
 5357SOL     OW16813   2.148   3.771   0.200
 5357SOL    HW116814   2.188   3.825   0.133
 5357SOL    HW216815   2.216   3.708   0.225
 5358SOL     OW16816   2.801   3.973   0.464
 5358SOL    HW116817   2.774   4.013   0.381
 5358SOL    HW216818   2.895   3.986   0.467
 5359SOL     OW16819   2.937   4.396   1.521
 5359SOL    HW116820   2.854   4.366   1.485
 5359SOL    HW216821   3.003   4.355   1.465
 5360SOL     OW16822   2.870   4.264   0.041
 5360SOL    HW116823   2.883   4.321  11.065
 5360SOL    HW216824   2.951   4.273   0.091
 5361SOL     OW16825   1.937   4.280   1.393
 5361SOL    HW116826   2.029   4.272   1.365
 5361SOL    HW216827   1.937   4.353   1.454
 5362SOL     OW16828   2.421   3.950   1.164
 5362SOL    HW116829   2.462   3.873   1.204
 5362SOL    HW216830   2.331   3.948   1.195
 5363SOL     OW16831   2.730   4.188   0.639
 5363SOL    HW116832   2.700   4.251   0.573
 5363SOL    HW216833   2.749   4.109   0.590
 5364SOL     OW16834   2.876   3.777   0.752
 5364SOL    HW116835   2.818   3.769   0.677
 5364SOL    HW216836   2.855   3.701   0.807
 5365SOL     OW16837   3.339   4.312   0.966
 5365SOL    HW116838   3.280   4.239   0.986
 5365SOL    HW216839   3.390   4.324   1.046
 5366SOL     OW16840   3.263   4.292   0.073
 5366SOL    HW116841   3.197   4.277   0.140
 5366SOL    HW216842   3.329   4.224   0.086
 5367SOL     OW16843   2.390   3.992   0.327
 5367SOL    HW116844   2.416   3.930   0.258
 5367SOL    HW216845   2.371   4.073   0.280
 5368SOL     OW16846   2.780   3.821   1.396
 5368SOL    HW116847   2.804   3.801   1.306
 5368SOL    HW216848   2.859   3.860   1.434
 5369SOL     OW16849   2.297   0.009   1.274
 5369SOL    HW116850   2.363   0.003   1.342
 5369SOL    HW216851   2.253   4.423   1.275
 5370SOL     OW16852   3.127   4.100   1.275
 5370SOL    HW116853   3.161   4.177   1.320
 5370SOL    HW216854   3.038   4.124   1.250
 5371SOL     OW16855   2.415   4.254   0.865
 5371SOL    HW116856   2.436   4.296   0.782
 5371SOL    HW216857   2.480   4.289   0.926
 5372SOL     OW16858   3.440   4.339   0.480
 5372SOL    HW116859   3.398   4.404   0.537
 5372SOL    HW216860   3.486   4.392   0.414
 5373SOL     OW16861   2.858   3.846   1.756
 5373SOL    HW116862   2.913   3.919   1.728
 5373SOL    HW216863   2.906   3.768   1.730
 5374SOL     OW16864   2.360   3.765   1.747
 5374SOL    HW116865   2.317   3.711   1.681
 5374SOL    HW216866   2.301   3.840   1.759
 5375SOL     OW16867   3.072   4.251   0.264
 5375SOL    HW116868   3.084   4.172   0.317
 5375SOL    HW216869   3.024   4.311   0.321
 5376SOL     OW16870   2.161   3.923   1.247
 5376SOL    HW116871   2.124   3.955   1.328
 5376SOL    HW216872   2.142   3.829   1.247
 5377SOL     OW16873   2.594   4.360   1.045
 5377SOL    HW116874   2.667   4.324   0.996
 5377SOL    HW216875   2.602   4.455   1.033
 5378SOL     OW16876   3.614   0.134   1.854
 5378SOL    HW116877   3.548   0.148   1.786
 5378SOL    HW216878   3.570   0.160   1.935
 5379SOL     OW16879   2.165   3.789   0.623
 5379SOL    HW116880   2.145   3.880   0.647
 5379SOL    HW216881   2.171   3.743   0.707
 5380SOL     OW16882   3.477   4.092   0.367
 5380SOL    HW116883   3.506   4.029   0.434
 5380SOL    HW216884   3.454   4.171   0.417
 5381SOL     OW16885   3.396   4.014   0.116
 5381SOL    HW116886   3.337   3.940   0.132
 5381SOL    HW216887   3.429   4.037   0.203
 5382SOL     OW16888   2.180   0.012   0.919
 5382SOL    HW116889   2.257   0.068   0.932
 5382SOL    HW216890   2.193   4.440   0.980
 5383SOL     OW16891   2.198   4.240   1.021
 5383SOL    HW116892   2.159   4.155   1.002
 5383SOL    HW216893   2.272   4.247   0.961
 5384SOL     OW16894   2.999   4.093   1.686
 5384SOL    HW116895   2.947   4.153   1.739
 5384SOL    HW216896   3.084   4.138   1.677
 5385SOL     OW16897   3.022   3.926   1.469
 5385SOL    HW116898   3.013   3.988   1.542
 5385SOL    HW216899   3.062   3.979   1.399
 5386SOL     OW16900   1.898   4.272   1.115
 5386SOL    HW116901   1.979   4.255   1.067
 5386SOL    HW216902   1.925   4.274   1.207
 5387SOL     OW16903   2.055   4.243   1.717
 5387SOL    HW116904   2.111   4.198   1.654
 5387SOL    HW216905   2.002   4.302   1.664
 5388SOL     OW16906   2.676   4.309   0.328
 5388SOL    HW116907   2.687   4.222   0.288
 5388SOL    HW216908   2.582   4.316   0.344
 5389SOL     OW16909   3.499   4.318   1.187
 5389SOL    HW116910   3.494   4.260   1.263
 5389SOL    HW216911   3.587   4.304   1.152
 5390SOL     OW16912   2.547   4.182   1.255
 5390SOL    HW116913   2.501   4.104   1.223
 5390SOL    HW216914   2.549   4.241   1.180
 5391SOL     OW16915   2.334   4.218   0.183
 5391SOL    HW116916   2.375   4.304   0.199
 5391SOL    HW216917   2.240   4.236   0.183
 5392SOL     OW16918   2.780   3.814   0.106
 5392SOL    HW116919   2.830   3.778   0.033
 5392SOL    HW216920   2.816   3.772   0.183
 5393SOL     OW16921   3.581   3.869   0.511
 5393SOL    HW116922   3.654   3.856   0.450
 5393SOL    HW216923   3.566   3.783   0.550
 5394SOL     OW16924   3.140   0.136   0.682
 5394SOL    HW116925   3.197   0.060   0.691
 5394SOL    HW216926   3.189   0.196   0.626
 5395SOL     OW16927   3.701   3.896   0.968
 5395SOL    HW116928   3.731   3.810   0.939
 5395SOL    HW216929   3.616   3.907   0.927
 5396SOL     OW16930   2.124   4.042   0.718
 5396SOL    HW116931   2.037   4.072   0.693
 5396SOL    HW216932   2.120   4.030   0.813
 5397SOL     OW16933   2.924   0.301   0.726
 5397SOL    HW116934   2.842   0.265   0.693
 5397SOL    HW216935   2.990   0.236   0.703
 5398SOL     OW16936   2.882   3.964   0.965
 5398SOL    HW116937   2.877   3.915   0.883
 5398SOL    HW216938   2.877   3.897   1.033
 5399SOL     OW16939   3.583   4.114   1.380
 5399SOL    HW116940   3.654   4.178   1.377
 5399SOL    HW216941   3.613   4.043   1.323
 5400SOL     OW16942   2.536   3.919   1.500
 5400SOL    HW116943   2.620   3.901   1.458
 5400SOL    HW216944   2.559   3.952   1.587
 5401SOL     OW16945   1.942   4.050   0.055
 5401SOL    HW116946   1.874   4.047  11.087
 5401SOL    HW216947   1.970   4.141   0.057
 5402SOL     OW16948   1.929   3.883   0.314
 5402SOL    HW116949   1.915   3.957   0.255
 5402SOL    HW216950   2.012   3.845   0.285
 5403SOL     OW16951   2.591   4.286   1.702
 5403SOL    HW116952   2.592   4.332   1.786
 5403SOL    HW216953   2.611   4.195   1.724
 5404SOL     OW16954   3.079   4.039   0.456
 5404SOL    HW116955   3.143   3.969   0.447
 5404SOL    HW216956   3.108   4.089   0.533
 5405SOL     OW16957   3.622   4.090   1.648
 5405SOL    HW116958   3.606   4.101   1.555
 5405SOL    HW216959   3.553   4.031   1.679
 5406SOL     OW16960   2.961   0.205   0.051
 5406SOL    HW116961   2.960   0.291   0.009
 5406SOL    HW216962   3.052   0.175   0.043
 5407SOL     OW16963   3.676   3.908   1.238
 5407SOL    HW116964   3.685   3.813   1.252
 5407SOL    HW216965   3.684   3.919   1.144
 5408SOL     OW16966   2.305   4.157   0.538
 5408SOL    HW116967   2.328   4.087   0.477
 5408SOL    HW216968   2.249   4.114   0.603
 5409SOL     OW16969   2.186   4.264   1.294
 5409SOL    HW116970   2.243   4.210   1.349
 5409SOL    HW216971   2.206   4.238   1.204
 5410SOL     OW16972   3.294   3.949   1.117
 5410SOL    HW116973   3.320   3.869   1.164
 5410SOL    HW216974   3.242   3.998   1.181
 5411SOL     OW16975   2.871   3.743   1.143
 5411SOL    HW116976   2.817   3.675   1.103
 5411SOL    HW216977   2.959   3.706   1.145
 5412SOL     OW16978   3.213   3.779   0.164
 5412SOL    HW116979   3.235   3.727   0.086
 5412SOL    HW216980   3.126   3.747   0.190
 5413SOL     OW16981   3.161   4.175   0.681
 5413SOL    HW116982   3.124   4.262   0.694
 5413SOL    HW216983   3.161   4.135   0.768
 5414SOL     OW16984   3.448   3.927   0.877
 5414SOL    HW116985   3.388   3.948   0.948
 5414SOL    HW216986   3.449   4.005   0.822
 5415SOL     OW16987   2.086   4.287   1.986
 5415SOL    HW116988   2.033   4.357   2.023
 5415SOL    HW216989   2.078   4.297   1.891
 5416SOL     OW16990   2.086   4.000   2.852
 5416SOL    HW116991   2.114   3.968   2.938
 5416SOL    HW216992   1.996   3.970   2.843
 5417SOL     OW16993   1.867   4.101   2.505
 5417SOL    HW116994   1.785   4.131   2.544
 5417SOL    HW216995   1.842   4.024   2.454
 5418SOL     OW16996   3.594   4.335   2.099
 5418SOL    HW116997   3.593   4.321   2.004
 5418SOL    HW216998   3.594   4.246   2.136
 5419SOL     OW16999   2.592   0.270   2.549
 5419SOL    HW117000   2.582   0.208   2.620
 5419SOL    HW217001   2.502   0.285   2.518
 5420SOL     OW17002   2.310   4.116   3.347
 5420SOL    HW117003   2.387   4.060   3.355
 5420SOL    HW217004   2.236   4.059   3.364
 5421SOL     OW17005   3.477   4.172   2.601
 5421SOL    HW117006   3.407   4.198   2.541
 5421SOL    HW217007   3.478   4.242   2.667
 5422SOL     OW17008   3.458   3.847   3.331
 5422SOL    HW117009   3.463   3.927   3.279
 5422SOL    HW217010   3.444   3.877   3.421
 5423SOL     OW17011   1.938   4.373   2.432
 5423SOL    HW117012   1.932   4.280   2.452
 5423SOL    HW217013   2.005   4.406   2.492
 5424SOL     OW17014   1.981   4.475   3.446
 5424SOL    HW117015   2.050   4.492   3.510
 5424SOL    HW217016   1.949   0.062   3.421
 5425SOL     OW17017   2.676   3.724   2.369
 5425SOL    HW117018   2.716   3.809   2.352
 5425SOL    HW217019   2.583   3.744   2.379
 5426SOL     OW17020   2.195   3.975   3.671
 5426SOL    HW117021   2.235   4.060   3.688
 5426SOL    HW217022   2.104   3.985   3.701
 5427SOL     OW17023   3.139   4.072   2.794
 5427SOL    HW117024   3.050   4.039   2.805
 5427SOL    HW217025   3.191   4.020   2.856
 5428SOL     OW17026   2.689   4.306   3.310
 5428SOL    HW117027   2.649   4.311   3.397
 5428SOL    HW217028   2.623   4.265   3.255
 5429SOL     OW17029   3.257   4.199   3.538
 5429SOL    HW117030   3.259   4.244   3.623
 5429SOL    HW217031   3.316   4.124   3.549
 5430SOL     OW17032   2.859   4.149   3.096
 5430SOL    HW117033   2.787   4.172   3.154
 5430SOL    HW217034   2.820   4.091   3.030
 5431SOL     OW17035   2.918   4.410   2.280
 5431SOL    HW117036   2.917   4.451   2.367
 5431SOL    HW217037   2.831   4.372   2.270
 5432SOL     OW17038   2.752   4.064   2.051
 5432SOL    HW117039   2.794   4.127   1.993
 5432SOL    HW217040   2.772   3.979   2.013
 5433SOL     OW17041   3.570   4.298   3.691
 5433SOL    HW117042   3.581   4.387   3.657
 5433SOL    HW217043   3.592   4.241   3.618
 5434SOL     OW17044   2.412   3.905   2.754
 5434SOL    HW117045   2.414   3.933   2.846
 5434SOL    HW217046   2.411   3.987   2.704
 5435SOL     OW17047   3.352   4.465   2.600
 5435SOL    HW117048   3.335   4.410   2.676
 5435SOL    HW217049   3.392   0.044   2.636
 5436SOL     OW17050   2.060   4.004   3.365
 5436SOL    HW117051   1.976   4.049   3.358
 5436SOL    HW217052   2.045   3.936   3.430
 5437SOL     OW17053   3.263   3.830   2.294
 5437SOL    HW117054   3.253   3.806   2.202
 5437SOL    HW217055   3.357   3.840   2.307
 5438SOL     OW17056   2.216   4.387   2.270
 5438SOL    HW117057   2.255   4.311   2.314
 5438SOL    HW217058   2.146   4.416   2.328
 5439SOL     OW17059   3.398   3.950   3.587
 5439SOL    HW117060   3.406   3.971   3.680
 5439SOL    HW217061   3.329   3.883   3.584
 5440SOL     OW17062   2.495   3.847   1.968
 5440SOL    HW117063   2.566   3.784   1.979
 5440SOL    HW217064   2.447   3.815   1.892
 5441SOL     OW17065   2.628   4.002   3.616
 5441SOL    HW117066   2.703   3.943   3.617
 5441SOL    HW217067   2.579   3.980   3.695
 5442SOL     OW17068   3.205   4.311   3.291
 5442SOL    HW117069   3.228   4.275   3.376
 5442SOL    HW217070   3.246   4.398   3.290
 5443SOL     OW17071   2.785   4.236   2.760
 5443SOL    HW117072   2.763   4.220   2.668
 5443SOL    HW217073   2.824   4.154   2.790
 5444SOL     OW17074   2.411   3.787   2.364
 5444SOL    HW117075   2.330   3.787   2.416
 5444SOL    HW217076   2.404   3.866   2.310
 5445SOL     OW17077   2.154   3.771   2.047
 5445SOL    HW117078   2.212   3.836   2.007
 5445SOL    HW217079   2.213   3.708   2.088
 5446SOL     OW17080   2.799   3.971   2.324
 5446SOL    HW117081   2.773   4.010   2.240
 5446SOL    HW217082   2.894   3.984   2.327
 5447SOL     OW17083   2.938   4.395   3.383
 5447SOL    HW117084   2.854   4.366   3.347
 5447SOL    HW217085   3.003   4.356   3.327
 5448SOL     OW17086   2.886   4.267   1.888
 5448SOL    HW117087   2.870   4.354   1.853
 5448SOL    HW217088   2.950   4.281   1.958
 5449SOL     OW17089   1.937   4.280   3.255
 5449SOL    HW117090   2.029   4.272   3.227
 5449SOL    HW217091   1.937   4.353   3.316
 5450SOL     OW17092   2.421   3.950   3.025
 5450SOL    HW117093   2.462   3.874   3.067
 5450SOL    HW217094   2.331   3.948   3.057
 5451SOL     OW17095   2.731   4.189   2.499
 5451SOL    HW117096   2.697   4.248   2.432
 5451SOL    HW217097   2.750   4.108   2.452
 5452SOL     OW17098   2.876   3.777   2.614
 5452SOL    HW117099   2.818   3.769   2.538
 5452SOL    HW217100   2.855   3.701   2.669
 5453SOL     OW17101   3.339   4.311   2.827
 5453SOL    HW117102   3.280   4.239   2.848
 5453SOL    HW217103   3.390   4.324   2.907
 5454SOL     OW17104   3.264   4.295   1.935
 5454SOL    HW117105   3.202   4.269   2.002
 5454SOL    HW217106   3.347   4.255   1.961
 5455SOL     OW17107   2.387   3.988   2.181
 5455SOL    HW117108   2.429   3.938   2.111
 5455SOL    HW217109   2.370   4.074   2.143
 5456SOL     OW17110   2.780   3.821   3.258
 5456SOL    HW117111   2.804   3.801   3.168
 5456SOL    HW217112   2.859   3.860   3.296
 5457SOL     OW17113   2.296   0.009   3.136
 5457SOL    HW117114   2.363   0.003   3.204
 5457SOL    HW217115   2.253   4.423   3.137
 5458SOL     OW17116   3.127   4.100   3.136
 5458SOL    HW117117   3.161   4.177   3.181
 5458SOL    HW217118   3.038   4.124   3.112
 5459SOL     OW17119   2.415   4.253   2.727
 5459SOL    HW117120   2.435   4.297   2.644
 5459SOL    HW217121   2.480   4.289   2.788
 5460SOL     OW17122   3.431   4.339   2.339
 5460SOL    HW117123   3.404   4.404   2.403
 5460SOL    HW217124   3.492   4.386   2.282
 5461SOL     OW17125   2.858   3.846   3.618
 5461SOL    HW117126   2.914   3.919   3.591
 5461SOL    HW217127   2.907   3.768   3.592
 5462SOL     OW17128   2.360   3.765   3.609
 5462SOL    HW117129   2.317   3.711   3.543
 5462SOL    HW217130   2.301   3.840   3.621
 5463SOL     OW17131   3.072   4.254   2.126
 5463SOL    HW117132   3.082   4.175   2.179
 5463SOL    HW217133   3.023   4.314   2.182
 5464SOL     OW17134   2.161   3.923   3.108
 5464SOL    HW117135   2.124   3.956   3.190
 5464SOL    HW217136   2.142   3.829   3.109
 5465SOL     OW17137   2.593   4.360   2.906
 5465SOL    HW117138   2.667   4.324   2.857
 5465SOL    HW217139   2.602   4.455   2.896
 5466SOL     OW17140   3.613   0.134   3.716
 5466SOL    HW117141   3.548   0.148   3.648
 5466SOL    HW217142   3.569   0.160   3.797
 5467SOL     OW17143   2.165   3.789   2.485
 5467SOL    HW117144   2.145   3.880   2.508
 5467SOL    HW217145   2.172   3.743   2.569
 5468SOL     OW17146   3.476   4.091   2.230
 5468SOL    HW117147   3.505   4.030   2.298
 5468SOL    HW217148   3.452   4.171   2.278
 5469SOL     OW17149   3.389   3.999   1.989
 5469SOL    HW117150   3.326   3.932   2.015
 5469SOL    HW217151   3.424   4.032   2.072
 5470SOL     OW17152   2.181   0.012   2.782
 5470SOL    HW117153   2.257   0.069   2.794
 5470SOL    HW217154   2.194   4.440   2.843
 5471SOL     OW17155   2.199   4.240   2.883
 5471SOL    HW117156   2.159   4.155   2.864
 5471SOL    HW217157   2.272   4.247   2.823
 5472SOL     OW17158   2.999   4.093   3.548
 5472SOL    HW117159   2.947   4.153   3.601
 5472SOL    HW217160   3.084   4.138   3.539
 5473SOL     OW17161   3.022   3.927   3.331
 5473SOL    HW117162   3.013   3.988   3.404
 5473SOL    HW217163   3.062   3.979   3.261
 5474SOL     OW17164   1.898   4.271   2.977
 5474SOL    HW117165   1.979   4.256   2.929
 5474SOL    HW217166   1.924   4.274   3.069
 5475SOL     OW17167   2.055   4.244   3.579
 5475SOL    HW117168   2.111   4.199   3.516
 5475SOL    HW217169   2.002   4.303   3.526
 5476SOL     OW17170   2.681   4.281   2.212
 5476SOL    HW117171   2.682   4.208   2.151
 5476SOL    HW217172   2.594   4.321   2.201
 5477SOL     OW17173   3.499   4.318   3.049
 5477SOL    HW117174   3.494   4.260   3.125
 5477SOL    HW217175   3.587   4.304   3.014
 5478SOL     OW17176   2.547   4.182   3.117
 5478SOL    HW117177   2.501   4.104   3.085
 5478SOL    HW217178   2.549   4.241   3.041
 5479SOL     OW17179   2.343   4.223   2.052
 5479SOL    HW117180   2.374   4.310   2.074
 5479SOL    HW217181   2.248   4.234   2.040
 5480SOL     OW17182   3.581   3.869   2.373
 5480SOL    HW117183   3.654   3.855   2.313
 5480SOL    HW217184   3.566   3.783   2.412
 5481SOL     OW17185   3.141   0.136   2.541
 5481SOL    HW117186   3.199   0.061   2.551
 5481SOL    HW217187   3.192   0.199   2.489
 5482SOL     OW17188   3.701   3.896   2.830
 5482SOL    HW117189   3.731   3.810   2.801
 5482SOL    HW217190   3.615   3.907   2.789
 5483SOL     OW17191   2.124   4.041   2.580
 5483SOL    HW117192   2.037   4.072   2.555
 5483SOL    HW217193   2.120   4.030   2.675
 5484SOL     OW17194   2.770   0.090   2.080
 5484SOL    HW117195   2.851   0.131   2.050
 5484SOL    HW217196   2.792   0.054   2.166
 5485SOL     OW17197   2.928   0.300   2.603
 5485SOL    HW117198   2.850   0.285   2.549
 5485SOL    HW217199   2.991   0.235   2.571
 5486SOL     OW17200   2.882   3.964   2.827
 5486SOL    HW117201   2.877   3.915   2.745
 5486SOL    HW217202   2.877   3.897   2.895
 5487SOL     OW17203   3.583   4.114   3.242
 5487SOL    HW117204   3.654   4.178   3.239
 5487SOL    HW217205   3.613   4.043   3.185
 5488SOL     OW17206   2.536   3.919   3.361
 5488SOL    HW117207   2.620   3.901   3.320
 5488SOL    HW217208   2.559   3.951   3.449
 5489SOL     OW17209   1.937   4.043   1.891
 5489SOL    HW117210   1.850   4.037   1.852
 5489SOL    HW217211   1.969   4.129   1.865
 5490SOL     OW17212   1.931   3.880   2.174
 5490SOL    HW117213   1.916   3.960   2.123
 5490SOL    HW217214   2.016   3.848   2.142
 5491SOL     OW17215   2.591   4.286   3.564
 5491SOL    HW117216   2.592   4.332   3.648
 5491SOL    HW217217   2.611   4.195   3.586
 5492SOL     OW17218   3.080   4.042   2.317
 5492SOL    HW117219   3.143   3.970   2.308
 5492SOL    HW217220   3.109   4.090   2.394
 5493SOL     OW17221   3.622   4.090   3.510
 5493SOL    HW117222   3.606   4.101   3.417
 5493SOL    HW217223   3.553   4.031   3.541
 5494SOL     OW17224   2.973   0.228   1.965
 5494SOL    HW117225   2.958   0.270   1.880
 5494SOL    HW217226   3.056   0.182   1.954
 5495SOL     OW17227   3.676   3.908   3.100
 5495SOL    HW117228   3.685   3.813   3.114
 5495SOL    HW217229   3.684   3.919   3.006
 5496SOL     OW17230   2.304   4.156   2.399
 5496SOL    HW117231   2.325   4.086   2.337
 5496SOL    HW217232   2.249   4.114   2.465
 5497SOL     OW17233   2.186   4.264   3.156
 5497SOL    HW117234   2.242   4.210   3.211
 5497SOL    HW217235   2.206   4.238   3.067
 5498SOL     OW17236   3.294   3.948   2.980
 5498SOL    HW117237   3.320   3.869   3.026
 5498SOL    HW217238   3.242   3.998   3.043
 5499SOL     OW17239   2.871   3.743   3.005
 5499SOL    HW117240   2.817   3.675   2.965
 5499SOL    HW217241   2.959   3.706   3.007
 5500SOL     OW17242   3.214   3.778   2.026
 5500SOL    HW117243   3.242   3.714   1.960
 5500SOL    HW217244   3.127   3.748   2.053
 5501SOL     OW17245   3.161   4.175   2.543
 5501SOL    HW117246   3.124   4.263   2.558
 5501SOL    HW217247   3.160   4.134   2.630
 5502SOL     OW17248   3.448   3.927   2.739
 5502SOL    HW117249   3.388   3.948   2.810
 5502SOL    HW217250   3.449   4.005   2.684
 5503SOL     OW17251   2.086   4.287   3.848
 5503SOL    HW117252   2.034   4.358   3.885
 5503SOL    HW217253   2.078   4.297   3.753
 5504SOL     OW17254   2.086   4.001   4.714
 5504SOL    HW117255   2.114   3.968   4.800
 5504SOL    HW217256   1.996   3.970   4.705
 5505SOL     OW17257   1.867   4.101   4.367
 5505SOL    HW117258   1.785   4.130   4.406
 5505SOL    HW217259   1.842   4.023   4.316
 5506SOL     OW17260   3.594   4.335   3.961
 5506SOL    HW117261   3.593   4.321   3.866
 5506SOL    HW217262   3.594   4.246   3.998
 5507SOL     OW17263   2.592   0.270   4.410
 5507SOL    HW117264   2.582   0.209   4.483
 5507SOL    HW217265   2.502   0.286   4.380
 5508SOL     OW17266   2.310   4.117   5.210
 5508SOL    HW117267   2.387   4.060   5.216
 5508SOL    HW217268   2.236   4.059   5.226
 5509SOL     OW17269   3.477   4.172   4.464
 5509SOL    HW117270   3.407   4.198   4.403
 5509SOL    HW217271   3.478   4.242   4.529
 5510SOL     OW17272   3.458   3.847   5.193
 5510SOL    HW117273   3.462   3.927   5.141
 5510SOL    HW217274   3.444   3.877   5.282
 5511SOL     OW17275   1.936   4.374   4.295
 5511SOL    HW117276   1.931   4.280   4.314
 5511SOL    HW217277   2.005   4.406   4.353
 5512SOL     OW17278   1.981   4.475   5.309
 5512SOL    HW117279   2.050   4.492   5.372
 5512SOL    HW217280   1.949   0.062   5.283
 5513SOL     OW17281   2.676   3.724   4.230
 5513SOL    HW117282   2.716   3.810   4.213
 5513SOL    HW217283   2.583   3.744   4.241
 5514SOL     OW17284   2.195   3.974   5.535
 5514SOL    HW117285   2.235   4.060   5.549
 5514SOL    HW217286   2.104   3.985   5.563
 5515SOL     OW17287   3.139   4.072   4.656
 5515SOL    HW117288   3.050   4.039   4.667
 5515SOL    HW217289   3.191   4.020   4.718
 5516SOL     OW17290   2.689   4.306   5.173
 5516SOL    HW117291   2.648   4.311   5.259
 5516SOL    HW217292   2.622   4.265   5.117
 5517SOL     OW17293   3.257   4.200   5.400
 5517SOL    HW117294   3.259   4.244   5.485
 5517SOL    HW217295   3.316   4.124   5.411
 5518SOL     OW17296   2.859   4.149   4.958
 5518SOL    HW117297   2.786   4.171   5.016
 5518SOL    HW217298   2.821   4.091   4.892
 5519SOL     OW17299   2.918   4.410   4.142
 5519SOL    HW117300   2.917   4.451   4.229
 5519SOL    HW217301   2.831   4.372   4.132
 5520SOL     OW17302   2.752   4.064   3.913
 5520SOL    HW117303   2.794   4.127   3.855
 5520SOL    HW217304   2.772   3.979   3.875
 5521SOL     OW17305   3.570   4.298   5.553
 5521SOL    HW117306   3.581   4.387   5.518
 5521SOL    HW217307   3.592   4.241   5.480
 5522SOL     OW17308   2.412   3.906   4.616
 5522SOL    HW117309   2.414   3.933   4.708
 5522SOL    HW217310   2.411   3.988   4.566
 5523SOL     OW17311   3.352   4.465   4.462
 5523SOL    HW117312   3.335   4.410   4.538
 5523SOL    HW217313   3.392   0.044   4.498
 5524SOL     OW17314   2.060   4.004   5.227
 5524SOL    HW117315   1.976   4.049   5.219
 5524SOL    HW217316   2.045   3.935   5.291
 5525SOL     OW17317   3.263   3.831   4.156
 5525SOL    HW117318   3.253   3.806   4.064
 5525SOL    HW217319   3.357   3.840   4.169
 5526SOL     OW17320   2.216   4.387   4.131
 5526SOL    HW117321   2.255   4.311   4.176
 5526SOL    HW217322   2.147   4.416   4.190
 5527SOL     OW17323   3.398   3.950   5.449
 5527SOL    HW117324   3.406   3.971   5.542
 5527SOL    HW217325   3.329   3.883   5.446
 5528SOL     OW17326   2.495   3.847   3.830
 5528SOL    HW117327   2.565   3.784   3.842
 5528SOL    HW217328   2.447   3.815   3.753
 5529SOL     OW17329   2.628   4.002   5.478
 5529SOL    HW117330   2.704   3.943   5.479
 5529SOL    HW217331   2.579   3.981   5.557
 5530SOL     OW17332   3.205   4.311   5.153
 5530SOL    HW117333   3.227   4.275   5.238
 5530SOL    HW217334   3.247   4.398   5.152
 5531SOL     OW17335   2.785   4.236   4.622
 5531SOL    HW117336   2.762   4.220   4.530
 5531SOL    HW217337   2.824   4.154   4.652
 5532SOL     OW17338   2.411   3.787   4.227
 5532SOL    HW117339   2.330   3.787   4.279
 5532SOL    HW217340   2.404   3.866   4.172
 5533SOL     OW17341   2.154   3.771   3.908
 5533SOL    HW117342   2.213   3.836   3.870
 5533SOL    HW217343   2.212   3.708   3.950
 5534SOL     OW17344   2.799   3.972   4.186
 5534SOL    HW117345   2.773   4.010   4.102
 5534SOL    HW217346   2.894   3.984   4.189
 5535SOL     OW17347   2.938   4.395   5.246
 5535SOL    HW117348   2.854   4.366   5.210
 5535SOL    HW217349   3.003   4.356   5.189
 5536SOL     OW17350   2.886   4.267   3.750
 5536SOL    HW117351   2.870   4.354   3.715
 5536SOL    HW217352   2.950   4.281   3.820
 5537SOL     OW17353   1.937   4.280   5.117
 5537SOL    HW117354   2.029   4.272   5.089
 5537SOL    HW217355   1.937   4.353   5.179
 5538SOL     OW17356   2.421   3.950   4.887
 5538SOL    HW117357   2.463   3.873   4.928
 5538SOL    HW217358   2.331   3.948   4.919
 5539SOL     OW17359   2.731   4.189   4.361
 5539SOL    HW117360   2.697   4.248   4.293
 5539SOL    HW217361   2.750   4.108   4.314
 5540SOL     OW17362   2.877   3.778   4.475
 5540SOL    HW117363   2.819   3.770   4.399
 5540SOL    HW217364   2.856   3.703   4.530
 5541SOL     OW17365   3.339   4.311   4.689
 5541SOL    HW117366   3.280   4.239   4.710
 5541SOL    HW217367   3.390   4.324   4.770
 5542SOL     OW17368   3.264   4.295   3.797
 5542SOL    HW117369   3.202   4.269   3.864
 5542SOL    HW217370   3.347   4.255   3.823
 5543SOL     OW17371   2.387   3.988   4.043
 5543SOL    HW117372   2.429   3.938   3.973
 5543SOL    HW217373   2.370   4.074   4.005
 5544SOL     OW17374   2.780   3.822   5.120
 5544SOL    HW117375   2.804   3.801   5.030
 5544SOL    HW217376   2.859   3.861   5.157
 5545SOL     OW17377   2.296   0.009   4.998
 5545SOL    HW117378   2.364   0.003   5.066
 5545SOL    HW217379   2.253   4.423   5.000
 5546SOL     OW17380   3.127   4.100   4.998
 5546SOL    HW117381   3.161   4.177   5.043
 5546SOL    HW217382   3.038   4.123   4.974
 5547SOL     OW17383   2.415   4.254   4.589
 5547SOL    HW117384   2.435   4.297   4.506
 5547SOL    HW217385   2.480   4.289   4.650
 5548SOL     OW17386   3.431   4.339   4.201
 5548SOL    HW117387   3.403   4.404   4.265
 5548SOL    HW217388   3.492   4.386   4.143
 5549SOL     OW17389   2.858   3.846   5.480
 5549SOL    HW117390   2.914   3.919   5.452
 5549SOL    HW217391   2.906   3.768   5.454
 5550SOL     OW17392   2.360   3.765   5.471
 5550SOL    HW117393   2.317   3.710   5.405
 5550SOL    HW217394   2.300   3.839   5.483
 5551SOL     OW17395   3.072   4.254   3.988
 5551SOL    HW117396   3.082   4.175   4.041
 5551SOL    HW217397   3.023   4.314   4.044
 5552SOL     OW17398   2.161   3.923   4.970
 5552SOL    HW117399   2.124   3.956   5.052
 5552SOL    HW217400   2.142   3.830   4.971
 5553SOL     OW17401   2.594   4.360   4.768
 5553SOL    HW117402   2.667   4.324   4.719
 5553SOL    HW217403   2.602   4.455   4.758
 5554SOL     OW17404   3.613   0.134   5.578
 5554SOL    HW117405   3.548   0.148   5.510
 5554SOL    HW217406   3.569   0.160   5.659
 5555SOL     OW17407   2.165   3.789   4.347
 5555SOL    HW117408   2.145   3.880   4.371
 5555SOL    HW217409   2.172   3.743   4.431
 5556SOL     OW17410   3.476   4.091   4.092
 5556SOL    HW117411   3.505   4.030   4.160
 5556SOL    HW217412   3.452   4.171   4.140
 5557SOL     OW17413   3.389   3.999   3.851
 5557SOL    HW117414   3.326   3.932   3.877
 5557SOL    HW217415   3.424   4.032   3.934
 5558SOL     OW17416   2.180   0.012   4.644
 5558SOL    HW117417   2.257   0.069   4.656
 5558SOL    HW217418   2.194   4.440   4.705
 5559SOL     OW17419   2.199   4.240   4.745
 5559SOL    HW117420   2.159   4.155   4.726
 5559SOL    HW217421   2.272   4.247   4.685
 5560SOL     OW17422   2.999   4.093   5.410
 5560SOL    HW117423   2.947   4.153   5.463
 5560SOL    HW217424   3.084   4.138   5.401
 5561SOL     OW17425   3.022   3.926   5.193
 5561SOL    HW117426   3.013   3.988   5.266
 5561SOL    HW217427   3.062   3.979   5.123
 5562SOL     OW17428   1.898   4.271   4.839
 5562SOL    HW117429   1.979   4.256   4.791
 5562SOL    HW217430   1.925   4.274   4.931
 5563SOL     OW17431   2.055   4.243   5.441
 5563SOL    HW117432   2.111   4.199   5.378
 5563SOL    HW217433   2.002   4.303   5.388
 5564SOL     OW17434   2.681   4.281   4.074
 5564SOL    HW117435   2.682   4.208   4.013
 5564SOL    HW217436   2.595   4.321   4.063
 5565SOL     OW17437   3.499   4.318   4.911
 5565SOL    HW117438   3.494   4.260   4.987
 5565SOL    HW217439   3.587   4.304   4.876
 5566SOL     OW17440   2.546   4.183   4.979
 5566SOL    HW117441   2.501   4.104   4.947
 5566SOL    HW217442   2.549   4.241   4.903
 5567SOL     OW17443   2.342   4.223   3.914
 5567SOL    HW117444   2.374   4.310   3.935
 5567SOL    HW217445   2.248   4.234   3.902
 5568SOL     OW17446   3.581   3.869   4.235
 5568SOL    HW117447   3.654   3.855   4.175
 5568SOL    HW217448   3.566   3.783   4.274
 5569SOL     OW17449   3.141   0.136   4.403
 5569SOL    HW117450   3.200   0.061   4.413
 5569SOL    HW217451   3.192   0.200   4.353
 5570SOL     OW17452   3.701   3.896   4.692
 5570SOL    HW117453   3.731   3.810   4.663
 5570SOL    HW217454   3.616   3.907   4.651
 5571SOL     OW17455   2.124   4.041   4.442
 5571SOL    HW117456   2.037   4.072   4.417
 5571SOL    HW217457   2.120   4.030   4.537
 5572SOL     OW17458   2.769   0.090   3.942
 5572SOL    HW117459   2.851   0.131   3.912
 5572SOL    HW217460   2.791   0.054   4.028
 5573SOL     OW17461   2.928   0.299   4.465
 5573SOL    HW117462   2.850   0.287   4.411
 5573SOL    HW217463   2.991   0.235   4.433
 5574SOL     OW17464   2.882   3.964   4.689
 5574SOL    HW117465   2.877   3.915   4.606
 5574SOL    HW217466   2.877   3.897   4.757
 5575SOL     OW17467   3.583   4.114   5.104
 5575SOL    HW117468   3.654   4.179   5.101
 5575SOL    HW217469   3.613   4.043   5.048
 5576SOL     OW17470   2.536   3.919   5.224
 5576SOL    HW117471   2.620   3.901   5.182
 5576SOL    HW217472   2.559   3.952   5.310
 5577SOL     OW17473   1.937   4.043   3.753
 5577SOL    HW117474   1.850   4.037   3.714
 5577SOL    HW217475   1.969   4.129   3.727
 5578SOL     OW17476   1.931   3.881   4.035
 5578SOL    HW117477   1.916   3.960   3.984
 5578SOL    HW217478   2.016   3.848   4.004
 5579SOL     OW17479   2.590   4.286   5.426
 5579SOL    HW117480   2.593   4.332   5.510
 5579SOL    HW217481   2.611   4.195   5.448
 5580SOL     OW17482   3.080   4.042   4.178
 5580SOL    HW117483   3.143   3.970   4.170
 5580SOL    HW217484   3.109   4.090   4.256
 5581SOL     OW17485   3.622   4.090   5.372
 5581SOL    HW117486   3.606   4.101   5.279
 5581SOL    HW217487   3.553   4.031   5.403
 5582SOL     OW17488   2.973   0.228   3.827
 5582SOL    HW117489   2.958   0.271   3.743
 5582SOL    HW217490   3.056   0.182   3.816
 5583SOL     OW17491   3.676   3.908   4.962
 5583SOL    HW117492   3.684   3.813   4.976
 5583SOL    HW217493   3.685   3.919   4.868
 5584SOL     OW17494   2.304   4.156   4.261
 5584SOL    HW117495   2.326   4.087   4.199
 5584SOL    HW217496   2.249   4.114   4.327
 5585SOL     OW17497   2.186   4.264   5.018
 5585SOL    HW117498   2.243   4.210   5.073
 5585SOL    HW217499   2.206   4.238   4.929
 5586SOL     OW17500   3.294   3.948   4.842
 5586SOL    HW117501   3.319   3.869   4.888
 5586SOL    HW217502   3.242   3.998   4.905
 5587SOL     OW17503   2.871   3.743   4.867
 5587SOL    HW117504   2.816   3.675   4.829
 5587SOL    HW217505   2.959   3.706   4.869
 5588SOL     OW17506   3.214   3.778   3.888
 5588SOL    HW117507   3.242   3.714   3.822
 5588SOL    HW217508   3.127   3.748   3.915
 5589SOL     OW17509   3.161   4.175   4.405
 5589SOL    HW117510   3.124   4.262   4.420
 5589SOL    HW217511   3.160   4.134   4.492
 5590SOL     OW17512   3.448   3.927   4.601
 5590SOL    HW117513   3.388   3.948   4.672
 5590SOL    HW217514   3.449   4.005   4.546
 5591SOL     OW17515   2.086   4.287   5.710
 5591SOL    HW117516   2.033   4.358   5.746
 5591SOL    HW217517   2.078   4.297   5.615
 5592SOL     OW17518   2.086   4.000   6.576
 5592SOL    HW117519   2.114   3.968   6.662
 5592SOL    HW217520   1.996   3.970   6.567
 5593SOL     OW17521   1.867   4.101   6.229
 5593SOL    HW117522   1.785   4.131   6.268
 5593SOL    HW217523   1.842   4.024   6.177
 5594SOL     OW17524   3.594   4.335   5.823
 5594SOL    HW117525   3.593   4.322   5.728
 5594SOL    HW217526   3.594   4.246   5.860
 5595SOL     OW17527   2.592   0.270   6.273
 5595SOL    HW117528   2.582   0.208   6.344
 5595SOL    HW217529   2.502   0.285   6.242
 5596SOL     OW17530   2.310   4.116   7.071
 5596SOL    HW117531   2.387   4.060   7.079
 5596SOL    HW217532   2.236   4.058   7.088
 5597SOL     OW17533   3.477   4.172   6.326
 5597SOL    HW117534   3.407   4.198   6.265
 5597SOL    HW217535   3.478   4.242   6.391
 5598SOL     OW17536   3.458   3.847   7.055
 5598SOL    HW117537   3.462   3.927   7.003
 5598SOL    HW217538   3.444   3.877   7.144
 5599SOL     OW17539   1.937   4.374   6.157
 5599SOL    HW117540   1.932   4.280   6.177
 5599SOL    HW217541   2.005   4.407   6.215
 5600SOL     OW17542   1.981   4.475   7.170
 5600SOL    HW117543   2.050   4.492   7.234
 5600SOL    HW217544   1.949   0.062   7.145
 5601SOL     OW17545   2.675   3.725   6.093
 5601SOL    HW117546   2.716   3.809   6.076
 5601SOL    HW217547   2.582   3.745   6.103
 5602SOL     OW17548   2.195   3.975   7.395
 5602SOL    HW117549   2.235   4.060   7.412
 5602SOL    HW217550   2.104   3.985   7.425
 5603SOL     OW17551   3.139   4.072   6.518
 5603SOL    HW117552   3.050   4.039   6.529
 5603SOL    HW217553   3.191   4.021   6.580
 5604SOL     OW17554   2.689   4.306   7.034
 5604SOL    HW117555   2.648   4.311   7.121
 5604SOL    HW217556   2.622   4.265   6.979
 5605SOL     OW17557   3.257   4.199   7.262
 5605SOL    HW117558   3.259   4.243   7.347
 5605SOL    HW217559   3.316   4.124   7.273
 5606SOL     OW17560   2.859   4.149   6.820
 5606SOL    HW117561   2.786   4.172   6.878
 5606SOL    HW217562   2.820   4.091   6.754
 5607SOL     OW17563   2.918   4.410   6.004
 5607SOL    HW117564   2.916   4.451   6.091
 5607SOL    HW217565   2.831   4.372   5.994
 5608SOL     OW17566   2.752   4.064   5.775
 5608SOL    HW117567   2.794   4.127   5.716
 5608SOL    HW217568   2.772   3.979   5.737
 5609SOL     OW17569   3.570   4.298   7.415
 5609SOL    HW117570   3.581   4.386   7.380
 5609SOL    HW217571   3.592   4.240   7.342
 5610SOL     OW17572   2.411   3.905   6.478
 5610SOL    HW117573   2.413   3.933   6.570
 5610SOL    HW217574   2.411   3.987   6.428
 5611SOL     OW17575   3.352   4.465   6.324
 5611SOL    HW117576   3.335   4.410   6.401
 5611SOL    HW217577   3.392   0.044   6.360
 5612SOL     OW17578   2.060   4.004   7.089
 5612SOL    HW117579   1.976   4.050   7.082
 5612SOL    HW217580   2.046   3.936   7.154
 5613SOL     OW17581   3.263   3.830   6.018
 5613SOL    HW117582   3.253   3.806   5.926
 5613SOL    HW217583   3.357   3.840   6.031
 5614SOL     OW17584   2.216   4.387   5.994
 5614SOL    HW117585   2.255   4.311   6.038
 5614SOL    HW217586   2.147   4.416   6.052
 5615SOL     OW17587   3.398   3.950   7.311
 5615SOL    HW117588   3.406   3.971   7.404
 5615SOL    HW217589   3.329   3.883   7.308
 5616SOL     OW17590   2.494   3.846   5.692
 5616SOL    HW117591   2.566   3.784   5.703
 5616SOL    HW217592   2.446   3.815   5.616
 5617SOL     OW17593   2.628   4.002   7.340
 5617SOL    HW117594   2.703   3.943   7.341
 5617SOL    HW217595   2.579   3.980   7.419
 5618SOL     OW17596   3.205   4.311   7.015
 5618SOL    HW117597   3.227   4.275   7.100
 5618SOL    HW217598   3.247   4.398   7.014
 5619SOL     OW17599   2.785   4.236   6.484
 5619SOL    HW117600   2.762   4.220   6.392
 5619SOL    HW217601   2.824   4.154   6.514
 5620SOL     OW17602   2.410   3.787   6.088
 5620SOL    HW117603   2.330   3.788   6.140
 5620SOL    HW217604   2.404   3.866   6.034
 5621SOL     OW17605   2.154   3.771   5.772
 5621SOL    HW117606   2.211   3.835   5.731
 5621SOL    HW217607   2.213   3.707   5.811
 5622SOL     OW17608   2.799   3.971   6.047
 5622SOL    HW117609   2.773   4.010   5.964
 5622SOL    HW217610   2.894   3.984   6.051
 5623SOL     OW17611   2.937   4.395   7.108
 5623SOL    HW117612   2.854   4.366   7.071
 5623SOL    HW217613   3.004   4.356   7.051
 5624SOL     OW17614   2.886   4.267   5.613
 5624SOL    HW117615   2.870   4.354   5.577
 5624SOL    HW217616   2.950   4.281   5.682
 5625SOL     OW17617   1.937   4.280   6.979
 5625SOL    HW117618   2.028   4.272   6.951
 5625SOL    HW217619   1.937   4.353   7.040
 5626SOL     OW17620   2.421   3.950   6.749
 5626SOL    HW117621   2.463   3.874   6.791
 5626SOL    HW217622   2.331   3.947   6.781
 5627SOL     OW17623   2.731   4.189   6.223
 5627SOL    HW117624   2.697   4.248   6.155
 5627SOL    HW217625   2.750   4.108   6.176
 5628SOL     OW17626   2.876   3.777   6.338
 5628SOL    HW117627   2.818   3.769   6.262
 5628SOL    HW217628   2.855   3.702   6.393
 5629SOL     OW17629   3.339   4.311   6.552
 5629SOL    HW117630   3.280   4.239   6.572
 5629SOL    HW217631   3.390   4.324   6.632
 5630SOL     OW17632   3.264   4.295   5.659
 5630SOL    HW117633   3.202   4.269   5.726
 5630SOL    HW217634   3.347   4.255   5.685
 5631SOL     OW17635   2.387   3.988   5.905
 5631SOL    HW117636   2.429   3.938   5.835
 5631SOL    HW217637   2.370   4.074   5.867
 5632SOL     OW17638   2.780   3.822   6.982
 5632SOL    HW117639   2.804   3.801   6.892
 5632SOL    HW217640   2.859   3.860   7.020
 5633SOL     OW17641   2.296   0.009   6.860
 5633SOL    HW117642   2.364   0.003   6.928
 5633SOL    HW217643   2.253   4.423   6.862
 5634SOL     OW17644   3.127   4.100   6.860
 5634SOL    HW117645   3.161   4.177   6.906
 5634SOL    HW217646   3.038   4.124   6.836
 5635SOL     OW17647   2.415   4.254   6.451
 5635SOL    HW117648   2.435   4.296   6.368
 5635SOL    HW217649   2.480   4.289   6.512
 5636SOL     OW17650   3.431   4.339   6.063
 5636SOL    HW117651   3.404   4.405   6.127
 5636SOL    HW217652   3.492   4.385   6.005
 5637SOL     OW17653   2.858   3.846   7.342
 5637SOL    HW117654   2.914   3.919   7.314
 5637SOL    HW217655   2.906   3.768   7.316
 5638SOL     OW17656   2.360   3.765   7.333
 5638SOL    HW117657   2.317   3.711   7.267
 5638SOL    HW217658   2.301   3.840   7.345
 5639SOL     OW17659   3.072   4.254   5.850
 5639SOL    HW117660   3.082   4.175   5.903
 5639SOL    HW217661   3.023   4.314   5.906
 5640SOL     OW17662   2.161   3.923   6.832
 5640SOL    HW117663   2.124   3.956   6.914
 5640SOL    HW217664   2.142   3.829   6.833
 5641SOL     OW17665   2.593   4.360   6.630
 5641SOL    HW117666   2.667   4.324   6.581
 5641SOL    HW217667   2.602   4.455   6.620
 5642SOL     OW17668   3.614   0.134   7.440
 5642SOL    HW117669   3.548   0.148   7.372
 5642SOL    HW217670   3.569   0.160   7.521
 5643SOL     OW17671   2.164   3.788   6.208
 5643SOL    HW117672   2.144   3.879   6.231
 5643SOL    HW217673   2.171   3.743   6.293
 5644SOL     OW17674   3.476   4.091   5.954
 5644SOL    HW117675   3.505   4.030   6.022
 5644SOL    HW217676   3.452   4.171   6.002
 5645SOL     OW17677   3.389   3.999   5.713
 5645SOL    HW117678   3.326   3.932   5.739
 5645SOL    HW217679   3.424   4.032   5.796
 5646SOL     OW17680   2.180   0.012   6.506
 5646SOL    HW117681   2.257   0.069   6.518
 5646SOL    HW217682   2.194   4.440   6.567
 5647SOL     OW17683   2.198   4.240   6.607
 5647SOL    HW117684   2.159   4.155   6.588
 5647SOL    HW217685   2.272   4.247   6.547
 5648SOL     OW17686   2.999   4.093   7.272
 5648SOL    HW117687   2.947   4.153   7.325
 5648SOL    HW217688   3.084   4.138   7.263
 5649SOL     OW17689   3.022   3.927   7.055
 5649SOL    HW117690   3.013   3.988   7.128
 5649SOL    HW217691   3.062   3.979   6.985
 5650SOL     OW17692   1.898   4.271   6.701
 5650SOL    HW117693   1.980   4.256   6.653
 5650SOL    HW217694   1.925   4.274   6.793
 5651SOL     OW17695   2.055   4.243   7.303
 5651SOL    HW117696   2.111   4.199   7.240
 5651SOL    HW217697   2.002   4.303   7.250
 5652SOL     OW17698   2.681   4.281   5.937
 5652SOL    HW117699   2.682   4.208   5.875
 5652SOL    HW217700   2.595   4.321   5.924
 5653SOL     OW17701   3.499   4.318   6.773
 5653SOL    HW117702   3.494   4.260   6.849
 5653SOL    HW217703   3.587   4.304   6.738
 5654SOL     OW17704   2.546   4.182   6.841
 5654SOL    HW117705   2.501   4.104   6.809
 5654SOL    HW217706   2.549   4.241   6.765
 5655SOL     OW17707   2.342   4.222   5.776
 5655SOL    HW117708   2.375   4.310   5.796
 5655SOL    HW217709   2.248   4.234   5.765
 5656SOL     OW17710   3.582   3.869   6.097
 5656SOL    HW117711   3.654   3.855   6.036
 5656SOL    HW217712   3.566   3.783   6.136
 5657SOL     OW17713   3.141   0.136   6.265
 5657SOL    HW117714   3.199   0.061   6.276
 5657SOL    HW217715   3.192   0.199   6.213
 5658SOL     OW17716   3.701   3.896   6.554
 5658SOL    HW117717   3.731   3.810   6.525
 5658SOL    HW217718   3.616   3.907   6.513
 5659SOL     OW17719   2.124   4.040   6.303
 5659SOL    HW117720   2.037   4.071   6.279
 5659SOL    HW217721   2.121   4.030   6.399
 5660SOL     OW17722   2.770   0.090   5.804
 5660SOL    HW117723   2.851   0.131   5.773
 5660SOL    HW217724   2.792   0.054   5.890
 5661SOL     OW17725   2.928   0.300   6.327
 5661SOL    HW117726   2.850   0.286   6.273
 5661SOL    HW217727   2.991   0.235   6.295
 5662SOL     OW17728   2.882   3.964   6.551
 5662SOL    HW117729   2.877   3.915   6.469
 5662SOL    HW217730   2.877   3.897   6.619
 5663SOL     OW17731   3.583   4.114   6.966
 5663SOL    HW117732   3.654   4.178   6.963
 5663SOL    HW217733   3.613   4.043   6.909
 5664SOL     OW17734   2.536   3.919   7.085
 5664SOL    HW117735   2.620   3.901   7.044
 5664SOL    HW217736   2.559   3.951   7.173
 5665SOL     OW17737   1.936   4.043   5.615
 5665SOL    HW117738   1.850   4.037   5.575
 5665SOL    HW217739   1.969   4.129   5.589
 5666SOL     OW17740   1.931   3.880   5.898
 5666SOL    HW117741   1.915   3.959   5.847
 5666SOL    HW217742   2.016   3.848   5.866
 5667SOL     OW17743   2.591   4.286   7.288
 5667SOL    HW117744   2.592   4.332   7.372
 5667SOL    HW217745   2.611   4.195   7.310
 5668SOL     OW17746   3.080   4.042   6.041
 5668SOL    HW117747   3.143   3.970   6.032
 5668SOL    HW217748   3.109   4.090   6.118
 5669SOL     OW17749   3.622   4.090   7.234
 5669SOL    HW117750   3.606   4.101   7.141
 5669SOL    HW217751   3.553   4.031   7.265
 5670SOL     OW17752   2.973   0.227   5.689
 5670SOL    HW117753   2.958   0.271   5.605
 5670SOL    HW217754   3.056   0.182   5.678
 5671SOL     OW17755   3.676   3.908   6.824
 5671SOL    HW117756   3.684   3.813   6.838
 5671SOL    HW217757   3.684   3.919   6.730
 5672SOL     OW17758   2.304   4.156   6.123
 5672SOL    HW117759   2.326   4.087   6.061
 5672SOL    HW217760   2.249   4.113   6.189
 5673SOL     OW17761   2.185   4.264   6.880
 5673SOL    HW117762   2.242   4.210   6.935
 5673SOL    HW217763   2.206   4.238   6.791
 5674SOL     OW17764   3.294   3.948   6.704
 5674SOL    HW117765   3.320   3.869   6.750
 5674SOL    HW217766   3.242   3.998   6.767
 5675SOL     OW17767   2.871   3.743   6.729
 5675SOL    HW117768   2.817   3.675   6.690
 5675SOL    HW217769   2.959   3.706   6.731
 5676SOL     OW17770   3.214   3.778   5.750
 5676SOL    HW117771   3.242   3.714   5.684
 5676SOL    HW217772   3.127   3.748   5.777
 5677SOL     OW17773   3.161   4.175   6.267
 5677SOL    HW117774   3.124   4.263   6.282
 5677SOL    HW217775   3.160   4.134   6.354
 5678SOL     OW17776   3.448   3.927   6.463
 5678SOL    HW117777   3.388   3.948   6.534
 5678SOL    HW217778   3.449   4.005   6.408
 5679SOL     OW17779   2.086   4.287   7.572
 5679SOL    HW117780   2.033   4.357   7.609
 5679SOL    HW217781   2.078   4.298   7.477
 5680SOL     OW17782   2.086   4.000   8.438
 5680SOL    HW117783   2.114   3.968   8.524
 5680SOL    HW217784   1.996   3.970   8.429
 5681SOL     OW17785   1.867   4.101   8.091
 5681SOL    HW117786   1.785   4.131   8.130
 5681SOL    HW217787   1.842   4.024   8.040
 5682SOL     OW17788   3.594   4.335   7.685
 5682SOL    HW117789   3.593   4.321   7.590
 5682SOL    HW217790   3.594   4.246   7.722
 5683SOL     OW17791   2.592   0.270   8.135
 5683SOL    HW117792   2.583   0.207   8.206
 5683SOL    HW217793   2.502   0.284   8.104
 5684SOL     OW17794   2.310   4.116   8.933
 5684SOL    HW117795   2.387   4.060   8.941
 5684SOL    HW217796   2.236   4.059   8.950
 5685SOL     OW17797   3.477   4.172   8.187
 5685SOL    HW117798   3.407   4.198   8.127
 5685SOL    HW217799   3.478   4.242   8.253
 5686SOL     OW17800   3.458   3.847   8.917
 5686SOL    HW117801   3.462   3.927   8.865
 5686SOL    HW217802   3.444   3.877   9.007
 5687SOL     OW17803   1.938   4.373   8.018
 5687SOL    HW117804   1.931   4.280   8.038
 5687SOL    HW217805   2.005   4.406   8.078
 5688SOL     OW17806   1.981   4.475   9.032
 5688SOL    HW117807   2.050   4.492   9.096
 5688SOL    HW217808   1.948   0.062   9.008
 5689SOL     OW17809   2.676   3.724   7.955
 5689SOL    HW117810   2.716   3.810   7.938
 5689SOL    HW217811   2.583   3.744   7.965
 5690SOL     OW17812   2.195   3.975   9.257
 5690SOL    HW117813   2.235   4.060   9.274
 5690SOL    HW217814   2.104   3.985   9.287
 5691SOL     OW17815   3.139   4.072   8.380
 5691SOL    HW117816   3.050   4.039   8.391
 5691SOL    HW217817   3.191   4.021   8.442
 5692SOL     OW17818   2.689   4.306   8.896
 5692SOL    HW117819   2.648   4.311   8.983
 5692SOL    HW217820   2.622   4.266   8.841
 5693SOL     OW17821   3.257   4.199   9.124
 5693SOL    HW117822   3.259   4.244   9.209
 5693SOL    HW217823   3.316   4.124   9.135
 5694SOL     OW17824   2.859   4.149   8.682
 5694SOL    HW117825   2.786   4.171   8.740
 5694SOL    HW217826   2.821   4.091   8.616
 5695SOL     OW17827   2.918   4.410   7.866
 5695SOL    HW117828   2.916   4.450   7.953
 5695SOL    HW217829   2.831   4.372   7.856
 5696SOL     OW17830   2.752   4.064   7.637
 5696SOL    HW117831   2.794   4.127   7.578
 5696SOL    HW217832   2.772   3.979   7.599
 5697SOL     OW17833   3.570   4.298   9.277
 5697SOL    HW117834   3.581   4.386   9.242
 5697SOL    HW217835   3.592   4.240   9.204
 5698SOL     OW17836   2.412   3.906   8.340
 5698SOL    HW117837   2.414   3.933   8.432
 5698SOL    HW217838   2.411   3.987   8.290
 5699SOL     OW17839   3.352   4.465   8.186
 5699SOL    HW117840   3.335   4.410   8.262
 5699SOL    HW217841   3.392   0.044   8.222
 5700SOL     OW17842   2.060   4.004   8.951
 5700SOL    HW117843   1.976   4.049   8.944
 5700SOL    HW217844   2.045   3.936   9.016
 5701SOL     OW17845   3.263   3.831   7.880
 5701SOL    HW117846   3.253   3.806   7.788
 5701SOL    HW217847   3.357   3.840   7.893
 5702SOL     OW17848   2.216   4.387   7.856
 5702SOL    HW117849   2.255   4.311   7.900
 5702SOL    HW217850   2.146   4.416   7.914
 5703SOL     OW17851   3.398   3.950   9.173
 5703SOL    HW117852   3.406   3.971   9.266
 5703SOL    HW217853   3.329   3.883   9.170
 5704SOL     OW17854   2.495   3.847   7.554
 5704SOL    HW117855   2.565   3.784   7.566
 5704SOL    HW217856   2.447   3.815   7.477
 5705SOL     OW17857   2.628   4.002   9.202
 5705SOL    HW117858   2.703   3.943   9.203
 5705SOL    HW217859   2.579   3.980   9.281
 5706SOL     OW17860   3.205   4.311   8.877
 5706SOL    HW117861   3.227   4.275   8.962
 5706SOL    HW217862   3.247   4.398   8.876
 5707SOL     OW17863   2.785   4.236   8.346
 5707SOL    HW117864   2.763   4.220   8.254
 5707SOL    HW217865   2.824   4.154   8.376
 5708SOL     OW17866   2.411   3.787   7.950
 5708SOL    HW117867   2.330   3.787   8.002
 5708SOL    HW217868   2.404   3.866   7.896
 5709SOL     OW17869   2.154   3.771   7.632
 5709SOL    HW117870   2.213   3.836   7.594
 5709SOL    HW217871   2.212   3.708   7.674
 5710SOL     OW17872   2.799   3.972   7.910
 5710SOL    HW117873   2.773   4.010   7.826
 5710SOL    HW217874   2.894   3.984   7.913
 5711SOL     OW17875   2.937   4.395   8.970
 5711SOL    HW117876   2.854   4.366   8.933
 5711SOL    HW217877   3.003   4.356   8.913
 5712SOL     OW17878   2.886   4.267   7.474
 5712SOL    HW117879   2.870   4.354   7.439
 5712SOL    HW217880   2.950   4.281   7.544
 5713SOL     OW17881   1.937   4.280   8.841
 5713SOL    HW117882   2.029   4.272   8.813
 5713SOL    HW217883   1.937   4.353   8.902
 5714SOL     OW17884   2.421   3.950   8.612
 5714SOL    HW117885   2.463   3.874   8.652
 5714SOL    HW217886   2.331   3.948   8.643
 5715SOL     OW17887   2.731   4.189   8.085
 5715SOL    HW117888   2.697   4.248   8.017
 5715SOL    HW217889   2.750   4.108   8.038
 5716SOL     OW17890   2.876   3.777   8.200
 5716SOL    HW117891   2.818   3.769   8.124
 5716SOL    HW217892   2.855   3.701   8.255
 5717SOL     OW17893   3.339   4.311   8.413
 5717SOL    HW117894   3.280   4.239   8.433
 5717SOL    HW217895   3.390   4.324   8.494
 5718SOL     OW17896   3.264   4.295   7.521
 5718SOL    HW117897   3.202   4.269   7.588
 5718SOL    HW217898   3.347   4.254   7.547
 5719SOL     OW17899   2.387   3.988   7.767
 5719SOL    HW117900   2.429   3.938   7.697
 5719SOL    HW217901   2.370   4.074   7.729
 5720SOL     OW17902   2.780   3.821   8.844
 5720SOL    HW117903   2.804   3.801   8.754
 5720SOL    HW217904   2.859   3.860   8.882
 5721SOL     OW17905   2.296   0.009   8.722
 5721SOL    HW117906   2.364   0.003   8.790
 5721SOL    HW217907   2.253   4.423   8.723
 5722SOL     OW17908   3.127   4.100   8.722
 5722SOL    HW117909   3.161   4.177   8.768
 5722SOL    HW217910   3.038   4.124   8.698
 5723SOL     OW17911   2.415   4.254   8.313
 5723SOL    HW117912   2.435   4.297   8.230
 5723SOL    HW217913   2.480   4.289   8.374
 5724SOL     OW17914   3.431   4.339   7.925
 5724SOL    HW117915   3.404   4.404   7.989
 5724SOL    HW217916   3.492   4.386   7.867
 5725SOL     OW17917   2.858   3.846   9.204
 5725SOL    HW117918   2.914   3.919   9.176
 5725SOL    HW217919   2.906   3.768   9.178
 5726SOL     OW17920   2.360   3.765   9.195
 5726SOL    HW117921   2.317   3.711   9.129
 5726SOL    HW217922   2.301   3.840   9.207
 5727SOL     OW17923   3.072   4.254   7.712
 5727SOL    HW117924   3.082   4.175   7.765
 5727SOL    HW217925   3.023   4.314   7.768
 5728SOL     OW17926   2.161   3.923   8.694
 5728SOL    HW117927   2.124   3.956   8.776
 5728SOL    HW217928   2.142   3.829   8.695
 5729SOL     OW17929   2.593   4.360   8.492
 5729SOL    HW117930   2.667   4.324   8.443
 5729SOL    HW217931   2.602   4.455   8.482
 5730SOL     OW17932   3.614   0.134   9.302
 5730SOL    HW117933   3.548   0.148   9.234
 5730SOL    HW217934   3.569   0.160   9.383
 5731SOL     OW17935   2.165   3.789   8.071
 5731SOL    HW117936   2.145   3.880   8.095
 5731SOL    HW217937   2.172   3.743   8.155
 5732SOL     OW17938   3.476   4.091   7.816
 5732SOL    HW117939   3.505   4.030   7.884
 5732SOL    HW217940   3.452   4.171   7.864
 5733SOL     OW17941   3.389   3.999   7.575
 5733SOL    HW117942   3.326   3.932   7.601
 5733SOL    HW217943   3.424   4.032   7.658
 5734SOL     OW17944   2.180   0.012   8.368
 5734SOL    HW117945   2.257   0.069   8.380
 5734SOL    HW217946   2.194   4.440   8.429
 5735SOL     OW17947   2.199   4.240   8.469
 5735SOL    HW117948   2.159   4.155   8.450
 5735SOL    HW217949   2.272   4.247   8.409
 5736SOL     OW17950   2.999   4.093   9.134
 5736SOL    HW117951   2.947   4.153   9.187
 5736SOL    HW217952   3.084   4.138   9.125
 5737SOL     OW17953   3.022   3.927   8.917
 5737SOL    HW117954   3.013   3.988   8.990
 5737SOL    HW217955   3.062   3.979   8.847
 5738SOL     OW17956   1.898   4.271   8.563
 5738SOL    HW117957   1.979   4.256   8.515
 5738SOL    HW217958   1.925   4.274   8.655
 5739SOL     OW17959   2.055   4.243   9.165
 5739SOL    HW117960   2.111   4.198   9.102
 5739SOL    HW217961   2.001   4.303   9.112
 5740SOL     OW17962   2.681   4.281   7.798
 5740SOL    HW117963   2.682   4.208   7.737
 5740SOL    HW217964   2.594   4.320   7.787
 5741SOL     OW17965   3.499   4.318   8.635
 5741SOL    HW117966   3.494   4.260   8.711
 5741SOL    HW217967   3.587   4.304   8.600
 5742SOL     OW17968   2.547   4.182   8.703
 5742SOL    HW117969   2.501   4.104   8.671
 5742SOL    HW217970   2.549   4.241   8.627
 5743SOL     OW17971   2.342   4.223   7.638
 5743SOL    HW117972   2.374   4.310   7.659
 5743SOL    HW217973   2.248   4.234   7.626
 5744SOL     OW17974   3.581   3.869   7.959
 5744SOL    HW117975   3.654   3.855   7.899
 5744SOL    HW217976   3.566   3.783   7.998
 5745SOL     OW17977   3.141   0.136   8.127
 5745SOL    HW117978   3.199   0.061   8.138
 5745SOL    HW217979   3.192   0.199   8.075
 5746SOL     OW17980   3.701   3.896   8.416
 5746SOL    HW117981   3.731   3.810   8.387
 5746SOL    HW217982   3.616   3.907   8.375
 5747SOL     OW17983   2.124   4.041   8.166
 5747SOL    HW117984   2.037   4.072   8.141
 5747SOL    HW217985   2.120   4.030   8.261
 5748SOL     OW17986   2.770   0.090   7.666
 5748SOL    HW117987   2.851   0.131   7.636
 5748SOL    HW217988   2.792   0.053   7.752
 5749SOL     OW17989   2.928   0.300   8.189
 5749SOL    HW117990   2.850   0.285   8.135
 5749SOL    HW217991   2.991   0.235   8.157
 5750SOL     OW17992   2.882   3.964   8.413
 5750SOL    HW117993   2.877   3.915   8.331
 5750SOL    HW217994   2.877   3.897   8.481
 5751SOL     OW17995   3.583   4.114   8.828
 5751SOL    HW117996   3.654   4.178   8.825
 5751SOL    HW217997   3.613   4.043   8.771
 5752SOL     OW17998   2.536   3.919   8.947
 5752SOL    HW117999   2.620   3.901   8.906
 5752SOL    HW218000   2.559   3.951   9.035
 5753SOL     OW18001   1.937   4.043   7.477
 5753SOL    HW118002   1.850   4.037   7.438
 5753SOL    HW218003   1.969   4.129   7.451
 5754SOL     OW18004   1.931   3.880   7.759
 5754SOL    HW118005   1.916   3.960   7.708
 5754SOL    HW218006   2.016   3.848   7.728
 5755SOL     OW18007   2.591   4.286   9.150
 5755SOL    HW118008   2.592   4.332   9.234
 5755SOL    HW218009   2.611   4.195   9.172
 5756SOL     OW18010   3.080   4.042   7.903
 5756SOL    HW118011   3.143   3.970   7.894
 5756SOL    HW218012   3.109   4.090   7.980
 5757SOL     OW18013   3.622   4.090   9.096
 5757SOL    HW118014   3.606   4.101   9.003
 5757SOL    HW218015   3.553   4.031   9.127
 5758SOL     OW18016   2.973   0.228   7.551
 5758SOL    HW118017   2.958   0.270   7.466
 5758SOL    HW218018   3.057   0.182   7.540
 5759SOL     OW18019   3.676   3.908   8.686
 5759SOL    HW118020   3.685   3.813   8.700
 5759SOL    HW218021   3.684   3.919   8.592
 5760SOL     OW18022   2.304   4.156   7.985
 5760SOL    HW118023   2.326   4.086   7.923
 5760SOL    HW218024   2.249   4.114   8.051
 5761SOL     OW18025   2.186   4.264   8.742
 5761SOL    HW118026   2.242   4.210   8.797
 5761SOL    HW218027   2.206   4.238   8.653
 5762SOL     OW18028   3.294   3.948   8.566
 5762SOL    HW118029   3.320   3.869   8.612
 5762SOL    HW218030   3.242   3.998   8.629
 5763SOL     OW18031   2.871   3.743   8.591
 5763SOL    HW118032   2.817   3.675   8.551
 5763SOL    HW218033   2.959   3.706   8.593
 5764SOL     OW18034   3.214   3.778   7.612
 5764SOL    HW118035   3.242   3.714   7.546
 5764SOL    HW218036   3.127   3.748   7.639
 5765SOL     OW18037   3.161   4.176   8.129
 5765SOL    HW118038   3.124   4.262   8.144
 5765SOL    HW218039   3.160   4.134   8.216
 5766SOL     OW18040   3.448   3.927   8.325
 5766SOL    HW118041   3.388   3.948   8.396
 5766SOL    HW218042   3.449   4.005   8.270
 5767SOL     OW18043   2.086   4.287   9.434
 5767SOL    HW118044   2.033   4.357   9.471
 5767SOL    HW218045   2.078   4.298   9.339
 5768SOL     OW18046   2.087   4.000  10.300
 5768SOL    HW118047   2.114   3.968  10.386
 5768SOL    HW218048   1.996   3.970  10.291
 5769SOL     OW18049   1.867   4.101   9.953
 5769SOL    HW118050   1.785   4.130   9.992
 5769SOL    HW218051   1.842   4.024   9.902
 5770SOL     OW18052   3.594   4.335   9.547
 5770SOL    HW118053   3.593   4.321   9.452
 5770SOL    HW218054   3.594   4.246   9.584
 5771SOL     OW18055   2.592   0.271   9.997
 5771SOL    HW118056   2.582   0.208  10.068
 5771SOL    HW218057   2.502   0.284   9.965
 5772SOL     OW18058   2.316   4.118  10.792
 5772SOL    HW118059   2.386   4.053  10.798
 5772SOL    HW218060   2.236   4.070  10.816
 5773SOL     OW18061   3.477   4.172  10.049
 5773SOL    HW118062   3.407   4.198   9.989
 5773SOL    HW218063   3.479   4.242  10.115
 5774SOL     OW18064   3.451   3.840  10.778
 5774SOL    HW118065   3.465   3.921  10.728
 5774SOL    HW218066   3.451   3.868  10.870
 5775SOL     OW18067   1.938   4.373   9.880
 5775SOL    HW118068   1.931   4.280   9.900
 5775SOL    HW218069   2.005   4.406   9.940
 5776SOL     OW18070   1.992   4.459  10.905
 5776SOL    HW118071   2.087   4.464  10.907
 5776SOL    HW218072   1.963   0.050  10.894
 5777SOL     OW18073   2.676   3.724   9.817
 5777SOL    HW118074   2.716   3.809   9.800
 5777SOL    HW218075   2.583   3.743   9.827
 5778SOL     OW18076   2.205   3.978   0.018
 5778SOL    HW118077   2.247   4.062   0.034
 5778SOL    HW218078   2.112   3.995   0.032
 5779SOL     OW18079   3.139   4.073  10.243
 5779SOL    HW118080   3.050   4.039  10.252
 5779SOL    HW218081   3.191   4.020  10.304
 5780SOL     OW18082   2.686   4.302  10.765
 5780SOL    HW118083   2.639   4.316  10.846
 5780SOL    HW218084   2.622   4.262  10.706
 5781SOL     OW18085   2.859   4.148  10.545
 5781SOL    HW118086   2.783   4.170  10.599
 5781SOL    HW218087   2.823   4.092  10.476
 5782SOL     OW18088   2.918   4.410   9.728
 5782SOL    HW118089   2.916   4.450   9.815
 5782SOL    HW218090   2.831   4.372   9.718
 5783SOL     OW18091   2.753   4.064   9.499
 5783SOL    HW118092   2.794   4.127   9.441
 5783SOL    HW218093   2.771   3.979   9.461
 5784SOL     OW18094   2.413   3.906  10.203
 5784SOL    HW118095   2.413   3.933  10.294
 5784SOL    HW218096   2.411   3.987  10.153
 5785SOL     OW18097   3.352   4.465  10.048
 5785SOL    HW118098   3.334   4.410  10.124
 5785SOL    HW218099   3.392   0.044  10.084
 5786SOL     OW18100   2.064   4.003  10.807
 5786SOL    HW118101   1.984   4.056  10.808
 5786SOL    HW218102   2.052   3.940  10.878
 5787SOL     OW18103   3.263   3.831   9.742
 5787SOL    HW118104   3.253   3.806   9.650
 5787SOL    HW218105   3.357   3.840   9.755
 5788SOL     OW18106   2.217   4.387   9.718
 5788SOL    HW118107   2.255   4.311   9.762
 5788SOL    HW218108   2.146   4.416   9.776
 5789SOL     OW18109   2.495   3.847   9.416
 5789SOL    HW118110   2.565   3.784   9.428
 5789SOL    HW218111   2.447   3.815   9.339
 5790SOL     OW18112   2.628   4.002  11.046
 5790SOL    HW118113   2.695   3.944  11.082
 5790SOL    HW218114   2.568   4.018   0.019
 5791SOL     OW18115   3.214   4.308  10.743
 5791SOL    HW118116   3.233   4.289  10.835
 5791SOL    HW218117   3.239   4.400  10.732
 5792SOL     OW18118   2.785   4.236  10.208
 5792SOL    HW118119   2.763   4.220  10.116
 5792SOL    HW218120   2.824   4.154  10.238
 5793SOL     OW18121   2.411   3.787   9.812
 5793SOL    HW118122   2.330   3.787   9.865
 5793SOL    HW218123   2.404   3.866   9.758
 5794SOL     OW18124   2.154   3.771   9.494
 5794SOL    HW118125   2.212   3.836   9.456
 5794SOL    HW218126   2.212   3.708   9.536
 5795SOL     OW18127   2.799   3.971   9.772
 5795SOL    HW118128   2.773   4.010   9.688
 5795SOL    HW218129   2.894   3.984   9.775
 5796SOL     OW18130   2.941   4.379  10.825
 5796SOL    HW118131   2.854   4.363  10.789
 5796SOL    HW218132   3.001   4.346  10.758
 5797SOL     OW18133   2.886   4.267   9.336
 5797SOL    HW118134   2.870   4.354   9.301
 5797SOL    HW218135   2.950   4.281   9.406
 5798SOL     OW18136   1.935   4.280  10.706
 5798SOL    HW118137   2.026   4.272  10.678
 5798SOL    HW218138   1.938   4.340  10.780
 5799SOL     OW18139   2.421   3.950  10.474
 5799SOL    HW118140   2.461   3.873  10.515
 5799SOL    HW218141   2.330   3.949  10.505
 5800SOL     OW18142   2.731   4.189   9.947
 5800SOL    HW118143   2.697   4.248   9.880
 5800SOL    HW218144   2.750   4.108   9.900
 5801SOL     OW18145   2.876   3.778  10.062
 5801SOL    HW118146   2.818   3.769   9.986
 5801SOL    HW218147   2.855   3.701  10.117
 5802SOL     OW18148   3.339   4.312  10.275
 5802SOL    HW118149   3.280   4.238  10.295
 5802SOL    HW218150   3.390   4.324  10.355
 5803SOL     OW18151   3.264   4.295   9.383
 5803SOL    HW118152   3.202   4.269   9.450
 5803SOL    HW218153   3.347   4.255   9.409
 5804SOL     OW18154   2.387   3.987   9.629
 5804SOL    HW118155   2.429   3.938   9.559
 5804SOL    HW218156   2.370   4.074   9.591
 5805SOL     OW18157   2.781   3.823  10.706
 5805SOL    HW118158   2.804   3.802  10.615
 5805SOL    HW218159   2.859   3.863  10.743
 5806SOL     OW18160   2.298   0.006  10.576
 5806SOL    HW118161   2.356   0.006  10.652
 5806SOL    HW218162   2.251   4.423  10.582
 5807SOL     OW18163   3.128   4.099  10.587
 5807SOL    HW118164   3.164   4.176  10.630
 5807SOL    HW218165   3.039   4.125  10.561
 5808SOL     OW18166   2.416   4.252  10.175
 5808SOL    HW118167   2.435   4.297  10.092
 5808SOL    HW218168   2.480   4.289  10.237
 5809SOL     OW18169   3.431   4.339   9.787
 5809SOL    HW118170   3.404   4.404   9.851
 5809SOL    HW218171   3.492   4.385   9.729
 5810SOL     OW18172   2.267   4.462  10.905
 5810SOL    HW118173   2.333   0.031  10.890
 5810SOL    HW218174   2.319   4.383  10.919
 5811SOL     OW18175   3.072   4.254   9.574
 5811SOL    HW118176   3.082   4.175   9.627
 5811SOL    HW218177   3.023   4.314   9.630
 5812SOL     OW18178   2.161   3.923  10.555
 5812SOL    HW118179   2.126   3.957  10.638
 5812SOL    HW218180   2.142   3.830  10.557
 5813SOL     OW18181   2.594   4.360  10.354
 5813SOL    HW118182   2.667   4.325  10.305
 5813SOL    HW218183   2.601   4.455  10.343
 5814SOL     OW18184   2.165   3.789   9.933
 5814SOL    HW118185   2.145   3.880   9.956
 5814SOL    HW218186   2.171   3.743  10.017
 5815SOL     OW18187   3.476   4.091   9.678
 5815SOL    HW118188   3.505   4.030   9.746
 5815SOL    HW218189   3.452   4.171   9.726
 5816SOL     OW18190   3.389   3.999   9.437
 5816SOL    HW118191   3.326   3.932   9.463
 5816SOL    HW218192   3.424   4.032   9.519
 5817SOL     OW18193   2.181   0.012  10.229
 5817SOL    HW118194   2.257   0.069  10.243
 5817SOL    HW218195   2.193   4.440  10.292
 5818SOL     OW18196   2.198   4.239  10.331
 5818SOL    HW118197   2.159   4.154  10.311
 5818SOL    HW218198   2.272   4.246  10.270
 5819SOL     OW18199   3.019   3.932  10.782
 5819SOL    HW118200   3.027   3.991  10.856
 5819SOL    HW218201   3.060   3.979  10.709
 5820SOL     OW18202   1.899   4.273  10.427
 5820SOL    HW118203   1.980   4.256  10.380
 5820SOL    HW218204   1.924   4.276  10.519
 5821SOL     OW18205   3.211   0.189  10.990
 5821SOL    HW118206   3.278   0.256  11.004
 5821SOL    HW218207   3.230   0.154  10.902
 5822SOL     OW18208   2.681   4.281   9.660
 5822SOL    HW118209   2.682   4.208   9.599
 5822SOL    HW218210   2.594   4.320   9.649
 5823SOL     OW18211   3.498   4.318  10.497
 5823SOL    HW118212   3.495   4.259  10.572
 5823SOL    HW218213   3.587   4.306  10.461
 5824SOL     OW18214   2.553   4.181  10.564
 5824SOL    HW118215   2.502   4.105  10.535
 5824SOL    HW218216   2.550   4.241  10.490
 5825SOL     OW18217   2.343   4.223   9.500
 5825SOL    HW118218   2.374   4.310   9.522
 5825SOL    HW218219   2.248   4.234   9.488
 5826SOL     OW18220   3.581   3.869   9.821
 5826SOL    HW118221   3.654   3.855   9.761
 5826SOL    HW218222   3.566   3.783   9.860
 5827SOL     OW18223   3.142   0.137   9.989
 5827SOL    HW118224   3.199   0.061  10.000
 5827SOL    HW218225   3.192   0.198   9.936
 5828SOL     OW18226   3.701   3.896  10.278
 5828SOL    HW118227   3.731   3.810  10.250
 5828SOL    HW218228   3.616   3.907  10.237
 5829SOL     OW18229   2.124   4.041  10.028
 5829SOL    HW118230   2.037   4.072  10.003
 5829SOL    HW218231   2.120   4.030  10.123
 5830SOL     OW18232   2.770   0.090   9.528
 5830SOL    HW118233   2.851   0.131   9.498
 5830SOL    HW218234   2.792   0.053   9.614
 5831SOL     OW18235   2.928   0.300  10.051
 5831SOL    HW118236   2.850   0.286   9.997
 5831SOL    HW218237   2.991   0.235  10.019
 5832SOL     OW18238   2.882   3.964  10.275
 5832SOL    HW118239   2.877   3.916  10.193
 5832SOL    HW218240   2.877   3.897  10.343
 5833SOL     OW18241   3.579   4.116  10.690
 5833SOL    HW118242   3.651   4.179  10.691
 5833SOL    HW218243   3.610   4.045  10.634
 5834SOL     OW18244   2.536   3.917  10.804
 5834SOL    HW118245   2.618   3.898  10.759
 5834SOL    HW218246   2.562   3.955  10.888
 5835SOL     OW18247   1.937   4.043   9.339
 5835SOL    HW118248   1.850   4.037   9.300
 5835SOL    HW218249   1.969   4.129   9.313
 5836SOL     OW18250   1.931   3.880   9.622
 5836SOL    HW118251   1.916   3.960   9.571
 5836SOL    HW218252   2.016   3.848   9.590
 5837SOL     OW18253   2.581   4.299  11.024
 5837SOL    HW118254   2.622   4.344  11.098
 5837SOL    HW218255   2.619   4.211  11.026
 5838SOL     OW18256   3.080   4.042   9.765
 5838SOL    HW118257   3.143   3.970   9.756
 5838SOL    HW218258   3.109   4.090   9.842
 5839SOL     OW18259   3.615   4.051  10.956
 5839SOL    HW118260   3.594   4.081  10.867
 5839SOL    HW218261   3.533   4.057  11.004
 5840SOL     OW18262   2.973   0.228   9.413
 5840SOL    HW118263   2.958   0.270   9.328
 5840SOL    HW218264   3.056   0.182   9.402
 5841SOL     OW18265   3.672   3.907  10.549
 5841SOL    HW118266   3.683   3.813  10.562
 5841SOL    HW218267   3.683   3.920  10.454
 5842SOL     OW18268   2.304   4.156   9.847
 5842SOL    HW118269   2.325   4.086   9.785
 5842SOL    HW218270   2.249   4.114   9.913
 5843SOL     OW18271   2.183   4.264  10.604
 5843SOL    HW118272   2.240   4.210  10.659
 5843SOL    HW218273   2.205   4.237  10.514
 5844SOL     OW18274   3.293   3.948  10.427
 5844SOL    HW118275   3.322   3.869  10.474
 5844SOL    HW218276   3.242   3.996  10.492
 5845SOL     OW18277   2.871   3.743  10.454
 5845SOL    HW118278   2.816   3.676  10.412
 5845SOL    HW218279   2.959   3.706  10.455
 5846SOL     OW18280   3.214   3.778   9.474
 5846SOL    HW118281   3.242   3.714   9.408
 5846SOL    HW218282   3.127   3.748   9.501
 5847SOL     OW18283   3.161   4.175   9.991
 5847SOL    HW118284   3.124   4.263  10.006
 5847SOL    HW218285   3.160   4.135  10.078
 5848SOL     OW18286   3.448   3.927  10.187
 5848SOL    HW118287   3.388   3.948  10.258
 5848SOL    HW218288   3.449   4.005  10.132
 5849SOL     OW18289   3.947   0.611   0.115
 5849SOL    HW118290   3.864   0.619   0.161
 5849SOL    HW218291   3.929   0.642   0.026
 5850SOL     OW18292   3.930   0.302   0.989
 5850SOL    HW118293   3.965   0.272   1.073
 5850SOL    HW218294   3.850   0.252   0.976
 5851SOL     OW18295   3.730   0.386   0.638
 5851SOL    HW118296   3.645   0.406   0.675
 5851SOL    HW218297   3.715   0.310   0.581
 5852SOL     OW18298   4.266   1.246   1.147
 5852SOL    HW118299   4.196   1.307   1.123
 5852SOL    HW218300   4.333   1.301   1.188
 5853SOL     OW18301   0.022   0.778   1.857
 5853SOL    HW118302   0.069   0.825   1.926
 5853SOL    HW218303   0.063   0.806   1.776
 5854SOL     OW18304   4.396   0.990   0.638
 5854SOL    HW118305   4.474   0.992   0.695
 5854SOL    HW218306   4.335   1.050   0.679
 5855SOL     OW18307   4.419   1.161   1.813
 5855SOL    HW118308   4.459   1.242   1.781
 5855SOL    HW218309   4.327   1.169   1.788
 5856SOL     OW18310   4.060   1.432   1.069
 5856SOL    HW118311   3.988   1.390   1.023
 5856SOL    HW218312   4.106   1.481   1.000
 5857SOL     OW18313   4.163   0.396   1.487
 5857SOL    HW118314   4.242   0.342   1.488
 5857SOL    HW218315   4.092   0.333   1.500
 5858SOL     OW18316   3.942   1.713   0.475
 5858SOL    HW118317   3.963   1.791   0.527
 5858SOL    HW218318   4.012   1.708   0.410
 5859SOL     OW18319   3.951   1.440   0.532
 5859SOL    HW118320   3.936   1.535   0.537
 5859SOL    HW218321   3.891   1.403   0.597
 5860SOL     OW18322   3.975   1.088   0.886
 5860SOL    HW118323   3.979   1.004   0.931
 5860SOL    HW218324   3.923   1.144   0.945
 5861SOL     OW18325   4.361   1.798   1.454
 5861SOL    HW118326   4.274   1.764   1.478
 5861SOL    HW218327   4.350   1.893   1.454
 5862SOL     OW18328   4.299   1.004   0.138
 5862SOL    HW118329   4.313   1.071   0.071
 5862SOL    HW218330   4.379   1.004   0.190
 5863SOL     OW18331   3.838   0.652   0.560
 5863SOL    HW118332   3.808   0.563   0.583
 5863SOL    HW218333   3.830   0.701   0.641
 5864SOL     OW18334   3.770   1.602   0.120
 5864SOL    HW118335   3.741   1.513   0.143
 5864SOL    HW218336   3.742   1.656   0.194
 5865SOL     OW18337   3.845   0.744   1.585
 5865SOL    HW118338   3.937   0.770   1.595
 5865SOL    HW218339   3.796   0.826   1.591
 5866SOL     OW18340   4.310   1.388   0.738
 5866SOL    HW118341   4.275   1.298   0.741
 5866SOL    HW218342   4.311   1.409   0.645
 5867SOL     OW18343   0.015   0.007   0.501
 5867SOL    HW118344   0.047   0.075   0.442
 5867SOL    HW218345   4.428   0.036   0.526
 5868SOL     OW18346   3.912   0.965   1.272
 5868SOL    HW118347   3.998   0.926   1.254
 5868SOL    HW218348   3.850   0.913   1.222
 5869SOL     OW18349   4.039   0.252   1.784
 5869SOL    HW118350   4.101   0.319   1.814
 5869SOL    HW218351   3.965   0.260   1.844
 5870SOL     OW18352   4.308   0.717   0.269
 5870SOL    HW118353   4.330   0.794   0.216
 5870SOL    HW218354   4.245   0.749   0.334
 5871SOL     OW18355   3.813   0.821   0.775
 5871SOL    HW118356   3.894   0.813   0.826
 5871SOL    HW218357   3.770   0.899   0.810
 5872SOL     OW18358   3.853   1.845   1.577
 5872SOL    HW118359   3.852   1.825   1.671
 5872SOL    HW218360   3.761   1.839   1.550
 5873SOL     OW18361   4.246   0.203   0.895
 5873SOL    HW118362   4.284   0.219   0.981
 5873SOL    HW218363   4.262   0.284   0.846
 5874SOL     OW18364   4.082   1.812   0.863
 5874SOL    HW118365   4.131   1.730   0.870
 5874SOL    HW218366   4.148   1.880   0.873
 5875SOL     OW18367   4.041   0.959   0.275
 5875SOL    HW118368   4.120   0.983   0.227
 5875SOL    HW218369   4.014   0.876   0.237
 5876SOL     OW18370   4.178   1.252   1.735
 5876SOL    HW118371   4.151   1.264   1.644
 5876SOL    HW218372   4.097   1.262   1.785
 5877SOL     OW18373   3.912   0.269   1.512
 5877SOL    HW118374   3.845   0.335   1.495
 5877SOL    HW218375   3.923   0.270   1.607
 5878SOL     OW18376   4.191   1.733   0.326
 5878SOL    HW118377   4.223   1.795   0.392
 5878SOL    HW218378   4.265   1.721   0.266
 5879SOL     OW18379   3.980   1.793   1.232
 5879SOL    HW118380   4.027   1.723   1.277
 5879SOL    HW218381   3.966   1.759   1.144
 5880SOL     OW18382   4.108   0.694   0.475
 5880SOL    HW118383   4.135   0.603   0.488
 5880SOL    HW218384   4.015   0.695   0.498
 5881SOL     OW18385   4.344   0.130   0.104
 5881SOL    HW118386   4.428   0.097   0.134
 5881SOL    HW218387   4.322   0.076   0.028
 5882SOL     OW18388   0.021   1.420   0.911
 5882SOL    HW118389   0.082   1.467   0.854
 5882SOL    HW218390   4.445   1.403   0.856
 5883SOL     OW18391   4.272   0.109   0.538
 5883SOL    HW118392   4.188   0.074   0.566
 5883SOL    HW218393   4.253   0.158   0.458
 5884SOL     OW18394   4.011   0.055   0.200
 5884SOL    HW118395   4.076   0.108   0.155
 5884SOL    HW218396   4.060   0.008   0.267
 5885SOL     OW18397   0.324   0.677   1.460
 5885SOL    HW118398   0.253   0.615   1.441
 5885SOL    HW218399   0.404   0.627   1.445
 5886SOL     OW18400   4.191   1.145   0.736
 5886SOL    HW118401   4.122   1.126   0.799
 5886SOL    HW218402   4.150   1.130   0.651
 5887SOL     OW18403   3.806   0.550   1.395
 5887SOL    HW118404   3.897   0.554   1.364
 5887SOL    HW218405   3.799   0.622   1.457
 5888SOL     OW18406   4.296   0.236   1.159
 5888SOL    HW118407   4.304   0.143   1.181
 5888SOL    HW218408   4.209   0.261   1.189
 5889SOL     OW18409   4.236   1.400   0.190
 5889SOL    HW118410   4.151   1.386   0.232
 5889SOL    HW218411   4.221   1.382   0.098
 5890SOL     OW18412   4.243   0.266   0.317
 5890SOL    HW118413   4.285   0.214   0.249
 5890SOL    HW218414   4.224   0.349   0.275
 5891SOL     OW18415   4.140   0.814   1.250
 5891SOL    HW118416   4.207   0.824   1.317
 5891SOL    HW218417   4.106   0.726   1.263
 5892SOL     OW18418   3.793   1.573   1.353
 5892SOL    HW118419   3.761   1.644   1.297
 5892SOL    HW218420   3.889   1.579   1.346
 5893SOL     OW18421   4.070   1.117   0.496
 5893SOL    HW118422   4.071   1.190   0.435
 5893SOL    HW218423   4.066   1.039   0.441
 5894SOL     OW18424   4.303   0.538   0.862
 5894SOL    HW118425   4.302   0.604   0.793
 5894SOL    HW218426   4.365   0.571   0.927
 5895SOL     OW18427   4.072   1.534   1.316
 5895SOL    HW118428   4.066   1.490   1.231
 5895SOL    HW218429   4.166   1.535   1.336
 5896SOL     OW18430   4.137   0.741   1.605
 5896SOL    HW118431   4.195   0.787   1.544
 5896SOL    HW218432   4.184   0.659   1.625
 5897SOL     OW18433   4.238   0.070   1.726
 5897SOL    HW118434   4.205   4.486   1.695
 5897SOL    HW218435   4.160   0.123   1.742
 5898SOL     OW18436   4.290   0.889   1.026
 5898SOL    HW118437   4.319   0.980   1.040
 5898SOL    HW218438   4.243   0.867   1.106
 5899SOL     OW18439   4.014   0.237   1.240
 5899SOL    HW118440   3.970   0.249   1.325
 5899SOL    HW218441   4.051   0.149   1.245
 5900SOL     OW18442   3.770   1.311   1.277
 5900SOL    HW118443   3.803   1.256   1.349
 5900SOL    HW218444   3.776   1.400   1.310
 5901SOL     OW18445   4.018   0.058   0.656
 5901SOL    HW118446   4.008   0.153   0.659
 5901SOL    HW218447   4.030   0.032   0.747
 5902SOL     OW18448   4.077   0.916   1.808
 5902SOL    HW118449   4.158   0.931   1.855
 5902SOL    HW218450   4.099   0.851   1.741
 5903SOL     OW18451   4.031   0.809   0.946
 5903SOL    HW118452   4.123   0.837   0.946
 5903SOL    HW218453   4.034   0.719   0.978
 5904SOL     OW18454   4.068   0.532   1.010
 5904SOL    HW118455   4.024   0.449   0.991
 5904SOL    HW218456   4.146   0.531   0.955
 5905SOL     OW18457   3.732   1.327   0.194
 5905SOL    HW118458   3.645   1.339   0.156
 5905SOL    HW218459   3.732   1.237   0.225
 5906SOL     OW18460   3.816   1.788   0.939
 5906SOL    HW118461   3.786   1.709   0.894
 5906SOL    HW218462   3.905   1.800   0.907
 5907SOL     OW18463   4.232   1.583   0.906
 5907SOL    HW118464   4.318   1.615   0.934
 5907SOL    HW218465   4.252   1.513   0.844
 5908SOL     OW18466   3.757   0.543   1.118
 5908SOL    HW118467   3.833   0.519   1.065
 5908SOL    HW218468   3.791   0.547   1.207
 5909SOL     OW18469   3.909   0.519   1.721
 5909SOL    HW118470   3.984   0.499   1.664
 5909SOL    HW218471   3.867   0.594   1.680
 5910SOL     OW18472   0.026   0.544   0.266
 5910SOL    HW118473   0.018   0.487   0.342
 5910SOL    HW218474   4.464   0.615   0.281
 5911SOL     OW18475   3.970   1.553   1.728
 5911SOL    HW118476   3.943   1.617   1.795
 5911SOL    HW218477   3.967   1.469   1.773
 5912SOL     OW18478   4.188   0.489   0.175
 5912SOL    HW118479   4.245   0.560   0.204
 5912SOL    HW218480   4.102   0.529   0.167
 5913SOL     OW18481   3.871   1.140   1.472
 5913SOL    HW118482   3.872   1.088   1.553
 5913SOL    HW218483   3.886   1.077   1.402
 5914SOL     OW18484   3.808   1.269   1.013
 5914SOL    HW118485   3.793   1.279   1.107
 5914SOL    HW218486   3.737   1.213   0.983
 5915SOL     OW18487   4.389   1.651   1.701
 5915SOL    HW118488   4.355   1.737   1.727
 5915SOL    HW218489   4.432   1.667   1.617
 5916SOL     OW18490   3.860   1.797   1.843
 5916SOL    HW118491   3.809   1.732   1.892
 5916SOL    HW218492   3.908   1.845   1.911
 5917SOL     OW18493   3.988   0.326   0.716
 5917SOL    HW118494   3.901   0.358   0.692
 5917SOL    HW218495   3.984   0.315   0.811
 5918SOL     OW18496   4.088   1.307   1.491
 5918SOL    HW118497   4.069   1.382   1.435
 5918SOL    HW218498   4.015   1.246   1.474
 5919SOL     OW18499   4.325   1.490   0.481
 5919SOL    HW118500   4.343   1.434   0.406
 5919SOL    HW218501   4.257   1.550   0.450
 5920SOL     OW18502   3.990   1.342   0.288
 5920SOL    HW118503   3.902   1.342   0.250
 5920SOL    HW218504   3.979   1.380   0.375
 5921SOL     OW18505   3.836   1.022   1.720
 5921SOL    HW118506   3.760   0.998   1.772
 5921SOL    HW218507   3.910   0.984   1.767
 5922SOL     OW18508   4.369   0.205   1.489
 5922SOL    HW118509   4.460   0.223   1.463
 5922SOL    HW218510   4.375   0.175   1.580
 5923SOL     OW18511   3.801   0.342   0.053
 5923SOL    HW118512   3.725   0.310   0.004
 5923SOL    HW218513   3.818   0.429   0.017
 5924SOL     OW18514   3.790   0.181   0.325
 5924SOL    HW118515   3.784   0.247   0.256
 5924SOL    HW218516   3.861   0.124   0.297
 5925SOL     OW18517   4.338   0.840   1.435
 5925SOL    HW118518   4.378   0.925   1.419
 5925SOL    HW218519   4.412   0.782   1.453
 5926SOL     OW18520   4.397   0.559   1.732
 5926SOL    HW118521   4.421   0.634   1.788
 5926SOL    HW218522   4.481   0.520   1.708
 5927SOL     OW18523   4.108   1.739   1.560
 5927SOL    HW118524   4.022   1.780   1.547
 5927SOL    HW218525   4.088   1.657   1.607
 5928SOL     OW18526   4.310   0.729   0.665
 5928SOL    HW118527   4.350   0.815   0.656
 5928SOL    HW218528   4.239   0.729   0.601
 5929SOL     OW18529   3.943   1.307   1.855
 5929SOL    HW118530   3.878   1.243   1.827
 5929SOL    HW218531   3.928   1.317   1.948
 5930SOL     OW18532   3.808   1.233   0.666
 5930SOL    HW118533   3.813   1.184   0.748
 5930SOL    HW218534   3.879   1.197   0.612
 5931SOL     OW18535   4.416   1.386   1.659
 5931SOL    HW118536   4.326   1.353   1.654
 5931SOL    HW218537   4.407   1.480   1.674
 5932SOL     OW18538   4.163   0.433   0.530
 5932SOL    HW118539   4.182   0.361   0.469
 5932SOL    HW218540   4.108   0.394   0.598
 5933SOL     OW18541   4.053   0.556   1.289
 5933SOL    HW118542   4.106   0.497   1.343
 5933SOL    HW218543   4.073   0.529   1.199
 5934SOL     OW18544   0.035   1.598   0.687
 5934SOL    HW118545   0.063   1.658   0.618
 5934SOL    HW218546   4.465   1.547   0.647
 5935SOL     OW18547   3.766   1.071   0.300
 5935SOL    HW118548   3.862   1.065   0.297
 5935SOL    HW218549   3.738   0.983   0.326
 5936SOL     OW18550   3.954   0.627   1.982
 5936SOL    HW118551   3.867   0.619   2.022
 5936SOL    HW218552   3.942   0.595   1.892
 5937SOL     OW18553   3.930   0.303   2.851
 5937SOL    HW118554   3.964   0.272   2.935
 5937SOL    HW218555   3.850   0.252   2.838
 5938SOL     OW18556   3.731   0.387   2.500
 5938SOL    HW118557   3.645   0.405   2.537
 5938SOL    HW218558   3.717   0.312   2.442
 5939SOL     OW18559   4.267   1.246   3.007
 5939SOL    HW118560   4.196   1.307   2.985
 5939SOL    HW218561   4.333   1.300   3.051
 5940SOL     OW18562   0.022   0.778   3.719
 5940SOL    HW118563   0.069   0.825   3.787
 5940SOL    HW218564   0.063   0.806   3.637
 5941SOL     OW18565   4.398   0.992   2.499
 5941SOL    HW118566   4.472   0.987   2.560
 5941SOL    HW218567   4.336   1.051   2.542
 5942SOL     OW18568   4.419   1.161   3.675
 5942SOL    HW118569   4.459   1.242   3.643
 5942SOL    HW218570   4.327   1.169   3.650
 5943SOL     OW18571   4.060   1.432   2.931
 5943SOL    HW118572   3.988   1.389   2.886
 5943SOL    HW218573   4.106   1.481   2.862
 5944SOL     OW18574   4.163   0.396   3.349
 5944SOL    HW118575   4.242   0.342   3.350
 5944SOL    HW218576   4.091   0.334   3.362
 5945SOL     OW18577   3.942   1.714   2.336
 5945SOL    HW118578   3.963   1.791   2.389
 5945SOL    HW218579   4.016   1.706   2.276
 5946SOL     OW18580   3.954   1.441   2.396
 5946SOL    HW118581   3.935   1.535   2.402
 5946SOL    HW218582   3.895   1.400   2.459
 5947SOL     OW18583   3.975   1.088   2.748
 5947SOL    HW118584   3.979   1.004   2.793
 5947SOL    HW218585   3.923   1.143   2.807
 5948SOL     OW18586   4.361   1.798   3.316
 5948SOL    HW118587   4.274   1.764   3.340
 5948SOL    HW218588   4.350   1.893   3.316
 5949SOL     OW18589   4.310   0.985   2.000
 5949SOL    HW118590   4.339   1.038   1.926
 5949SOL    HW218591   4.377   0.997   2.067
 5950SOL     OW18592   3.839   0.652   2.422
 5950SOL    HW118593   3.810   0.564   2.444
 5950SOL    HW218594   3.831   0.701   2.503
 5951SOL     OW18595   3.756   1.595   1.986
 5951SOL    HW118596   3.738   1.503   2.005
 5951SOL    HW218597   3.732   1.642   2.066
 5952SOL     OW18598   3.845   0.744   3.447
 5952SOL    HW118599   3.936   0.770   3.457
 5952SOL    HW218600   3.796   0.826   3.453
 5953SOL     OW18601   4.310   1.387   2.599
 5953SOL    HW118602   4.275   1.299   2.603
 5953SOL    HW218603   4.312   1.409   2.506
 5954SOL     OW18604   0.019   0.017   2.374
 5954SOL    HW118605   0.048   0.079   2.307
 5954SOL    HW218606   4.428   0.042   2.392
 5955SOL     OW18607   3.912   0.966   3.134
 5955SOL    HW118608   3.998   0.926   3.116
 5955SOL    HW218609   3.850   0.912   3.084
 5956SOL     OW18610   4.039   0.252   3.646
 5956SOL    HW118611   4.100   0.319   3.676
 5956SOL    HW218612   3.964   0.260   3.706
 5957SOL     OW18613   4.312   0.728   2.132
 5957SOL    HW118614   4.309   0.806   2.076
 5957SOL    HW218615   4.245   0.743   2.198
 5958SOL     OW18616   3.812   0.821   2.638
 5958SOL    HW118617   3.893   0.813   2.688
 5958SOL    HW218618   3.770   0.900   2.672
 5959SOL     OW18619   3.853   1.845   3.439
 5959SOL    HW118620   3.852   1.825   3.533
 5959SOL    HW218621   3.761   1.839   3.413
 5960SOL     OW18622   4.244   0.202   2.759
 5960SOL    HW118623   4.284   0.220   2.844
 5960SOL    HW218624   4.262   0.281   2.707
 5961SOL     OW18625   4.082   1.812   2.724
 5961SOL    HW118626   4.131   1.730   2.732
 5961SOL    HW218627   4.148   1.880   2.735
 5962SOL     OW18628   4.043   0.958   2.112
 5962SOL    HW118629   4.125   0.976   2.067
 5962SOL    HW218630   4.013   0.875   2.074
 5963SOL     OW18631   4.178   1.252   3.597
 5963SOL    HW118632   4.151   1.264   3.506
 5963SOL    HW218633   4.097   1.262   3.647
 5964SOL     OW18634   3.912   0.269   3.374
 5964SOL    HW118635   3.845   0.335   3.356
 5964SOL    HW218636   3.923   0.270   3.469
 5965SOL     OW18637   4.192   1.735   2.187
 5965SOL    HW118638   4.224   1.795   2.254
 5965SOL    HW218639   4.261   1.732   2.121
 5966SOL     OW18640   3.980   1.793   3.094
 5966SOL    HW118641   4.027   1.723   3.140
 5966SOL    HW218642   3.966   1.759   3.006
 5967SOL     OW18643   4.111   0.694   2.335
 5967SOL    HW118644   4.136   0.603   2.349
 5967SOL    HW218645   4.018   0.697   2.356
 5968SOL     OW18646   4.327   0.121   1.979
 5968SOL    HW118647   4.413   0.080   1.991
 5968SOL    HW218648   4.303   0.100   1.889
 5969SOL     OW18649   0.020   1.422   2.774
 5969SOL    HW118650   0.083   1.465   2.716
 5969SOL    HW218651   4.444   1.404   2.718
 5970SOL     OW18652   4.271   0.109   2.401
 5970SOL    HW118653   4.187   0.068   2.422
 5970SOL    HW218654   4.254   0.160   2.322
 5971SOL     OW18655   4.024   0.072   2.059
 5971SOL    HW118656   4.103   0.121   2.041
 5971SOL    HW218657   4.052   4.500   2.116
 5972SOL     OW18658   0.324   0.677   3.323
 5972SOL    HW118659   0.253   0.615   3.303
 5972SOL    HW218660   0.404   0.627   3.306
 5973SOL     OW18661   4.190   1.145   2.595
 5973SOL    HW118662   4.121   1.126   2.659
 5973SOL    HW218663   4.149   1.128   2.510
 5974SOL     OW18664   3.806   0.550   3.257
 5974SOL    HW118665   3.897   0.554   3.226
 5974SOL    HW218666   3.799   0.622   3.319
 5975SOL     OW18667   4.297   0.237   3.022
 5975SOL    HW118668   4.304   0.144   3.042
 5975SOL    HW218669   4.209   0.261   3.051
 5976SOL     OW18670   4.230   1.386   2.035
 5976SOL    HW118671   4.146   1.372   2.077
 5976SOL    HW218672   4.209   1.402   1.943
 5977SOL     OW18673   4.244   0.271   2.185
 5977SOL    HW118674   4.284   0.215   2.119
 5977SOL    HW218675   4.224   0.352   2.139
 5978SOL     OW18676   4.140   0.814   3.111
 5978SOL    HW118677   4.207   0.824   3.179
 5978SOL    HW218678   4.106   0.726   3.125
 5979SOL     OW18679   3.793   1.573   3.215
 5979SOL    HW118680   3.761   1.644   3.160
 5979SOL    HW218681   3.889   1.579   3.208
 5980SOL     OW18682   4.071   1.109   2.352
 5980SOL    HW118683   4.073   1.181   2.289
 5980SOL    HW218684   4.069   1.030   2.297
 5981SOL     OW18685   4.302   0.539   2.725
 5981SOL    HW118686   4.301   0.604   2.655
 5981SOL    HW218687   4.365   0.572   2.789
 5982SOL     OW18688   4.072   1.534   3.178
 5982SOL    HW118689   4.066   1.490   3.093
 5982SOL    HW218690   4.166   1.535   3.198
 5983SOL     OW18691   4.137   0.741   3.467
 5983SOL    HW118692   4.195   0.787   3.406
 5983SOL    HW218693   4.184   0.659   3.487
 5984SOL     OW18694   4.238   0.070   3.588
 5984SOL    HW118695   4.205   4.486   3.557
 5984SOL    HW218696   4.160   0.123   3.605
 5985SOL     OW18697   4.291   0.890   2.888
 5985SOL    HW118698   4.319   0.980   2.903
 5985SOL    HW218699   4.243   0.866   2.968
 5986SOL     OW18700   4.014   0.237   3.102
 5986SOL    HW118701   3.971   0.249   3.187
 5986SOL    HW218702   4.051   0.149   3.106
 5987SOL     OW18703   3.772   1.311   3.139
 5987SOL    HW118704   3.803   1.256   3.211
 5987SOL    HW218705   3.776   1.400   3.172
 5988SOL     OW18706   4.013   0.055   2.520
 5988SOL    HW118707   4.007   0.151   2.520
 5988SOL    HW218708   4.027   0.031   2.611
 5989SOL     OW18709   4.077   0.916   3.670
 5989SOL    HW118710   4.158   0.931   3.718
 5989SOL    HW218711   4.099   0.851   3.603
 5990SOL     OW18712   4.031   0.809   2.808
 5990SOL    HW118713   4.123   0.837   2.808
 5990SOL    HW218714   4.034   0.719   2.840
 5991SOL     OW18715   4.068   0.532   2.872
 5991SOL    HW118716   4.024   0.449   2.853
 5991SOL    HW218717   4.146   0.531   2.817
 5992SOL     OW18718   3.729   1.321   2.057
 5992SOL    HW118719   3.642   1.335   2.019
 5992SOL    HW218720   3.727   1.232   2.091
 5993SOL     OW18721   3.816   1.788   2.800
 5993SOL    HW118722   3.786   1.708   2.756
 5993SOL    HW218723   3.905   1.800   2.769
 5994SOL     OW18724   4.232   1.583   2.767
 5994SOL    HW118725   4.318   1.614   2.797
 5994SOL    HW218726   4.252   1.513   2.706
 5995SOL     OW18727   3.757   0.544   2.980
 5995SOL    HW118728   3.832   0.519   2.926
 5995SOL    HW218729   3.791   0.547   3.069
 5996SOL     OW18730   3.909   0.519   3.583
 5996SOL    HW118731   3.984   0.499   3.526
 5996SOL    HW218732   3.867   0.594   3.542
 5997SOL     OW18733   0.029   0.550   2.125
 5997SOL    HW118734   0.020   0.488   2.197
 5997SOL    HW218735   4.463   0.617   2.143
 5998SOL     OW18736   3.970   1.553   3.590
 5998SOL    HW118737   3.943   1.616   3.657
 5998SOL    HW218738   3.967   1.469   3.635
 5999SOL     OW18739   4.190   0.495   2.046
 5999SOL    HW118740   4.248   0.568   2.068
 5999SOL    HW218741   4.104   0.535   2.034
 6000SOL     OW18742   3.871   1.140   3.335
 6000SOL    HW118743   3.872   1.088   3.415
 6000SOL    HW218744   3.887   1.077   3.264
 6001SOL     OW18745   3.808   1.269   2.875
 6001SOL    HW118746   3.794   1.279   2.969
 6001SOL    HW218747   3.737   1.213   2.845
 6002SOL     OW18748   4.389   1.651   3.563
 6002SOL    HW118749   4.355   1.737   3.589
 6002SOL    HW218750   4.432   1.667   3.479
 6003SOL     OW18751   3.861   1.797   3.705
 6003SOL    HW118752   3.810   1.732   3.754
 6003SOL    HW218753   3.908   1.845   3.773
 6004SOL     OW18754   3.989   0.326   2.578
 6004SOL    HW118755   3.902   0.358   2.554
 6004SOL    HW218756   3.985   0.315   2.673
 6005SOL     OW18757   4.088   1.307   3.352
 6005SOL    HW118758   4.069   1.383   3.297
 6005SOL    HW218759   4.016   1.246   3.337
 6006SOL     OW18760   4.326   1.490   2.342
 6006SOL    HW118761   4.343   1.431   2.269
 6006SOL    HW218762   4.259   1.550   2.309
 6007SOL     OW18763   3.984   1.350   2.148
 6007SOL    HW118764   3.891   1.345   2.126
 6007SOL    HW218765   3.986   1.385   2.237
 6008SOL     OW18766   3.836   1.022   3.582
 6008SOL    HW118767   3.759   0.998   3.634
 6008SOL    HW218768   3.910   0.985   3.629
 6009SOL     OW18769   4.369   0.205   3.351
 6009SOL    HW118770   4.460   0.223   3.325
 6009SOL    HW218771   4.376   0.176   3.442
 6010SOL     OW18772   3.805   0.339   1.910
 6010SOL    HW118773   3.734   0.286   1.874
 6010SOL    HW218774   3.818   0.408   1.844
 6011SOL     OW18775   3.788   0.182   2.181
 6011SOL    HW118776   3.787   0.249   2.113
 6011SOL    HW218777   3.864   0.128   2.160
 6012SOL     OW18778   4.338   0.840   3.297
 6012SOL    HW118779   4.378   0.925   3.282
 6012SOL    HW218780   4.412   0.781   3.315
 6013SOL     OW18781   4.397   0.559   3.595
 6013SOL    HW118782   4.421   0.634   3.650
 6013SOL    HW218783   4.481   0.520   3.570
 6014SOL     OW18784   4.107   1.739   3.423
 6014SOL    HW118785   4.022   1.780   3.410
 6014SOL    HW218786   4.088   1.657   3.469
 6015SOL     OW18787   4.309   0.730   2.528
 6015SOL    HW118788   4.350   0.816   2.516
 6015SOL    HW218789   4.240   0.728   2.462
 6016SOL     OW18790   3.943   1.307   3.716
 6016SOL    HW118791   3.878   1.243   3.688
 6016SOL    HW218792   3.927   1.318   3.810
 6017SOL     OW18793   3.809   1.234   2.527
 6017SOL    HW118794   3.811   1.186   2.610
 6017SOL    HW218795   3.877   1.194   2.473
 6018SOL     OW18796   4.416   1.386   3.521
 6018SOL    HW118797   4.326   1.353   3.516
 6018SOL    HW218798   4.407   1.480   3.536
 6019SOL     OW18799   4.165   0.435   2.395
 6019SOL    HW118800   4.183   0.366   2.331
 6019SOL    HW218801   4.109   0.393   2.460
 6020SOL     OW18802   4.053   0.556   3.151
 6020SOL    HW118803   4.106   0.497   3.205
 6020SOL    HW218804   4.072   0.529   3.061
 6021SOL     OW18805   0.036   1.599   2.548
 6021SOL    HW118806   0.059   1.660   2.478
 6021SOL    HW218807   4.466   1.546   2.511
 6022SOL     OW18808   3.768   1.071   2.167
 6022SOL    HW118809   3.862   1.061   2.150
 6022SOL    HW218810   3.739   0.983   2.191
 6023SOL     OW18811   3.954   0.626   3.844
 6023SOL    HW118812   3.867   0.620   3.884
 6023SOL    HW218813   3.942   0.595   3.754
 6024SOL     OW18814   3.930   0.303   4.713
 6024SOL    HW118815   3.964   0.272   4.797
 6024SOL    HW218816   3.850   0.252   4.700
 6025SOL     OW18817   3.731   0.386   4.362
 6025SOL    HW118818   3.645   0.405   4.399
 6025SOL    HW218819   3.717   0.312   4.304
 6026SOL     OW18820   4.268   1.246   4.868
 6026SOL    HW118821   4.196   1.306   4.847
 6026SOL    HW218822   4.332   1.302   4.913
 6027SOL     OW18823   0.022   0.777   5.581
 6027SOL    HW118824   0.069   0.825   5.649
 6027SOL    HW218825   0.063   0.806   5.499
 6028SOL     OW18826   4.399   0.992   4.361
 6028SOL    HW118827   4.471   0.986   4.423
 6028SOL    HW218828   4.336   1.051   4.404
 6029SOL     OW18829   4.419   1.161   5.537
 6029SOL    HW118830   4.459   1.242   5.505
 6029SOL    HW218831   4.327   1.169   5.512
 6030SOL     OW18832   4.060   1.432   4.793
 6030SOL    HW118833   3.987   1.389   4.748
 6030SOL    HW218834   4.105   1.480   4.724
 6031SOL     OW18835   4.163   0.396   5.211
 6031SOL    HW118836   4.242   0.341   5.212
 6031SOL    HW218837   4.091   0.334   5.224
 6032SOL     OW18838   3.942   1.714   4.198
 6032SOL    HW118839   3.964   1.791   4.251
 6032SOL    HW218840   4.016   1.706   4.137
 6033SOL     OW18841   3.955   1.441   4.258
 6033SOL    HW118842   3.935   1.534   4.264
 6033SOL    HW218843   3.895   1.400   4.321
 6034SOL     OW18844   3.976   1.089   4.611
 6034SOL    HW118845   3.979   1.004   4.655
 6034SOL    HW218846   3.923   1.144   4.668
 6035SOL     OW18847   4.361   1.798   5.179
 6035SOL    HW118848   4.274   1.763   5.202
 6035SOL    HW218849   4.350   1.893   5.178
 6036SOL     OW18850   4.310   0.985   3.862
 6036SOL    HW118851   4.340   1.038   3.788
 6036SOL    HW218852   4.377   0.997   3.929
 6037SOL     OW18853   3.840   0.652   4.284
 6037SOL    HW118854   3.810   0.564   4.306
 6037SOL    HW218855   3.831   0.702   4.365
 6038SOL     OW18856   3.757   1.595   3.848
 6038SOL    HW118857   3.737   1.503   3.867
 6038SOL    HW218858   3.732   1.642   3.927
 6039SOL     OW18859   3.845   0.744   5.309
 6039SOL    HW118860   3.936   0.771   5.319
 6039SOL    HW218861   3.795   0.826   5.314
 6040SOL     OW18862   4.311   1.387   4.462
 6040SOL    HW118863   4.275   1.299   4.465
 6040SOL    HW218864   4.312   1.409   4.368
 6041SOL     OW18865   0.019   0.017   4.236
 6041SOL    HW118866   0.048   0.079   4.169
 6041SOL    HW218867   4.428   0.042   4.254
 6042SOL     OW18868   3.912   0.965   4.997
 6042SOL    HW118869   3.997   0.926   4.978
 6042SOL    HW218870   3.850   0.914   4.946
 6043SOL     OW18871   4.039   0.252   5.508
 6043SOL    HW118872   4.100   0.319   5.537
 6043SOL    HW218873   3.965   0.260   5.568
 6044SOL     OW18874   4.312   0.728   3.994
 6044SOL    HW118875   4.309   0.806   3.938
 6044SOL    HW218876   4.245   0.743   4.060
 6045SOL     OW18877   3.813   0.821   4.499
 6045SOL    HW118878   3.893   0.814   4.550
 6045SOL    HW218879   3.769   0.899   4.534
 6046SOL     OW18880   3.853   1.846   5.301
 6046SOL    HW118881   3.852   1.826   5.395
 6046SOL    HW218882   3.762   1.840   5.274
 6047SOL     OW18883   4.244   0.202   4.621
 6047SOL    HW118884   4.285   0.220   4.706
 6047SOL    HW218885   4.262   0.280   4.569
 6048SOL     OW18886   4.082   1.812   4.586
 6048SOL    HW118887   4.131   1.730   4.594
 6048SOL    HW218888   4.148   1.880   4.597
 6049SOL     OW18889   4.043   0.958   3.974
 6049SOL    HW118890   4.125   0.976   3.929
 6049SOL    HW218891   4.012   0.875   3.936
 6050SOL     OW18892   4.178   1.252   5.458
 6050SOL    HW118893   4.151   1.264   5.367
 6050SOL    HW218894   4.097   1.262   5.509
 6051SOL     OW18895   3.912   0.269   5.236
 6051SOL    HW118896   3.845   0.336   5.218
 6051SOL    HW218897   3.922   0.271   5.331
 6052SOL     OW18898   4.191   1.735   4.049
 6052SOL    HW118899   4.224   1.795   4.116
 6052SOL    HW218900   4.261   1.732   3.983
 6053SOL     OW18901   3.982   1.793   4.956
 6053SOL    HW118902   4.027   1.722   5.001
 6053SOL    HW218903   3.964   1.759   4.868
 6054SOL     OW18904   4.111   0.694   4.197
 6054SOL    HW118905   4.136   0.602   4.211
 6054SOL    HW218906   4.018   0.697   4.218
 6055SOL     OW18907   4.327   0.121   3.841
 6055SOL    HW118908   4.413   0.080   3.852
 6055SOL    HW218909   4.302   0.100   3.751
 6056SOL     OW18910   0.020   1.422   4.636
 6056SOL    HW118911   0.083   1.464   4.578
 6056SOL    HW218912   4.444   1.404   4.581
 6057SOL     OW18913   4.271   0.109   4.263
 6057SOL    HW118914   4.187   0.068   4.284
 6057SOL    HW218915   4.254   0.160   4.184
 6058SOL     OW18916   4.023   0.071   3.921
 6058SOL    HW118917   4.103   0.121   3.903
 6058SOL    HW218918   4.053   0.000   3.978
 6059SOL     OW18919   0.324   0.676   5.186
 6059SOL    HW118920   0.252   0.617   5.166
 6059SOL    HW218921   0.403   0.626   5.168
 6060SOL     OW18922   4.190   1.145   4.457
 6060SOL    HW118923   4.122   1.126   4.521
 6060SOL    HW218924   4.149   1.128   4.372
 6061SOL     OW18925   3.807   0.550   5.119
 6061SOL    HW118926   3.897   0.554   5.088
 6061SOL    HW218927   3.799   0.622   5.181
 6062SOL     OW18928   4.297   0.237   4.884
 6062SOL    HW118929   4.304   0.143   4.903
 6062SOL    HW218930   4.209   0.261   4.913
 6063SOL     OW18931   4.230   1.386   3.897
 6063SOL    HW118932   4.146   1.372   3.939
 6063SOL    HW218933   4.209   1.402   3.805
 6064SOL     OW18934   4.244   0.271   4.047
 6064SOL    HW118935   4.284   0.215   3.981
 6064SOL    HW218936   4.224   0.352   4.001
 6065SOL     OW18937   4.141   0.814   4.973
 6065SOL    HW118938   4.207   0.824   5.041
 6065SOL    HW218939   4.106   0.726   4.986
 6066SOL     OW18940   3.793   1.573   5.077
 6066SOL    HW118941   3.758   1.643   5.022
 6066SOL    HW218942   3.888   1.580   5.069
 6067SOL     OW18943   4.072   1.109   4.214
 6067SOL    HW118944   4.072   1.182   4.151
 6067SOL    HW218945   4.070   1.030   4.159
 6068SOL     OW18946   4.302   0.539   4.587
 6068SOL    HW118947   4.301   0.604   4.517
 6068SOL    HW218948   4.365   0.573   4.650
 6069SOL     OW18949   4.072   1.534   5.040
 6069SOL    HW118950   4.066   1.490   4.955
 6069SOL    HW218951   4.166   1.534   5.060
 6070SOL     OW18952   4.137   0.741   5.329
 6070SOL    HW118953   4.195   0.787   5.268
 6070SOL    HW218954   4.183   0.659   5.348
 6071SOL     OW18955   4.238   0.070   5.451
 6071SOL    HW118956   4.205   4.486   5.419
 6071SOL    HW218957   4.160   0.123   5.467
 6072SOL     OW18958   4.292   0.890   4.751
 6072SOL    HW118959   4.318   0.980   4.765
 6072SOL    HW218960   4.243   0.866   4.830
 6073SOL     OW18961   4.015   0.237   4.964
 6073SOL    HW118962   3.970   0.249   5.049
 6073SOL    HW218963   4.051   0.149   4.968
 6074SOL     OW18964   3.773   1.311   5.001
 6074SOL    HW118965   3.803   1.256   5.073
 6074SOL    HW218966   3.776   1.400   5.034
 6075SOL     OW18967   4.013   0.055   4.382
 6075SOL    HW118968   4.007   0.151   4.382
 6075SOL    HW218969   4.027   0.032   4.473
 6076SOL     OW18970   4.077   0.916   5.532
 6076SOL    HW118971   4.159   0.930   5.579
 6076SOL    HW218972   4.099   0.851   5.465
 6077SOL     OW18973   4.031   0.809   4.670
 6077SOL    HW118974   4.123   0.837   4.670
 6077SOL    HW218975   4.034   0.719   4.702
 6078SOL     OW18976   4.068   0.532   4.735
 6078SOL    HW118977   4.024   0.449   4.715
 6078SOL    HW218978   4.146   0.531   4.679
 6079SOL     OW18979   3.729   1.321   3.919
 6079SOL    HW118980   3.643   1.335   3.881
 6079SOL    HW218981   3.727   1.232   3.953
 6080SOL     OW18982   3.816   1.787   4.662
 6080SOL    HW118983   3.785   1.708   4.618
 6080SOL    HW218984   3.905   1.800   4.630
 6081SOL     OW18985   4.232   1.583   4.629
 6081SOL    HW118986   4.318   1.614   4.659
 6081SOL    HW218987   4.252   1.513   4.568
 6082SOL     OW18988   3.757   0.543   4.842
 6082SOL    HW118989   3.832   0.519   4.788
 6082SOL    HW218990   3.791   0.547   4.931
 6083SOL     OW18991   3.909   0.519   5.445
 6083SOL    HW118992   3.984   0.499   5.388
 6083SOL    HW218993   3.867   0.594   5.404
 6084SOL     OW18994   0.029   0.550   3.987
 6084SOL    HW118995   0.019   0.487   4.058
 6084SOL    HW218996   4.463   0.617   4.005
 6085SOL     OW18997   3.971   1.553   5.453
 6085SOL    HW118998   3.943   1.617   5.518
 6085SOL    HW218999   3.967   1.469   5.498
 6086SOL     OW19000   4.191   0.495   3.908
 6086SOL    HW119001   4.248   0.568   3.930
 6086SOL    HW219002   4.104   0.535   3.896
 6087SOL     OW19003   3.871   1.140   5.197
 6087SOL    HW119004   3.872   1.088   5.277
 6087SOL    HW219005   3.886   1.077   5.127
 6088SOL     OW19006   3.809   1.268   4.737
 6088SOL    HW119007   3.794   1.279   4.831
 6088SOL    HW219008   3.736   1.214   4.707
 6089SOL     OW19009   4.391   1.652   5.425
 6089SOL    HW119010   4.354   1.736   5.451
 6089SOL    HW219011   4.429   1.668   5.339
 6090SOL     OW19012   3.861   1.796   5.567
 6090SOL    HW119013   3.810   1.732   5.616
 6090SOL    HW219014   3.908   1.845   5.635
 6091SOL     OW19015   3.989   0.326   4.440
 6091SOL    HW119016   3.902   0.358   4.416
 6091SOL    HW219017   3.984   0.315   4.536
 6092SOL     OW19018   4.089   1.307   5.214
 6092SOL    HW119019   4.068   1.383   5.160
 6092SOL    HW219020   4.016   1.246   5.199
 6093SOL     OW19021   4.326   1.490   4.204
 6093SOL    HW119022   4.342   1.430   4.131
 6093SOL    HW219023   4.259   1.550   4.172
 6094SOL     OW19024   3.984   1.350   4.010
 6094SOL    HW119025   3.891   1.345   3.988
 6094SOL    HW219026   3.985   1.385   4.099
 6095SOL     OW19027   3.836   1.022   5.444
 6095SOL    HW119028   3.759   0.998   5.496
 6095SOL    HW219029   3.910   0.984   5.491
 6096SOL     OW19030   4.369   0.205   5.213
 6096SOL    HW119031   4.459   0.223   5.187
 6096SOL    HW219032   4.376   0.176   5.304
 6097SOL     OW19033   3.805   0.339   3.771
 6097SOL    HW119034   3.734   0.286   3.736
 6097SOL    HW219035   3.818   0.408   3.707
 6098SOL     OW19036   3.788   0.182   4.043
 6098SOL    HW119037   3.787   0.249   3.975
 6098SOL    HW219038   3.864   0.127   4.022
 6099SOL     OW19039   4.338   0.840   5.159
 6099SOL    HW119040   4.378   0.925   5.143
 6099SOL    HW219041   4.412   0.782   5.177
 6100SOL     OW19042   4.398   0.559   5.457
 6100SOL    HW119043   4.421   0.634   5.512
 6100SOL    HW219044   4.481   0.520   5.432
 6101SOL     OW19045   4.108   1.738   5.285
 6101SOL    HW119046   4.023   1.780   5.271
 6101SOL    HW219047   4.087   1.657   5.331
 6102SOL     OW19048   4.310   0.731   4.390
 6102SOL    HW119049   4.350   0.816   4.378
 6102SOL    HW219050   4.240   0.728   4.325
 6103SOL     OW19051   3.943   1.306   5.578
 6103SOL    HW119052   3.878   1.243   5.550
 6103SOL    HW219053   3.927   1.318   5.672
 6104SOL     OW19054   3.809   1.235   4.389
 6104SOL    HW119055   3.810   1.186   4.472
 6104SOL    HW219056   3.877   1.193   4.336
 6105SOL     OW19057   4.417   1.386   5.383
 6105SOL    HW119058   4.327   1.354   5.378
 6105SOL    HW219059   4.407   1.480   5.399
 6106SOL     OW19060   4.165   0.435   4.257
 6106SOL    HW119061   4.183   0.366   4.193
 6106SOL    HW219062   4.109   0.393   4.322
 6107SOL     OW19063   4.053   0.556   5.013
 6107SOL    HW119064   4.106   0.497   5.067
 6107SOL    HW219065   4.072   0.529   4.923
 6108SOL     OW19066   0.037   1.599   4.410
 6108SOL    HW119067   0.059   1.660   4.340
 6108SOL    HW219068   4.466   1.545   4.373
 6109SOL     OW19069   3.769   1.071   4.029
 6109SOL    HW119070   3.862   1.061   4.012
 6109SOL    HW219071   3.739   0.983   4.053
 6110SOL     OW19072   3.954   0.626   5.706
 6110SOL    HW119073   3.867   0.619   5.745
 6110SOL    HW219074   3.943   0.595   5.616
 6111SOL     OW19075   3.930   0.303   6.575
 6111SOL    HW119076   3.964   0.272   6.659
 6111SOL    HW219077   3.850   0.252   6.562
 6112SOL     OW19078   3.731   0.386   6.224
 6112SOL    HW119079   3.645   0.405   6.261
 6112SOL    HW219080   3.717   0.312   6.166
 6113SOL     OW19081   4.267   1.246   6.731
 6113SOL    HW119082   4.196   1.306   6.709
 6113SOL    HW219083   4.332   1.301   6.775
 6114SOL     OW19084   0.021   0.778   7.443
 6114SOL    HW119085   0.069   0.825   7.512
 6114SOL    HW219086   0.063   0.806   7.361
 6115SOL     OW19087   4.399   0.992   6.223
 6115SOL    HW119088   4.472   0.986   6.285
 6115SOL    HW219089   4.336   1.051   6.266
 6116SOL     OW19090   4.419   1.161   7.399
 6116SOL    HW119091   4.459   1.242   7.367
 6116SOL    HW219092   4.327   1.169   7.374
 6117SOL     OW19093   4.060   1.432   6.655
 6117SOL    HW119094   3.988   1.389   6.610
 6117SOL    HW219095   4.106   1.481   6.586
 6118SOL     OW19096   4.163   0.396   7.073
 6118SOL    HW119097   4.242   0.342   7.074
 6118SOL    HW219098   4.091   0.333   7.086
 6119SOL     OW19099   3.942   1.714   6.060
 6119SOL    HW119100   3.963   1.790   6.113
 6119SOL    HW219101   4.016   1.706   5.999
 6120SOL     OW19102   3.955   1.441   6.121
 6120SOL    HW119103   3.936   1.535   6.126
 6120SOL    HW219104   3.894   1.401   6.183
 6121SOL     OW19105   3.976   1.089   6.473
 6121SOL    HW119106   3.979   1.004   6.517
 6121SOL    HW219107   3.923   1.144   6.530
 6122SOL     OW19108   4.361   1.798   7.040
 6122SOL    HW119109   4.274   1.764   7.064
 6122SOL    HW219110   4.350   1.893   7.040
 6123SOL     OW19111   4.310   0.985   5.724
 6123SOL    HW119112   4.340   1.038   5.650
 6123SOL    HW219113   4.377   0.997   5.790
 6124SOL     OW19114   3.840   0.652   6.146
 6124SOL    HW119115   3.810   0.564   6.168
 6124SOL    HW219116   3.831   0.701   6.227
 6125SOL     OW19117   3.757   1.595   5.710
 6125SOL    HW119118   3.737   1.503   5.729
 6125SOL    HW219119   3.732   1.642   5.789
 6126SOL     OW19120   3.845   0.744   7.171
 6126SOL    HW119121   3.937   0.770   7.181
 6126SOL    HW219122   3.796   0.826   7.177
 6127SOL     OW19123   4.311   1.387   6.323
 6127SOL    HW119124   4.275   1.299   6.327
 6127SOL    HW219125   4.312   1.409   6.230
 6128SOL     OW19126   0.019   0.017   6.098
 6128SOL    HW119127   0.048   0.079   6.031
 6128SOL    HW219128   4.428   0.042   6.116
 6129SOL     OW19129   3.912   0.965   6.858
 6129SOL    HW119130   3.998   0.926   6.840
 6129SOL    HW219131   3.850   0.913   6.808
 6130SOL     OW19132   4.039   0.252   7.370
 6130SOL    HW119133   4.101   0.319   7.399
 6130SOL    HW219134   3.965   0.260   7.430
 6131SOL     OW19135   4.313   0.728   5.856
 6131SOL    HW119136   4.309   0.806   5.800
 6131SOL    HW219137   4.244   0.743   5.922
 6132SOL     OW19138   3.812   0.821   6.362
 6132SOL    HW119139   3.893   0.813   6.412
 6132SOL    HW219140   3.770   0.899   6.396
 6133SOL     OW19141   3.853   1.845   7.163
 6133SOL    HW119142   3.852   1.825   7.257
 6133SOL    HW219143   3.761   1.839   7.136
 6134SOL     OW19144   4.244   0.202   6.483
 6134SOL    HW119145   4.284   0.220   6.568
 6134SOL    HW219146   4.262   0.280   6.431
 6135SOL     OW19147   4.082   1.812   6.448
 6135SOL    HW119148   4.131   1.730   6.456
 6135SOL    HW219149   4.148   1.880   6.459
 6136SOL     OW19150   4.043   0.958   5.836
 6136SOL    HW119151   4.125   0.976   5.791
 6136SOL    HW219152   4.012   0.875   5.798
 6137SOL     OW19153   4.178   1.252   7.321
 6137SOL    HW119154   4.151   1.264   7.229
 6137SOL    HW219155   4.097   1.262   7.371
 6138SOL     OW19156   3.912   0.269   7.098
 6138SOL    HW119157   3.845   0.335   7.080
 6138SOL    HW219158   3.923   0.270   7.193
 6139SOL     OW19159   4.192   1.735   5.911
 6139SOL    HW119160   4.224   1.795   5.978
 6139SOL    HW219161   4.261   1.733   5.845
 6140SOL     OW19162   3.980   1.793   6.818
 6140SOL    HW119163   4.027   1.723   6.863
 6140SOL    HW219164   3.965   1.759   6.730
 6141SOL     OW19165   4.111   0.694   6.059
 6141SOL    HW119166   4.136   0.602   6.073
 6141SOL    HW219167   4.018   0.697   6.080
 6142SOL     OW19168   4.327   0.121   5.703
 6142SOL    HW119169   4.413   0.080   5.714
 6142SOL    HW219170   4.302   0.100   5.613
 6143SOL     OW19171   0.020   1.422   6.498
 6143SOL    HW119172   0.083   1.465   6.440
 6143SOL    HW219173   4.444   1.404   6.442
 6144SOL     OW19174   4.271   0.109   6.125
 6144SOL    HW119175   4.187   0.068   6.146
 6144SOL    HW219176   4.254   0.160   6.046
 6145SOL     OW19177   4.023   0.072   5.783
 6145SOL    HW119178   4.103   0.121   5.765
 6145SOL    HW219179   4.052   0.000   5.840
 6146SOL     OW19180   0.324   0.677   7.047
 6146SOL    HW119181   0.253   0.616   7.027
 6146SOL    HW219182   0.404   0.627   7.030
 6147SOL     OW19183   4.190   1.145   6.319
 6147SOL    HW119184   4.121   1.126   6.383
 6147SOL    HW219185   4.149   1.128   6.234
 6148SOL     OW19186   3.806   0.550   6.981
 6148SOL    HW119187   3.897   0.554   6.950
 6148SOL    HW219188   3.799   0.622   7.043
 6149SOL     OW19189   4.297   0.237   6.746
 6149SOL    HW119190   4.304   0.144   6.766
 6149SOL    HW219191   4.209   0.261   6.775
 6150SOL     OW19192   4.230   1.386   5.759
 6150SOL    HW119193   4.146   1.372   5.801
 6150SOL    HW219194   4.209   1.402   5.667
 6151SOL     OW19195   4.244   0.271   5.909
 6151SOL    HW119196   4.284   0.215   5.843
 6151SOL    HW219197   4.224   0.352   5.863
 6152SOL     OW19198   4.140   0.814   6.835
 6152SOL    HW119199   4.207   0.824   6.903
 6152SOL    HW219200   4.106   0.726   6.848
 6153SOL     OW19201   3.793   1.573   6.939
 6153SOL    HW119202   3.760   1.644   6.883
 6153SOL    HW219203   3.888   1.579   6.932
 6154SOL     OW19204   4.072   1.109   6.076
 6154SOL    HW119205   4.072   1.182   6.013
 6154SOL    HW219206   4.070   1.030   6.021
 6155SOL     OW19207   4.302   0.539   6.449
 6155SOL    HW119208   4.301   0.605   6.379
 6155SOL    HW219209   4.365   0.573   6.513
 6156SOL     OW19210   4.072   1.534   6.902
 6156SOL    HW119211   4.066   1.490   6.817
 6156SOL    HW219212   4.166   1.535   6.922
 6157SOL     OW19213   4.137   0.741   7.191
 6157SOL    HW119214   4.195   0.787   7.130
 6157SOL    HW219215   4.184   0.659   7.210
 6158SOL     OW19216   4.238   0.070   7.312
 6158SOL    HW119217   4.205   4.486   7.281
 6158SOL    HW219218   4.160   0.123   7.328
 6159SOL     OW19219   4.291   0.890   6.612
 6159SOL    HW119220   4.319   0.980   6.627
 6159SOL    HW219221   4.243   0.866   6.692
 6160SOL     OW19222   4.014   0.237   6.827
 6160SOL    HW119223   3.970   0.249   6.911
 6160SOL    HW219224   4.051   0.149   6.830
 6161SOL     OW19225   3.771   1.311   6.863
 6161SOL    HW119226   3.803   1.256   6.935
 6161SOL    HW219227   3.776   1.400   6.896
 6162SOL     OW19228   4.013   0.055   6.244
 6162SOL    HW119229   4.007   0.151   6.244
 6162SOL    HW219230   4.027   0.032   6.335
 6163SOL     OW19231   4.077   0.916   7.394
 6163SOL    HW119232   4.158   0.931   7.442
 6163SOL    HW219233   4.099   0.851   7.327
 6164SOL     OW19234   4.031   0.809   6.532
 6164SOL    HW119235   4.123   0.837   6.532
 6164SOL    HW219236   4.034   0.719   6.564
 6165SOL     OW19237   4.068   0.532   6.596
 6165SOL    HW119238   4.024   0.449   6.577
 6165SOL    HW219239   4.146   0.531   6.541
 6166SOL     OW19240   3.730   1.321   5.781
 6166SOL    HW119241   3.643   1.335   5.743
 6166SOL    HW219242   3.727   1.232   5.815
 6167SOL     OW19243   3.816   1.787   6.525
 6167SOL    HW119244   3.785   1.708   6.481
 6167SOL    HW219245   3.905   1.800   6.493
 6168SOL     OW19246   4.232   1.583   6.491
 6168SOL    HW119247   4.318   1.614   6.521
 6168SOL    HW219248   4.252   1.513   6.430
 6169SOL     OW19249   3.757   0.544   6.704
 6169SOL    HW119250   3.832   0.519   6.650
 6169SOL    HW219251   3.791   0.547   6.793
 6170SOL     OW19252   3.909   0.519   7.307
 6170SOL    HW119253   3.984   0.499   7.250
 6170SOL    HW219254   3.867   0.594   7.266
 6171SOL     OW19255   0.029   0.551   5.849
 6171SOL    HW119256   0.019   0.487   5.920
 6171SOL    HW219257   4.463   0.617   5.867
 6172SOL     OW19258   3.970   1.553   7.314
 6172SOL    HW119259   3.943   1.617   7.381
 6172SOL    HW219260   3.967   1.469   7.359
 6173SOL     OW19261   4.191   0.495   5.770
 6173SOL    HW119262   4.248   0.568   5.792
 6173SOL    HW219263   4.105   0.535   5.758
 6174SOL     OW19264   3.871   1.140   7.059
 6174SOL    HW119265   3.872   1.088   7.139
 6174SOL    HW219266   3.886   1.077   6.988
 6175SOL     OW19267   3.809   1.269   6.599
 6175SOL    HW119268   3.793   1.279   6.693
 6175SOL    HW219269   3.737   1.213   6.569
 6176SOL     OW19270   4.389   1.651   7.287
 6176SOL    HW119271   4.355   1.737   7.313
 6176SOL    HW219272   4.431   1.667   7.203
 6177SOL     OW19273   3.861   1.797   7.429
 6177SOL    HW119274   3.809   1.732   7.478
 6177SOL    HW219275   3.908   1.845   7.497
 6178SOL     OW19276   3.989   0.326   6.303
 6178SOL    HW119277   3.902   0.358   6.278
 6178SOL    HW219278   3.984   0.315   6.398
 6179SOL     OW19279   4.088   1.307   7.076
 6179SOL    HW119280   4.069   1.383   7.021
 6179SOL    HW219281   4.016   1.246   7.061
 6180SOL     OW19282   4.326   1.490   6.066
 6180SOL    HW119283   4.342   1.430   5.993
 6180SOL    HW219284   4.259   1.550   6.034
 6181SOL     OW19285   3.984   1.349   5.873
 6181SOL    HW119286   3.891   1.345   5.850
 6181SOL    HW219287   3.985   1.385   5.961
 6182SOL     OW19288   3.836   1.022   7.306
 6182SOL    HW119289   3.760   0.998   7.358
 6182SOL    HW219290   3.910   0.985   7.353
 6183SOL     OW19291   4.369   0.205   7.075
 6183SOL    HW119292   4.460   0.223   7.049
 6183SOL    HW219293   4.376   0.176   7.166
 6184SOL     OW19294   3.805   0.339   5.633
 6184SOL    HW119295   3.734   0.286   5.598
 6184SOL    HW219296   3.818   0.408   5.569
 6185SOL     OW19297   3.788   0.182   5.905
 6185SOL    HW119298   3.787   0.249   5.837
 6185SOL    HW219299   3.864   0.128   5.884
 6186SOL     OW19300   4.338   0.840   7.021
 6186SOL    HW119301   4.378   0.925   7.005
 6186SOL    HW219302   4.411   0.781   7.039
 6187SOL     OW19303   4.397   0.559   7.319
 6187SOL    HW119304   4.421   0.634   7.374
 6187SOL    HW219305   4.481   0.520   7.294
 6188SOL     OW19306   4.108   1.739   7.147
 6188SOL    HW119307   4.022   1.780   7.133
 6188SOL    HW219308   4.088   1.657   7.193
 6189SOL     OW19309   4.309   0.731   6.252
 6189SOL    HW119310   4.350   0.816   6.240
 6189SOL    HW219311   4.240   0.728   6.187
 6190SOL     OW19312   3.943   1.307   7.440
 6190SOL    HW119313   3.878   1.243   7.412
 6190SOL    HW219314   3.928   1.317   7.534
 6191SOL     OW19315   3.809   1.234   6.251
 6191SOL    HW119316   3.811   1.186   6.333
 6191SOL    HW219317   3.877   1.194   6.197
 6192SOL     OW19318   4.416   1.386   7.245
 6192SOL    HW119319   4.326   1.353   7.240
 6192SOL    HW219320   4.407   1.480   7.260
 6193SOL     OW19321   4.165   0.435   6.119
 6193SOL    HW119322   4.184   0.366   6.055
 6193SOL    HW219323   4.109   0.393   6.184
 6194SOL     OW19324   4.053   0.556   6.875
 6194SOL    HW119325   4.106   0.497   6.929
 6194SOL    HW219326   4.072   0.529   6.785
 6195SOL     OW19327   0.037   1.599   6.272
 6195SOL    HW119328   0.059   1.660   6.202
 6195SOL    HW219329   4.466   1.545   6.235
 6196SOL     OW19330   3.768   1.071   5.892
 6196SOL    HW119331   3.862   1.061   5.874
 6196SOL    HW219332   3.739   0.983   5.915
 6197SOL     OW19333   3.954   0.627   7.568
 6197SOL    HW119334   3.867   0.619   7.607
 6197SOL    HW219335   3.943   0.595   7.478
 6198SOL     OW19336   3.930   0.303   8.437
 6198SOL    HW119337   3.964   0.272   8.521
 6198SOL    HW219338   3.850   0.252   8.424
 6199SOL     OW19339   3.731   0.387   8.086
 6199SOL    HW119340   3.645   0.405   8.123
 6199SOL    HW219341   3.717   0.312   8.028
 6200SOL     OW19342   4.267   1.246   8.593
 6200SOL    HW119343   4.196   1.307   8.571
 6200SOL    HW219344   4.333   1.300   8.637
 6201SOL     OW19345   0.021   0.778   9.305
 6201SOL    HW119346   0.070   0.824   9.374
 6201SOL    HW219347   0.063   0.806   9.224
 6202SOL     OW19348   4.398   0.992   8.085
 6202SOL    HW119349   4.472   0.987   8.146
 6202SOL    HW219350   4.336   1.051   8.128
 6203SOL     OW19351   4.419   1.161   9.261
 6203SOL    HW119352   4.459   1.242   9.229
 6203SOL    HW219353   4.327   1.169   9.236
 6204SOL     OW19354   4.060   1.432   8.517
 6204SOL    HW119355   3.988   1.389   8.472
 6204SOL    HW219356   4.106   1.481   8.448
 6205SOL     OW19357   4.163   0.396   8.935
 6205SOL    HW119358   4.242   0.342   8.936
 6205SOL    HW219359   4.092   0.333   8.948
 6206SOL     OW19360   3.942   1.714   7.922
 6206SOL    HW119361   3.963   1.790   7.975
 6206SOL    HW219362   4.016   1.706   7.861
 6207SOL     OW19363   3.954   1.441   7.982
 6207SOL    HW119364   3.935   1.535   7.988
 6207SOL    HW219365   3.895   1.401   8.045
 6208SOL     OW19366   3.975   1.088   8.334
 6208SOL    HW119367   3.979   1.004   8.379
 6208SOL    HW219368   3.923   1.143   8.393
 6209SOL     OW19369   4.361   1.798   8.902
 6209SOL    HW119370   4.274   1.764   8.926
 6209SOL    HW219371   4.350   1.893   8.902
 6210SOL     OW19372   4.310   0.985   7.586
 6210SOL    HW119373   4.339   1.038   7.512
 6210SOL    HW219374   4.377   0.997   7.653
 6211SOL     OW19375   3.839   0.652   8.008
 6211SOL    HW119376   3.810   0.564   8.030
 6211SOL    HW219377   3.831   0.701   8.089
 6212SOL     OW19378   3.757   1.595   7.572
 6212SOL    HW119379   3.738   1.503   7.591
 6212SOL    HW219380   3.732   1.642   7.652
 6213SOL     OW19381   3.845   0.744   9.033
 6213SOL    HW119382   3.937   0.770   9.043
 6213SOL    HW219383   3.796   0.826   9.039
 6214SOL     OW19384   4.310   1.387   8.185
 6214SOL    HW119385   4.275   1.299   8.189
 6214SOL    HW219386   4.312   1.409   8.092
 6215SOL     OW19387   0.019   0.017   7.960
 6215SOL    HW119388   0.048   0.079   7.893
 6215SOL    HW219389   4.428   0.042   7.978
 6216SOL     OW19390   3.912   0.965   8.720
 6216SOL    HW119391   3.998   0.926   8.702
 6216SOL    HW219392   3.850   0.912   8.670
 6217SOL     OW19393   4.039   0.252   9.232
 6217SOL    HW119394   4.101   0.319   9.262
 6217SOL    HW219395   3.965   0.260   9.292
 6218SOL     OW19396   4.312   0.728   7.718
 6218SOL    HW119397   4.309   0.806   7.662
 6218SOL    HW219398   4.245   0.743   7.784
 6219SOL     OW19399   3.812   0.821   8.224
 6219SOL    HW119400   3.893   0.813   8.274
 6219SOL    HW219401   3.770   0.900   8.258
 6220SOL     OW19402   3.853   1.845   9.025
 6220SOL    HW119403   3.852   1.825   9.119
 6220SOL    HW219404   3.761   1.840   8.999
 6221SOL     OW19405   4.244   0.202   8.345
 6221SOL    HW119406   4.284   0.220   8.430
 6221SOL    HW219407   4.262   0.281   8.293
 6222SOL     OW19408   4.082   1.812   8.310
 6222SOL    HW119409   4.131   1.730   8.318
 6222SOL    HW219410   4.148   1.880   8.322
 6223SOL     OW19411   4.043   0.958   7.698
 6223SOL    HW119412   4.125   0.976   7.653
 6223SOL    HW219413   4.013   0.875   7.660
 6224SOL     OW19414   4.178   1.252   9.183
 6224SOL    HW119415   4.151   1.264   9.091
 6224SOL    HW219416   4.097   1.262   9.233
 6225SOL     OW19417   3.912   0.269   8.960
 6225SOL    HW119418   3.845   0.335   8.943
 6225SOL    HW219419   3.923   0.270   9.055
 6226SOL     OW19420   4.192   1.735   7.773
 6226SOL    HW119421   4.224   1.795   7.840
 6226SOL    HW219422   4.261   1.732   7.707
 6227SOL     OW19423   3.980   1.793   8.680
 6227SOL    HW119424   4.027   1.723   8.726
 6227SOL    HW219425   3.966   1.759   8.592
 6228SOL     OW19426   4.111   0.694   7.921
 6228SOL    HW119427   4.136   0.603   7.935
 6228SOL    HW219428   4.018   0.697   7.942
 6229SOL     OW19429   4.327   0.121   7.565
 6229SOL    HW119430   4.413   0.080   7.577
 6229SOL    HW219431   4.302   0.100   7.475
 6230SOL     OW19432   0.020   1.422   8.360
 6230SOL    HW119433   0.083   1.465   8.302
 6230SOL    HW219434   4.444   1.404   8.304
 6231SOL     OW19435   4.271   0.109   7.987
 6231SOL    HW119436   4.187   0.068   8.008
 6231SOL    HW219437   4.254   0.160   7.908
 6232SOL     OW19438   4.023   0.072   7.645
 6232SOL    HW119439   4.103   0.121   7.627
 6232SOL    HW219440   4.052   0.000   7.702
 6233SOL     OW19441   0.324   0.677   8.908
 6233SOL    HW119442   0.253   0.616   8.889
 6233SOL    HW219443   0.404   0.627   8.892
 6234SOL     OW19444   4.190   1.145   8.181
 6234SOL    HW119445   4.121   1.126   8.245
 6234SOL    HW219446   4.149   1.128   8.096
 6235SOL     OW19447   3.806   0.550   8.843
 6235SOL    HW119448   3.897   0.554   8.812
 6235SOL    HW219449   3.799   0.622   8.905
 6236SOL     OW19450   4.297   0.237   8.608
 6236SOL    HW119451   4.304   0.144   8.628
 6236SOL    HW219452   4.209   0.260   8.637
 6237SOL     OW19453   4.230   1.386   7.621
 6237SOL    HW119454   4.146   1.372   7.663
 6237SOL    HW219455   4.209   1.402   7.529
 6238SOL     OW19456   4.244   0.271   7.771
 6238SOL    HW119457   4.284   0.215   7.705
 6238SOL    HW219458   4.224   0.352   7.725
 6239SOL     OW19459   4.140   0.814   8.698
 6239SOL    HW119460   4.207   0.824   8.765
 6239SOL    HW219461   4.106   0.726   8.711
 6240SOL     OW19462   3.793   1.573   8.801
 6240SOL    HW119463   3.761   1.644   8.746
 6240SOL    HW219464   3.888   1.579   8.794
 6241SOL     OW19465   4.071   1.109   7.938
 6241SOL    HW119466   4.073   1.181   7.875
 6241SOL    HW219467   4.069   1.030   7.883
 6242SOL     OW19468   4.302   0.539   8.311
 6242SOL    HW119469   4.301   0.605   8.241
 6242SOL    HW219470   4.365   0.572   8.375
 6243SOL     OW19471   4.072   1.534   8.764
 6243SOL    HW119472   4.066   1.490   8.679
 6243SOL    HW219473   4.166   1.535   8.784
 6244SOL     OW19474   4.137   0.741   9.053
 6244SOL    HW119475   4.195   0.787   8.992
 6244SOL    HW219476   4.184   0.659   9.073
 6245SOL     OW19477   4.238   0.070   9.174
 6245SOL    HW119478   4.205   4.486   9.143
 6245SOL    HW219479   4.160   0.123   9.190
 6246SOL     OW19480   4.291   0.890   8.474
 6246SOL    HW119481   4.319   0.980   8.489
 6246SOL    HW219482   4.243   0.866   8.554
 6247SOL     OW19483   4.014   0.237   8.689
 6247SOL    HW119484   3.971   0.249   8.773
 6247SOL    HW219485   4.051   0.149   8.692
 6248SOL     OW19486   3.771   1.311   8.725
 6248SOL    HW119487   3.803   1.256   8.797
 6248SOL    HW219488   3.776   1.400   8.758
 6249SOL     OW19489   4.013   0.055   8.106
 6249SOL    HW119490   4.007   0.151   8.106
 6249SOL    HW219491   4.027   0.031   8.197
 6250SOL     OW19492   4.077   0.916   9.255
 6250SOL    HW119493   4.158   0.931   9.304
 6250SOL    HW219494   4.099   0.851   9.189
 6251SOL     OW19495   4.031   0.809   8.394
 6251SOL    HW119496   4.123   0.837   8.394
 6251SOL    HW219497   4.034   0.719   8.425
 6252SOL     OW19498   4.068   0.532   8.458
 6252SOL    HW119499   4.024   0.449   8.439
 6252SOL    HW219500   4.146   0.531   8.403
 6253SOL     OW19501   3.729   1.321   7.643
 6253SOL    HW119502   3.642   1.335   7.605
 6253SOL    HW219503   3.727   1.232   7.677
 6254SOL     OW19504   3.816   1.788   8.386
 6254SOL    HW119505   3.786   1.708   8.342
 6254SOL    HW219506   3.905   1.800   8.355
 6255SOL     OW19507   4.232   1.583   8.353
 6255SOL    HW119508   4.318   1.614   8.383
 6255SOL    HW219509   4.252   1.513   8.292
 6256SOL     OW19510   3.757   0.544   8.566
 6256SOL    HW119511   3.832   0.519   8.512
 6256SOL    HW219512   3.791   0.547   8.655
 6257SOL     OW19513   3.909   0.519   9.169
 6257SOL    HW119514   3.984   0.499   9.112
 6257SOL    HW219515   3.867   0.594   9.128
 6258SOL     OW19516   0.029   0.550   7.711
 6258SOL    HW119517   0.020   0.488   7.783
 6258SOL    HW219518   4.463   0.617   7.729
 6259SOL     OW19519   3.970   1.553   9.176
 6259SOL    HW119520   3.943   1.617   9.242
 6259SOL    HW219521   3.967   1.469   9.221
 6260SOL     OW19522   4.190   0.495   7.632
 6260SOL    HW119523   4.248   0.568   7.654
 6260SOL    HW219524   4.104   0.535   7.620
 6261SOL     OW19525   3.871   1.140   8.920
 6261SOL    HW119526   3.872   1.088   9.001
 6261SOL    HW219527   3.887   1.077   8.850
 6262SOL     OW19528   3.809   1.269   8.461
 6262SOL    HW119529   3.793   1.279   8.555
 6262SOL    HW219530   3.737   1.213   8.431
 6263SOL     OW19531   4.389   1.651   9.149
 6263SOL    HW119532   4.355   1.737   9.175
 6263SOL    HW219533   4.432   1.667   9.065
 6264SOL     OW19534   3.861   1.797   9.291
 6264SOL    HW119535   3.809   1.732   9.340
 6264SOL    HW219536   3.908   1.845   9.359
 6265SOL     OW19537   3.989   0.326   8.164
 6265SOL    HW119538   3.902   0.358   8.140
 6265SOL    HW219539   3.985   0.315   8.260
 6266SOL     OW19540   4.088   1.306   8.938
 6266SOL    HW119541   4.069   1.383   8.883
 6266SOL    HW219542   4.016   1.246   8.922
 6267SOL     OW19543   4.326   1.490   7.928
 6267SOL    HW119544   4.342   1.431   7.855
 6267SOL    HW219545   4.259   1.550   7.895
 6268SOL     OW19546   3.984   1.350   7.734
 6268SOL    HW119547   3.891   1.345   7.712
 6268SOL    HW219548   3.986   1.385   7.823
 6269SOL     OW19549   3.836   1.022   9.168
 6269SOL    HW119550   3.760   0.998   9.220
 6269SOL    HW219551   3.910   0.985   9.215
 6270SOL     OW19552   4.369   0.206   8.937
 6270SOL    HW119553   4.460   0.223   8.911
 6270SOL    HW219554   4.376   0.176   9.028
 6271SOL     OW19555   3.805   0.340   7.496
 6271SOL    HW119556   3.734   0.286   7.460
 6271SOL    HW219557   3.818   0.408   7.430
 6272SOL     OW19558   3.788   0.182   7.767
 6272SOL    HW119559   3.787   0.249   7.699
 6272SOL    HW219560   3.864   0.128   7.746
 6273SOL     OW19561   4.338   0.840   8.883
 6273SOL    HW119562   4.378   0.925   8.868
 6273SOL    HW219563   4.411   0.781   8.901
 6274SOL     OW19564   4.397   0.559   9.181
 6274SOL    HW119565   4.421   0.634   9.236
 6274SOL    HW219566   4.481   0.520   9.156
 6275SOL     OW19567   4.108   1.739   9.008
 6275SOL    HW119568   4.022   1.780   8.995
 6275SOL    HW219569   4.088   1.657   9.055
 6276SOL     OW19570   4.309   0.731   8.114
 6276SOL    HW119571   4.350   0.816   8.102
 6276SOL    HW219572   4.240   0.728   8.048
 6277SOL     OW19573   3.943   1.307   9.303
 6277SOL    HW119574   3.878   1.243   9.275
 6277SOL    HW219575   3.928   1.317   9.396
 6278SOL     OW19576   3.809   1.234   8.113
 6278SOL    HW119577   3.812   1.186   8.196
 6278SOL    HW219578   3.877   1.194   8.059
 6279SOL     OW19579   4.416   1.386   9.107
 6279SOL    HW119580   4.326   1.353   9.102
 6279SOL    HW219581   4.407   1.480   9.122
 6280SOL     OW19582   4.165   0.435   7.981
 6280SOL    HW119583   4.183   0.366   7.917
 6280SOL    HW219584   4.109   0.393   8.046
 6281SOL     OW19585   4.053   0.556   8.737
 6281SOL    HW119586   4.106   0.497   8.791
 6281SOL    HW219587   4.072   0.529   8.647
 6282SOL     OW19588   0.037   1.599   8.134
 6282SOL    HW119589   0.059   1.660   8.064
 6282SOL    HW219590   4.466   1.546   8.097
 6283SOL     OW19591   3.768   1.071   7.753
 6283SOL    HW119592   3.862   1.061   7.736
 6283SOL    HW219593   3.739   0.983   7.777
 6284SOL     OW19594   3.954   0.627   9.430
 6284SOL    HW119595   3.867   0.619   9.469
 6284SOL    HW219596   3.943   0.595   9.340
 6285SOL     OW19597   3.930   0.303  10.299
 6285SOL    HW119598   3.964   0.272  10.382
 6285SOL    HW219599   3.850   0.252  10.286
 6286SOL     OW19600   3.731   0.387   9.948
 6286SOL    HW119601   3.645   0.405   9.985
 6286SOL    HW219602   3.717   0.312   9.890
 6287SOL     OW19603   4.267   1.246  10.456
 6287SOL    HW119604   4.197   1.306  10.433
 6287SOL    HW219605   4.333   1.301  10.499
 6288SOL     OW19606   0.024   0.811   0.079
 6288SOL    HW119607   0.102   0.848   0.121
 6288SOL    HW219608   0.051   0.792  11.090
 6289SOL     OW19609   4.398   0.992   9.947
 6289SOL    HW119610   4.472   0.986  10.008
 6289SOL    HW219611   4.336   1.051   9.990
 6290SOL     OW19612   4.061   1.432  10.379
 6290SOL    HW119613   3.988   1.389  10.334
 6290SOL    HW219614   4.106   1.481  10.310
 6291SOL     OW19615   4.175   0.397  10.794
 6291SOL    HW119616   4.244   0.331  10.796
 6291SOL    HW219617   4.095   0.350  10.818
 6292SOL     OW19618   3.942   1.714   9.784
 6292SOL    HW119619   3.963   1.790   9.837
 6292SOL    HW219620   4.016   1.706   9.723
 6293SOL     OW19621   3.954   1.441   9.844
 6293SOL    HW119622   3.935   1.534   9.850
 6293SOL    HW219623   3.895   1.401   9.907
 6294SOL     OW19624   3.975   1.088  10.197
 6294SOL    HW119625   3.979   1.004  10.241
 6294SOL    HW219626   3.923   1.144  10.254
 6295SOL     OW19627   4.355   1.800  10.754
 6295SOL    HW119628   4.268   1.770  10.781
 6295SOL    HW219629   4.352   1.895  10.766
 6296SOL     OW19630   4.310   0.985   9.448
 6296SOL    HW119631   4.339   1.038   9.374
 6296SOL    HW219632   4.377   0.997   9.515
 6297SOL     OW19633   3.839   0.652   9.870
 6297SOL    HW119634   3.810   0.564   9.892
 6297SOL    HW219635   3.831   0.701   9.952
 6298SOL     OW19636   3.756   1.595   9.434
 6298SOL    HW119637   3.738   1.503   9.453
 6298SOL    HW219638   3.732   1.642   9.514
 6299SOL     OW19639   3.849   0.726  10.915
 6299SOL    HW119640   3.941   0.750  10.907
 6299SOL    HW219641   3.802   0.810  10.908
 6300SOL     OW19642   4.311   1.387  10.047
 6300SOL    HW119643   4.275   1.298  10.051
 6300SOL    HW219644   4.312   1.409   9.954
 6301SOL     OW19645   0.018   0.016   9.821
 6301SOL    HW119646   0.048   0.079   9.755
 6301SOL    HW219647   4.428   0.042   9.840
 6302SOL     OW19648   3.912   0.964  10.580
 6302SOL    HW119649   3.997   0.924  10.561
 6302SOL    HW219650   3.849   0.910  10.531
 6303SOL     OW19651   4.057   0.277  11.088
 6303SOL    HW119652   4.115   0.337   0.036
 6303SOL    HW219653   3.973   0.284   0.033
 6304SOL     OW19654   4.312   0.728   9.580
 6304SOL    HW119655   4.309   0.806   9.524
 6304SOL    HW219656   4.245   0.743   9.646
 6305SOL     OW19657   3.812   0.821  10.086
 6305SOL    HW119658   3.893   0.813  10.136
 6305SOL    HW219659   3.770   0.900  10.120
 6306SOL     OW19660   3.854   1.845  10.897
 6306SOL    HW119661   3.836   1.805  10.982
 6306SOL    HW219662   3.770   1.841  10.851
 6307SOL     OW19663   4.243   0.203  10.211
 6307SOL    HW119664   4.288   0.223  10.293
 6307SOL    HW219665   4.261   0.279  10.155
 6308SOL     OW19666   4.082   1.812  10.172
 6308SOL    HW119667   4.131   1.730  10.180
 6308SOL    HW219668   4.148   1.880  10.184
 6309SOL     OW19669   4.043   0.958   9.560
 6309SOL    HW119670   4.125   0.976   9.515
 6309SOL    HW219671   4.013   0.875   9.522
 6310SOL     OW19672   4.178   1.262  11.054
 6310SOL    HW119673   4.152   1.276  10.963
 6310SOL    HW219674   4.107   1.211  11.092
 6311SOL     OW19675   3.922   0.272  10.815
 6311SOL    HW119676   3.848   0.332  10.807
 6311SOL    HW219677   3.935   0.262  10.909
 6312SOL     OW19678   4.192   1.735   9.635
 6312SOL    HW119679   4.224   1.795   9.702
 6312SOL    HW219680   4.261   1.732   9.569
 6313SOL     OW19681   3.980   1.793  10.543
 6313SOL    HW119682   4.027   1.723  10.589
 6313SOL    HW219683   3.967   1.759  10.455
 6314SOL     OW19684   4.111   0.694   9.783
 6314SOL    HW119685   4.136   0.603   9.797
 6314SOL    HW219686   4.018   0.697   9.804
 6315SOL     OW19687   4.327   0.121   9.427
 6315SOL    HW119688   4.413   0.080   9.439
 6315SOL    HW219689   4.303   0.100   9.337
 6316SOL     OW19690   0.020   1.422  10.222
 6316SOL    HW119691   0.083   1.465  10.164
 6316SOL    HW219692   4.444   1.404  10.166
 6317SOL     OW19693   4.271   0.109   9.850
 6317SOL    HW119694   4.187   0.068   9.870
 6317SOL    HW219695   4.254   0.160   9.770
 6318SOL     OW19696   4.023   0.072   9.507
 6318SOL    HW119697   4.103   0.121   9.489
 6318SOL    HW219698   4.052   0.000   9.564
 6319SOL     OW19699   0.310   0.680  10.773
 6319SOL    HW119700   0.249   0.607  10.770
 6319SOL    HW219701   0.396   0.640  10.757
 6320SOL     OW19702   4.190   1.145  10.043
 6320SOL    HW119703   4.121   1.126  10.107
 6320SOL    HW219704   4.149   1.128   9.958
 6321SOL     OW19705   3.805   0.549  10.707
 6321SOL    HW119706   3.895   0.554  10.677
 6321SOL    HW219707   3.800   0.614  10.778
 6322SOL     OW19708   4.298   0.235  10.477
 6322SOL    HW119709   4.300   0.140  10.483
 6322SOL    HW219710   4.208   0.259  10.499
 6323SOL     OW19711   4.230   1.386   9.483
 6323SOL    HW119712   4.146   1.372   9.525
 6323SOL    HW219713   4.209   1.402   9.391
 6324SOL     OW19714   4.244   0.271   9.633
 6324SOL    HW119715   4.284   0.215   9.567
 6324SOL    HW219716   4.224   0.352   9.587
 6325SOL     OW19717   4.141   0.813  10.559
 6325SOL    HW119718   4.208   0.823  10.626
 6325SOL    HW219719   4.106   0.725  10.572
 6326SOL     OW19720   3.794   1.576  10.662
 6326SOL    HW119721   3.762   1.646  10.604
 6326SOL    HW219722   3.889   1.579  10.653
 6327SOL     OW19723   4.071   1.109   9.800
 6327SOL    HW119724   4.073   1.181   9.737
 6327SOL    HW219725   4.069   1.030   9.745
 6328SOL     OW19726   4.302   0.539  10.174
 6328SOL    HW119727   4.302   0.605  10.104
 6328SOL    HW219728   4.366   0.570  10.237
 6329SOL     OW19729   4.072   1.532  10.627
 6329SOL    HW119730   4.067   1.488  10.542
 6329SOL    HW219731   4.165   1.534  10.647
 6330SOL     OW19732   4.135   0.736  10.904
 6330SOL    HW119733   4.198   0.780  10.848
 6330SOL    HW219734   4.164   0.644  10.905
 6331SOL     OW19735   4.291   0.890  10.336
 6331SOL    HW119736   4.319   0.981  10.351
 6331SOL    HW219737   4.243   0.867  10.415
 6332SOL     OW19738   4.015   0.237  10.549
 6332SOL    HW119739   3.975   0.251  10.635
 6332SOL    HW219740   4.049   0.148  10.553
 6333SOL     OW19741   3.774   1.312  10.586
 6333SOL    HW119742   3.801   1.256  10.658
 6333SOL    HW219743   3.775   1.401  10.622
 6334SOL     OW19744   4.012   0.055   9.968
 6334SOL    HW119745   4.007   0.150   9.968
 6334SOL    HW219746   4.027   0.031  10.059
 6335SOL     OW19747   4.081   0.917  11.095
 6335SOL    HW119748   4.164   0.934   0.038
 6335SOL    HW219749   4.100   0.851  11.029
 6336SOL     OW19750   4.031   0.809  10.256
 6336SOL    HW119751   4.123   0.837  10.255
 6336SOL    HW219752   4.034   0.718  10.287
 6337SOL     OW19753   4.068   0.532  10.321
 6337SOL    HW119754   4.024   0.449  10.301
 6337SOL    HW219755   4.146   0.532  10.266
 6338SOL     OW19756   3.729   1.321   9.505
 6338SOL    HW119757   3.642   1.335   9.467
 6338SOL    HW219758   3.727   1.232   9.539
 6339SOL     OW19759   3.816   1.788  10.248
 6339SOL    HW119760   3.785   1.708  10.204
 6339SOL    HW219761   3.905   1.800  10.217
 6340SOL     OW19762   4.232   1.583  10.215
 6340SOL    HW119763   4.318   1.614  10.245
 6340SOL    HW219764   4.252   1.513  10.154
 6341SOL     OW19765   3.757   0.544  10.428
 6341SOL    HW119766   3.833   0.519  10.375
 6341SOL    HW219767   3.790   0.547  10.518
 6342SOL     OW19768   0.029   0.550   9.573
 6342SOL    HW119769   0.021   0.488   9.645
 6342SOL    HW219770   4.463   0.617   9.591
 6343SOL     OW19771   3.978   1.567  11.052
 6343SOL    HW119772   3.920   1.598   0.022
 6343SOL    HW219773   3.983   1.472  11.067
 6344SOL     OW19774   4.190   0.495   9.494
 6344SOL    HW119775   4.248   0.568   9.516
 6344SOL    HW219776   4.104   0.535   9.482
 6345SOL     OW19777   3.877   1.138  10.780
 6345SOL    HW119778   3.869   1.083  10.858
 6345SOL    HW219779   3.889   1.075  10.708
 6346SOL     OW19780   3.809   1.270  10.322
 6346SOL    HW119781   3.795   1.280  10.416
 6346SOL    HW219782   3.737   1.213  10.294
 6347SOL     OW19783   4.392   1.667  11.004
 6347SOL    HW119784   4.312   1.716  10.986
 6347SOL    HW219785   4.430   1.651  10.917
 6348SOL     OW19786   3.989   0.325  10.027
 6348SOL    HW119787   3.902   0.358  10.002
 6348SOL    HW219788   3.985   0.315  10.122
 6349SOL     OW19789   4.083   1.310  10.810
 6349SOL    HW119790   4.071   1.382  10.748
 6349SOL    HW219791   4.015   1.247  10.789
 6350SOL     OW19792   4.326   1.490   9.790
 6350SOL    HW119793   4.343   1.431   9.717
 6350SOL    HW219794   4.259   1.550   9.757
 6351SOL     OW19795   3.984   1.350   9.596
 6351SOL    HW119796   3.891   1.345   9.574
 6351SOL    HW219797   3.986   1.385   9.685
 6352SOL     OW19798   3.838   1.012  11.019
 6352SOL    HW119799   3.768   0.999  11.083
 6352SOL    HW219800   3.917   0.982  11.063
 6353SOL     OW19801   4.376   0.186  10.816
 6353SOL    HW119802   4.443   0.207  10.751
 6353SOL    HW219803   4.416   0.211  10.899
 6354SOL     OW19804   3.805   0.340   9.358
 6354SOL    HW119805   3.734   0.286   9.322
 6354SOL    HW219806   3.818   0.408   9.292
 6355SOL     OW19807   3.788   0.182   9.629
 6355SOL    HW119808   3.787   0.249   9.561
 6355SOL    HW219809   3.864   0.128   9.608
 6356SOL     OW19810   4.338   0.839  10.745
 6356SOL    HW119811   4.375   0.926  10.729
 6356SOL    HW219812   4.414   0.782  10.755
 6357SOL     OW19813   4.115   1.734  10.873
 6357SOL    HW119814   4.036   1.788  10.864
 6357SOL    HW219815   4.087   1.660  10.926
 6358SOL     OW19816   4.309   0.731   9.976
 6358SOL    HW119817   4.351   0.816   9.964
 6358SOL    HW219818   4.240   0.728   9.911
 6359SOL     OW19819   3.808   1.234   9.975
 6359SOL    HW119820   3.812   1.186  10.058
 6359SOL    HW219821   3.877   1.194   9.921
 6360SOL     OW19822   4.407   1.392  10.944
 6360SOL    HW119823   4.331   1.343  10.975
 6360SOL    HW219824   4.399   1.477  10.985
 6361SOL     OW19825   4.164   0.435   9.843
 6361SOL    HW119826   4.183   0.366   9.779
 6361SOL    HW219827   4.109   0.393   9.908
 6362SOL     OW19828   4.054   0.556  10.600
 6362SOL    HW119829   4.107   0.496  10.652
 6362SOL    HW219830   4.071   0.530  10.509
 6363SOL     OW19831   0.037   1.599   9.996
 6363SOL    HW119832   0.059   1.660   9.926
 6363SOL    HW219833   4.466   1.546   9.959
 6364SOL     OW19834   3.768   1.071   9.615
 6364SOL    HW119835   3.862   1.061   9.598
 6364SOL    HW219836   3.739   0.983   9.639
 6365SOL     OW19837   3.948   2.476   0.116
 6365SOL    HW119838   3.864   2.480   0.160
 6365SOL    HW219839   3.929   2.503   0.026
 6366SOL     OW19840   3.947   2.147   0.991
 6366SOL    HW119841   3.979   2.111   1.074
 6366SOL    HW219842   3.858   2.112   0.982
 6367SOL     OW19843   3.728   2.245   0.638
 6367SOL    HW119844   3.645   2.269   0.679
 6367SOL    HW219845   3.708   2.165   0.589
 6368SOL     OW19846   4.266   3.108   1.147
 6368SOL    HW119847   4.197   3.169   1.123
 6368SOL    HW219848   4.333   3.163   1.188
 6369SOL     OW19849   0.020   2.642   1.857
 6369SOL    HW119850   0.071   2.685   1.925
 6369SOL    HW219851   0.064   2.665   1.775
 6370SOL     OW19852   4.397   2.853   0.637
 6370SOL    HW119853   4.473   2.850   0.695
 6370SOL    HW219854   4.336   2.912   0.680
 6371SOL     OW19855   4.419   3.023   1.813
 6371SOL    HW119856   4.460   3.104   1.781
 6371SOL    HW219857   4.327   3.031   1.789
 6372SOL     OW19858   4.060   3.294   1.069
 6372SOL    HW119859   3.988   3.252   1.023
 6372SOL    HW219860   4.107   3.343   1.000
 6373SOL     OW19861   4.171   2.261   1.484
 6373SOL    HW119862   4.245   2.201   1.489
 6373SOL    HW219863   4.094   2.206   1.499
 6374SOL     OW19864   3.942   3.575   0.475
 6374SOL    HW119865   3.963   3.653   0.527
 6374SOL    HW219866   4.012   3.570   0.410
 6375SOL     OW19867   3.951   3.302   0.532
 6375SOL    HW119868   3.936   3.397   0.536
 6375SOL    HW219869   3.891   3.265   0.597
 6376SOL     OW19870   3.974   2.950   0.886
 6376SOL    HW119871   3.979   2.866   0.931
 6376SOL    HW219872   3.923   3.006   0.945
 6377SOL     OW19873   4.361   3.659   1.454
 6377SOL    HW119874   4.275   3.626   1.478
 6377SOL    HW219875   4.351   3.755   1.455
 6378SOL     OW19876   4.298   2.866   0.139
 6378SOL    HW119877   4.313   2.933   0.071
 6378SOL    HW219878   4.379   2.866   0.190
 6379SOL     OW19879   3.838   2.513   0.560
 6379SOL    HW119880   3.808   2.425   0.582
 6379SOL    HW219881   3.830   2.562   0.641
 6380SOL     OW19882   3.769   3.463   0.120
 6380SOL    HW119883   3.741   3.375   0.144
 6380SOL    HW219884   3.742   3.518   0.193
 6381SOL     OW19885   3.846   2.604   1.586
 6381SOL    HW119886   3.938   2.628   1.596
 6381SOL    HW219887   3.798   2.687   1.593
 6382SOL     OW19888   4.310   3.249   0.738
 6382SOL    HW119889   4.275   3.160   0.741
 6382SOL    HW219890   4.311   3.271   0.644
 6383SOL     OW19891   0.022   1.873   0.531
 6383SOL    HW119892   0.053   1.929   0.461
 6383SOL    HW219893   4.427   1.885   0.531
 6384SOL     OW19894   3.912   2.828   1.272
 6384SOL    HW119895   3.998   2.788   1.254
 6384SOL    HW219896   3.850   2.773   1.223
 6385SOL     OW19897   4.057   2.112   1.810
 6385SOL    HW119898   4.101   2.196   1.826
 6385SOL    HW219899   3.968   2.125   1.842
 6386SOL     OW19900   4.309   2.580   0.270
 6386SOL    HW119901   4.329   2.656   0.216
 6386SOL    HW219902   4.245   2.612   0.334
 6387SOL     OW19903   3.812   2.683   0.775
 6387SOL    HW119904   3.893   2.675   0.825
 6387SOL    HW219905   3.770   2.762   0.810
 6388SOL     OW19906   3.853   3.708   1.577
 6388SOL    HW119907   3.852   3.688   1.671
 6388SOL    HW219908   3.761   3.701   1.551
 6389SOL     OW19909   4.252   2.053   0.881
 6389SOL    HW119910   4.271   2.059   0.974
 6389SOL    HW219911   4.262   2.142   0.848
 6390SOL     OW19912   4.082   3.674   0.863
 6390SOL    HW119913   4.131   3.592   0.870
 6390SOL    HW219914   4.148   3.742   0.873
 6391SOL     OW19915   4.040   2.821   0.275
 6391SOL    HW119916   4.120   2.845   0.227
 6391SOL    HW219917   4.014   2.738   0.237
 6392SOL     OW19918   4.178   3.114   1.735
 6392SOL    HW119919   4.151   3.126   1.644
 6392SOL    HW219920   4.097   3.124   1.785
 6393SOL     OW19921   3.924   2.144   1.502
 6393SOL    HW119922   3.842   2.193   1.495
 6393SOL    HW219923   3.906   2.076   1.566
 6394SOL     OW19924   4.193   3.594   0.328
 6394SOL    HW119925   4.224   3.657   0.392
 6394SOL    HW219926   4.265   3.586   0.265
 6395SOL     OW19927   3.979   3.655   1.232
 6395SOL    HW119928   4.027   3.585   1.277
 6395SOL    HW219929   3.966   3.621   1.144
 6396SOL     OW19930   4.108   2.556   0.475
 6396SOL    HW119931   4.135   2.465   0.489
 6396SOL    HW219932   4.015   2.557   0.498
 6397SOL     OW19933   4.347   1.990   0.111
 6397SOL    HW119934   4.434   1.953   0.126
 6397SOL    HW219935   4.317   1.949   0.030
 6398SOL     OW19936   0.020   3.283   0.912
 6398SOL    HW119937   0.082   3.328   0.854
 6398SOL    HW219938   4.444   3.265   0.856
 6399SOL     OW19939   4.260   1.927   0.500
 6399SOL    HW119940   4.181   1.930   0.553
 6399SOL    HW219941   4.256   2.005   0.446
 6400SOL     OW19942   4.009   1.911   0.199
 6400SOL    HW119943   4.052   1.965   0.133
 6400SOL    HW219944   4.075   1.847   0.225
 6401SOL     OW19945   0.325   2.535   1.451
 6401SOL    HW119946   0.254   2.472   1.440
 6401SOL    HW219947   0.405   2.483   1.448
 6402SOL     OW19948   4.191   3.007   0.736
 6402SOL    HW119949   4.122   2.988   0.799
 6402SOL    HW219950   4.150   2.992   0.651
 6403SOL     OW19951   3.803   2.416   1.392
 6403SOL    HW119952   3.894   2.415   1.364
 6403SOL    HW219953   3.798   2.487   1.457
 6404SOL     OW19954   4.283   2.074   1.149
 6404SOL    HW119955   4.326   2.007   1.203
 6404SOL    HW219956   4.197   2.084   1.188
 6405SOL     OW19957   4.236   3.262   0.190
 6405SOL    HW119958   4.151   3.248   0.232
 6405SOL    HW219959   4.221   3.244   0.098
 6406SOL     OW19960   4.249   2.132   0.324
 6406SOL    HW119961   4.285   2.076   0.255
 6406SOL    HW219962   4.226   2.213   0.279
 6407SOL     OW19963   4.140   2.674   1.250
 6407SOL    HW119964   4.206   2.685   1.317
 6407SOL    HW219965   4.105   2.586   1.264
 6408SOL     OW19966   3.793   3.435   1.353
 6408SOL    HW119967   3.761   3.506   1.297
 6408SOL    HW219968   3.889   3.441   1.346
 6409SOL     OW19969   4.070   2.979   0.496
 6409SOL    HW119970   4.071   3.052   0.435
 6409SOL    HW219971   4.066   2.901   0.441
 6410SOL     OW19972   4.300   2.400   0.864
 6410SOL    HW119973   4.300   2.466   0.795
 6410SOL    HW219974   4.365   2.431   0.927
 6411SOL     OW19975   4.072   3.395   1.316
 6411SOL    HW119976   4.066   3.352   1.231
 6411SOL    HW219977   4.166   3.397   1.336
 6412SOL     OW19978   4.136   2.605   1.604
 6412SOL    HW119979   4.196   2.649   1.544
 6412SOL    HW219980   4.179   2.520   1.622
 6413SOL     OW19981   4.232   1.914   1.734
 6413SOL    HW119982   4.186   1.854   1.675
 6413SOL    HW219983   4.167   1.981   1.754
 6414SOL     OW19984   4.290   2.752   1.026
 6414SOL    HW119985   4.319   2.842   1.041
 6414SOL    HW219986   4.243   2.729   1.106
 6415SOL     OW19987   4.024   2.062   1.247
 6415SOL    HW119988   3.985   2.094   1.329
 6415SOL    HW219989   4.005   1.969   1.247
 6416SOL     OW19990   3.769   3.173   1.277
 6416SOL    HW119991   3.803   3.118   1.348
 6416SOL    HW219992   3.776   3.262   1.310
 6417SOL     OW19993   4.020   1.928   0.626
 6417SOL    HW119994   4.005   2.019   0.650
 6417SOL    HW219995   4.032   1.883   0.709
 6418SOL     OW19996   4.076   2.777   1.809
 6418SOL    HW119997   4.158   2.793   1.855
 6418SOL    HW219998   4.099   2.713   1.741
 6419SOL     OW19999   4.031   2.670   0.946
 6419SOL    HW120000   4.122   2.698   0.946
 6419SOL    HW220001   4.033   2.580   0.978
 6420SOL     OW20002   4.063   2.389   1.009
 6420SOL    HW120003   4.027   2.302   0.993
 6420SOL    HW220004   4.142   2.391   0.955
 6421SOL     OW20005   3.732   3.189   0.194
 6421SOL    HW120006   3.645   3.201   0.156
 6421SOL    HW220007   3.732   3.099   0.226
 6422SOL     OW20008   3.816   3.650   0.939
 6422SOL    HW120009   3.786   3.570   0.895
 6422SOL    HW220010   3.905   3.662   0.907
 6423SOL     OW20011   4.232   3.445   0.906
 6423SOL    HW120012   4.318   3.476   0.934
 6423SOL    HW220013   4.252   3.375   0.843
 6424SOL     OW20014   3.759   2.406   1.116
 6424SOL    HW120015   3.839   2.390   1.066
 6424SOL    HW220016   3.789   2.410   1.207
 6425SOL     OW20017   3.915   2.381   1.727
 6425SOL    HW120018   3.972   2.343   1.660
 6425SOL    HW220019   3.871   2.454   1.684
 6426SOL     OW20020   0.028   2.408   0.266
 6426SOL    HW120021   0.019   2.350   0.342
 6426SOL    HW220022   4.464   2.478   0.281
 6427SOL     OW20023   3.970   3.415   1.728
 6427SOL    HW120024   3.943   3.479   1.794
 6427SOL    HW220025   3.967   3.331   1.773
 6428SOL     OW20026   4.188   2.352   0.177
 6428SOL    HW120027   4.245   2.423   0.206
 6428SOL    HW220028   4.101   2.392   0.168
 6429SOL     OW20029   3.870   3.002   1.472
 6429SOL    HW120030   3.872   2.950   1.552
 6429SOL    HW220031   3.887   2.939   1.402
 6430SOL     OW20032   3.808   3.131   1.013
 6430SOL    HW120033   3.793   3.141   1.107
 6430SOL    HW220034   3.737   3.074   0.983
 6431SOL     OW20035   4.389   3.513   1.701
 6431SOL    HW120036   4.355   3.599   1.728
 6431SOL    HW220037   4.433   3.530   1.618
 6432SOL     OW20038   3.861   3.658   1.843
 6432SOL    HW120039   3.810   3.594   1.892
 6432SOL    HW220040   3.907   3.708   1.910
 6433SOL     OW20041   3.986   2.182   0.716
 6433SOL    HW120042   3.899   2.215   0.694
 6433SOL    HW220043   3.984   2.171   0.811
 6434SOL     OW20044   4.088   3.169   1.491
 6434SOL    HW120045   4.069   3.244   1.435
 6434SOL    HW220046   4.015   3.108   1.474
 6435SOL     OW20047   4.324   3.352   0.481
 6435SOL    HW120048   4.343   3.296   0.406
 6435SOL    HW220049   4.258   3.413   0.450
 6436SOL     OW20050   3.990   3.204   0.288
 6436SOL    HW120051   3.902   3.204   0.250
 6436SOL    HW220052   3.980   3.242   0.375
 6437SOL     OW20053   3.836   2.884   1.720
 6437SOL    HW120054   3.760   2.860   1.772
 6437SOL    HW220055   3.910   2.846   1.766
 6438SOL     OW20056   4.390   2.068   1.494
 6438SOL    HW120057   4.478   2.065   1.457
 6438SOL    HW220058   4.403   2.056   1.588
 6439SOL     OW20059   3.808   2.206   0.048
 6439SOL    HW120060   3.731   2.171   0.002
 6439SOL    HW220061   3.824   2.291   0.007
 6440SOL     OW20062   3.790   2.021   0.314
 6440SOL    HW120063   3.781   2.102   0.264
 6440SOL    HW220064   3.873   1.983   0.284
 6441SOL     OW20065   4.337   2.701   1.435
 6441SOL    HW120066   4.380   2.785   1.420
 6441SOL    HW220067   4.409   2.640   1.450
 6442SOL     OW20068   4.398   2.418   1.738
 6442SOL    HW120069   4.421   2.495   1.790
 6442SOL    HW220070   4.482   2.384   1.709
 6443SOL     OW20071   4.107   3.601   1.560
 6443SOL    HW120072   4.022   3.642   1.547
 6443SOL    HW220073   4.088   3.519   1.606
 6444SOL     OW20074   4.309   2.592   0.666
 6444SOL    HW120075   4.350   2.678   0.656
 6444SOL    HW220076   4.239   2.591   0.601
 6445SOL     OW20077   3.943   3.169   1.855
 6445SOL    HW120078   3.878   3.105   1.827
 6445SOL    HW220079   3.928   3.179   1.948
 6446SOL     OW20080   3.808   3.095   0.666
 6446SOL    HW120081   3.814   3.046   0.748
 6446SOL    HW220082   3.878   3.059   0.612
 6447SOL     OW20083   4.416   3.248   1.659
 6447SOL    HW120084   4.327   3.215   1.654
 6447SOL    HW220085   4.406   3.342   1.674
 6448SOL     OW20086   4.161   2.296   0.532
 6448SOL    HW120087   4.181   2.226   0.469
 6448SOL    HW220088   4.105   2.253   0.597
 6449SOL     OW20089   4.053   2.415   1.289
 6449SOL    HW120090   4.107   2.359   1.344
 6449SOL    HW220091   4.074   2.388   1.200
 6450SOL     OW20092   0.035   3.460   0.687
 6450SOL    HW120093   0.062   3.521   0.617
 6450SOL    HW220094   4.465   3.409   0.647
 6451SOL     OW20095   3.766   2.933   0.301
 6451SOL    HW120096   3.862   2.927   0.297
 6451SOL    HW220097   3.738   2.845   0.326
 6452SOL     OW20098   3.954   2.485   1.985
 6452SOL    HW120099   3.865   2.484   2.019
 6452SOL    HW220100   3.945   2.459   1.893
 6453SOL     OW20101   3.947   2.147   2.853
 6453SOL    HW120102   3.979   2.111   2.936
 6453SOL    HW220103   3.858   2.112   2.844
 6454SOL     OW20104   3.728   2.245   2.500
 6454SOL    HW120105   3.645   2.269   2.541
 6454SOL    HW220106   3.707   2.165   2.452
 6455SOL     OW20107   4.267   3.108   3.007
 6455SOL    HW120108   4.197   3.169   2.985
 6455SOL    HW220109   4.333   3.162   3.051
 6456SOL     OW20110   0.020   2.642   3.719
 6456SOL    HW120111   0.071   2.685   3.787
 6456SOL    HW220112   0.064   2.665   3.637
 6457SOL     OW20113   4.398   2.854   2.499
 6457SOL    HW120114   4.472   2.847   2.560
 6457SOL    HW220115   4.336   2.913   2.542
 6458SOL     OW20116   4.419   3.023   3.675
 6458SOL    HW120117   4.460   3.104   3.643
 6458SOL    HW220118   4.327   3.031   3.651
 6459SOL     OW20119   4.060   3.295   2.931
 6459SOL    HW120120   3.988   3.251   2.885
 6459SOL    HW220121   4.106   3.343   2.862
 6460SOL     OW20122   4.171   2.261   3.346
 6460SOL    HW120123   4.245   2.201   3.351
 6460SOL    HW220124   4.094   2.206   3.361
 6461SOL     OW20125   3.942   3.576   2.336
 6461SOL    HW120126   3.963   3.652   2.389
 6461SOL    HW220127   4.016   3.568   2.275
 6462SOL     OW20128   3.954   3.303   2.396
 6462SOL    HW120129   3.936   3.397   2.402
 6462SOL    HW220130   3.894   3.263   2.460
 6463SOL     OW20131   3.975   2.950   2.748
 6463SOL    HW120132   3.979   2.866   2.793
 6463SOL    HW220133   3.923   3.005   2.807
 6464SOL     OW20134   4.361   3.659   3.315
 6464SOL    HW120135   4.275   3.626   3.340
 6464SOL    HW220136   4.352   3.755   3.317
 6465SOL     OW20137   4.309   2.848   2.001
 6465SOL    HW120138   4.340   2.899   1.926
 6465SOL    HW220139   4.377   2.860   2.067
 6466SOL     OW20140   3.839   2.513   2.422
 6466SOL    HW120141   3.808   2.425   2.443
 6466SOL    HW220142   3.831   2.562   2.504
 6467SOL     OW20143   3.756   3.457   1.986
 6467SOL    HW120144   3.738   3.365   2.006
 6467SOL    HW220145   3.732   3.504   2.066
 6468SOL     OW20146   3.846   2.604   3.448
 6468SOL    HW120147   3.938   2.628   3.458
 6468SOL    HW220148   3.798   2.687   3.455
 6469SOL     OW20149   4.310   3.249   2.599
 6469SOL    HW120150   4.275   3.161   2.603
 6469SOL    HW220151   4.312   3.271   2.506
 6470SOL     OW20152   0.022   1.870   2.388
 6470SOL    HW120153   0.053   1.932   2.322
 6470SOL    HW220154   4.427   1.884   2.391
 6471SOL     OW20155   3.913   2.828   3.133
 6471SOL    HW120156   3.998   2.788   3.116
 6471SOL    HW220157   3.850   2.773   3.085
 6472SOL     OW20158   4.057   2.112   3.672
 6472SOL    HW120159   4.101   2.196   3.688
 6472SOL    HW220160   3.968   2.125   3.704
 6473SOL     OW20161   4.312   2.590   2.132
 6473SOL    HW120162   4.310   2.667   2.075
 6473SOL    HW220163   4.244   2.606   2.197
 6474SOL     OW20164   3.812   2.683   2.638
 6474SOL    HW120165   3.893   2.675   2.687
 6474SOL    HW220166   3.770   2.762   2.672
 6475SOL     OW20167   3.853   3.707   3.439
 6475SOL    HW120168   3.852   3.687   3.533
 6475SOL    HW220169   3.761   3.701   3.413
 6476SOL     OW20170   4.251   2.053   2.742
 6476SOL    HW120171   4.271   2.059   2.836
 6476SOL    HW220172   4.262   2.142   2.710
 6477SOL     OW20173   4.082   3.674   2.724
 6477SOL    HW120174   4.132   3.592   2.732
 6477SOL    HW220175   4.147   3.743   2.736
 6478SOL     OW20176   4.043   2.820   2.112
 6478SOL    HW120177   4.126   2.839   2.068
 6478SOL    HW220178   4.013   2.738   2.074
 6479SOL     OW20179   4.178   3.114   3.597
 6479SOL    HW120180   4.151   3.126   3.506
 6479SOL    HW220181   4.097   3.124   3.647
 6480SOL     OW20182   3.924   2.144   3.364
 6480SOL    HW120183   3.842   2.193   3.357
 6480SOL    HW220184   3.906   2.075   3.428
 6481SOL     OW20185   4.192   3.597   2.188
 6481SOL    HW120186   4.225   3.657   2.255
 6481SOL    HW220187   4.261   3.597   2.121
 6482SOL     OW20188   3.979   3.655   3.094
 6482SOL    HW120189   4.027   3.585   3.140
 6482SOL    HW220190   3.966   3.621   3.006
 6483SOL     OW20191   4.111   2.556   2.335
 6483SOL    HW120192   4.137   2.465   2.349
 6483SOL    HW220193   4.018   2.558   2.356
 6484SOL     OW20194   4.340   1.971   1.980
 6484SOL    HW120195   4.435   1.957   1.979
 6484SOL    HW220196   4.312   1.949   1.891
 6485SOL     OW20197   0.020   3.284   2.774
 6485SOL    HW120198   0.083   3.327   2.716
 6485SOL    HW220199   4.444   3.266   2.718
 6486SOL     OW20200   4.260   1.927   2.363
 6486SOL    HW120201   4.181   1.931   2.417
 6486SOL    HW220202   4.256   2.005   2.308
 6487SOL     OW20203   4.017   1.910   2.047
 6487SOL    HW120204   4.078   1.973   2.009
 6487SOL    HW220205   4.073   1.846   2.090
 6488SOL     OW20206   0.325   2.535   3.312
 6488SOL    HW120207   0.254   2.471   3.302
 6488SOL    HW220208   0.405   2.484   3.310
 6489SOL     OW20209   4.190   3.007   2.595
 6489SOL    HW120210   4.121   2.988   2.659
 6489SOL    HW220211   4.149   2.990   2.510
 6490SOL     OW20212   3.803   2.416   3.254
 6490SOL    HW120213   3.894   2.415   3.226
 6490SOL    HW220214   3.798   2.486   3.319
 6491SOL     OW20215   4.283   2.073   3.011
 6491SOL    HW120216   4.326   2.007   3.065
 6491SOL    HW220217   4.197   2.084   3.050
 6492SOL     OW20218   4.231   3.248   2.035
 6492SOL    HW120219   4.146   3.234   2.077
 6492SOL    HW220220   4.210   3.264   1.943
 6493SOL     OW20221   4.245   2.128   2.184
 6493SOL    HW120222   4.287   2.073   2.117
 6493SOL    HW220223   4.226   2.210   2.139
 6494SOL     OW20224   4.140   2.674   3.112
 6494SOL    HW120225   4.207   2.685   3.179
 6494SOL    HW220226   4.105   2.586   3.126
 6495SOL     OW20227   3.793   3.435   3.214
 6495SOL    HW120228   3.761   3.507   3.160
 6495SOL    HW220229   3.889   3.441   3.208
 6496SOL     OW20230   4.071   2.971   2.352
 6496SOL    HW120231   4.073   3.044   2.290
 6496SOL    HW220232   4.069   2.892   2.297
 6497SOL     OW20233   4.299   2.400   2.726
 6497SOL    HW120234   4.300   2.467   2.657
 6497SOL    HW220235   4.365   2.431   2.789
 6498SOL     OW20236   4.072   3.396   3.178
 6498SOL    HW120237   4.066   3.352   3.093
 6498SOL    HW220238   4.166   3.397   3.198
 6499SOL     OW20239   4.136   2.605   3.466
 6499SOL    HW120240   4.196   2.649   3.406
 6499SOL    HW220241   4.178   2.520   3.484
 6500SOL     OW20242   4.232   1.914   3.596
 6500SOL    HW120243   4.186   1.853   3.537
 6500SOL    HW220244   4.167   1.981   3.616
 6501SOL     OW20245   4.290   2.752   2.888
 6501SOL    HW120246   4.319   2.842   2.904
 6501SOL    HW220247   4.243   2.729   2.968
 6502SOL     OW20248   4.024   2.062   3.109
 6502SOL    HW120249   3.985   2.094   3.191
 6502SOL    HW220250   4.005   1.969   3.109
 6503SOL     OW20251   3.770   3.173   3.139
 6503SOL    HW120252   3.803   3.118   3.210
 6503SOL    HW220253   3.776   3.262   3.172
 6504SOL     OW20254   4.020   1.928   2.487
 6504SOL    HW120255   4.004   2.019   2.511
 6504SOL    HW220256   4.032   1.883   2.571
 6505SOL     OW20257   4.076   2.777   3.670
 6505SOL    HW120258   4.158   2.793   3.717
 6505SOL    HW220259   4.099   2.713   3.603
 6506SOL     OW20260   4.031   2.670   2.808
 6506SOL    HW120261   4.123   2.698   2.808
 6506SOL    HW220262   4.033   2.580   2.839
 6507SOL     OW20263   4.063   2.389   2.871
 6507SOL    HW120264   4.027   2.302   2.855
 6507SOL    HW220265   4.142   2.392   2.817
 6508SOL     OW20266   3.729   3.183   2.058
 6508SOL    HW120267   3.642   3.197   2.020
 6508SOL    HW220268   3.727   3.094   2.091
 6509SOL     OW20269   3.816   3.649   2.800
 6509SOL    HW120270   3.786   3.570   2.756
 6509SOL    HW220271   3.905   3.662   2.769
 6510SOL     OW20272   4.232   3.445   2.767
 6510SOL    HW120273   4.318   3.476   2.797
 6510SOL    HW220274   4.252   3.375   2.706
 6511SOL     OW20275   3.759   2.407   2.978
 6511SOL    HW120276   3.839   2.390   2.928
 6511SOL    HW220277   3.788   2.410   3.069
 6512SOL     OW20278   3.915   2.381   3.589
 6512SOL    HW120279   3.971   2.343   3.522
 6512SOL    HW220280   3.871   2.454   3.546
 6513SOL     OW20281   0.032   2.417   2.125
 6513SOL    HW120282   0.020   2.349   2.191
 6513SOL    HW220283   4.464   2.482   2.145
 6514SOL     OW20284   3.970   3.415   3.590
 6514SOL    HW120285   3.943   3.479   3.656
 6514SOL    HW220286   3.967   3.331   3.636
 6515SOL     OW20287   4.190   2.355   2.050
 6515SOL    HW120288   4.248   2.428   2.070
 6515SOL    HW220289   4.104   2.395   2.036
 6516SOL     OW20290   3.870   3.002   3.334
 6516SOL    HW120291   3.872   2.950   3.414
 6516SOL    HW220292   3.887   2.939   3.264
 6517SOL     OW20293   3.808   3.131   2.875
 6517SOL    HW120294   3.793   3.141   2.969
 6517SOL    HW220295   3.737   3.074   2.845
 6518SOL     OW20296   4.389   3.513   3.563
 6518SOL    HW120297   4.355   3.599   3.590
 6518SOL    HW220298   4.433   3.530   3.480
 6519SOL     OW20299   3.861   3.658   3.705
 6519SOL    HW120300   3.810   3.594   3.754
 6519SOL    HW220301   3.907   3.708   3.772
 6520SOL     OW20302   3.986   2.182   2.578
 6520SOL    HW120303   3.899   2.215   2.556
 6520SOL    HW220304   3.985   2.171   2.673
 6521SOL     OW20305   4.088   3.168   3.352
 6521SOL    HW120306   4.069   3.244   3.297
 6521SOL    HW220307   4.015   3.108   3.336
 6522SOL     OW20308   4.325   3.352   2.342
 6522SOL    HW120309   4.343   3.293   2.269
 6522SOL    HW220310   4.260   3.413   2.309
 6523SOL     OW20311   3.984   3.212   2.148
 6523SOL    HW120312   3.891   3.207   2.126
 6523SOL    HW220313   3.986   3.247   2.237
 6524SOL     OW20314   3.836   2.884   3.581
 6524SOL    HW120315   3.760   2.860   3.634
 6524SOL    HW220316   3.910   2.846   3.628
 6525SOL     OW20317   4.390   2.068   3.356
 6525SOL    HW120318   4.479   2.065   3.319
 6525SOL    HW220319   4.402   2.056   3.450
 6526SOL     OW20320   3.802   2.196   1.897
 6526SOL    HW120321   3.715   2.176   1.864
 6526SOL    HW220322   3.832   2.270   1.845
 6527SOL     OW20323   3.793   2.019   2.173
 6527SOL    HW120324   3.778   2.098   2.122
 6527SOL    HW220325   3.878   1.987   2.143
 6528SOL     OW20326   4.337   2.701   3.297
 6528SOL    HW120327   4.381   2.785   3.282
 6528SOL    HW220328   4.409   2.639   3.312
 6529SOL     OW20329   4.398   2.419   3.600
 6529SOL    HW120330   4.421   2.495   3.652
 6529SOL    HW220331   4.482   2.384   3.570
 6530SOL     OW20332   4.107   3.601   3.422
 6530SOL    HW120333   4.022   3.642   3.409
 6530SOL    HW220334   4.088   3.519   3.468
 6531SOL     OW20335   4.309   2.593   2.529
 6531SOL    HW120336   4.351   2.678   2.517
 6531SOL    HW220337   4.240   2.591   2.463
 6532SOL     OW20338   3.944   3.169   3.717
 6532SOL    HW120339   3.878   3.105   3.689
 6532SOL    HW220340   3.928   3.179   3.810
 6533SOL     OW20341   3.808   3.096   2.527
 6533SOL    HW120342   3.813   3.047   2.610
 6533SOL    HW220343   3.877   3.057   2.473
 6534SOL     OW20344   4.416   3.248   3.521
 6534SOL    HW120345   4.326   3.215   3.516
 6534SOL    HW220346   4.406   3.342   3.536
 6535SOL     OW20347   4.163   2.295   2.395
 6535SOL    HW120348   4.180   2.227   2.330
 6535SOL    HW220349   4.106   2.253   2.459
 6536SOL     OW20350   4.053   2.415   3.151
 6536SOL    HW120351   4.107   2.360   3.207
 6536SOL    HW220352   4.074   2.388   3.062
 6537SOL     OW20353   0.036   3.461   2.548
 6537SOL    HW120354   0.059   3.522   2.478
 6537SOL    HW220355   4.466   3.408   2.511
 6538SOL     OW20356   3.768   2.933   2.167
 6538SOL    HW120357   3.861   2.924   2.150
 6538SOL    HW220358   3.739   2.845   2.191
 6539SOL     OW20359   3.955   2.485   3.846
 6539SOL    HW120360   3.865   2.484   3.881
 6539SOL    HW220361   3.945   2.459   3.755
 6540SOL     OW20362   3.947   2.146   4.715
 6540SOL    HW120363   3.978   2.111   4.798
 6540SOL    HW220364   3.858   2.112   4.706
 6541SOL     OW20365   3.727   2.244   4.362
 6541SOL    HW120366   3.645   2.267   4.405
 6541SOL    HW220367   3.708   2.165   4.313
 6542SOL     OW20368   4.268   3.108   4.869
 6542SOL    HW120369   4.196   3.168   4.847
 6542SOL    HW220370   4.332   3.163   4.913
 6543SOL     OW20371   0.021   2.641   5.581
 6543SOL    HW120372   0.069   2.686   5.649
 6543SOL    HW220373   0.064   2.667   5.499
 6544SOL     OW20374   4.398   2.854   4.361
 6544SOL    HW120375   4.472   2.847   4.422
 6544SOL    HW220376   4.336   2.913   4.404
 6545SOL     OW20377   4.419   3.023   5.536
 6545SOL    HW120378   4.459   3.104   5.505
 6545SOL    HW220379   4.327   3.031   5.512
 6546SOL     OW20380   4.060   3.294   4.793
 6546SOL    HW120381   3.988   3.251   4.748
 6546SOL    HW220382   4.106   3.343   4.724
 6547SOL     OW20383   4.171   2.261   5.208
 6547SOL    HW120384   4.245   2.200   5.213
 6547SOL    HW220385   4.094   2.207   5.223
 6548SOL     OW20386   3.942   3.576   4.198
 6548SOL    HW120387   3.963   3.652   4.251
 6548SOL    HW220388   4.016   3.568   4.137
 6549SOL     OW20389   3.954   3.303   4.258
 6549SOL    HW120390   3.936   3.397   4.264
 6549SOL    HW220391   3.894   3.263   4.322
 6550SOL     OW20392   3.975   2.950   4.610
 6550SOL    HW120393   3.979   2.866   4.655
 6550SOL    HW220394   3.923   3.005   4.669
 6551SOL     OW20395   4.361   3.659   5.178
 6551SOL    HW120396   4.275   3.626   5.202
 6551SOL    HW220397   4.352   3.754   5.179
 6552SOL     OW20398   4.309   2.848   3.862
 6552SOL    HW120399   4.340   2.899   3.788
 6552SOL    HW220400   4.377   2.860   3.929
 6553SOL     OW20401   3.839   2.513   4.284
 6553SOL    HW120402   3.808   2.425   4.305
 6553SOL    HW220403   3.831   2.562   4.365
 6554SOL     OW20404   3.756   3.457   3.848
 6554SOL    HW120405   3.738   3.365   3.868
 6554SOL    HW220406   3.732   3.504   3.928
 6555SOL     OW20407   3.845   2.604   5.310
 6555SOL    HW120408   3.937   2.629   5.320
 6555SOL    HW220409   3.796   2.686   5.315
 6556SOL     OW20410   4.310   3.249   4.462
 6556SOL    HW120411   4.275   3.161   4.465
 6556SOL    HW220412   4.312   3.271   4.368
 6557SOL     OW20413   0.022   1.871   4.250
 6557SOL    HW120414   0.053   1.932   4.183
 6557SOL    HW220415   4.428   1.884   4.253
 6558SOL     OW20416   3.913   2.828   4.995
 6558SOL    HW120417   3.998   2.788   4.977
 6558SOL    HW220418   3.850   2.773   4.949
 6559SOL     OW20419   4.058   2.112   5.535
 6559SOL    HW120420   4.100   2.197   5.550
 6559SOL    HW220421   3.968   2.125   5.566
 6560SOL     OW20422   4.312   2.590   3.994
 6560SOL    HW120423   4.309   2.667   3.937
 6560SOL    HW220424   4.244   2.606   4.059
 6561SOL     OW20425   3.812   2.683   4.499
 6561SOL    HW120426   3.893   2.675   4.549
 6561SOL    HW220427   3.770   2.762   4.534
 6562SOL     OW20428   3.853   3.708   5.301
 6562SOL    HW120429   3.852   3.688   5.395
 6562SOL    HW220430   3.761   3.701   5.275
 6563SOL     OW20431   4.252   2.053   4.605
 6563SOL    HW120432   4.271   2.059   4.698
 6563SOL    HW220433   4.262   2.142   4.572
 6564SOL     OW20434   4.082   3.674   4.586
 6564SOL    HW120435   4.131   3.592   4.594
 6564SOL    HW220436   4.147   3.743   4.598
 6565SOL     OW20437   4.043   2.820   3.974
 6565SOL    HW120438   4.126   2.839   3.929
 6565SOL    HW220439   4.013   2.738   3.936
 6566SOL     OW20440   4.178   3.114   5.459
 6566SOL    HW120441   4.151   3.126   5.367
 6566SOL    HW220442   4.097   3.124   5.509
 6567SOL     OW20443   3.924   2.145   5.227
 6567SOL    HW120444   3.841   2.192   5.217
 6567SOL    HW220445   3.905   2.075   5.289
 6568SOL     OW20446   4.193   3.597   4.050
 6568SOL    HW120447   4.225   3.657   4.117
 6568SOL    HW220448   4.261   3.597   3.983
 6569SOL     OW20449   3.979   3.655   4.956
 6569SOL    HW120450   4.027   3.585   5.002
 6569SOL    HW220451   3.966   3.621   4.868
 6570SOL     OW20452   4.111   2.556   4.197
 6570SOL    HW120453   4.137   2.464   4.212
 6570SOL    HW220454   4.018   2.558   4.218
 6571SOL     OW20455   4.341   1.972   3.841
 6571SOL    HW120456   4.435   1.956   3.840
 6571SOL    HW220457   4.312   1.949   3.753
 6572SOL     OW20458   0.020   3.284   4.636
 6572SOL    HW120459   0.083   3.327   4.578
 6572SOL    HW220460   4.444   3.266   4.580
 6573SOL     OW20461   4.261   1.927   4.225
 6573SOL    HW120462   4.182   1.931   4.279
 6573SOL    HW220463   4.256   2.005   4.170
 6574SOL     OW20464   4.017   1.910   3.909
 6574SOL    HW120465   4.079   1.973   3.871
 6574SOL    HW220466   4.073   1.846   3.952
 6575SOL     OW20467   0.327   2.535   5.177
 6575SOL    HW120468   0.252   2.475   5.166
 6575SOL    HW220469   0.404   2.478   5.170
 6576SOL     OW20470   4.190   3.007   4.457
 6576SOL    HW120471   4.121   2.988   4.521
 6576SOL    HW220472   4.149   2.990   4.372
 6577SOL     OW20473   3.803   2.417   5.114
 6577SOL    HW120474   3.895   2.416   5.088
 6577SOL    HW220475   3.798   2.486   5.180
 6578SOL     OW20476   4.284   2.074   4.873
 6578SOL    HW120477   4.325   2.006   4.926
 6578SOL    HW220478   4.197   2.084   4.912
 6579SOL     OW20479   4.231   3.248   3.897
 6579SOL    HW120480   4.146   3.234   3.939
 6579SOL    HW220481   4.209   3.264   3.805
 6580SOL     OW20482   4.246   2.128   4.046
 6580SOL    HW120483   4.287   2.073   3.979
 6580SOL    HW220484   4.226   2.210   4.001
 6581SOL     OW20485   4.140   2.675   4.973
 6581SOL    HW120486   4.206   2.685   5.041
 6581SOL    HW220487   4.105   2.586   4.987
 6582SOL     OW20488   3.793   3.435   5.077
 6582SOL    HW120489   3.761   3.506   5.022
 6582SOL    HW220490   3.889   3.441   5.070
 6583SOL     OW20491   4.071   2.971   4.214
 6583SOL    HW120492   4.073   3.044   4.152
 6583SOL    HW220493   4.069   2.892   4.159
 6584SOL     OW20494   4.300   2.400   4.588
 6584SOL    HW120495   4.300   2.466   4.519
 6584SOL    HW220496   4.364   2.432   4.651
 6585SOL     OW20497   4.072   3.396   5.040
 6585SOL    HW120498   4.066   3.352   4.955
 6585SOL    HW220499   4.165   3.397   5.060
 6586SOL     OW20500   4.137   2.605   5.329
 6586SOL    HW120501   4.196   2.649   5.268
 6586SOL    HW220502   4.177   2.520   5.346
 6587SOL     OW20503   4.232   1.914   5.458
 6587SOL    HW120504   4.186   1.854   5.399
 6587SOL    HW220505   4.167   1.981   5.479
 6588SOL     OW20506   4.291   2.752   4.751
 6588SOL    HW120507   4.319   2.842   4.765
 6588SOL    HW220508   4.243   2.728   4.830
 6589SOL     OW20509   4.025   2.063   4.971
 6589SOL    HW120510   3.985   2.095   5.052
 6589SOL    HW220511   4.005   1.969   4.970
 6590SOL     OW20512   3.771   3.173   5.001
 6590SOL    HW120513   3.803   3.118   5.072
 6590SOL    HW220514   3.776   3.262   5.035
 6591SOL     OW20515   4.020   1.928   4.349
 6591SOL    HW120516   4.004   2.019   4.373
 6591SOL    HW220517   4.032   1.883   4.433
 6592SOL     OW20518   4.076   2.777   5.533
 6592SOL    HW120519   4.158   2.792   5.579
 6592SOL    HW220520   4.098   2.713   5.465
 6593SOL     OW20521   4.031   2.670   4.669
 6593SOL    HW120522   4.123   2.698   4.670
 6593SOL    HW220523   4.033   2.580   4.702
 6594SOL     OW20524   4.063   2.388   4.733
 6594SOL    HW120525   4.026   2.301   4.717
 6594SOL    HW220526   4.142   2.391   4.679
 6595SOL     OW20527   3.729   3.183   3.919
 6595SOL    HW120528   3.642   3.197   3.881
 6595SOL    HW220529   3.727   3.094   3.953
 6596SOL     OW20530   3.816   3.649   4.663
 6596SOL    HW120531   3.786   3.570   4.618
 6596SOL    HW220532   3.905   3.662   4.631
 6597SOL     OW20533   4.232   3.445   4.629
 6597SOL    HW120534   4.318   3.476   4.659
 6597SOL    HW220535   4.252   3.375   4.568
 6598SOL     OW20536   3.759   2.404   4.840
 6598SOL    HW120537   3.840   2.389   4.791
 6598SOL    HW220538   3.788   2.409   4.932
 6599SOL     OW20539   3.916   2.381   5.452
 6599SOL    HW120540   3.970   2.342   5.383
 6599SOL    HW220541   3.871   2.454   5.408
 6600SOL     OW20542   0.032   2.418   3.987
 6600SOL    HW120543   0.019   2.349   4.052
 6600SOL    HW220544   4.464   2.482   4.007
 6601SOL     OW20545   3.970   3.415   5.452
 6601SOL    HW120546   3.943   3.479   5.518
 6601SOL    HW220547   3.967   3.331   5.497
 6602SOL     OW20548   4.190   2.355   3.912
 6602SOL    HW120549   4.248   2.428   3.932
 6602SOL    HW220550   4.104   2.395   3.898
 6603SOL     OW20551   3.871   3.002   5.196
 6603SOL    HW120552   3.872   2.950   5.276
 6603SOL    HW220553   3.887   2.939   5.126
 6604SOL     OW20554   3.808   3.131   4.737
 6604SOL    HW120555   3.794   3.141   4.831
 6604SOL    HW220556   3.737   3.075   4.707
 6605SOL     OW20557   4.389   3.514   5.425
 6605SOL    HW120558   4.354   3.599   5.452
 6605SOL    HW220559   4.432   3.530   5.341
 6606SOL     OW20560   3.861   3.658   5.567
 6606SOL    HW120561   3.810   3.594   5.616
 6606SOL    HW220562   3.907   3.708   5.634
 6607SOL     OW20563   3.986   2.182   4.440
 6607SOL    HW120564   3.899   2.215   4.418
 6607SOL    HW220565   3.985   2.171   4.535
 6608SOL     OW20566   4.089   3.168   5.214
 6608SOL    HW120567   4.069   3.245   5.159
 6608SOL    HW220568   4.016   3.108   5.199
 6609SOL     OW20569   4.325   3.352   4.204
 6609SOL    HW120570   4.342   3.293   4.131
 6609SOL    HW220571   4.260   3.413   4.171
 6610SOL     OW20572   3.984   3.212   4.010
 6610SOL    HW120573   3.891   3.207   3.988
 6610SOL    HW220574   3.986   3.247   4.099
 6611SOL     OW20575   3.836   2.886   5.444
 6611SOL    HW120576   3.759   2.861   5.496
 6611SOL    HW220577   3.910   2.846   5.491
 6612SOL     OW20578   4.390   2.068   5.218
 6612SOL    HW120579   4.479   2.064   5.182
 6612SOL    HW220580   4.402   2.056   5.312
 6613SOL     OW20581   3.802   2.196   3.759
 6613SOL    HW120582   3.715   2.176   3.727
 6613SOL    HW220583   3.832   2.270   3.707
 6614SOL     OW20584   3.793   2.019   4.035
 6614SOL    HW120585   3.778   2.098   3.984
 6614SOL    HW220586   3.878   1.987   4.005
 6615SOL     OW20587   4.337   2.701   5.159
 6615SOL    HW120588   4.380   2.785   5.144
 6615SOL    HW220589   4.409   2.640   5.174
 6616SOL     OW20590   4.398   2.418   5.462
 6616SOL    HW120591   4.421   2.495   5.514
 6616SOL    HW220592   4.483   2.383   5.433
 6617SOL     OW20593   4.107   3.601   5.284
 6617SOL    HW120594   4.022   3.642   5.271
 6617SOL    HW220595   4.088   3.519   5.331
 6618SOL     OW20596   4.309   2.593   4.391
 6618SOL    HW120597   4.351   2.678   4.379
 6618SOL    HW220598   4.240   2.591   4.325
 6619SOL     OW20599   3.943   3.169   5.578
 6619SOL    HW120600   3.879   3.104   5.550
 6619SOL    HW220601   3.927   3.179   5.672
 6620SOL     OW20602   3.808   3.095   4.389
 6620SOL    HW120603   3.813   3.047   4.472
 6620SOL    HW220604   3.877   3.056   4.335
 6621SOL     OW20605   4.416   3.248   5.383
 6621SOL    HW120606   4.327   3.215   5.378
 6621SOL    HW220607   4.407   3.342   5.398
 6622SOL     OW20608   4.163   2.295   4.257
 6622SOL    HW120609   4.180   2.227   4.192
 6622SOL    HW220610   4.106   2.253   4.321
 6623SOL     OW20611   4.054   2.416   5.013
 6623SOL    HW120612   4.107   2.359   5.069
 6623SOL    HW220613   4.074   2.388   4.924
 6624SOL     OW20614   0.037   3.461   4.410
 6624SOL    HW120615   0.059   3.522   4.340
 6624SOL    HW220616   4.466   3.408   4.373
 6625SOL     OW20617   3.768   2.933   4.029
 6625SOL    HW120618   3.861   2.924   4.012
 6625SOL    HW220619   3.739   2.845   4.052
 6626SOL     OW20620   3.955   2.485   5.709
 6626SOL    HW120621   3.865   2.484   5.743
 6626SOL    HW220622   3.945   2.459   5.617
 6627SOL     OW20623   3.947   2.147   6.577
 6627SOL    HW120624   3.979   2.111   6.660
 6627SOL    HW220625   3.858   2.112   6.568
 6628SOL     OW20626   3.729   2.244   6.222
 6628SOL    HW120627   3.648   2.271   6.264
 6628SOL    HW220628   3.707   2.164   6.175
 6629SOL     OW20629   4.267   3.108   6.731
 6629SOL    HW120630   4.196   3.169   6.709
 6629SOL    HW220631   4.332   3.163   6.775
 6630SOL     OW20632   0.020   2.642   7.443
 6630SOL    HW120633   0.070   2.685   7.511
 6630SOL    HW220634   0.064   2.666   7.361
 6631SOL     OW20635   4.399   2.854   6.223
 6631SOL    HW120636   4.471   2.847   6.285
 6631SOL    HW220637   4.336   2.913   6.266
 6632SOL     OW20638   4.419   3.023   7.399
 6632SOL    HW120639   4.459   3.104   7.367
 6632SOL    HW220640   4.327   3.031   7.374
 6633SOL     OW20641   4.060   3.294   6.655
 6633SOL    HW120642   3.988   3.251   6.610
 6633SOL    HW220643   4.106   3.343   6.586
 6634SOL     OW20644   4.171   2.261   7.070
 6634SOL    HW120645   4.245   2.201   7.075
 6634SOL    HW220646   4.094   2.206   7.085
 6635SOL     OW20647   3.942   3.576   6.060
 6635SOL    HW120648   3.963   3.652   6.113
 6635SOL    HW220649   4.016   3.568   5.999
 6636SOL     OW20650   3.954   3.303   6.120
 6636SOL    HW120651   3.936   3.397   6.126
 6636SOL    HW220652   3.894   3.263   6.184
 6637SOL     OW20653   3.975   2.951   6.473
 6637SOL    HW120654   3.979   2.866   6.517
 6637SOL    HW220655   3.923   3.006   6.531
 6638SOL     OW20656   4.361   3.659   7.040
 6638SOL    HW120657   4.275   3.626   7.064
 6638SOL    HW220658   4.352   3.754   7.041
 6639SOL     OW20659   4.310   2.848   5.724
 6639SOL    HW120660   4.340   2.900   5.650
 6639SOL    HW220661   4.377   2.860   5.791
 6640SOL     OW20662   3.839   2.513   6.146
 6640SOL    HW120663   3.808   2.425   6.167
 6640SOL    HW220664   3.831   2.562   6.228
 6641SOL     OW20665   3.756   3.457   5.710
 6641SOL    HW120666   3.737   3.365   5.730
 6641SOL    HW220667   3.732   3.504   5.790
 6642SOL     OW20668   3.846   2.604   7.172
 6642SOL    HW120669   3.937   2.629   7.182
 6642SOL    HW220670   3.798   2.687   7.179
 6643SOL     OW20671   4.311   3.249   6.323
 6643SOL    HW120672   4.275   3.161   6.327
 6643SOL    HW220673   4.312   3.271   6.230
 6644SOL     OW20674   0.022   1.870   6.112
 6644SOL    HW120675   0.053   1.932   6.045
 6644SOL    HW220676   4.428   1.883   6.115
 6645SOL     OW20677   3.913   2.828   6.858
 6645SOL    HW120678   3.998   2.788   6.840
 6645SOL    HW220679   3.850   2.774   6.809
 6646SOL     OW20680   4.057   2.112   7.396
 6646SOL    HW120681   4.101   2.196   7.412
 6646SOL    HW220682   3.968   2.125   7.428
 6647SOL     OW20683   4.312   2.590   5.856
 6647SOL    HW120684   4.309   2.667   5.799
 6647SOL    HW220685   4.244   2.606   5.922
 6648SOL     OW20686   3.813   2.683   6.361
 6648SOL    HW120687   3.894   2.675   6.412
 6648SOL    HW220688   3.770   2.761   6.396
 6649SOL     OW20689   3.853   3.708   7.163
 6649SOL    HW120690   3.852   3.688   7.257
 6649SOL    HW220691   3.761   3.701   7.137
 6650SOL     OW20692   4.252   2.052   6.467
 6650SOL    HW120693   4.272   2.059   6.560
 6650SOL    HW220694   4.261   2.142   6.434
 6651SOL     OW20695   4.082   3.674   6.448
 6651SOL    HW120696   4.131   3.592   6.456
 6651SOL    HW220697   4.147   3.743   6.460
 6652SOL     OW20698   4.043   2.820   5.836
 6652SOL    HW120699   4.126   2.839   5.791
 6652SOL    HW220700   4.013   2.738   5.798
 6653SOL     OW20701   4.178   3.114   7.321
 6653SOL    HW120702   4.151   3.126   7.229
 6653SOL    HW220703   4.097   3.124   7.371
 6654SOL     OW20704   3.924   2.144   7.088
 6654SOL    HW120705   3.843   2.194   7.081
 6654SOL    HW220706   3.906   2.076   7.152
 6655SOL     OW20707   4.192   3.597   5.912
 6655SOL    HW120708   4.225   3.657   5.979
 6655SOL    HW220709   4.261   3.597   5.845
 6656SOL     OW20710   3.979   3.655   6.818
 6656SOL    HW120711   4.027   3.585   6.864
 6656SOL    HW220712   3.966   3.621   6.730
 6657SOL     OW20713   4.111   2.555   6.059
 6657SOL    HW120714   4.137   2.464   6.074
 6657SOL    HW220715   4.018   2.558   6.080
 6658SOL     OW20716   4.341   1.971   5.703
 6658SOL    HW120717   4.435   1.956   5.702
 6658SOL    HW220718   4.311   1.949   5.615
 6659SOL     OW20719   0.020   3.284   6.498
 6659SOL    HW120720   0.083   3.327   6.440
 6659SOL    HW220721   4.444   3.266   6.442
 6660SOL     OW20722   4.261   1.927   6.087
 6660SOL    HW120723   4.182   1.931   6.141
 6660SOL    HW220724   4.257   2.005   6.032
 6661SOL     OW20725   4.017   1.910   5.771
 6661SOL    HW120726   4.078   1.974   5.732
 6661SOL    HW220727   4.074   1.846   5.813
 6662SOL     OW20728   0.325   2.535   7.036
 6662SOL    HW120729   0.254   2.473   7.027
 6662SOL    HW220730   0.405   2.482   7.033
 6663SOL     OW20731   4.190   3.007   6.319
 6663SOL    HW120732   4.121   2.988   6.383
 6663SOL    HW220733   4.149   2.990   6.234
 6664SOL     OW20734   3.803   2.416   6.978
 6664SOL    HW120735   3.894   2.415   6.950
 6664SOL    HW220736   3.798   2.486   7.043
 6665SOL     OW20737   4.284   2.074   6.735
 6665SOL    HW120738   4.326   2.006   6.789
 6665SOL    HW220739   4.197   2.084   6.774
 6666SOL     OW20740   4.231   3.248   5.759
 6666SOL    HW120741   4.146   3.234   5.801
 6666SOL    HW220742   4.209   3.264   5.667
 6667SOL     OW20743   4.246   2.128   5.908
 6667SOL    HW120744   4.286   2.073   5.840
 6667SOL    HW220745   4.226   2.210   5.863
 6668SOL     OW20746   4.140   2.674   6.835
 6668SOL    HW120747   4.206   2.685   6.903
 6668SOL    HW220748   4.105   2.586   6.849
 6669SOL     OW20749   3.793   3.435   6.939
 6669SOL    HW120750   3.761   3.506   6.884
 6669SOL    HW220751   3.889   3.441   6.932
 6670SOL     OW20752   4.071   2.971   6.076
 6670SOL    HW120753   4.073   3.044   6.013
 6670SOL    HW220754   4.070   2.892   6.021
 6671SOL     OW20755   4.299   2.401   6.450
 6671SOL    HW120756   4.300   2.467   6.381
 6671SOL    HW220757   4.364   2.431   6.513
 6672SOL     OW20758   4.072   3.396   6.902
 6672SOL    HW120759   4.066   3.352   6.817
 6672SOL    HW220760   4.165   3.397   6.922
 6673SOL     OW20761   4.136   2.605   7.190
 6673SOL    HW120762   4.196   2.649   7.130
 6673SOL    HW220763   4.178   2.520   7.208
 6674SOL     OW20764   4.232   1.914   7.320
 6674SOL    HW120765   4.186   1.854   7.261
 6674SOL    HW220766   4.167   1.981   7.340
 6675SOL     OW20767   4.291   2.752   6.613
 6675SOL    HW120768   4.319   2.842   6.627
 6675SOL    HW220769   4.243   2.728   6.692
 6676SOL     OW20770   4.024   2.062   6.833
 6676SOL    HW120771   3.985   2.094   6.915
 6676SOL    HW220772   4.005   1.969   6.833
 6677SOL     OW20773   3.771   3.173   6.863
 6677SOL    HW120774   3.803   3.118   6.934
 6677SOL    HW220775   3.776   3.262   6.896
 6678SOL     OW20776   4.020   1.928   6.211
 6678SOL    HW120777   4.004   2.019   6.235
 6678SOL    HW220778   4.032   1.883   6.295
 6679SOL     OW20779   4.076   2.777   7.395
 6679SOL    HW120780   4.158   2.792   7.441
 6679SOL    HW220781   4.099   2.713   7.327
 6680SOL     OW20782   4.031   2.671   6.532
 6680SOL    HW120783   4.123   2.698   6.532
 6680SOL    HW220784   4.033   2.580   6.564
 6681SOL     OW20785   4.063   2.389   6.595
 6681SOL    HW120786   4.027   2.302   6.579
 6681SOL    HW220787   4.142   2.391   6.541
 6682SOL     OW20788   3.729   3.183   5.781
 6682SOL    HW120789   3.643   3.197   5.743
 6682SOL    HW220790   3.727   3.094   5.815
 6683SOL     OW20791   3.816   3.649   6.525
 6683SOL    HW120792   3.786   3.570   6.480
 6683SOL    HW220793   3.905   3.662   6.493
 6684SOL     OW20794   4.232   3.445   6.491
 6684SOL    HW120795   4.318   3.476   6.521
 6684SOL    HW220796   4.252   3.375   6.430
 6685SOL     OW20797   3.759   2.406   6.702
 6685SOL    HW120798   3.838   2.390   6.652
 6685SOL    HW220799   3.789   2.410   6.793
 6686SOL     OW20800   3.915   2.381   7.313
 6686SOL    HW120801   3.972   2.343   7.246
 6686SOL    HW220802   3.871   2.454   7.270
 6687SOL     OW20803   0.032   2.418   5.850
 6687SOL    HW120804   0.019   2.349   5.915
 6687SOL    HW220805   4.464   2.482   5.869
 6688SOL     OW20806   3.970   3.415   7.314
 6688SOL    HW120807   3.943   3.479   7.380
 6688SOL    HW220808   3.967   3.331   7.360
 6689SOL     OW20809   4.190   2.355   5.775
 6689SOL    HW120810   4.248   2.428   5.794
 6689SOL    HW220811   4.104   2.395   5.760
 6690SOL     OW20812   3.871   3.002   7.058
 6690SOL    HW120813   3.872   2.950   7.139
 6690SOL    HW220814   3.887   2.939   6.988
 6691SOL     OW20815   3.808   3.131   6.599
 6691SOL    HW120816   3.793   3.141   6.693
 6691SOL    HW220817   3.737   3.074   6.569
 6692SOL     OW20818   4.389   3.513   7.287
 6692SOL    HW120819   4.355   3.599   7.314
 6692SOL    HW220820   4.433   3.530   7.204
 6693SOL     OW20821   3.861   3.658   7.429
 6693SOL    HW120822   3.810   3.594   7.478
 6693SOL    HW220823   3.907   3.708   7.496
 6694SOL     OW20824   3.986   2.182   6.302
 6694SOL    HW120825   3.899   2.215   6.279
 6694SOL    HW220826   3.984   2.171   6.397
 6695SOL     OW20827   4.088   3.168   7.076
 6695SOL    HW120828   4.069   3.245   7.021
 6695SOL    HW220829   4.016   3.108   7.060
 6696SOL     OW20830   4.326   3.352   6.066
 6696SOL    HW120831   4.342   3.293   5.993
 6696SOL    HW220832   4.260   3.413   6.033
 6697SOL     OW20833   3.984   3.211   5.872
 6697SOL    HW120834   3.891   3.207   5.850
 6697SOL    HW220835   3.986   3.247   5.961
 6698SOL     OW20836   3.836   2.884   7.306
 6698SOL    HW120837   3.760   2.860   7.358
 6698SOL    HW220838   3.910   2.846   7.353
 6699SOL     OW20839   4.390   2.068   7.080
 6699SOL    HW120840   4.479   2.065   7.043
 6699SOL    HW220841   4.402   2.056   7.174
 6700SOL     OW20842   3.802   2.195   5.621
 6700SOL    HW120843   3.715   2.176   5.587
 6700SOL    HW220844   3.831   2.271   5.569
 6701SOL     OW20845   3.793   2.019   5.897
 6701SOL    HW120846   3.778   2.098   5.846
 6701SOL    HW220847   3.878   1.987   5.866
 6702SOL     OW20848   4.337   2.701   7.021
 6702SOL    HW120849   4.380   2.785   7.006
 6702SOL    HW220850   4.409   2.640   7.036
 6703SOL     OW20851   4.398   2.419   7.323
 6703SOL    HW120852   4.421   2.495   7.376
 6703SOL    HW220853   4.483   2.383   7.295
 6704SOL     OW20854   4.107   3.601   7.146
 6704SOL    HW120855   4.022   3.642   7.133
 6704SOL    HW220856   4.088   3.519   7.193
 6705SOL     OW20857   4.309   2.593   6.253
 6705SOL    HW120858   4.351   2.678   6.240
 6705SOL    HW220859   4.240   2.590   6.187
 6706SOL     OW20860   3.944   3.169   7.441
 6706SOL    HW120861   3.878   3.105   7.413
 6706SOL    HW220862   3.928   3.179   7.534
 6707SOL     OW20863   3.808   3.096   6.251
 6707SOL    HW120864   3.811   3.047   6.334
 6707SOL    HW220865   3.877   3.056   6.197
 6708SOL     OW20866   4.416   3.248   7.245
 6708SOL    HW120867   4.327   3.215   7.240
 6708SOL    HW220868   4.406   3.342   7.260
 6709SOL     OW20869   4.164   2.295   6.119
 6709SOL    HW120870   4.180   2.227   6.054
 6709SOL    HW220871   4.106   2.253   6.183
 6710SOL     OW20872   4.053   2.415   6.875
 6710SOL    HW120873   4.107   2.359   6.930
 6710SOL    HW220874   4.074   2.388   6.785
 6711SOL     OW20875   0.037   3.461   6.272
 6711SOL    HW120876   0.059   3.522   6.202
 6711SOL    HW220877   4.466   3.407   6.235
 6712SOL     OW20878   3.768   2.933   5.892
 6712SOL    HW120879   3.861   2.923   5.874
 6712SOL    HW220880   3.739   2.845   5.915
 6713SOL     OW20881   3.954   2.485   7.571
 6713SOL    HW120882   3.865   2.484   7.605
 6713SOL    HW220883   3.945   2.459   7.479
 6714SOL     OW20884   3.947   2.146   8.439
 6714SOL    HW120885   3.979   2.111   8.522
 6714SOL    HW220886   3.858   2.112   8.430
 6715SOL     OW20887   3.728   2.245   8.086
 6715SOL    HW120888   3.645   2.270   8.127
 6715SOL    HW220889   3.707   2.165   8.038
 6716SOL     OW20890   4.267   3.108   8.593
 6716SOL    HW120891   4.196   3.169   8.571
 6716SOL    HW220892   4.333   3.162   8.637
 6717SOL     OW20893   0.020   2.642   9.305
 6717SOL    HW120894   0.070   2.685   9.373
 6717SOL    HW220895   0.064   2.666   9.223
 6718SOL     OW20896   4.399   2.854   8.085
 6718SOL    HW120897   4.472   2.847   8.146
 6718SOL    HW220898   4.336   2.913   8.128
 6719SOL     OW20899   4.419   3.023   9.261
 6719SOL    HW120900   4.459   3.104   9.229
 6719SOL    HW220901   4.327   3.031   9.236
 6720SOL     OW20902   4.060   3.294   8.517
 6720SOL    HW120903   3.988   3.251   8.472
 6720SOL    HW220904   4.106   3.343   8.448
 6721SOL     OW20905   4.171   2.261   8.932
 6721SOL    HW120906   4.245   2.201   8.937
 6721SOL    HW220907   4.094   2.206   8.947
 6722SOL     OW20908   3.942   3.576   7.922
 6722SOL    HW120909   3.963   3.652   7.975
 6722SOL    HW220910   4.016   3.568   7.861
 6723SOL     OW20911   3.954   3.303   7.982
 6723SOL    HW120912   3.936   3.397   7.988
 6723SOL    HW220913   3.894   3.263   8.046
 6724SOL     OW20914   3.975   2.950   8.334
 6724SOL    HW120915   3.979   2.866   8.379
 6724SOL    HW220916   3.923   3.006   8.393
 6725SOL     OW20917   4.361   3.659   8.902
 6725SOL    HW120918   4.275   3.626   8.926
 6725SOL    HW220919   4.352   3.755   8.903
 6726SOL     OW20920   4.309   2.848   7.586
 6726SOL    HW120921   4.340   2.899   7.512
 6726SOL    HW220922   4.377   2.860   7.653
 6727SOL     OW20923   3.839   2.513   8.008
 6727SOL    HW120924   3.808   2.426   8.029
 6727SOL    HW220925   3.831   2.563   8.089
 6728SOL     OW20926   3.756   3.457   7.572
 6728SOL    HW120927   3.738   3.365   7.592
 6728SOL    HW220928   3.732   3.504   7.652
 6729SOL     OW20929   3.846   2.604   9.034
 6729SOL    HW120930   3.937   2.629   9.044
 6729SOL    HW220931   3.797   2.686   9.040
 6730SOL     OW20932   4.311   3.249   8.185
 6730SOL    HW120933   4.275   3.161   8.189
 6730SOL    HW220934   4.312   3.271   8.092
 6731SOL     OW20935   0.022   1.870   7.974
 6731SOL    HW120936   0.053   1.932   7.908
 6731SOL    HW220937   4.427   1.883   7.977
 6732SOL     OW20938   3.913   2.828   8.720
 6732SOL    HW120939   3.998   2.788   8.702
 6732SOL    HW220940   3.850   2.774   8.671
 6733SOL     OW20941   4.057   2.112   9.258
 6733SOL    HW120942   4.101   2.196   9.274
 6733SOL    HW220943   3.968   2.125   9.290
 6734SOL     OW20944   4.312   2.590   7.718
 6734SOL    HW120945   4.309   2.667   7.661
 6734SOL    HW220946   4.244   2.606   7.784
 6735SOL     OW20947   3.812   2.683   8.223
 6735SOL    HW120948   3.893   2.675   8.274
 6735SOL    HW220949   3.770   2.762   8.258
 6736SOL     OW20950   3.853   3.708   9.025
 6736SOL    HW120951   3.852   3.688   9.119
 6736SOL    HW220952   3.761   3.701   8.999
 6737SOL     OW20953   4.252   2.053   8.328
 6737SOL    HW120954   4.271   2.059   8.422
 6737SOL    HW220955   4.262   2.142   8.296
 6738SOL     OW20956   4.082   3.674   8.310
 6738SOL    HW120957   4.131   3.592   8.318
 6738SOL    HW220958   4.147   3.743   8.322
 6739SOL     OW20959   4.043   2.820   7.698
 6739SOL    HW120960   4.126   2.839   7.653
 6739SOL    HW220961   4.013   2.738   7.660
 6740SOL     OW20962   4.178   3.114   9.183
 6740SOL    HW120963   4.151   3.126   9.091
 6740SOL    HW220964   4.097   3.124   9.233
 6741SOL     OW20965   3.924   2.144   8.950
 6741SOL    HW120966   3.842   2.194   8.943
 6741SOL    HW220967   3.906   2.076   9.014
 6742SOL     OW20968   4.192   3.597   7.773
 6742SOL    HW120969   4.225   3.657   7.841
 6742SOL    HW220970   4.261   3.597   7.707
 6743SOL     OW20971   3.979   3.655   8.680
 6743SOL    HW120972   4.027   3.585   8.726
 6743SOL    HW220973   3.966   3.621   8.592
 6744SOL     OW20974   4.111   2.556   7.921
 6744SOL    HW120975   4.137   2.464   7.936
 6744SOL    HW220976   4.018   2.558   7.942
 6745SOL     OW20977   4.340   1.972   7.565
 6745SOL    HW120978   4.435   1.957   7.565
 6745SOL    HW220979   4.312   1.949   7.477
 6746SOL     OW20980   0.020   3.284   8.360
 6746SOL    HW120981   0.083   3.327   8.302
 6746SOL    HW220982   4.444   3.266   8.304
 6747SOL     OW20983   4.260   1.927   7.949
 6747SOL    HW120984   4.181   1.931   8.003
 6747SOL    HW220985   4.256   2.005   7.894
 6748SOL     OW20986   4.017   1.910   7.633
 6748SOL    HW120987   4.078   1.973   7.595
 6748SOL    HW220988   4.073   1.846   7.676
 6749SOL     OW20989   0.325   2.535   8.898
 6749SOL    HW120990   0.254   2.472   8.889
 6749SOL    HW220991   0.405   2.483   8.896
 6750SOL     OW20992   4.190   3.007   8.181
 6750SOL    HW120993   4.121   2.988   8.245
 6750SOL    HW220994   4.149   2.990   8.096
 6751SOL     OW20995   3.803   2.416   8.840
 6751SOL    HW120996   3.894   2.415   8.812
 6751SOL    HW220997   3.798   2.486   8.905
 6752SOL     OW20998   4.283   2.073   8.597
 6752SOL    HW120999   4.326   2.007   8.651
 6752SOL    HW221000   4.197   2.084   8.636
 6753SOL     OW21001   4.231   3.248   7.621
 6753SOL    HW121002   4.146   3.234   7.663
 6753SOL    HW221003   4.209   3.264   7.529
 6754SOL     OW21004   4.245   2.128   7.770
 6754SOL    HW121005   4.286   2.073   7.703
 6754SOL    HW221006   4.226   2.210   7.725
 6755SOL     OW21007   4.140   2.674   8.697
 6755SOL    HW121008   4.206   2.685   8.765
 6755SOL    HW221009   4.105   2.586   8.712
 6756SOL     OW21010   3.793   3.435   8.801
 6756SOL    HW121011   3.761   3.506   8.746
 6756SOL    HW221012   3.889   3.441   8.794
 6757SOL     OW21013   4.071   2.971   7.938
 6757SOL    HW121014   4.073   3.044   7.875
 6757SOL    HW221015   4.069   2.892   7.883
 6758SOL     OW21016   4.299   2.400   8.312
 6758SOL    HW121017   4.300   2.467   8.243
 6758SOL    HW221018   4.365   2.431   8.375
 6759SOL     OW21019   4.072   3.396   8.764
 6759SOL    HW121020   4.066   3.352   8.679
 6759SOL    HW221021   4.165   3.397   8.784
 6760SOL     OW21022   4.136   2.605   9.052
 6760SOL    HW121023   4.196   2.649   8.992
 6760SOL    HW221024   4.178   2.520   9.070
 6761SOL     OW21025   4.232   1.914   9.182
 6761SOL    HW121026   4.186   1.854   9.123
 6761SOL    HW221027   4.167   1.981   9.202
 6762SOL     OW21028   4.290   2.752   8.474
 6762SOL    HW121029   4.319   2.842   8.489
 6762SOL    HW221030   4.243   2.728   8.554
 6763SOL     OW21031   4.024   2.062   8.695
 6763SOL    HW121032   3.985   2.095   8.777
 6763SOL    HW221033   4.005   1.969   8.695
 6764SOL     OW21034   3.771   3.173   8.725
 6764SOL    HW121035   3.803   3.118   8.796
 6764SOL    HW221036   3.776   3.262   8.758
 6765SOL     OW21037   4.020   1.928   8.073
 6765SOL    HW121038   4.004   2.019   8.097
 6765SOL    HW221039   4.032   1.883   8.157
 6766SOL     OW21040   4.076   2.777   9.257
 6766SOL    HW121041   4.158   2.792   9.303
 6766SOL    HW221042   4.099   2.713   9.189
 6767SOL     OW21043   4.031   2.671   8.394
 6767SOL    HW121044   4.123   2.698   8.394
 6767SOL    HW221045   4.033   2.580   8.426
 6768SOL     OW21046   4.063   2.389   8.457
 6768SOL    HW121047   4.027   2.302   8.441
 6768SOL    HW221048   4.142   2.391   8.403
 6769SOL     OW21049   3.729   3.183   7.643
 6769SOL    HW121050   3.642   3.197   7.605
 6769SOL    HW221051   3.727   3.094   7.677
 6770SOL     OW21052   3.816   3.649   8.386
 6770SOL    HW121053   3.786   3.570   8.342
 6770SOL    HW221054   3.905   3.662   8.355
 6771SOL     OW21055   4.232   3.445   8.353
 6771SOL    HW121056   4.318   3.476   8.383
 6771SOL    HW221057   4.252   3.375   8.292
 6772SOL     OW21058   3.759   2.406   8.564
 6772SOL    HW121059   3.839   2.390   8.514
 6772SOL    HW221060   3.788   2.410   8.655
 6773SOL     OW21061   3.915   2.381   9.175
 6773SOL    HW121062   3.972   2.343   9.108
 6773SOL    HW221063   3.871   2.454   9.132
 6774SOL     OW21064   0.032   2.417   7.711
 6774SOL    HW121065   0.020   2.349   7.777
 6774SOL    HW221066   4.464   2.482   7.731
 6775SOL     OW21067   3.970   3.415   9.176
 6775SOL    HW121068   3.943   3.479   9.242
 6775SOL    HW221069   3.967   3.331   9.221
 6776SOL     OW21070   4.190   2.355   7.636
 6776SOL    HW121071   4.248   2.428   7.656
 6776SOL    HW221072   4.104   2.395   7.622
 6777SOL     OW21073   3.871   3.002   8.920
 6777SOL    HW121074   3.872   2.950   9.000
 6777SOL    HW221075   3.887   2.939   8.850
 6778SOL     OW21076   3.808   3.131   8.461
 6778SOL    HW121077   3.793   3.141   8.555
 6778SOL    HW221078   3.737   3.074   8.431
 6779SOL     OW21079   4.389   3.513   9.149
 6779SOL    HW121080   4.355   3.599   9.176
 6779SOL    HW221081   4.433   3.530   9.066
 6780SOL     OW21082   3.861   3.658   9.291
 6780SOL    HW121083   3.810   3.594   9.340
 6780SOL    HW221084   3.907   3.708   9.358
 6781SOL     OW21085   3.986   2.182   8.163
 6781SOL    HW121086   3.899   2.215   8.142
 6781SOL    HW221087   3.985   2.171   8.259
 6782SOL     OW21088   4.088   3.168   8.938
 6782SOL    HW121089   4.069   3.245   8.883
 6782SOL    HW221090   4.016   3.108   8.922
 6783SOL     OW21091   4.325   3.352   7.928
 6783SOL    HW121092   4.342   3.293   7.855
 6783SOL    HW221093   4.260   3.413   7.895
 6784SOL     OW21094   3.984   3.212   7.734
 6784SOL    HW121095   3.891   3.207   7.712
 6784SOL    HW221096   3.986   3.247   7.823
 6785SOL     OW21097   3.836   2.885   9.168
 6785SOL    HW121098   3.759   2.861   9.220
 6785SOL    HW221099   3.910   2.846   9.215
 6786SOL     OW21100   4.390   2.068   8.942
 6786SOL    HW121101   4.479   2.065   8.905
 6786SOL    HW221102   4.402   2.056   9.036
 6787SOL     OW21103   3.803   2.195   7.483
 6787SOL    HW121104   3.714   2.177   7.451
 6787SOL    HW221105   3.832   2.270   7.431
 6788SOL     OW21106   3.793   2.018   7.759
 6788SOL    HW121107   3.778   2.098   7.708
 6788SOL    HW221108   3.878   1.987   7.728
 6789SOL     OW21109   4.337   2.701   8.883
 6789SOL    HW121110   4.381   2.785   8.868
 6789SOL    HW221111   4.409   2.640   8.898
 6790SOL     OW21112   4.398   2.419   9.185
 6790SOL    HW121113   4.421   2.495   9.238
 6790SOL    HW221114   4.483   2.384   9.157
 6791SOL     OW21115   4.107   3.601   9.008
 6791SOL    HW121116   4.022   3.642   8.995
 6791SOL    HW221117   4.088   3.519   9.054
 6792SOL     OW21118   4.309   2.593   8.115
 6792SOL    HW121119   4.351   2.678   8.103
 6792SOL    HW221120   4.240   2.591   8.049
 6793SOL     OW21121   3.944   3.169   9.302
 6793SOL    HW121122   3.878   3.105   9.275
 6793SOL    HW221123   3.928   3.179   9.396
 6794SOL     OW21124   3.809   3.096   8.113
 6794SOL    HW121125   3.812   3.047   8.196
 6794SOL    HW221126   3.877   3.056   8.059
 6795SOL     OW21127   4.416   3.248   9.107
 6795SOL    HW121128   4.327   3.215   9.102
 6795SOL    HW221129   4.406   3.342   9.122
 6796SOL     OW21130   4.163   2.295   7.981
 6796SOL    HW121131   4.180   2.227   7.916
 6796SOL    HW221132   4.106   2.253   8.045
 6797SOL     OW21133   4.053   2.415   8.737
 6797SOL    HW121134   4.107   2.360   8.793
 6797SOL    HW221135   4.074   2.388   8.648
 6798SOL     OW21136   0.037   3.461   8.134
 6798SOL    HW121137   0.059   3.522   8.064
 6798SOL    HW221138   4.466   3.407   8.097
 6799SOL     OW21139   3.768   2.933   7.753
 6799SOL    HW121140   3.862   2.924   7.736
 6799SOL    HW221141   3.739   2.845   7.777
 6800SOL     OW21142   3.954   2.485   9.433
 6800SOL    HW121143   3.865   2.484   9.467
 6800SOL    HW221144   3.945   2.459   9.341
 6801SOL     OW21145   3.947   2.146  10.301
 6801SOL    HW121146   3.979   2.111  10.384
 6801SOL    HW221147   3.858   2.112  10.292
 6802SOL     OW21148   3.728   2.245   9.948
 6802SOL    HW121149   3.645   2.270   9.989
 6802SOL    HW221150   3.707   2.165   9.900
 6803SOL     OW21151   4.267   3.108  10.456
 6803SOL    HW121152   4.197   3.168  10.433
 6803SOL    HW221153   4.332   3.163  10.500
 6804SOL     OW21154   0.024   2.674   0.078
 6804SOL    HW121155   0.102   2.709   0.121
 6804SOL    HW221156   0.052   2.654  11.089
 6805SOL     OW21157   4.399   2.854   9.947
 6805SOL    HW121158   4.472   2.847  10.008
 6805SOL    HW221159   4.336   2.913   9.990
 6806SOL     OW21160   4.061   3.294  10.379
 6806SOL    HW121161   3.988   3.251  10.334
 6806SOL    HW221162   4.106   3.343  10.310
 6807SOL     OW21163   4.177   2.263  10.796
 6807SOL    HW121164   4.245   2.196  10.798
 6807SOL    HW221165   4.096   2.216  10.817
 6808SOL     OW21166   3.942   3.576   9.784
 6808SOL    HW121167   3.963   3.652   9.837
 6808SOL    HW221168   4.016   3.568   9.723
 6809SOL     OW21169   3.954   3.303   9.844
 6809SOL    HW121170   3.936   3.397   9.850
 6809SOL    HW221171   3.894   3.263   9.908
 6810SOL     OW21172   3.975   2.950  10.196
 6810SOL    HW121173   3.979   2.866  10.241
 6810SOL    HW221174   3.923   3.006  10.254
 6811SOL     OW21175   4.356   3.662  10.755
 6811SOL    HW121176   4.269   3.632  10.781
 6811SOL    HW221177   4.353   3.757  10.767
 6812SOL     OW21178   4.309   2.848   9.448
 6812SOL    HW121179   4.340   2.899   9.374
 6812SOL    HW221180   4.377   2.860   9.515
 6813SOL     OW21181   3.839   2.513   9.870
 6813SOL    HW121182   3.808   2.426   9.891
 6813SOL    HW221183   3.831   2.563   9.952
 6814SOL     OW21184   3.756   3.457   9.434
 6814SOL    HW121185   3.738   3.365   9.454
 6814SOL    HW221186   3.732   3.504   9.514
 6815SOL     OW21187   3.849   2.588  10.915
 6815SOL    HW121188   3.942   2.611  10.907
 6815SOL    HW221189   3.803   2.672  10.908
 6816SOL     OW21190   4.311   3.249  10.048
 6816SOL    HW121191   4.275   3.160  10.051
 6816SOL    HW221192   4.312   3.271   9.954
 6817SOL     OW21193   0.022   1.870   9.836
 6817SOL    HW121194   0.053   1.932   9.770
 6817SOL    HW221195   4.427   1.883   9.839
 6818SOL     OW21196   3.913   2.826  10.579
 6818SOL    HW121197   3.997   2.786  10.561
 6818SOL    HW221198   3.849   2.771  10.532
 6819SOL     OW21199   4.066   2.119   0.016
 6819SOL    HW121200   4.116   2.194   0.048
 6819SOL    HW221201   3.975   2.142   0.034
 6820SOL     OW21202   4.312   2.590   9.580
 6820SOL    HW121203   4.309   2.667   9.523
 6820SOL    HW221204   4.244   2.606   9.646
 6821SOL     OW21205   3.812   2.683  10.085
 6821SOL    HW121206   3.893   2.675  10.136
 6821SOL    HW221207   3.770   2.762  10.120
 6822SOL     OW21208   3.855   3.704  10.896
 6822SOL    HW121209   3.836   3.669  10.983
 6822SOL    HW221210   3.770   3.704  10.852
 6823SOL     OW21211   4.252   2.053  10.191
 6823SOL    HW121212   4.272   2.059  10.284
 6823SOL    HW221213   4.262   2.142  10.158
 6824SOL     OW21214   4.082   3.674  10.172
 6824SOL    HW121215   4.131   3.592  10.180
 6824SOL    HW221216   4.147   3.743  10.184
 6825SOL     OW21217   4.043   2.820   9.560
 6825SOL    HW121218   4.126   2.839   9.515
 6825SOL    HW221219   4.013   2.738   9.522
 6826SOL     OW21220   4.178   3.124  11.054
 6826SOL    HW121221   4.152   3.137  10.963
 6826SOL    HW221222   4.107   3.073  11.092
 6827SOL     OW21223   3.927   2.143  10.807
 6827SOL    HW121224   3.845   2.193  10.803
 6827SOL    HW221225   3.912   2.077  10.874
 6828SOL     OW21226   4.192   3.597   9.636
 6828SOL    HW121227   4.225   3.657   9.703
 6828SOL    HW221228   4.261   3.597   9.569
 6829SOL     OW21229   3.980   3.655  10.543
 6829SOL    HW121230   4.027   3.586  10.589
 6829SOL    HW221231   3.967   3.620  10.455
 6830SOL     OW21232   4.111   2.556   9.783
 6830SOL    HW121233   4.137   2.464   9.798
 6830SOL    HW221234   4.018   2.558   9.804
 6831SOL     OW21235   4.340   1.972   9.428
 6831SOL    HW121236   4.435   1.957   9.427
 6831SOL    HW221237   4.312   1.949   9.339
 6832SOL     OW21238   0.020   3.284  10.222
 6832SOL    HW121239   0.083   3.327  10.164
 6832SOL    HW221240   4.444   3.266  10.166
 6833SOL     OW21241   4.260   1.927   9.811
 6833SOL    HW121242   4.181   1.931   9.865
 6833SOL    HW221243   4.256   2.005   9.756
 6834SOL     OW21244   4.017   1.910   9.495
 6834SOL    HW121245   4.078   1.973   9.457
 6834SOL    HW221246   4.073   1.846   9.538
 6835SOL     OW21247   0.312   2.538  10.764
 6835SOL    HW121248   0.250   2.464  10.770
 6835SOL    HW221249   0.398   2.496  10.759
 6836SOL     OW21250   4.190   3.007  10.043
 6836SOL    HW121251   4.121   2.988  10.107
 6836SOL    HW221252   4.149   2.990   9.958
 6837SOL     OW21253   3.802   2.415  10.704
 6837SOL    HW121254   3.893   2.415  10.677
 6837SOL    HW221255   3.798   2.477  10.777
 6838SOL     OW21256   4.284   2.073  10.460
 6838SOL    HW121257   4.324   2.003  10.510
 6838SOL    HW221258   4.197   2.083  10.498
 6839SOL     OW21259   4.231   3.248   9.483
 6839SOL    HW121260   4.146   3.234   9.525
 6839SOL    HW221261   4.209   3.264   9.391
 6840SOL     OW21262   4.245   2.128   9.632
 6840SOL    HW121263   4.287   2.073   9.565
 6840SOL    HW221264   4.226   2.210   9.587
 6841SOL     OW21265   4.140   2.674  10.559
 6841SOL    HW121266   4.207   2.684  10.627
 6841SOL    HW221267   4.105   2.586  10.573
 6842SOL     OW21268   3.793   3.438  10.661
 6842SOL    HW121269   3.762   3.508  10.604
 6842SOL    HW221270   3.889   3.441  10.654
 6843SOL     OW21271   4.071   2.971   9.800
 6843SOL    HW121272   4.073   3.044   9.738
 6843SOL    HW221273   4.069   2.892   9.745
 6844SOL     OW21274   4.299   2.400  10.174
 6844SOL    HW121275   4.301   2.467  10.105
 6844SOL    HW221276   4.365   2.429  10.237
 6845SOL     OW21277   4.072   3.394  10.627
 6845SOL    HW121278   4.067   3.350  10.542
 6845SOL    HW221279   4.165   3.396  10.647
 6846SOL     OW21280   4.135   2.597  10.904
 6846SOL    HW121281   4.198   2.642  10.848
 6846SOL    HW221282   4.163   2.505  10.904
 6847SOL     OW21283   4.291   2.752  10.336
 6847SOL    HW121284   4.319   2.843  10.351
 6847SOL    HW221285   4.242   2.729  10.416
 6848SOL     OW21286   4.025   2.062  10.556
 6848SOL    HW121287   3.989   2.095  10.638
 6848SOL    HW221288   4.005   1.969  10.557
 6849SOL     OW21289   3.774   3.174  10.586
 6849SOL    HW121290   3.801   3.118  10.658
 6849SOL    HW221291   3.775   3.263  10.622
 6850SOL     OW21292   4.020   1.928   9.935
 6850SOL    HW121293   4.004   2.019   9.959
 6850SOL    HW221294   4.032   1.883  10.019
 6851SOL     OW21295   4.081   2.780  11.094
 6851SOL    HW121296   4.164   2.796   0.038
 6851SOL    HW221297   4.100   2.712  11.029
 6852SOL     OW21298   4.031   2.670  10.256
 6852SOL    HW121299   4.123   2.698  10.255
 6852SOL    HW221300   4.033   2.580  10.287
 6853SOL     OW21301   4.063   2.389  10.319
 6853SOL    HW121302   4.027   2.302  10.304
 6853SOL    HW221303   4.142   2.392  10.266
 6854SOL     OW21304   3.729   3.183   9.505
 6854SOL    HW121305   3.642   3.197   9.467
 6854SOL    HW221306   3.727   3.094   9.539
 6855SOL     OW21307   3.816   3.650  10.248
 6855SOL    HW121308   3.786   3.570  10.204
 6855SOL    HW221309   3.905   3.662  10.217
 6856SOL     OW21310   4.232   3.445  10.215
 6856SOL    HW121311   4.318   3.476  10.245
 6856SOL    HW221312   4.252   3.375  10.154
 6857SOL     OW21313   3.759   2.407  10.427
 6857SOL    HW121314   3.840   2.390  10.377
 6857SOL    HW221315   3.788   2.410  10.518
 6858SOL     OW21316   0.032   2.417   9.573
 6858SOL    HW121317   0.020   2.349   9.639
 6858SOL    HW221318   4.464   2.482   9.593
 6859SOL     OW21319   3.979   3.428  11.053
 6859SOL    HW121320   3.921   3.461   0.022
 6859SOL    HW221321   3.982   3.334  11.067
 6860SOL     OW21322   4.190   2.355   9.498
 6860SOL    HW121323   4.248   2.428   9.518
 6860SOL    HW221324   4.104   2.395   9.484
 6861SOL     OW21325   3.876   3.000  10.780
 6861SOL    HW121326   3.869   2.945  10.858
 6861SOL    HW221327   3.889   2.937  10.708
 6862SOL     OW21328   3.809   3.132  10.322
 6862SOL    HW121329   3.795   3.142  10.416
 6862SOL    HW221330   3.737   3.074  10.294
 6863SOL     OW21331   4.394   3.529  11.004
 6863SOL    HW121332   4.313   3.578  10.989
 6863SOL    HW221333   4.429   3.513  10.916
 6864SOL     OW21334   3.986   2.182  10.025
 6864SOL    HW121335   3.899   2.215  10.004
 6864SOL    HW221336   3.985   2.171  10.121
 6865SOL     OW21337   4.084   3.172  10.810
 6865SOL    HW121338   4.071   3.244  10.748
 6865SOL    HW221339   4.015   3.109  10.789
 6866SOL     OW21340   4.325   3.352   9.790
 6866SOL    HW121341   4.342   3.293   9.717
 6866SOL    HW221342   4.260   3.413   9.757
 6867SOL     OW21343   3.984   3.212   9.596
 6867SOL    HW121344   3.891   3.207   9.574
 6867SOL    HW221345   3.986   3.247   9.685
 6868SOL     OW21346   3.838   2.875  11.019
 6868SOL    HW121347   3.768   2.861  11.083
 6868SOL    HW221348   3.917   2.844  11.062
 6869SOL     OW21349   4.396   2.066  10.809
 6869SOL    HW121350   4.475   2.072  10.755
 6869SOL    HW221351   4.427   2.076  10.898
 6870SOL     OW21352   3.802   2.195   9.345
 6870SOL    HW121353   3.714   2.177   9.312
 6870SOL    HW221354   3.832   2.270   9.293
 6871SOL     OW21355   3.793   2.018   9.621
 6871SOL    HW121356   3.778   2.098   9.570
 6871SOL    HW221357   3.878   1.987   9.591
 6872SOL     OW21358   4.338   2.701  10.745
 6872SOL    HW121359   4.378   2.786  10.729
 6872SOL    HW221360   4.411   2.640  10.752
 6873SOL     OW21361   4.115   3.596  10.873
 6873SOL    HW121362   4.036   3.649  10.863
 6873SOL    HW221363   4.087   3.521  10.926
 6874SOL     OW21364   4.309   2.593   9.977
 6874SOL    HW121365   4.351   2.678   9.965
 6874SOL    HW221366   4.240   2.591   9.911
 6875SOL     OW21367   3.808   3.096   9.975
 6875SOL    HW121368   3.812   3.048  10.058
 6875SOL    HW221369   3.877   3.056   9.921
 6876SOL     OW21370   4.407   3.254  10.943
 6876SOL    HW121371   4.331   3.205  10.975
 6876SOL    HW221372   4.400   3.339  10.985
 6877SOL     OW21373   4.163   2.295   9.843
 6877SOL    HW121374   4.180   2.227   9.778
 6877SOL    HW221375   4.106   2.253   9.907
 6878SOL     OW21376   4.053   2.415  10.600
 6878SOL    HW121377   4.107   2.358  10.654
 6878SOL    HW221378   4.073   2.388  10.510
 6879SOL     OW21379   0.037   3.461   9.996
 6879SOL    HW121380   0.059   3.523   9.926
 6879SOL    HW221381   4.466   3.408   9.959
 6880SOL     OW21382   3.768   2.933   9.615
 6880SOL    HW121383   3.862   2.924   9.598
 6880SOL    HW221384   3.739   2.845   9.639
 6881SOL     OW21385   3.924   4.296   0.088
 6881SOL    HW121386   3.899   4.353   0.161
 6881SOL    HW221387   3.938   4.356   0.015
 6882SOL     OW21388   3.947   4.006   0.990
 6882SOL    HW121389   3.978   3.970   1.074
 6882SOL    HW221390   3.857   3.973   0.982
 6883SOL     OW21391   3.728   4.102   0.644
 6883SOL    HW121392   3.645   4.130   0.682
 6883SOL    HW221393   3.706   4.025   0.591
 6884SOL     OW21394   0.060   0.011   1.859
 6884SOL    HW121395   0.114   0.076   1.903
 6884SOL    HW221396   0.075   0.027   1.765
 6885SOL     OW21397   4.172   4.117   1.480
 6885SOL    HW121398   4.247   4.059   1.490
 6885SOL    HW221399   4.096   4.062   1.500
 6886SOL     OW21400   3.812   4.367   0.558
 6886SOL    HW121401   3.796   4.278   0.589
 6886SOL    HW221402   3.867   4.406   0.626
 6887SOL     OW21403   3.841   4.475   1.583
 6887SOL    HW121404   3.910   4.493   1.648
 6887SOL    HW221405   3.808   0.061   1.559
 6888SOL     OW21406   0.022   3.735   0.531
 6888SOL    HW121407   0.053   3.792   0.461
 6888SOL    HW221408   4.427   3.746   0.531
 6889SOL     OW21409   4.057   3.975   1.808
 6889SOL    HW121410   4.100   4.058   1.830
 6889SOL    HW221411   3.968   3.985   1.839
 6890SOL     OW21412   4.251   3.913   0.881
 6890SOL    HW121413   4.271   3.919   0.974
 6890SOL    HW221414   4.261   4.003   0.848
 6891SOL     OW21415   3.923   4.006   1.505
 6891SOL    HW121416   3.838   4.049   1.495
 6891SOL    HW221417   3.907   3.936   1.568
 6892SOL     OW21418   4.092   4.387   0.410
 6892SOL    HW121419   4.129   4.313   0.458
 6892SOL    HW221420   4.020   4.418   0.466
 6893SOL     OW21421   4.343   3.842   0.117
 6893SOL    HW121422   4.434   3.815   0.122
 6893SOL    HW221423   4.314   3.817   0.029
 6894SOL     OW21424   4.261   3.789   0.500
 6894SOL    HW121425   4.181   3.792   0.553
 6894SOL    HW221426   4.256   3.867   0.445
 6895SOL     OW21427   4.010   3.772   0.200
 6895SOL    HW121428   4.052   3.826   0.134
 6895SOL    HW221429   4.076   3.708   0.225
 6896SOL     OW21430   0.361   4.394   1.524
 6896SOL    HW121431   0.300   4.370   1.455
 6896SOL    HW221432   0.430   4.328   1.519
 6897SOL     OW21433   3.800   4.279   1.393
 6897SOL    HW121434   3.891   4.272   1.364
 6897SOL    HW221435   3.800   4.353   1.454
 6898SOL     OW21436   4.283   3.935   1.149
 6898SOL    HW121437   4.327   3.870   1.204
 6898SOL    HW221438   4.197   3.946   1.188
 6899SOL     OW21439   4.248   3.994   0.324
 6899SOL    HW121440   4.281   3.934   0.256
 6899SOL    HW221441   4.229   4.075   0.277
 6900SOL     OW21442   4.155   0.010   1.271
 6900SOL    HW121443   4.219   0.007   1.342
 6900SOL    HW221444   4.113   4.424   1.273
 6901SOL     OW21445   4.304   4.263   0.872
 6901SOL    HW121446   4.313   4.332   0.806
 6901SOL    HW221447   4.372   4.283   0.937
 6902SOL     OW21448   4.232   3.776   1.734
 6902SOL    HW121449   4.186   3.716   1.675
 6902SOL    HW221450   4.167   3.844   1.754
 6903SOL     OW21451   4.024   3.924   1.247
 6903SOL    HW121452   3.985   3.956   1.329
 6903SOL    HW221453   4.004   3.830   1.247
 6904SOL     OW21454   4.021   3.790   0.626
 6904SOL    HW121455   4.004   3.881   0.650
 6904SOL    HW221456   4.032   3.745   0.709
 6905SOL     OW21457   4.040   0.013   0.921
 6905SOL    HW121458   4.117   0.070   0.927
 6905SOL    HW221459   4.060   4.440   0.980
 6906SOL     OW21460   4.070   4.242   1.017
 6906SOL    HW121461   4.029   4.158   0.997
 6906SOL    HW221462   4.147   4.246   0.961
 6907SOL     OW21463   3.759   4.271   1.115
 6907SOL    HW121464   3.839   4.253   1.065
 6907SOL    HW221465   3.788   4.273   1.206
 6908SOL     OW21466   3.916   4.245   1.719
 6908SOL    HW121467   3.971   4.196   1.657
 6908SOL    HW221468   3.862   4.302   1.664
 6909SOL     OW21469   0.001   4.294   0.282
 6909SOL    HW121470   0.029   4.213   0.325
 6909SOL    HW221471   4.486   4.356   0.353
 6910SOL     OW21472   4.195   4.215   0.175
 6910SOL    HW121473   4.247   4.285   0.216
 6910SOL    HW221474   4.106   4.249   0.176
 6911SOL     OW21475   3.986   4.045   0.717
 6911SOL    HW121476   3.898   4.073   0.694
 6911SOL    HW221477   3.984   4.032   0.812
 6912SOL     OW21478   4.391   3.929   1.494
 6912SOL    HW121479   4.480   3.932   1.459
 6912SOL    HW221480   4.403   3.922   1.589
 6913SOL     OW21481   3.803   4.050   0.055
 6913SOL    HW121482   3.736   4.047  11.087
 6913SOL    HW221483   3.832   4.141   0.057
 6914SOL     OW21484   3.791   3.883   0.314
 6914SOL    HW121485   3.776   3.957   0.255
 6914SOL    HW221486   3.874   3.845   0.285
 6915SOL     OW21487   4.406   4.272   1.745
 6915SOL    HW121488   4.425   4.355   1.789
 6915SOL    HW221489   4.492   4.239   1.717
 6916SOL     OW21490   4.172   4.154   0.542
 6916SOL    HW121491   4.187   4.087   0.476
 6916SOL    HW221492   4.110   4.114   0.603
 6917SOL     OW21493   4.047   4.264   1.291
 6917SOL    HW121494   4.102   4.208   1.345
 6917SOL    HW221495   4.069   4.239   1.201
 6918SOL     OW21496   3.950   4.293   1.987
 6918SOL    HW121497   3.889   4.358   2.022
 6918SOL    HW221498   3.938   4.297   1.892
 6919SOL     OW21499   3.947   4.005   2.852
 6919SOL    HW121500   3.978   3.970   2.936
 6919SOL    HW221501   3.857   3.973   2.844
 6920SOL     OW21502   3.728   4.101   2.506
 6920SOL    HW121503   3.646   4.130   2.544
 6920SOL    HW221504   3.704   4.024   2.454
 6921SOL     OW21505   0.060   0.011   3.721
 6921SOL    HW121506   0.114   0.076   3.765
 6921SOL    HW221507   0.075   0.027   3.627
 6922SOL     OW21508   4.172   4.117   3.342
 6922SOL    HW121509   4.247   4.058   3.352
 6922SOL    HW221510   4.096   4.062   3.362
 6923SOL     OW21511   3.801   4.372   2.428
 6923SOL    HW121512   3.796   4.280   2.454
 6923SOL    HW221513   3.868   4.409   2.486
 6924SOL     OW21514   3.842   4.475   3.445
 6924SOL    HW121515   3.910   4.493   3.510
 6924SOL    HW221516   3.808   0.061   3.421
 6925SOL     OW21517   0.022   3.731   2.388
 6925SOL    HW121518   0.053   3.793   2.322
 6925SOL    HW221519   4.427   3.745   2.390
 6926SOL     OW21520   4.057   3.975   3.669
 6926SOL    HW121521   4.100   4.058   3.692
 6926SOL    HW221522   3.968   3.985   3.701
 6927SOL     OW21523   4.251   3.912   2.743
 6927SOL    HW121524   4.270   3.919   2.836
 6927SOL    HW221525   4.262   4.001   2.709
 6928SOL     OW21526   3.923   4.006   3.366
 6928SOL    HW121527   3.838   4.050   3.357
 6928SOL    HW221528   3.907   3.937   3.430
 6929SOL     OW21529   4.091   4.393   2.277
 6929SOL    HW121530   4.128   4.316   2.320
 6929SOL    HW221531   4.020   4.421   2.334
 6930SOL     OW21532   4.339   3.830   1.981
 6930SOL    HW121533   4.434   3.822   1.978
 6930SOL    HW221534   4.310   3.809   1.892
 6931SOL     OW21535   4.261   3.789   2.364
 6931SOL    HW121536   4.181   3.793   2.417
 6931SOL    HW221537   4.256   3.866   2.308
 6932SOL     OW21538   4.018   3.771   2.047
 6932SOL    HW121539   4.078   3.836   2.010
 6932SOL    HW221540   4.074   3.707   2.089
 6933SOL     OW21541   0.361   4.394   3.386
 6933SOL    HW121542   0.299   4.370   3.317
 6933SOL    HW221543   0.430   4.328   3.380
 6934SOL     OW21544   3.800   4.279   3.255
 6934SOL    HW121545   3.891   4.272   3.226
 6934SOL    HW221546   3.800   4.353   3.316
 6935SOL     OW21547   4.283   3.934   3.011
 6935SOL    HW121548   4.327   3.870   3.066
 6935SOL    HW221549   4.197   3.946   3.050
 6936SOL     OW21550   4.245   3.988   2.185
 6936SOL    HW121551   4.285   3.933   2.118
 6936SOL    HW221552   4.229   4.072   2.141
 6937SOL     OW21553   4.155   0.010   3.133
 6937SOL    HW121554   4.219   0.007   3.204
 6937SOL    HW221555   4.113   4.424   3.135
 6938SOL     OW21556   4.304   4.263   2.734
 6938SOL    HW121557   4.312   4.332   2.668
 6938SOL    HW221558   4.371   4.284   2.799
 6939SOL     OW21559   4.232   3.776   3.596
 6939SOL    HW121560   4.186   3.716   3.537
 6939SOL    HW221561   4.167   3.844   3.616
 6940SOL     OW21562   4.024   3.924   3.109
 6940SOL    HW121563   3.985   3.956   3.191
 6940SOL    HW221564   4.004   3.830   3.109
 6941SOL     OW21565   4.020   3.790   2.487
 6941SOL    HW121566   4.004   3.881   2.511
 6941SOL    HW221567   4.032   3.745   2.571
 6942SOL     OW21568   4.040   0.013   2.785
 6942SOL    HW121569   4.116   0.071   2.790
 6942SOL    HW221570   4.061   4.440   2.843
 6943SOL     OW21571   4.070   4.242   2.880
 6943SOL    HW121572   4.029   4.158   2.859
 6943SOL    HW221573   4.147   4.246   2.823
 6944SOL     OW21574   3.759   4.270   2.977
 6944SOL    HW121575   3.840   4.254   2.927
 6944SOL    HW221576   3.788   4.273   3.068
 6945SOL     OW21577   3.916   4.245   3.581
 6945SOL    HW121578   3.971   4.196   3.519
 6945SOL    HW221579   3.862   4.302   3.526
 6946SOL     OW21580   0.003   4.295   2.138
 6946SOL    HW121581   0.028   4.211   2.176
 6946SOL    HW221582   4.476   4.348   2.213
 6947SOL     OW21583   4.202   4.213   2.050
 6947SOL    HW121584   4.253   4.293   2.066
 6947SOL    HW221585   4.112   4.244   2.041
 6948SOL     OW21586   3.986   4.044   2.578
 6948SOL    HW121587   3.897   4.073   2.557
 6948SOL    HW221588   3.984   4.031   2.673
 6949SOL     OW21589   4.391   3.928   3.356
 6949SOL    HW121590   4.480   3.932   3.321
 6949SOL    HW221591   4.403   3.923   3.451
 6950SOL     OW21592   3.799   4.044   1.891
 6950SOL    HW121593   3.712   4.037   1.854
 6950SOL    HW221594   3.831   4.129   1.861
 6951SOL     OW21595   3.793   3.880   2.173
 6951SOL    HW121596   3.778   3.960   2.123
 6951SOL    HW221597   3.878   3.848   2.142
 6952SOL     OW21598   4.406   4.271   3.607
 6952SOL    HW121599   4.425   4.354   3.651
 6952SOL    HW221600   4.492   4.239   3.579
 6953SOL     OW21601   4.175   4.153   2.406
 6953SOL    HW121602   4.185   4.089   2.335
 6953SOL    HW221603   4.111   4.113   2.465
 6954SOL     OW21604   4.047   4.264   3.153
 6954SOL    HW121605   4.103   4.208   3.207
 6954SOL    HW221606   4.068   4.239   3.063
 6955SOL     OW21607   3.950   4.292   3.849
 6955SOL    HW121608   3.889   4.358   3.884
 6955SOL    HW221609   3.938   4.297   3.754
 6956SOL     OW21610   3.947   4.005   4.714
 6956SOL    HW121611   3.978   3.970   4.798
 6956SOL    HW221612   3.857   3.973   4.706
 6957SOL     OW21613   3.728   4.101   4.368
 6957SOL    HW121614   3.646   4.130   4.406
 6957SOL    HW221615   3.704   4.024   4.316
 6958SOL     OW21616   0.060   0.011   5.583
 6958SOL    HW121617   0.114   0.076   5.627
 6958SOL    HW221618   0.075   0.027   5.489
 6959SOL     OW21619   4.172   4.117   5.204
 6959SOL    HW121620   4.247   4.058   5.213
 6959SOL    HW221621   4.096   4.062   5.224
 6960SOL     OW21622   3.803   4.371   4.289
 6960SOL    HW121623   3.796   4.279   4.316
 6960SOL    HW221624   3.868   4.409   4.348
 6961SOL     OW21625   3.841   4.475   5.308
 6961SOL    HW121626   3.910   4.494   5.372
 6961SOL    HW221627   3.808   0.061   5.282
 6962SOL     OW21628   0.022   3.731   4.250
 6962SOL    HW121629   0.053   3.793   4.184
 6962SOL    HW221630   4.427   3.745   4.252
 6963SOL     OW21631   4.058   3.975   5.532
 6963SOL    HW121632   4.099   4.058   5.554
 6963SOL    HW221633   3.968   3.985   5.563
 6964SOL     OW21634   4.251   3.912   4.605
 6964SOL    HW121635   4.270   3.919   4.698
 6964SOL    HW221636   4.262   4.001   4.571
 6965SOL     OW21637   3.923   4.006   5.228
 6965SOL    HW121638   3.838   4.049   5.218
 6965SOL    HW221639   3.907   3.936   5.292
 6966SOL     OW21640   4.092   4.393   4.139
 6966SOL    HW121641   4.128   4.316   4.183
 6966SOL    HW221642   4.020   4.420   4.196
 6967SOL     OW21643   4.339   3.829   3.843
 6967SOL    HW121644   4.434   3.822   3.840
 6967SOL    HW221645   4.310   3.809   3.754
 6968SOL     OW21646   4.261   3.789   4.226
 6968SOL    HW121647   4.181   3.793   4.279
 6968SOL    HW221648   4.256   3.866   4.170
 6969SOL     OW21649   4.018   3.771   3.909
 6969SOL    HW121650   4.078   3.836   3.872
 6969SOL    HW221651   4.074   3.707   3.951
 6970SOL     OW21652   0.361   4.394   5.248
 6970SOL    HW121653   0.299   4.370   5.179
 6970SOL    HW221654   0.430   4.328   5.242
 6971SOL     OW21655   3.800   4.279   5.117
 6971SOL    HW121656   3.891   4.272   5.088
 6971SOL    HW221657   3.800   4.353   5.178
 6972SOL     OW21658   4.283   3.935   4.873
 6972SOL    HW121659   4.326   3.869   4.928
 6972SOL    HW221660   4.197   3.946   4.912
 6973SOL     OW21661   4.245   3.988   4.046
 6973SOL    HW121662   4.285   3.933   3.979
 6973SOL    HW221663   4.229   4.072   4.003
 6974SOL     OW21664   4.155   0.010   4.994
 6974SOL    HW121665   4.219   0.007   5.066
 6974SOL    HW221666   4.113   4.424   4.997
 6975SOL     OW21667   4.304   4.263   4.596
 6975SOL    HW121668   4.312   4.332   4.530
 6975SOL    HW221669   4.371   4.284   4.660
 6976SOL     OW21670   4.232   3.776   5.458
 6976SOL    HW121671   4.186   3.716   5.399
 6976SOL    HW221672   4.167   3.844   5.478
 6977SOL     OW21673   4.024   3.924   4.971
 6977SOL    HW121674   3.985   3.956   5.053
 6977SOL    HW221675   4.004   3.830   4.971
 6978SOL     OW21676   4.020   3.790   4.349
 6978SOL    HW121677   4.004   3.881   4.373
 6978SOL    HW221678   4.032   3.745   4.433
 6979SOL     OW21679   4.040   0.013   4.647
 6979SOL    HW121680   4.116   0.071   4.652
 6979SOL    HW221681   4.062   4.440   4.705
 6980SOL     OW21682   4.070   4.242   4.742
 6980SOL    HW121683   4.029   4.157   4.721
 6980SOL    HW221684   4.147   4.246   4.685
 6981SOL     OW21685   3.759   4.270   4.839
 6981SOL    HW121686   3.839   4.254   4.789
 6981SOL    HW221687   3.788   4.273   4.930
 6982SOL     OW21688   3.916   4.245   5.443
 6982SOL    HW121689   3.970   4.196   5.381
 6982SOL    HW221690   3.862   4.302   5.388
 6983SOL     OW21691   0.003   4.295   4.000
 6983SOL    HW121692   0.027   4.211   4.038
 6983SOL    HW221693   4.476   4.348   4.075
 6984SOL     OW21694   4.202   4.213   3.912
 6984SOL    HW121695   4.253   4.293   3.928
 6984SOL    HW221696   4.112   4.244   3.903
 6985SOL     OW21697   3.986   4.044   4.440
 6985SOL    HW121698   3.897   4.073   4.418
 6985SOL    HW221699   3.984   4.031   4.535
 6986SOL     OW21700   4.391   3.928   5.218
 6986SOL    HW121701   4.480   3.932   5.183
 6986SOL    HW221702   4.403   3.923   5.313
 6987SOL     OW21703   3.799   4.044   3.753
 6987SOL    HW121704   3.711   4.037   3.716
 6987SOL    HW221705   3.831   4.129   3.723
 6988SOL     OW21706   3.793   3.880   4.035
 6988SOL    HW121707   3.778   3.960   3.985
 6988SOL    HW221708   3.878   3.848   4.004
 6989SOL     OW21709   4.406   4.271   5.469
 6989SOL    HW121710   4.425   4.354   5.513
 6989SOL    HW221711   4.492   4.239   5.441
 6990SOL     OW21712   4.175   4.153   4.268
 6990SOL    HW121713   4.185   4.089   4.197
 6990SOL    HW221714   4.111   4.113   4.327
 6991SOL     OW21715   4.047   4.264   5.015
 6991SOL    HW121716   4.103   4.208   5.069
 6991SOL    HW221717   4.068   4.239   4.925
 6992SOL     OW21718   3.951   4.293   5.711
 6992SOL    HW121719   3.889   4.358   5.746
 6992SOL    HW221720   3.938   4.297   5.616
 6993SOL     OW21721   3.947   4.005   6.576
 6993SOL    HW121722   3.978   3.970   6.660
 6993SOL    HW221723   3.857   3.973   6.568
 6994SOL     OW21724   3.728   4.101   6.230
 6994SOL    HW121725   3.646   4.130   6.268
 6994SOL    HW221726   3.704   4.024   6.178
 6995SOL     OW21727   0.060   0.011   7.445
 6995SOL    HW121728   0.114   0.076   7.489
 6995SOL    HW221729   0.075   0.027   7.351
 6996SOL     OW21730   4.172   4.117   7.066
 6996SOL    HW121731   4.247   4.058   7.076
 6996SOL    HW221732   4.096   4.062   7.086
 6997SOL     OW21733   3.802   4.372   6.152
 6997SOL    HW121734   3.796   4.280   6.178
 6997SOL    HW221735   3.868   4.409   6.210
 6998SOL     OW21736   3.841   4.475   7.169
 6998SOL    HW121737   3.910   4.493   7.234
 6998SOL    HW221738   3.808   0.061   7.144
 6999SOL     OW21739   0.022   3.731   6.111
 6999SOL    HW121740   0.053   3.793   6.046
 6999SOL    HW221741   4.427   3.744   6.114
 7000SOL     OW21742   4.057   3.975   7.394
 7000SOL    HW121743   4.100   4.058   7.416
 7000SOL    HW221744   3.968   3.985   7.425
 7001SOL     OW21745   4.251   3.912   6.467
 7001SOL    HW121746   4.270   3.919   6.560
 7001SOL    HW221747   4.262   4.001   6.433
 7002SOL     OW21748   3.923   4.006   7.090
 7002SOL    HW121749   3.838   4.049   7.080
 7002SOL    HW221750   3.907   3.936   7.154
 7003SOL     OW21751   4.092   4.393   6.001
 7003SOL    HW121752   4.128   4.316   6.045
 7003SOL    HW221753   4.020   4.420   6.058
 7004SOL     OW21754   4.339   3.829   5.705
 7004SOL    HW121755   4.434   3.822   5.702
 7004SOL    HW221756   4.310   3.809   5.616
 7005SOL     OW21757   4.261   3.789   6.088
 7005SOL    HW121758   4.181   3.793   6.141
 7005SOL    HW221759   4.256   3.866   6.032
 7006SOL     OW21760   4.017   3.772   5.771
 7006SOL    HW121761   4.078   3.836   5.734
 7006SOL    HW221762   4.074   3.707   5.813
 7007SOL     OW21763   0.361   4.394   7.110
 7007SOL    HW121764   0.299   4.370   7.041
 7007SOL    HW221765   0.430   4.328   7.104
 7008SOL     OW21766   3.800   4.279   6.979
 7008SOL    HW121767   3.891   4.272   6.950
 7008SOL    HW221768   3.800   4.353   7.040
 7009SOL     OW21769   4.283   3.934   6.735
 7009SOL    HW121770   4.326   3.870   6.790
 7009SOL    HW221771   4.197   3.946   6.774
 7010SOL     OW21772   4.245   3.988   5.909
 7010SOL    HW121773   4.285   3.933   5.841
 7010SOL    HW221774   4.229   4.072   5.865
 7011SOL     OW21775   4.155   0.010   6.857
 7011SOL    HW121776   4.219   0.007   6.928
 7011SOL    HW221777   4.113   4.424   6.859
 7012SOL     OW21778   4.304   4.263   6.458
 7012SOL    HW121779   4.312   4.332   6.392
 7012SOL    HW221780   4.371   4.284   6.523
 7013SOL     OW21781   4.232   3.776   7.320
 7013SOL    HW121782   4.186   3.716   7.261
 7013SOL    HW221783   4.167   3.844   7.340
 7014SOL     OW21784   4.024   3.924   6.833
 7014SOL    HW121785   3.985   3.956   6.915
 7014SOL    HW221786   4.004   3.830   6.833
 7015SOL     OW21787   4.020   3.790   6.211
 7015SOL    HW121788   4.004   3.881   6.235
 7015SOL    HW221789   4.032   3.745   6.295
 7016SOL     OW21790   4.040   0.013   6.509
 7016SOL    HW121791   4.116   0.071   6.514
 7016SOL    HW221792   4.061   4.440   6.567
 7017SOL     OW21793   4.070   4.242   6.604
 7017SOL    HW121794   4.029   4.158   6.583
 7017SOL    HW221795   4.147   4.246   6.547
 7018SOL     OW21796   3.759   4.270   6.701
 7018SOL    HW121797   3.839   4.254   6.651
 7018SOL    HW221798   3.788   4.273   6.792
 7019SOL     OW21799   3.916   4.245   7.305
 7019SOL    HW121800   3.971   4.196   7.243
 7019SOL    HW221801   3.862   4.302   7.250
 7020SOL     OW21802   0.003   4.295   5.862
 7020SOL    HW121803   0.027   4.211   5.900
 7020SOL    HW221804   4.476   4.348   5.937
 7021SOL     OW21805   4.202   4.213   5.774
 7021SOL    HW121806   4.253   4.293   5.789
 7021SOL    HW221807   4.112   4.244   5.765
 7022SOL     OW21808   3.986   4.044   6.303
 7022SOL    HW121809   3.897   4.073   6.281
 7022SOL    HW221810   3.984   4.031   6.397
 7023SOL     OW21811   4.391   3.928   7.080
 7023SOL    HW121812   4.480   3.932   7.045
 7023SOL    HW221813   4.403   3.922   7.175
 7024SOL     OW21814   3.799   4.044   5.615
 7024SOL    HW121815   3.712   4.037   5.578
 7024SOL    HW221816   3.831   4.129   5.585
 7025SOL     OW21817   3.793   3.880   5.897
 7025SOL    HW121818   3.778   3.960   5.847
 7025SOL    HW221819   3.878   3.848   5.866
 7026SOL     OW21820   4.406   4.271   7.331
 7026SOL    HW121821   4.425   4.354   7.375
 7026SOL    HW221822   4.492   4.239   7.303
 7027SOL     OW21823   4.175   4.153   6.130
 7027SOL    HW121824   4.185   4.089   6.059
 7027SOL    HW221825   4.111   4.113   6.189
 7028SOL     OW21826   4.047   4.264   6.877
 7028SOL    HW121827   4.103   4.208   6.931
 7028SOL    HW221828   4.068   4.239   6.787
 7029SOL     OW21829   3.950   4.293   7.573
 7029SOL    HW121830   3.889   4.357   7.608
 7029SOL    HW221831   3.938   4.297   7.478
 7030SOL     OW21832   3.947   4.005   8.438
 7030SOL    HW121833   3.978   3.970   8.522
 7030SOL    HW221834   3.857   3.973   8.430
 7031SOL     OW21835   3.728   4.101   8.092
 7031SOL    HW121836   3.646   4.130   8.130
 7031SOL    HW221837   3.704   4.024   8.040
 7032SOL     OW21838   0.060   0.011   9.307
 7032SOL    HW121839   0.114   0.076   9.351
 7032SOL    HW221840   0.075   0.027   9.213
 7033SOL     OW21841   4.172   4.117   8.928
 7033SOL    HW121842   4.247   4.058   8.938
 7033SOL    HW221843   4.096   4.062   8.948
 7034SOL     OW21844   3.801   4.372   8.014
 7034SOL    HW121845   3.796   4.280   8.039
 7034SOL    HW221846   3.868   4.409   8.072
 7035SOL     OW21847   3.841   4.475   9.031
 7035SOL    HW121848   3.910   4.493   9.096
 7035SOL    HW221849   3.809   0.061   9.006
 7036SOL     OW21850   0.022   3.731   7.973
 7036SOL    HW121851   0.053   3.793   7.908
 7036SOL    HW221852   4.427   3.744   7.976
 7037SOL     OW21853   4.057   3.975   9.255
 7037SOL    HW121854   4.100   4.058   9.278
 7037SOL    HW221855   3.968   3.985   9.287
 7038SOL     OW21856   4.251   3.912   8.329
 7038SOL    HW121857   4.270   3.919   8.422
 7038SOL    HW221858   4.262   4.001   8.295
 7039SOL     OW21859   3.923   4.006   8.952
 7039SOL    HW121860   3.838   4.049   8.943
 7039SOL    HW221861   3.907   3.936   9.016
 7040SOL     OW21862   4.092   4.393   7.863
 7040SOL    HW121863   4.128   4.316   7.907
 7040SOL    HW221864   4.020   4.421   7.920
 7041SOL     OW21865   4.339   3.830   7.567
 7041SOL    HW121866   4.434   3.822   7.564
 7041SOL    HW221867   4.310   3.809   7.478
 7042SOL     OW21868   4.261   3.789   7.950
 7042SOL    HW121869   4.181   3.793   8.003
 7042SOL    HW221870   4.256   3.866   7.894
 7043SOL     OW21871   4.018   3.772   7.633
 7043SOL    HW121872   4.078   3.836   7.596
 7043SOL    HW221873   4.074   3.707   7.675
 7044SOL     OW21874   0.361   4.394   8.972
 7044SOL    HW121875   0.299   4.370   8.903
 7044SOL    HW221876   0.430   4.328   8.966
 7045SOL     OW21877   3.800   4.279   8.841
 7045SOL    HW121878   3.891   4.272   8.812
 7045SOL    HW221879   3.800   4.353   8.902
 7046SOL     OW21880   4.283   3.934   8.597
 7046SOL    HW121881   4.327   3.870   8.652
 7046SOL    HW221882   4.197   3.946   8.636
 7047SOL     OW21883   4.245   3.988   7.771
 7047SOL    HW121884   4.285   3.933   7.704
 7047SOL    HW221885   4.229   4.072   7.727
 7048SOL     OW21886   4.155   0.010   8.719
 7048SOL    HW121887   4.219   0.007   8.790
 7048SOL    HW221888   4.113   4.424   8.721
 7049SOL     OW21889   4.304   4.263   8.320
 7049SOL    HW121890   4.312   4.332   8.254
 7049SOL    HW221891   4.371   4.284   8.385
 7050SOL     OW21892   4.232   3.776   9.182
 7050SOL    HW121893   4.186   3.716   9.123
 7050SOL    HW221894   4.167   3.844   9.202
 7051SOL     OW21895   4.024   3.924   8.695
 7051SOL    HW121896   3.985   3.956   8.777
 7051SOL    HW221897   4.004   3.830   8.695
 7052SOL     OW21898   4.020   3.790   8.073
 7052SOL    HW121899   4.004   3.881   8.097
 7052SOL    HW221900   4.032   3.745   8.157
 7053SOL     OW21901   4.040   0.013   8.371
 7053SOL    HW121902   4.116   0.071   8.376
 7053SOL    HW221903   4.061   4.440   8.429
 7054SOL     OW21904   4.070   4.242   8.465
 7054SOL    HW121905   4.029   4.158   8.445
 7054SOL    HW221906   4.147   4.246   8.409
 7055SOL     OW21907   3.759   4.271   8.563
 7055SOL    HW121908   3.839   4.254   8.513
 7055SOL    HW221909   3.788   4.273   8.654
 7056SOL     OW21910   3.916   4.245   9.167
 7056SOL    HW121911   3.971   4.196   9.105
 7056SOL    HW221912   3.862   4.302   9.112
 7057SOL     OW21913   0.003   4.295   7.724
 7057SOL    HW121914   0.028   4.211   7.762
 7057SOL    HW221915   4.476   4.349   7.799
 7058SOL     OW21916   4.202   4.213   7.636
 7058SOL    HW121917   4.253   4.293   7.652
 7058SOL    HW221918   4.112   4.244   7.627
 7059SOL     OW21919   3.986   4.044   8.165
 7059SOL    HW121920   3.897   4.073   8.143
 7059SOL    HW221921   3.984   4.031   8.259
 7060SOL     OW21922   4.391   3.928   8.942
 7060SOL    HW121923   4.480   3.932   8.907
 7060SOL    HW221924   4.403   3.922   9.037
 7061SOL     OW21925   3.799   4.044   7.477
 7061SOL    HW121926   3.712   4.037   7.440
 7061SOL    HW221927   3.831   4.129   7.447
 7062SOL     OW21928   3.793   3.880   7.759
 7062SOL    HW121929   3.778   3.960   7.709
 7062SOL    HW221930   3.878   3.848   7.728
 7063SOL     OW21931   4.406   4.272   9.193
 7063SOL    HW121932   4.425   4.354   9.237
 7063SOL    HW221933   4.492   4.239   9.165
 7064SOL     OW21934   4.175   4.153   7.992
 7064SOL    HW121935   4.185   4.089   7.921
 7064SOL    HW221936   4.111   4.113   8.051
 7065SOL     OW21937   4.047   4.264   8.739
 7065SOL    HW121938   4.103   4.208   8.793
 7065SOL    HW221939   4.068   4.239   8.649
 7066SOL     OW21940   3.950   4.293   9.435
 7066SOL    HW121941   3.889   4.358   9.470
 7066SOL    HW221942   3.938   4.297   9.340
 7067SOL     OW21943   3.947   4.005  10.300
 7067SOL    HW121944   3.978   3.971  10.384
 7067SOL    HW221945   3.857   3.973  10.292
 7068SOL     OW21946   3.728   4.101   9.954
 7068SOL    HW121947   3.646   4.130   9.992
 7068SOL    HW221948   3.704   4.024   9.902
 7069SOL     OW21949   4.179   4.122  10.797
 7069SOL    HW121950   4.246   4.054  10.799
 7069SOL    HW221951   4.098   4.076  10.818
 7070SOL     OW21952   3.801   4.372   9.877
 7070SOL    HW121953   3.796   4.280   9.901
 7070SOL    HW221954   3.868   4.409   9.934
 7071SOL     OW21955   3.852   4.458  10.906
 7071SOL    HW121956   3.947   4.466  10.911
 7071SOL    HW221957   3.821   0.048  10.895
 7072SOL     OW21958   0.022   3.730   9.835
 7072SOL    HW121959   0.053   3.793   9.770
 7072SOL    HW221960   4.427   3.744   9.838
 7073SOL     OW21961   4.066   3.979   0.015
 7073SOL    HW121962   4.110   4.060   0.042
 7073SOL    HW221963   3.973   3.995   0.031
 7074SOL     OW21964   4.251   3.913  10.192
 7074SOL    HW121965   4.271   3.920  10.285
 7074SOL    HW221966   4.262   4.001  10.157
 7075SOL     OW21967   3.927   4.005  10.807
 7075SOL    HW121968   3.846   4.056  10.807
 7075SOL    HW221969   3.915   3.942  10.878
 7076SOL     OW21970   4.092   4.393   9.725
 7076SOL    HW121971   4.128   4.316   9.768
 7076SOL    HW221972   4.021   4.421   9.783
 7077SOL     OW21973   4.339   3.829   9.429
 7077SOL    HW121974   4.434   3.822   9.426
 7077SOL    HW221975   4.310   3.809   9.340
 7078SOL     OW21976   4.261   3.789   9.812
 7078SOL    HW121977   4.181   3.793   9.865
 7078SOL    HW221978   4.256   3.866   9.756
 7079SOL     OW21979   4.018   3.772   9.495
 7079SOL    HW121980   4.078   3.836   9.459
 7079SOL    HW221981   4.074   3.707   9.537
 7080SOL     OW21982   0.326   4.395  10.803
 7080SOL    HW121983   0.238   4.358  10.802
 7080SOL    HW221984   0.383   4.324  10.772
 7081SOL     OW21985   3.798   4.280  10.705
 7081SOL    HW121986   3.890   4.272  10.677
 7081SOL    HW221987   3.801   4.340  10.779
 7082SOL     OW21988   4.284   3.936  10.460
 7082SOL    HW121989   4.324   3.865  10.511
 7082SOL    HW221990   4.196   3.946  10.498
 7083SOL     OW21991   4.245   3.988   9.633
 7083SOL    HW121992   4.285   3.933   9.566
 7083SOL    HW221993   4.229   4.072   9.589
 7084SOL     OW21994   4.154   0.008  10.575
 7084SOL    HW121995   4.221   0.003  10.643
 7084SOL    HW221996   4.109   4.424  10.580
 7085SOL     OW21997   4.304   4.263  10.182
 7085SOL    HW121998   4.313   4.332  10.117
 7085SOL    HW221999   4.372   4.282  10.247
 7086SOL     OW22000   4.125   4.463  10.913
 7086SOL    HW122001   4.191   0.027  10.885
 7086SOL    HW222002   4.171   4.379  10.908
 7087SOL     OW22003   4.025   3.924  10.556
 7087SOL    HW122004   3.988   3.957  10.638
 7087SOL    HW222005   4.005   3.831  10.557
 7088SOL     OW22006   4.020   3.790   9.935
 7088SOL    HW122007   4.004   3.881   9.959
 7088SOL    HW222008   4.032   3.745  10.019
 7089SOL     OW22009   4.040   0.013  10.233
 7089SOL    HW122010   4.116   0.071  10.239
 7089SOL    HW222011   4.061   4.440  10.291
 7090SOL     OW22012   4.070   4.242  10.328
 7090SOL    HW122013   4.029   4.158  10.307
 7090SOL    HW222014   4.147   4.246  10.271
 7091SOL     OW22015   3.760   4.272  10.426
 7091SOL    HW122016   3.840   4.255  10.377
 7091SOL    HW222017   3.787   4.275  10.518
 7092SOL     OW22018   0.003   4.295   9.586
 7092SOL    HW122019   0.028   4.211   9.624
 7092SOL    HW222020   4.477   4.349   9.661
 7093SOL     OW22021   4.202   4.213   9.498
 7093SOL    HW122022   4.253   4.292   9.514
 7093SOL    HW222023   4.112   4.244   9.489
 7094SOL     OW22024   3.986   4.044  10.027
 7094SOL    HW122025   3.897   4.073  10.005
 7094SOL    HW222026   3.984   4.031  10.121
 7095SOL     OW22027   4.397   3.928  10.810
 7095SOL    HW122028   4.475   3.936  10.756
 7095SOL    HW222029   4.428   3.941  10.899
 7096SOL     OW22030   3.799   4.044   9.339
 7096SOL    HW122031   3.712   4.037   9.302
 7096SOL    HW222032   3.831   4.129   9.309
 7097SOL     OW22033   3.793   3.880   9.621
 7097SOL    HW122034   3.778   3.960   9.570
 7097SOL    HW222035   3.878   3.848   9.590
 7098SOL     OW22036   4.174   4.153   9.853
 7098SOL    HW122037   4.185   4.089   9.783
 7098SOL    HW222038   4.111   4.113   9.913
 7099SOL     OW22039   4.047   4.262  10.601
 7099SOL    HW122040   4.103   4.206  10.655
 7099SOL    HW222041   4.068   4.237  10.511
   4.50000   4.50000  11.10000
