2gCDOC_1PEG_l14
22215
    1LIG      O    1   1.951   2.011   0.042
    1LIG      C    2   2.022   2.023   0.197
    1LIG     C1    3   1.948   1.984   0.364
    1LIG     O1    4   2.003   2.031   0.519
    1LIG     C2    5   1.948   1.989   0.674
    1LIG     C3    6   2.016   2.048   0.835
    1LIG     O2    7   1.963   2.009   0.989
    1LIG     C4    8   2.028   2.043   1.139
    1LIG     C5    9   1.959   1.995   1.302
    1LIG     O3   10   2.021   2.031   1.453
    1LIG     C6   11   1.966   1.983   1.603
    1LIG     C7   12   2.033   2.033   1.765
    1LIG     O4   13   1.973   1.994   1.916
    1LIG     C8   14   2.031   2.033   2.069
    1LIG     C9   15   1.954   1.989   2.230
    1LIG     O5   16   2.005   2.034   2.383
    1LIG    C10   17   1.946   1.992   2.533
    1LIG    C11   18   2.013   2.050   2.692
    1LIG     O6   19   1.959   2.011   2.843
    1LIG    C12   20   2.025   2.044   2.992
    1LIG    C13   21   1.955   1.997   3.153
    1LIG     O7   22   2.017   2.034   3.302
    1LIG    C14   23   1.962   1.984   3.451
    1LIG    C15   24   2.030   2.035   3.612
    1LIG     O8   25   1.970   1.996   3.763
    1LIG    C16   26   2.030   2.032   3.916
    1LIG    C17   27   1.953   1.989   4.076
    1LIG     O9   28   2.005   2.034   4.228
    1LIG    C18   29   1.945   1.992   4.378
    1LIG    C19   30   2.012   2.050   4.536
    1LIG    O10   31   1.957   2.011   4.687
    1LIG    C20   32   2.023   2.044   4.834
    1LIG    C21   33   1.952   1.999   4.995
    1LIG    O11   34   2.015   2.036   5.143
    1LIG    C22   35   1.961   1.987   5.292
    1LIG    C23   36   2.030   2.038   5.451
    1LIG    O12   37   1.970   2.002   5.602
    1LIG    C24   38   2.035   2.034   5.752
    1LIG    C25   39   1.956   1.999   5.910
    1LIG    O13   40   2.014   2.038   6.062
    1LIG    C26   41   1.969   1.980   6.210
    1LIG    C27   42   2.024   2.041   6.371
    1LIG    O14   43   1.965   1.995   6.518
    1LIG    C28   44   2.018   2.031   6.670
    1LIG    C29   45   1.947   1.973   6.827
    1LIG    O15   46   2.004   2.011   6.979
    1LIG    C30   47   1.949   1.961   7.127
    1LIG    C31   48   2.027   2.000   7.285
    1LIG    O16   49   1.965   1.983   7.441
    1LIG    C32   50   2.034   2.017   7.590
    1LIG    C33   51   1.962   1.985   7.755
    1LIG    O17   52   2.029   2.022   7.905
    1LIG    C34   53   1.975   1.987   8.060
    1LIG    C35   54   2.038   2.044   8.219
    1LIG    O18   55   1.969   2.006   8.365
    1LIG    C36   56   2.021   2.040   8.517
    1LIG    C37   57   1.939   1.994   8.674
    1LIG    O19   58   1.992   2.034   8.828
    1LIG    C38   59   1.939   1.982   8.977
    1LIG    C39   60   2.011   2.030   9.137
    1LIG    O20   61   1.956   1.992   9.290
    1LIG    C40   62   2.019   2.033   9.440
    1LIG    C41   63   1.954   1.983   9.603
    1LIG    O21   64   2.013   2.028   9.752
    1LIG    C42   65   1.959   1.985   9.903
    1LIG    C43   66   2.029   2.039  10.062
    1LIG    O22   67   1.970   2.003  10.212
    1LIG    C44   68   2.029   2.039  10.363
    1LIG    C45   69   1.952   1.995  10.522
    1LIG    O23   70   2.009   2.033  10.673
    1LIG    C46   71   1.952   1.983  10.821
    1LIG    C47   72   2.020   2.030  10.983
    1LIG    O24   73   1.963   1.990  11.135
    1LIG    C48   74   2.023   2.032  11.285
    1LIG    C49   75   1.957   1.981  11.447
    1LIG    O25   76   2.015   2.026  11.597
    1LIG    C50   77   1.959   1.984  11.748
    1LIG    C51   78   2.031   2.036  11.907
    1LIG    O26   79   1.972   2.001  12.059
    1LIG    C52   80   2.031   2.039  12.211
    1LIG    C53   81   1.954   1.995  12.371
    1LIG    O27   82   2.010   2.033  12.525
    1LIG    C54   83   1.954   1.982  12.674
    1LIG    C55   84   2.022   2.029  12.839
    1LIG    O28   85   1.965   1.988  12.993
    1LIG    C56   86   2.023   2.029  13.148
    1LIG    C57   87   1.954   1.974  13.312
    1LIG    O29   88   2.008   2.012  13.470
    1LIG    C58   89   1.938   1.970  13.619
    1LIG    C59   90   2.015   1.968  13.790
    1LIG      H   91   2.053   2.128   0.206
    1LIG     H1   92   2.116   1.968   0.192
    1LIG     H2   93   1.946   1.875   0.366
    1LIG     H3   94   1.844   2.015   0.358
    1LIG     H4   95   1.954   1.880   0.680
    1LIG     H5   96   1.841   2.011   0.677
    1LIG     H6   97   2.016   2.157   0.830
    1LIG     H7   98   2.122   2.022   0.833
    1LIG     H8   99   2.040   2.152   1.145
    1LIG     H9  100   2.130   2.005   1.138
    1LIG    H10  101   1.946   1.886   1.300
    1LIG    H11  102   1.857   2.034   1.302
    1LIG    H12  103   1.973   1.873   1.603
    1LIG    H13  104   1.859   2.004   1.606
    1LIG    H14  105   2.040   2.142   1.761
    1LIG    H15  106   2.137   1.999   1.764
    1LIG    H16  107   2.045   2.141   2.072
    1LIG    H17  108   2.132   1.992   2.074
    1LIG    H18  109   1.950   1.879   2.229
    1LIG    H19  110   1.849   2.020   2.221
    1LIG    H20  111   1.951   1.882   2.538
    1LIG    H21  112   1.839   2.016   2.534
    1LIG    H22  113   2.014   2.160   2.686
    1LIG    H23  114   2.120   2.024   2.690
    1LIG    H24  115   2.038   2.153   2.996
    1LIG    H25  116   2.127   2.005   2.990
    1LIG    H26  117   1.941   1.889   3.150
    1LIG    H27  118   1.853   2.037   3.152
    1LIG    H28  119   1.969   1.875   3.450
    1LIG    H29  120   1.855   2.005   3.454
    1LIG    H30  121   2.036   2.144   3.608
    1LIG    H31  122   2.134   2.001   3.611
    1LIG    H32  123   2.047   2.140   3.919
    1LIG    H33  124   2.131   1.989   3.919
    1LIG    H34  125   1.949   1.880   4.075
    1LIG    H35  126   1.848   2.020   4.068
    1LIG    H36  127   1.949   1.883   4.383
    1LIG    H37  128   1.838   2.017   4.378
    1LIG    H38  129   2.013   2.160   4.531
    1LIG    H39  130   2.118   2.024   4.535
    1LIG    H40  131   2.038   2.153   4.838
    1LIG    H41  132   2.124   2.003   4.833
    1LIG    H42  133   1.938   1.890   4.993
    1LIG    H43  134   1.850   2.039   4.994
    1LIG    H44  135   1.968   1.878   5.291
    1LIG    H45  136   1.854   2.009   5.296
    1LIG    H46  137   2.038   2.147   5.446
    1LIG    H47  138   2.134   2.003   5.450
    1LIG    H48  139   2.062   2.141   5.754
    1LIG    H49  140   2.132   1.983   5.755
    1LIG    H50  141   1.935   1.892   5.908
    1LIG    H51  142   1.856   2.045   5.904
    1LIG    H52  143   2.000   1.876   6.213
    1LIG    H53  144   1.859   1.977   6.213
    1LIG    H54  145   2.018   2.150   6.368
    1LIG    H55  146   2.132   2.020   6.374
    1LIG    H56  147   2.021   2.140   6.677
    1LIG    H57  148   2.123   1.999   6.673
    1LIG    H58  149   1.949   1.864   6.821
    1LIG    H59  150   1.841   2.002   6.824
    1LIG    H60  151   1.943   1.852   7.124
    1LIG    H61  152   1.847   1.997   7.138
    1LIG    H62  153   2.057   2.103   7.268
    1LIG    H63  154   2.122   1.945   7.284
    1LIG    H64  155   2.056   2.124   7.591
    1LIG    H65  156   2.132   1.967   7.591
    1LIG    H66  157   1.941   1.878   7.756
    1LIG    H67  158   1.864   2.033   7.753
    1LIG    H68  159   1.970   1.879   8.070
    1LIG    H69  160   1.873   2.023   8.066
    1LIG    H70  161   2.043   2.153   8.213
    1LIG    H71  162   2.143   2.014   8.223
    1LIG    H72  163   2.036   2.149   8.522
    1LIG    H73  164   2.121   1.997   8.522
    1LIG    H74  165   1.930   1.885   8.673
    1LIG    H75  166   1.836   2.031   8.666
    1LIG    H76  167   1.945   1.872   8.974
    1LIG    H77  168   1.833   2.005   8.983
    1LIG    H78  169   2.021   2.138   9.133
    1LIG    H79  170   2.113   1.991   9.132
    1LIG    H80  171   2.025   2.142   9.442
    1LIG    H81  172   2.123   1.999   9.439
    1LIG    H82  173   1.956   1.873   9.601
    1LIG    H83  174   1.848   2.010   9.602
    1LIG    H84  175   1.961   1.875   9.907
    1LIG    H85  176   1.853   2.012   9.907
    1LIG    H86  177   2.037   2.149  10.056
    1LIG    H87  178   2.134   2.008  10.059
    1LIG    H88  179   2.041   2.148  10.365
    1LIG    H89  180   2.131   2.000  10.367
    1LIG    H90  181   1.940   1.887  10.519
    1LIG    H91  182   1.850   2.035  10.516
    1LIG    H92  183   1.954   1.873  10.819
    1LIG    H93  184   1.846   2.010  10.824
    1LIG    H94  185   2.029   2.138  10.979
    1LIG    H95  186   2.123   1.992  10.979
    1LIG    H96  187   2.027   2.142  11.288
    1LIG    H97  188   2.128   1.999  11.286
    1LIG    H98  189   1.958   1.871  11.445
    1LIG    H99  190   1.851   2.009  11.446
    1LIG   H100  191   1.956   1.875  11.752
    1LIG   H101  192   1.854   2.016  11.752
    1LIG   H102  193   2.043   2.145  11.902
    1LIG   H103  194   2.135   2.000  11.904
    1LIG   H104  195   2.042   2.148  12.212
    1LIG   H105  196   2.133   1.999  12.214
    1LIG   H106  197   1.943   1.886  12.369
    1LIG   H107  198   1.852   2.033  12.365
    1LIG   H108  199   1.957   1.873  12.671
    1LIG   H109  200   1.847   2.008  12.677
    1LIG   H110  201   2.029   2.137  12.835
    1LIG   H111  202   2.125   1.992  12.834
    1LIG   H112  203   2.026   2.138  13.151
    1LIG   H113  204   2.128   1.997  13.149
    1LIG   H114  205   1.955   1.866  13.306
    1LIG   H115  206   1.849   2.003  13.308
    1LIG   H116  207   1.913   1.865  13.605
    1LIG   H117  208   1.842   2.021  13.626
    1LIG   H118  209   2.116   2.009  13.783
    1LIG   H119  210   2.028   1.861  13.802
    2MOL     C1  211   2.530   1.546   6.554
    2MOL     H1  212   2.548   1.440   6.570
    2MOL     O1  213   2.575   1.582   6.422
    2MOL     C2  214   2.556   1.721   6.387
    2MOL     H2  215   2.452   1.750   6.402
    2MOL     C3  216   2.583   1.732   6.235
    2MOL     H3  217   2.550   1.830   6.199
    2MOL     H4  218   2.524   1.656   6.183
    2MOL     O2  219   2.723   1.712   6.209
    2MOL     C4  220   2.760   1.740   6.073
    2MOL     C5  221   2.612   1.627   6.658
    2MOL     H5  222   2.715   1.590   6.658
    2MOL     O3  223   2.554   1.610   6.789
    2MOL     C6  224   2.584   1.488   6.856
    2MOL     C7  225   2.616   1.777   6.629
    2MOL     H6  226   2.519   1.821   6.656
    2MOL     O4  227   2.724   1.833   6.708
    2MOL     C8  228   2.686   1.934   6.803
    2MOL     C9  229   2.646   1.807   6.481
    2MOL     H7  230   2.751   1.784   6.461
    2MOL     O5  231   2.617   1.947   6.463
    2MOL    C10  232   2.702   2.015   6.369
    2MOL     H8  233   2.783   1.950   6.335
    2MOL     O6  234   2.620   2.052   6.257
    2MOL    C11  235   2.510   2.141   6.284
    2MOL     H9  236   2.443   2.097   6.359
    2MOL    C12  237   2.432   2.153   6.152
    2MOL    H10  238   2.334   2.200   6.169
    2MOL    H11  239   2.414   2.053   6.111
    2MOL     O7  240   2.510   2.230   6.058
    2MOL    C13  241   2.442   2.251   5.934
    2MOL    C14  242   2.763   2.143   6.435
    2MOL    H12  243   2.836   2.186   6.366
    2MOL     O8  244   2.825   2.111   6.562
    2MOL    C15  245   2.948   2.038   6.556
    2MOL    C16  246   2.653   2.247   6.464
    2MOL    H13  247   2.587   2.207   6.542
    2MOL     O9  248   2.717   2.370   6.506
    2MOL    C17  249   2.673   2.414   6.635
    2MOL    C18  250   2.567   2.275   6.339
    2MOL    H14  251   2.631   2.322   6.263
    2MOL    O10  252   2.460   2.362   6.380
    2MOL    C19  253   2.429   2.468   6.287
    2MOL    H15  254   2.508   2.477   6.211
    2MOL    O11  255   2.305   2.434   6.222
    2MOL    C20  256   2.192   2.421   6.311
    2MOL    H16  257   2.213   2.346   6.387
    2MOL    C21  258   2.068   2.374   6.233
    2MOL    H17  259   1.989   2.347   6.304
    2MOL    H18  260   2.093   2.285   6.174
    2MOL    O12  261   2.023   2.481   6.149
    2MOL    C22  262   1.910   2.448   6.068
    2MOL    C23  263   2.414   2.602   6.364
    2MOL    H19  264   2.395   2.683   6.292
    2MOL    O13  265   2.535   2.630   6.436
    2MOL    C24  266   2.645   2.673   6.355
    2MOL    C25  267   2.294   2.599   6.462
    2MOL    H20  268   2.312   2.524   6.540
    2MOL    O14  269   2.276   2.731   6.522
    2MOL    C26  270   2.347   2.753   6.647
    2MOL    C27  271   2.169   2.558   6.378
    2MOL    H21  272   2.149   2.635   6.302
    2MOL    O15  273   2.053   2.535   6.456
    2MOL    C28  274   1.984   2.651   6.502
    2MOL    H22  275   2.049   2.738   6.503
    2MOL    O16  276   1.870   2.675   6.423
    2MOL    C29  277   1.776   2.567   6.415
    2MOL    H23  278   1.826   2.477   6.375
    2MOL    C30  279   1.677   2.618   6.312
    2MOL    H24  280   1.614   2.537   6.276
    2MOL    H25  281   1.733   2.660   6.227
    2MOL    O17  282   1.597   2.721   6.373
    2MOL    C31  283   1.512   2.785   6.278
    2MOL    C32  284   1.945   2.619   6.643
    2MOL    H26  285   1.905   2.711   6.690
    2MOL    O18  286   2.072   2.581   6.696
    2MOL    C33  287   2.087   2.628   6.824
    2MOL    C34  288   1.838   2.505   6.654
    2MOL    H27  289   1.885   2.409   6.627
    2MOL    O19  290   1.785   2.500   6.789
    2MOL    C35  291   1.756   2.368   6.842
    2MOL    C36  292   1.721   2.536   6.557
    2MOL    H28  293   1.669   2.625   6.596
    2MOL    O20  294   1.632   2.422   6.555
    2MOL    C37  295   1.495   2.452   6.525
    2MOL    H29  296   1.479   2.560   6.528
    2MOL    O21  297   1.465   2.406   6.393
    2MOL    C38  298   1.481   2.264   6.370
    2MOL    H30  299   1.581   2.231   6.398
    2MOL    C39  300   1.460   2.243   6.219
    2MOL    H31  301   1.482   2.140   6.190
    2MOL    H32  302   1.531   2.308   6.169
    2MOL    O22  303   1.325   2.281   6.185
    2MOL    C40  304   1.294   2.272   6.045
    2MOL    C41  305   1.397   2.382   6.624
    2MOL    H33  306   1.296   2.421   6.606
    2MOL    O23  307   1.437   2.405   6.760
    2MOL    C42  308   1.399   2.531   6.816
    2MOL    C43  309   1.394   2.230   6.605
    2MOL    H34  310   1.487   2.187   6.642
    2MOL    O24  311   1.278   2.181   6.677
    2MOL    C44  312   1.310   2.098   6.789
    2MOL    C45  313   1.377   2.190   6.458
    2MOL    H35  314   1.276   2.217   6.426
    2MOL    O25  315   1.400   2.048   6.452
    2MOL    C46  316   1.317   1.977   6.358
    2MOL    H36  317   1.241   2.043   6.316
    2MOL    O26  318   1.401   1.928   6.251
    2MOL    C47  319   1.506   1.836   6.288
    2MOL    H37  320   1.572   1.882   6.363
    2MOL    C48  321   1.592   1.808   6.162
    2MOL    H38  322   1.686   1.762   6.190
    2MOL    H39  323   1.616   1.903   6.112
    2MOL    O27  324   1.516   1.723   6.072
    2MOL    C49  325   1.585   1.684   5.951
    2MOL    C50  326   1.248   1.857   6.429
    2MOL    H40  327   1.175   1.813   6.360
    2MOL    O28  328   1.181   1.901   6.550
    2MOL    C51  329   1.063   1.981   6.530
    2MOL    C52  330   1.349   1.749   6.469
    2MOL    H41  331   1.414   1.787   6.549
    2MOL    O29  332   1.275   1.631   6.511
    2MOL    C53  333   1.285   1.602   6.651
    2MOL    C54  334   1.438   1.711   6.349
    2MOL    H42  335   1.375   1.665   6.273
    2MOL    O30  336   1.538   1.621   6.396
    2MOL    C55  337   1.556   1.502   6.316
    2MOL    H43  338   1.468   1.484   6.253
    2MOL    O31  339   1.671   1.519   6.233
    2MOL    C56  340   1.794   1.546   6.304
    2MOL    H44  341   1.788   1.641   6.360
    2MOL    C57  342   1.905   1.550   6.201
    2MOL    H45  343   1.883   1.471   6.129
    2MOL    H46  344   2.001   1.530   6.250
    2MOL    O32  345   1.915   1.675   6.132
    2MOL    C58  346   2.031   1.676   6.047
    2MOL    C59  347   1.577   1.382   6.409
    2MOL    H47  348   1.587   1.291   6.348
    2MOL    O33  349   1.463   1.370   6.495
    2MOL    C60  350   1.347   1.313   6.434
    2MOL    C61  351   1.704   1.397   6.494
    2MOL    H48  352   1.692   1.481   6.564
    2MOL    O34  353   1.727   1.272   6.563
    2MOL    C62  354   1.656   1.258   6.688
    2MOL    C63  355   1.823   1.428   6.400
    2MOL    H49  356   1.842   1.340   6.339
    2MOL    O35  357   1.941   1.464   6.475
    2MOL    C64  358   2.027   1.354   6.513
    2MOL    H50  359   1.968   1.262   6.517
    2MOL    O36  360   2.135   1.340   6.418
    2MOL    C65  361   2.241   1.439   6.416
    2MOL    H51  362   2.202   1.535   6.380
    2MOL    C66  363   2.346   1.384   6.318
    2MOL    H52  364   2.342   1.275   6.318
    2MOL    H53  365   2.447   1.413   6.344
    2MOL    O37  366   2.314   1.436   6.189
    2MOL    C67  367   2.387   1.374   6.082
    2MOL    C68  368   2.085   1.379   6.653
    2MOL    H54  369   2.132   1.286   6.686
    2MOL    O38  370   1.978   1.418   6.740
    2MOL    C69  371   1.933   1.305   6.812
    2MOL    C70  372   2.190   1.489   6.661
    2MOL    H55  373   2.143   1.585   6.639
    2MOL    O39  374   2.248   1.485   6.793
    2MOL    C71  375   2.243   1.610   6.863
    2MOL    C72  376   2.300   1.460   6.559
    2MOL    H56  377   2.353   1.369   6.591
    2MOL    O40  378   2.388   1.575   6.562
    2MOL    H57  379   2.868   1.731   6.062
    2MOL    H58  380   2.709   1.671   6.005
    2MOL    H59  381   2.731   1.843   6.047
    2MOL    H60  382   2.336   1.393   5.987
    2MOL    H61  383   2.488   1.414   6.076
    2MOL    H62  384   2.392   1.265   6.096
    2MOL    H63  385   2.056   1.778   6.017
    2MOL    H64  386   2.119   1.638   6.101
    2MOL    H65  387   2.015   1.615   5.958
    2MOL    H66  388   1.521   1.617   5.892
    2MOL    H67  389   1.609   1.771   5.890
    2MOL    H68  390   1.677   1.629   5.976
    2MOL    H69  391   1.191   2.305   6.027
    2MOL    H70  392   1.362   2.334   5.986
    2MOL    H71  393   1.302   2.169   6.011
    2MOL    H72  394   1.441   2.850   6.329
    2MOL    H73  395   1.572   2.845   6.209
    2MOL    H74  396   1.454   2.711   6.221
    2MOL    H75  397   1.884   2.534   6.005
    2MOL    H76  398   1.933   2.362   6.004
    2MOL    H77  399   1.824   2.424   6.131
    2MOL    H78  400   2.507   2.305   5.864
    2MOL    H79  401   2.415   2.155   5.888
    2MOL    H80  402   2.351   2.310   5.950
    2MOL    H81  403   2.730   2.501   6.667
    2MOL    H82  404   2.567   2.441   6.633
    2MOL    H83  405   2.687   2.334   6.709
    2MOL    H84  406   2.991   2.028   6.657
    2MOL    H85  407   2.931   1.937   6.517
    2MOL    H86  408   3.021   2.090   6.493
    2MOL    H87  409   2.772   1.957   6.867
    2MOL    H88  410   2.656   2.026   6.751
    2MOL    H89  411   2.604   1.898   6.866
    2MOL    H90  412   2.556   1.498   6.962
    2MOL    H91  413   2.526   1.405   6.812
    2MOL    H92  414   2.691   1.466   6.849
    2MOL    H93  415   2.293   1.600   6.960
    2MOL    H94  416   2.294   1.688   6.806
    2MOL    H95  417   2.139   1.640   6.880
    2MOL    H96  418   1.863   1.336   6.891
    2MOL    H97  419   1.890   1.230   6.747
    2MOL    H98  420   2.020   1.255   6.855
    2MOL    H99  421   1.690   1.167   6.740
    2MOL   H100  422   1.678   1.345   6.752
    2MOL   H101  423   1.548   1.250   6.674
    2MOL   H102  424   1.276   1.286   6.512
    2MOL   H103  425   1.302   1.386   6.366
    2MOL   H104  426   1.373   1.223   6.378
    2MOL   H105  427   1.227   1.512   6.676
    2MOL   H106  428   1.390   1.583   6.679
    2MOL   H107  429   1.247   1.686   6.711
    2MOL   H108  430   1.010   1.990   6.626
    2MOL   H109  431   1.089   2.081   6.494
    2MOL   H110  432   0.996   1.933   6.458
    2MOL   H111  433   1.218   2.064   6.836
    2MOL   H112  434   1.368   2.010   6.756
    2MOL   H113  435   1.369   2.154   6.862
    2MOL   H114  436   1.411   2.527   6.925
    2MOL   H115  437   1.463   2.611   6.777
    2MOL   H116  438   1.293   2.554   6.794
    2MOL   H117  439   1.705   2.377   6.939
    2MOL   H118  440   1.690   2.311   6.775
    2MOL   H119  441   1.849   2.312   6.857
    2MOL   H120  442   2.178   2.591   6.872
    2MOL   H121  443   2.079   2.737   6.829
    2MOL   H122  444   1.999   2.581   6.864
    2MOL   H123  445   2.327   2.854   6.685
    2MOL   H124  446   2.316   2.680   6.722
    2MOL   H125  447   2.455   2.743   6.634
    2MOL   H126  448   2.725   2.711   6.419
    2MOL   H127  449   2.685   2.589   6.296
    2MOL   H128  450   2.614   2.754   6.287
    3MOL     C1  451   1.471   1.550   7.346
    3MOL     H1  452   1.450   1.444   7.330
    3MOL     O1  453   1.430   1.587   7.480
    3MOL     C2  454   1.453   1.726   7.515
    3MOL     H2  455   1.558   1.752   7.496
    3MOL     C3  456   1.429   1.739   7.668
    3MOL     H3  457   1.465   1.836   7.703
    3MOL     H4  458   1.485   1.660   7.720
    3MOL     O2  459   1.288   1.725   7.694
    3MOL     C4  460   1.247   1.739   7.831
    3MOL     C5  461   1.388   1.634   7.244
    3MOL     H5  462   1.283   1.599   7.247
    3MOL     O3  463   1.441   1.620   7.110
    3MOL     C6  464   1.405   1.498   7.045
    3MOL     C7  465   1.389   1.784   7.276
    3MOL     H6  466   1.488   1.822   7.249
    3MOL     O4  467   1.283   1.848   7.200
    3MOL     C8  468   1.326   1.932   7.092
    3MOL     C9  469   1.361   1.812   7.425
    3MOL     H7  470   1.256   1.788   7.445
    3MOL     O5  471   1.386   1.952   7.445
    3MOL    C10  472   1.297   2.021   7.534
    3MOL     H8  473   1.215   1.955   7.565
    3MOL     O6  474   1.372   2.061   7.649
    3MOL    C11  475   1.485   2.147   7.622
    3MOL     H9  476   1.553   2.098   7.552
    3MOL    C12  477   1.560   2.162   7.753
    3MOL    H10  478   1.659   2.206   7.737
    3MOL    H11  479   1.571   2.060   7.791
    3MOL     O7  480   1.482   2.240   7.845
    3MOL    C13  481   1.548   2.265   7.970
    3MOL    C14  482   1.239   2.148   7.464
    3MOL    H12  483   1.162   2.191   7.529
    3MOL     O8  484   1.181   2.112   7.336
    3MOL    C15  485   1.059   2.037   7.344
    3MOL    C16  486   1.346   2.256   7.438
    3MOL    H13  487   1.410   2.225   7.355
    3MOL     O9  488   1.280   2.380   7.405
    3MOL    C17  489   1.295   2.422   7.269
    3MOL    C18  490   1.435   2.280   7.563
    3MOL    H14  491   1.374   2.331   7.638
    3MOL    O10  492   1.548   2.361   7.526
    3MOL    C19  493   1.575   2.471   7.617
    3MOL    H15  494   1.494   2.482   7.690
    3MOL    O11  495   1.699   2.446   7.687
    3MOL    C20  496   1.811   2.432   7.599
    3MOL    H16  497   1.786   2.356   7.525
    3MOL    C21  498   1.935   2.379   7.676
    3MOL    H17  499   2.010   2.342   7.605
    3MOL    H18  500   1.906   2.295   7.741
    3MOL    O12  501   1.997   2.483   7.751
    3MOL    C22  502   2.116   2.436   7.815
    3MOL    C23  503   1.587   2.603   7.537
    3MOL    H19  504   1.602   2.686   7.607
    3MOL    O13  505   1.467   2.624   7.461
    3MOL    C24  506   1.354   2.664   7.539
    3MOL    C25  507   1.709   2.600   7.440
    3MOL    H20  508   1.694   2.523   7.363
    3MOL    O14  509   1.724   2.732   7.380
    3MOL    C26  510   1.657   2.749   7.253
    3MOL    C27  511   1.834   2.565   7.526
    3MOL    H21  512   1.856   2.646   7.596
    3MOL    O15  513   1.948   2.540   7.446
    3MOL    C28  514   2.015   2.655   7.395
    3MOL    H22  515   1.950   2.742   7.392
    3MOL    O16  516   2.130   2.681   7.474
    3MOL    C29  517   2.223   2.573   7.485
    3MOL    H23  518   2.174   2.484   7.528
    3MOL    C30  519   2.325   2.627   7.585
    3MOL    H24  520   2.390   2.549   7.623
    3MOL    H25  521   2.269   2.669   7.670
    3MOL    O17  522   2.399   2.731   7.519
    3MOL    C31  523   2.481   2.804   7.609
    3MOL    C32  524   2.055   2.617   7.256
    3MOL    H26  525   2.093   2.708   7.205
    3MOL    O18  526   1.928   2.575   7.204
    3MOL    C33  527   1.913   2.619   7.076
    3MOL    C34  528   2.163   2.505   7.246
    3MOL    H27  529   2.117   2.409   7.272
    3MOL    O19  530   2.216   2.501   7.111
    3MOL    C35  531   2.244   2.369   7.057
    3MOL    C36  532   2.278   2.537   7.343
    3MOL    H28  533   2.332   2.624   7.301
    3MOL    O20  534   2.366   2.422   7.350
    3MOL    C37  535   2.505   2.454   7.375
    3MOL    H29  536   2.521   2.563   7.368
    3MOL    O21  537   2.537   2.412   7.509
    3MOL    C38  538   2.520   2.271   7.533
    3MOL    H30  539   2.419   2.242   7.506
    3MOL    C39  540   2.531   2.247   7.683
    3MOL    H31  541   2.492   2.147   7.706
    3MOL    H32  542   2.468   2.320   7.736
    3MOL    O22  543   2.668   2.260   7.722
    3MOL    C40  544   2.690   2.219   7.856
    3MOL    C41  545   2.599   2.382   7.275
    3MOL    H33  546   2.700   2.420   7.291
    3MOL    O23  547   2.558   2.409   7.139
    3MOL    C42  548   2.588   2.541   7.092
    3MOL    C43  549   2.601   2.229   7.296
    3MOL    H34  550   2.507   2.186   7.260
    3MOL    O24  551   2.715   2.179   7.223
    3MOL    C44  552   2.683   2.095   7.112
    3MOL    C45  553   2.620   2.192   7.445
    3MOL    H35  554   2.723   2.218   7.475
    3MOL    O25  555   2.594   2.051   7.459
    3MOL    C46  556   2.680   1.977   7.549
    3MOL    H36  557   2.759   2.043   7.587
    3MOL    O26  558   2.600   1.927   7.659
    3MOL    C47  559   2.492   1.837   7.620
    3MOL    H37  560   2.428   1.886   7.545
    3MOL    C48  561   2.406   1.806   7.743
    3MOL    H38  562   2.318   1.749   7.713
    3MOL    H39  563   2.370   1.900   7.785
    3MOL    O27  564   2.485   1.734   7.840
    3MOL    C49  565   2.410   1.674   7.948
    3MOL    C50  566   2.744   1.858   7.473
    3MOL    H40  567   2.817   1.811   7.539
    3MOL    O28  568   2.811   1.904   7.355
    3MOL    C51  569   2.931   1.979   7.379
    3MOL    C52  570   2.642   1.749   7.434
    3MOL    H41  571   2.577   1.787   7.354
    3MOL    O29  572   2.715   1.631   7.392
    3MOL    C53  573   2.714   1.607   7.250
    3MOL    C54  574   2.555   1.711   7.556
    3MOL    H42  575   2.620   1.662   7.629
    3MOL    O30  576   2.450   1.622   7.512
    3MOL    C55  577   2.437   1.499   7.589
    3MOL    H43  578   2.525   1.484   7.653
    3MOL    O31  579   2.319   1.506   7.672
    3MOL    C56  580   2.194   1.525   7.599
    3MOL    H44  581   2.198   1.620   7.544
    3MOL    C57  582   2.078   1.528   7.700
    3MOL    H45  583   2.084   1.441   7.766
    3MOL    H46  584   1.983   1.525   7.646
    3MOL    O32  585   2.083   1.649   7.776
    3MOL    C58  586   1.978   1.653   7.874
    3MOL    C59  587   2.424   1.379   7.494
    3MOL    H47  588   2.418   1.287   7.554
    3MOL    O33  589   2.538   1.373   7.406
    3MOL    C60  590   2.660   1.328   7.467
    3MOL    C61  591   2.297   1.388   7.407
    3MOL    H48  592   2.304   1.475   7.341
    3MOL    O34  593   2.282   1.265   7.333
    3MOL    C62  594   2.350   1.261   7.205
    3MOL    C63  595   2.173   1.410   7.499
    3MOL    H49  596   2.150   1.318   7.555
    3MOL    O35  597   2.062   1.450   7.418
    3MOL    C64  598   1.972   1.346   7.379
    3MOL    H50  599   2.025   1.250   7.374
    3MOL    O36  600   1.865   1.337   7.474
    3MOL    C65  601   1.767   1.444   7.477
    3MOL    H51  602   1.815   1.539   7.502
    3MOL    C66  603   1.671   1.404   7.588
    3MOL    H52  604   1.658   1.295   7.586
    3MOL    H53  605   1.573   1.450   7.580
    3MOL    O37  606   1.733   1.445   7.711
    3MOL    C67  607   1.667   1.391   7.824
    3MOL    C68  608   1.913   1.376   7.239
    3MOL    H54  609   1.865   1.284   7.204
    3MOL    O38  610   2.020   1.415   7.153
    3MOL    C69  611   2.071   1.302   7.086
    3MOL    C70  612   1.809   1.487   7.234
    3MOL    H55  613   1.858   1.582   7.257
    3MOL    O39  614   1.751   1.487   7.101
    3MOL    C71  615   1.757   1.614   7.034
    3MOL    C72  616   1.699   1.460   7.337
    3MOL    H56  617   1.646   1.368   7.310
    3MOL    O40  618   1.613   1.576   7.334
    3MOL    H57  619   1.139   1.725   7.838
    3MOL    H58  620   1.296   1.663   7.893
    3MOL    H59  621   1.272   1.839   7.869
    3MOL    H60  622   1.732   1.398   7.912
    3MOL    H61  623   1.572   1.442   7.843
    3MOL    H62  624   1.645   1.285   7.805
    3MOL    H63  625   1.982   1.748   7.926
    3MOL    H64  626   1.880   1.644   7.826
    3MOL    H65  627   1.991   1.573   7.947
    3MOL    H66  628   2.471   1.600   7.999
    3MOL    H67  629   2.379   1.750   8.020
    3MOL    H68  630   2.321   1.623   7.909
    3MOL    H69  631   2.795   2.236   7.883
    3MOL    H70  632   2.623   2.278   7.921
    3MOL    H71  633   2.665   2.113   7.868
    3MOL    H72  634   2.541   2.878   7.556
    3MOL    H73  635   2.419   2.856   7.683
    3MOL    H74  636   2.549   2.735   7.661
    3MOL    H75  637   2.161   2.517   7.875
    3MOL    H76  638   2.090   2.353   7.883
    3MOL    H77  639   2.189   2.401   7.742
    3MOL    H78  640   1.490   2.337   8.029
    3MOL    H79  641   1.557   2.171   8.027
    3MOL    H80  642   1.647   2.307   7.952
    3MOL    H81  643   1.242   2.517   7.253
    3MOL    H82  644   1.401   2.437   7.245
    3MOL    H83  645   1.254   2.346   7.201
    3MOL    H84  646   1.014   2.030   7.244
    3MOL    H85  647   1.078   1.935   7.380
    3MOL    H86  648   0.990   2.088   7.412
    3MOL    H87  649   1.238   1.966   7.036
    3MOL    H88  650   1.378   2.020   7.130
    3MOL    H89  651   1.391   1.876   7.023
    3MOL    H90  652   1.435   1.502   6.940
    3MOL    H91  653   1.456   1.415   7.094
    3MOL    H92  654   1.297   1.482   7.051
    3MOL    H93  655   1.708   1.607   6.936
    3MOL    H94  656   1.706   1.691   7.093
    3MOL    H95  657   1.862   1.644   7.018
    3MOL    H96  658   2.143   1.333   7.009
    3MOL    H97  659   2.114   1.231   7.156
    3MOL    H98  660   1.987   1.247   7.042
    3MOL    H99  661   2.319   1.172   7.149
    3MOL   H100  662   2.324   1.350   7.145
    3MOL   H101  663   2.459   1.258   7.216
    3MOL   H102  664   2.738   1.318   7.390
    3MOL   H103  665   2.695   1.402   7.540
    3MOL   H104  666   2.645   1.232   7.517
    3MOL   H105  667   2.776   1.520   7.226
    3MOL   H106  668   2.611   1.587   7.216
    3MOL   H107  669   2.753   1.694   7.195
    3MOL   H108  670   2.980   2.001   7.284
    3MOL   H109  671   2.909   2.074   7.429
    3MOL   H110  672   3.001   1.920   7.440
    3MOL   H111  673   2.777   2.060   7.065
    3MOL   H112  674   2.626   2.007   7.145
    3MOL   H113  675   2.625   2.150   7.037
    3MOL   H114  676   2.569   2.548   6.984
    3MOL   H115  677   2.528   2.616   7.144
    3MOL   H116  678   2.694   2.563   7.109
    3MOL   H117  679   2.294   2.378   6.959
    3MOL   H118  680   2.311   2.313   7.124
    3MOL   H119  681   2.152   2.312   7.043
    3MOL   H120  682   1.820   2.583   7.029
    3MOL   H121  683   1.921   2.728   7.068
    3MOL   H122  684   1.999   2.569   7.035
    3MOL   H123  685   1.672   2.850   7.214
    3MOL   H124  686   1.694   2.677   7.179
    3MOL   H125  687   1.550   2.730   7.262
    3MOL   H126  688   1.272   2.690   7.471
    3MOL   H127  689   1.320   2.582   7.604
    3MOL   H128  690   1.378   2.751   7.602
    4SOL     OW  691   0.233   0.647   0.120
    4SOL    HW1  692   0.139   0.642   0.136
    4SOL    HW2  693   0.247   0.599   0.038
    5SOL     OW  694   0.225   0.286   0.984
    5SOL    HW1  695   0.249   0.250   1.069
    5SOL    HW2  696   0.132   0.268   0.975
    6SOL     OW  697   0.018   0.388   0.632
    6SOL    HW1  698   3.931   0.397   0.671
    6SOL    HW2  699   0.024   0.296   0.609
    7SOL     OW  700   0.576   1.282   1.182
    7SOL    HW1  701   0.489   1.286   1.142
    7SOL    HW2  702   0.591   1.370   1.216
    8SOL     OW  703   1.560   1.512   0.708
    8SOL    HW1  704   1.516   1.494   0.791
    8SOL    HW2  705   1.489   1.517   0.643
    9SOL     OW  706   1.132   0.698   0.702
    9SOL    HW1  707   1.180   0.780   0.689
    9SOL    HW2  708   1.084   0.712   0.784
   10SOL     OW  709   1.752   0.622   0.222
   10SOL    HW1  710   1.773   0.597   0.132
   10SOL    HW2  711   1.755   0.540   0.272
   11SOL     OW  712   0.759   1.143   1.038
   11SOL    HW1  713   0.691   1.176   1.097
   11SOL    HW2  714   0.792   1.221   0.993
   12SOL     OW  715   0.865   0.778   1.822
   12SOL    HW1  716   0.854   0.850   1.884
   12SOL    HW2  717   0.888   0.821   1.740
   13SOL     OW  718   0.686   1.006   0.648
   13SOL    HW1  719   0.750   0.991   0.717
   13SOL    HW2  720   0.616   1.056   0.690
   14SOL     OW  721   0.709   1.151   1.811
   14SOL    HW1  722   0.757   1.229   1.837
   14SOL    HW2  723   0.626   1.183   1.777
   15SOL     OW  724   0.351   1.403   1.079
   15SOL    HW1  725   0.269   1.387   1.032
   15SOL    HW2  726   0.399   1.462   1.021
   16SOL     OW  727   1.461   1.499   1.352
   16SOL    HW1  728   1.510   1.581   1.361
   16SOL    HW2  729   1.403   1.497   1.428
   17SOL     OW  730   0.453   0.407   1.499
   17SOL    HW1  731   0.533   0.354   1.495
   17SOL    HW2  732   0.382   0.342   1.501
   18SOL     OW  733   1.612   0.450   0.736
   18SOL    HW1  734   1.539   0.482   0.682
   18SOL    HW2  735   1.637   0.525   0.790
   19SOL     OW  736   0.226   1.709   0.473
   19SOL    HW1  737   0.243   1.791   0.521
   19SOL    HW2  738   0.288   1.711   0.400
   20SOL     OW  739   1.136   1.341   1.692
   20SOL    HW1  740   1.176   1.337   1.779
   20SOL    HW2  741   1.084   1.261   1.686
   21SOL     OW  742   0.242   1.445   0.542
   21SOL    HW1  743   0.222   1.537   0.529
   21SOL    HW2  744   0.169   1.411   0.593
   22SOL     OW  745   0.246   1.070   0.884
   22SOL    HW1  746   0.264   0.986   0.926
   22SOL    HW2  747   0.194   1.118   0.949
   23SOL     OW  748   0.614   1.791   1.430
   23SOL    HW1  749   0.531   1.773   1.475
   23SOL    HW2  750   0.636   1.881   1.455
   24SOL     OW  751   0.568   0.981   0.157
   24SOL    HW1  752   0.589   1.032   0.079
   24SOL    HW2  753   0.623   1.018   0.226
   25SOL     OW  754   1.578   0.136   1.457
   25SOL    HW1  755   1.603   0.210   1.402
   25SOL    HW2  756   1.555   0.175   1.542
   26SOL     OW  757   0.137   0.650   0.569
   26SOL    HW1  758   0.094   0.565   0.575
   26SOL    HW2  759   0.102   0.700   0.642
   27SOL     OW  760   0.019   1.602   0.132
   27SOL    HW1  761   0.026   1.507   0.141
   27SOL    HW2  762   3.967   1.630   0.208
   28SOL     OW  763   1.687   0.917   0.639
   28SOL    HW1  764   1.773   0.878   0.623
   28SOL    HW2  765   1.669   0.968   0.561
   29SOL     OW  766   1.647   1.108   0.430
   29SOL    HW1  767   1.735   1.112   0.392
   29SOL    HW2  768   1.651   1.168   0.504
   30SOL     OW  769   0.134   0.753   1.590
   30SOL    HW1  770   0.229   0.747   1.594
   30SOL    HW2  771   0.115   0.845   1.607
   31SOL     OW  772   0.612   1.384   0.735
   31SOL    HW1  773   0.566   1.301   0.744
   31SOL    HW2  774   0.596   1.410   0.645
   32SOL     OW  775   1.289   1.239   1.424
   32SOL    HW1  776   1.322   1.171   1.364
   32SOL    HW2  777   1.346   1.232   1.501
   33SOL     OW  778   0.819   0.002   0.517
   33SOL    HW1  779   0.862   0.084   0.492
   33SOL    HW2  780   0.726   0.023   0.517
   34SOL     OW  781   0.186   0.955   1.275
   34SOL    HW1  782   0.274   0.919   1.261
   34SOL    HW2  783   0.131   0.907   1.212
   35SOL     OW  784   1.532   0.994   0.202
   35SOL    HW1  785   1.463   0.934   0.233
   35SOL    HW2  786   1.571   1.029   0.282
   36SOL     OW  787   1.185   1.805   1.621
   36SOL    HW1  788   1.198   1.863   1.546
   36SOL    HW2  789   1.201   1.717   1.587
   37SOL     OW  790   0.340   0.254   1.824
   37SOL    HW1  791   0.385   0.338   1.812
   37SOL    HW2  792   0.250   0.278   1.846
   38SOL     OW  793   1.465   1.420   0.952
   38SOL    HW1  794   1.397   1.434   1.018
   38SOL    HW2  795   1.453   1.329   0.925
   39SOL     OW  796   1.671   1.729   0.573
   39SOL    HW1  797   1.623   1.715   0.492
   39SOL    HW2  798   1.647   1.655   0.629
   40SOL     OW  799   0.596   0.720   0.261
   40SOL    HW1  800   0.600   0.802   0.212
   40SOL    HW2  801   0.537   0.737   0.334
   41SOL     OW  802   1.276   0.363   0.939
   41SOL    HW1  803   1.189   0.324   0.945
   41SOL    HW2  804   1.333   0.302   0.986
   42SOL     OW  805   1.559   1.729   0.311
   42SOL    HW1  806   1.642   1.682   0.318
   42SOL    HW2  807   1.524   1.704   0.225
   43SOL     OW  808   0.795   0.616   1.455
   43SOL    HW1  809   0.765   0.592   1.542
   43SOL    HW2  810   0.754   0.552   1.397
   44SOL     OW  811   1.393   0.477   1.677
   44SOL    HW1  812   1.396   0.521   1.762
   44SOL    HW2  813   1.453   0.403   1.686
   45SOL     OW  814   0.956   0.888   1.582
   45SOL    HW1  815   1.010   0.818   1.547
   45SOL    HW2  816   0.908   0.921   1.506
   46SOL     OW  817   0.991   0.404   1.241
   46SOL    HW1  818   0.909   0.429   1.283
   46SOL    HW2  819   0.965   0.371   1.155
   47SOL     OW  820   1.050   0.701   0.428
   47SOL    HW1  821   1.065   0.692   0.522
   47SOL    HW2  822   0.968   0.654   0.412
   48SOL     OW  823   0.082   0.823   0.790
   48SOL    HW1  824   0.161   0.794   0.836
   48SOL    HW2  825   0.091   0.919   0.786
   49SOL     OW  826   0.129   1.854   1.572
   49SOL    HW1  827   0.137   1.821   1.662
   49SOL    HW2  828   0.037   1.842   1.550
   50SOL     OW  829   0.874   0.360   0.216
   50SOL    HW1  830   0.913   0.416   0.150
   50SOL    HW2  831   0.879   0.272   0.180
   51SOL     OW  832   1.711   0.576   1.828
   51SOL    HW1  833   1.673   0.650   1.782
   51SOL    HW2  834   1.735   0.514   1.759
   52SOL     OW  835   1.376   1.142   0.543
   52SOL    HW1  836   1.454   1.129   0.489
   52SOL    HW2  837   1.323   1.204   0.493
   53SOL     OW  838   0.559   0.196   0.883
   53SOL    HW1  839   0.561   0.216   0.976
   53SOL    HW2  840   0.549   0.281   0.840
   54SOL     OW  841   1.009   1.444   0.476
   54SOL    HW1  842   0.970   1.516   0.426
   54SOL    HW2  843   0.990   1.466   0.567
   55SOL     OW  844   0.364   1.811   0.866
   55SOL    HW1  845   0.428   1.741   0.871
   55SOL    HW2  846   0.414   1.891   0.880
   56SOL     OW  847   1.798   1.056   0.869
   56SOL    HW1  848   1.742   1.042   0.792
   56SOL    HW2  849   1.737   1.063   0.942
   57SOL     OW  850   1.228   1.539   1.513
   57SOL    HW1  851   1.214   1.466   1.573
   57SOL    HW2  852   1.166   1.523   1.441
   58SOL     OW  853   0.314   0.936   0.237
   58SOL    HW1  854   0.405   0.952   0.210
   58SOL    HW2  855   0.302   0.842   0.230
   59SOL     OW  856   1.475   0.742   0.730
   59SOL    HW1  857   1.467   0.697   0.815
   59SOL    HW2  858   1.553   0.797   0.739
   60SOL     OW  859   0.465   1.260   1.737
   60SOL    HW1  860   0.438   1.268   1.645
   60SOL    HW2  861   0.383   1.265   1.786
   61SOL     OW  862   1.120   1.779   0.233
   61SOL    HW1  863   1.057   1.732   0.288
   61SOL    HW2  864   1.148   1.715   0.168
   62SOL     OW  865   0.199   0.296   1.498
   62SOL    HW1  866   0.105   0.318   1.495
   62SOL    HW2  867   0.206   0.232   1.569
   63SOL     OW  868   1.631   1.372   0.084
   63SOL    HW1  869   1.593   1.455   0.055
   63SOL    HW2  870   1.564   1.307   0.064
   64SOL     OW  871   0.481   1.734   0.322
   64SOL    HW1  872   0.518   1.791   0.390
   64SOL    HW2  873   0.556   1.705   0.271
   65SOL     OW  874   1.436   0.144   0.397
   65SOL    HW1  875   1.396   0.063   0.368
   65SOL    HW2  876   1.515   0.117   0.443
   66SOL     OW  877   0.251   1.792   1.232
   66SOL    HW1  878   0.299   1.730   1.286
   66SOL    HW2  879   0.245   1.750   1.147
   67SOL     OW  880   0.937   1.698   0.900
   67SOL    HW1  881   1.015   1.646   0.921
   67SOL    HW2  882   0.893   1.649   0.831
   68SOL     OW  883   0.393   0.696   0.472
   68SOL    HW1  884   0.420   0.604   0.482
   68SOL    HW2  885   0.301   0.697   0.500
   69SOL     OW  886   1.531   0.232   1.727
   69SOL    HW1  887   1.532   0.256   1.819
   69SOL    HW2  888   1.500   0.142   1.725
   70SOL     OW  889   0.627   0.105   0.121
   70SOL    HW1  890   0.722   0.105   0.124
   70SOL    HW2  891   0.606   0.130   0.030
   71SOL     OW  892   0.779   0.282   1.763
   71SOL    HW1  893   0.843   0.211   1.769
   71SOL    HW2  894   0.717   0.265   1.834
   72SOL     OW  895   0.876   1.521   1.194
   72SOL    HW1  896   0.861   1.485   1.106
   72SOL    HW2  897   0.946   1.467   1.231
   73SOL     OW  898   1.342   0.587   1.430
   73SOL    HW1  899   1.372   0.558   1.517
   73SOL    HW2  900   1.376   0.676   1.422
   74SOL     OW  901   0.814   1.397   0.937
   74SOL    HW1  902   0.898   1.385   0.894
   74SOL    HW2  903   0.750   1.395   0.866
   75SOL     OW  904   0.929   0.511   0.902
   75SOL    HW1  905   0.905   0.503   0.810
   75SOL    HW2  906   0.957   0.423   0.927
   76SOL     OW  907   0.550   0.054   0.498
   76SOL    HW1  908   0.474   0.061   0.557
   76SOL    HW2  909   0.545   0.132   0.444
   77SOL     OW  910   1.430   1.202   0.045
   77SOL    HW1  911   1.451   1.121   0.092
   77SOL    HW2  912   1.337   1.217   0.064
   78SOL     OW  913   0.354   3.990   0.170
   78SOL    HW1  914   0.324   0.077   0.142
   78SOL    HW2  915   0.416   0.009   0.241
   79SOL     OW  916   0.938   0.248   0.466
   79SOL    HW1  917   0.907   0.286   0.384
   79SOL    HW2  918   1.033   0.247   0.458
   80SOL     OW  919   1.079   0.681   1.459
   80SOL    HW1  920   1.008   0.617   1.467
   80SOL    HW2  921   1.159   0.627   1.454
   81SOL     OW  922   1.224   1.569   0.794
   81SOL    HW1  923   1.242   1.638   0.729
   81SOL    HW2  924   1.292   1.581   0.860
   82SOL     OW  925   0.465   1.149   0.738
   82SOL    HW1  926   0.393   1.126   0.796
   82SOL    HW2  927   0.430   1.135   0.650
   83SOL     OW  928   1.268   1.795   0.604
   83SOL    HW1  929   1.313   1.858   0.548
   83SOL    HW2  930   1.204   1.847   0.653
   84SOL     OW  931   1.003   0.536   0.057
   84SOL    HW1  932   1.004   0.547  13.861
   84SOL    HW2  933   1.092   0.559   0.084
   85SOL     OW  934   0.079   0.570   1.393
   85SOL    HW1  935   0.168   0.553   1.362
   85SOL    HW2  936   0.088   0.641   1.456
   86SOL     OW  937   0.572   0.232   1.160
   86SOL    HW1  938   0.596   0.139   1.171
   86SOL    HW2  939   0.481   0.236   1.190
   87SOL     OW  940   0.872   0.462   0.638
   87SOL    HW1  941   0.822   0.514   0.575
   87SOL    HW2  942   0.890   0.380   0.593
   88SOL     OW  943   0.995   0.042   0.778
   88SOL    HW1  944   0.958   0.065   0.692
   88SOL    HW2  945   1.004   3.947   0.775
   89SOL     OW  946   1.436   1.163   0.857
   89SOL    HW1  947   1.368   1.096   0.856
   89SOL    HW2  948   1.459   1.176   0.765
   90SOL     OW  949   1.467   0.603   0.979
   90SOL    HW1  950   1.416   0.522   0.985
   90SOL    HW2  951   1.528   0.599   1.052
   91SOL     OW  952   1.849   0.818   0.381
   91SOL    HW1  953   1.901   0.763   0.440
   91SOL    HW2  954   1.812   0.758   0.317
   92SOL     OW  955   0.497   1.378   0.168
   92SOL    HW1  956   0.419   1.362   0.221
   92SOL    HW2  957   0.463   1.407   0.084
   93SOL     OW  958   1.669   1.266   0.645
   93SOL    HW1  959   1.764   1.268   0.661
   93SOL    HW2  960   1.639   1.354   0.668
   94SOL     OW  961   1.416   0.590   0.086
   94SOL    HW1  962   1.347   0.574   0.150
   94SOL    HW2  963   1.473   0.513   0.092
   95SOL     OW  964   0.525   0.257   0.324
   95SOL    HW1  965   0.562   0.207   0.252
   95SOL    HW2  966   0.508   0.344   0.288
   96SOL     OW  967   1.753   1.237   1.575
   96SOL    HW1  968   1.840   1.199   1.572
   96SOL    HW2  969   1.768   1.328   1.604
   97SOL     OW  970   1.059   1.353   1.334
   97SOL    HW1  971   0.985   1.322   1.385
   97SOL    HW2  972   1.135   1.312   1.375
   98SOL     OW  973   1.606   1.625   1.652
   98SOL    HW1  974   1.602   1.661   1.563
   98SOL    HW2  975   1.690   1.579   1.656
   99SOL     OW  976   1.127   1.202   1.106
   99SOL    HW1  977   1.069   1.240   1.172
   99SOL    HW2  978   1.093   1.234   1.022
  100SOL     OW  979   1.629   1.099   1.078
  100SOL    HW1  980   1.625   1.161   1.151
  100SOL    HW2  981   1.550   1.116   1.028
  101SOL     OW  982   0.914   0.110   1.402
  101SOL    HW1  983   0.933   0.086   1.312
  101SOL    HW2  984   0.994   0.152   1.433
  102SOL     OW  985   0.984   1.115   1.722
  102SOL    HW1  986   0.892   1.130   1.743
  102SOL    HW2  987   0.984   1.037   1.666
  103SOL     OW  988   0.713   1.059   0.375
  103SOL    HW1  989   0.698   1.044   0.469
  103SOL    HW2  990   0.788   1.003   0.354
  104SOL     OW  991   0.420   0.815   1.252
  104SOL    HW1  992   0.489   0.822   1.318
  104SOL    HW2  993   0.385   0.726   1.262
  105SOL     OW  994   1.266   0.375   1.275
  105SOL    HW1  995   1.301   0.453   1.320
  105SOL    HW2  996   1.180   0.402   1.244
  106SOL     OW  997   0.064   1.579   1.345
  106SOL    HW1  998   0.066   1.647   1.277
  106SOL    HW2  999   0.156   1.566   1.368
  107SOL     OW 1000   0.368   1.104   0.484
  107SOL    HW1 1001   0.362   1.181   0.427
  107SOL    HW2 1002   0.381   1.031   0.424
  108SOL     OW 1003   0.557   0.537   0.860
  108SOL    HW1 1004   0.573   0.595   0.785
  108SOL    HW2 1005   0.620   0.565   0.926
  109SOL     OW 1006   1.249   1.346   0.396
  109SOL    HW1 1007   1.304   1.419   0.423
  109SOL    HW2 1008   1.161   1.369   0.428
  110SOL     OW 1009   1.279   1.457   1.147
  110SOL    HW1 1010   1.335   1.460   1.224
  110SOL    HW2 1011   1.224   1.379   1.159
  111SOL     OW 1012   1.585   0.634   0.487
  111SOL    HW1 1013   1.540   0.694   0.547
  111SOL    HW2 1014   1.619   0.690   0.417
  112SOL     OW 1015   0.346   1.525   1.320
  112SOL    HW1 1016   0.336   1.475   1.239
  112SOL    HW2 1017   0.440   1.541   1.327
  113SOL     OW 1018   0.412   0.740   1.601
  113SOL    HW1 1019   0.473   0.787   1.544
  113SOL    HW2 1020   0.453   0.654   1.615
  114SOL     OW 1021   1.599   0.778   1.682
  114SOL    HW1 1022   1.513   0.819   1.674
  114SOL    HW2 1023   1.652   0.819   1.613
  115SOL     OW 1024   1.020   0.122   1.777
  115SOL    HW1 1025   1.056   0.200   1.736
  115SOL    HW2 1026   1.010   0.059   1.706
  116SOL     OW 1027   0.479   0.036   1.767
  116SOL    HW1 1028   0.492   0.039   1.672
  116SOL    HW2 1029   0.419   0.109   1.786
  117SOL     OW 1030   0.583   0.873   1.031
  117SOL    HW1 1031   0.614   0.964   1.031
  117SOL    HW2 1032   0.527   0.867   1.108
  118SOL     OW 1033   1.359   0.859   1.031
  118SOL    HW1 1034   1.276   0.850   0.984
  118SOL    HW2 1035   1.398   0.772   1.027
  119SOL     OW 1036   1.217   0.545   0.271
  119SOL    HW1 1037   1.222   0.464   0.323
  119SOL    HW2 1038   1.162   0.603   0.324
  120SOL     OW 1039   0.313   0.214   1.241
  120SOL    HW1 1040   0.272   0.248   1.321
  120SOL    HW2 1041   0.294   0.121   1.243
  121SOL     OW 1042   0.057   1.305   1.280
  121SOL    HW1 1043   0.089   1.265   1.361
  121SOL    HW2 1044   0.050   1.398   1.300
  122SOL     OW 1045   0.727   0.634   1.057
  122SOL    HW1 1046   0.799   0.617   0.997
  122SOL    HW2 1047   0.698   0.723   1.034
  123SOL     OW 1048   1.734   0.959   1.852
  123SOL    HW1 1049   1.687   0.901   1.792
  123SOL    HW2 1050   1.675   0.972   1.926
  124SOL     OW 1051   0.327   0.059   0.649
  124SOL    HW1 1052   0.299   0.150   0.657
  124SOL    HW2 1053   0.279   0.013   0.717
  125SOL     OW 1054   1.575   0.387   0.390
  125SOL    HW1 1055   1.565   0.324   0.461
  125SOL    HW2 1056   1.568   0.472   0.433
  126SOL     OW 1057   1.028   0.760   0.961
  126SOL    HW1 1058   1.025   0.777   1.055
  126SOL    HW2 1059   1.001   0.668   0.953
  127SOL     OW 1060   0.983   1.566   1.716
  127SOL    HW1 1061   0.967   1.610   1.632
  127SOL    HW2 1062   1.026   1.484   1.692
  128SOL     OW 1063   1.855   1.506   1.605
  128SOL    HW1 1064   1.871   1.535   1.515
  128SOL    HW2 1065   1.939   1.521   1.650
  129SOL     OW 1066   0.351   0.920   1.801
  129SOL    HW1 1067   0.430   0.939   1.851
  129SOL    HW2 1068   0.379   0.854   1.737
  130SOL     OW 1069   1.542   0.268   0.147
  130SOL    HW1 1070   1.470   0.204   0.146
  130SOL    HW2 1071   1.539   0.307   0.234
  131SOL     OW 1072   1.292   0.831   0.055
  131SOL    HW1 1073   1.338   0.748   0.061
  131SOL    HW2 1074   1.312   0.863  13.867
  132SOL     OW 1075   1.064   1.335   0.853
  132SOL    HW1 1076   1.068   1.263   0.791
  132SOL    HW2 1077   1.127   1.399   0.819
  133SOL     OW 1078   0.314   0.807   0.951
  133SOL    HW1 1079   0.408   0.823   0.945
  133SOL    HW2 1080   0.307   0.717   0.983
  134SOL     OW 1081   0.338   0.527   1.013
  134SOL    HW1 1082   0.298   0.442   0.995
  134SOL    HW2 1083   0.413   0.531   0.954
  135SOL     OW 1084   1.134   0.383   1.691
  135SOL    HW1 1085   1.087   0.438   1.753
  135SOL    HW2 1086   1.221   0.421   1.687
  136SOL     OW 1087   1.151   0.224   1.481
  136SOL    HW1 1088   1.143   0.279   1.559
  136SOL    HW2 1089   1.173   0.285   1.411
  137SOL     OW 1090   0.009   1.325   0.188
  137SOL    HW1 1091   3.915   1.340   0.185
  137SOL    HW2 1092   0.019   1.235   0.219
  138SOL     OW 1093   0.076   1.801   0.889
  138SOL    HW1 1094   0.077   1.705   0.898
  138SOL    HW2 1095   0.169   1.826   0.893
  139SOL     OW 1096   0.504   1.570   0.910
  139SOL    HW1 1097   0.573   1.631   0.935
  139SOL    HW2 1098   0.547   1.507   0.853
  140SOL     OW 1099   0.985   0.792   1.227
  140SOL    HW1 1100   1.038   0.769   1.303
  140SOL    HW2 1101   0.899   0.756   1.246
  141SOL     OW 1102   0.037   0.567   1.113
  141SOL    HW1 1103   0.102   0.517   1.063
  141SOL    HW2 1104   0.061   0.554   1.205
  142SOL     OW 1105   0.209   0.516   1.721
  142SOL    HW1 1106   0.259   0.481   1.648
  142SOL    HW2 1107   0.158   0.588   1.683
  143SOL     OW 1108   1.376   0.940   1.659
  143SOL    HW1 1109   1.397   1.033   1.658
  143SOL    HW2 1110   1.374   0.915   1.566
  144SOL     OW 1111   0.815   0.579   0.365
  144SOL    HW1 1112   0.827   0.501   0.311
  144SOL    HW2 1113   0.740   0.624   0.327
  145SOL     OW 1114   1.642   0.602   1.187
  145SOL    HW1 1115   1.632   0.541   1.261
  145SOL    HW2 1116   1.729   0.583   1.153
  146SOL     OW 1117   0.296   1.546   1.731
  146SOL    HW1 1118   0.246   1.616   1.773
  146SOL    HW2 1119   0.262   1.465   1.769
  147SOL     OW 1120   0.700   0.457   1.261
  147SOL    HW1 1121   0.653   0.378   1.234
  147SOL    HW2 1122   0.694   0.516   1.185
  148SOL     OW 1123   0.929   1.679   1.467
  148SOL    HW1 1124   0.903   1.646   1.381
  148SOL    HW2 1125   0.926   1.774   1.458
  149SOL     OW 1126   0.440   0.495   0.229
  149SOL    HW1 1127   0.510   0.559   0.239
  149SOL    HW2 1128   0.365   0.545   0.198
  150SOL     OW 1129   0.157   1.136   1.472
  150SOL    HW1 1130   0.161   1.084   1.553
  150SOL    HW2 1131   0.172   1.073   1.402
  151SOL     OW 1132   1.327   1.048   1.224
  151SOL    HW1 1133   1.351   0.985   1.156
  151SOL    HW2 1134   1.256   1.099   1.185
  152SOL     OW 1135   1.310   0.858   0.325
  152SOL    HW1 1136   1.233   0.824   0.372
  152SOL    HW2 1137   1.289   0.845   0.232
  153SOL     OW 1138   1.760   1.743   1.148
  153SOL    HW1 1139   1.827   1.771   1.085
  153SOL    HW2 1140   1.742   1.652   1.125
  154SOL     OW 1141   1.242   1.733   1.113
  154SOL    HW1 1142   1.325   1.753   1.069
  154SOL    HW2 1143   1.247   1.640   1.132
  155SOL     OW 1144   0.076   1.217   1.027
  155SOL    HW1 1145   0.082   1.242   1.119
  155SOL    HW2 1146   3.983   1.224   1.007
  156SOL     OW 1147   0.679   1.665   1.727
  156SOL    HW1 1148   0.624   1.743   1.723
  156SOL    HW2 1149   0.742   1.676   1.656
  157SOL     OW 1150   0.904   0.105   0.138
  157SOL    HW1 1151   0.941   0.089   0.051
  157SOL    HW2 1152   0.914   0.022   0.184
  158SOL     OW 1153   1.703   0.128   0.490
  158SOL    HW1 1154   1.785   0.135   0.442
  158SOL    HW2 1155   1.694   0.035   0.511
  159SOL     OW 1156   1.389   1.572   0.482
  159SOL    HW1 1157   1.445   1.609   0.413
  159SOL    HW2 1158   1.340   1.647   0.516
  160SOL     OW 1159   0.172   1.767   1.828
  160SOL    HW1 1160   0.112   1.720   1.886
  160SOL    HW2 1161   0.214   1.832   1.885
  161SOL     OW 1162   1.276   0.926   0.671
  161SOL    HW1 1163   1.350   0.865   0.678
  161SOL    HW2 1164   1.310   0.998   0.619
  162SOL     OW 1165   0.816   1.272   1.431
  162SOL    HW1 1166   0.789   1.312   1.514
  162SOL    HW2 1167   0.745   1.292   1.370
  163SOL     OW 1168   0.678   1.582   0.183
  163SOL    HW1 1169   0.664   1.618   0.095
  163SOL    HW2 1170   0.629   1.500   0.184
  164SOL     OW 1171   1.627   1.728   1.391
  164SOL    HW1 1172   1.677   1.734   1.309
  164SOL    HW2 1173   1.618   1.818   1.420
  165SOL     OW 1174   1.838   0.176   0.968
  165SOL    HW1 1175   1.869   0.102   0.915
  165SOL    HW2 1176   1.751   0.194   0.933
  166SOL     OW 1177   0.270   0.322   0.715
  166SOL    HW1 1178   0.185   0.358   0.693
  166SOL    HW2 1179   0.265   0.304   0.809
  167SOL     OW 1180   1.214   1.603   0.033
  167SOL    HW1 1181   1.205   1.512   0.062
  167SOL    HW2 1182   1.178   1.604  13.844
  168SOL     OW 1183   0.824   1.005   1.372
  168SOL    HW1 1184   0.867   1.002   1.287
  168SOL    HW2 1185   0.824   1.098   1.395
  169SOL     OW 1186   0.920   0.910   0.287
  169SOL    HW1 1187   0.991   0.948   0.235
  169SOL    HW2 1188   0.960   0.839   0.335
  170SOL     OW 1189   1.486   1.636   0.066
  170SOL    HW1 1190   1.392   1.625   0.051
  170SOL    HW2 1191   1.525   1.638  13.878
  171SOL     OW 1192   0.373   1.302   1.491
  171SOL    HW1 1193   0.358   1.383   1.442
  171SOL    HW2 1194   0.296   1.248   1.474
  172SOL     OW 1195   1.611   1.283   1.280
  172SOL    HW1 1196   1.671   1.274   1.354
  172SOL    HW2 1197   1.551   1.353   1.307
  173SOL     OW 1198   1.050   1.106   0.705
  173SOL    HW1 1199   0.980   1.055   0.745
  173SOL    HW2 1200   1.113   1.041   0.674
  174SOL     OW 1201   1.015   0.247   0.967
  174SOL    HW1 1202   1.004   0.198   0.886
  174SOL    HW2 1203   1.008   0.182   1.036
  175SOL     OW 1204   0.604   1.489   0.483
  175SOL    HW1 1205   0.646   1.438   0.414
  175SOL    HW2 1206   0.535   1.539   0.438
  176SOL     OW 1207   1.719   0.391   1.375
  176SOL    HW1 1208   1.791   0.455   1.377
  176SOL    HW2 1209   1.752   0.320   1.320
  177SOL     OW 1210   0.261   1.318   0.306
  177SOL    HW1 1211   0.185   1.349   0.256
  177SOL    HW2 1212   0.259   1.368   0.387
  178SOL     OW 1213   0.105   1.001   1.718
  178SOL    HW1 1214   0.044   0.989   1.791
  178SOL    HW2 1215   0.191   0.980   1.755
  179SOL     OW 1216   0.693   0.243   1.496
  179SOL    HW1 1217   0.763   0.191   1.456
  179SOL    HW2 1218   0.718   0.250   1.588
  180SOL     OW 1219   0.067   0.366   0.040
  180SOL    HW1 1220   3.973   0.363   0.060
  180SOL    HW2 1221   0.070   0.396  13.849
  181SOL     OW 1222   1.430   0.858   1.400
  181SOL    HW1 1223   1.382   0.919   1.345
  181SOL    HW2 1224   1.520   0.860   1.367
  182SOL     OW 1225   0.052   0.197   0.320
  182SOL    HW1 1226   0.068   0.270   0.261
  182SOL    HW2 1227   0.137   0.153   0.327
  183SOL     OW 1228   1.185   1.349   0.122
  183SOL    HW1 1229   1.092   1.330   0.111
  183SOL    HW2 1230   1.202   1.335   0.215
  184SOL     OW 1231   0.619   0.830   1.435
  184SOL    HW1 1232   0.675   0.906   1.419
  184SOL    HW2 1233   0.679   0.756   1.443
  185SOL     OW 1234   1.488   1.778   0.978
  185SOL    HW1 1235   1.513   1.840   0.909
  185SOL    HW2 1236   1.570   1.761   1.025
  186SOL     OW 1237   0.717   0.564   1.708
  186SOL    HW1 1238   0.757   0.627   1.767
  186SOL    HW2 1239   0.749   0.479   1.736
  187SOL     OW 1240   1.470   1.202   1.632
  187SOL    HW1 1241   1.458   1.215   1.726
  187SOL    HW2 1242   1.564   1.215   1.618
  188SOL     OW 1243   0.381   1.741   1.559
  188SOL    HW1 1244   0.293   1.779   1.546
  188SOL    HW2 1245   0.365   1.660   1.607
  189SOL     OW 1246   1.670   0.882   1.256
  189SOL    HW1 1247   1.664   0.796   1.213
  189SOL    HW2 1248   1.662   0.945   1.184
  190SOL     OW 1249   1.230   0.332   0.441
  190SOL    HW1 1250   1.294   0.262   0.436
  190SOL    HW2 1251   1.249   0.376   0.524
  191SOL     OW 1252   0.591   0.740   0.669
  191SOL    HW1 1253   0.628   0.826   0.651
  191SOL    HW2 1254   0.521   0.730   0.604
  192SOL     OW 1255   1.755   0.380   1.643
  192SOL    HW1 1256   1.737   0.385   1.549
  192SOL    HW2 1257   1.697   0.311   1.675
  193SOL     OW 1258   1.743   0.934   1.513
  193SOL    HW1 1259   1.743   1.029   1.525
  193SOL    HW2 1260   1.729   0.922   1.419
  194SOL     OW 1261   0.904   1.396   0.056
  194SOL    HW1 1262   0.833   1.380   0.118
  194SOL    HW2 1263   0.861   1.415  13.873
  195SOL     OW 1264   0.660   1.792   0.945
  195SOL    HW1 1265   0.639   1.883   0.922
  195SOL    HW2 1266   0.756   1.787   0.938
  196SOL     OW 1267   0.867   0.966   0.855
  196SOL    HW1 1268   0.917   0.895   0.895
  196SOL    HW2 1269   0.833   1.016   0.929
  197SOL     OW 1270   1.098   1.006   0.107
  197SOL    HW1 1271   1.086   1.054   0.025
  197SOL    HW2 1272   1.173   0.949   0.091
  198SOL     OW 1273   1.850   1.527   0.822
  198SOL    HW1 1274   1.762   1.534   0.785
  198SOL    HW2 1275   1.837   1.478   0.904
  199SOL     OW 1276   0.223   1.303   1.855
  199SOL    HW1 1277   0.153   1.243   1.830
  199SOL    HW2 1278   0.211   1.317   1.949
  200SOL     OW 1279   0.107   1.274   0.721
  200SOL    HW1 1280   0.119   1.222   0.800
  200SOL    HW2 1281   0.111   1.210   0.650
  201SOL     OW 1282   0.679   1.402   1.627
  201SOL    HW1 1283   0.600   1.359   1.657
  201SOL    HW2 1284   0.675   1.490   1.664
  202SOL     OW 1285   1.813   0.184   1.239
  202SOL    HW1 1286   1.816   0.089   1.253
  202SOL    HW2 1287   1.827   0.195   1.145
  203SOL     OW 1288   0.437   0.435   0.530
  203SOL    HW1 1289   0.465   0.362   0.476
  203SOL    HW2 1290   0.385   0.395   0.600
  204SOL     OW 1291   1.703   1.485   1.092
  204SOL    HW1 1292   1.620   1.464   1.051
  204SOL    HW2 1293   1.715   1.419   1.160
  205SOL     OW 1294   0.330   0.554   1.291
  205SOL    HW1 1295   0.386   0.498   1.345
  205SOL    HW2 1296   0.346   0.526   1.201
  206SOL     OW 1297   0.826   1.578   0.678
  206SOL    HW1 1298   0.817   1.629   0.598
  206SOL    HW2 1299   0.749   1.521   0.680
  207SOL     OW 1300   1.460   0.251   1.111
  207SOL    HW1 1301   1.477   0.164   1.147
  207SOL    HW2 1302   1.403   0.293   1.175
  208SOL     OW 1303   1.006   0.030   1.147
  208SOL    HW1 1304   0.930   3.980   1.118
  208SOL    HW2 1305   1.077   3.965   1.155
  209SOL     OW 1306   0.773   1.323   0.318
  209SOL    HW1 1307   0.740   1.235   0.332
  209SOL    HW2 1308   0.858   1.325   0.362
  210SOL     OW 1309   0.620   1.558   1.284
  210SOL    HW1 1310   0.623   1.639   1.335
  210SOL    HW2 1311   0.707   1.550   1.246
  211SOL     OW 1312   1.325   0.069   0.139
  211SOL    HW1 1313   1.349   3.993   0.086
  211SOL    HW2 1314   1.253   0.039   0.194
  212SOL     OW 1315   1.286   0.458   0.687
  212SOL    HW1 1316   1.237   0.540   0.684
  212SOL    HW2 1317   1.290   0.435   0.780
  213SOL     OW 1318   1.588   0.210   0.867
  213SOL    HW1 1319   1.538   0.232   0.946
  213SOL    HW2 1320   1.588   0.291   0.816
  214SOL     OW 1321   0.040   1.037   0.253
  214SOL    HW1 1322   0.135   1.025   0.250
  214SOL    HW2 1323   0.008   0.964   0.306
  215SOL     OW 1324   0.891   1.652   0.345
  215SOL    HW1 1325   0.818   1.622   0.291
  215SOL    HW2 1326   0.855   1.726   0.394
  216SOL     OW 1327   0.233   0.624   1.981
  216SOL    HW1 1328   0.140   0.630   2.003
  216SOL    HW2 1329   0.234   0.596   1.890
  217SOL     OW 1330   0.225   0.286   2.846
  217SOL    HW1 1331   0.249   0.250   2.931
  217SOL    HW2 1332   0.132   0.268   2.837
  218SOL     OW 1333   0.018   0.387   2.496
  218SOL    HW1 1334   3.930   0.397   2.533
  218SOL    HW2 1335   0.025   0.294   2.476
  219SOL     OW 1336   0.576   1.281   3.044
  219SOL    HW1 1337   0.489   1.286   3.004
  219SOL    HW2 1338   0.591   1.370   3.078
  220SOL     OW 1339   1.561   1.513   2.570
  220SOL    HW1 1340   1.517   1.494   2.653
  220SOL    HW2 1341   1.490   1.518   2.506
  221SOL     OW 1342   1.132   0.698   2.564
  221SOL    HW1 1343   1.180   0.780   2.550
  221SOL    HW2 1344   1.084   0.712   2.646
  222SOL     OW 1345   1.759   0.618   2.091
  222SOL    HW1 1346   1.742   0.609   1.997
  222SOL    HW2 1347   1.751   0.529   2.125
  223SOL     OW 1348   0.759   1.143   2.900
  223SOL    HW1 1349   0.691   1.176   2.959
  223SOL    HW2 1350   0.792   1.220   2.856
  224SOL     OW 1351   0.865   0.778   3.684
  224SOL    HW1 1352   0.854   0.850   3.746
  224SOL    HW2 1353   0.888   0.821   3.602
  225SOL     OW 1354   0.686   1.006   2.510
  225SOL    HW1 1355   0.751   0.992   2.579
  225SOL    HW2 1356   0.616   1.056   2.552
  226SOL     OW 1357   0.709   1.150   3.673
  226SOL    HW1 1358   0.757   1.229   3.699
  226SOL    HW2 1359   0.626   1.183   3.639
  227SOL     OW 1360   0.351   1.403   2.941
  227SOL    HW1 1361   0.269   1.386   2.894
  227SOL    HW2 1362   0.399   1.462   2.883
  228SOL     OW 1363   1.461   1.499   3.214
  228SOL    HW1 1364   1.510   1.581   3.223
  228SOL    HW2 1365   1.403   1.497   3.290
  229SOL     OW 1366   0.453   0.407   3.361
  229SOL    HW1 1367   0.533   0.355   3.357
  229SOL    HW2 1368   0.382   0.342   3.363
  230SOL     OW 1369   1.613   0.451   2.597
  230SOL    HW1 1370   1.540   0.482   2.544
  230SOL    HW2 1371   1.636   0.526   2.652
  231SOL     OW 1372   0.223   1.717   2.322
  231SOL    HW1 1373   0.241   1.792   2.379
  231SOL    HW2 1374   0.301   1.709   2.267
  232SOL     OW 1375   1.136   1.341   3.554
  232SOL    HW1 1376   1.176   1.337   3.641
  232SOL    HW2 1377   1.084   1.261   3.548
  233SOL     OW 1378   0.245   1.447   2.401
  233SOL    HW1 1379   0.214   1.537   2.389
  233SOL    HW2 1380   0.177   1.405   2.453
  234SOL     OW 1381   0.246   1.070   2.747
  234SOL    HW1 1382   0.264   0.986   2.789
  234SOL    HW2 1383   0.194   1.118   2.811
  235SOL     OW 1384   0.614   1.791   3.292
  235SOL    HW1 1385   0.531   1.773   3.337
  235SOL    HW2 1386   0.636   1.881   3.317
  236SOL     OW 1387   0.583   0.983   1.997
  236SOL    HW1 1388   0.628   1.030   1.928
  236SOL    HW2 1389   0.626   1.011   2.078
  237SOL     OW 1390   1.578   0.136   3.319
  237SOL    HW1 1391   1.603   0.210   3.264
  237SOL    HW2 1392   1.555   0.175   3.404
  238SOL     OW 1393   0.138   0.649   2.431
  238SOL    HW1 1394   0.094   0.564   2.437
  238SOL    HW2 1395   0.102   0.699   2.504
  239SOL     OW 1396   0.043   1.591   2.002
  239SOL    HW1 1397   0.032   1.498   2.023
  239SOL    HW2 1398   3.965   1.633   2.037
  240SOL     OW 1399   1.687   0.917   2.500
  240SOL    HW1 1400   1.773   0.878   2.484
  240SOL    HW2 1401   1.669   0.969   2.422
  241SOL     OW 1402   1.646   1.108   2.292
  241SOL    HW1 1403   1.732   1.114   2.250
  241SOL    HW2 1404   1.651   1.169   2.366
  242SOL     OW 1405   0.134   0.753   3.452
  242SOL    HW1 1406   0.229   0.747   3.456
  242SOL    HW2 1407   0.115   0.845   3.469
  243SOL     OW 1408   0.612   1.384   2.598
  243SOL    HW1 1409   0.566   1.300   2.607
  243SOL    HW2 1410   0.596   1.410   2.507
  244SOL     OW 1411   1.289   1.239   3.286
  244SOL    HW1 1412   1.322   1.171   3.226
  244SOL    HW2 1413   1.346   1.232   3.363
  245SOL     OW 1414   0.816   0.001   2.376
  245SOL    HW1 1415   0.861   0.083   2.355
  245SOL    HW2 1416   0.723   0.025   2.378
  246SOL     OW 1417   0.186   0.955   3.137
  246SOL    HW1 1418   0.274   0.920   3.123
  246SOL    HW2 1419   0.131   0.908   3.074
  247SOL     OW 1420   1.532   0.992   2.060
  247SOL    HW1 1421   1.462   0.935   2.091
  247SOL    HW2 1422   1.572   1.027   2.139
  248SOL     OW 1423   1.185   1.805   3.483
  248SOL    HW1 1424   1.198   1.863   3.408
  248SOL    HW2 1425   1.201   1.717   3.449
  249SOL     OW 1426   0.340   0.254   3.685
  249SOL    HW1 1427   0.385   0.338   3.674
  249SOL    HW2 1428   0.250   0.278   3.708
  250SOL     OW 1429   1.465   1.420   2.814
  250SOL    HW1 1430   1.397   1.434   2.880
  250SOL    HW2 1431   1.453   1.329   2.787
  251SOL     OW 1432   1.669   1.727   2.422
  251SOL    HW1 1433   1.629   1.693   2.342
  251SOL    HW2 1434   1.646   1.662   2.489
  252SOL     OW 1435   0.595   0.720   2.125
  252SOL    HW1 1436   0.603   0.802   2.077
  252SOL    HW2 1437   0.533   0.738   2.195
  253SOL     OW 1438   1.276   0.363   2.802
  253SOL    HW1 1439   1.189   0.324   2.807
  253SOL    HW2 1440   1.333   0.302   2.849
  254SOL     OW 1441   1.577   1.668   2.164
  254SOL    HW1 1442   1.660   1.711   2.146
  254SOL    HW2 1443   1.544   1.644   2.077
  255SOL     OW 1444   0.795   0.616   3.317
  255SOL    HW1 1445   0.765   0.592   3.404
  255SOL    HW2 1446   0.754   0.552   3.259
  256SOL     OW 1447   1.393   0.477   3.539
  256SOL    HW1 1448   1.396   0.521   3.624
  256SOL    HW2 1449   1.453   0.403   3.548
  257SOL     OW 1450   0.956   0.888   3.444
  257SOL    HW1 1451   1.010   0.818   3.409
  257SOL    HW2 1452   0.908   0.921   3.368
  258SOL     OW 1453   0.991   0.404   3.103
  258SOL    HW1 1454   0.909   0.430   3.145
  258SOL    HW2 1455   0.965   0.371   3.017
  259SOL     OW 1456   1.050   0.699   2.289
  259SOL    HW1 1457   1.065   0.691   2.383
  259SOL    HW2 1458   0.969   0.652   2.273
  260SOL     OW 1459   0.081   0.824   2.653
  260SOL    HW1 1460   0.160   0.794   2.698
  260SOL    HW2 1461   0.092   0.919   2.646
  261SOL     OW 1462   0.129   1.854   3.434
  261SOL    HW1 1463   0.137   1.821   3.524
  261SOL    HW2 1464   0.037   1.842   3.412
  262SOL     OW 1465   0.891   0.350   2.060
  262SOL    HW1 1466   0.933   0.408   1.997
  262SOL    HW2 1467   0.894   0.264   2.019
  263SOL     OW 1468   1.711   0.576   3.690
  263SOL    HW1 1469   1.673   0.650   3.644
  263SOL    HW2 1470   1.735   0.514   3.621
  264SOL     OW 1471   1.376   1.142   2.403
  264SOL    HW1 1472   1.455   1.129   2.351
  264SOL    HW2 1473   1.324   1.204   2.353
  265SOL     OW 1474   0.559   0.195   2.744
  265SOL    HW1 1475   0.562   0.216   2.838
  265SOL    HW2 1476   0.548   0.280   2.701
  266SOL     OW 1477   1.007   1.445   2.335
  266SOL    HW1 1478   0.968   1.517   2.286
  266SOL    HW2 1479   0.991   1.467   2.427
  267SOL     OW 1480   0.364   1.812   2.727
  267SOL    HW1 1481   0.429   1.741   2.733
  267SOL    HW2 1482   0.415   1.892   2.743
  268SOL     OW 1483   1.798   1.056   2.730
  268SOL    HW1 1484   1.743   1.043   2.654
  268SOL    HW2 1485   1.738   1.063   2.804
  269SOL     OW 1486   1.228   1.539   3.375
  269SOL    HW1 1487   1.214   1.466   3.435
  269SOL    HW2 1488   1.166   1.523   3.303
  270SOL     OW 1489   0.310   0.956   2.104
  270SOL    HW1 1490   0.396   0.978   2.066
  270SOL    HW2 1491   0.296   0.864   2.078
  271SOL     OW 1492   1.476   0.742   2.592
  271SOL    HW1 1493   1.468   0.698   2.677
  271SOL    HW2 1494   1.554   0.797   2.601
  272SOL     OW 1495   0.465   1.260   3.599
  272SOL    HW1 1496   0.438   1.268   3.507
  272SOL    HW2 1497   0.383   1.265   3.648
  273SOL     OW 1498   1.121   1.777   2.093
  273SOL    HW1 1499   1.048   1.735   2.140
  273SOL    HW2 1500   1.143   1.716   2.023
  274SOL     OW 1501   0.199   0.296   3.360
  274SOL    HW1 1502   0.105   0.318   3.357
  274SOL    HW2 1503   0.206   0.233   3.431
  275SOL     OW 1504   1.628   1.378   1.949
  275SOL    HW1 1505   1.588   1.464   1.932
  275SOL    HW2 1506   1.559   1.315   1.930
  276SOL     OW 1507   0.466   1.739   2.181
  276SOL    HW1 1508   0.508   1.797   2.245
  276SOL    HW2 1509   0.539   1.708   2.126
  277SOL     OW 1510   1.436   0.158   2.267
  277SOL    HW1 1511   1.396   0.093   2.210
  277SOL    HW2 1512   1.514   0.114   2.302
  278SOL     OW 1513   0.250   1.792   3.094
  278SOL    HW1 1514   0.299   1.730   3.149
  278SOL    HW2 1515   0.245   1.749   3.009
  279SOL     OW 1516   0.937   1.698   2.762
  279SOL    HW1 1517   1.015   1.647   2.782
  279SOL    HW2 1518   0.893   1.649   2.693
  280SOL     OW 1519   0.394   0.694   2.335
  280SOL    HW1 1520   0.421   0.604   2.348
  280SOL    HW2 1521   0.302   0.696   2.361
  281SOL     OW 1522   1.531   0.232   3.589
  281SOL    HW1 1523   1.532   0.256   3.681
  281SOL    HW2 1524   1.500   0.142   3.587
  282SOL     OW 1525   0.642   0.136   1.962
  282SOL    HW1 1526   0.675   0.057   2.005
  282SOL    HW2 1527   0.580   0.104   1.897
  283SOL     OW 1528   0.779   0.282   3.625
  283SOL    HW1 1529   0.843   0.212   3.631
  283SOL    HW2 1530   0.717   0.265   3.696
  284SOL     OW 1531   0.876   1.521   3.056
  284SOL    HW1 1532   0.861   1.485   2.968
  284SOL    HW2 1533   0.946   1.467   3.093
  285SOL     OW 1534   1.342   0.587   3.292
  285SOL    HW1 1535   1.372   0.558   3.379
  285SOL    HW2 1536   1.376   0.676   3.284
  286SOL     OW 1537   0.814   1.397   2.799
  286SOL    HW1 1538   0.898   1.385   2.756
  286SOL    HW2 1539   0.750   1.395   2.728
  287SOL     OW 1540   0.929   0.511   2.765
  287SOL    HW1 1541   0.905   0.503   2.672
  287SOL    HW2 1542   0.957   0.423   2.790
  288SOL     OW 1543   0.546   0.057   2.353
  288SOL    HW1 1544   0.471   0.064   2.412
  288SOL    HW2 1545   0.548   0.141   2.307
  289SOL     OW 1546   1.428   1.198   1.903
  289SOL    HW1 1547   1.459   1.122   1.953
  289SOL    HW2 1548   1.342   1.218   1.941
  290SOL     OW 1549   0.333   0.045   2.056
  290SOL    HW1 1550   0.364   0.087   1.976
  290SOL    HW2 1551   0.413   0.026   2.105
  291SOL     OW 1552   0.938   0.246   2.327
  291SOL    HW1 1553   0.910   0.288   2.245
  291SOL    HW2 1554   1.033   0.248   2.323
  292SOL     OW 1555   1.079   0.681   3.321
  292SOL    HW1 1556   1.008   0.617   3.329
  292SOL    HW2 1557   1.159   0.627   3.316
  293SOL     OW 1558   1.224   1.570   2.656
  293SOL    HW1 1559   1.241   1.637   2.590
  293SOL    HW2 1560   1.292   1.582   2.722
  294SOL     OW 1561   0.466   1.149   2.601
  294SOL    HW1 1562   0.393   1.126   2.659
  294SOL    HW2 1563   0.433   1.133   2.513
  295SOL     OW 1564   1.268   1.794   2.468
  295SOL    HW1 1565   1.312   1.856   2.410
  295SOL    HW2 1566   1.204   1.846   2.515
  296SOL     OW 1567   1.025   0.547   1.885
  296SOL    HW1 1568   0.982   0.630   1.866
  296SOL    HW2 1569   1.087   0.568   1.954
  297SOL     OW 1570   0.079   0.570   3.255
  297SOL    HW1 1571   0.168   0.553   3.224
  297SOL    HW2 1572   0.088   0.641   3.318
  298SOL     OW 1573   0.572   0.232   3.022
  298SOL    HW1 1574   0.596   0.140   3.033
  298SOL    HW2 1575   0.481   0.236   3.052
  299SOL     OW 1576   0.872   0.462   2.501
  299SOL    HW1 1577   0.820   0.513   2.439
  299SOL    HW2 1578   0.890   0.380   2.455
  300SOL     OW 1579   0.994   0.042   2.641
  300SOL    HW1 1580   0.961   0.066   2.554
  300SOL    HW2 1581   1.004   3.947   2.637
  301SOL     OW 1582   1.436   1.163   2.720
  301SOL    HW1 1583   1.368   1.096   2.718
  301SOL    HW2 1584   1.461   1.175   2.628
  302SOL     OW 1585   1.467   0.603   2.841
  302SOL    HW1 1586   1.416   0.522   2.847
  302SOL    HW2 1587   1.528   0.599   2.914
  303SOL     OW 1588   1.847   0.820   2.245
  303SOL    HW1 1589   1.902   0.767   2.303
  303SOL    HW2 1590   1.815   0.759   2.179
  304SOL     OW 1591   0.489   1.416   2.024
  304SOL    HW1 1592   0.414   1.384   2.074
  304SOL    HW2 1593   0.468   1.394   1.933
  305SOL     OW 1594   1.669   1.265   2.510
  305SOL    HW1 1595   1.763   1.268   2.522
  305SOL    HW2 1596   1.639   1.354   2.531
  306SOL     OW 1597   1.394   0.573   1.932
  306SOL    HW1 1598   1.333   0.554   2.003
  306SOL    HW2 1599   1.480   0.552   1.969
  307SOL     OW 1600   0.557   0.270   2.183
  307SOL    HW1 1601   0.598   0.229   2.106
  307SOL    HW2 1602   0.529   0.355   2.152
  308SOL     OW 1603   1.753   1.237   3.437
  308SOL    HW1 1604   1.840   1.199   3.434
  308SOL    HW2 1605   1.768   1.328   3.466
  309SOL     OW 1606   1.059   1.353   3.196
  309SOL    HW1 1607   0.985   1.322   3.247
  309SOL    HW2 1608   1.135   1.312   3.237
  310SOL     OW 1609   1.606   1.625   3.514
  310SOL    HW1 1610   1.602   1.661   3.425
  310SOL    HW2 1611   1.690   1.579   3.518
  311SOL     OW 1612   1.127   1.202   2.968
  311SOL    HW1 1613   1.069   1.240   3.034
  311SOL    HW2 1614   1.093   1.234   2.885
  312SOL     OW 1615   1.629   1.099   2.940
  312SOL    HW1 1616   1.625   1.161   3.013
  312SOL    HW2 1617   1.550   1.116   2.889
  313SOL     OW 1618   0.914   0.110   3.264
  313SOL    HW1 1619   0.933   0.086   3.173
  313SOL    HW2 1620   0.994   0.153   3.295
  314SOL     OW 1621   0.984   1.115   3.584
  314SOL    HW1 1622   0.892   1.130   3.605
  314SOL    HW2 1623   0.984   1.037   3.528
  315SOL     OW 1624   0.708   1.060   2.233
  315SOL    HW1 1625   0.694   1.046   2.327
  315SOL    HW2 1626   0.784   1.007   2.211
  316SOL     OW 1627   0.420   0.815   3.114
  316SOL    HW1 1628   0.489   0.822   3.180
  316SOL    HW2 1629   0.385   0.726   3.124
  317SOL     OW 1630   1.267   0.375   3.137
  317SOL    HW1 1631   1.301   0.453   3.182
  317SOL    HW2 1632   1.180   0.402   3.106
  318SOL     OW 1633   0.064   1.579   3.207
  318SOL    HW1 1634   0.066   1.648   3.140
  318SOL    HW2 1635   0.156   1.566   3.230
  319SOL     OW 1636   0.376   1.103   2.348
  319SOL    HW1 1637   0.367   1.180   2.292
  319SOL    HW2 1638   0.373   1.028   2.288
  320SOL     OW 1639   0.556   0.538   2.722
  320SOL    HW1 1640   0.572   0.595   2.647
  320SOL    HW2 1641   0.620   0.566   2.788
  321SOL     OW 1642   1.248   1.348   2.251
  321SOL    HW1 1643   1.303   1.419   2.283
  321SOL    HW2 1644   1.161   1.369   2.285
  322SOL     OW 1645   1.279   1.457   3.009
  322SOL    HW1 1646   1.335   1.460   3.086
  322SOL    HW2 1647   1.224   1.379   3.021
  323SOL     OW 1648   1.579   0.631   2.346
  323SOL    HW1 1649   1.538   0.692   2.407
  323SOL    HW2 1650   1.626   0.687   2.284
  324SOL     OW 1651   0.346   1.525   3.182
  324SOL    HW1 1652   0.336   1.475   3.101
  324SOL    HW2 1653   0.440   1.541   3.189
  325SOL     OW 1654   0.412   0.740   3.463
  325SOL    HW1 1655   0.473   0.787   3.406
  325SOL    HW2 1656   0.453   0.654   3.477
  326SOL     OW 1657   1.599   0.778   3.544
  326SOL    HW1 1658   1.513   0.819   3.536
  326SOL    HW2 1659   1.652   0.819   3.475
  327SOL     OW 1660   1.020   0.122   3.639
  327SOL    HW1 1661   1.056   0.200   3.598
  327SOL    HW2 1662   1.010   0.059   3.568
  328SOL     OW 1663   0.479   0.036   3.629
  328SOL    HW1 1664   0.492   0.039   3.534
  328SOL    HW2 1665   0.419   0.109   3.648
  329SOL     OW 1666   0.584   0.873   2.893
  329SOL    HW1 1667   0.613   0.964   2.892
  329SOL    HW2 1668   0.527   0.867   2.970
  330SOL     OW 1669   1.359   0.859   2.893
  330SOL    HW1 1670   1.277   0.850   2.845
  330SOL    HW2 1671   1.398   0.771   2.889
  331SOL     OW 1672   1.205   0.534   2.126
  331SOL    HW1 1673   1.213   0.455   2.179
  331SOL    HW2 1674   1.162   0.597   2.183
  332SOL     OW 1675   0.313   0.214   3.103
  332SOL    HW1 1676   0.272   0.248   3.183
  332SOL    HW2 1677   0.294   0.120   3.105
  333SOL     OW 1678   0.057   1.305   3.142
  333SOL    HW1 1679   0.090   1.265   3.222
  333SOL    HW2 1680   0.050   1.398   3.162
  334SOL     OW 1681   0.727   0.634   2.919
  334SOL    HW1 1682   0.799   0.617   2.859
  334SOL    HW2 1683   0.698   0.723   2.896
  335SOL     OW 1684   1.734   0.959   3.714
  335SOL    HW1 1685   1.686   0.901   3.654
  335SOL    HW2 1686   1.675   0.972   3.788
  336SOL     OW 1687   0.325   0.056   2.510
  336SOL    HW1 1688   0.297   0.147   2.511
  336SOL    HW2 1689   0.285   0.017   2.588
  337SOL     OW 1690   1.600   0.386   2.245
  337SOL    HW1 1691   1.576   0.319   2.308
  337SOL    HW2 1692   1.581   0.469   2.289
  338SOL     OW 1693   1.028   0.760   2.823
  338SOL    HW1 1694   1.025   0.777   2.917
  338SOL    HW2 1695   1.001   0.668   2.815
  339SOL     OW 1696   0.982   1.566   3.578
  339SOL    HW1 1697   0.967   1.610   3.494
  339SOL    HW2 1698   1.026   1.484   3.554
  340SOL     OW 1699   1.855   1.506   3.467
  340SOL    HW1 1700   1.871   1.535   3.377
  340SOL    HW2 1701   1.939   1.521   3.512
  341SOL     OW 1702   0.351   0.920   3.663
  341SOL    HW1 1703   0.430   0.940   3.713
  341SOL    HW2 1704   0.379   0.854   3.599
  342SOL     OW 1705   1.510   0.276   1.998
  342SOL    HW1 1706   1.435   0.219   2.011
  342SOL    HW2 1707   1.524   0.317   2.083
  343SOL     OW 1708   1.293   0.827   1.893
  343SOL    HW1 1709   1.335   0.741   1.896
  343SOL    HW2 1710   1.324   0.866   1.812
  344SOL     OW 1711   1.064   1.335   2.715
  344SOL    HW1 1712   1.068   1.263   2.653
  344SOL    HW2 1713   1.127   1.399   2.681
  345SOL     OW 1714   0.313   0.806   2.813
  345SOL    HW1 1715   0.408   0.823   2.807
  345SOL    HW2 1716   0.307   0.716   2.845
  346SOL     OW 1717   0.337   0.527   2.875
  346SOL    HW1 1718   0.298   0.441   2.857
  346SOL    HW2 1719   0.413   0.531   2.816
  347SOL     OW 1720   1.134   0.383   3.553
  347SOL    HW1 1721   1.087   0.438   3.615
  347SOL    HW2 1722   1.221   0.421   3.549
  348SOL     OW 1723   1.151   0.224   3.343
  348SOL    HW1 1724   1.143   0.279   3.421
  348SOL    HW2 1725   1.173   0.285   3.273
  349SOL     OW 1726   3.999   1.320   2.044
  349SOL    HW1 1727   3.905   1.336   2.049
  349SOL    HW2 1728   0.009   1.227   2.064
  350SOL     OW 1729   0.076   1.801   2.751
  350SOL    HW1 1730   0.077   1.705   2.761
  350SOL    HW2 1731   0.168   1.826   2.755
  351SOL     OW 1732   0.504   1.570   2.772
  351SOL    HW1 1733   0.573   1.631   2.797
  351SOL    HW2 1734   0.547   1.506   2.715
  352SOL     OW 1735   0.985   0.792   3.089
  352SOL    HW1 1736   1.038   0.769   3.165
  352SOL    HW2 1737   0.898   0.756   3.108
  353SOL     OW 1738   0.037   0.566   2.975
  353SOL    HW1 1739   0.104   0.519   2.926
  353SOL    HW2 1740   0.061   0.554   3.067
  354SOL     OW 1741   0.209   0.516   3.583
  354SOL    HW1 1742   0.259   0.481   3.510
  354SOL    HW2 1743   0.158   0.588   3.545
  355SOL     OW 1744   1.376   0.940   3.521
  355SOL    HW1 1745   1.397   1.033   3.520
  355SOL    HW2 1746   1.374   0.915   3.428
  356SOL     OW 1747   0.817   0.572   2.219
  356SOL    HW1 1748   0.822   0.494   2.162
  356SOL    HW2 1749   0.742   0.621   2.186
  357SOL     OW 1750   1.642   0.602   3.049
  357SOL    HW1 1751   1.632   0.541   3.123
  357SOL    HW2 1752   1.729   0.583   3.015
  358SOL     OW 1753   0.296   1.546   3.593
  358SOL    HW1 1754   0.246   1.616   3.635
  358SOL    HW2 1755   0.262   1.465   3.631
  359SOL     OW 1756   0.700   0.457   3.123
  359SOL    HW1 1757   0.653   0.378   3.096
  359SOL    HW2 1758   0.694   0.516   3.047
  360SOL     OW 1759   0.929   1.679   3.329
  360SOL    HW1 1760   0.903   1.646   3.243
  360SOL    HW2 1761   0.926   1.774   3.320
  361SOL     OW 1762   0.459   0.492   2.056
  361SOL    HW1 1763   0.523   0.561   2.073
  361SOL    HW2 1764   0.377   0.539   2.036
  362SOL     OW 1765   0.157   1.136   3.334
  362SOL    HW1 1766   0.161   1.085   3.414
  362SOL    HW2 1767   0.172   1.073   3.264
  363SOL     OW 1768   1.327   1.048   3.086
  363SOL    HW1 1769   1.351   0.985   3.018
  363SOL    HW2 1770   1.256   1.099   3.048
  364SOL     OW 1771   1.310   0.856   2.169
  364SOL    HW1 1772   1.234   0.827   2.218
  364SOL    HW2 1773   1.286   0.843   2.077
  365SOL     OW 1774   1.757   1.743   3.008
  365SOL    HW1 1775   1.826   1.769   2.947
  365SOL    HW2 1776   1.740   1.651   2.986
  366SOL     OW 1777   1.242   1.733   2.976
  366SOL    HW1 1778   1.325   1.753   2.931
  366SOL    HW2 1779   1.247   1.640   2.994
  367SOL     OW 1780   0.076   1.218   2.889
  367SOL    HW1 1781   0.082   1.243   2.981
  367SOL    HW2 1782   3.983   1.224   2.868
  368SOL     OW 1783   0.679   1.665   3.589
  368SOL    HW1 1784   0.624   1.743   3.584
  368SOL    HW2 1785   0.742   1.676   3.519
  369SOL     OW 1786   1.710   0.128   2.347
  369SOL    HW1 1787   1.790   0.133   2.296
  369SOL    HW2 1788   1.701   0.035   2.370
  370SOL     OW 1789   1.390   1.567   2.347
  370SOL    HW1 1790   1.447   1.599   2.277
  370SOL    HW2 1791   1.341   1.645   2.375
  371SOL     OW 1792   0.172   1.767   3.690
  371SOL    HW1 1793   0.112   1.720   3.748
  371SOL    HW2 1794   0.214   1.832   3.747
  372SOL     OW 1795   1.277   0.925   2.533
  372SOL    HW1 1796   1.350   0.865   2.540
  372SOL    HW2 1797   1.311   0.998   2.481
  373SOL     OW 1798   0.816   1.272   3.293
  373SOL    HW1 1799   0.789   1.312   3.376
  373SOL    HW2 1800   0.745   1.292   3.232
  374SOL     OW 1801   0.671   1.618   2.017
  374SOL    HW1 1802   0.681   1.629   1.923
  374SOL    HW2 1803   0.617   1.539   2.027
  375SOL     OW 1804   1.628   1.728   3.253
  375SOL    HW1 1805   1.676   1.734   3.171
  375SOL    HW2 1806   1.618   1.818   3.282
  376SOL     OW 1807   1.838   0.176   2.830
  376SOL    HW1 1808   1.869   0.102   2.777
  376SOL    HW2 1809   1.751   0.194   2.796
  377SOL     OW 1810   0.272   0.324   2.577
  377SOL    HW1 1811   0.187   0.359   2.553
  377SOL    HW2 1812   0.265   0.306   2.671
  378SOL     OW 1813   1.206   1.607   1.893
  378SOL    HW1 1814   1.197   1.515   1.920
  378SOL    HW2 1815   1.141   1.618   1.824
  379SOL     OW 1816   0.824   1.005   3.234
  379SOL    HW1 1817   0.867   1.002   3.149
  379SOL    HW2 1818   0.824   1.098   3.257
  380SOL     OW 1819   0.915   0.910   2.151
  380SOL    HW1 1820   0.977   0.942   2.086
  380SOL    HW2 1821   0.962   0.840   2.197
  381SOL     OW 1822   1.491   1.623   1.903
  381SOL    HW1 1823   1.396   1.619   1.889
  381SOL    HW2 1824   1.528   1.630   1.815
  382SOL     OW 1825   0.373   1.302   3.353
  382SOL    HW1 1826   0.358   1.383   3.304
  382SOL    HW2 1827   0.296   1.248   3.336
  383SOL     OW 1828   1.611   1.283   3.143
  383SOL    HW1 1829   1.671   1.274   3.216
  383SOL    HW2 1830   1.551   1.353   3.169
  384SOL     OW 1831   1.050   1.106   2.568
  384SOL    HW1 1832   0.980   1.055   2.607
  384SOL    HW2 1833   1.112   1.041   2.535
  385SOL     OW 1834   1.015   0.247   2.829
  385SOL    HW1 1835   1.004   0.197   2.748
  385SOL    HW2 1836   1.008   0.182   2.899
  386SOL     OW 1837   0.603   1.489   2.344
  386SOL    HW1 1838   0.645   1.438   2.275
  386SOL    HW2 1839   0.534   1.538   2.300
  387SOL     OW 1840   1.719   0.391   3.237
  387SOL    HW1 1841   1.790   0.455   3.239
  387SOL    HW2 1842   1.752   0.320   3.182
  388SOL     OW 1843   0.252   1.342   2.153
  388SOL    HW1 1844   0.160   1.353   2.132
  388SOL    HW2 1845   0.262   1.380   2.240
  389SOL     OW 1846   0.105   1.001   3.580
  389SOL    HW1 1847   0.044   0.990   3.653
  389SOL    HW2 1848   0.191   0.980   3.617
  390SOL     OW 1849   0.693   0.243   3.358
  390SOL    HW1 1850   0.763   0.191   3.318
  390SOL    HW2 1851   0.718   0.250   3.450
  391SOL     OW 1852   0.088   0.326   1.890
  391SOL    HW1 1853   3.992   0.321   1.885
  391SOL    HW2 1854   0.109   0.408   1.846
  392SOL     OW 1855   1.430   0.857   3.262
  392SOL    HW1 1856   1.382   0.919   3.207
  392SOL    HW2 1857   1.520   0.860   3.229
  393SOL     OW 1858   0.039   0.162   2.145
  393SOL    HW1 1859   0.037   0.243   2.095
  393SOL    HW2 1860   0.120   0.167   2.196
  394SOL     OW 1861   1.179   1.341   1.979
  394SOL    HW1 1862   1.088   1.310   1.982
  394SOL    HW2 1863   1.207   1.340   2.070
  395SOL     OW 1864   0.619   0.830   3.297
  395SOL    HW1 1865   0.675   0.906   3.281
  395SOL    HW2 1866   0.679   0.756   3.305
  396SOL     OW 1867   1.488   1.778   2.840
  396SOL    HW1 1868   1.512   1.840   2.771
  396SOL    HW2 1869   1.570   1.762   2.887
  397SOL     OW 1870   0.716   0.564   3.570
  397SOL    HW1 1871   0.757   0.627   3.629
  397SOL    HW2 1872   0.749   0.479   3.598
  398SOL     OW 1873   1.470   1.201   3.494
  398SOL    HW1 1874   1.458   1.215   3.588
  398SOL    HW2 1875   1.564   1.215   3.480
  399SOL     OW 1876   0.381   1.741   3.421
  399SOL    HW1 1877   0.293   1.779   3.408
  399SOL    HW2 1878   0.365   1.660   3.469
  400SOL     OW 1879   1.670   0.882   3.118
  400SOL    HW1 1880   1.664   0.796   3.075
  400SOL    HW2 1881   1.662   0.945   3.046
  401SOL     OW 1882   1.225   0.333   2.308
  401SOL    HW1 1883   1.291   0.265   2.300
  401SOL    HW2 1884   1.247   0.378   2.390
  402SOL     OW 1885   0.592   0.740   2.530
  402SOL    HW1 1886   0.629   0.827   2.513
  402SOL    HW2 1887   0.522   0.731   2.466
  403SOL     OW 1888   1.755   0.380   3.505
  403SOL    HW1 1889   1.737   0.385   3.411
  403SOL    HW2 1890   1.697   0.311   3.537
  404SOL     OW 1891   1.743   0.934   3.375
  404SOL    HW1 1892   1.743   1.029   3.388
  404SOL    HW2 1893   1.729   0.922   3.281
  405SOL     OW 1894   0.862   1.368   1.894
  405SOL    HW1 1895   0.823   1.395   1.977
  405SOL    HW2 1896   0.881   1.450   1.848
  406SOL     OW 1897   0.660   1.792   2.807
  406SOL    HW1 1898   0.639   1.882   2.784
  406SOL    HW2 1899   0.756   1.787   2.800
  407SOL     OW 1900   0.867   0.965   2.717
  407SOL    HW1 1901   0.917   0.895   2.757
  407SOL    HW2 1902   0.833   1.016   2.791
  408SOL     OW 1903   1.079   0.988   1.951
  408SOL    HW1 1904   1.058   1.039   1.872
  408SOL    HW2 1905   1.155   0.935   1.925
  409SOL     OW 1906   1.849   1.534   2.687
  409SOL    HW1 1907   1.762   1.534   2.647
  409SOL    HW2 1908   1.839   1.480   2.765
  410SOL     OW 1909   0.223   1.303   3.717
  410SOL    HW1 1910   0.153   1.243   3.692
  410SOL    HW2 1911   0.211   1.317   3.811
  411SOL     OW 1912   0.113   1.273   2.578
  411SOL    HW1 1913   0.120   1.222   2.658
  411SOL    HW2 1914   0.112   1.208   2.508
  412SOL     OW 1915   0.679   1.402   3.489
  412SOL    HW1 1916   0.599   1.359   3.519
  412SOL    HW2 1917   0.675   1.490   3.526
  413SOL     OW 1918   1.813   0.184   3.101
  413SOL    HW1 1919   1.816   0.089   3.115
  413SOL    HW2 1920   1.827   0.195   3.007
  414SOL     OW 1921   0.441   0.436   2.392
  414SOL    HW1 1922   0.453   0.361   2.333
  414SOL    HW2 1923   0.386   0.402   2.462
  415SOL     OW 1924   1.703   1.485   2.955
  415SOL    HW1 1925   1.620   1.463   2.913
  415SOL    HW2 1926   1.715   1.418   3.022
  416SOL     OW 1927   0.330   0.554   3.153
  416SOL    HW1 1928   0.386   0.498   3.207
  416SOL    HW2 1929   0.346   0.526   3.063
  417SOL     OW 1930   0.826   1.578   2.540
  417SOL    HW1 1931   0.817   1.629   2.460
  417SOL    HW2 1932   0.749   1.522   2.541
  418SOL     OW 1933   1.461   0.251   2.973
  418SOL    HW1 1934   1.477   0.164   3.010
  418SOL    HW2 1935   1.403   0.293   3.037
  419SOL     OW 1936   1.006   0.030   3.010
  419SOL    HW1 1937   0.931   3.979   2.980
  419SOL    HW2 1938   1.077   3.966   3.017
  420SOL     OW 1939   0.771   1.332   2.175
  420SOL    HW1 1940   0.739   1.242   2.181
  420SOL    HW2 1941   0.854   1.332   2.224
  421SOL     OW 1942   0.620   1.558   3.146
  421SOL    HW1 1943   0.623   1.639   3.197
  421SOL    HW2 1944   0.707   1.550   3.108
  422SOL     OW 1945   1.315   0.074   2.025
  422SOL    HW1 1946   1.335   0.005   1.962
  422SOL    HW2 1947   1.231   0.049   2.062
  423SOL     OW 1948   1.286   0.458   2.549
  423SOL    HW1 1949   1.237   0.540   2.547
  423SOL    HW2 1950   1.290   0.436   2.642
  424SOL     OW 1951   1.588   0.211   2.729
  424SOL    HW1 1952   1.538   0.232   2.808
  424SOL    HW2 1953   1.588   0.291   2.677
  425SOL     OW 1954   0.045   1.052   2.102
  425SOL    HW1 1955   0.139   1.035   2.094
  425SOL    HW2 1956   0.010   0.972   2.142
  426SOL     OW 1957   0.883   1.651   2.205
  426SOL    HW1 1958   0.811   1.634   2.145
  426SOL    HW2 1959   0.854   1.727   2.256
  427SOL     OW 1960   0.232   0.624   3.843
  427SOL    HW1 1961   0.139   0.630   3.865
  427SOL    HW2 1962   0.234   0.596   3.752
  428SOL     OW 1963   0.225   0.286   4.708
  428SOL    HW1 1964   0.249   0.250   4.793
  428SOL    HW2 1965   0.132   0.268   4.699
  429SOL     OW 1966   0.018   0.387   4.358
  429SOL    HW1 1967   3.930   0.397   4.395
  429SOL    HW2 1968   0.025   0.294   4.338
  430SOL     OW 1969   0.576   1.281   4.906
  430SOL    HW1 1970   0.489   1.286   4.866
  430SOL    HW2 1971   0.591   1.370   4.940
  431SOL     OW 1972   1.561   1.513   4.432
  431SOL    HW1 1973   1.517   1.495   4.515
  431SOL    HW2 1974   1.490   1.518   4.368
  432SOL     OW 1975   1.132   0.698   4.426
  432SOL    HW1 1976   1.180   0.780   4.412
  432SOL    HW2 1977   1.084   0.712   4.508
  433SOL     OW 1978   1.759   0.618   3.953
  433SOL    HW1 1979   1.742   0.609   3.859
  433SOL    HW2 1980   1.751   0.529   3.987
  434SOL     OW 1981   0.759   1.142   4.762
  434SOL    HW1 1982   0.691   1.176   4.821
  434SOL    HW2 1983   0.792   1.220   4.718
  435SOL     OW 1984   0.865   0.778   5.546
  435SOL    HW1 1985   0.854   0.850   5.608
  435SOL    HW2 1986   0.888   0.821   5.464
  436SOL     OW 1987   0.686   1.006   4.372
  436SOL    HW1 1988   0.751   0.992   4.441
  436SOL    HW2 1989   0.616   1.056   4.414
  437SOL     OW 1990   0.709   1.151   5.535
  437SOL    HW1 1991   0.757   1.229   5.561
  437SOL    HW2 1992   0.626   1.183   5.501
  438SOL     OW 1993   0.351   1.404   4.803
  438SOL    HW1 1994   0.269   1.386   4.756
  438SOL    HW2 1995   0.399   1.462   4.745
  439SOL     OW 1996   1.461   1.500   5.076
  439SOL    HW1 1997   1.510   1.581   5.085
  439SOL    HW2 1998   1.405   1.497   5.153
  440SOL     OW 1999   0.453   0.407   5.223
  440SOL    HW1 2000   0.533   0.354   5.219
  440SOL    HW2 2001   0.382   0.342   5.225
  441SOL     OW 2002   1.613   0.451   4.459
  441SOL    HW1 2003   1.540   0.482   4.406
  441SOL    HW2 2004   1.636   0.526   4.514
  442SOL     OW 2005   0.223   1.717   4.184
  442SOL    HW1 2006   0.241   1.792   4.241
  442SOL    HW2 2007   0.301   1.709   4.128
  443SOL     OW 2008   1.136   1.341   5.416
  443SOL    HW1 2009   1.177   1.337   5.502
  443SOL    HW2 2010   1.083   1.261   5.410
  444SOL     OW 2011   0.245   1.447   4.263
  444SOL    HW1 2012   0.214   1.537   4.251
  444SOL    HW2 2013   0.177   1.405   4.315
  445SOL     OW 2014   0.246   1.070   4.609
  445SOL    HW1 2015   0.264   0.986   4.651
  445SOL    HW2 2016   0.194   1.118   4.673
  446SOL     OW 2017   0.614   1.791   5.154
  446SOL    HW1 2018   0.531   1.773   5.199
  446SOL    HW2 2019   0.636   1.881   5.179
  447SOL     OW 2020   0.583   0.983   3.859
  447SOL    HW1 2021   0.628   1.030   3.790
  447SOL    HW2 2022   0.626   1.011   3.940
  448SOL     OW 2023   1.578   0.136   5.181
  448SOL    HW1 2024   1.603   0.210   5.126
  448SOL    HW2 2025   1.555   0.175   5.265
  449SOL     OW 2026   0.138   0.649   4.293
  449SOL    HW1 2027   0.094   0.564   4.299
  449SOL    HW2 2028   0.102   0.699   4.366
  450SOL     OW 2029   0.043   1.591   3.864
  450SOL    HW1 2030   0.032   1.498   3.885
  450SOL    HW2 2031   3.965   1.633   3.899
  451SOL     OW 2032   1.687   0.916   4.362
  451SOL    HW1 2033   1.773   0.878   4.346
  451SOL    HW2 2034   1.669   0.969   4.284
  452SOL     OW 2035   1.646   1.108   4.154
  452SOL    HW1 2036   1.732   1.114   4.112
  452SOL    HW2 2037   1.651   1.169   4.228
  453SOL     OW 2038   0.134   0.753   5.314
  453SOL    HW1 2039   0.229   0.747   5.318
  453SOL    HW2 2040   0.115   0.845   5.331
  454SOL     OW 2041   0.612   1.384   4.460
  454SOL    HW1 2042   0.566   1.300   4.469
  454SOL    HW2 2043   0.596   1.410   4.369
  455SOL     OW 2044   1.289   1.238   5.148
  455SOL    HW1 2045   1.322   1.171   5.088
  455SOL    HW2 2046   1.346   1.232   5.224
  456SOL     OW 2047   0.816   0.001   4.238
  456SOL    HW1 2048   0.861   0.083   4.217
  456SOL    HW2 2049   0.723   0.025   4.240
  457SOL     OW 2050   0.186   0.954   4.999
  457SOL    HW1 2051   0.274   0.920   4.985
  457SOL    HW2 2052   0.131   0.908   4.936
  458SOL     OW 2053   1.532   0.992   3.922
  458SOL    HW1 2054   1.462   0.935   3.953
  458SOL    HW2 2055   1.572   1.027   4.001
  459SOL     OW 2056   1.183   1.804   5.345
  459SOL    HW1 2057   1.199   1.863   5.271
  459SOL    HW2 2058   1.201   1.717   5.310
  460SOL     OW 2059   0.340   0.254   5.548
  460SOL    HW1 2060   0.385   0.337   5.536
  460SOL    HW2 2061   0.250   0.278   5.570
  461SOL     OW 2062   1.465   1.420   4.676
  461SOL    HW1 2063   1.397   1.434   4.742
  461SOL    HW2 2064   1.453   1.329   4.649
  462SOL     OW 2065   1.668   1.727   4.284
  462SOL    HW1 2066   1.629   1.693   4.204
  462SOL    HW2 2067   1.646   1.662   4.351
  463SOL     OW 2068   0.595   0.720   3.987
  463SOL    HW1 2069   0.603   0.802   3.939
  463SOL    HW2 2070   0.533   0.738   4.057
  464SOL     OW 2071   1.276   0.363   4.664
  464SOL    HW1 2072   1.189   0.324   4.669
  464SOL    HW2 2073   1.333   0.302   4.711
  465SOL     OW 2074   1.577   1.668   4.026
  465SOL    HW1 2075   1.661   1.711   4.009
  465SOL    HW2 2076   1.544   1.644   3.939
  466SOL     OW 2077   0.795   0.616   5.179
  466SOL    HW1 2078   0.765   0.592   5.266
  466SOL    HW2 2079   0.753   0.552   5.121
  467SOL     OW 2080   1.393   0.477   5.401
  467SOL    HW1 2081   1.396   0.521   5.486
  467SOL    HW2 2082   1.453   0.403   5.410
  468SOL     OW 2083   0.956   0.888   5.306
  468SOL    HW1 2084   1.010   0.818   5.271
  468SOL    HW2 2085   0.908   0.922   5.230
  469SOL     OW 2086   0.991   0.403   4.965
  469SOL    HW1 2087   0.909   0.430   5.007
  469SOL    HW2 2088   0.965   0.371   4.879
  470SOL     OW 2089   1.050   0.699   4.151
  470SOL    HW1 2090   1.065   0.691   4.245
  470SOL    HW2 2091   0.969   0.652   4.135
  471SOL     OW 2092   0.081   0.824   4.515
  471SOL    HW1 2093   0.160   0.794   4.560
  471SOL    HW2 2094   0.092   0.919   4.508
  472SOL     OW 2095   0.129   1.855   5.297
  472SOL    HW1 2096   0.137   1.821   5.386
  472SOL    HW2 2097   0.037   1.842   5.274
  473SOL     OW 2098   0.891   0.350   3.922
  473SOL    HW1 2099   0.933   0.408   3.859
  473SOL    HW2 2100   0.895   0.264   3.881
  474SOL     OW 2101   1.711   0.576   5.552
  474SOL    HW1 2102   1.673   0.650   5.506
  474SOL    HW2 2103   1.735   0.514   5.483
  475SOL     OW 2104   1.376   1.142   4.265
  475SOL    HW1 2105   1.455   1.129   4.213
  475SOL    HW2 2106   1.324   1.204   4.215
  476SOL     OW 2107   0.559   0.195   4.606
  476SOL    HW1 2108   0.562   0.216   4.700
  476SOL    HW2 2109   0.548   0.280   4.563
  477SOL     OW 2110   1.007   1.445   4.197
  477SOL    HW1 2111   0.968   1.517   4.148
  477SOL    HW2 2112   0.992   1.467   4.289
  478SOL     OW 2113   0.364   1.812   4.589
  478SOL    HW1 2114   0.429   1.741   4.595
  478SOL    HW2 2115   0.415   1.892   4.605
  479SOL     OW 2116   1.798   1.056   4.592
  479SOL    HW1 2117   1.742   1.043   4.516
  479SOL    HW2 2118   1.737   1.063   4.666
  480SOL     OW 2119   1.227   1.540   5.237
  480SOL    HW1 2120   1.214   1.466   5.297
  480SOL    HW2 2121   1.167   1.523   5.165
  481SOL     OW 2122   0.310   0.956   3.966
  481SOL    HW1 2123   0.396   0.978   3.928
  481SOL    HW2 2124   0.296   0.864   3.940
  482SOL     OW 2125   1.476   0.742   4.454
  482SOL    HW1 2126   1.468   0.698   4.539
  482SOL    HW2 2127   1.554   0.797   4.463
  483SOL     OW 2128   0.465   1.260   5.461
  483SOL    HW1 2129   0.438   1.268   5.369
  483SOL    HW2 2130   0.383   1.265   5.510
  484SOL     OW 2131   1.121   1.777   3.955
  484SOL    HW1 2132   1.048   1.735   4.002
  484SOL    HW2 2133   1.143   1.716   3.885
  485SOL     OW 2134   0.199   0.296   5.222
  485SOL    HW1 2135   0.105   0.318   5.218
  485SOL    HW2 2136   0.206   0.233   5.293
  486SOL     OW 2137   1.628   1.378   3.811
  486SOL    HW1 2138   1.588   1.464   3.795
  486SOL    HW2 2139   1.559   1.315   3.792
  487SOL     OW 2140   0.467   1.739   4.043
  487SOL    HW1 2141   0.508   1.797   4.107
  487SOL    HW2 2142   0.539   1.708   3.988
  488SOL     OW 2143   1.436   0.158   4.129
  488SOL    HW1 2144   1.396   0.093   4.072
  488SOL    HW2 2145   1.514   0.114   4.164
  489SOL     OW 2146   0.251   1.792   4.956
  489SOL    HW1 2147   0.300   1.729   5.010
  489SOL    HW2 2148   0.244   1.750   4.871
  490SOL     OW 2149   0.937   1.698   4.624
  490SOL    HW1 2150   1.016   1.647   4.644
  490SOL    HW2 2151   0.893   1.649   4.555
  491SOL     OW 2152   0.394   0.694   4.197
  491SOL    HW1 2153   0.421   0.604   4.210
  491SOL    HW2 2154   0.302   0.696   4.223
  492SOL     OW 2155   1.531   0.232   5.450
  492SOL    HW1 2156   1.532   0.256   5.543
  492SOL    HW2 2157   1.500   0.142   5.449
  493SOL     OW 2158   0.642   0.136   3.824
  493SOL    HW1 2159   0.675   0.057   3.867
  493SOL    HW2 2160   0.580   0.104   3.759
  494SOL     OW 2161   0.779   0.282   5.487
  494SOL    HW1 2162   0.843   0.212   5.493
  494SOL    HW2 2163   0.717   0.265   5.558
  495SOL     OW 2164   0.876   1.521   4.918
  495SOL    HW1 2165   0.862   1.485   4.830
  495SOL    HW2 2166   0.946   1.467   4.955
  496SOL     OW 2167   1.342   0.587   5.154
  496SOL    HW1 2168   1.372   0.558   5.240
  496SOL    HW2 2169   1.376   0.676   5.146
  497SOL     OW 2170   0.814   1.397   4.661
  497SOL    HW1 2171   0.898   1.385   4.618
  497SOL    HW2 2172   0.750   1.395   4.590
  498SOL     OW 2173   0.929   0.511   4.627
  498SOL    HW1 2174   0.905   0.503   4.534
  498SOL    HW2 2175   0.957   0.423   4.652
  499SOL     OW 2176   0.546   0.057   4.215
  499SOL    HW1 2177   0.471   0.064   4.274
  499SOL    HW2 2178   0.548   0.141   4.169
  500SOL     OW 2179   1.428   1.198   3.765
  500SOL    HW1 2180   1.459   1.122   3.815
  500SOL    HW2 2181   1.342   1.218   3.803
  501SOL     OW 2182   0.333   0.045   3.918
  501SOL    HW1 2183   0.364   0.087   3.838
  501SOL    HW2 2184   0.413   0.026   3.967
  502SOL     OW 2185   0.938   0.246   4.189
  502SOL    HW1 2186   0.910   0.288   4.107
  502SOL    HW2 2187   1.033   0.248   4.185
  503SOL     OW 2188   1.079   0.681   5.184
  503SOL    HW1 2189   1.008   0.617   5.190
  503SOL    HW2 2190   1.159   0.627   5.178
  504SOL     OW 2191   1.224   1.570   4.518
  504SOL    HW1 2192   1.241   1.637   4.452
  504SOL    HW2 2193   1.292   1.582   4.584
  505SOL     OW 2194   0.466   1.149   4.463
  505SOL    HW1 2195   0.393   1.126   4.521
  505SOL    HW2 2196   0.433   1.133   4.375
  506SOL     OW 2197   1.268   1.794   4.330
  506SOL    HW1 2198   1.312   1.856   4.272
  506SOL    HW2 2199   1.204   1.847   4.378
  507SOL     OW 2200   1.025   0.547   3.747
  507SOL    HW1 2201   0.982   0.630   3.728
  507SOL    HW2 2202   1.087   0.568   3.816
  508SOL     OW 2203   0.079   0.570   5.117
  508SOL    HW1 2204   0.168   0.553   5.086
  508SOL    HW2 2205   0.088   0.641   5.180
  509SOL     OW 2206   0.572   0.232   4.884
  509SOL    HW1 2207   0.596   0.140   4.895
  509SOL    HW2 2208   0.481   0.236   4.914
  510SOL     OW 2209   0.872   0.462   4.363
  510SOL    HW1 2210   0.820   0.513   4.301
  510SOL    HW2 2211   0.890   0.380   4.317
  511SOL     OW 2212   0.994   0.042   4.503
  511SOL    HW1 2213   0.962   0.066   4.416
  511SOL    HW2 2214   1.004   3.947   4.499
  512SOL     OW 2215   1.436   1.163   4.582
  512SOL    HW1 2216   1.368   1.096   4.579
  512SOL    HW2 2217   1.461   1.176   4.490
  513SOL     OW 2218   1.467   0.603   4.703
  513SOL    HW1 2219   1.416   0.522   4.709
  513SOL    HW2 2220   1.528   0.599   4.776
  514SOL     OW 2221   1.847   0.820   4.107
  514SOL    HW1 2222   1.902   0.767   4.165
  514SOL    HW2 2223   1.815   0.759   4.041
  515SOL     OW 2224   0.489   1.416   3.886
  515SOL    HW1 2225   0.414   1.384   3.936
  515SOL    HW2 2226   0.468   1.394   3.795
  516SOL     OW 2227   1.669   1.265   4.372
  516SOL    HW1 2228   1.763   1.268   4.384
  516SOL    HW2 2229   1.639   1.354   4.393
  517SOL     OW 2230   1.394   0.573   3.794
  517SOL    HW1 2231   1.333   0.554   3.865
  517SOL    HW2 2232   1.480   0.552   3.831
  518SOL     OW 2233   0.557   0.270   4.045
  518SOL    HW1 2234   0.598   0.229   3.968
  518SOL    HW2 2235   0.529   0.355   4.014
  519SOL     OW 2236   1.753   1.238   5.300
  519SOL    HW1 2237   1.841   1.200   5.295
  519SOL    HW2 2238   1.768   1.328   5.328
  520SOL     OW 2239   1.059   1.353   5.058
  520SOL    HW1 2240   0.985   1.322   5.109
  520SOL    HW2 2241   1.135   1.312   5.099
  521SOL     OW 2242   1.604   1.624   5.372
  521SOL    HW1 2243   1.604   1.660   5.283
  521SOL    HW2 2244   1.689   1.580   5.379
  522SOL     OW 2245   1.127   1.202   4.830
  522SOL    HW1 2246   1.069   1.241   4.896
  522SOL    HW2 2247   1.094   1.234   4.747
  523SOL     OW 2248   1.629   1.099   4.802
  523SOL    HW1 2249   1.625   1.161   4.875
  523SOL    HW2 2250   1.550   1.116   4.751
  524SOL     OW 2251   0.914   0.110   5.126
  524SOL    HW1 2252   0.933   0.086   5.035
  524SOL    HW2 2253   0.994   0.153   5.157
  525SOL     OW 2254   0.984   1.114   5.447
  525SOL    HW1 2255   0.892   1.130   5.467
  525SOL    HW2 2256   0.984   1.037   5.391
  526SOL     OW 2257   0.708   1.060   4.095
  526SOL    HW1 2258   0.694   1.046   4.189
  526SOL    HW2 2259   0.784   1.007   4.073
  527SOL     OW 2260   0.420   0.815   4.976
  527SOL    HW1 2261   0.489   0.822   5.042
  527SOL    HW2 2262   0.385   0.726   4.986
  528SOL     OW 2263   1.267   0.375   4.999
  528SOL    HW1 2264   1.301   0.453   5.044
  528SOL    HW2 2265   1.180   0.402   4.968
  529SOL     OW 2266   0.064   1.579   5.069
  529SOL    HW1 2267   0.066   1.648   5.001
  529SOL    HW2 2268   0.156   1.566   5.092
  530SOL     OW 2269   0.376   1.103   4.210
  530SOL    HW1 2270   0.367   1.180   4.154
  530SOL    HW2 2271   0.373   1.028   4.150
  531SOL     OW 2272   0.556   0.538   4.584
  531SOL    HW1 2273   0.572   0.595   4.509
  531SOL    HW2 2274   0.620   0.566   4.650
  532SOL     OW 2275   1.248   1.348   4.113
  532SOL    HW1 2276   1.303   1.419   4.145
  532SOL    HW2 2277   1.161   1.369   4.147
  533SOL     OW 2278   1.279   1.457   4.871
  533SOL    HW1 2279   1.335   1.460   4.948
  533SOL    HW2 2280   1.224   1.379   4.884
  534SOL     OW 2281   1.579   0.631   4.207
  534SOL    HW1 2282   1.539   0.692   4.269
  534SOL    HW2 2283   1.626   0.687   4.146
  535SOL     OW 2284   0.346   1.525   5.044
  535SOL    HW1 2285   0.336   1.475   4.963
  535SOL    HW2 2286   0.440   1.541   5.051
  536SOL     OW 2287   0.412   0.740   5.325
  536SOL    HW1 2288   0.473   0.787   5.268
  536SOL    HW2 2289   0.453   0.654   5.339
  537SOL     OW 2290   1.599   0.777   5.406
  537SOL    HW1 2291   1.513   0.818   5.398
  537SOL    HW2 2292   1.652   0.819   5.337
  538SOL     OW 2293   1.020   0.122   5.501
  538SOL    HW1 2294   1.056   0.200   5.460
  538SOL    HW2 2295   1.010   0.059   5.429
  539SOL     OW 2296   0.479   0.036   5.491
  539SOL    HW1 2297   0.492   0.039   5.396
  539SOL    HW2 2298   0.420   0.108   5.510
  540SOL     OW 2299   0.584   0.873   4.755
  540SOL    HW1 2300   0.614   0.964   4.754
  540SOL    HW2 2301   0.527   0.867   4.832
  541SOL     OW 2302   1.359   0.859   4.755
  541SOL    HW1 2303   1.277   0.850   4.707
  541SOL    HW2 2304   1.398   0.771   4.751
  542SOL     OW 2305   1.205   0.534   3.988
  542SOL    HW1 2306   1.213   0.455   4.041
  542SOL    HW2 2307   1.162   0.597   4.045
  543SOL     OW 2308   0.313   0.214   4.965
  543SOL    HW1 2309   0.272   0.248   5.045
  543SOL    HW2 2310   0.294   0.121   4.967
  544SOL     OW 2311   0.057   1.305   5.004
  544SOL    HW1 2312   0.090   1.265   5.085
  544SOL    HW2 2313   0.050   1.398   5.024
  545SOL     OW 2314   0.727   0.634   4.781
  545SOL    HW1 2315   0.799   0.617   4.721
  545SOL    HW2 2316   0.698   0.723   4.758
  546SOL     OW 2317   1.734   0.958   5.576
  546SOL    HW1 2318   1.687   0.901   5.516
  546SOL    HW2 2319   1.674   0.971   5.649
  547SOL     OW 2320   0.325   0.056   4.372
  547SOL    HW1 2321   0.297   0.147   4.373
  547SOL    HW2 2322   0.285   0.017   4.450
  548SOL     OW 2323   1.600   0.386   4.107
  548SOL    HW1 2324   1.577   0.319   4.171
  548SOL    HW2 2325   1.581   0.469   4.151
  549SOL     OW 2326   1.028   0.760   4.685
  549SOL    HW1 2327   1.025   0.777   4.779
  549SOL    HW2 2328   1.001   0.668   4.677
  550SOL     OW 2329   0.982   1.566   5.440
  550SOL    HW1 2330   0.967   1.610   5.356
  550SOL    HW2 2331   1.026   1.484   5.416
  551SOL     OW 2332   1.854   1.506   5.329
  551SOL    HW1 2333   1.871   1.535   5.239
  551SOL    HW2 2334   1.937   1.521   5.375
  552SOL     OW 2335   0.351   0.920   5.525
  552SOL    HW1 2336   0.430   0.940   5.575
  552SOL    HW2 2337   0.379   0.854   5.461
  553SOL     OW 2338   1.510   0.276   3.860
  553SOL    HW1 2339   1.435   0.219   3.873
  553SOL    HW2 2340   1.524   0.317   3.945
  554SOL     OW 2341   1.293   0.827   3.755
  554SOL    HW1 2342   1.335   0.741   3.758
  554SOL    HW2 2343   1.324   0.866   3.674
  555SOL     OW 2344   1.064   1.335   4.577
  555SOL    HW1 2345   1.068   1.263   4.515
  555SOL    HW2 2346   1.127   1.399   4.543
  556SOL     OW 2347   0.313   0.806   4.675
  556SOL    HW1 2348   0.407   0.823   4.669
  556SOL    HW2 2349   0.307   0.716   4.707
  557SOL     OW 2350   0.337   0.526   4.737
  557SOL    HW1 2351   0.298   0.441   4.719
  557SOL    HW2 2352   0.413   0.531   4.678
  558SOL     OW 2353   1.134   0.383   5.416
  558SOL    HW1 2354   1.087   0.438   5.478
  558SOL    HW2 2355   1.221   0.421   5.411
  559SOL     OW 2356   1.151   0.224   5.205
  559SOL    HW1 2357   1.143   0.279   5.283
  559SOL    HW2 2358   1.173   0.285   5.135
  560SOL     OW 2359   3.999   1.320   3.906
  560SOL    HW1 2360   3.905   1.336   3.910
  560SOL    HW2 2361   0.009   1.227   3.926
  561SOL     OW 2362   0.076   1.801   4.614
  561SOL    HW1 2363   0.077   1.705   4.623
  561SOL    HW2 2364   0.169   1.826   4.617
  562SOL     OW 2365   0.504   1.570   4.634
  562SOL    HW1 2366   0.573   1.631   4.659
  562SOL    HW2 2367   0.547   1.506   4.577
  563SOL     OW 2368   0.985   0.792   4.951
  563SOL    HW1 2369   1.038   0.769   5.027
  563SOL    HW2 2370   0.899   0.756   4.970
  564SOL     OW 2371   0.036   0.566   4.837
  564SOL    HW1 2372   0.104   0.519   4.787
  564SOL    HW2 2373   0.061   0.553   4.929
  565SOL     OW 2374   0.209   0.516   5.445
  565SOL    HW1 2375   0.259   0.481   5.372
  565SOL    HW2 2376   0.158   0.588   5.407
  566SOL     OW 2377   1.376   0.940   5.383
  566SOL    HW1 2378   1.398   1.033   5.381
  566SOL    HW2 2379   1.374   0.915   5.290
  567SOL     OW 2380   0.817   0.572   4.081
  567SOL    HW1 2381   0.822   0.494   4.024
  567SOL    HW2 2382   0.742   0.621   4.049
  568SOL     OW 2383   1.642   0.601   4.911
  568SOL    HW1 2384   1.632   0.541   4.985
  568SOL    HW2 2385   1.729   0.583   4.877
  569SOL     OW 2386   0.297   1.546   5.455
  569SOL    HW1 2387   0.246   1.616   5.497
  569SOL    HW2 2388   0.262   1.465   5.493
  570SOL     OW 2389   0.699   0.457   4.985
  570SOL    HW1 2390   0.653   0.378   4.958
  570SOL    HW2 2391   0.694   0.516   4.909
  571SOL     OW 2392   0.927   1.679   5.191
  571SOL    HW1 2393   0.903   1.646   5.105
  571SOL    HW2 2394   0.926   1.774   5.183
  572SOL     OW 2395   0.459   0.492   3.918
  572SOL    HW1 2396   0.523   0.561   3.935
  572SOL    HW2 2397   0.377   0.539   3.898
  573SOL     OW 2398   0.157   1.136   5.196
  573SOL    HW1 2399   0.161   1.084   5.277
  573SOL    HW2 2400   0.172   1.073   5.126
  574SOL     OW 2401   1.327   1.048   4.948
  574SOL    HW1 2402   1.351   0.985   4.880
  574SOL    HW2 2403   1.256   1.099   4.909
  575SOL     OW 2404   1.310   0.856   4.031
  575SOL    HW1 2405   1.234   0.827   4.080
  575SOL    HW2 2406   1.286   0.843   3.939
  576SOL     OW 2407   1.753   1.743   4.867
  576SOL    HW1 2408   1.824   1.768   4.809
  576SOL    HW2 2409   1.737   1.651   4.848
  577SOL     OW 2410   1.242   1.733   4.838
  577SOL    HW1 2411   1.325   1.753   4.793
  577SOL    HW2 2412   1.247   1.640   4.856
  578SOL     OW 2413   0.076   1.218   4.751
  578SOL    HW1 2414   0.082   1.243   4.843
  578SOL    HW2 2415   3.983   1.224   4.730
  579SOL     OW 2416   0.679   1.665   5.451
  579SOL    HW1 2417   0.624   1.743   5.446
  579SOL    HW2 2418   0.743   1.675   5.381
  580SOL     OW 2419   1.710   0.128   4.209
  580SOL    HW1 2420   1.790   0.133   4.158
  580SOL    HW2 2421   1.701   0.035   4.232
  581SOL     OW 2422   1.389   1.567   4.208
  581SOL    HW1 2423   1.447   1.599   4.139
  581SOL    HW2 2424   1.341   1.645   4.237
  582SOL     OW 2425   0.172   1.767   5.552
  582SOL    HW1 2426   0.112   1.720   5.610
  582SOL    HW2 2427   0.214   1.832   5.610
  583SOL     OW 2428   1.277   0.925   4.395
  583SOL    HW1 2429   1.351   0.865   4.402
  583SOL    HW2 2430   1.311   0.998   4.343
  584SOL     OW 2431   0.816   1.272   5.155
  584SOL    HW1 2432   0.789   1.312   5.238
  584SOL    HW2 2433   0.745   1.292   5.094
  585SOL     OW 2434   0.671   1.618   3.879
  585SOL    HW1 2435   0.681   1.629   3.785
  585SOL    HW2 2436   0.617   1.539   3.889
  586SOL     OW 2437   1.628   1.728   5.114
  586SOL    HW1 2438   1.675   1.735   5.031
  586SOL    HW2 2439   1.618   1.818   5.143
  587SOL     OW 2440   1.838   0.176   4.692
  587SOL    HW1 2441   1.869   0.102   4.639
  587SOL    HW2 2442   1.751   0.194   4.658
  588SOL     OW 2443   0.272   0.324   4.439
  588SOL    HW1 2444   0.187   0.359   4.415
  588SOL    HW2 2445   0.264   0.306   4.533
  589SOL     OW 2446   1.206   1.607   3.755
  589SOL    HW1 2447   1.197   1.515   3.782
  589SOL    HW2 2448   1.141   1.618   3.685
  590SOL     OW 2449   0.824   1.005   5.096
  590SOL    HW1 2450   0.867   1.002   5.011
  590SOL    HW2 2451   0.824   1.098   5.119
  591SOL     OW 2452   0.915   0.910   4.013
  591SOL    HW1 2453   0.977   0.942   3.948
  591SOL    HW2 2454   0.962   0.840   4.059
  592SOL     OW 2455   1.491   1.623   3.765
  592SOL    HW1 2456   1.396   1.619   3.751
  592SOL    HW2 2457   1.528   1.630   3.677
  593SOL     OW 2458   0.373   1.302   5.215
  593SOL    HW1 2459   0.358   1.383   5.166
  593SOL    HW2 2460   0.296   1.248   5.198
  594SOL     OW 2461   1.610   1.283   5.005
  594SOL    HW1 2462   1.671   1.274   5.078
  594SOL    HW2 2463   1.551   1.353   5.031
  595SOL     OW 2464   1.050   1.106   4.430
  595SOL    HW1 2465   0.980   1.055   4.469
  595SOL    HW2 2466   1.112   1.041   4.397
  596SOL     OW 2467   1.015   0.247   4.691
  596SOL    HW1 2468   1.004   0.198   4.610
  596SOL    HW2 2469   1.008   0.182   4.761
  597SOL     OW 2470   0.603   1.489   4.206
  597SOL    HW1 2471   0.645   1.438   4.137
  597SOL    HW2 2472   0.534   1.538   4.162
  598SOL     OW 2473   1.719   0.391   5.099
  598SOL    HW1 2474   1.790   0.455   5.101
  598SOL    HW2 2475   1.752   0.320   5.045
  599SOL     OW 2476   0.252   1.342   4.015
  599SOL    HW1 2477   0.160   1.353   3.994
  599SOL    HW2 2478   0.262   1.380   4.102
  600SOL     OW 2479   0.105   1.001   5.442
  600SOL    HW1 2480   0.044   0.990   5.515
  600SOL    HW2 2481   0.191   0.980   5.479
  601SOL     OW 2482   0.693   0.243   5.220
  601SOL    HW1 2483   0.763   0.191   5.180
  601SOL    HW2 2484   0.719   0.250   5.312
  602SOL     OW 2485   0.088   0.326   3.752
  602SOL    HW1 2486   3.992   0.321   3.747
  602SOL    HW2 2487   0.109   0.408   3.708
  603SOL     OW 2488   1.430   0.857   5.124
  603SOL    HW1 2489   1.382   0.919   5.069
  603SOL    HW2 2490   1.520   0.860   5.092
  604SOL     OW 2491   0.039   0.162   4.007
  604SOL    HW1 2492   0.037   0.243   3.957
  604SOL    HW2 2493   0.120   0.167   4.058
  605SOL     OW 2494   1.179   1.341   3.841
  605SOL    HW1 2495   1.088   1.310   3.844
  605SOL    HW2 2496   1.208   1.340   3.932
  606SOL     OW 2497   0.619   0.830   5.159
  606SOL    HW1 2498   0.675   0.906   5.143
  606SOL    HW2 2499   0.679   0.756   5.167
  607SOL     OW 2500   1.489   1.778   4.702
  607SOL    HW1 2501   1.513   1.841   4.633
  607SOL    HW2 2502   1.570   1.762   4.750
  608SOL     OW 2503   0.716   0.564   5.432
  608SOL    HW1 2504   0.757   0.627   5.491
  608SOL    HW2 2505   0.749   0.479   5.460
  609SOL     OW 2506   1.470   1.201   5.356
  609SOL    HW1 2507   1.458   1.215   5.450
  609SOL    HW2 2508   1.564   1.215   5.341
  610SOL     OW 2509   0.381   1.742   5.284
  610SOL    HW1 2510   0.294   1.779   5.270
  610SOL    HW2 2511   0.365   1.660   5.331
  611SOL     OW 2512   1.670   0.882   4.980
  611SOL    HW1 2513   1.664   0.796   4.936
  611SOL    HW2 2514   1.662   0.945   4.909
  612SOL     OW 2515   1.225   0.333   4.170
  612SOL    HW1 2516   1.291   0.265   4.162
  612SOL    HW2 2517   1.247   0.378   4.252
  613SOL     OW 2518   0.592   0.740   4.392
  613SOL    HW1 2519   0.629   0.827   4.375
  613SOL    HW2 2520   0.522   0.731   4.328
  614SOL     OW 2521   1.755   0.380   5.367
  614SOL    HW1 2522   1.737   0.385   5.273
  614SOL    HW2 2523   1.696   0.311   5.399
  615SOL     OW 2524   1.742   0.934   5.237
  615SOL    HW1 2525   1.744   1.029   5.250
  615SOL    HW2 2526   1.728   0.922   5.143
  616SOL     OW 2527   0.862   1.368   3.756
  616SOL    HW1 2528   0.823   1.395   3.839
  616SOL    HW2 2529   0.881   1.450   3.710
  617SOL     OW 2530   0.660   1.792   4.669
  617SOL    HW1 2531   0.639   1.882   4.646
  617SOL    HW2 2532   0.756   1.787   4.662
  618SOL     OW 2533   0.867   0.965   4.579
  618SOL    HW1 2534   0.917   0.895   4.619
  618SOL    HW2 2535   0.833   1.016   4.653
  619SOL     OW 2536   1.079   0.988   3.813
  619SOL    HW1 2537   1.058   1.039   3.734
  619SOL    HW2 2538   1.155   0.935   3.787
  620SOL     OW 2539   1.849   1.537   4.551
  620SOL    HW1 2540   1.762   1.536   4.510
  620SOL    HW2 2541   1.840   1.482   4.628
  621SOL     OW 2542   0.223   1.303   5.579
  621SOL    HW1 2543   0.153   1.243   5.554
  621SOL    HW2 2544   0.210   1.317   5.673
  622SOL     OW 2545   0.113   1.273   4.440
  622SOL    HW1 2546   0.120   1.222   4.520
  622SOL    HW2 2547   0.112   1.208   4.370
  623SOL     OW 2548   0.680   1.402   5.351
  623SOL    HW1 2549   0.599   1.359   5.381
  623SOL    HW2 2550   0.675   1.490   5.388
  624SOL     OW 2551   1.813   0.184   4.963
  624SOL    HW1 2552   1.816   0.089   4.977
  624SOL    HW2 2553   1.827   0.195   4.869
  625SOL     OW 2554   0.441   0.436   4.254
  625SOL    HW1 2555   0.453   0.361   4.195
  625SOL    HW2 2556   0.386   0.402   4.324
  626SOL     OW 2557   1.703   1.484   4.817
  626SOL    HW1 2558   1.620   1.462   4.776
  626SOL    HW2 2559   1.715   1.417   4.885
  627SOL     OW 2560   0.330   0.554   5.015
  627SOL    HW1 2561   0.386   0.498   5.068
  627SOL    HW2 2562   0.346   0.526   4.925
  628SOL     OW 2563   0.826   1.578   4.402
  628SOL    HW1 2564   0.817   1.629   4.322
  628SOL    HW2 2565   0.749   1.522   4.403
  629SOL     OW 2566   1.461   0.251   4.835
  629SOL    HW1 2567   1.477   0.164   4.872
  629SOL    HW2 2568   1.403   0.293   4.899
  630SOL     OW 2569   1.006   0.030   4.872
  630SOL    HW1 2570   0.931   3.979   4.841
  630SOL    HW2 2571   1.077   3.966   4.879
  631SOL     OW 2572   0.771   1.332   4.037
  631SOL    HW1 2573   0.739   1.242   4.043
  631SOL    HW2 2574   0.854   1.332   4.086
  632SOL     OW 2575   0.620   1.558   5.008
  632SOL    HW1 2576   0.623   1.639   5.059
  632SOL    HW2 2577   0.707   1.550   4.971
  633SOL     OW 2578   1.316   0.074   3.887
  633SOL    HW1 2579   1.336   0.005   3.824
  633SOL    HW2 2580   1.231   0.049   3.924
  634SOL     OW 2581   1.286   0.458   4.411
  634SOL    HW1 2582   1.237   0.540   4.409
  634SOL    HW2 2583   1.290   0.436   4.504
  635SOL     OW 2584   1.588   0.211   4.591
  635SOL    HW1 2585   1.538   0.232   4.670
  635SOL    HW2 2586   1.588   0.291   4.539
  636SOL     OW 2587   0.045   1.052   3.964
  636SOL    HW1 2588   0.139   1.035   3.956
  636SOL    HW2 2589   0.010   0.972   4.004
  637SOL     OW 2590   0.883   1.651   4.067
  637SOL    HW1 2591   0.811   1.634   4.007
  637SOL    HW2 2592   0.854   1.727   4.118
  638SOL     OW 2593   0.232   0.624   5.705
  638SOL    HW1 2594   0.139   0.630   5.727
  638SOL    HW2 2595   0.234   0.596   5.614
  639SOL     OW 2596   0.225   0.286   6.570
  639SOL    HW1 2597   0.249   0.250   6.655
  639SOL    HW2 2598   0.132   0.268   6.561
  640SOL     OW 2599   0.017   0.388   6.220
  640SOL    HW1 2600   3.930   0.397   6.257
  640SOL    HW2 2601   0.025   0.294   6.200
  641SOL     OW 2602   0.574   1.280   6.768
  641SOL    HW1 2603   0.488   1.287   6.728
  641SOL    HW2 2604   0.592   1.368   6.801
  642SOL     OW 2605   1.131   0.697   6.288
  642SOL    HW1 2606   1.178   0.779   6.272
  642SOL    HW2 2607   1.085   0.713   6.370
  643SOL     OW 2608   1.759   0.617   5.814
  643SOL    HW1 2609   1.742   0.609   5.721
  643SOL    HW2 2610   1.751   0.528   5.848
  644SOL     OW 2611   0.754   1.141   6.622
  644SOL    HW1 2612   0.689   1.173   6.683
  644SOL    HW2 2613   0.789   1.219   6.580
  645SOL     OW 2614   0.864   0.778   7.407
  645SOL    HW1 2615   0.856   0.850   7.469
  645SOL    HW2 2616   0.888   0.820   7.324
  646SOL     OW 2617   0.686   1.006   6.234
  646SOL    HW1 2618   0.751   0.992   6.303
  646SOL    HW2 2619   0.616   1.056   6.277
  647SOL     OW 2620   0.707   1.150   7.398
  647SOL    HW1 2621   0.756   1.229   7.423
  647SOL    HW2 2622   0.625   1.184   7.362
  648SOL     OW 2623   0.350   1.404   6.665
  648SOL    HW1 2624   0.269   1.386   6.617
  648SOL    HW2 2625   0.400   1.462   6.607
  649SOL     OW 2626   0.452   0.407   7.086
  649SOL    HW1 2627   0.533   0.355   7.081
  649SOL    HW2 2628   0.382   0.342   7.087
  650SOL     OW 2629   1.613   0.451   6.321
  650SOL    HW1 2630   1.540   0.482   6.268
  650SOL    HW2 2631   1.635   0.525   6.377
  651SOL     OW 2632   0.223   1.717   6.046
  651SOL    HW1 2633   0.241   1.792   6.103
  651SOL    HW2 2634   0.301   1.710   5.990
  652SOL     OW 2635   1.134   1.340   7.285
  652SOL    HW1 2636   1.180   1.328   7.368
  652SOL    HW2 2637   1.082   1.260   7.274
  653SOL     OW 2638   0.245   1.447   6.125
  653SOL    HW1 2639   0.214   1.537   6.113
  653SOL    HW2 2640   0.177   1.405   6.178
  654SOL     OW 2641   0.245   1.070   6.470
  654SOL    HW1 2642   0.264   0.986   6.513
  654SOL    HW2 2643   0.194   1.118   6.535
  655SOL     OW 2644   0.613   1.793   7.018
  655SOL    HW1 2645   0.531   1.771   7.061
  655SOL    HW2 2646   0.630   1.884   7.042
  656SOL     OW 2647   0.583   0.983   5.721
  656SOL    HW1 2648   0.628   1.031   5.652
  656SOL    HW2 2649   0.626   1.011   5.802
  657SOL     OW 2650   1.579   0.136   7.044
  657SOL    HW1 2651   1.602   0.209   6.988
  657SOL    HW2 2652   1.555   0.176   7.127
  658SOL     OW 2653   0.138   0.649   6.155
  658SOL    HW1 2654   0.094   0.564   6.161
  658SOL    HW2 2655   0.102   0.699   6.228
  659SOL     OW 2656   0.043   1.591   5.726
  659SOL    HW1 2657   0.032   1.498   5.747
  659SOL    HW2 2658   3.965   1.633   5.761
  660SOL     OW 2659   1.690   0.921   6.222
  660SOL    HW1 2660   1.775   0.880   6.209
  660SOL    HW2 2661   1.671   0.965   6.139
  661SOL     OW 2662   1.652   1.111   6.013
  661SOL    HW1 2663   1.735   1.108   5.966
  661SOL    HW2 2664   1.667   1.175   6.083
  662SOL     OW 2665   0.134   0.753   7.177
  662SOL    HW1 2666   0.229   0.747   7.180
  662SOL    HW2 2667   0.115   0.846   7.192
  663SOL     OW 2668   0.610   1.384   6.321
  663SOL    HW1 2669   0.565   1.300   6.330
  663SOL    HW2 2670   0.595   1.410   6.230
  664SOL     OW 2671   1.279   1.224   7.009
  664SOL    HW1 2672   1.316   1.156   6.952
  664SOL    HW2 2673   1.330   1.217   7.090
  665SOL     OW 2674   0.816   0.001   6.100
  665SOL    HW1 2675   0.861   0.083   6.079
  665SOL    HW2 2676   0.723   0.025   6.102
  666SOL     OW 2677   0.186   0.954   6.861
  666SOL    HW1 2678   0.274   0.920   6.847
  666SOL    HW2 2679   0.132   0.908   6.797
  667SOL     OW 2680   1.531   0.993   5.782
  667SOL    HW1 2681   1.461   0.935   5.814
  667SOL    HW2 2682   1.573   1.026   5.862
  668SOL     OW 2683   0.340   0.254   7.410
  668SOL    HW1 2684   0.385   0.337   7.397
  668SOL    HW2 2685   0.250   0.278   7.432
  669SOL     OW 2686   0.595   0.720   5.849
  669SOL    HW1 2687   0.603   0.802   5.801
  669SOL    HW2 2688   0.533   0.738   5.919
  670SOL     OW 2689   1.276   0.363   6.526
  670SOL    HW1 2690   1.189   0.324   6.531
  670SOL    HW2 2691   1.333   0.301   6.573
  671SOL     OW 2692   0.796   0.615   7.041
  671SOL    HW1 2693   0.765   0.592   7.128
  671SOL    HW2 2694   0.753   0.552   6.983
  672SOL     OW 2695   1.392   0.476   7.263
  672SOL    HW1 2696   1.396   0.521   7.348
  672SOL    HW2 2697   1.454   0.403   7.272
  673SOL     OW 2698   0.954   0.887   7.167
  673SOL    HW1 2699   1.010   0.818   7.132
  673SOL    HW2 2700   0.909   0.922   7.091
  674SOL     OW 2701   0.991   0.402   6.828
  674SOL    HW1 2702   0.909   0.430   6.869
  674SOL    HW2 2703   0.964   0.372   6.741
  675SOL     OW 2704   1.050   0.699   6.012
  675SOL    HW1 2705   1.065   0.692   6.107
  675SOL    HW2 2706   0.968   0.652   5.997
  676SOL     OW 2707   0.081   0.824   6.377
  676SOL    HW1 2708   0.160   0.794   6.422
  676SOL    HW2 2709   0.092   0.919   6.370
  677SOL     OW 2710   0.129   1.855   7.159
  677SOL    HW1 2711   0.137   1.822   7.248
  677SOL    HW2 2712   0.037   1.843   7.136
  678SOL     OW 2713   0.891   0.350   5.784
  678SOL    HW1 2714   0.933   0.409   5.721
  678SOL    HW2 2715   0.895   0.264   5.742
  679SOL     OW 2716   1.711   0.575   7.414
  679SOL    HW1 2717   1.673   0.650   7.369
  679SOL    HW2 2718   1.735   0.515   7.344
  680SOL     OW 2719   1.378   1.142   6.120
  680SOL    HW1 2720   1.453   1.123   6.063
  680SOL    HW2 2721   1.323   1.201   6.068
  681SOL     OW 2722   0.558   0.195   6.468
  681SOL    HW1 2723   0.562   0.216   6.562
  681SOL    HW2 2724   0.548   0.280   6.425
  682SOL     OW 2725   1.012   1.450   6.064
  682SOL    HW1 2726   0.972   1.518   6.010
  682SOL    HW2 2727   0.976   1.465   6.152
  683SOL     OW 2728   0.365   1.812   6.451
  683SOL    HW1 2729   0.429   1.741   6.457
  683SOL    HW2 2730   0.417   1.891   6.467
  684SOL     OW 2731   1.805   1.032   6.453
  684SOL    HW1 2732   1.744   1.015   6.381
  684SOL    HW2 2733   1.766   1.106   6.500
  685SOL     OW 2734   0.311   0.956   5.828
  685SOL    HW1 2735   0.396   0.978   5.790
  685SOL    HW2 2736   0.296   0.864   5.802
  686SOL     OW 2737   1.476   0.742   6.316
  686SOL    HW1 2738   1.466   0.697   6.400
  686SOL    HW2 2739   1.552   0.799   6.328
  687SOL     OW 2740   0.464   1.260   7.323
  687SOL    HW1 2741   0.438   1.268   7.232
  687SOL    HW2 2742   0.382   1.266   7.372
  688SOL     OW 2743   1.118   1.780   5.812
  688SOL    HW1 2744   1.047   1.737   5.861
  688SOL    HW2 2745   1.142   1.717   5.744
  689SOL     OW 2746   0.199   0.295   7.083
  689SOL    HW1 2747   0.106   0.318   7.080
  689SOL    HW2 2748   0.206   0.233   7.155
  690SOL     OW 2749   1.620   1.382   5.677
  690SOL    HW1 2750   1.582   1.468   5.659
  690SOL    HW2 2751   1.551   1.320   5.652
  691SOL     OW 2752   0.467   1.740   5.904
  691SOL    HW1 2753   0.508   1.797   5.969
  691SOL    HW2 2754   0.540   1.708   5.851
  692SOL     OW 2755   1.436   0.158   5.992
  692SOL    HW1 2756   1.396   0.094   5.933
  692SOL    HW2 2757   1.515   0.114   6.025
  693SOL     OW 2758   0.252   1.792   6.818
  693SOL    HW1 2759   0.300   1.729   6.872
  693SOL    HW2 2760   0.244   1.749   6.733
  694SOL     OW 2761   0.917   1.693   6.489
  694SOL    HW1 2762   1.004   1.660   6.511
  694SOL    HW2 2763   0.892   1.646   6.410
  695SOL     OW 2764   0.394   0.694   6.059
  695SOL    HW1 2765   0.421   0.604   6.072
  695SOL    HW2 2766   0.302   0.696   6.085
  696SOL     OW 2767   1.532   0.232   7.313
  696SOL    HW1 2768   1.532   0.256   7.405
  696SOL    HW2 2769   1.499   0.142   7.311
  697SOL     OW 2770   0.642   0.136   5.686
  697SOL    HW1 2771   0.675   0.057   5.729
  697SOL    HW2 2772   0.580   0.103   5.621
  698SOL     OW 2773   0.779   0.282   7.349
  698SOL    HW1 2774   0.843   0.211   7.355
  698SOL    HW2 2775   0.717   0.265   7.420
  699SOL     OW 2776   0.876   1.519   6.785
  699SOL    HW1 2777   0.861   1.489   6.695
  699SOL    HW2 2778   0.945   1.463   6.819
  700SOL     OW 2779   1.342   0.586   7.016
  700SOL    HW1 2780   1.372   0.559   7.102
  700SOL    HW2 2781   1.375   0.676   7.007
  701SOL     OW 2782   0.804   1.396   6.525
  701SOL    HW1 2783   0.889   1.387   6.482
  701SOL    HW2 2784   0.741   1.394   6.454
  702SOL     OW 2785   0.928   0.510   6.489
  702SOL    HW1 2786   0.905   0.503   6.397
  702SOL    HW2 2787   0.957   0.422   6.513
  703SOL     OW 2788   0.546   0.056   6.077
  703SOL    HW1 2789   0.471   0.064   6.136
  703SOL    HW2 2790   0.548   0.141   6.031
  704SOL     OW 2791   1.426   1.197   5.625
  704SOL    HW1 2792   1.458   1.122   5.675
  704SOL    HW2 2793   1.340   1.216   5.663
  705SOL     OW 2794   0.333   0.044   5.780
  705SOL    HW1 2795   0.363   0.087   5.700
  705SOL    HW2 2796   0.413   0.026   5.829
  706SOL     OW 2797   0.938   0.246   6.050
  706SOL    HW1 2798   0.910   0.288   5.969
  706SOL    HW2 2799   1.033   0.248   6.047
  707SOL     OW 2800   1.080   0.680   7.046
  707SOL    HW1 2801   1.008   0.617   7.052
  707SOL    HW2 2802   1.159   0.627   7.039
  708SOL     OW 2803   0.465   1.149   6.325
  708SOL    HW1 2804   0.393   1.126   6.383
  708SOL    HW2 2805   0.432   1.133   6.237
  709SOL     OW 2806   1.025   0.547   5.609
  709SOL    HW1 2807   0.982   0.630   5.590
  709SOL    HW2 2808   1.087   0.568   5.678
  710SOL     OW 2809   0.079   0.570   6.979
  710SOL    HW1 2810   0.167   0.553   6.948
  710SOL    HW2 2811   0.089   0.641   7.042
  711SOL     OW 2812   0.572   0.231   6.746
  711SOL    HW1 2813   0.595   0.139   6.756
  711SOL    HW2 2814   0.481   0.236   6.776
  712SOL     OW 2815   0.872   0.461   6.226
  712SOL    HW1 2816   0.820   0.513   6.164
  712SOL    HW2 2817   0.889   0.379   6.179
  713SOL     OW 2818   0.994   0.042   6.365
  713SOL    HW1 2819   0.962   0.066   6.278
  713SOL    HW2 2820   1.005   3.947   6.361
  714SOL     OW 2821   1.467   0.601   6.564
  714SOL    HW1 2822   1.417   0.520   6.571
  714SOL    HW2 2823   1.527   0.598   6.638
  715SOL     OW 2824   1.845   0.820   5.970
  715SOL    HW1 2825   1.901   0.767   6.027
  715SOL    HW2 2826   1.814   0.758   5.904
  716SOL     OW 2827   0.489   1.416   5.748
  716SOL    HW1 2828   0.414   1.384   5.798
  716SOL    HW2 2829   0.468   1.394   5.657
  717SOL     OW 2830   1.394   0.573   5.656
  717SOL    HW1 2831   1.333   0.554   5.727
  717SOL    HW2 2832   1.480   0.552   5.693
  718SOL     OW 2833   0.557   0.269   5.907
  718SOL    HW1 2834   0.598   0.229   5.830
  718SOL    HW2 2835   0.529   0.355   5.876
  719SOL     OW 2836   1.058   1.347   6.908
  719SOL    HW1 2837   0.986   1.321   6.965
  719SOL    HW2 2838   1.137   1.317   6.953
  720SOL     OW 2839   1.119   1.190   6.693
  720SOL    HW1 2840   1.092   1.246   6.765
  720SOL    HW2 2841   1.076   1.227   6.616
  721SOL     OW 2842   0.914   0.109   6.989
  721SOL    HW1 2843   0.933   0.087   6.897
  721SOL    HW2 2844   0.994   0.153   7.019
  722SOL     OW 2845   0.983   1.112   7.311
  722SOL    HW1 2846   0.891   1.130   7.328
  722SOL    HW2 2847   0.983   1.036   7.253
  723SOL     OW 2848   0.707   1.060   5.957
  723SOL    HW1 2849   0.694   1.046   6.051
  723SOL    HW2 2850   0.784   1.007   5.936
  724SOL     OW 2851   0.420   0.815   6.838
  724SOL    HW1 2852   0.489   0.822   6.904
  724SOL    HW2 2853   0.385   0.726   6.849
  725SOL     OW 2854   1.267   0.375   6.861
  725SOL    HW1 2855   1.301   0.453   6.906
  725SOL    HW2 2856   1.180   0.402   6.830
  726SOL     OW 2857   0.064   1.579   6.931
  726SOL    HW1 2858   0.066   1.647   6.863
  726SOL    HW2 2859   0.156   1.566   6.954
  727SOL     OW 2860   0.375   1.102   6.072
  727SOL    HW1 2861   0.367   1.180   6.016
  727SOL    HW2 2862   0.373   1.028   6.011
  728SOL     OW 2863   0.556   0.538   6.446
  728SOL    HW1 2864   0.572   0.595   6.371
  728SOL    HW2 2865   0.620   0.566   6.511
  729SOL     OW 2866   1.247   1.349   5.974
  729SOL    HW1 2867   1.301   1.425   5.996
  729SOL    HW2 2868   1.161   1.370   6.010
  730SOL     OW 2869   1.579   0.631   6.070
  730SOL    HW1 2870   1.537   0.691   6.131
  730SOL    HW2 2871   1.626   0.687   6.009
  731SOL     OW 2872   0.346   1.525   6.906
  731SOL    HW1 2873   0.336   1.475   6.825
  731SOL    HW2 2874   0.440   1.541   6.913
  732SOL     OW 2875   0.412   0.740   7.187
  732SOL    HW1 2876   0.473   0.787   7.130
  732SOL    HW2 2877   0.454   0.655   7.201
  733SOL     OW 2878   1.597   0.776   7.268
  733SOL    HW1 2879   1.510   0.816   7.262
  733SOL    HW2 2880   1.649   0.820   7.201
  734SOL     OW 2881   1.021   0.121   7.363
  734SOL    HW1 2882   1.056   0.200   7.322
  734SOL    HW2 2883   1.009   0.059   7.291
  735SOL     OW 2884   0.479   0.036   7.353
  735SOL    HW1 2885   0.492   0.039   7.258
  735SOL    HW2 2886   0.420   0.108   7.372
  736SOL     OW 2887   0.583   0.874   6.616
  736SOL    HW1 2888   0.616   0.964   6.616
  736SOL    HW2 2889   0.528   0.869   6.694
  737SOL     OW 2890   1.365   0.855   6.620
  737SOL    HW1 2891   1.285   0.858   6.567
  737SOL    HW2 2892   1.396   0.765   6.612
  738SOL     OW 2893   1.205   0.534   5.850
  738SOL    HW1 2894   1.213   0.455   5.903
  738SOL    HW2 2895   1.161   0.597   5.907
  739SOL     OW 2896   0.313   0.214   6.827
  739SOL    HW1 2897   0.272   0.248   6.907
  739SOL    HW2 2898   0.294   0.120   6.829
  740SOL     OW 2899   0.054   1.305   6.866
  740SOL    HW1 2900   0.089   1.265   6.947
  740SOL    HW2 2901   0.050   1.398   6.886
  741SOL     OW 2902   0.726   0.634   6.643
  741SOL    HW1 2903   0.799   0.617   6.584
  741SOL    HW2 2904   0.698   0.723   6.621
  742SOL     OW 2905   1.731   0.957   7.441
  742SOL    HW1 2906   1.682   0.901   7.380
  742SOL    HW2 2907   1.670   0.974   7.513
  743SOL     OW 2908   0.325   0.056   6.234
  743SOL    HW1 2909   0.297   0.147   6.235
  743SOL    HW2 2910   0.285   0.017   6.312
  744SOL     OW 2911   1.600   0.386   5.969
  744SOL    HW1 2912   1.576   0.319   6.033
  744SOL    HW2 2913   1.581   0.469   6.013
  745SOL     OW 2914   1.027   0.759   6.546
  745SOL    HW1 2915   1.026   0.777   6.640
  745SOL    HW2 2916   1.000   0.668   6.539
  746SOL     OW 2917   0.974   1.558   7.279
  746SOL    HW1 2918   0.962   1.601   7.195
  746SOL    HW2 2919   1.025   1.479   7.260
  747SOL     OW 2920   0.351   0.919   7.387
  747SOL    HW1 2921   0.430   0.940   7.437
  747SOL    HW2 2922   0.379   0.854   7.324
  748SOL     OW 2923   1.511   0.276   5.722
  748SOL    HW1 2924   1.435   0.219   5.735
  748SOL    HW2 2925   1.524   0.317   5.807
  749SOL     OW 2926   1.292   0.827   5.617
  749SOL    HW1 2927   1.334   0.741   5.620
  749SOL    HW2 2928   1.323   0.866   5.536
  750SOL     OW 2929   1.043   1.338   6.424
  750SOL    HW1 2930   1.045   1.258   6.372
  750SOL    HW2 2931   1.123   1.384   6.400
  751SOL     OW 2932   0.314   0.806   6.537
  751SOL    HW1 2933   0.408   0.824   6.532
  751SOL    HW2 2934   0.308   0.716   6.569
  752SOL     OW 2935   0.337   0.526   6.599
  752SOL    HW1 2936   0.298   0.441   6.581
  752SOL    HW2 2937   0.413   0.531   6.540
  753SOL     OW 2938   1.133   0.382   7.278
  753SOL    HW1 2939   1.086   0.438   7.340
  753SOL    HW2 2940   1.221   0.421   7.272
  754SOL     OW 2941   1.151   0.224   7.067
  754SOL    HW1 2942   1.143   0.279   7.145
  754SOL    HW2 2943   1.173   0.285   6.997
  755SOL     OW 2944   3.999   1.320   5.768
  755SOL    HW1 2945   3.905   1.336   5.772
  755SOL    HW2 2946   0.009   1.227   5.788
  756SOL     OW 2947   0.077   1.801   6.475
  756SOL    HW1 2948   0.077   1.706   6.484
  756SOL    HW2 2949   0.169   1.826   6.478
  757SOL     OW 2950   0.503   1.571   6.496
  757SOL    HW1 2951   0.573   1.631   6.523
  757SOL    HW2 2952   0.547   1.507   6.440
  758SOL     OW 2953   0.986   0.790   6.812
  758SOL    HW1 2954   1.039   0.769   6.889
  758SOL    HW2 2955   0.898   0.758   6.834
  759SOL     OW 2956   0.036   0.565   6.699
  759SOL    HW1 2957   0.104   0.520   6.649
  759SOL    HW2 2958   0.062   0.553   6.791
  760SOL     OW 2959   0.208   0.516   7.307
  760SOL    HW1 2960   0.260   0.481   7.234
  760SOL    HW2 2961   0.159   0.589   7.269
  761SOL     OW 2962   1.372   0.933   7.244
  761SOL    HW1 2963   1.389   1.027   7.245
  761SOL    HW2 2964   1.371   0.910   7.152
  762SOL     OW 2965   0.817   0.571   5.943
  762SOL    HW1 2966   0.821   0.494   5.886
  762SOL    HW2 2967   0.742   0.621   5.911
  763SOL     OW 2968   1.642   0.603   6.775
  763SOL    HW1 2969   1.631   0.541   6.847
  763SOL    HW2 2970   1.729   0.582   6.739
  764SOL     OW 2971   0.296   1.546   7.317
  764SOL    HW1 2972   0.246   1.616   7.359
  764SOL    HW2 2973   0.262   1.465   7.355
  765SOL     OW 2974   0.699   0.458   6.847
  765SOL    HW1 2975   0.652   0.378   6.819
  765SOL    HW2 2976   0.694   0.516   6.771
  766SOL     OW 2977   0.926   1.682   7.046
  766SOL    HW1 2978   0.908   1.644   6.960
  766SOL    HW2 2979   0.921   1.776   7.032
  767SOL     OW 2980   0.459   0.492   5.780
  767SOL    HW1 2981   0.523   0.561   5.797
  767SOL    HW2 2982   0.377   0.539   5.760
  768SOL     OW 2983   0.156   1.136   7.058
  768SOL    HW1 2984   0.162   1.085   7.138
  768SOL    HW2 2985   0.171   1.073   6.988
  769SOL     OW 2986   1.333   1.048   6.806
  769SOL    HW1 2987   1.354   0.985   6.738
  769SOL    HW2 2988   1.258   1.097   6.771
  770SOL     OW 2989   1.312   0.857   5.892
  770SOL    HW1 2990   1.236   0.828   5.944
  770SOL    HW2 2991   1.285   0.843   5.801
  771SOL     OW 2992   1.742   1.750   6.716
  771SOL    HW1 2993   1.818   1.762   6.659
  771SOL    HW2 2994   1.725   1.656   6.713
  772SOL     OW 2995   0.076   1.218   6.613
  772SOL    HW1 2996   0.082   1.243   6.705
  772SOL    HW2 2997   3.983   1.224   6.593
  773SOL     OW 2998   0.680   1.666   7.316
  773SOL    HW1 2999   0.623   1.742   7.303
  773SOL    HW2 3000   0.744   1.671   7.245
  774SOL     OW 3001   1.710   0.128   6.071
  774SOL    HW1 3002   1.790   0.133   6.020
  774SOL    HW2 3003   1.701   0.036   6.094
  775SOL     OW 3004   0.172   1.768   7.414
  775SOL    HW1 3005   0.112   1.720   7.472
  775SOL    HW2 3006   0.215   1.831   7.472
  776SOL     OW 3007   1.274   0.924   6.248
  776SOL    HW1 3008   1.349   0.865   6.261
  776SOL    HW2 3009   1.311   1.001   6.205
  777SOL     OW 3010   0.817   1.271   7.019
  777SOL    HW1 3011   0.789   1.312   7.101
  777SOL    HW2 3012   0.747   1.293   6.957
  778SOL     OW 3013   0.670   1.618   5.740
  778SOL    HW1 3014   0.680   1.629   5.646
  778SOL    HW2 3015   0.616   1.540   5.750
  779SOL     OW 3016   1.838   0.175   6.554
  779SOL    HW1 3017   1.869   0.102   6.501
  779SOL    HW2 3018   1.751   0.195   6.520
  780SOL     OW 3019   0.272   0.323   6.301
  780SOL    HW1 3020   0.187   0.359   6.277
  780SOL    HW2 3021   0.265   0.305   6.395
  781SOL     OW 3022   1.205   1.607   5.617
  781SOL    HW1 3023   1.197   1.515   5.642
  781SOL    HW2 3024   1.140   1.618   5.547
  782SOL     OW 3025   0.825   1.005   6.956
  782SOL    HW1 3026   0.871   1.004   6.872
  782SOL    HW2 3027   0.825   1.098   6.982
  783SOL     OW 3028   0.915   0.910   5.875
  783SOL    HW1 3029   0.977   0.942   5.810
  783SOL    HW2 3030   0.962   0.840   5.921
  784SOL     OW 3031   1.489   1.621   5.621
  784SOL    HW1 3032   1.394   1.618   5.607
  784SOL    HW2 3033   1.525   1.629   5.532
  785SOL     OW 3034   0.372   1.302   7.078
  785SOL    HW1 3035   0.359   1.382   7.027
  785SOL    HW2 3036   0.295   1.249   7.059
  786SOL     OW 3037   1.618   1.261   6.987
  786SOL    HW1 3038   1.674   1.336   7.003
  786SOL    HW2 3039   1.543   1.296   6.939
  787SOL     OW 3040   1.049   1.105   6.291
  787SOL    HW1 3041   0.980   1.052   6.331
  787SOL    HW2 3042   1.114   1.040   6.262
  788SOL     OW 3043   1.015   0.247   6.553
  788SOL    HW1 3044   1.004   0.197   6.472
  788SOL    HW2 3045   1.008   0.182   6.623
  789SOL     OW 3046   0.602   1.488   6.068
  789SOL    HW1 3047   0.645   1.438   5.998
  789SOL    HW2 3048   0.534   1.538   6.023
  790SOL     OW 3049   1.719   0.391   6.961
  790SOL    HW1 3050   1.790   0.455   6.963
  790SOL    HW2 3051   1.753   0.320   6.906
  791SOL     OW 3052   0.252   1.342   5.877
  791SOL    HW1 3053   0.160   1.353   5.856
  791SOL    HW2 3054   0.262   1.380   5.964
  792SOL     OW 3055   0.105   1.001   7.305
  792SOL    HW1 3056   0.044   0.989   7.378
  792SOL    HW2 3057   0.191   0.980   7.342
  793SOL     OW 3058   0.693   0.242   7.082
  793SOL    HW1 3059   0.763   0.191   7.042
  793SOL    HW2 3060   0.719   0.251   7.174
  794SOL     OW 3061   0.088   0.326   5.614
  794SOL    HW1 3062   3.992   0.321   5.609
  794SOL    HW2 3063   0.110   0.408   5.570
  795SOL     OW 3064   1.428   0.856   6.985
  795SOL    HW1 3065   1.382   0.917   6.928
  795SOL    HW2 3066   1.520   0.863   6.959
  796SOL     OW 3067   0.039   0.162   5.869
  796SOL    HW1 3068   0.037   0.243   5.819
  796SOL    HW2 3069   0.120   0.167   5.920
  797SOL     OW 3070   1.178   1.340   5.702
  797SOL    HW1 3071   1.087   1.310   5.703
  797SOL    HW2 3072   1.205   1.338   5.793
  798SOL     OW 3073   0.619   0.830   7.021
  798SOL    HW1 3074   0.675   0.906   7.004
  798SOL    HW2 3075   0.681   0.757   7.029
  799SOL     OW 3076   0.715   0.565   7.294
  799SOL    HW1 3077   0.757   0.628   7.352
  799SOL    HW2 3078   0.750   0.480   7.323
  800SOL     OW 3079   1.449   1.193   7.222
  800SOL    HW1 3080   1.453   1.204   7.317
  800SOL    HW2 3081   1.539   1.207   7.192
  801SOL     OW 3082   0.381   1.741   7.145
  801SOL    HW1 3083   0.293   1.778   7.132
  801SOL    HW2 3084   0.365   1.659   7.193
  802SOL     OW 3085   1.673   0.877   6.838
  802SOL    HW1 3086   1.664   0.786   6.809
  802SOL    HW2 3087   1.662   0.929   6.758
  803SOL     OW 3088   1.224   0.333   6.032
  803SOL    HW1 3089   1.291   0.264   6.024
  803SOL    HW2 3090   1.247   0.378   6.114
  804SOL     OW 3091   0.592   0.740   6.254
  804SOL    HW1 3092   0.629   0.826   6.238
  804SOL    HW2 3093   0.522   0.731   6.189
  805SOL     OW 3094   1.756   0.378   7.229
  805SOL    HW1 3095   1.738   0.385   7.135
  805SOL    HW2 3096   1.695   0.311   7.261
  806SOL     OW 3097   1.733   0.933   7.099
  806SOL    HW1 3098   1.788   1.010   7.114
  806SOL    HW2 3099   1.724   0.928   7.004
  807SOL     OW 3100   0.863   1.368   5.619
  807SOL    HW1 3101   0.823   1.396   5.701
  807SOL    HW2 3102   0.881   1.449   5.572
  808SOL     OW 3103   0.659   1.792   6.537
  808SOL    HW1 3104   0.647   1.881   6.506
  808SOL    HW2 3105   0.753   1.775   6.527
  809SOL     OW 3106   0.867   0.965   6.441
  809SOL    HW1 3107   0.918   0.895   6.481
  809SOL    HW2 3108   0.833   1.016   6.514
  810SOL     OW 3109   1.080   0.989   5.675
  810SOL    HW1 3110   1.058   1.039   5.596
  810SOL    HW2 3111   1.155   0.935   5.649
  811SOL     OW 3112   0.222   1.304   7.441
  811SOL    HW1 3113   0.153   1.243   7.416
  811SOL    HW2 3114   0.210   1.317   7.535
  812SOL     OW 3115   0.113   1.273   6.302
  812SOL    HW1 3116   0.121   1.222   6.382
  812SOL    HW2 3117   0.112   1.208   6.232
  813SOL     OW 3118   0.676   1.403   7.211
  813SOL    HW1 3119   0.597   1.359   7.243
  813SOL    HW2 3120   0.676   1.488   7.253
  814SOL     OW 3121   1.814   0.184   6.826
  814SOL    HW1 3122   1.816   0.089   6.839
  814SOL    HW2 3123   1.827   0.195   6.732
  815SOL     OW 3124   0.441   0.436   6.116
  815SOL    HW1 3125   0.453   0.361   6.057
  815SOL    HW2 3126   0.386   0.402   6.186
  816SOL     OW 3127   0.330   0.554   6.877
  816SOL    HW1 3128   0.386   0.498   6.930
  816SOL    HW2 3129   0.346   0.526   6.787
  817SOL     OW 3130   0.833   1.571   6.256
  817SOL    HW1 3131   0.816   1.633   6.184
  817SOL    HW2 3132   0.752   1.520   6.262
  818SOL     OW 3133   1.461   0.251   6.698
  818SOL    HW1 3134   1.476   0.164   6.734
  818SOL    HW2 3135   1.403   0.293   6.761
  819SOL     OW 3136   1.006   0.030   6.734
  819SOL    HW1 3137   0.931   3.979   6.703
  819SOL    HW2 3138   1.077   3.966   6.741
  820SOL     OW 3139   0.771   1.332   5.899
  820SOL    HW1 3140   0.737   1.242   5.904
  820SOL    HW2 3141   0.853   1.329   5.947
  821SOL     OW 3142   0.619   1.559   6.870
  821SOL    HW1 3143   0.623   1.640   6.921
  821SOL    HW2 3144   0.707   1.549   6.834
  822SOL     OW 3145   1.316   0.074   5.750
  822SOL    HW1 3146   1.335   0.006   5.686
  822SOL    HW2 3147   1.231   0.049   5.786
  823SOL     OW 3148   1.286   0.458   6.274
  823SOL    HW1 3149   1.237   0.540   6.271
  823SOL    HW2 3150   1.290   0.436   6.367
  824SOL     OW 3151   1.588   0.211   6.453
  824SOL    HW1 3152   1.538   0.233   6.532
  824SOL    HW2 3153   1.588   0.291   6.401
  825SOL     OW 3154   0.045   1.052   5.826
  825SOL    HW1 3155   0.139   1.035   5.818
  825SOL    HW2 3156   0.010   0.972   5.866
  826SOL     OW 3157   0.884   1.648   5.925
  826SOL    HW1 3158   0.811   1.630   5.866
  826SOL    HW2 3159   0.855   1.723   5.977
  827SOL     OW 3160   0.232   0.624   7.568
  827SOL    HW1 3161   0.139   0.630   7.589
  827SOL    HW2 3162   0.234   0.596   7.476
  828SOL     OW 3163   0.225   0.286   8.432
  828SOL    HW1 3164   0.249   0.250   8.517
  828SOL    HW2 3165   0.132   0.268   8.423
  829SOL     OW 3166   0.017   0.388   8.082
  829SOL    HW1 3167   3.930   0.397   8.119
  829SOL    HW2 3168   0.025   0.295   8.062
  830SOL     OW 3169   0.576   1.282   8.630
  830SOL    HW1 3170   0.489   1.285   8.590
  830SOL    HW2 3171   0.590   1.370   8.664
  831SOL     OW 3172   1.551   1.508   8.158
  831SOL    HW1 3173   1.527   1.493   8.249
  831SOL    HW2 3174   1.468   1.503   8.110
  832SOL     OW 3175   1.132   0.698   8.150
  832SOL    HW1 3176   1.180   0.780   8.136
  832SOL    HW2 3177   1.084   0.712   8.232
  833SOL     OW 3178   1.758   0.616   7.677
  833SOL    HW1 3179   1.741   0.609   7.583
  833SOL    HW2 3180   1.751   0.526   7.709
  834SOL     OW 3181   0.760   1.143   8.487
  834SOL    HW1 3182   0.692   1.176   8.546
  834SOL    HW2 3183   0.792   1.221   8.441
  835SOL     OW 3184   0.865   0.778   9.270
  835SOL    HW1 3185   0.854   0.850   9.332
  835SOL    HW2 3186   0.888   0.821   9.188
  836SOL     OW 3187   0.686   1.006   8.096
  836SOL    HW1 3188   0.750   0.992   8.166
  836SOL    HW2 3189   0.616   1.056   8.138
  837SOL     OW 3190   0.709   1.151   9.259
  837SOL    HW1 3191   0.757   1.229   9.285
  837SOL    HW2 3192   0.626   1.183   9.225
  838SOL     OW 3193   0.351   1.404   8.527
  838SOL    HW1 3194   0.269   1.386   8.480
  838SOL    HW2 3195   0.400   1.462   8.469
  839SOL     OW 3196   1.461   1.500   8.800
  839SOL    HW1 3197   1.510   1.581   8.810
  839SOL    HW2 3198   1.403   1.497   8.875
  840SOL     OW 3199   0.453   0.407   8.948
  840SOL    HW1 3200   0.533   0.355   8.943
  840SOL    HW2 3201   0.382   0.342   8.949
  841SOL     OW 3202   1.613   0.451   8.183
  841SOL    HW1 3203   1.540   0.481   8.129
  841SOL    HW2 3204   1.636   0.526   8.237
  842SOL     OW 3205   0.223   1.716   7.909
  842SOL    HW1 3206   0.241   1.792   7.965
  842SOL    HW2 3207   0.300   1.709   7.852
  843SOL     OW 3208   1.136   1.341   9.140
  843SOL    HW1 3209   1.176   1.337   9.227
  843SOL    HW2 3210   1.084   1.262   9.134
  844SOL     OW 3211   0.244   1.447   7.988
  844SOL    HW1 3212   0.215   1.537   7.974
  844SOL    HW2 3213   0.175   1.406   8.039
  845SOL     OW 3214   0.246   1.070   8.333
  845SOL    HW1 3215   0.264   0.986   8.375
  845SOL    HW2 3216   0.194   1.118   8.397
  846SOL     OW 3217   0.615   1.790   8.879
  846SOL    HW1 3218   0.531   1.773   8.923
  846SOL    HW2 3219   0.636   1.880   8.903
  847SOL     OW 3220   0.583   0.983   7.583
  847SOL    HW1 3221   0.628   1.030   7.513
  847SOL    HW2 3222   0.626   1.011   7.664
  848SOL     OW 3223   1.578   0.135   8.905
  848SOL    HW1 3224   1.602   0.209   8.850
  848SOL    HW2 3225   1.555   0.175   8.989
  849SOL     OW 3226   0.138   0.648   8.018
  849SOL    HW1 3227   0.094   0.563   8.023
  849SOL    HW2 3228   0.101   0.699   8.090
  850SOL     OW 3229   0.043   1.591   7.588
  850SOL    HW1 3230   0.032   1.498   7.609
  850SOL    HW2 3231   3.965   1.633   7.622
  851SOL     OW 3232   1.691   0.900   8.101
  851SOL    HW1 3233   1.779   0.865   8.085
  851SOL    HW2 3234   1.670   0.950   8.023
  852SOL     OW 3235   1.647   1.073   7.898
  852SOL    HW1 3236   1.729   1.083   7.850
  852SOL    HW2 3237   1.651   1.139   7.967
  853SOL     OW 3238   0.134   0.753   9.038
  853SOL    HW1 3239   0.229   0.747   9.042
  853SOL    HW2 3240   0.115   0.846   9.054
  854SOL     OW 3241   0.612   1.383   8.184
  854SOL    HW1 3242   0.566   1.300   8.193
  854SOL    HW2 3243   0.596   1.410   8.094
  855SOL     OW 3244   1.290   1.239   8.871
  855SOL    HW1 3245   1.322   1.171   8.812
  855SOL    HW2 3246   1.346   1.232   8.949
  856SOL     OW 3247   0.816   0.002   7.962
  856SOL    HW1 3248   0.861   0.083   7.941
  856SOL    HW2 3249   0.723   0.025   7.964
  857SOL     OW 3250   0.186   0.954   8.723
  857SOL    HW1 3251   0.274   0.919   8.709
  857SOL    HW2 3252   0.131   0.908   8.660
  858SOL     OW 3253   1.531   0.992   7.649
  858SOL    HW1 3254   1.459   0.935   7.675
  858SOL    HW2 3255   1.576   1.014   7.731
  859SOL     OW 3256   1.186   1.805   9.070
  859SOL    HW1 3257   1.198   1.863   8.995
  859SOL    HW2 3258   1.201   1.717   9.035
  860SOL     OW 3259   0.340   0.254   9.272
  860SOL    HW1 3260   0.385   0.338   9.260
  860SOL    HW2 3261   0.250   0.278   9.294
  861SOL     OW 3262   1.468   1.418   8.402
  861SOL    HW1 3263   1.400   1.433   8.468
  861SOL    HW2 3264   1.454   1.328   8.373
  862SOL     OW 3265   1.674   1.705   8.016
  862SOL    HW1 3266   1.642   1.672   7.932
  862SOL    HW2 3267   1.641   1.643   8.081
  863SOL     OW 3268   0.596   0.720   7.711
  863SOL    HW1 3269   0.603   0.802   7.663
  863SOL    HW2 3270   0.533   0.738   7.781
  864SOL     OW 3271   1.276   0.363   8.388
  864SOL    HW1 3272   1.189   0.324   8.393
  864SOL    HW2 3273   1.333   0.302   8.435
  865SOL     OW 3274   0.795   0.616   8.903
  865SOL    HW1 3275   0.765   0.592   8.990
  865SOL    HW2 3276   0.754   0.552   8.845
  866SOL     OW 3277   1.393   0.477   9.125
  866SOL    HW1 3278   1.396   0.521   9.210
  866SOL    HW2 3279   1.453   0.403   9.134
  867SOL     OW 3280   0.956   0.888   9.030
  867SOL    HW1 3281   1.010   0.817   8.995
  867SOL    HW2 3282   0.908   0.921   8.954
  868SOL     OW 3283   0.991   0.404   8.689
  868SOL    HW1 3284   0.908   0.429   8.731
  868SOL    HW2 3285   0.965   0.371   8.603
  869SOL     OW 3286   1.051   0.698   7.875
  869SOL    HW1 3287   1.065   0.691   7.969
  869SOL    HW2 3288   0.969   0.651   7.859
  870SOL     OW 3289   0.081   0.824   8.239
  870SOL    HW1 3290   0.160   0.794   8.284
  870SOL    HW2 3291   0.092   0.918   8.231
  871SOL     OW 3292   0.129   1.854   9.021
  871SOL    HW1 3293   0.137   1.821   9.110
  871SOL    HW2 3294   0.037   1.842   8.998
  872SOL     OW 3295   0.891   0.350   7.646
  872SOL    HW1 3296   0.933   0.409   7.583
  872SOL    HW2 3297   0.894   0.264   7.604
  873SOL     OW 3298   1.711   0.576   9.276
  873SOL    HW1 3299   1.673   0.650   9.230
  873SOL    HW2 3300   1.735   0.514   9.207
  874SOL     OW 3301   1.377   1.143   7.993
  874SOL    HW1 3302   1.450   1.117   7.936
  874SOL    HW2 3303   1.325   1.203   7.939
  875SOL     OW 3304   0.559   0.195   8.330
  875SOL    HW1 3305   0.562   0.216   8.424
  875SOL    HW2 3306   0.548   0.279   8.287
  876SOL     OW 3307   1.016   1.450   7.927
  876SOL    HW1 3308   0.970   1.514   7.873
  876SOL    HW2 3309   0.983   1.465   8.016
  877SOL     OW 3310   0.364   1.812   8.314
  877SOL    HW1 3311   0.429   1.742   8.318
  877SOL    HW2 3312   0.414   1.892   8.329
  878SOL     OW 3313   1.801   1.056   8.320
  878SOL    HW1 3314   1.746   1.039   8.243
  878SOL    HW2 3315   1.739   1.063   8.392
  879SOL     OW 3316   1.228   1.539   8.961
  879SOL    HW1 3317   1.214   1.466   9.021
  879SOL    HW2 3318   1.165   1.524   8.890
  880SOL     OW 3319   0.311   0.956   7.690
  880SOL    HW1 3320   0.396   0.978   7.652
  880SOL    HW2 3321   0.296   0.865   7.663
  881SOL     OW 3322   1.474   0.742   8.179
  881SOL    HW1 3323   1.469   0.698   8.264
  881SOL    HW2 3324   1.555   0.794   8.184
  882SOL     OW 3325   0.465   1.260   9.185
  882SOL    HW1 3326   0.438   1.268   9.093
  882SOL    HW2 3327   0.383   1.265   9.234
  883SOL     OW 3328   0.199   0.296   8.946
  883SOL    HW1 3329   0.105   0.318   8.943
  883SOL    HW2 3330   0.206   0.232   9.017
  884SOL     OW 3331   0.466   1.739   7.767
  884SOL    HW1 3332   0.509   1.796   7.831
  884SOL    HW2 3333   0.538   1.707   7.712
  885SOL     OW 3334   1.436   0.158   7.854
  885SOL    HW1 3335   1.396   0.094   7.795
  885SOL    HW2 3336   1.514   0.114   7.887
  886SOL     OW 3337   0.250   1.792   8.681
  886SOL    HW1 3338   0.299   1.729   8.734
  886SOL    HW2 3339   0.245   1.751   8.594
  887SOL     OW 3340   0.935   1.696   8.347
  887SOL    HW1 3341   1.006   1.638   8.376
  887SOL    HW2 3342   0.892   1.648   8.276
  888SOL     OW 3343   0.394   0.694   7.922
  888SOL    HW1 3344   0.421   0.604   7.935
  888SOL    HW2 3345   0.302   0.696   7.947
  889SOL     OW 3346   1.531   0.232   9.175
  889SOL    HW1 3347   1.532   0.256   9.267
  889SOL    HW2 3348   1.500   0.142   9.173
  890SOL     OW 3349   0.642   0.136   7.549
  890SOL    HW1 3350   0.675   0.057   7.591
  890SOL    HW2 3351   0.580   0.104   7.483
  891SOL     OW 3352   0.779   0.282   9.211
  891SOL    HW1 3353   0.843   0.211   9.217
  891SOL    HW2 3354   0.717   0.265   9.282
  892SOL     OW 3355   0.877   1.521   8.641
  892SOL    HW1 3356   0.860   1.483   8.554
  892SOL    HW2 3357   0.945   1.466   8.679
  893SOL     OW 3358   1.342   0.587   8.878
  893SOL    HW1 3359   1.372   0.558   8.965
  893SOL    HW2 3360   1.376   0.676   8.870
  894SOL     OW 3361   0.814   1.397   8.384
  894SOL    HW1 3362   0.898   1.385   8.340
  894SOL    HW2 3363   0.749   1.395   8.314
  895SOL     OW 3364   0.929   0.511   8.350
  895SOL    HW1 3365   0.905   0.503   8.258
  895SOL    HW2 3366   0.957   0.423   8.375
  896SOL     OW 3367   0.546   0.057   7.939
  896SOL    HW1 3368   0.471   0.064   7.998
  896SOL    HW2 3369   0.548   0.141   7.893
  897SOL     OW 3370   1.432   1.196   7.487
  897SOL    HW1 3371   1.460   1.125   7.544
  897SOL    HW2 3372   1.348   1.224   7.523
  898SOL     OW 3373   0.333   0.046   7.643
  898SOL    HW1 3374   0.363   0.088   7.562
  898SOL    HW2 3375   0.413   0.025   7.690
  899SOL     OW 3376   0.938   0.246   7.913
  899SOL    HW1 3377   0.910   0.288   7.831
  899SOL    HW2 3378   1.033   0.248   7.909
  900SOL     OW 3379   1.079   0.680   8.907
  900SOL    HW1 3380   1.008   0.617   8.914
  900SOL    HW2 3381   1.158   0.627   8.902
  901SOL     OW 3382   1.241   1.561   8.234
  901SOL    HW1 3383   1.233   1.650   8.200
  901SOL    HW2 3384   1.294   1.571   8.314
  902SOL     OW 3385   0.466   1.149   8.187
  902SOL    HW1 3386   0.393   1.126   8.245
  902SOL    HW2 3387   0.433   1.133   8.099
  903SOL     OW 3388   1.024   0.547   7.471
  903SOL    HW1 3389   0.981   0.630   7.451
  903SOL    HW2 3390   1.088   0.569   7.539
  904SOL     OW 3391   0.079   0.570   8.841
  904SOL    HW1 3392   0.168   0.553   8.810
  904SOL    HW2 3393   0.088   0.641   8.904
  905SOL     OW 3394   0.572   0.232   8.608
  905SOL    HW1 3395   0.596   0.140   8.618
  905SOL    HW2 3396   0.481   0.236   8.638
  906SOL     OW 3397   0.872   0.462   8.087
  906SOL    HW1 3398   0.820   0.513   8.025
  906SOL    HW2 3399   0.890   0.380   8.041
  907SOL     OW 3400   0.994   0.042   8.227
  907SOL    HW1 3401   0.962   0.066   8.140
  907SOL    HW2 3402   1.004   3.947   8.223
  908SOL     OW 3403   1.435   1.164   8.306
  908SOL    HW1 3404   1.367   1.096   8.304
  908SOL    HW2 3405   1.462   1.173   8.214
  909SOL     OW 3406   1.467   0.604   8.427
  909SOL    HW1 3407   1.416   0.522   8.432
  909SOL    HW2 3408   1.528   0.599   8.501
  910SOL     OW 3409   1.851   0.816   7.830
  910SOL    HW1 3410   1.904   0.760   7.888
  910SOL    HW2 3411   1.816   0.755   7.765
  911SOL     OW 3412   0.489   1.417   7.611
  911SOL    HW1 3413   0.414   1.384   7.660
  911SOL    HW2 3414   0.470   1.393   7.520
  912SOL     OW 3415   1.664   1.254   8.108
  912SOL    HW1 3416   1.760   1.257   8.113
  912SOL    HW2 3417   1.636   1.344   8.127
  913SOL     OW 3418   1.394   0.572   7.518
  913SOL    HW1 3419   1.333   0.554   7.589
  913SOL    HW2 3420   1.480   0.553   7.555
  914SOL     OW 3421   0.557   0.270   7.769
  914SOL    HW1 3422   0.598   0.229   7.692
  914SOL    HW2 3423   0.529   0.356   7.738
  915SOL     OW 3424   1.753   1.238   9.023
  915SOL    HW1 3425   1.840   1.198   9.020
  915SOL    HW2 3426   1.767   1.327   9.052
  916SOL     OW 3427   1.059   1.354   8.782
  916SOL    HW1 3428   0.985   1.323   8.834
  916SOL    HW2 3429   1.135   1.313   8.823
  917SOL     OW 3430   1.606   1.625   9.100
  917SOL    HW1 3431   1.603   1.661   9.011
  917SOL    HW2 3432   1.690   1.579   9.104
  918SOL     OW 3433   1.129   1.204   8.554
  918SOL    HW1 3434   1.069   1.240   8.620
  918SOL    HW2 3435   1.093   1.232   8.471
  919SOL     OW 3436   1.629   1.099   8.526
  919SOL    HW1 3437   1.624   1.161   8.600
  919SOL    HW2 3438   1.549   1.115   8.477
  920SOL     OW 3439   0.914   0.110   8.850
  920SOL    HW1 3440   0.933   0.086   8.760
  920SOL    HW2 3441   0.994   0.153   8.881
  921SOL     OW 3442   0.984   1.115   9.170
  921SOL    HW1 3443   0.892   1.130   9.191
  921SOL    HW2 3444   0.984   1.037   9.114
  922SOL     OW 3445   0.707   1.059   7.819
  922SOL    HW1 3446   0.694   1.045   7.913
  922SOL    HW2 3447   0.784   1.007   7.797
  923SOL     OW 3448   0.420   0.815   8.700
  923SOL    HW1 3449   0.489   0.821   8.766
  923SOL    HW2 3450   0.385   0.726   8.710
  924SOL     OW 3451   1.267   0.375   8.723
  924SOL    HW1 3452   1.301   0.453   8.768
  924SOL    HW2 3453   1.180   0.402   8.692
  925SOL     OW 3454   0.064   1.579   8.793
  925SOL    HW1 3455   0.066   1.647   8.725
  925SOL    HW2 3456   0.156   1.566   8.816
  926SOL     OW 3457   0.374   1.102   7.935
  926SOL    HW1 3458   0.369   1.180   7.879
  926SOL    HW2 3459   0.373   1.029   7.873
  927SOL     OW 3460   0.556   0.538   8.308
  927SOL    HW1 3461   0.572   0.595   8.233
  927SOL    HW2 3462   0.621   0.566   8.373
  928SOL     OW 3463   1.250   1.346   7.842
  928SOL    HW1 3464   1.293   1.431   7.843
  928SOL    HW2 3465   1.161   1.364   7.873
  929SOL     OW 3466   1.280   1.456   8.593
  929SOL    HW1 3467   1.334   1.459   8.672
  929SOL    HW2 3468   1.224   1.379   8.605
  930SOL     OW 3469   1.580   0.631   7.932
  930SOL    HW1 3470   1.538   0.693   7.992
  930SOL    HW2 3471   1.625   0.686   7.868
  931SOL     OW 3472   0.346   1.525   8.768
  931SOL    HW1 3473   0.336   1.475   8.687
  931SOL    HW2 3474   0.440   1.541   8.775
  932SOL     OW 3475   0.412   0.740   9.049
  932SOL    HW1 3476   0.473   0.787   8.992
  932SOL    HW2 3477   0.453   0.654   9.062
  933SOL     OW 3478   1.600   0.778   9.130
  933SOL    HW1 3479   1.513   0.818   9.122
  933SOL    HW2 3480   1.652   0.819   9.061
  934SOL     OW 3481   1.020   0.121   9.225
  934SOL    HW1 3482   1.056   0.200   9.184
  934SOL    HW2 3483   1.010   0.059   9.154
  935SOL     OW 3484   0.479   0.036   9.215
  935SOL    HW1 3485   0.492   0.039   9.120
  935SOL    HW2 3486   0.419   0.109   9.234
  936SOL     OW 3487   0.584   0.873   8.479
  936SOL    HW1 3488   0.613   0.964   8.478
  936SOL    HW2 3489   0.527   0.867   8.556
  937SOL     OW 3490   1.359   0.859   8.480
  937SOL    HW1 3491   1.277   0.850   8.431
  937SOL    HW2 3492   1.398   0.772   8.475
  938SOL     OW 3493   1.206   0.534   7.712
  938SOL    HW1 3494   1.213   0.455   7.765
  938SOL    HW2 3495   1.162   0.597   7.769
  939SOL     OW 3496   0.313   0.214   8.689
  939SOL    HW1 3497   0.272   0.248   8.769
  939SOL    HW2 3498   0.294   0.120   8.691
  940SOL     OW 3499   0.055   1.305   8.728
  940SOL    HW1 3500   0.089   1.265   8.809
  940SOL    HW2 3501   0.050   1.398   8.748
  941SOL     OW 3502   0.728   0.635   8.506
  941SOL    HW1 3503   0.799   0.617   8.445
  941SOL    HW2 3504   0.698   0.722   8.482
  942SOL     OW 3505   1.734   0.959   9.299
  942SOL    HW1 3506   1.686   0.900   9.240
  942SOL    HW2 3507   1.675   0.972   9.374
  943SOL     OW 3508   0.325   0.056   8.096
  943SOL    HW1 3509   0.297   0.147   8.097
  943SOL    HW2 3510   0.285   0.017   8.174
  944SOL     OW 3511   1.600   0.386   7.831
  944SOL    HW1 3512   1.576   0.319   7.895
  944SOL    HW2 3513   1.581   0.469   7.875
  945SOL     OW 3514   1.028   0.760   8.409
  945SOL    HW1 3515   1.025   0.777   8.503
  945SOL    HW2 3516   1.001   0.668   8.401
  946SOL     OW 3517   0.983   1.566   9.164
  946SOL    HW1 3518   0.967   1.611   9.080
  946SOL    HW2 3519   1.025   1.484   9.140
  947SOL     OW 3520   1.855   1.506   9.054
  947SOL    HW1 3521   1.871   1.535   8.964
  947SOL    HW2 3522   1.938   1.520   9.099
  948SOL     OW 3523   0.351   0.920   9.249
  948SOL    HW1 3524   0.430   0.939   9.299
  948SOL    HW2 3525   0.379   0.854   9.185
  949SOL     OW 3526   1.511   0.275   7.584
  949SOL    HW1 3527   1.434   0.219   7.597
  949SOL    HW2 3528   1.524   0.317   7.669
  950SOL     OW 3529   1.295   0.827   7.482
  950SOL    HW1 3530   1.336   0.741   7.483
  950SOL    HW2 3531   1.323   0.866   7.400
  951SOL     OW 3532   1.065   1.337   8.298
  951SOL    HW1 3533   1.066   1.261   8.240
  951SOL    HW2 3534   1.131   1.396   8.262
  952SOL     OW 3535   0.313   0.807   8.399
  952SOL    HW1 3536   0.407   0.823   8.392
  952SOL    HW2 3537   0.307   0.717   8.431
  953SOL     OW 3538   0.337   0.527   8.461
  953SOL    HW1 3539   0.297   0.442   8.443
  953SOL    HW2 3540   0.413   0.531   8.402
  954SOL     OW 3541   1.134   0.383   9.139
  954SOL    HW1 3542   1.087   0.438   9.201
  954SOL    HW2 3543   1.221   0.421   9.134
  955SOL     OW 3544   1.151   0.224   8.929
  955SOL    HW1 3545   1.143   0.279   9.007
  955SOL    HW2 3546   1.173   0.285   8.859
  956SOL     OW 3547   3.999   1.321   7.631
  956SOL    HW1 3548   3.905   1.336   7.635
  956SOL    HW2 3549   0.009   1.227   7.650
  957SOL     OW 3550   0.076   1.801   8.338
  957SOL    HW1 3551   0.078   1.706   8.346
  957SOL    HW2 3552   0.169   1.826   8.341
  958SOL     OW 3553   0.504   1.570   8.358
  958SOL    HW1 3554   0.574   1.632   8.382
  958SOL    HW2 3555   0.547   1.507   8.301
  959SOL     OW 3556   0.985   0.793   8.675
  959SOL    HW1 3557   1.038   0.769   8.751
  959SOL    HW2 3558   0.899   0.755   8.693
  960SOL     OW 3559   0.036   0.566   8.561
  960SOL    HW1 3560   0.103   0.518   8.511
  960SOL    HW2 3561   0.062   0.553   8.653
  961SOL     OW 3562   0.209   0.516   9.169
  961SOL    HW1 3563   0.259   0.481   9.096
  961SOL    HW2 3564   0.158   0.588   9.131
  962SOL     OW 3565   1.376   0.940   9.107
  962SOL    HW1 3566   1.397   1.033   9.106
  962SOL    HW2 3567   1.374   0.915   9.014
  963SOL     OW 3568   0.817   0.571   7.805
  963SOL    HW1 3569   0.822   0.495   7.748
  963SOL    HW2 3570   0.742   0.621   7.773
  964SOL     OW 3571   1.642   0.602   8.636
  964SOL    HW1 3572   1.632   0.541   8.709
  964SOL    HW2 3573   1.729   0.583   8.601
  965SOL     OW 3574   0.297   1.546   9.179
  965SOL    HW1 3575   0.246   1.616   9.221
  965SOL    HW2 3576   0.262   1.465   9.217
  966SOL     OW 3577   0.700   0.457   8.709
  966SOL    HW1 3578   0.653   0.378   8.682
  966SOL    HW2 3579   0.694   0.516   8.633
  967SOL     OW 3580   0.930   1.679   8.915
  967SOL    HW1 3581   0.903   1.646   8.829
  967SOL    HW2 3582   0.926   1.774   8.906
  968SOL     OW 3583   0.459   0.492   7.643
  968SOL    HW1 3584   0.523   0.562   7.659
  968SOL    HW2 3585   0.378   0.539   7.622
  969SOL     OW 3586   0.157   1.136   8.920
  969SOL    HW1 3587   0.161   1.085   9.000
  969SOL    HW2 3588   0.172   1.073   8.850
  970SOL     OW 3589   1.328   1.048   8.672
  970SOL    HW1 3590   1.351   0.984   8.604
  970SOL    HW2 3591   1.256   1.099   8.633
  971SOL     OW 3592   1.308   0.856   7.757
  971SOL    HW1 3593   1.231   0.826   7.804
  971SOL    HW2 3594   1.286   0.844   7.664
  972SOL     OW 3595   1.742   1.740   8.583
  972SOL    HW1 3596   1.818   1.763   8.529
  972SOL    HW2 3597   1.729   1.647   8.568
  973SOL     OW 3598   1.242   1.732   8.559
  973SOL    HW1 3599   1.326   1.752   8.517
  973SOL    HW2 3600   1.248   1.639   8.581
  974SOL     OW 3601   0.076   1.218   8.475
  974SOL    HW1 3602   0.082   1.243   8.567
  974SOL    HW2 3603   3.983   1.224   8.454
  975SOL     OW 3604   0.679   1.665   9.176
  975SOL    HW1 3605   0.623   1.743   9.171
  975SOL    HW2 3606   0.742   1.676   9.104
  976SOL     OW 3607   1.710   0.128   7.934
  976SOL    HW1 3608   1.790   0.133   7.882
  976SOL    HW2 3609   1.701   0.036   7.956
  977SOL     OW 3610   0.172   1.767   9.276
  977SOL    HW1 3611   0.112   1.720   9.334
  977SOL    HW2 3612   0.214   1.832   9.333
  978SOL     OW 3613   1.277   0.926   8.120
  978SOL    HW1 3614   1.350   0.864   8.127
  978SOL    HW2 3615   1.311   0.999   8.069
  979SOL     OW 3616   0.816   1.273   8.879
  979SOL    HW1 3617   0.789   1.312   8.962
  979SOL    HW2 3618   0.745   1.292   8.818
  980SOL     OW 3619   0.669   1.622   7.602
  980SOL    HW1 3620   0.682   1.630   7.507
  980SOL    HW2 3621   0.618   1.542   7.612
  981SOL     OW 3622   1.629   1.728   8.839
  981SOL    HW1 3623   1.673   1.735   8.754
  981SOL    HW2 3624   1.616   1.819   8.867
  982SOL     OW 3625   1.838   0.176   8.416
  982SOL    HW1 3626   1.869   0.102   8.363
  982SOL    HW2 3627   1.751   0.194   8.382
  983SOL     OW 3628   0.272   0.324   8.163
  983SOL    HW1 3629   0.187   0.359   8.139
  983SOL    HW2 3630   0.264   0.306   8.257
  984SOL     OW 3631   1.118   1.589   7.504
  984SOL    HW1 3632   1.184   1.520   7.503
  984SOL    HW2 3633   1.076   1.583   7.418
  985SOL     OW 3634   0.824   1.005   8.820
  985SOL    HW1 3635   0.866   1.001   8.735
  985SOL    HW2 3636   0.824   1.098   8.843
  986SOL     OW 3637   0.916   0.911   7.740
  986SOL    HW1 3638   0.976   0.941   7.672
  986SOL    HW2 3639   0.963   0.839   7.783
  987SOL     OW 3640   0.373   1.302   8.939
  987SOL    HW1 3641   0.358   1.382   8.890
  987SOL    HW2 3642   0.296   1.248   8.922
  988SOL     OW 3643   1.611   1.282   8.730
  988SOL    HW1 3644   1.670   1.273   8.805
  988SOL    HW2 3645   1.551   1.352   8.756
  989SOL     OW 3646   1.050   1.107   8.156
  989SOL    HW1 3647   0.979   1.055   8.194
  989SOL    HW2 3648   1.111   1.042   8.121
  990SOL     OW 3649   1.015   0.247   8.415
  990SOL    HW1 3650   1.004   0.198   8.334
  990SOL    HW2 3651   1.008   0.182   8.485
  991SOL     OW 3652   0.600   1.485   7.932
  991SOL    HW1 3653   0.647   1.438   7.864
  991SOL    HW2 3654   0.536   1.538   7.885
  992SOL     OW 3655   1.719   0.391   8.823
  992SOL    HW1 3656   1.791   0.455   8.825
  992SOL    HW2 3657   1.752   0.320   8.768
  993SOL     OW 3658   0.252   1.341   7.739
  993SOL    HW1 3659   0.160   1.353   7.719
  993SOL    HW2 3660   0.263   1.380   7.826
  994SOL     OW 3661   0.105   1.001   9.166
  994SOL    HW1 3662   0.044   0.989   9.239
  994SOL    HW2 3663   0.191   0.980   9.203
  995SOL     OW 3664   0.693   0.243   8.944
  995SOL    HW1 3665   0.763   0.191   8.904
  995SOL    HW2 3666   0.718   0.250   9.036
  996SOL     OW 3667   0.088   0.326   7.476
  996SOL    HW1 3668   3.992   0.321   7.471
  996SOL    HW2 3669   0.110   0.408   7.432
  997SOL     OW 3670   1.430   0.858   8.849
  997SOL    HW1 3671   1.382   0.918   8.792
  997SOL    HW2 3672   1.520   0.860   8.815
  998SOL     OW 3673   0.039   0.162   7.731
  998SOL    HW1 3674   0.038   0.243   7.680
  998SOL    HW2 3675   0.120   0.166   7.782
  999SOL     OW 3676   1.190   1.315   7.565
  999SOL    HW1 3677   1.094   1.312   7.563
  999SOL    HW2 3678   1.211   1.327   7.658
 1000SOL     OW 3679   0.619   0.830   8.883
 1000SOL    HW1 3680   0.675   0.906   8.867
 1000SOL    HW2 3681   0.679   0.756   8.891
 1001SOL     OW 3682   1.490   1.776   8.423
 1001SOL    HW1 3683   1.515   1.842   8.358
 1001SOL    HW2 3684   1.570   1.761   8.474
 1002SOL     OW 3685   0.716   0.564   9.156
 1002SOL    HW1 3686   0.757   0.627   9.215
 1002SOL    HW2 3687   0.749   0.479   9.184
 1003SOL     OW 3688   1.470   1.202   9.080
 1003SOL    HW1 3689   1.458   1.215   9.174
 1003SOL    HW2 3690   1.564   1.215   9.066
 1004SOL     OW 3691   0.381   1.741   9.007
 1004SOL    HW1 3692   0.294   1.779   8.994
 1004SOL    HW2 3693   0.365   1.660   9.055
 1005SOL     OW 3694   1.670   0.882   8.704
 1005SOL    HW1 3695   1.664   0.796   8.661
 1005SOL    HW2 3696   1.661   0.945   8.632
 1006SOL     OW 3697   1.224   0.333   7.895
 1006SOL    HW1 3698   1.291   0.264   7.886
 1006SOL    HW2 3699   1.247   0.378   7.976
 1007SOL     OW 3700   0.591   0.741   8.117
 1007SOL    HW1 3701   0.629   0.826   8.099
 1007SOL    HW2 3702   0.522   0.731   8.052
 1008SOL     OW 3703   1.755   0.380   9.091
 1008SOL    HW1 3704   1.737   0.385   8.997
 1008SOL    HW2 3705   1.697   0.311   9.123
 1009SOL     OW 3706   1.743   0.934   8.961
 1009SOL    HW1 3707   1.743   1.029   8.973
 1009SOL    HW2 3708   1.729   0.922   8.867
 1010SOL     OW 3709   0.856   1.368   7.479
 1010SOL    HW1 3710   0.825   1.400   7.563
 1010SOL    HW2 3711   0.885   1.447   7.433
 1011SOL     OW 3712   0.660   1.792   8.394
 1011SOL    HW1 3713   0.638   1.882   8.370
 1011SOL    HW2 3714   0.756   1.788   8.385
 1012SOL     OW 3715   0.867   0.966   8.303
 1012SOL    HW1 3716   0.917   0.894   8.343
 1012SOL    HW2 3717   0.833   1.015   8.378
 1013SOL     OW 3718   1.076   0.983   7.537
 1013SOL    HW1 3719   1.057   1.039   7.461
 1013SOL    HW2 3720   1.155   0.935   7.511
 1014SOL     OW 3721   1.847   1.549   8.286
 1014SOL    HW1 3722   1.770   1.534   8.232
 1014SOL    HW2 3723   1.845   1.480   8.352
 1015SOL     OW 3724   0.223   1.303   9.303
 1015SOL    HW1 3725   0.153   1.243   9.278
 1015SOL    HW2 3726   0.210   1.317   9.397
 1016SOL     OW 3727   0.111   1.273   8.165
 1016SOL    HW1 3728   0.121   1.220   8.244
 1016SOL    HW2 3729   0.111   1.209   8.093
 1017SOL     OW 3730   0.680   1.402   9.075
 1017SOL    HW1 3731   0.600   1.359   9.105
 1017SOL    HW2 3732   0.675   1.490   9.112
 1018SOL     OW 3733   1.813   0.184   8.687
 1018SOL    HW1 3734   1.816   0.089   8.701
 1018SOL    HW2 3735   1.827   0.195   8.593
 1019SOL     OW 3736   0.442   0.436   7.978
 1019SOL    HW1 3737   0.454   0.362   7.919
 1019SOL    HW2 3738   0.386   0.402   8.048
 1020SOL     OW 3739   1.702   1.480   8.544
 1020SOL    HW1 3740   1.620   1.458   8.502
 1020SOL    HW2 3741   1.714   1.412   8.611
 1021SOL     OW 3742   0.330   0.554   8.739
 1021SOL    HW1 3743   0.386   0.498   8.792
 1021SOL    HW2 3744   0.346   0.526   8.649
 1022SOL     OW 3745   0.828   1.576   8.123
 1022SOL    HW1 3746   0.822   1.625   8.041
 1022SOL    HW2 3747   0.749   1.522   8.124
 1023SOL     OW 3748   1.461   0.251   8.560
 1023SOL    HW1 3749   1.476   0.163   8.595
 1023SOL    HW2 3750   1.403   0.293   8.623
 1024SOL     OW 3751   1.006   0.030   8.596
 1024SOL    HW1 3752   0.930   3.980   8.565
 1024SOL    HW2 3753   1.076   3.965   8.602
 1025SOL     OW 3754   0.768   1.331   7.763
 1025SOL    HW1 3755   0.736   1.241   7.767
 1025SOL    HW2 3756   0.854   1.329   7.804
 1026SOL     OW 3757   0.620   1.558   8.732
 1026SOL    HW1 3758   0.623   1.639   8.783
 1026SOL    HW2 3759   0.707   1.551   8.694
 1027SOL     OW 3760   1.316   0.073   7.613
 1027SOL    HW1 3761   1.334   0.007   7.546
 1027SOL    HW2 3762   1.231   0.050   7.649
 1028SOL     OW 3763   1.286   0.458   8.136
 1028SOL    HW1 3764   1.238   0.540   8.132
 1028SOL    HW2 3765   1.290   0.436   8.229
 1029SOL     OW 3766   1.589   0.211   8.316
 1029SOL    HW1 3767   1.538   0.233   8.394
 1029SOL    HW2 3768   1.588   0.291   8.263
 1030SOL     OW 3769   0.045   1.052   7.688
 1030SOL    HW1 3770   0.139   1.036   7.679
 1030SOL    HW2 3771   0.011   0.973   7.729
 1031SOL     OW 3772   0.862   1.637   7.811
 1031SOL    HW1 3773   0.806   1.631   7.734
 1031SOL    HW2 3774   0.847   1.725   7.846
 1032SOL     OW 3775   0.232   0.624   9.429
 1032SOL    HW1 3776   0.139   0.630   9.451
 1032SOL    HW2 3777   0.234   0.596   9.338
 1033SOL     OW 3778   0.225   0.286  10.294
 1033SOL    HW1 3779   0.249   0.250  10.379
 1033SOL    HW2 3780   0.132   0.268  10.285
 1034SOL     OW 3781   0.018   0.388   9.944
 1034SOL    HW1 3782   3.930   0.397   9.981
 1034SOL    HW2 3783   0.025   0.294   9.924
 1035SOL     OW 3784   0.576   1.281  10.492
 1035SOL    HW1 3785   0.489   1.286  10.452
 1035SOL    HW2 3786   0.591   1.370  10.526
 1036SOL     OW 3787   1.561   1.513  10.017
 1036SOL    HW1 3788   1.518   1.495  10.101
 1036SOL    HW2 3789   1.490   1.519   9.954
 1037SOL     OW 3790   1.132   0.698  10.012
 1037SOL    HW1 3791   1.180   0.780   9.998
 1037SOL    HW2 3792   1.084   0.712  10.094
 1038SOL     OW 3793   1.759   0.618   9.539
 1038SOL    HW1 3794   1.742   0.609   9.445
 1038SOL    HW2 3795   1.751   0.529   9.573
 1039SOL     OW 3796   0.759   1.143  10.348
 1039SOL    HW1 3797   0.691   1.176  10.407
 1039SOL    HW2 3798   0.792   1.220  10.304
 1040SOL     OW 3799   0.865   0.778  11.132
 1040SOL    HW1 3800   0.854   0.850  11.194
 1040SOL    HW2 3801   0.888   0.821  11.050
 1041SOL     OW 3802   0.686   1.006   9.958
 1041SOL    HW1 3803   0.751   0.992  10.027
 1041SOL    HW2 3804   0.616   1.056  10.000
 1042SOL     OW 3805   0.709   1.150  11.121
 1042SOL    HW1 3806   0.757   1.229  11.147
 1042SOL    HW2 3807   0.626   1.183  11.087
 1043SOL     OW 3808   0.351   1.403  10.389
 1043SOL    HW1 3809   0.269   1.386  10.342
 1043SOL    HW2 3810   0.399   1.462  10.331
 1044SOL     OW 3811   1.461   1.499  10.662
 1044SOL    HW1 3812   1.510   1.581  10.671
 1044SOL    HW2 3813   1.404   1.497  10.738
 1045SOL     OW 3814   0.453   0.407  10.809
 1045SOL    HW1 3815   0.533   0.355  10.805
 1045SOL    HW2 3816   0.382   0.342  10.811
 1046SOL     OW 3817   1.613   0.451  10.045
 1046SOL    HW1 3818   1.540   0.482   9.992
 1046SOL    HW2 3819   1.636   0.526  10.100
 1047SOL     OW 3820   0.223   1.717   9.770
 1047SOL    HW1 3821   0.241   1.792   9.827
 1047SOL    HW2 3822   0.301   1.710   9.714
 1048SOL     OW 3823   1.136   1.341  11.002
 1048SOL    HW1 3824   1.177   1.337  11.089
 1048SOL    HW2 3825   1.084   1.261  10.996
 1049SOL     OW 3826   0.245   1.447   9.849
 1049SOL    HW1 3827   0.214   1.537   9.837
 1049SOL    HW2 3828   0.177   1.405   9.901
 1050SOL     OW 3829   0.246   1.070  10.195
 1050SOL    HW1 3830   0.264   0.986  10.237
 1050SOL    HW2 3831   0.194   1.118  10.259
 1051SOL     OW 3832   0.614   1.791  10.740
 1051SOL    HW1 3833   0.531   1.773  10.785
 1051SOL    HW2 3834   0.636   1.881  10.765
 1052SOL     OW 3835   0.583   0.983   9.445
 1052SOL    HW1 3836   0.628   1.030   9.376
 1052SOL    HW2 3837   0.626   1.011   9.526
 1053SOL     OW 3838   1.578   0.136  10.767
 1053SOL    HW1 3839   1.603   0.210  10.712
 1053SOL    HW2 3840   1.555   0.175  10.852
 1054SOL     OW 3841   0.138   0.649   9.879
 1054SOL    HW1 3842   0.094   0.564   9.885
 1054SOL    HW2 3843   0.102   0.699   9.952
 1055SOL     OW 3844   0.043   1.591   9.450
 1055SOL    HW1 3845   0.032   1.498   9.471
 1055SOL    HW2 3846   3.965   1.633   9.485
 1056SOL     OW 3847   1.687   0.917   9.948
 1056SOL    HW1 3848   1.773   0.878   9.932
 1056SOL    HW2 3849   1.669   0.969   9.870
 1057SOL     OW 3850   1.646   1.108   9.740
 1057SOL    HW1 3851   1.732   1.114   9.698
 1057SOL    HW2 3852   1.651   1.168   9.814
 1058SOL     OW 3853   0.134   0.753  10.900
 1058SOL    HW1 3854   0.229   0.747  10.904
 1058SOL    HW2 3855   0.115   0.845  10.917
 1059SOL     OW 3856   0.612   1.384  10.046
 1059SOL    HW1 3857   0.566   1.300  10.055
 1059SOL    HW2 3858   0.596   1.410   9.955
 1060SOL     OW 3859   1.289   1.239  10.734
 1060SOL    HW1 3860   1.322   1.171  10.674
 1060SOL    HW2 3861   1.346   1.232  10.811
 1061SOL     OW 3862   0.816   0.001   9.824
 1061SOL    HW1 3863   0.861   0.083   9.803
 1061SOL    HW2 3864   0.723   0.025   9.826
 1062SOL     OW 3865   0.186   0.955  10.585
 1062SOL    HW1 3866   0.274   0.920  10.571
 1062SOL    HW2 3867   0.131   0.908  10.522
 1063SOL     OW 3868   1.532   0.992   9.508
 1063SOL    HW1 3869   1.462   0.935   9.539
 1063SOL    HW2 3870   1.572   1.027   9.587
 1064SOL     OW 3871   1.185   1.805  10.931
 1064SOL    HW1 3872   1.199   1.863  10.857
 1064SOL    HW2 3873   1.201   1.717  10.897
 1065SOL     OW 3874   0.340   0.254  11.133
 1065SOL    HW1 3875   0.385   0.338  11.122
 1065SOL    HW2 3876   0.250   0.278  11.156
 1066SOL     OW 3877   1.465   1.420  10.262
 1066SOL    HW1 3878   1.397   1.434  10.328
 1066SOL    HW2 3879   1.453   1.328  10.235
 1067SOL     OW 3880   1.667   1.728   9.869
 1067SOL    HW1 3881   1.628   1.692   9.789
 1067SOL    HW2 3882   1.647   1.663   9.937
 1068SOL     OW 3883   0.595   0.720   9.573
 1068SOL    HW1 3884   0.603   0.802   9.525
 1068SOL    HW2 3885   0.533   0.738   9.643
 1069SOL     OW 3886   1.276   0.363  10.250
 1069SOL    HW1 3887   1.189   0.324  10.255
 1069SOL    HW2 3888   1.333   0.302  10.297
 1070SOL     OW 3889   1.576   1.668   9.611
 1070SOL    HW1 3890   1.661   1.708   9.595
 1070SOL    HW2 3891   1.543   1.645   9.525
 1071SOL     OW 3892   0.795   0.616  10.765
 1071SOL    HW1 3893   0.765   0.592  10.852
 1071SOL    HW2 3894   0.753   0.552  10.707
 1072SOL     OW 3895   1.393   0.477  10.987
 1072SOL    HW1 3896   1.396   0.521  11.072
 1072SOL    HW2 3897   1.453   0.403  10.996
 1073SOL     OW 3898   0.956   0.888  10.892
 1073SOL    HW1 3899   1.010   0.818  10.857
 1073SOL    HW2 3900   0.908   0.921  10.816
 1074SOL     OW 3901   0.991   0.404  10.551
 1074SOL    HW1 3902   0.909   0.430  10.593
 1074SOL    HW2 3903   0.965   0.371  10.465
 1075SOL     OW 3904   1.050   0.699   9.737
 1075SOL    HW1 3905   1.065   0.691   9.831
 1075SOL    HW2 3906   0.969   0.652   9.721
 1076SOL     OW 3907   0.081   0.824  10.101
 1076SOL    HW1 3908   0.160   0.794  10.146
 1076SOL    HW2 3909   0.092   0.919  10.094
 1077SOL     OW 3910   0.129   1.854  10.882
 1077SOL    HW1 3911   0.137   1.821  10.972
 1077SOL    HW2 3912   0.037   1.842  10.860
 1078SOL     OW 3913   0.891   0.350   9.508
 1078SOL    HW1 3914   0.933   0.408   9.445
 1078SOL    HW2 3915   0.894   0.264   9.466
 1079SOL     OW 3916   1.711   0.576  11.138
 1079SOL    HW1 3917   1.673   0.650  11.092
 1079SOL    HW2 3918   1.735   0.514  11.069
 1080SOL     OW 3919   1.376   1.142   9.851
 1080SOL    HW1 3920   1.455   1.129   9.799
 1080SOL    HW2 3921   1.324   1.204   9.801
 1081SOL     OW 3922   0.559   0.195  10.192
 1081SOL    HW1 3923   0.562   0.216  10.286
 1081SOL    HW2 3924   0.548   0.280  10.149
 1082SOL     OW 3925   1.007   1.445   9.783
 1082SOL    HW1 3926   0.968   1.517   9.734
 1082SOL    HW2 3927   0.991   1.467   9.874
 1083SOL     OW 3928   0.364   1.812  10.175
 1083SOL    HW1 3929   0.429   1.741  10.181
 1083SOL    HW2 3930   0.415   1.892  10.191
 1084SOL     OW 3931   1.798   1.056  10.178
 1084SOL    HW1 3932   1.742   1.043  10.102
 1084SOL    HW2 3933   1.737   1.063  10.252
 1085SOL     OW 3934   1.228   1.539  10.823
 1085SOL    HW1 3935   1.214   1.466  10.883
 1085SOL    HW2 3936   1.166   1.523  10.751
 1086SOL     OW 3937   0.310   0.956   9.552
 1086SOL    HW1 3938   0.396   0.978   9.514
 1086SOL    HW2 3939   0.296   0.864   9.526
 1087SOL     OW 3940   1.476   0.742  10.040
 1087SOL    HW1 3941   1.468   0.698  10.125
 1087SOL    HW2 3942   1.554   0.797  10.049
 1088SOL     OW 3943   0.465   1.260  11.047
 1088SOL    HW1 3944   0.438   1.268  10.955
 1088SOL    HW2 3945   0.383   1.265  11.096
 1089SOL     OW 3946   1.122   1.777   9.542
 1089SOL    HW1 3947   1.049   1.735   9.588
 1089SOL    HW2 3948   1.143   1.716   9.471
 1090SOL     OW 3949   0.199   0.296  10.808
 1090SOL    HW1 3950   0.105   0.318  10.805
 1090SOL    HW2 3951   0.206   0.233  10.879
 1091SOL     OW 3952   1.628   1.378   9.397
 1091SOL    HW1 3953   1.588   1.464   9.381
 1091SOL    HW2 3954   1.559   1.315   9.378
 1092SOL     OW 3955   0.467   1.739   9.629
 1092SOL    HW1 3956   0.508   1.797   9.693
 1092SOL    HW2 3957   0.539   1.708   9.574
 1093SOL     OW 3958   1.436   0.158   9.715
 1093SOL    HW1 3959   1.396   0.093   9.658
 1093SOL    HW2 3960   1.514   0.114   9.750
 1094SOL     OW 3961   0.250   1.792  10.542
 1094SOL    HW1 3962   0.299   1.730  10.596
 1094SOL    HW2 3963   0.245   1.750  10.457
 1095SOL     OW 3964   0.937   1.698  10.210
 1095SOL    HW1 3965   1.016   1.647  10.230
 1095SOL    HW2 3966   0.893   1.649  10.141
 1096SOL     OW 3967   0.394   0.694   9.783
 1096SOL    HW1 3968   0.421   0.604   9.796
 1096SOL    HW2 3969   0.302   0.696   9.809
 1097SOL     OW 3970   1.531   0.232  11.037
 1097SOL    HW1 3971   1.532   0.256  11.129
 1097SOL    HW2 3972   1.500   0.142  11.035
 1098SOL     OW 3973   0.642   0.136   9.411
 1098SOL    HW1 3974   0.675   0.057   9.453
 1098SOL    HW2 3975   0.580   0.104   9.345
 1099SOL     OW 3976   0.779   0.282  11.073
 1099SOL    HW1 3977   0.843   0.212  11.079
 1099SOL    HW2 3978   0.717   0.265  11.144
 1100SOL     OW 3979   0.876   1.521  10.504
 1100SOL    HW1 3980   0.862   1.485  10.416
 1100SOL    HW2 3981   0.946   1.467  10.541
 1101SOL     OW 3982   1.342   0.587  10.740
 1101SOL    HW1 3983   1.372   0.558  10.827
 1101SOL    HW2 3984   1.376   0.676  10.732
 1102SOL     OW 3985   0.814   1.397  10.247
 1102SOL    HW1 3986   0.898   1.385  10.204
 1102SOL    HW2 3987   0.750   1.395  10.176
 1103SOL     OW 3988   0.929   0.511  10.213
 1103SOL    HW1 3989   0.905   0.503  10.120
 1103SOL    HW2 3990   0.957   0.423  10.238
 1104SOL     OW 3991   0.546   0.057   9.801
 1104SOL    HW1 3992   0.471   0.064   9.860
 1104SOL    HW2 3993   0.548   0.141   9.755
 1105SOL     OW 3994   1.428   1.198   9.351
 1105SOL    HW1 3995   1.459   1.122   9.401
 1105SOL    HW2 3996   1.342   1.218   9.389
 1106SOL     OW 3997   0.333   0.045   9.504
 1106SOL    HW1 3998   0.364   0.087   9.424
 1106SOL    HW2 3999   0.413   0.025   9.553
 1107SOL     OW 4000   0.938   0.246   9.775
 1107SOL    HW1 4001   0.910   0.288   9.693
 1107SOL    HW2 4002   1.033   0.248   9.771
 1108SOL     OW 4003   1.079   0.681  10.769
 1108SOL    HW1 4004   1.008   0.617  10.777
 1108SOL    HW2 4005   1.159   0.627  10.764
 1109SOL     OW 4006   1.224   1.570  10.104
 1109SOL    HW1 4007   1.242   1.637  10.038
 1109SOL    HW2 4008   1.292   1.582  10.170
 1110SOL     OW 4009   0.466   1.149  10.049
 1110SOL    HW1 4010   0.393   1.126  10.107
 1110SOL    HW2 4011   0.433   1.133   9.961
 1111SOL     OW 4012   1.268   1.794   9.916
 1111SOL    HW1 4013   1.312   1.857   9.858
 1111SOL    HW2 4014   1.204   1.846   9.964
 1112SOL     OW 4015   1.025   0.547   9.333
 1112SOL    HW1 4016   0.982   0.630   9.314
 1112SOL    HW2 4017   1.087   0.568   9.402
 1113SOL     OW 4018   0.079   0.570  10.703
 1113SOL    HW1 4019   0.168   0.553  10.672
 1113SOL    HW2 4020   0.088   0.641  10.766
 1114SOL     OW 4021   0.572   0.232  10.470
 1114SOL    HW1 4022   0.596   0.140  10.481
 1114SOL    HW2 4023   0.481   0.236  10.500
 1115SOL     OW 4024   0.872   0.462   9.949
 1115SOL    HW1 4025   0.820   0.513   9.887
 1115SOL    HW2 4026   0.890   0.380   9.903
 1116SOL     OW 4027   0.994   0.042  10.089
 1116SOL    HW1 4028   0.961   0.066  10.002
 1116SOL    HW2 4029   1.004   3.947  10.085
 1117SOL     OW 4030   1.436   1.163  10.168
 1117SOL    HW1 4031   1.368   1.096  10.165
 1117SOL    HW2 4032   1.461   1.175  10.076
 1118SOL     OW 4033   1.467   0.603  10.289
 1118SOL    HW1 4034   1.416   0.522  10.295
 1118SOL    HW2 4035   1.528   0.599  10.362
 1119SOL     OW 4036   1.847   0.820   9.693
 1119SOL    HW1 4037   1.902   0.767   9.751
 1119SOL    HW2 4038   1.815   0.759   9.627
 1120SOL     OW 4039   0.489   1.416   9.472
 1120SOL    HW1 4040   0.414   1.384   9.522
 1120SOL    HW2 4041   0.468   1.394   9.381
 1121SOL     OW 4042   1.668   1.265   9.958
 1121SOL    HW1 4043   1.763   1.267   9.970
 1121SOL    HW2 4044   1.639   1.353   9.979
 1122SOL     OW 4045   1.394   0.573   9.380
 1122SOL    HW1 4046   1.333   0.554   9.451
 1122SOL    HW2 4047   1.480   0.552   9.417
 1123SOL     OW 4048   0.557   0.270   9.631
 1123SOL    HW1 4049   0.598   0.229   9.554
 1123SOL    HW2 4050   0.529   0.355   9.600
 1124SOL     OW 4051   1.753   1.238  10.886
 1124SOL    HW1 4052   1.840   1.199  10.881
 1124SOL    HW2 4053   1.768   1.328  10.914
 1125SOL     OW 4054   1.059   1.353  10.644
 1125SOL    HW1 4055   0.985   1.322  10.695
 1125SOL    HW2 4056   1.135   1.312  10.685
 1126SOL     OW 4057   1.606   1.625  10.962
 1126SOL    HW1 4058   1.602   1.661  10.873
 1126SOL    HW2 4059   1.690   1.579  10.966
 1127SOL     OW 4060   1.127   1.202  10.416
 1127SOL    HW1 4061   1.069   1.240  10.482
 1127SOL    HW2 4062   1.094   1.234  10.333
 1128SOL     OW 4063   1.629   1.099  10.388
 1128SOL    HW1 4064   1.625   1.161  10.461
 1128SOL    HW2 4065   1.550   1.116  10.337
 1129SOL     OW 4066   0.914   0.110  10.712
 1129SOL    HW1 4067   0.933   0.086  10.621
 1129SOL    HW2 4068   0.994   0.153  10.743
 1130SOL     OW 4069   0.984   1.115  11.033
 1130SOL    HW1 4070   0.892   1.130  11.053
 1130SOL    HW2 4071   0.984   1.037  10.976
 1131SOL     OW 4072   0.708   1.060   9.681
 1131SOL    HW1 4073   0.694   1.046   9.775
 1131SOL    HW2 4074   0.784   1.007   9.659
 1132SOL     OW 4075   0.420   0.815  10.562
 1132SOL    HW1 4076   0.489   0.822  10.628
 1132SOL    HW2 4077   0.385   0.726  10.572
 1133SOL     OW 4078   1.267   0.375  10.585
 1133SOL    HW1 4079   1.301   0.453  10.630
 1133SOL    HW2 4080   1.180   0.402  10.554
 1134SOL     OW 4081   0.064   1.579  10.655
 1134SOL    HW1 4082   0.066   1.648  10.588
 1134SOL    HW2 4083   0.156   1.566  10.678
 1135SOL     OW 4084   0.376   1.103   9.796
 1135SOL    HW1 4085   0.367   1.180   9.740
 1135SOL    HW2 4086   0.373   1.028   9.736
 1136SOL     OW 4087   0.556   0.538  10.170
 1136SOL    HW1 4088   0.572   0.595  10.095
 1136SOL    HW2 4089   0.620   0.566  10.236
 1137SOL     OW 4090   1.248   1.348   9.699
 1137SOL    HW1 4091   1.303   1.419   9.731
 1137SOL    HW2 4092   1.161   1.369   9.733
 1138SOL     OW 4093   1.279   1.457  10.457
 1138SOL    HW1 4094   1.335   1.460  10.534
 1138SOL    HW2 4095   1.224   1.379  10.469
 1139SOL     OW 4096   1.579   0.631   9.793
 1139SOL    HW1 4097   1.538   0.692   9.855
 1139SOL    HW2 4098   1.626   0.688   9.732
 1140SOL     OW 4099   0.346   1.525  10.630
 1140SOL    HW1 4100   0.336   1.475  10.549
 1140SOL    HW2 4101   0.440   1.541  10.637
 1141SOL     OW 4102   0.412   0.740  10.911
 1141SOL    HW1 4103   0.473   0.787  10.854
 1141SOL    HW2 4104   0.453   0.654  10.925
 1142SOL     OW 4105   1.599   0.778  10.992
 1142SOL    HW1 4106   1.513   0.819  10.984
 1142SOL    HW2 4107   1.652   0.819  10.923
 1143SOL     OW 4108   1.020   0.122  11.087
 1143SOL    HW1 4109   1.056   0.200  11.046
 1143SOL    HW2 4110   1.010   0.059  11.016
 1144SOL     OW 4111   0.479   0.036  11.077
 1144SOL    HW1 4112   0.492   0.039  10.982
 1144SOL    HW2 4113   0.419   0.109  11.096
 1145SOL     OW 4114   0.584   0.873  10.341
 1145SOL    HW1 4115   0.613   0.964  10.340
 1145SOL    HW2 4116   0.527   0.867  10.418
 1146SOL     OW 4117   1.359   0.859  10.341
 1146SOL    HW1 4118   1.277   0.850  10.293
 1146SOL    HW2 4119   1.398   0.771  10.337
 1147SOL     OW 4120   1.205   0.534   9.574
 1147SOL    HW1 4121   1.213   0.455   9.627
 1147SOL    HW2 4122   1.162   0.597   9.631
 1148SOL     OW 4123   0.313   0.214  10.551
 1148SOL    HW1 4124   0.272   0.248  10.631
 1148SOL    HW2 4125   0.294   0.120  10.553
 1149SOL     OW 4126   0.057   1.305  10.590
 1149SOL    HW1 4127   0.090   1.265  10.670
 1149SOL    HW2 4128   0.050   1.398  10.610
 1150SOL     OW 4129   0.727   0.634  10.367
 1150SOL    HW1 4130   0.799   0.617  10.307
 1150SOL    HW2 4131   0.698   0.723  10.344
 1151SOL     OW 4132   1.734   0.959  11.162
 1151SOL    HW1 4133   1.687   0.901  11.102
 1151SOL    HW2 4134   1.675   0.971  11.236
 1152SOL     OW 4135   0.325   0.056   9.958
 1152SOL    HW1 4136   0.297   0.147   9.959
 1152SOL    HW2 4137   0.285   0.017  10.036
 1153SOL     OW 4138   1.600   0.386   9.693
 1153SOL    HW1 4139   1.576   0.319   9.757
 1153SOL    HW2 4140   1.581   0.469   9.737
 1154SOL     OW 4141   1.028   0.760  10.271
 1154SOL    HW1 4142   1.025   0.777  10.365
 1154SOL    HW2 4143   1.001   0.668  10.263
 1155SOL     OW 4144   0.982   1.566  11.026
 1155SOL    HW1 4145   0.967   1.610  10.942
 1155SOL    HW2 4146   1.026   1.484  11.002
 1156SOL     OW 4147   1.855   1.506  10.916
 1156SOL    HW1 4148   1.871   1.534  10.825
 1156SOL    HW2 4149   1.939   1.520  10.960
 1157SOL     OW 4150   0.351   0.920  11.111
 1157SOL    HW1 4151   0.430   0.940  11.161
 1157SOL    HW2 4152   0.379   0.854  11.047
 1158SOL     OW 4153   1.510   0.276   9.446
 1158SOL    HW1 4154   1.435   0.219   9.459
 1158SOL    HW2 4155   1.524   0.317   9.531
 1159SOL     OW 4156   1.293   0.827   9.342
 1159SOL    HW1 4157   1.334   0.741   9.344
 1159SOL    HW2 4158   1.324   0.866   9.260
 1160SOL     OW 4159   1.064   1.335  10.163
 1160SOL    HW1 4160   1.068   1.263  10.101
 1160SOL    HW2 4161   1.127   1.399  10.129
 1161SOL     OW 4162   0.313   0.806  10.261
 1161SOL    HW1 4163   0.407   0.823  10.255
 1161SOL    HW2 4164   0.307   0.716  10.293
 1162SOL     OW 4165   0.337   0.527  10.323
 1162SOL    HW1 4166   0.298   0.441  10.305
 1162SOL    HW2 4167   0.413   0.531  10.264
 1163SOL     OW 4168   1.134   0.383  11.001
 1163SOL    HW1 4169   1.087   0.438  11.064
 1163SOL    HW2 4170   1.221   0.421  10.997
 1164SOL     OW 4171   1.151   0.224  10.791
 1164SOL    HW1 4172   1.143   0.279  10.869
 1164SOL    HW2 4173   1.173   0.285  10.721
 1165SOL     OW 4174   3.999   1.320   9.492
 1165SOL    HW1 4175   3.905   1.336   9.497
 1165SOL    HW2 4176   0.009   1.227   9.512
 1166SOL     OW 4177   0.076   1.801  10.200
 1166SOL    HW1 4178   0.077   1.705  10.209
 1166SOL    HW2 4179   0.168   1.826  10.203
 1167SOL     OW 4180   0.504   1.570  10.220
 1167SOL    HW1 4181   0.573   1.631  10.245
 1167SOL    HW2 4182   0.547   1.506  10.163
 1168SOL     OW 4183   0.985   0.792  10.537
 1168SOL    HW1 4184   1.038   0.769  10.613
 1168SOL    HW2 4185   0.899   0.756  10.556
 1169SOL     OW 4186   0.036   0.566  10.423
 1169SOL    HW1 4187   0.103   0.519  10.373
 1169SOL    HW2 4188   0.061   0.553  10.515
 1170SOL     OW 4189   0.209   0.516  11.031
 1170SOL    HW1 4190   0.259   0.481  10.958
 1170SOL    HW2 4191   0.158   0.588  10.993
 1171SOL     OW 4192   1.376   0.940  10.969
 1171SOL    HW1 4193   1.398   1.033  10.968
 1171SOL    HW2 4194   1.374   0.915  10.876
 1172SOL     OW 4195   0.817   0.572   9.667
 1172SOL    HW1 4196   0.822   0.494   9.610
 1172SOL    HW2 4197   0.742   0.621   9.634
 1173SOL     OW 4198   1.642   0.601  10.497
 1173SOL    HW1 4199   1.632   0.541  10.571
 1173SOL    HW2 4200   1.729   0.583  10.463
 1174SOL     OW 4201   0.296   1.546  11.041
 1174SOL    HW1 4202   0.246   1.616  11.083
 1174SOL    HW2 4203   0.262   1.465  11.079
 1175SOL     OW 4204   0.700   0.457  10.571
 1175SOL    HW1 4205   0.653   0.378  10.544
 1175SOL    HW2 4206   0.694   0.516  10.495
 1176SOL     OW 4207   0.928   1.679  10.777
 1176SOL    HW1 4208   0.903   1.646  10.691
 1176SOL    HW2 4209   0.926   1.774  10.768
 1177SOL     OW 4210   0.459   0.492   9.504
 1177SOL    HW1 4211   0.523   0.561   9.521
 1177SOL    HW2 4212   0.377   0.539   9.484
 1178SOL     OW 4213   0.157   1.136  10.782
 1178SOL    HW1 4214   0.161   1.084  10.862
 1178SOL    HW2 4215   0.172   1.073  10.712
 1179SOL     OW 4216   1.327   1.048  10.534
 1179SOL    HW1 4217   1.351   0.985  10.466
 1179SOL    HW2 4218   1.256   1.099  10.496
 1180SOL     OW 4219   1.310   0.856   9.617
 1180SOL    HW1 4220   1.234   0.827   9.666
 1180SOL    HW2 4221   1.286   0.843   9.525
 1181SOL     OW 4222   1.744   1.740  10.448
 1181SOL    HW1 4223   1.819   1.763  10.393
 1181SOL    HW2 4224   1.730   1.647  10.432
 1182SOL     OW 4225   1.243   1.733  10.424
 1182SOL    HW1 4226   1.325   1.753  10.379
 1182SOL    HW2 4227   1.247   1.640  10.442
 1183SOL     OW 4228   0.076   1.218  10.337
 1183SOL    HW1 4229   0.082   1.243  10.429
 1183SOL    HW2 4230   3.983   1.224  10.316
 1184SOL     OW 4231   0.679   1.665  11.037
 1184SOL    HW1 4232   0.624   1.743  11.032
 1184SOL    HW2 4233   0.742   1.676  10.967
 1185SOL     OW 4234   1.710   0.128   9.795
 1185SOL    HW1 4235   1.790   0.133   9.744
 1185SOL    HW2 4236   1.701   0.035   9.818
 1186SOL     OW 4237   1.389   1.567   9.794
 1186SOL    HW1 4238   1.447   1.599   9.725
 1186SOL    HW2 4239   1.341   1.645   9.823
 1187SOL     OW 4240   0.172   1.767  11.138
 1187SOL    HW1 4241   0.112   1.720  11.196
 1187SOL    HW2 4242   0.214   1.832  11.195
 1188SOL     OW 4243   1.277   0.925   9.981
 1188SOL    HW1 4244   1.351   0.865   9.988
 1188SOL    HW2 4245   1.311   0.998   9.929
 1189SOL     OW 4246   0.816   1.272  10.741
 1189SOL    HW1 4247   0.789   1.312  10.824
 1189SOL    HW2 4248   0.745   1.292  10.680
 1190SOL     OW 4249   0.671   1.618   9.465
 1190SOL    HW1 4250   0.681   1.629   9.371
 1190SOL    HW2 4251   0.617   1.539   9.475
 1191SOL     OW 4252   1.628   1.728  10.701
 1191SOL    HW1 4253   1.673   1.735  10.617
 1191SOL    HW2 4254   1.617   1.818  10.730
 1192SOL     OW 4255   1.838   0.176  10.278
 1192SOL    HW1 4256   1.869   0.102  10.225
 1192SOL    HW2 4257   1.751   0.194  10.244
 1193SOL     OW 4258   0.272   0.324  10.025
 1193SOL    HW1 4259   0.187   0.359  10.001
 1193SOL    HW2 4260   0.264   0.306  10.119
 1194SOL     OW 4261   1.206   1.607   9.341
 1194SOL    HW1 4262   1.197   1.515   9.368
 1194SOL    HW2 4263   1.141   1.618   9.272
 1195SOL     OW 4264   0.824   1.005  10.682
 1195SOL    HW1 4265   0.867   1.002  10.597
 1195SOL    HW2 4266   0.824   1.098  10.705
 1196SOL     OW 4267   0.915   0.910   9.599
 1196SOL    HW1 4268   0.977   0.942   9.534
 1196SOL    HW2 4269   0.962   0.840   9.645
 1197SOL     OW 4270   1.491   1.623   9.351
 1197SOL    HW1 4271   1.396   1.619   9.337
 1197SOL    HW2 4272   1.528   1.630   9.263
 1198SOL     OW 4273   0.373   1.302  10.801
 1198SOL    HW1 4274   0.358   1.383  10.752
 1198SOL    HW2 4275   0.296   1.248  10.784
 1199SOL     OW 4276   1.610   1.282  10.591
 1199SOL    HW1 4277   1.671   1.274  10.665
 1199SOL    HW2 4278   1.551   1.352  10.617
 1200SOL     OW 4279   1.050   1.106  10.016
 1200SOL    HW1 4280   0.980   1.055  10.055
 1200SOL    HW2 4281   1.112   1.041   9.983
 1201SOL     OW 4282   1.015   0.247  10.277
 1201SOL    HW1 4283   1.004   0.198  10.196
 1201SOL    HW2 4284   1.008   0.182  10.347
 1202SOL     OW 4285   0.604   1.489   9.792
 1202SOL    HW1 4286   0.645   1.438   9.723
 1202SOL    HW2 4287   0.534   1.538   9.748
 1203SOL     OW 4288   1.719   0.391  10.685
 1203SOL    HW1 4289   1.790   0.455  10.687
 1203SOL    HW2 4290   1.752   0.320  10.631
 1204SOL     OW 4291   0.252   1.342   9.601
 1204SOL    HW1 4292   0.160   1.353   9.580
 1204SOL    HW2 4293   0.262   1.380   9.688
 1205SOL     OW 4294   0.105   1.001  11.028
 1205SOL    HW1 4295   0.044   0.989  11.101
 1205SOL    HW2 4296   0.191   0.980  11.065
 1206SOL     OW 4297   0.693   0.243  10.806
 1206SOL    HW1 4298   0.763   0.191  10.766
 1206SOL    HW2 4299   0.718   0.250  10.898
 1207SOL     OW 4300   0.088   0.326   9.338
 1207SOL    HW1 4301   3.992   0.321   9.333
 1207SOL    HW2 4302   0.109   0.408   9.294
 1208SOL     OW 4303   1.430   0.857  10.710
 1208SOL    HW1 4304   1.382   0.919  10.655
 1208SOL    HW2 4305   1.520   0.860  10.677
 1209SOL     OW 4306   0.039   0.162   9.593
 1209SOL    HW1 4307   0.038   0.243   9.543
 1209SOL    HW2 4308   0.120   0.167   9.644
 1210SOL     OW 4309   1.179   1.341   9.427
 1210SOL    HW1 4310   1.088   1.310   9.430
 1210SOL    HW2 4311   1.207   1.340   9.518
 1211SOL     OW 4312   0.619   0.830  10.745
 1211SOL    HW1 4313   0.675   0.906  10.729
 1211SOL    HW2 4314   0.679   0.756  10.753
 1212SOL     OW 4315   1.489   1.778  10.288
 1212SOL    HW1 4316   1.513   1.840  10.220
 1212SOL    HW2 4317   1.570   1.762  10.336
 1213SOL     OW 4318   0.716   0.564  11.018
 1213SOL    HW1 4319   0.757   0.627  11.077
 1213SOL    HW2 4320   0.749   0.479  11.046
 1214SOL     OW 4321   1.470   1.201  10.942
 1214SOL    HW1 4322   1.458   1.215  11.036
 1214SOL    HW2 4323   1.564   1.215  10.928
 1215SOL     OW 4324   0.381   1.741  10.869
 1215SOL    HW1 4325   0.293   1.779  10.856
 1215SOL    HW2 4326   0.365   1.660  10.917
 1216SOL     OW 4327   1.670   0.882  10.566
 1216SOL    HW1 4328   1.664   0.796  10.523
 1216SOL    HW2 4329   1.662   0.945  10.495
 1217SOL     OW 4330   1.225   0.333   9.756
 1217SOL    HW1 4331   1.291   0.265   9.748
 1217SOL    HW2 4332   1.247   0.378   9.838
 1218SOL     OW 4333   0.592   0.740   9.978
 1218SOL    HW1 4334   0.629   0.827   9.961
 1218SOL    HW2 4335   0.522   0.731   9.914
 1219SOL     OW 4336   1.755   0.380  10.953
 1219SOL    HW1 4337   1.737   0.385  10.859
 1219SOL    HW2 4338   1.696   0.311  10.985
 1220SOL     OW 4339   1.743   0.934  10.823
 1220SOL    HW1 4340   1.744   1.029  10.836
 1220SOL    HW2 4341   1.729   0.922  10.729
 1221SOL     OW 4342   0.863   1.368   9.342
 1221SOL    HW1 4343   0.823   1.395   9.425
 1221SOL    HW2 4344   0.881   1.450   9.296
 1222SOL     OW 4345   0.660   1.792  10.255
 1222SOL    HW1 4346   0.639   1.882  10.232
 1222SOL    HW2 4347   0.756   1.787  10.248
 1223SOL     OW 4348   0.867   0.965  10.165
 1223SOL    HW1 4349   0.917   0.895  10.205
 1223SOL    HW2 4350   0.833   1.016  10.239
 1224SOL     OW 4351   1.079   0.988   9.399
 1224SOL    HW1 4352   1.058   1.039   9.320
 1224SOL    HW2 4353   1.155   0.935   9.373
 1225SOL     OW 4354   1.849   1.543  10.143
 1225SOL    HW1 4355   1.764   1.539  10.097
 1225SOL    HW2 4356   1.839   1.483  10.216
 1226SOL     OW 4357   0.223   1.303  11.165
 1226SOL    HW1 4358   0.153   1.243  11.140
 1226SOL    HW2 4359   0.210   1.317  11.259
 1227SOL     OW 4360   0.113   1.273  10.026
 1227SOL    HW1 4361   0.120   1.222  10.106
 1227SOL    HW2 4362   0.112   1.208   9.956
 1228SOL     OW 4363   0.680   1.402  10.937
 1228SOL    HW1 4364   0.599   1.359  10.967
 1228SOL    HW2 4365   0.675   1.490  10.974
 1229SOL     OW 4366   1.813   0.184  10.549
 1229SOL    HW1 4367   1.816   0.089  10.563
 1229SOL    HW2 4368   1.827   0.195  10.455
 1230SOL     OW 4369   0.441   0.436   9.840
 1230SOL    HW1 4370   0.453   0.361   9.781
 1230SOL    HW2 4371   0.386   0.402   9.911
 1231SOL     OW 4372   1.703   1.480  10.404
 1231SOL    HW1 4373   1.620   1.459  10.362
 1231SOL    HW2 4374   1.714   1.413  10.471
 1232SOL     OW 4375   0.330   0.554  10.601
 1232SOL    HW1 4376   0.386   0.498  10.655
 1232SOL    HW2 4377   0.346   0.526  10.511
 1233SOL     OW 4378   0.826   1.578   9.988
 1233SOL    HW1 4379   0.817   1.629   9.908
 1233SOL    HW2 4380   0.749   1.522   9.989
 1234SOL     OW 4381   1.461   0.251  10.421
 1234SOL    HW1 4382   1.477   0.164  10.458
 1234SOL    HW2 4383   1.403   0.293  10.485
 1235SOL     OW 4384   1.006   0.030  10.458
 1235SOL    HW1 4385   0.931   3.979  10.428
 1235SOL    HW2 4386   1.077   3.966  10.465
 1236SOL     OW 4387   0.771   1.332   9.623
 1236SOL    HW1 4388   0.739   1.242   9.629
 1236SOL    HW2 4389   0.854   1.332   9.671
 1237SOL     OW 4390   0.620   1.558  10.594
 1237SOL    HW1 4391   0.623   1.639  10.645
 1237SOL    HW2 4392   0.707   1.550  10.556
 1238SOL     OW 4393   1.316   0.074   9.473
 1238SOL    HW1 4394   1.335   0.005   9.409
 1238SOL    HW2 4395   1.231   0.049   9.510
 1239SOL     OW 4396   1.286   0.458   9.997
 1239SOL    HW1 4397   1.237   0.540   9.995
 1239SOL    HW2 4398   1.290   0.436  10.090
 1240SOL     OW 4399   1.588   0.211  10.177
 1240SOL    HW1 4400   1.538   0.232  10.256
 1240SOL    HW2 4401   1.588   0.291  10.125
 1241SOL     OW 4402   0.045   1.052   9.550
 1241SOL    HW1 4403   0.139   1.035   9.542
 1241SOL    HW2 4404   0.010   0.972   9.590
 1242SOL     OW 4405   0.883   1.652   9.653
 1242SOL    HW1 4406   0.811   1.634   9.593
 1242SOL    HW2 4407   0.854   1.727   9.704
 1243SOL     OW 4408   0.232   0.624  11.291
 1243SOL    HW1 4409   0.139   0.630  11.313
 1243SOL    HW2 4410   0.234   0.596  11.200
 1244SOL     OW 4411   0.225   0.286  12.156
 1244SOL    HW1 4412   0.249   0.250  12.241
 1244SOL    HW2 4413   0.132   0.268  12.147
 1245SOL     OW 4414   0.017   0.387  11.806
 1245SOL    HW1 4415   3.930   0.397  11.843
 1245SOL    HW2 4416   0.025   0.294  11.786
 1246SOL     OW 4417   0.576   1.281  12.354
 1246SOL    HW1 4418   0.489   1.286  12.314
 1246SOL    HW2 4419   0.591   1.370  12.388
 1247SOL     OW 4420   1.561   1.513  11.879
 1247SOL    HW1 4421   1.518   1.495  11.963
 1247SOL    HW2 4422   1.490   1.519  11.816
 1248SOL     OW 4423   1.132   0.698  11.874
 1248SOL    HW1 4424   1.180   0.780  11.860
 1248SOL    HW2 4425   1.084   0.712  11.956
 1249SOL     OW 4426   1.759   0.618  11.401
 1249SOL    HW1 4427   1.742   0.609  11.307
 1249SOL    HW2 4428   1.751   0.529  11.435
 1250SOL     OW 4429   0.759   1.143  12.210
 1250SOL    HW1 4430   0.691   1.176  12.269
 1250SOL    HW2 4431   0.792   1.220  12.166
 1251SOL     OW 4432   0.865   0.778  12.994
 1251SOL    HW1 4433   0.854   0.850  13.056
 1251SOL    HW2 4434   0.888   0.820  12.911
 1252SOL     OW 4435   0.686   1.006  11.820
 1252SOL    HW1 4436   0.751   0.992  11.889
 1252SOL    HW2 4437   0.616   1.056  11.862
 1253SOL     OW 4438   0.709   1.150  12.983
 1253SOL    HW1 4439   0.757   1.229  13.009
 1253SOL    HW2 4440   0.626   1.183  12.948
 1254SOL     OW 4441   0.351   1.404  12.251
 1254SOL    HW1 4442   0.269   1.386  12.204
 1254SOL    HW2 4443   0.399   1.462  12.193
 1255SOL     OW 4444   1.462   1.499  12.524
 1255SOL    HW1 4445   1.510   1.581  12.533
 1255SOL    HW2 4446   1.404   1.497  12.600
 1256SOL     OW 4447   0.453   0.407  12.672
 1256SOL    HW1 4448   0.533   0.355  12.667
 1256SOL    HW2 4449   0.382   0.342  12.673
 1257SOL     OW 4450   1.613   0.451  11.907
 1257SOL    HW1 4451   1.540   0.482  11.854
 1257SOL    HW2 4452   1.636   0.526  11.962
 1258SOL     OW 4453   0.223   1.717  11.632
 1258SOL    HW1 4454   0.241   1.792  11.689
 1258SOL    HW2 4455   0.301   1.709  11.576
 1259SOL     OW 4456   1.136   1.341  12.864
 1259SOL    HW1 4457   1.176   1.337  12.951
 1259SOL    HW2 4458   1.084   1.261  12.858
 1260SOL     OW 4459   0.245   1.447  11.711
 1260SOL    HW1 4460   0.214   1.537  11.699
 1260SOL    HW2 4461   0.177   1.405  11.763
 1261SOL     OW 4462   0.246   1.070  12.057
 1261SOL    HW1 4463   0.264   0.986  12.099
 1261SOL    HW2 4464   0.194   1.118  12.121
 1262SOL     OW 4465   0.614   1.791  12.602
 1262SOL    HW1 4466   0.531   1.773  12.647
 1262SOL    HW2 4467   0.636   1.881  12.627
 1263SOL     OW 4468   0.583   0.983  11.307
 1263SOL    HW1 4469   0.628   1.030  11.238
 1263SOL    HW2 4470   0.626   1.011  11.388
 1264SOL     OW 4471   1.578   0.136  12.629
 1264SOL    HW1 4472   1.603   0.210  12.574
 1264SOL    HW2 4473   1.555   0.175  12.713
 1265SOL     OW 4474   0.138   0.649  11.742
 1265SOL    HW1 4475   0.094   0.564  11.747
 1265SOL    HW2 4476   0.102   0.699  11.814
 1266SOL     OW 4477   0.043   1.591  11.312
 1266SOL    HW1 4478   0.032   1.498  11.333
 1266SOL    HW2 4479   3.965   1.633  11.347
 1267SOL     OW 4480   1.687   0.916  11.810
 1267SOL    HW1 4481   1.773   0.878  11.794
 1267SOL    HW2 4482   1.668   0.969  11.732
 1268SOL     OW 4483   1.646   1.108  11.602
 1268SOL    HW1 4484   1.732   1.114  11.560
 1268SOL    HW2 4485   1.651   1.168  11.676
 1269SOL     OW 4486   0.134   0.753  12.762
 1269SOL    HW1 4487   0.229   0.747  12.766
 1269SOL    HW2 4488   0.115   0.845  12.779
 1270SOL     OW 4489   0.612   1.384  11.908
 1270SOL    HW1 4490   0.566   1.300  11.917
 1270SOL    HW2 4491   0.596   1.410  11.817
 1271SOL     OW 4492   1.289   1.238  12.596
 1271SOL    HW1 4493   1.322   1.171  12.536
 1271SOL    HW2 4494   1.346   1.232  12.673
 1272SOL     OW 4495   0.816   0.001  11.686
 1272SOL    HW1 4496   0.861   0.083  11.665
 1272SOL    HW2 4497   0.723   0.025  11.688
 1273SOL     OW 4498   0.186   0.954  12.447
 1273SOL    HW1 4499   0.274   0.919  12.433
 1273SOL    HW2 4500   0.131   0.908  12.384
 1274SOL     OW 4501   1.532   0.992  11.370
 1274SOL    HW1 4502   1.462   0.935  11.401
 1274SOL    HW2 4503   1.572   1.027  11.449
 1275SOL     OW 4504   1.185   1.805  12.793
 1275SOL    HW1 4505   1.199   1.863  12.719
 1275SOL    HW2 4506   1.201   1.717  12.759
 1276SOL     OW 4507   0.339   0.254  12.994
 1276SOL    HW1 4508   0.385   0.338  12.983
 1276SOL    HW2 4509   0.250   0.279  13.018
 1277SOL     OW 4510   1.465   1.420  12.124
 1277SOL    HW1 4511   1.397   1.434  12.190
 1277SOL    HW2 4512   1.453   1.328  12.097
 1278SOL     OW 4513   1.667   1.728  11.731
 1278SOL    HW1 4514   1.628   1.693  11.651
 1278SOL    HW2 4515   1.647   1.663  11.799
 1279SOL     OW 4516   0.595   0.720  11.435
 1279SOL    HW1 4517   0.603   0.802  11.387
 1279SOL    HW2 4518   0.533   0.738  11.505
 1280SOL     OW 4519   1.276   0.363  12.112
 1280SOL    HW1 4520   1.189   0.324  12.117
 1280SOL    HW2 4521   1.333   0.302  12.159
 1281SOL     OW 4522   1.576   1.669  11.473
 1281SOL    HW1 4523   1.662   1.707  11.457
 1281SOL    HW2 4524   1.543   1.645  11.387
 1282SOL     OW 4525   0.795   0.616  12.627
 1282SOL    HW1 4526   0.765   0.592  12.715
 1282SOL    HW2 4527   0.753   0.552  12.569
 1283SOL     OW 4528   1.393   0.477  12.849
 1283SOL    HW1 4529   1.396   0.521  12.934
 1283SOL    HW2 4530   1.453   0.403  12.858
 1284SOL     OW 4531   0.956   0.888  12.754
 1284SOL    HW1 4532   1.010   0.818  12.719
 1284SOL    HW2 4533   0.908   0.921  12.678
 1285SOL     OW 4534   0.991   0.404  12.413
 1285SOL    HW1 4535   0.908   0.429  12.455
 1285SOL    HW2 4536   0.965   0.371  12.327
 1286SOL     OW 4537   1.050   0.699  11.599
 1286SOL    HW1 4538   1.065   0.691  11.693
 1286SOL    HW2 4539   0.969   0.652  11.583
 1287SOL     OW 4540   0.081   0.824  11.963
 1287SOL    HW1 4541   0.160   0.794  12.008
 1287SOL    HW2 4542   0.092   0.919  11.956
 1288SOL     OW 4543   0.129   1.854  12.745
 1288SOL    HW1 4544   0.137   1.821  12.834
 1288SOL    HW2 4545   0.037   1.842  12.722
 1289SOL     OW 4546   0.891   0.350  11.370
 1289SOL    HW1 4547   0.933   0.408  11.307
 1289SOL    HW2 4548   0.895   0.264  11.328
 1290SOL     OW 4549   1.711   0.576  13.000
 1290SOL    HW1 4550   1.673   0.651  12.954
 1290SOL    HW2 4551   1.735   0.515  12.931
 1291SOL     OW 4552   1.376   1.142  11.713
 1291SOL    HW1 4553   1.455   1.129  11.661
 1291SOL    HW2 4554   1.324   1.204  11.663
 1292SOL     OW 4555   0.559   0.195  12.054
 1292SOL    HW1 4556   0.562   0.216  12.148
 1292SOL    HW2 4557   0.548   0.280  12.011
 1293SOL     OW 4558   1.007   1.445  11.645
 1293SOL    HW1 4559   0.968   1.517  11.596
 1293SOL    HW2 4560   0.991   1.467  11.737
 1294SOL     OW 4561   0.364   1.812  12.037
 1294SOL    HW1 4562   0.429   1.741  12.043
 1294SOL    HW2 4563   0.415   1.892  12.053
 1295SOL     OW 4564   1.798   1.056  12.041
 1295SOL    HW1 4565   1.742   1.043  11.964
 1295SOL    HW2 4566   1.737   1.062  12.114
 1296SOL     OW 4567   1.228   1.539  12.685
 1296SOL    HW1 4568   1.214   1.466  12.745
 1296SOL    HW2 4569   1.167   1.523  12.613
 1297SOL     OW 4570   0.310   0.956  11.414
 1297SOL    HW1 4571   0.396   0.978  11.376
 1297SOL    HW2 4572   0.296   0.864  11.388
 1298SOL     OW 4573   1.476   0.742  11.902
 1298SOL    HW1 4574   1.468   0.698  11.987
 1298SOL    HW2 4575   1.554   0.797  11.911
 1299SOL     OW 4576   0.465   1.259  12.909
 1299SOL    HW1 4577   0.438   1.268  12.817
 1299SOL    HW2 4578   0.383   1.265  12.958
 1300SOL     OW 4579   1.121   1.777  11.404
 1300SOL    HW1 4580   1.049   1.735  11.450
 1300SOL    HW2 4581   1.143   1.716  11.333
 1301SOL     OW 4582   0.199   0.296  12.670
 1301SOL    HW1 4583   0.106   0.318  12.667
 1301SOL    HW2 4584   0.206   0.232  12.741
 1302SOL     OW 4585   1.628   1.378  11.259
 1302SOL    HW1 4586   1.588   1.464  11.243
 1302SOL    HW2 4587   1.559   1.315  11.240
 1303SOL     OW 4588   0.466   1.739  11.491
 1303SOL    HW1 4589   0.508   1.797  11.555
 1303SOL    HW2 4590   0.539   1.708  11.436
 1304SOL     OW 4591   1.436   0.158  11.578
 1304SOL    HW1 4592   1.396   0.093  11.520
 1304SOL    HW2 4593   1.514   0.115  11.612
 1305SOL     OW 4594   0.250   1.792  12.404
 1305SOL    HW1 4595   0.300   1.730  12.458
 1305SOL    HW2 4596   0.245   1.750  12.319
 1306SOL     OW 4597   0.937   1.698  12.072
 1306SOL    HW1 4598   1.016   1.647  12.092
 1306SOL    HW2 4599   0.893   1.649  12.003
 1307SOL     OW 4600   0.394   0.694  11.645
 1307SOL    HW1 4601   0.421   0.604  11.658
 1307SOL    HW2 4602   0.302   0.696  11.671
 1308SOL     OW 4603   1.531   0.232  12.898
 1308SOL    HW1 4604   1.533   0.256  12.991
 1308SOL    HW2 4605   1.500   0.141  12.897
 1309SOL     OW 4606   0.642   0.136  11.272
 1309SOL    HW1 4607   0.675   0.057  11.315
 1309SOL    HW2 4608   0.580   0.104  11.207
 1310SOL     OW 4609   0.778   0.282  12.935
 1310SOL    HW1 4610   0.843   0.212  12.941
 1310SOL    HW2 4611   0.717   0.265  13.006
 1311SOL     OW 4612   0.876   1.521  12.366
 1311SOL    HW1 4613   0.862   1.485  12.278
 1311SOL    HW2 4614   0.946   1.467  12.403
 1312SOL     OW 4615   1.342   0.587  12.602
 1312SOL    HW1 4616   1.372   0.558  12.689
 1312SOL    HW2 4617   1.376   0.676  12.594
 1313SOL     OW 4618   0.814   1.397  12.109
 1313SOL    HW1 4619   0.898   1.385  12.066
 1313SOL    HW2 4620   0.750   1.395  12.038
 1314SOL     OW 4621   0.929   0.511  12.075
 1314SOL    HW1 4622   0.905   0.503  11.982
 1314SOL    HW2 4623   0.957   0.423  12.100
 1315SOL     OW 4624   0.546   0.057  11.663
 1315SOL    HW1 4625   0.471   0.064  11.722
 1315SOL    HW2 4626   0.548   0.141  11.617
 1316SOL     OW 4627   1.428   1.198  11.213
 1316SOL    HW1 4628   1.459   1.122  11.263
 1316SOL    HW2 4629   1.342   1.218  11.251
 1317SOL     OW 4630   0.333   0.045  11.366
 1317SOL    HW1 4631   0.364   0.087  11.286
 1317SOL    HW2 4632   0.413   0.026  11.415
 1318SOL     OW 4633   0.938   0.246  11.637
 1318SOL    HW1 4634   0.910   0.288  11.555
 1318SOL    HW2 4635   1.033   0.248  11.633
 1319SOL     OW 4636   1.079   0.681  12.632
 1319SOL    HW1 4637   1.008   0.617  12.638
 1319SOL    HW2 4638   1.159   0.627  12.626
 1320SOL     OW 4639   1.224   1.570  11.966
 1320SOL    HW1 4640   1.241   1.637  11.900
 1320SOL    HW2 4641   1.292   1.582  12.032
 1321SOL     OW 4642   0.466   1.149  11.911
 1321SOL    HW1 4643   0.393   1.126  11.969
 1321SOL    HW2 4644   0.433   1.133  11.823
 1322SOL     OW 4645   1.268   1.794  11.778
 1322SOL    HW1 4646   1.312   1.857  11.720
 1322SOL    HW2 4647   1.204   1.846  11.826
 1323SOL     OW 4648   1.025   0.547  11.195
 1323SOL    HW1 4649   0.982   0.630  11.176
 1323SOL    HW2 4650   1.087   0.568  11.264
 1324SOL     OW 4651   0.079   0.570  12.565
 1324SOL    HW1 4652   0.168   0.553  12.534
 1324SOL    HW2 4653   0.088   0.641  12.628
 1325SOL     OW 4654   0.572   0.232  12.332
 1325SOL    HW1 4655   0.596   0.140  12.342
 1325SOL    HW2 4656   0.481   0.236  12.362
 1326SOL     OW 4657   0.872   0.462  11.811
 1326SOL    HW1 4658   0.820   0.513  11.749
 1326SOL    HW2 4659   0.890   0.380  11.765
 1327SOL     OW 4660   0.994   0.042  11.951
 1327SOL    HW1 4661   0.962   0.066  11.864
 1327SOL    HW2 4662   1.004   3.947  11.947
 1328SOL     OW 4663   1.436   1.163  12.030
 1328SOL    HW1 4664   1.368   1.096  12.027
 1328SOL    HW2 4665   1.461   1.176  11.938
 1329SOL     OW 4666   1.467   0.603  12.151
 1329SOL    HW1 4667   1.416   0.522  12.157
 1329SOL    HW2 4668   1.528   0.599  12.225
 1330SOL     OW 4669   1.847   0.820  11.555
 1330SOL    HW1 4670   1.902   0.767  11.613
 1330SOL    HW2 4671   1.815   0.759  11.489
 1331SOL     OW 4672   0.489   1.416  11.334
 1331SOL    HW1 4673   0.414   1.384  11.384
 1331SOL    HW2 4674   0.468   1.394  11.243
 1332SOL     OW 4675   1.668   1.265  11.820
 1332SOL    HW1 4676   1.763   1.267  11.832
 1332SOL    HW2 4677   1.639   1.354  11.841
 1333SOL     OW 4678   1.394   0.573  11.242
 1333SOL    HW1 4679   1.333   0.554  11.313
 1333SOL    HW2 4680   1.480   0.552  11.279
 1334SOL     OW 4681   0.557   0.270  11.493
 1334SOL    HW1 4682   0.598   0.229  11.416
 1334SOL    HW2 4683   0.529   0.355  11.462
 1335SOL     OW 4684   1.753   1.237  12.748
 1335SOL    HW1 4685   1.840   1.199  12.743
 1335SOL    HW2 4686   1.768   1.328  12.776
 1336SOL     OW 4687   1.059   1.353  12.506
 1336SOL    HW1 4688   0.985   1.322  12.557
 1336SOL    HW2 4689   1.135   1.312  12.547
 1337SOL     OW 4690   1.606   1.624  12.824
 1337SOL    HW1 4691   1.602   1.661  12.736
 1337SOL    HW2 4692   1.690   1.579  12.828
 1338SOL     OW 4693   1.127   1.202  12.278
 1338SOL    HW1 4694   1.069   1.240  12.344
 1338SOL    HW2 4695   1.094   1.234  12.194
 1339SOL     OW 4696   1.629   1.099  12.250
 1339SOL    HW1 4697   1.624   1.161  12.323
 1339SOL    HW2 4698   1.550   1.116  12.199
 1340SOL     OW 4699   0.914   0.110  12.574
 1340SOL    HW1 4700   0.933   0.086  12.483
 1340SOL    HW2 4701   0.994   0.152  12.605
 1341SOL     OW 4702   0.984   1.114  12.895
 1341SOL    HW1 4703   0.892   1.130  12.914
 1341SOL    HW2 4704   0.984   1.037  12.839
 1342SOL     OW 4705   0.708   1.060  11.543
 1342SOL    HW1 4706   0.694   1.046  11.637
 1342SOL    HW2 4707   0.784   1.007  11.521
 1343SOL     OW 4708   0.420   0.815  12.424
 1343SOL    HW1 4709   0.489   0.822  12.490
 1343SOL    HW2 4710   0.385   0.726  12.434
 1344SOL     OW 4711   1.267   0.375  12.447
 1344SOL    HW1 4712   1.301   0.453  12.492
 1344SOL    HW2 4713   1.180   0.402  12.416
 1345SOL     OW 4714   0.064   1.579  12.517
 1345SOL    HW1 4715   0.066   1.648  12.450
 1345SOL    HW2 4716   0.156   1.566  12.540
 1346SOL     OW 4717   0.376   1.103  11.658
 1346SOL    HW1 4718   0.367   1.180  11.602
 1346SOL    HW2 4719   0.373   1.028  11.598
 1347SOL     OW 4720   0.556   0.538  12.032
 1347SOL    HW1 4721   0.572   0.595  11.957
 1347SOL    HW2 4722   0.620   0.566  12.098
 1348SOL     OW 4723   1.248   1.348  11.561
 1348SOL    HW1 4724   1.303   1.419  11.593
 1348SOL    HW2 4725   1.161   1.369  11.595
 1349SOL     OW 4726   1.279   1.457  12.319
 1349SOL    HW1 4727   1.335   1.460  12.396
 1349SOL    HW2 4728   1.224   1.379  12.331
 1350SOL     OW 4729   1.579   0.631  11.655
 1350SOL    HW1 4730   1.539   0.692  11.717
 1350SOL    HW2 4731   1.626   0.687  11.594
 1351SOL     OW 4732   0.346   1.525  12.492
 1351SOL    HW1 4733   0.336   1.475  12.411
 1351SOL    HW2 4734   0.440   1.541  12.499
 1352SOL     OW 4735   0.412   0.740  12.773
 1352SOL    HW1 4736   0.473   0.787  12.716
 1352SOL    HW2 4737   0.453   0.654  12.786
 1353SOL     OW 4738   1.599   0.778  12.854
 1353SOL    HW1 4739   1.513   0.819  12.846
 1353SOL    HW2 4740   1.652   0.819  12.785
 1354SOL     OW 4741   1.018   0.123  12.949
 1354SOL    HW1 4742   1.056   0.200  12.908
 1354SOL    HW2 4743   1.011   0.059  12.878
 1355SOL     OW 4744   0.478   0.036  12.940
 1355SOL    HW1 4745   0.492   0.039  12.845
 1355SOL    HW2 4746   0.419   0.109  12.958
 1356SOL     OW 4747   0.584   0.873  12.203
 1356SOL    HW1 4748   0.614   0.964  12.202
 1356SOL    HW2 4749   0.527   0.867  12.280
 1357SOL     OW 4750   1.359   0.859  12.204
 1357SOL    HW1 4751   1.277   0.850  12.155
 1357SOL    HW2 4752   1.398   0.771  12.199
 1358SOL     OW 4753   1.205   0.534  11.436
 1358SOL    HW1 4754   1.213   0.455  11.489
 1358SOL    HW2 4755   1.162   0.597  11.493
 1359SOL     OW 4756   0.313   0.214  12.413
 1359SOL    HW1 4757   0.272   0.248  12.493
 1359SOL    HW2 4758   0.294   0.121  12.415
 1360SOL     OW 4759   0.057   1.305  12.452
 1360SOL    HW1 4760   0.090   1.265  12.533
 1360SOL    HW2 4761   0.050   1.398  12.472
 1361SOL     OW 4762   0.727   0.634  12.229
 1361SOL    HW1 4763   0.799   0.617  12.169
 1361SOL    HW2 4764   0.698   0.723  12.206
 1362SOL     OW 4765   1.734   0.959  13.024
 1362SOL    HW1 4766   1.687   0.901  12.964
 1362SOL    HW2 4767   1.674   0.971  13.098
 1363SOL     OW 4768   0.325   0.056  11.820
 1363SOL    HW1 4769   0.297   0.147  11.821
 1363SOL    HW2 4770   0.285   0.017  11.898
 1364SOL     OW 4771   1.600   0.386  11.555
 1364SOL    HW1 4772   1.576   0.319  11.619
 1364SOL    HW2 4773   1.581   0.469  11.599
 1365SOL     OW 4774   1.028   0.760  12.133
 1365SOL    HW1 4775   1.025   0.777  12.227
 1365SOL    HW2 4776   1.001   0.668  12.125
 1366SOL     OW 4777   0.982   1.566  12.888
 1366SOL    HW1 4778   0.967   1.610  12.804
 1366SOL    HW2 4779   1.026   1.484  12.864
 1367SOL     OW 4780   1.855   1.506  12.778
 1367SOL    HW1 4781   1.871   1.534  12.687
 1367SOL    HW2 4782   1.939   1.520  12.822
 1368SOL     OW 4783   0.351   0.919  12.974
 1368SOL    HW1 4784   0.430   0.940  13.023
 1368SOL    HW2 4785   0.379   0.854  12.910
 1369SOL     OW 4786   1.511   0.276  11.308
 1369SOL    HW1 4787   1.435   0.219  11.321
 1369SOL    HW2 4788   1.524   0.317  11.393
 1370SOL     OW 4789   1.293   0.827  11.203
 1370SOL    HW1 4790   1.335   0.741  11.206
 1370SOL    HW2 4791   1.324   0.866  11.122
 1371SOL     OW 4792   1.064   1.335  12.025
 1371SOL    HW1 4793   1.068   1.263  11.963
 1371SOL    HW2 4794   1.127   1.399  11.991
 1372SOL     OW 4795   0.313   0.806  12.123
 1372SOL    HW1 4796   0.407   0.823  12.117
 1372SOL    HW2 4797   0.307   0.716  12.155
 1373SOL     OW 4798   0.337   0.527  12.185
 1373SOL    HW1 4799   0.298   0.441  12.167
 1373SOL    HW2 4800   0.413   0.531  12.126
 1374SOL     OW 4801   1.134   0.383  12.864
 1374SOL    HW1 4802   1.087   0.438  12.926
 1374SOL    HW2 4803   1.221   0.421  12.859
 1375SOL     OW 4804   1.151   0.224  12.653
 1375SOL    HW1 4805   1.143   0.279  12.731
 1375SOL    HW2 4806   1.173   0.285  12.583
 1376SOL     OW 4807   3.999   1.320  11.354
 1376SOL    HW1 4808   3.905   1.336  11.358
 1376SOL    HW2 4809   0.009   1.227  11.374
 1377SOL     OW 4810   0.076   1.801  12.062
 1377SOL    HW1 4811   0.077   1.705  12.071
 1377SOL    HW2 4812   0.168   1.826  12.065
 1378SOL     OW 4813   0.504   1.570  12.082
 1378SOL    HW1 4814   0.573   1.631  12.107
 1378SOL    HW2 4815   0.547   1.506  12.025
 1379SOL     OW 4816   0.985   0.792  12.399
 1379SOL    HW1 4817   1.038   0.769  12.475
 1379SOL    HW2 4818   0.899   0.756  12.418
 1380SOL     OW 4819   0.036   0.566  12.285
 1380SOL    HW1 4820   0.103   0.519  12.235
 1380SOL    HW2 4821   0.062   0.553  12.377
 1381SOL     OW 4822   0.209   0.516  12.893
 1381SOL    HW1 4823   0.259   0.480  12.820
 1381SOL    HW2 4824   0.158   0.588  12.855
 1382SOL     OW 4825   1.376   0.940  12.831
 1382SOL    HW1 4826   1.398   1.033  12.829
 1382SOL    HW2 4827   1.374   0.915  12.738
 1383SOL     OW 4828   0.817   0.572  11.529
 1383SOL    HW1 4829   0.822   0.494  11.472
 1383SOL    HW2 4830   0.742   0.621  11.497
 1384SOL     OW 4831   1.642   0.601  12.359
 1384SOL    HW1 4832   1.632   0.541  12.433
 1384SOL    HW2 4833   1.729   0.583  12.325
 1385SOL     OW 4834   0.296   1.546  12.903
 1385SOL    HW1 4835   0.246   1.616  12.945
 1385SOL    HW2 4836   0.261   1.466  12.941
 1386SOL     OW 4837   0.699   0.457  12.433
 1386SOL    HW1 4838   0.653   0.378  12.406
 1386SOL    HW2 4839   0.694   0.516  12.357
 1387SOL     OW 4840   0.928   1.679  12.639
 1387SOL    HW1 4841   0.903   1.646  12.553
 1387SOL    HW2 4842   0.926   1.774  12.630
 1388SOL     OW 4843   0.459   0.492  11.366
 1388SOL    HW1 4844   0.523   0.561  11.383
 1388SOL    HW2 4845   0.377   0.539  11.346
 1389SOL     OW 4846   0.157   1.136  12.644
 1389SOL    HW1 4847   0.161   1.084  12.724
 1389SOL    HW2 4848   0.172   1.073  12.574
 1390SOL     OW 4849   1.327   1.048  12.396
 1390SOL    HW1 4850   1.351   0.985  12.328
 1390SOL    HW2 4851   1.256   1.099  12.358
 1391SOL     OW 4852   1.310   0.856  11.479
 1391SOL    HW1 4853   1.234   0.827  11.528
 1391SOL    HW2 4854   1.286   0.843  11.387
 1392SOL     OW 4855   1.744   1.739  12.310
 1392SOL    HW1 4856   1.818   1.762  12.255
 1392SOL    HW2 4857   1.729   1.646  12.294
 1393SOL     OW 4858   1.243   1.733  12.286
 1393SOL    HW1 4859   1.325   1.753  12.241
 1393SOL    HW2 4860   1.247   1.640  12.304
 1394SOL     OW 4861   0.076   1.218  12.199
 1394SOL    HW1 4862   0.082   1.243  12.291
 1394SOL    HW2 4863   3.983   1.224  12.178
 1395SOL     OW 4864   0.679   1.665  12.899
 1395SOL    HW1 4865   0.624   1.743  12.894
 1395SOL    HW2 4866   0.742   1.676  12.829
 1396SOL     OW 4867   1.710   0.128  11.657
 1396SOL    HW1 4868   1.790   0.133  11.606
 1396SOL    HW2 4869   1.701   0.035  11.680
 1397SOL     OW 4870   1.389   1.567  11.656
 1397SOL    HW1 4871   1.447   1.599  11.586
 1397SOL    HW2 4872   1.341   1.645  11.685
 1398SOL     OW 4873   0.171   1.768  13.001
 1398SOL    HW1 4874   0.112   1.719  13.059
 1398SOL    HW2 4875   0.215   1.831  13.058
 1399SOL     OW 4876   1.277   0.925  11.843
 1399SOL    HW1 4877   1.351   0.865  11.850
 1399SOL    HW2 4878   1.311   0.998  11.791
 1400SOL     OW 4879   0.816   1.272  12.603
 1400SOL    HW1 4880   0.789   1.312  12.686
 1400SOL    HW2 4881   0.746   1.292  12.542
 1401SOL     OW 4882   0.671   1.618  11.327
 1401SOL    HW1 4883   0.681   1.629  11.233
 1401SOL    HW2 4884   0.617   1.540  11.337
 1402SOL     OW 4885   1.628   1.728  12.563
 1402SOL    HW1 4886   1.672   1.735  12.479
 1402SOL    HW2 4887   1.616   1.818  12.592
 1403SOL     OW 4888   1.838   0.176  12.140
 1403SOL    HW1 4889   1.869   0.102  12.087
 1403SOL    HW2 4890   1.751   0.194  12.106
 1404SOL     OW 4891   0.272   0.324  11.887
 1404SOL    HW1 4892   0.187   0.359  11.863
 1404SOL    HW2 4893   0.264   0.306  11.981
 1405SOL     OW 4894   1.206   1.607  11.203
 1405SOL    HW1 4895   1.197   1.515  11.230
 1405SOL    HW2 4896   1.141   1.618  11.133
 1406SOL     OW 4897   0.824   1.005  12.544
 1406SOL    HW1 4898   0.867   1.002  12.459
 1406SOL    HW2 4899   0.824   1.098  12.567
 1407SOL     OW 4900   0.915   0.910  11.461
 1407SOL    HW1 4901   0.977   0.942  11.396
 1407SOL    HW2 4902   0.962   0.840  11.507
 1408SOL     OW 4903   1.491   1.623  11.213
 1408SOL    HW1 4904   1.396   1.619  11.198
 1408SOL    HW2 4905   1.528   1.630  11.125
 1409SOL     OW 4906   0.373   1.302  12.664
 1409SOL    HW1 4907   0.358   1.383  12.613
 1409SOL    HW2 4908   0.296   1.248  12.645
 1410SOL     OW 4909   1.610   1.282  12.453
 1410SOL    HW1 4910   1.671   1.274  12.527
 1410SOL    HW2 4911   1.551   1.352  12.479
 1411SOL     OW 4912   1.050   1.106  11.878
 1411SOL    HW1 4913   0.980   1.055  11.917
 1411SOL    HW2 4914   1.112   1.041  11.845
 1412SOL     OW 4915   1.015   0.247  12.139
 1412SOL    HW1 4916   1.004   0.198  12.058
 1412SOL    HW2 4917   1.008   0.182  12.209
 1413SOL     OW 4918   0.603   1.489  11.654
 1413SOL    HW1 4919   0.645   1.438  11.585
 1413SOL    HW2 4920   0.534   1.538  11.610
 1414SOL     OW 4921   1.719   0.391  12.547
 1414SOL    HW1 4922   1.790   0.455  12.549
 1414SOL    HW2 4923   1.752   0.320  12.493
 1415SOL     OW 4924   0.252   1.342  11.463
 1415SOL    HW1 4925   0.160   1.353  11.442
 1415SOL    HW2 4926   0.262   1.380  11.550
 1416SOL     OW 4927   0.105   1.001  12.890
 1416SOL    HW1 4928   0.044   0.990  12.963
 1416SOL    HW2 4929   0.191   0.980  12.928
 1417SOL     OW 4930   0.693   0.243  12.668
 1417SOL    HW1 4931   0.763   0.191  12.628
 1417SOL    HW2 4932   0.718   0.250  12.760
 1418SOL     OW 4933   0.088   0.326  11.200
 1418SOL    HW1 4934   3.992   0.321  11.195
 1418SOL    HW2 4935   0.109   0.408  11.156
 1419SOL     OW 4936   1.430   0.857  12.572
 1419SOL    HW1 4937   1.382   0.918  12.517
 1419SOL    HW2 4938   1.520   0.860  12.539
 1420SOL     OW 4939   0.039   0.162  11.455
 1420SOL    HW1 4940   0.037   0.243  11.405
 1420SOL    HW2 4941   0.120   0.167  11.506
 1421SOL     OW 4942   1.179   1.341  11.289
 1421SOL    HW1 4943   1.089   1.310  11.292
 1421SOL    HW2 4944   1.207   1.340  11.380
 1422SOL     OW 4945   0.619   0.830  12.607
 1422SOL    HW1 4946   0.675   0.906  12.591
 1422SOL    HW2 4947   0.679   0.756  12.615
 1423SOL     OW 4948   1.489   1.778  12.150
 1423SOL    HW1 4949   1.513   1.840  12.082
 1423SOL    HW2 4950   1.570   1.762  12.198
 1424SOL     OW 4951   0.716   0.564  12.880
 1424SOL    HW1 4952   0.757   0.627  12.939
 1424SOL    HW2 4953   0.749   0.479  12.908
 1425SOL     OW 4954   1.470   1.201  12.804
 1425SOL    HW1 4955   1.458   1.215  12.899
 1425SOL    HW2 4956   1.564   1.215  12.790
 1426SOL     OW 4957   0.381   1.741  12.731
 1426SOL    HW1 4958   0.293   1.779  12.718
 1426SOL    HW2 4959   0.365   1.660  12.779
 1427SOL     OW 4960   1.670   0.882  12.428
 1427SOL    HW1 4961   1.664   0.796  12.385
 1427SOL    HW2 4962   1.662   0.945  12.357
 1428SOL     OW 4963   1.225   0.333  11.618
 1428SOL    HW1 4964   1.291   0.264  11.610
 1428SOL    HW2 4965   1.247   0.378  11.700
 1429SOL     OW 4966   0.592   0.740  11.840
 1429SOL    HW1 4967   0.629   0.827  11.823
 1429SOL    HW2 4968   0.522   0.731  11.776
 1430SOL     OW 4969   1.755   0.380  12.815
 1430SOL    HW1 4970   1.737   0.385  12.721
 1430SOL    HW2 4971   1.697   0.311  12.847
 1431SOL     OW 4972   1.743   0.934  12.685
 1431SOL    HW1 4973   1.744   1.029  12.698
 1431SOL    HW2 4974   1.729   0.922  12.591
 1432SOL     OW 4975   0.862   1.368  11.204
 1432SOL    HW1 4976   0.823   1.395  11.287
 1432SOL    HW2 4977   0.881   1.449  11.158
 1433SOL     OW 4978   0.660   1.792  12.117
 1433SOL    HW1 4979   0.639   1.882  12.094
 1433SOL    HW2 4980   0.756   1.787  12.110
 1434SOL     OW 4981   0.867   0.965  12.027
 1434SOL    HW1 4982   0.917   0.895  12.067
 1434SOL    HW2 4983   0.833   1.016  12.101
 1435SOL     OW 4984   1.079   0.988  11.261
 1435SOL    HW1 4985   1.058   1.039  11.182
 1435SOL    HW2 4986   1.155   0.935  11.235
 1436SOL     OW 4987   1.848   1.542  12.004
 1436SOL    HW1 4988   1.764   1.539  11.959
 1436SOL    HW2 4989   1.838   1.482  12.078
 1437SOL     OW 4990   0.223   1.303  13.027
 1437SOL    HW1 4991   0.152   1.244  13.002
 1437SOL    HW2 4992   0.211   1.318  13.121
 1438SOL     OW 4993   0.113   1.273  11.888
 1438SOL    HW1 4994   0.120   1.222  11.968
 1438SOL    HW2 4995   0.112   1.208  11.818
 1439SOL     OW 4996   0.679   1.402  12.799
 1439SOL    HW1 4997   0.599   1.359  12.829
 1439SOL    HW2 4998   0.675   1.490  12.836
 1440SOL     OW 4999   1.813   0.184  12.411
 1440SOL    HW1 5000   1.816   0.089  12.425
 1440SOL    HW2 5001   1.827   0.195  12.317
 1441SOL     OW 5002   0.441   0.436  11.702
 1441SOL    HW1 5003   0.453   0.361  11.643
 1441SOL    HW2 5004   0.386   0.402  11.773
 1442SOL     OW 5005   1.703   1.480  12.265
 1442SOL    HW1 5006   1.619   1.459  12.223
 1442SOL    HW2 5007   1.713   1.413  12.333
 1443SOL     OW 5008   0.330   0.554  12.463
 1443SOL    HW1 5009   0.386   0.498  12.516
 1443SOL    HW2 5010   0.346   0.526  12.373
 1444SOL     OW 5011   0.826   1.578  11.850
 1444SOL    HW1 5012   0.817   1.629  11.770
 1444SOL    HW2 5013   0.749   1.522  11.851
 1445SOL     OW 5014   1.461   0.251  12.283
 1445SOL    HW1 5015   1.477   0.164  12.320
 1445SOL    HW2 5016   1.403   0.293  12.347
 1446SOL     OW 5017   1.006   0.030  12.320
 1446SOL    HW1 5018   0.931   3.979  12.290
 1446SOL    HW2 5019   1.077   3.966  12.327
 1447SOL     OW 5020   0.771   1.332  11.485
 1447SOL    HW1 5021   0.739   1.242  11.491
 1447SOL    HW2 5022   0.854   1.332  11.533
 1448SOL     OW 5023   0.620   1.558  12.456
 1448SOL    HW1 5024   0.623   1.639  12.507
 1448SOL    HW2 5025   0.707   1.550  12.419
 1449SOL     OW 5026   1.316   0.074  11.335
 1449SOL    HW1 5027   1.335   0.005  11.272
 1449SOL    HW2 5028   1.231   0.049  11.372
 1450SOL     OW 5029   1.286   0.458  11.859
 1450SOL    HW1 5030   1.237   0.540  11.857
 1450SOL    HW2 5031   1.290   0.436  11.952
 1451SOL     OW 5032   1.588   0.211  12.039
 1451SOL    HW1 5033   1.538   0.232  12.118
 1451SOL    HW2 5034   1.588   0.291  11.987
 1452SOL     OW 5035   0.045   1.052  11.412
 1452SOL    HW1 5036   0.139   1.035  11.404
 1452SOL    HW2 5037   0.010   0.972  11.452
 1453SOL     OW 5038   0.883   1.651  11.515
 1453SOL    HW1 5039   0.811   1.634  11.455
 1453SOL    HW2 5040   0.854   1.727  11.566
 1454SOL     OW 5041   0.232   0.624  13.154
 1454SOL    HW1 5042   0.138   0.629  13.174
 1454SOL    HW2 5043   0.234   0.596  13.062
 1455SOL     OW 5044   0.278   0.251   0.147
 1455SOL    HW1 5045   0.319   0.311   0.209
 1455SOL    HW2 5046   0.201   0.297   0.116
 1456SOL     OW 5047   0.015   0.385  13.666
 1456SOL    HW1 5048   3.921   0.401  13.657
 1456SOL    HW2 5049   0.028   0.297  13.633
 1457SOL     OW 5050   1.533   1.503  13.725
 1457SOL    HW1 5051   1.474   1.445  13.774
 1457SOL    HW2 5052   1.486   1.519  13.643
 1458SOL     OW 5053   1.128   0.702  13.737
 1458SOL    HW1 5054   1.183   0.775  13.708
 1458SOL    HW2 5055   1.078   0.737  13.811
 1459SOL     OW 5056   1.760   0.616  13.262
 1459SOL    HW1 5057   1.742   0.609  13.168
 1459SOL    HW2 5058   1.752   0.527  13.295
 1460SOL     OW 5059   0.686   1.011  13.674
 1460SOL    HW1 5060   0.741   0.989  13.749
 1460SOL    HW2 5061   0.613   1.061  13.711
 1461SOL     OW 5062   1.619   0.456  13.765
 1461SOL    HW1 5063   1.538   0.479  13.718
 1461SOL    HW2 5064   1.648   0.538  13.803
 1462SOL     OW 5065   0.220   1.714  13.488
 1462SOL    HW1 5066   0.237   1.788  13.547
 1462SOL    HW2 5067   0.300   1.707  13.435
 1463SOL     OW 5068   0.244   1.444  13.571
 1463SOL    HW1 5069   0.215   1.535  13.562
 1463SOL    HW2 5070   0.179   1.404  13.629
 1464SOL     OW 5071   0.250   1.079   0.020
 1464SOL    HW1 5072   0.271   1.032   0.101
 1464SOL    HW2 5073   0.209   1.160   0.049
 1465SOL     OW 5074   0.583   0.983  13.169
 1465SOL    HW1 5075   0.628   1.031  13.099
 1465SOL    HW2 5076   0.625   1.012  13.249
 1466SOL     OW 5077   0.144   0.646  13.611
 1466SOL    HW1 5078   0.084   0.572  13.602
 1466SOL    HW2 5079   0.099   0.707  13.669
 1467SOL     OW 5080   0.043   1.592  13.174
 1467SOL    HW1 5081   0.032   1.499  13.195
 1467SOL    HW2 5082   3.966   1.634  13.212
 1468SOL     OW 5083   1.686   0.915  13.667
 1468SOL    HW1 5084   1.774   0.882  13.649
 1468SOL    HW2 5085   1.665   0.970  13.592
 1469SOL     OW 5086   1.646   1.106  13.461
 1469SOL    HW1 5087   1.731   1.112  13.418
 1469SOL    HW2 5088   1.651   1.168  13.534
 1470SOL     OW 5089   0.608   1.387  13.764
 1470SOL    HW1 5090   0.562   1.304  13.778
 1470SOL    HW2 5091   0.584   1.414  13.675
 1471SOL     OW 5092   0.817   0.001  13.549
 1471SOL    HW1 5093   0.862   0.082  13.526
 1471SOL    HW2 5094   0.724   0.024  13.548
 1472SOL     OW 5095   1.531   0.992  13.232
 1472SOL    HW1 5096   1.462   0.934  13.264
 1472SOL    HW2 5097   1.571   1.028  13.311
 1473SOL     OW 5098   1.666   1.730  13.595
 1473SOL    HW1 5099   1.628   1.696  13.514
 1473SOL    HW2 5100   1.659   1.657  13.657
 1474SOL     OW 5101   0.595   0.720  13.296
 1474SOL    HW1 5102   0.603   0.803  13.248
 1474SOL    HW2 5103   0.532   0.739  13.366
 1475SOL     OW 5104   1.254   0.335   0.057
 1475SOL    HW1 5105   1.162   0.320   0.079
 1475SOL    HW2 5106   1.302   0.296   0.130
 1476SOL     OW 5107   1.577   1.671  13.335
 1476SOL    HW1 5108   1.664   1.707  13.316
 1476SOL    HW2 5109   1.543   1.645  13.249
 1477SOL     OW 5110   1.048   0.697  13.461
 1477SOL    HW1 5111   1.061   0.686  13.555
 1477SOL    HW2 5112   0.967   0.650  13.442
 1478SOL     OW 5113   0.080   0.832  13.808
 1478SOL    HW1 5114   0.165   0.814  13.850
 1478SOL    HW2 5115   0.075   0.928  13.807
 1479SOL     OW 5116   0.890   0.350  13.231
 1479SOL    HW1 5117   0.932   0.409  13.168
 1479SOL    HW2 5118   0.896   0.263  13.190
 1480SOL     OW 5119   1.365   1.136  13.558
 1480SOL    HW1 5120   1.454   1.134  13.522
 1480SOL    HW2 5121   1.321   1.207  13.510
 1481SOL     OW 5122   1.006   1.443  13.505
 1481SOL    HW1 5123   0.968   1.517  13.457
 1481SOL    HW2 5124   0.979   1.458  13.595
 1482SOL     OW 5125   0.394   1.795  13.859
 1482SOL    HW1 5126   0.434   1.709  13.876
 1482SOL    HW2 5127   0.459   1.858  13.891
 1483SOL     OW 5128   1.792   1.053  13.899
 1483SOL    HW1 5129   1.732   1.047  13.824
 1483SOL    HW2 5130   1.734   1.051   0.076
 1484SOL     OW 5131   0.310   0.955  13.277
 1484SOL    HW1 5132   0.395   0.979  13.239
 1484SOL    HW2 5133   0.296   0.865  13.248
 1485SOL     OW 5134   1.485   0.734  13.751
 1485SOL    HW1 5135   1.472   0.688  13.834
 1485SOL    HW2 5136   1.557   0.795  13.768
 1486SOL     OW 5137   1.122   1.777  13.266
 1486SOL    HW1 5138   1.048   1.736  13.312
 1486SOL    HW2 5139   1.143   1.716  13.195
 1487SOL     OW 5140   1.628   1.378  13.121
 1487SOL    HW1 5141   1.588   1.464  13.104
 1487SOL    HW2 5142   1.559   1.315  13.102
 1488SOL     OW 5143   0.467   1.739  13.352
 1488SOL    HW1 5144   0.508   1.796  13.417
 1488SOL    HW2 5145   0.540   1.709  13.298
 1489SOL     OW 5146   1.428   0.149  13.449
 1489SOL    HW1 5147   1.395   0.100  13.373
 1489SOL    HW2 5148   1.521   0.127  13.453
 1490SOL     OW 5149   0.926   1.691   0.014
 1490SOL    HW1 5150   0.966   1.625   0.070
 1490SOL    HW2 5151   0.883   1.642  13.845
 1491SOL     OW 5152   0.395   0.696  13.506
 1491SOL    HW1 5153   0.424   0.606  13.517
 1491SOL    HW2 5154   0.304   0.696  13.534
 1492SOL     OW 5155   0.642   0.137  13.135
 1492SOL    HW1 5156   0.676   0.058  13.176
 1492SOL    HW2 5157   0.580   0.104  13.069
 1493SOL     OW 5158   0.549   0.057  13.527
 1493SOL    HW1 5159   0.470   0.061  13.581
 1493SOL    HW2 5160   0.549   0.139  13.478
 1494SOL     OW 5161   1.428   1.197  13.075
 1494SOL    HW1 5162   1.459   1.122  13.125
 1494SOL    HW2 5163   1.342   1.218  13.113
 1495SOL     OW 5164   0.333   0.056  13.231
 1495SOL    HW1 5165   0.362   0.089  13.146
 1495SOL    HW2 5166   0.412   0.020  13.271
 1496SOL     OW 5167   0.937   0.244  13.497
 1496SOL    HW1 5168   0.909   0.289  13.417
 1496SOL    HW2 5169   1.033   0.249  13.495
 1497SOL     OW 5170   0.468   1.143  13.773
 1497SOL    HW1 5171   0.393   1.124  13.830
 1497SOL    HW2 5172   0.435   1.131  13.684
 1498SOL     OW 5173   1.271   1.797  13.634
 1498SOL    HW1 5174   1.311   1.865  13.579
 1498SOL    HW2 5175   1.203   1.843  13.683
 1499SOL     OW 5176   1.025   0.547  13.057
 1499SOL    HW1 5177   0.982   0.630  13.037
 1499SOL    HW2 5178   1.088   0.568  13.126
 1500SOL     OW 5179   0.893   0.474  13.665
 1500SOL    HW1 5180   0.821   0.515  13.617
 1500SOL    HW2 5181   0.897   0.385  13.630
 1501SOL     OW 5182   0.999   0.039  13.798
 1501SOL    HW1 5183   0.969   0.063  13.710
 1501SOL    HW2 5184   1.020   3.946  13.792
 1502SOL     OW 5185   1.849   0.820  13.415
 1502SOL    HW1 5186   1.905   0.767  13.471
 1502SOL    HW2 5187   1.815   0.759  13.350
 1503SOL     OW 5188   0.489   1.416  13.197
 1503SOL    HW1 5189   0.414   1.384  13.247
 1503SOL    HW2 5190   0.468   1.394  13.106
 1504SOL     OW 5191   1.677   1.268  13.668
 1504SOL    HW1 5192   1.770   1.270  13.691
 1504SOL    HW2 5193   1.643   1.351  13.702
 1505SOL     OW 5194   1.394   0.573  13.104
 1505SOL    HW1 5195   1.333   0.554  13.175
 1505SOL    HW2 5196   1.480   0.551  13.141
 1506SOL     OW 5197   0.556   0.270  13.355
 1506SOL    HW1 5198   0.596   0.227  13.279
 1506SOL    HW2 5199   0.528   0.355  13.322
 1507SOL     OW 5200   0.708   1.061  13.402
 1507SOL    HW1 5201   0.694   1.048  13.495
 1507SOL    HW2 5202   0.784   1.008  13.381
 1508SOL     OW 5203   0.379   1.103  13.520
 1508SOL    HW1 5204   0.367   1.181  13.467
 1508SOL    HW2 5205   0.374   1.030  13.458
 1509SOL     OW 5206   0.570   0.540  13.864
 1509SOL    HW1 5207   0.584   0.610  13.800
 1509SOL    HW2 5208   0.622   0.566   0.040
 1510SOL     OW 5209   1.247   1.350  13.420
 1510SOL    HW1 5210   1.302   1.422  13.449
 1510SOL    HW2 5211   1.160   1.369  13.455
 1511SOL     OW 5212   1.586   0.630  13.514
 1511SOL    HW1 5213   1.545   0.688  13.579
 1511SOL    HW2 5214   1.627   0.689  13.451
 1512SOL     OW 5215   1.205   0.532  13.299
 1512SOL    HW1 5216   1.212   0.453  13.351
 1512SOL    HW2 5217   1.161   0.595  13.356
 1513SOL     OW 5218   0.327   0.051  13.677
 1513SOL    HW1 5219   0.304   0.143  13.685
 1513SOL    HW2 5220   0.274   0.007  13.743
 1514SOL     OW 5221   1.584   0.387  13.411
 1514SOL    HW1 5222   1.584   0.321  13.480
 1514SOL    HW2 5223   1.576   0.470  13.457
 1515SOL     OW 5224   1.511   0.277  13.169
 1515SOL    HW1 5225   1.436   0.220  13.182
 1515SOL    HW2 5226   1.525   0.320  13.253
 1516SOL     OW 5227   1.292   0.827  13.065
 1516SOL    HW1 5228   1.335   0.741  13.068
 1516SOL    HW2 5229   1.324   0.866  12.984
 1517SOL     OW 5230   3.999   1.320  13.216
 1517SOL    HW1 5231   3.905   1.337  13.220
 1517SOL    HW2 5232   0.009   1.227  13.235
 1518SOL     OW 5233   0.817   0.574  13.385
 1518SOL    HW1 5234   0.820   0.495  13.331
 1518SOL    HW2 5235   0.740   0.621  13.354
 1519SOL     OW 5236   0.458   0.492  13.229
 1519SOL    HW1 5237   0.522   0.561  13.245
 1519SOL    HW2 5238   0.377   0.539  13.208
 1520SOL     OW 5239   1.311   0.851  13.340
 1520SOL    HW1 5240   1.233   0.828  13.389
 1520SOL    HW2 5241   1.287   0.841  13.248
 1521SOL     OW 5242   1.697   0.126  13.472
 1521SOL    HW1 5243   1.790   0.131  13.452
 1521SOL    HW2 5244   1.691   0.062  13.543
 1522SOL     OW 5245   1.384   1.571  13.509
 1522SOL    HW1 5246   1.441   1.607  13.441
 1522SOL    HW2 5247   1.338   1.648  13.543
 1523SOL     OW 5248   1.286   0.915  13.686
 1523SOL    HW1 5249   1.364   0.860  13.672
 1523SOL    HW2 5250   1.309   0.999  13.647
 1524SOL     OW 5251   0.671   1.618  13.189
 1524SOL    HW1 5252   0.681   1.629  13.095
 1524SOL    HW2 5253   0.617   1.539  13.199
 1525SOL     OW 5254   1.834   0.165   0.062
 1525SOL    HW1 5255   1.870   0.077   0.052
 1525SOL    HW2 5256   1.739   0.153   0.052
 1526SOL     OW 5257   0.280   0.309  13.741
 1526SOL    HW1 5258   0.200   0.354  13.716
 1526SOL    HW2 5259   0.286   0.321  13.836
 1527SOL     OW 5260   1.206   1.607  13.065
 1527SOL    HW1 5261   1.197   1.515  13.092
 1527SOL    HW2 5262   1.141   1.618  12.995
 1528SOL     OW 5263   0.917   0.912  13.326
 1528SOL    HW1 5264   0.978   0.942  13.258
 1528SOL    HW2 5265   0.962   0.838  13.368
 1529SOL     OW 5266   1.491   1.623  13.075
 1529SOL    HW1 5267   1.396   1.619  13.060
 1529SOL    HW2 5268   1.528   1.630  12.987
 1530SOL     OW 5269   1.049   1.091  13.753
 1530SOL    HW1 5270   0.962   1.051  13.749
 1530SOL    HW2 5271   1.099   1.046  13.685
 1531SOL     OW 5272   0.602   1.491  13.510
 1531SOL    HW1 5273   0.644   1.440  13.441
 1531SOL    HW2 5274   0.532   1.539  13.465
 1532SOL     OW 5275   0.252   1.342  13.324
 1532SOL    HW1 5276   0.159   1.353  13.303
 1532SOL    HW2 5277   0.262   1.380  13.411
 1533SOL     OW 5278   0.087   0.327  13.063
 1533SOL    HW1 5279   3.992   0.321  13.057
 1533SOL    HW2 5280   0.109   0.408  13.017
 1534SOL     OW 5281   0.042   0.162  13.308
 1534SOL    HW1 5282   0.044   0.244  13.258
 1534SOL    HW2 5283   0.124   0.163  13.358
 1535SOL     OW 5284   1.179   1.340  13.150
 1535SOL    HW1 5285   1.088   1.311  13.153
 1535SOL    HW2 5286   1.207   1.341  13.241
 1536SOL     OW 5287   1.223   0.328  13.484
 1536SOL    HW1 5288   1.292   0.262  13.474
 1536SOL    HW2 5289   1.251   0.379  13.560
 1537SOL     OW 5290   0.594   0.750  13.693
 1537SOL    HW1 5291   0.628   0.837  13.673
 1537SOL    HW2 5292   0.522   0.738  13.630
 1538SOL     OW 5293   0.862   1.367  13.066
 1538SOL    HW1 5294   0.823   1.395  13.149
 1538SOL    HW2 5295   0.881   1.449  13.020
 1539SOL     OW 5296   0.654   1.844   0.062
 1539SOL    HW1 5297   0.664   1.939   0.052
 1539SOL    HW2 5298   0.744   1.812   0.076
 1540SOL     OW 5299   0.834   0.962  13.893
 1540SOL    HW1 5300   0.874   0.886   0.035
 1540SOL    HW2 5301   0.840   1.031   0.058
 1541SOL     OW 5302   1.078   0.987  13.123
 1541SOL    HW1 5303   1.057   1.038  13.045
 1541SOL    HW2 5304   1.154   0.934  13.097
 1542SOL     OW 5305   0.113   1.269  13.750
 1542SOL    HW1 5306   0.059   1.220  13.812
 1542SOL    HW2 5307   0.126   1.209  13.677
 1543SOL     OW 5308   0.443   0.438  13.558
 1543SOL    HW1 5309   0.459   0.364  13.499
 1543SOL    HW2 5310   0.398   0.400  13.633
 1544SOL     OW 5311   1.697   1.494   0.320
 1544SOL    HW1 5312   1.660   1.453   0.242
 1544SOL    HW2 5313   1.761   1.430   0.353
 1545SOL     OW 5314   0.821   1.555  13.712
 1545SOL    HW1 5315   0.803   1.609  13.635
 1545SOL    HW2 5316   0.741   1.502  13.722
 1546SOL     OW 5317   0.771   1.332  13.345
 1546SOL    HW1 5318   0.739   1.242  13.352
 1546SOL    HW2 5319   0.853   1.332  13.394
 1547SOL     OW 5320   1.316   0.077  13.203
 1547SOL    HW1 5321   1.343   0.010  13.139
 1547SOL    HW2 5322   1.231   0.047  13.234
 1548SOL     OW 5323   1.292   0.459  13.717
 1548SOL    HW1 5324   1.240   0.540  13.720
 1548SOL    HW2 5325   1.292   0.428  13.808
 1549SOL     OW 5326   0.044   1.052  13.272
 1549SOL    HW1 5327   0.138   1.035  13.264
 1549SOL    HW2 5328   0.009   0.973  13.313
 1550SOL     OW 5329   0.883   1.652  13.376
 1550SOL    HW1 5330   0.810   1.634  13.317
 1550SOL    HW2 5331   0.854   1.725  13.430
 1551SOL     OW 5332   0.234   2.505   0.121
 1551SOL    HW1 5333   0.139   2.502   0.136
 1551SOL    HW2 5334   0.246   2.462   0.036
 1552SOL     OW 5335   0.228   2.132   0.987
 1552SOL    HW1 5336   0.250   2.102   1.075
 1552SOL    HW2 5337   0.133   2.123   0.980
 1553SOL     OW 5338   0.012   2.228   0.635
 1553SOL    HW1 5339   3.928   2.247   0.676
 1553SOL    HW2 5340   3.989   2.186   0.552
 1554SOL     OW 5341   0.575   3.143   1.182
 1554SOL    HW1 5342   0.489   3.149   1.141
 1554SOL    HW2 5343   0.592   3.231   1.216
 1555SOL     OW 5344   1.559   3.372   0.706
 1555SOL    HW1 5345   1.514   3.353   0.789
 1555SOL    HW2 5346   1.489   3.376   0.641
 1556SOL     OW 5347   1.130   2.560   0.703
 1556SOL    HW1 5348   1.180   2.641   0.688
 1556SOL    HW2 5349   1.083   2.575   0.785
 1557SOL     OW 5350   1.756   2.469   0.226
 1557SOL    HW1 5351   1.780   2.426   0.144
 1557SOL    HW2 5352   1.727   2.397   0.283
 1558SOL     OW 5353   0.758   3.004   1.037
 1558SOL    HW1 5354   0.691   3.038   1.097
 1558SOL    HW2 5355   0.792   3.082   0.993
 1559SOL     OW 5356   0.863   2.640   1.821
 1559SOL    HW1 5357   0.855   2.711   1.884
 1559SOL    HW2 5358   0.888   2.683   1.739
 1560SOL     OW 5359   0.685   2.867   0.648
 1560SOL    HW1 5360   0.750   2.853   0.717
 1560SOL    HW2 5361   0.616   2.918   0.690
 1561SOL     OW 5362   0.709   3.013   1.811
 1561SOL    HW1 5363   0.757   3.091   1.837
 1561SOL    HW2 5364   0.626   3.045   1.777
 1562SOL     OW 5365   0.351   3.265   1.078
 1562SOL    HW1 5366   0.268   3.253   1.032
 1562SOL    HW2 5367   0.400   3.325   1.022
 1563SOL     OW 5368   1.461   3.361   1.352
 1563SOL    HW1 5369   1.510   3.443   1.362
 1563SOL    HW2 5370   1.402   3.359   1.427
 1564SOL     OW 5371   0.450   2.263   1.492
 1564SOL    HW1 5372   0.524   2.202   1.494
 1564SOL    HW2 5373   0.373   2.207   1.502
 1565SOL     OW 5374   1.610   2.308   0.736
 1565SOL    HW1 5375   1.531   2.334   0.689
 1565SOL    HW2 5376   1.633   2.384   0.790
 1566SOL     OW 5377   0.229   3.571   0.472
 1566SOL    HW1 5378   0.231   3.654   0.519
 1566SOL    HW2 5379   0.300   3.577   0.409
 1567SOL     OW 5380   1.136   3.203   1.692
 1567SOL    HW1 5381   1.176   3.199   1.779
 1567SOL    HW2 5382   1.083   3.123   1.686
 1568SOL     OW 5383   0.242   3.306   0.542
 1568SOL    HW1 5384   0.222   3.398   0.528
 1568SOL    HW2 5385   0.168   3.273   0.594
 1569SOL     OW 5386   0.245   2.932   0.883
 1569SOL    HW1 5387   0.264   2.849   0.926
 1569SOL    HW2 5388   0.194   2.981   0.948
 1570SOL     OW 5389   0.614   3.649   1.430
 1570SOL    HW1 5390   0.531   3.634   1.476
 1570SOL    HW2 5391   0.639   3.738   1.455
 1571SOL     OW 5392   0.568   2.843   0.157
 1571SOL    HW1 5393   0.589   2.894   0.079
 1571SOL    HW2 5394   0.623   2.880   0.226
 1572SOL     OW 5395   1.598   1.988   1.467
 1572SOL    HW1 5396   1.582   2.070   1.421
 1572SOL    HW2 5397   1.589   2.010   1.560
 1573SOL     OW 5398   0.139   2.511   0.573
 1573SOL    HW1 5399   0.085   2.432   0.574
 1573SOL    HW2 5400   0.105   2.565   0.644
 1574SOL     OW 5401   1.839   3.615   0.339
 1574SOL    HW1 5402   1.897   3.581   0.407
 1574SOL    HW2 5403   1.867   3.705   0.325
 1575SOL     OW 5404   0.030   3.468   0.141
 1575SOL    HW1 5405   0.029   3.373   0.148
 1575SOL    HW2 5406   3.942   3.496   0.167
 1576SOL     OW 5407   1.688   2.780   0.640
 1576SOL    HW1 5408   1.773   2.740   0.620
 1576SOL    HW2 5409   1.667   2.831   0.561
 1577SOL     OW 5410   1.646   2.968   0.431
 1577SOL    HW1 5411   1.733   2.974   0.391
 1577SOL    HW2 5412   1.649   3.030   0.504
 1578SOL     OW 5413   0.133   2.613   1.591
 1578SOL    HW1 5414   0.229   2.607   1.596
 1578SOL    HW2 5415   0.114   2.705   1.607
 1579SOL     OW 5416   0.613   3.245   0.735
 1579SOL    HW1 5417   0.566   3.163   0.744
 1579SOL    HW2 5418   0.597   3.272   0.644
 1580SOL     OW 5419   1.289   3.100   1.424
 1580SOL    HW1 5420   1.322   3.033   1.364
 1580SOL    HW2 5421   1.346   3.094   1.501
 1581SOL     OW 5422   0.817   1.861   0.508
 1581SOL    HW1 5423   0.856   1.946   0.489
 1581SOL    HW2 5424   0.723   1.880   0.518
 1582SOL     OW 5425   0.186   2.817   1.276
 1582SOL    HW1 5426   0.274   2.782   1.261
 1582SOL    HW2 5427   0.131   2.772   1.212
 1583SOL     OW 5428   1.532   2.856   0.202
 1583SOL    HW1 5429   1.463   2.796   0.232
 1583SOL    HW2 5430   1.570   2.891   0.282
 1584SOL     OW 5431   1.209   3.664   1.625
 1584SOL    HW1 5432   1.195   3.723   1.551
 1584SOL    HW2 5433   1.212   3.577   1.585
 1585SOL     OW 5434   0.337   2.109   1.812
 1585SOL    HW1 5435   0.379   2.195   1.820
 1585SOL    HW2 5436   0.246   2.124   1.838
 1586SOL     OW 5437   1.465   3.282   0.953
 1586SOL    HW1 5438   1.397   3.296   1.018
 1586SOL    HW2 5439   1.454   3.191   0.925
 1587SOL     OW 5440   1.660   3.597   0.585
 1587SOL    HW1 5441   1.642   3.574   0.494
 1587SOL    HW2 5442   1.634   3.520   0.636
 1588SOL     OW 5443   0.598   2.582   0.261
 1588SOL    HW1 5444   0.602   2.664   0.211
 1588SOL    HW2 5445   0.538   2.601   0.333
 1589SOL     OW 5446   1.279   2.214   0.933
 1589SOL    HW1 5447   1.191   2.179   0.942
 1589SOL    HW2 5448   1.333   2.160   0.991
 1590SOL     OW 5449   1.560   3.594   0.312
 1590SOL    HW1 5450   1.656   3.593   0.312
 1590SOL    HW2 5451   1.536   3.552   0.229
 1591SOL     OW 5452   0.792   2.479   1.453
 1591SOL    HW1 5453   0.765   2.456   1.541
 1591SOL    HW2 5454   0.751   2.413   1.397
 1592SOL     OW 5455   1.393   2.335   1.677
 1592SOL    HW1 5456   1.395   2.381   1.761
 1592SOL    HW2 5457   1.459   2.266   1.687
 1593SOL     OW 5458   0.956   2.750   1.582
 1593SOL    HW1 5459   1.010   2.679   1.547
 1593SOL    HW2 5460   0.908   2.783   1.505
 1594SOL     OW 5461   0.992   2.275   1.239
 1594SOL    HW1 5462   0.908   2.297   1.278
 1594SOL    HW2 5463   0.970   2.228   1.159
 1595SOL     OW 5464   1.049   2.563   0.429
 1595SOL    HW1 5465   1.064   2.554   0.523
 1595SOL    HW2 5466   0.967   2.516   0.413
 1596SOL     OW 5467   0.082   2.685   0.790
 1596SOL    HW1 5468   0.162   2.658   0.836
 1596SOL    HW2 5469   0.089   2.781   0.784
 1597SOL     OW 5470   0.128   3.711   1.573
 1597SOL    HW1 5471   0.134   3.681   1.664
 1597SOL    HW2 5472   0.035   3.700   1.551
 1598SOL     OW 5473   0.871   2.219   0.212
 1598SOL    HW1 5474   0.911   2.278   0.149
 1598SOL    HW2 5475   0.881   2.132   0.174
 1599SOL     OW 5476   1.684   2.447   1.831
 1599SOL    HW1 5477   1.656   2.518   1.773
 1599SOL    HW2 5478   1.728   2.384   1.774
 1600SOL     OW 5479   1.376   3.004   0.543
 1600SOL    HW1 5480   1.454   2.990   0.489
 1600SOL    HW2 5481   1.323   3.067   0.494
 1601SOL     OW 5482   0.546   2.043   0.892
 1601SOL    HW1 5483   0.552   2.072   0.983
 1601SOL    HW2 5484   0.549   2.124   0.841
 1602SOL     OW 5485   1.008   3.307   0.475
 1602SOL    HW1 5486   0.970   3.379   0.425
 1602SOL    HW2 5487   0.991   3.329   0.567
 1603SOL     OW 5488   0.358   3.667   0.858
 1603SOL    HW1 5489   0.433   3.609   0.866
 1603SOL    HW2 5490   0.395   3.755   0.867
 1604SOL     OW 5491   1.798   2.918   0.868
 1604SOL    HW1 5492   1.742   2.903   0.791
 1604SOL    HW2 5493   1.737   2.925   0.941
 1605SOL     OW 5494   1.228   3.399   1.511
 1605SOL    HW1 5495   1.213   3.327   1.572
 1605SOL    HW2 5496   1.164   3.386   1.442
 1606SOL     OW 5497   0.314   2.799   0.238
 1606SOL    HW1 5498   0.405   2.814   0.210
 1606SOL    HW2 5499   0.303   2.704   0.230
 1607SOL     OW 5500   1.477   2.601   0.727
 1607SOL    HW1 5501   1.467   2.558   0.812
 1607SOL    HW2 5502   1.554   2.658   0.737
 1608SOL     OW 5503   0.465   3.121   1.736
 1608SOL    HW1 5504   0.438   3.130   1.645
 1608SOL    HW2 5505   0.383   3.127   1.786
 1609SOL     OW 5506   1.124   3.640   0.234
 1609SOL    HW1 5507   1.060   3.594   0.289
 1609SOL    HW2 5508   1.149   3.576   0.168
 1610SOL     OW 5509   0.204   2.144   1.507
 1610SOL    HW1 5510   0.114   2.174   1.496
 1610SOL    HW2 5511   0.196   2.061   1.555
 1611SOL     OW 5512   1.633   3.234   0.080
 1611SOL    HW1 5513   1.594   3.318   0.056
 1611SOL    HW2 5514   1.565   3.169   0.062
 1612SOL     OW 5515   0.470   3.603   0.319
 1612SOL    HW1 5516   0.506   3.664   0.384
 1612SOL    HW2 5517   0.547   3.575   0.268
 1613SOL     OW 5518   1.402   1.972   0.430
 1613SOL    HW1 5519   1.384   1.949   0.338
 1613SOL    HW2 5520   1.493   1.945   0.443
 1614SOL     OW 5521   0.251   3.656   1.230
 1614SOL    HW1 5522   0.298   3.592   1.283
 1614SOL    HW2 5523   0.246   3.616   1.143
 1615SOL     OW 5524   0.937   3.560   0.902
 1615SOL    HW1 5525   1.015   3.508   0.921
 1615SOL    HW2 5526   0.892   3.512   0.833
 1616SOL     OW 5527   0.394   2.558   0.472
 1616SOL    HW1 5528   0.420   2.466   0.481
 1616SOL    HW2 5529   0.303   2.559   0.501
 1617SOL     OW 5530   1.538   2.086   1.725
 1617SOL    HW1 5531   1.548   2.108   1.818
 1617SOL    HW2 5532   1.467   2.022   1.723
 1618SOL     OW 5533   0.767   2.138   1.752
 1618SOL    HW1 5534   0.842   2.079   1.757
 1618SOL    HW2 5535   0.719   2.122   1.834
 1619SOL     OW 5536   0.876   3.382   1.194
 1619SOL    HW1 5537   0.861   3.347   1.106
 1619SOL    HW2 5538   0.946   3.328   1.230
 1620SOL     OW 5539   1.342   2.450   1.432
 1620SOL    HW1 5540   1.372   2.419   1.517
 1620SOL    HW2 5541   1.377   2.539   1.426
 1621SOL     OW 5542   0.814   3.258   0.937
 1621SOL    HW1 5543   0.899   3.247   0.893
 1621SOL    HW2 5544   0.750   3.257   0.866
 1622SOL     OW 5545   0.927   2.371   0.903
 1622SOL    HW1 5546   0.904   2.363   0.811
 1622SOL    HW2 5547   0.960   2.285   0.928
 1623SOL     OW 5548   0.554   1.923   0.505
 1623SOL    HW1 5549   0.473   1.922   0.555
 1623SOL    HW2 5550   0.547   2.001   0.450
 1624SOL     OW 5551   1.430   3.064   0.045
 1624SOL    HW1 5552   1.452   2.984   0.092
 1624SOL    HW2 5553   1.337   3.079   0.064
 1625SOL     OW 5554   0.267   1.871   0.218
 1625SOL    HW1 5555   0.299   1.954   0.181
 1625SOL    HW2 5556   0.347   1.823   0.241
 1626SOL     OW 5557   0.938   2.107   0.462
 1626SOL    HW1 5558   0.908   2.148   0.381
 1626SOL    HW2 5559   1.033   2.123   0.463
 1627SOL     OW 5560   1.080   2.542   1.459
 1627SOL    HW1 5561   1.011   2.476   1.465
 1627SOL    HW2 5562   1.161   2.491   1.453
 1628SOL     OW 5563   1.224   3.432   0.794
 1628SOL    HW1 5564   1.241   3.499   0.728
 1628SOL    HW2 5565   1.292   3.444   0.860
 1629SOL     OW 5566   0.465   3.011   0.737
 1629SOL    HW1 5567   0.393   2.988   0.796
 1629SOL    HW2 5568   0.430   2.996   0.649
 1630SOL     OW 5569   1.270   3.659   0.605
 1630SOL    HW1 5570   1.314   3.722   0.549
 1630SOL    HW2 5571   1.200   3.709   0.648
 1631SOL     OW 5572   0.999   2.409   0.060
 1631SOL    HW1 5573   1.000   2.407  13.864
 1631SOL    HW2 5574   1.091   2.409   0.085
 1632SOL     OW 5575   0.079   2.432   1.390
 1632SOL    HW1 5576   0.169   2.419   1.359
 1632SOL    HW2 5577   0.087   2.501   1.456
 1633SOL     OW 5578   0.567   2.088   1.163
 1633SOL    HW1 5579   0.606   2.011   1.203
 1633SOL    HW2 5580   0.476   2.087   1.193
 1634SOL     OW 5581   0.868   2.321   0.639
 1634SOL    HW1 5582   0.824   2.376   0.574
 1634SOL    HW2 5583   0.888   2.240   0.592
 1635SOL     OW 5584   1.015   1.914   0.752
 1635SOL    HW1 5585   0.956   1.908   0.677
 1635SOL    HW2 5586   0.993   1.839   0.807
 1636SOL     OW 5587   1.436   3.025   0.857
 1636SOL    HW1 5588   1.368   2.958   0.856
 1636SOL    HW2 5589   1.459   3.038   0.765
 1637SOL     OW 5590   1.466   2.465   0.978
 1637SOL    HW1 5591   1.417   2.384   0.982
 1637SOL    HW2 5592   1.526   2.461   1.053
 1638SOL     OW 5593   1.848   2.677   0.380
 1638SOL    HW1 5594   1.902   2.624   0.439
 1638SOL    HW2 5595   1.815   2.615   0.315
 1639SOL     OW 5596   0.495   3.241   0.167
 1639SOL    HW1 5597   0.418   3.222   0.220
 1639SOL    HW2 5598   0.460   3.277   0.086
 1640SOL     OW 5599   1.670   3.126   0.647
 1640SOL    HW1 5600   1.764   3.131   0.661
 1640SOL    HW2 5601   1.638   3.215   0.665
 1641SOL     OW 5602   1.419   2.446   0.086
 1641SOL    HW1 5603   1.349   2.436   0.151
 1641SOL    HW2 5604   1.464   2.361   0.086
 1642SOL     OW 5605   0.527   2.121   0.323
 1642SOL    HW1 5606   0.578   2.084   0.251
 1642SOL    HW2 5607   0.503   2.209   0.294
 1643SOL     OW 5608   1.753   3.100   1.574
 1643SOL    HW1 5609   1.840   3.061   1.573
 1643SOL    HW2 5610   1.768   3.190   1.603
 1644SOL     OW 5611   1.059   3.214   1.333
 1644SOL    HW1 5612   0.985   3.184   1.385
 1644SOL    HW2 5613   1.135   3.174   1.375
 1645SOL     OW 5614   1.607   3.487   1.653
 1645SOL    HW1 5615   1.602   3.521   1.564
 1645SOL    HW2 5616   1.691   3.441   1.656
 1646SOL     OW 5617   1.127   3.064   1.106
 1646SOL    HW1 5618   1.069   3.102   1.172
 1646SOL    HW2 5619   1.093   3.096   1.022
 1647SOL     OW 5620   1.630   2.961   1.078
 1647SOL    HW1 5621   1.626   3.023   1.151
 1647SOL    HW2 5622   1.550   2.978   1.028
 1648SOL     OW 5623   0.918   1.959   1.398
 1648SOL    HW1 5624   0.941   1.941   1.307
 1648SOL    HW2 5625   0.997   1.999   1.434
 1649SOL     OW 5626   0.984   2.977   1.722
 1649SOL    HW1 5627   0.892   2.992   1.742
 1649SOL    HW2 5628   0.984   2.899   1.666
 1650SOL     OW 5629   0.713   2.921   0.375
 1650SOL    HW1 5630   0.699   2.906   0.469
 1650SOL    HW2 5631   0.788   2.866   0.354
 1651SOL     OW 5632   0.420   2.676   1.251
 1651SOL    HW1 5633   0.489   2.685   1.317
 1651SOL    HW2 5634   0.385   2.588   1.264
 1652SOL     OW 5635   1.266   2.239   1.274
 1652SOL    HW1 5636   1.299   2.316   1.320
 1652SOL    HW2 5637   1.177   2.261   1.250
 1653SOL     OW 5638   0.064   3.441   1.344
 1653SOL    HW1 5639   0.066   3.509   1.277
 1653SOL    HW2 5640   0.156   3.428   1.368
 1654SOL     OW 5641   0.366   2.966   0.484
 1654SOL    HW1 5642   0.363   3.044   0.429
 1654SOL    HW2 5643   0.382   2.893   0.423
 1655SOL     OW 5644   0.553   2.400   0.862
 1655SOL    HW1 5645   0.569   2.456   0.786
 1655SOL    HW2 5646   0.618   2.427   0.926
 1656SOL     OW 5647   1.248   3.208   0.396
 1656SOL    HW1 5648   1.304   3.281   0.422
 1656SOL    HW2 5649   1.161   3.232   0.428
 1657SOL     OW 5650   1.279   3.319   1.147
 1657SOL    HW1 5651   1.334   3.322   1.224
 1657SOL    HW2 5652   1.223   3.242   1.160
 1658SOL     OW 5653   1.582   2.488   0.476
 1658SOL    HW1 5654   1.536   2.540   0.542
 1658SOL    HW2 5655   1.618   2.553   0.416
 1659SOL     OW 5656   0.346   3.387   1.319
 1659SOL    HW1 5657   0.336   3.337   1.238
 1659SOL    HW2 5658   0.440   3.403   1.327
 1660SOL     OW 5659   0.412   2.603   1.601
 1660SOL    HW1 5660   0.473   2.649   1.544
 1660SOL    HW2 5661   0.454   2.518   1.618
 1661SOL     OW 5662   1.597   2.645   1.674
 1661SOL    HW1 5663   1.512   2.687   1.669
 1661SOL    HW2 5664   1.650   2.689   1.608
 1662SOL     OW 5665   0.996   1.983   1.756
 1662SOL    HW1 5666   1.050   2.056   1.726
 1662SOL    HW2 5667   1.045   1.905   1.730
 1663SOL     OW 5668   0.498   1.901   1.744
 1663SOL    HW1 5669   0.455   1.847   1.677
 1663SOL    HW2 5670   0.441   1.977   1.754
 1664SOL     OW 5671   0.583   2.735   1.031
 1664SOL    HW1 5672   0.615   2.825   1.029
 1664SOL    HW2 5673   0.528   2.730   1.109
 1665SOL     OW 5674   1.359   2.721   1.031
 1665SOL    HW1 5675   1.277   2.713   0.983
 1665SOL    HW2 5676   1.398   2.633   1.027
 1666SOL     OW 5677   1.218   2.403   0.275
 1666SOL    HW1 5678   1.221   2.322   0.325
 1666SOL    HW2 5679   1.163   2.462   0.327
 1667SOL     OW 5680   0.312   2.061   1.247
 1667SOL    HW1 5681   0.266   2.098   1.323
 1667SOL    HW2 5682   0.287   1.969   1.247
 1668SOL     OW 5683   0.056   3.166   1.280
 1668SOL    HW1 5684   0.090   3.128   1.361
 1668SOL    HW2 5685   0.050   3.260   1.298
 1669SOL     OW 5686   0.725   2.494   1.059
 1669SOL    HW1 5687   0.799   2.476   1.000
 1669SOL    HW2 5688   0.698   2.583   1.037
 1670SOL     OW 5689   1.732   2.823   1.850
 1670SOL    HW1 5690   1.687   2.761   1.793
 1670SOL    HW2 5691   1.674   2.834   1.925
 1671SOL     OW 5692   0.313   1.927   0.623
 1671SOL    HW1 5693   0.291   2.017   0.646
 1671SOL    HW2 5694   0.313   1.880   0.706
 1672SOL     OW 5695   1.620   2.237   0.381
 1672SOL    HW1 5696   1.620   2.181   0.458
 1672SOL    HW2 5697   1.592   2.323   0.414
 1673SOL     OW 5698   1.027   2.621   0.961
 1673SOL    HW1 5699   1.025   2.639   1.055
 1673SOL    HW2 5700   1.001   2.530   0.954
 1674SOL     OW 5701   0.985   3.429   1.717
 1674SOL    HW1 5702   0.967   3.472   1.633
 1674SOL    HW2 5703   1.026   3.346   1.693
 1675SOL     OW 5704   1.855   3.369   1.605
 1675SOL    HW1 5705   1.873   3.396   1.515
 1675SOL    HW2 5706   1.936   3.390   1.652
 1676SOL     OW 5707   0.351   2.782   1.802
 1676SOL    HW1 5708   0.430   2.802   1.851
 1676SOL    HW2 5709   0.379   2.716   1.738
 1677SOL     OW 5710   1.525   2.153   0.139
 1677SOL    HW1 5711   1.502   2.061   0.150
 1677SOL    HW2 5712   1.568   2.177   0.221
 1678SOL     OW 5713   1.294   2.691   0.055
 1678SOL    HW1 5714   1.341   2.608   0.060
 1678SOL    HW2 5715   1.313   2.724  13.867
 1679SOL     OW 5716   1.065   3.197   0.853
 1679SOL    HW1 5717   1.068   3.125   0.790
 1679SOL    HW2 5718   1.127   3.261   0.818
 1680SOL     OW 5719   0.314   2.668   0.950
 1680SOL    HW1 5720   0.408   2.686   0.945
 1680SOL    HW2 5721   0.309   2.579   0.984
 1681SOL     OW 5722   0.332   2.381   1.013
 1681SOL    HW1 5723   0.298   2.293   0.995
 1681SOL    HW2 5724   0.408   2.389   0.955
 1682SOL     OW 5725   1.134   2.239   1.681
 1682SOL    HW1 5726   1.088   2.294   1.744
 1682SOL    HW2 5727   1.223   2.276   1.678
 1683SOL     OW 5728   1.160   2.066   1.470
 1683SOL    HW1 5729   1.151   2.128   1.542
 1683SOL    HW2 5730   1.199   2.117   1.399
 1684SOL     OW 5731   0.008   3.188   0.186
 1684SOL    HW1 5732   3.914   3.203   0.185
 1684SOL    HW2 5733   0.018   3.098   0.218
 1685SOL     OW 5734   0.075   3.663   0.895
 1685SOL    HW1 5735   0.084   3.568   0.898
 1685SOL    HW2 5736   0.165   3.696   0.890
 1686SOL     OW 5737   0.507   3.428   0.913
 1686SOL    HW1 5738   0.574   3.493   0.935
 1686SOL    HW2 5739   0.551   3.368   0.854
 1687SOL     OW 5740   0.985   2.655   1.227
 1687SOL    HW1 5741   1.040   2.631   1.302
 1687SOL    HW2 5742   0.899   2.618   1.248
 1688SOL     OW 5743   0.038   2.415   1.110
 1688SOL    HW1 5744   0.120   2.389   1.068
 1688SOL    HW2 5745   0.057   2.414   1.204
 1689SOL     OW 5746   0.206   2.376   1.726
 1689SOL    HW1 5747   0.249   2.333   1.653
 1689SOL    HW2 5748   0.155   2.447   1.686
 1690SOL     OW 5749   1.374   2.803   1.658
 1690SOL    HW1 5750   1.396   2.897   1.657
 1690SOL    HW2 5751   1.372   2.778   1.566
 1691SOL     OW 5752   0.814   2.437   0.367
 1691SOL    HW1 5753   0.827   2.362   0.308
 1691SOL    HW2 5754   0.742   2.486   0.328
 1692SOL     OW 5755   1.643   2.464   1.187
 1692SOL    HW1 5756   1.631   2.409   1.264
 1692SOL    HW2 5757   1.729   2.441   1.152
 1693SOL     OW 5758   0.296   3.409   1.732
 1693SOL    HW1 5759   0.245   3.479   1.774
 1693SOL    HW2 5760   0.261   3.329   1.769
 1694SOL     OW 5761   0.698   2.315   1.261
 1694SOL    HW1 5762   0.648   2.239   1.229
 1694SOL    HW2 5763   0.696   2.377   1.189
 1695SOL     OW 5764   0.931   3.536   1.467
 1695SOL    HW1 5765   0.903   3.502   1.382
 1695SOL    HW2 5766   0.925   3.631   1.458
 1696SOL     OW 5767   0.442   2.358   0.235
 1696SOL    HW1 5768   0.511   2.424   0.240
 1696SOL    HW2 5769   0.367   2.404   0.197
 1697SOL     OW 5770   0.157   2.998   1.473
 1697SOL    HW1 5771   0.161   2.946   1.553
 1697SOL    HW2 5772   0.172   2.935   1.403
 1698SOL     OW 5773   1.328   2.910   1.224
 1698SOL    HW1 5774   1.351   2.847   1.156
 1698SOL    HW2 5775   1.256   2.961   1.185
 1699SOL     OW 5776   1.309   2.721   0.324
 1699SOL    HW1 5777   1.233   2.685   0.371
 1699SOL    HW2 5778   1.289   2.706   0.232
 1700SOL     OW 5779   1.767   3.607   1.147
 1700SOL    HW1 5780   1.830   3.634   1.080
 1700SOL    HW2 5781   1.747   3.516   1.126
 1701SOL     OW 5782   1.243   3.596   1.114
 1701SOL    HW1 5783   1.325   3.614   1.069
 1701SOL    HW2 5784   1.247   3.502   1.133
 1702SOL     OW 5785   0.075   3.078   1.027
 1702SOL    HW1 5786   0.082   3.104   1.119
 1702SOL    HW2 5787   3.982   3.085   1.007
 1703SOL     OW 5788   0.679   3.525   1.726
 1703SOL    HW1 5789   0.624   3.603   1.730
 1703SOL    HW2 5790   0.738   3.540   1.653
 1704SOL     OW 5791   0.918   1.966   0.134
 1704SOL    HW1 5792   0.955   1.957   0.046
 1704SOL    HW2 5793   0.967   1.904   0.187
 1705SOL     OW 5794   1.389   3.434   0.482
 1705SOL    HW1 5795   1.451   3.468   0.418
 1705SOL    HW2 5796   1.342   3.511   0.514
 1706SOL     OW 5797   0.167   3.629   1.830
 1706SOL    HW1 5798   0.109   3.578   1.888
 1706SOL    HW2 5799   0.214   3.687   1.889
 1707SOL     OW 5800   1.277   2.787   0.671
 1707SOL    HW1 5801   1.350   2.725   0.676
 1707SOL    HW2 5802   1.310   2.860   0.619
 1708SOL     OW 5803   0.816   3.134   1.431
 1708SOL    HW1 5804   0.789   3.174   1.514
 1708SOL    HW2 5805   0.746   3.156   1.370
 1709SOL     OW 5806   0.678   3.444   0.183
 1709SOL    HW1 5807   0.661   3.485   0.098
 1709SOL    HW2 5808   0.628   3.362   0.181
 1710SOL     OW 5809   1.628   3.588   1.391
 1710SOL    HW1 5810   1.678   3.595   1.309
 1710SOL    HW2 5811   1.615   3.678   1.418
 1711SOL     OW 5812   0.267   2.177   0.719
 1711SOL    HW1 5813   0.183   2.213   0.693
 1711SOL    HW2 5814   0.261   2.166   0.813
 1712SOL     OW 5815   1.218   3.463   0.032
 1712SOL    HW1 5816   1.207   3.373   0.061
 1712SOL    HW2 5817   1.177   3.465  13.845
 1713SOL     OW 5818   0.824   2.868   1.372
 1713SOL    HW1 5819   0.868   2.864   1.287
 1713SOL    HW2 5820   0.824   2.960   1.395
 1714SOL     OW 5821   0.920   2.773   0.287
 1714SOL    HW1 5822   0.990   2.810   0.234
 1714SOL    HW2 5823   0.962   2.701   0.335
 1715SOL     OW 5824   1.488   3.497   0.066
 1715SOL    HW1 5825   1.395   3.484   0.052
 1715SOL    HW2 5826   1.526   3.501  13.878
 1716SOL     OW 5827   0.373   3.164   1.491
 1716SOL    HW1 5828   0.359   3.244   1.441
 1716SOL    HW2 5829   0.295   3.111   1.474
 1717SOL     OW 5830   1.611   3.145   1.281
 1717SOL    HW1 5831   1.671   3.136   1.355
 1717SOL    HW2 5832   1.551   3.214   1.307
 1718SOL     OW 5833   1.050   2.968   0.705
 1718SOL    HW1 5834   0.980   2.916   0.745
 1718SOL    HW2 5835   1.112   2.903   0.674
 1719SOL     OW 5836   1.020   2.102   0.966
 1719SOL    HW1 5837   1.016   2.054   0.883
 1719SOL    HW2 5838   1.015   2.034   1.033
 1720SOL     OW 5839   0.603   3.351   0.482
 1720SOL    HW1 5840   0.646   3.301   0.413
 1720SOL    HW2 5841   0.536   3.401   0.437
 1721SOL     OW 5842   1.722   2.253   1.377
 1721SOL    HW1 5843   1.795   2.314   1.383
 1721SOL    HW2 5844   1.750   2.187   1.314
 1722SOL     OW 5845   0.260   3.182   0.304
 1722SOL    HW1 5846   0.183   3.213   0.256
 1722SOL    HW2 5847   0.258   3.230   0.387
 1723SOL     OW 5848   0.105   2.862   1.718
 1723SOL    HW1 5849   0.044   2.851   1.791
 1723SOL    HW2 5850   0.191   2.842   1.756
 1724SOL     OW 5851   0.673   2.058   1.499
 1724SOL    HW1 5852   0.757   2.039   1.457
 1724SOL    HW2 5853   0.697   2.088   1.587
 1725SOL     OW 5854   0.052   2.219   0.041
 1725SOL    HW1 5855   3.958   2.214   0.060
 1725SOL    HW2 5856   0.056   2.248  13.850
 1726SOL     OW 5857   1.431   2.721   1.401
 1726SOL    HW1 5858   1.383   2.781   1.344
 1726SOL    HW2 5859   1.521   2.723   1.368
 1727SOL     OW 5860   0.057   2.034   0.315
 1727SOL    HW1 5861   0.077   2.104   0.253
 1727SOL    HW2 5862   0.124   1.967   0.297
 1728SOL     OW 5863   1.185   3.211   0.123
 1728SOL    HW1 5864   1.092   3.192   0.112
 1728SOL    HW2 5865   1.202   3.198   0.216
 1729SOL     OW 5866   0.618   2.693   1.434
 1729SOL    HW1 5867   0.674   2.769   1.419
 1729SOL    HW2 5868   0.679   2.620   1.443
 1730SOL     OW 5869   1.485   3.639   0.978
 1730SOL    HW1 5870   1.511   3.692   0.903
 1730SOL    HW2 5871   1.568   3.619   1.023
 1731SOL     OW 5872   0.716   2.427   1.706
 1731SOL    HW1 5873   0.756   2.490   1.765
 1731SOL    HW2 5874   0.749   2.342   1.736
 1732SOL     OW 5875   1.470   3.064   1.632
 1732SOL    HW1 5876   1.458   3.077   1.726
 1732SOL    HW2 5877   1.564   3.077   1.618
 1733SOL     OW 5878   0.380   3.604   1.559
 1733SOL    HW1 5879   0.292   3.640   1.545
 1733SOL    HW2 5880   0.365   3.523   1.607
 1734SOL     OW 5881   1.671   2.744   1.254
 1734SOL    HW1 5882   1.662   2.659   1.212
 1734SOL    HW2 5883   1.661   2.807   1.184
 1735SOL     OW 5884   1.218   2.182   0.456
 1735SOL    HW1 5885   1.282   2.112   0.448
 1735SOL    HW2 5886   1.245   2.231   0.533
 1736SOL     OW 5887   0.590   2.601   0.669
 1736SOL    HW1 5888   0.629   2.687   0.653
 1736SOL    HW2 5889   0.521   2.593   0.603
 1737SOL     OW 5890   1.759   2.236   1.654
 1737SOL    HW1 5891   1.749   2.242   1.559
 1737SOL    HW2 5892   1.688   2.177   1.682
 1738SOL     OW 5893   1.745   2.798   1.510
 1738SOL    HW1 5894   1.744   2.893   1.524
 1738SOL    HW2 5895   1.730   2.787   1.417
 1739SOL     OW 5896   0.904   3.258   0.057
 1739SOL    HW1 5897   0.832   3.243   0.118
 1739SOL    HW2 5898   0.861   3.276  13.873
 1740SOL     OW 5899   0.658   3.654   0.942
 1740SOL    HW1 5900   0.635   3.744   0.921
 1740SOL    HW2 5901   0.754   3.652   0.937
 1741SOL     OW 5902   0.866   2.827   0.855
 1741SOL    HW1 5903   0.917   2.757   0.895
 1741SOL    HW2 5904   0.833   2.878   0.929
 1742SOL     OW 5905   1.098   2.867   0.106
 1742SOL    HW1 5906   1.087   2.915   0.024
 1742SOL    HW2 5907   1.173   2.810   0.091
 1743SOL     OW 5908   1.855   3.415   0.844
 1743SOL    HW1 5909   1.777   3.406   0.790
 1743SOL    HW2 5910   1.844   3.351   0.914
 1744SOL     OW 5911   0.223   3.166   1.855
 1744SOL    HW1 5912   0.152   3.107   1.830
 1744SOL    HW2 5913   0.211   3.179   1.949
 1745SOL     OW 5914   0.105   3.135   0.720
 1745SOL    HW1 5915   0.119   3.084   0.800
 1745SOL    HW2 5916   0.111   3.071   0.649
 1746SOL     OW 5917   0.680   3.263   1.628
 1746SOL    HW1 5918   0.599   3.221   1.657
 1746SOL    HW2 5919   0.676   3.352   1.664
 1747SOL     OW 5920   0.436   2.296   0.534
 1747SOL    HW1 5921   0.462   2.224   0.476
 1747SOL    HW2 5922   0.384   2.255   0.602
 1748SOL     OW 5923   1.702   3.351   1.096
 1748SOL    HW1 5924   1.620   3.327   1.053
 1748SOL    HW2 5925   1.715   3.284   1.163
 1749SOL     OW 5926   0.331   2.416   1.291
 1749SOL    HW1 5927   0.386   2.360   1.345
 1749SOL    HW2 5928   0.348   2.386   1.201
 1750SOL     OW 5929   0.826   3.440   0.678
 1750SOL    HW1 5930   0.818   3.488   0.596
 1750SOL    HW2 5931   0.749   3.384   0.680
 1751SOL     OW 5932   1.437   2.089   1.119
 1751SOL    HW1 5933   1.454   2.004   1.160
 1751SOL    HW2 5934   1.382   2.136   1.182
 1752SOL     OW 5935   1.009   1.881   1.144
 1752SOL    HW1 5936   0.955   1.813   1.105
 1752SOL    HW2 5937   1.097   1.844   1.146
 1753SOL     OW 5938   0.772   3.185   0.318
 1753SOL    HW1 5939   0.741   3.096   0.333
 1753SOL    HW2 5940   0.857   3.188   0.362
 1754SOL     OW 5941   0.620   3.418   1.284
 1754SOL    HW1 5942   0.622   3.499   1.335
 1754SOL    HW2 5943   0.707   3.412   1.246
 1755SOL     OW 5944   1.346   1.923   0.164
 1755SOL    HW1 5945   1.376   1.871   0.090
 1755SOL    HW2 5946   1.263   1.882   0.190
 1756SOL     OW 5947   1.297   2.322   0.681
 1756SOL    HW1 5948   1.244   2.401   0.689
 1756SOL    HW2 5949   1.294   2.282   0.768
 1757SOL     OW 5950   1.576   2.059   0.869
 1757SOL    HW1 5951   1.533   2.082   0.952
 1757SOL    HW2 5952   1.589   2.143   0.825
 1758SOL     OW 5953   0.039   2.899   0.252
 1758SOL    HW1 5954   0.135   2.889   0.250
 1758SOL    HW2 5955   0.009   2.828   0.308
 1759SOL     OW 5956   0.890   3.516   0.347
 1759SOL    HW1 5957   0.818   3.485   0.291
 1759SOL    HW2 5958   0.854   3.592   0.392
 1760SOL     OW 5959   0.231   2.483   1.983
 1760SOL    HW1 5960   0.138   2.493   2.003
 1760SOL    HW2 5961   0.233   2.455   1.892
 1761SOL     OW 5962   0.228   2.132   2.849
 1761SOL    HW1 5963   0.249   2.102   2.937
 1761SOL    HW2 5964   0.133   2.123   2.842
 1762SOL     OW 5965   0.012   2.226   2.495
 1762SOL    HW1 5966   3.926   2.244   2.533
 1762SOL    HW2 5967   3.993   2.188   2.410
 1763SOL     OW 5968   0.576   3.143   3.044
 1763SOL    HW1 5969   0.489   3.149   3.003
 1763SOL    HW2 5970   0.591   3.231   3.078
 1764SOL     OW 5971   1.559   3.373   2.569
 1764SOL    HW1 5972   1.516   3.353   2.652
 1764SOL    HW2 5973   1.487   3.377   2.505
 1765SOL     OW 5974   1.130   2.560   2.564
 1765SOL    HW1 5975   1.180   2.641   2.550
 1765SOL    HW2 5976   1.083   2.575   2.647
 1766SOL     OW 5977   1.752   2.476   2.095
 1766SOL    HW1 5978   1.741   2.468   2.000
 1766SOL    HW2 5979   1.746   2.386   2.127
 1767SOL     OW 5980   0.758   3.004   2.900
 1767SOL    HW1 5981   0.691   3.038   2.959
 1767SOL    HW2 5982   0.792   3.082   2.856
 1768SOL     OW 5983   0.863   2.640   3.683
 1768SOL    HW1 5984   0.855   2.711   3.746
 1768SOL    HW2 5985   0.888   2.683   3.601
 1769SOL     OW 5986   0.686   2.867   2.510
 1769SOL    HW1 5987   0.751   2.854   2.579
 1769SOL    HW2 5988   0.616   2.918   2.552
 1770SOL     OW 5989   0.709   3.013   3.673
 1770SOL    HW1 5990   0.757   3.091   3.699
 1770SOL    HW2 5991   0.626   3.045   3.639
 1771SOL     OW 5992   0.351   3.265   2.940
 1771SOL    HW1 5993   0.268   3.251   2.894
 1771SOL    HW2 5994   0.400   3.325   2.884
 1772SOL     OW 5995   1.461   3.361   3.214
 1772SOL    HW1 5996   1.510   3.443   3.224
 1772SOL    HW2 5997   1.402   3.358   3.289
 1773SOL     OW 5998   0.450   2.263   3.354
 1773SOL    HW1 5999   0.524   2.202   3.356
 1773SOL    HW2 6000   0.373   2.207   3.364
 1774SOL     OW 6001   1.610   2.308   2.598
 1774SOL    HW1 6002   1.532   2.334   2.549
 1774SOL    HW2 6003   1.632   2.384   2.651
 1775SOL     OW 6004   0.226   3.571   2.329
 1775SOL    HW1 6005   0.233   3.651   2.382
 1775SOL    HW2 6006   0.302   3.575   2.271
 1776SOL     OW 6007   1.136   3.203   3.554
 1776SOL    HW1 6008   1.176   3.199   3.641
 1776SOL    HW2 6009   1.083   3.123   3.548
 1777SOL     OW 6010   0.245   3.305   2.401
 1777SOL    HW1 6011   0.219   3.396   2.389
 1777SOL    HW2 6012   0.176   3.267   2.455
 1778SOL     OW 6013   0.245   2.932   2.746
 1778SOL    HW1 6014   0.264   2.849   2.789
 1778SOL    HW2 6015   0.194   2.981   2.810
 1779SOL     OW 6016   0.614   3.649   3.292
 1779SOL    HW1 6017   0.531   3.634   3.338
 1779SOL    HW2 6018   0.639   3.738   3.317
 1780SOL     OW 6019   0.583   2.845   1.997
 1780SOL    HW1 6020   0.628   2.893   1.928
 1780SOL    HW2 6021   0.626   2.873   2.078
 1781SOL     OW 6022   1.597   1.988   3.329
 1781SOL    HW1 6023   1.581   2.070   3.283
 1781SOL    HW2 6024   1.589   2.010   3.421
 1782SOL     OW 6025   0.140   2.509   2.436
 1782SOL    HW1 6026   0.085   2.431   2.437
 1782SOL    HW2 6027   0.104   2.565   2.505
 1783SOL     OW 6028   1.841   3.615   2.200
 1783SOL    HW1 6029   1.905   3.590   2.266
 1783SOL    HW2 6030   1.865   3.705   2.177
 1784SOL     OW 6031   0.041   3.455   2.002
 1784SOL    HW1 6032   0.031   3.362   2.023
 1784SOL    HW2 6033   3.964   3.497   2.040
 1785SOL     OW 6034   1.690   2.781   2.501
 1785SOL    HW1 6035   1.773   2.738   2.480
 1785SOL    HW2 6036   1.667   2.831   2.423
 1786SOL     OW 6037   1.645   2.969   2.291
 1786SOL    HW1 6038   1.731   2.976   2.249
 1786SOL    HW2 6039   1.651   3.030   2.365
 1787SOL     OW 6040   0.133   2.613   3.453
 1787SOL    HW1 6041   0.229   2.607   3.458
 1787SOL    HW2 6042   0.114   2.705   3.469
 1788SOL     OW 6043   0.613   3.246   2.596
 1788SOL    HW1 6044   0.567   3.163   2.606
 1788SOL    HW2 6045   0.596   3.272   2.506
 1789SOL     OW 6046   1.289   3.100   3.286
 1789SOL    HW1 6047   1.322   3.033   3.226
 1789SOL    HW2 6048   1.346   3.094   3.363
 1790SOL     OW 6049   0.815   1.860   2.369
 1790SOL    HW1 6050   0.855   1.946   2.352
 1790SOL    HW2 6051   0.721   1.879   2.378
 1791SOL     OW 6052   0.186   2.817   3.138
 1791SOL    HW1 6053   0.274   2.782   3.123
 1791SOL    HW2 6054   0.131   2.771   3.074
 1792SOL     OW 6055   1.531   2.855   2.059
 1792SOL    HW1 6056   1.462   2.796   2.090
 1792SOL    HW2 6057   1.572   2.889   2.139
 1793SOL     OW 6058   1.209   3.664   3.487
 1793SOL    HW1 6059   1.195   3.723   3.413
 1793SOL    HW2 6060   1.212   3.577   3.447
 1794SOL     OW 6061   0.337   2.109   3.674
 1794SOL    HW1 6062   0.379   2.195   3.681
 1794SOL    HW2 6063   0.246   2.124   3.700
 1795SOL     OW 6064   1.465   3.282   2.814
 1795SOL    HW1 6065   1.397   3.296   2.880
 1795SOL    HW2 6066   1.454   3.191   2.787
 1796SOL     OW 6067   1.657   3.597   2.441
 1796SOL    HW1 6068   1.640   3.568   2.352
 1796SOL    HW2 6069   1.633   3.523   2.496
 1797SOL     OW 6070   0.596   2.582   2.125
 1797SOL    HW1 6071   0.604   2.664   2.077
 1797SOL    HW2 6072   0.533   2.600   2.195
 1798SOL     OW 6073   1.279   2.215   2.796
 1798SOL    HW1 6074   1.191   2.179   2.804
 1798SOL    HW2 6075   1.333   2.160   2.853
 1799SOL     OW 6076   1.579   3.535   2.170
 1799SOL    HW1 6077   1.670   3.563   2.165
 1799SOL    HW2 6078   1.555   3.515   2.079
 1800SOL     OW 6079   0.792   2.479   3.315
 1800SOL    HW1 6080   0.765   2.456   3.403
 1800SOL    HW2 6081   0.751   2.413   3.259
 1801SOL     OW 6082   1.393   2.335   3.539
 1801SOL    HW1 6083   1.395   2.381   3.623
 1801SOL    HW2 6084   1.459   2.266   3.549
 1802SOL     OW 6085   0.956   2.750   3.444
 1802SOL    HW1 6086   1.010   2.679   3.409
 1802SOL    HW2 6087   0.908   2.783   3.368
 1803SOL     OW 6088   0.992   2.275   3.101
 1803SOL    HW1 6089   0.908   2.297   3.140
 1803SOL    HW2 6090   0.970   2.228   3.021
 1804SOL     OW 6091   1.050   2.561   2.288
 1804SOL    HW1 6092   1.065   2.554   2.383
 1804SOL    HW2 6093   0.968   2.513   2.274
 1805SOL     OW 6094   0.082   2.686   2.652
 1805SOL    HW1 6095   0.162   2.658   2.697
 1805SOL    HW2 6096   0.090   2.781   2.645
 1806SOL     OW 6097   0.128   3.711   3.435
 1806SOL    HW1 6098   0.134   3.681   3.526
 1806SOL    HW2 6099   0.035   3.700   3.413
 1807SOL     OW 6100   0.890   2.210   2.054
 1807SOL    HW1 6101   0.933   2.271   1.995
 1807SOL    HW2 6102   0.911   2.123   2.019
 1808SOL     OW 6103   1.681   2.447   3.694
 1808SOL    HW1 6104   1.655   2.518   3.635
 1808SOL    HW2 6105   1.728   2.385   3.638
 1809SOL     OW 6106   1.376   3.004   2.404
 1809SOL    HW1 6107   1.455   2.990   2.351
 1809SOL    HW2 6108   1.324   3.066   2.353
 1810SOL     OW 6109   0.546   2.043   2.754
 1810SOL    HW1 6110   0.552   2.073   2.845
 1810SOL    HW2 6111   0.548   2.123   2.702
 1811SOL     OW 6112   1.007   3.308   2.335
 1811SOL    HW1 6113   0.967   3.380   2.286
 1811SOL    HW2 6114   0.991   3.329   2.427
 1812SOL     OW 6115   0.358   3.668   2.719
 1812SOL    HW1 6116   0.434   3.609   2.728
 1812SOL    HW2 6117   0.395   3.756   2.728
 1813SOL     OW 6118   1.799   2.920   2.729
 1813SOL    HW1 6119   1.743   2.902   2.653
 1813SOL    HW2 6120   1.737   2.925   2.803
 1814SOL     OW 6121   1.228   3.399   3.373
 1814SOL    HW1 6122   1.213   3.327   3.434
 1814SOL    HW2 6123   1.164   3.385   3.304
 1815SOL     OW 6124   0.311   2.817   2.104
 1815SOL    HW1 6125   0.396   2.841   2.066
 1815SOL    HW2 6126   0.296   2.727   2.077
 1816SOL     OW 6127   1.477   2.603   2.590
 1816SOL    HW1 6128   1.468   2.558   2.674
 1816SOL    HW2 6129   1.555   2.658   2.600
 1817SOL     OW 6130   0.465   3.121   3.599
 1817SOL    HW1 6131   0.438   3.130   3.507
 1817SOL    HW2 6132   0.383   3.127   3.648
 1818SOL     OW 6133   1.113   3.642   2.086
 1818SOL    HW1 6134   1.051   3.594   2.142
 1818SOL    HW2 6135   1.142   3.578   2.021
 1819SOL     OW 6136   0.204   2.144   3.369
 1819SOL    HW1 6137   0.114   2.174   3.358
 1819SOL    HW2 6138   0.195   2.061   3.417
 1820SOL     OW 6139   1.628   3.242   1.950
 1820SOL    HW1 6140   1.588   3.327   1.933
 1820SOL    HW2 6141   1.560   3.178   1.931
 1821SOL     OW 6142   0.469   3.599   2.183
 1821SOL    HW1 6143   0.506   3.663   2.245
 1821SOL    HW2 6144   0.543   3.574   2.128
 1822SOL     OW 6145   1.397   1.969   2.291
 1822SOL    HW1 6146   1.381   1.946   2.200
 1822SOL    HW2 6147   1.492   1.962   2.301
 1823SOL     OW 6148   0.251   3.656   3.092
 1823SOL    HW1 6149   0.298   3.593   3.146
 1823SOL    HW2 6150   0.246   3.615   3.006
 1824SOL     OW 6151   0.937   3.560   2.764
 1824SOL    HW1 6152   1.015   3.508   2.783
 1824SOL    HW2 6153   0.892   3.512   2.695
 1825SOL     OW 6154   0.395   2.556   2.335
 1825SOL    HW1 6155   0.423   2.465   2.348
 1825SOL    HW2 6156   0.303   2.557   2.362
 1826SOL     OW 6157   1.538   2.086   3.587
 1826SOL    HW1 6158   1.548   2.108   3.679
 1826SOL    HW2 6159   1.467   2.022   3.585
 1827SOL     OW 6160   0.631   1.983   1.964
 1827SOL    HW1 6161   0.703   1.922   1.979
 1827SOL    HW2 6162   0.587   1.950   1.886
 1828SOL     OW 6163   0.767   2.138   3.615
 1828SOL    HW1 6164   0.842   2.079   3.619
 1828SOL    HW2 6165   0.719   2.122   3.696
 1829SOL     OW 6166   0.876   3.382   3.056
 1829SOL    HW1 6167   0.861   3.347   2.968
 1829SOL    HW2 6168   0.946   3.328   3.092
 1830SOL     OW 6169   1.342   2.450   3.294
 1830SOL    HW1 6170   1.372   2.419   3.379
 1830SOL    HW2 6171   1.377   2.539   3.288
 1831SOL     OW 6172   0.814   3.258   2.799
 1831SOL    HW1 6173   0.899   3.247   2.755
 1831SOL    HW2 6174   0.750   3.257   2.728
 1832SOL     OW 6175   0.927   2.371   2.766
 1832SOL    HW1 6176   0.905   2.363   2.673
 1832SOL    HW2 6177   0.960   2.285   2.790
 1833SOL     OW 6178   0.552   1.924   2.362
 1833SOL    HW1 6179   0.470   1.929   2.411
 1833SOL    HW2 6180   0.557   2.007   2.314
 1834SOL     OW 6181   1.428   3.060   1.903
 1834SOL    HW1 6182   1.460   2.984   1.952
 1834SOL    HW2 6183   1.342   3.080   1.941
 1835SOL     OW 6184   0.305   1.912   2.032
 1835SOL    HW1 6185   0.371   1.953   1.976
 1835SOL    HW2 6186   0.353   1.847   2.083
 1836SOL     OW 6187   0.937   2.106   2.325
 1836SOL    HW1 6188   0.906   2.149   2.245
 1836SOL    HW2 6189   1.032   2.122   2.325
 1837SOL     OW 6190   1.080   2.542   3.321
 1837SOL    HW1 6191   1.011   2.476   3.327
 1837SOL    HW2 6192   1.161   2.491   3.315
 1838SOL     OW 6193   1.224   3.431   2.655
 1838SOL    HW1 6194   1.241   3.500   2.591
 1838SOL    HW2 6195   1.292   3.443   2.722
 1839SOL     OW 6196   0.466   3.011   2.601
 1839SOL    HW1 6197   0.393   2.989   2.659
 1839SOL    HW2 6198   0.433   2.995   2.513
 1840SOL     OW 6199   1.269   3.659   2.467
 1840SOL    HW1 6200   1.314   3.723   2.411
 1840SOL    HW2 6201   1.200   3.708   2.510
 1841SOL     OW 6202   1.024   2.405   1.883
 1841SOL    HW1 6203   0.983   2.489   1.864
 1841SOL    HW2 6204   1.091   2.426   1.949
 1842SOL     OW 6205   0.079   2.432   3.252
 1842SOL    HW1 6206   0.169   2.419   3.221
 1842SOL    HW2 6207   0.087   2.501   3.318
 1843SOL     OW 6208   0.567   2.088   3.025
 1843SOL    HW1 6209   0.606   2.011   3.065
 1843SOL    HW2 6210   0.476   2.087   3.055
 1844SOL     OW 6211   0.869   2.321   2.502
 1844SOL    HW1 6212   0.821   2.374   2.439
 1844SOL    HW2 6213   0.888   2.240   2.455
 1845SOL     OW 6214   1.015   1.915   2.615
 1845SOL    HW1 6215   0.957   1.908   2.539
 1845SOL    HW2 6216   0.993   1.839   2.669
 1846SOL     OW 6217   1.436   3.025   2.719
 1846SOL    HW1 6218   1.368   2.958   2.718
 1846SOL    HW2 6219   1.460   3.037   2.627
 1847SOL     OW 6220   1.466   2.466   2.840
 1847SOL    HW1 6221   1.417   2.384   2.844
 1847SOL    HW2 6222   1.526   2.461   2.915
 1848SOL     OW 6223   1.847   2.681   2.245
 1848SOL    HW1 6224   1.904   2.628   2.301
 1848SOL    HW2 6225   1.815   2.619   2.179
 1849SOL     OW 6226   0.490   3.276   2.024
 1849SOL    HW1 6227   0.414   3.246   2.074
 1849SOL    HW2 6228   0.467   3.258   1.933
 1850SOL     OW 6229   1.669   3.127   2.509
 1850SOL    HW1 6230   1.764   3.131   2.522
 1850SOL    HW2 6231   1.638   3.215   2.530
 1851SOL     OW 6232   1.392   2.435   1.931
 1851SOL    HW1 6233   1.338   2.413   2.007
 1851SOL    HW2 6234   1.481   2.413   1.958
 1852SOL     OW 6235   0.573   2.131   2.186
 1852SOL    HW1 6236   0.597   2.080   2.108
 1852SOL    HW2 6237   0.539   2.214   2.152
 1853SOL     OW 6238   1.753   3.100   3.436
 1853SOL    HW1 6239   1.840   3.061   3.435
 1853SOL    HW2 6240   1.768   3.190   3.465
 1854SOL     OW 6241   1.059   3.215   3.195
 1854SOL    HW1 6242   0.985   3.184   3.247
 1854SOL    HW2 6243   1.135   3.174   3.237
 1855SOL     OW 6244   1.607   3.487   3.515
 1855SOL    HW1 6245   1.602   3.521   3.426
 1855SOL    HW2 6246   1.691   3.441   3.518
 1856SOL     OW 6247   1.127   3.064   2.968
 1856SOL    HW1 6248   1.069   3.102   3.034
 1856SOL    HW2 6249   1.093   3.096   2.884
 1857SOL     OW 6250   1.630   2.961   2.940
 1857SOL    HW1 6251   1.625   3.023   3.013
 1857SOL    HW2 6252   1.550   2.977   2.890
 1858SOL     OW 6253   0.918   1.959   3.260
 1858SOL    HW1 6254   0.941   1.941   3.169
 1858SOL    HW2 6255   0.997   1.999   3.296
 1859SOL     OW 6256   0.984   2.977   3.584
 1859SOL    HW1 6257   0.892   2.992   3.604
 1859SOL    HW2 6258   0.984   2.899   3.528
 1860SOL     OW 6259   0.707   2.921   2.233
 1860SOL    HW1 6260   0.694   2.907   2.327
 1860SOL    HW2 6261   0.784   2.869   2.211
 1861SOL     OW 6262   0.420   2.676   3.114
 1861SOL    HW1 6263   0.489   2.685   3.179
 1861SOL    HW2 6264   0.385   2.588   3.126
 1862SOL     OW 6265   1.266   2.239   3.137
 1862SOL    HW1 6266   1.299   2.316   3.182
 1862SOL    HW2 6267   1.177   2.261   3.112
 1863SOL     OW 6268   0.064   3.441   3.206
 1863SOL    HW1 6269   0.066   3.510   3.140
 1863SOL    HW2 6270   0.156   3.428   3.230
 1864SOL     OW 6271   0.375   2.964   2.348
 1864SOL    HW1 6272   0.368   3.042   2.293
 1864SOL    HW2 6273   0.373   2.891   2.286
 1865SOL     OW 6274   0.553   2.400   2.724
 1865SOL    HW1 6275   0.569   2.457   2.648
 1865SOL    HW2 6276   0.618   2.428   2.788
 1866SOL     OW 6277   1.248   3.210   2.251
 1866SOL    HW1 6278   1.304   3.281   2.282
 1866SOL    HW2 6279   1.161   3.231   2.285
 1867SOL     OW 6280   1.279   3.319   3.008
 1867SOL    HW1 6281   1.334   3.322   3.086
 1867SOL    HW2 6282   1.224   3.242   3.021
 1868SOL     OW 6283   1.579   2.484   2.338
 1868SOL    HW1 6284   1.538   2.543   2.400
 1868SOL    HW2 6285   1.626   2.541   2.277
 1869SOL     OW 6286   0.346   3.387   3.182
 1869SOL    HW1 6287   0.336   3.337   3.100
 1869SOL    HW2 6288   0.440   3.403   3.189
 1870SOL     OW 6289   0.412   2.603   3.463
 1870SOL    HW1 6290   0.473   2.649   3.406
 1870SOL    HW2 6291   0.454   2.518   3.479
 1871SOL     OW 6292   1.597   2.645   3.536
 1871SOL    HW1 6293   1.512   2.687   3.530
 1871SOL    HW2 6294   1.650   2.689   3.470
 1872SOL     OW 6295   0.996   1.983   3.618
 1872SOL    HW1 6296   1.050   2.056   3.588
 1872SOL    HW2 6297   1.045   1.905   3.592
 1873SOL     OW 6298   0.498   1.901   3.606
 1873SOL    HW1 6299   0.456   1.847   3.539
 1873SOL    HW2 6300   0.441   1.977   3.616
 1874SOL     OW 6301   0.583   2.735   2.893
 1874SOL    HW1 6302   0.615   2.825   2.891
 1874SOL    HW2 6303   0.528   2.730   2.971
 1875SOL     OW 6304   1.359   2.721   2.893
 1875SOL    HW1 6305   1.277   2.713   2.845
 1875SOL    HW2 6306   1.398   2.633   2.889
 1876SOL     OW 6307   1.206   2.390   2.131
 1876SOL    HW1 6308   1.213   2.312   2.185
 1876SOL    HW2 6309   1.163   2.455   2.187
 1877SOL     OW 6310   0.312   2.061   3.109
 1877SOL    HW1 6311   0.266   2.098   3.185
 1877SOL    HW2 6312   0.286   1.969   3.109
 1878SOL     OW 6313   0.057   3.166   3.142
 1878SOL    HW1 6314   0.090   3.128   3.223
 1878SOL    HW2 6315   0.050   3.260   3.160
 1879SOL     OW 6316   0.726   2.494   2.921
 1879SOL    HW1 6317   0.799   2.476   2.863
 1879SOL    HW2 6318   0.698   2.583   2.899
 1880SOL     OW 6319   1.732   2.823   3.712
 1880SOL    HW1 6320   1.687   2.761   3.655
 1880SOL    HW2 6321   1.674   2.834   3.787
 1881SOL     OW 6322   0.310   1.926   2.483
 1881SOL    HW1 6323   0.292   2.017   2.505
 1881SOL    HW2 6324   0.314   1.881   2.568
 1882SOL     OW 6325   1.608   2.233   2.237
 1882SOL    HW1 6326   1.623   2.183   2.317
 1882SOL    HW2 6327   1.587   2.322   2.267
 1883SOL     OW 6328   1.027   2.621   2.823
 1883SOL    HW1 6329   1.025   2.639   2.917
 1883SOL    HW2 6330   1.001   2.530   2.816
 1884SOL     OW 6331   0.985   3.429   3.579
 1884SOL    HW1 6332   0.967   3.472   3.495
 1884SOL    HW2 6333   1.026   3.346   3.555
 1885SOL     OW 6334   1.855   3.369   3.467
 1885SOL    HW1 6335   1.873   3.396   3.377
 1885SOL    HW2 6336   1.936   3.390   3.515
 1886SOL     OW 6337   0.351   2.782   3.664
 1886SOL    HW1 6338   0.430   2.802   3.713
 1886SOL    HW2 6339   0.379   2.716   3.600
 1887SOL     OW 6340   1.531   2.132   1.989
 1887SOL    HW1 6341   1.464   2.070   2.018
 1887SOL    HW2 6342   1.563   2.172   2.070
 1888SOL     OW 6343   1.293   2.689   1.894
 1888SOL    HW1 6344   1.335   2.603   1.897
 1888SOL    HW2 6345   1.324   2.728   1.812
 1889SOL     OW 6346   1.065   3.197   2.715
 1889SOL    HW1 6347   1.068   3.124   2.653
 1889SOL    HW2 6348   1.127   3.261   2.680
 1890SOL     OW 6349   0.314   2.668   2.813
 1890SOL    HW1 6350   0.408   2.686   2.806
 1890SOL    HW2 6351   0.309   2.578   2.846
 1891SOL     OW 6352   0.332   2.381   2.875
 1891SOL    HW1 6353   0.298   2.293   2.857
 1891SOL    HW2 6354   0.408   2.389   2.817
 1892SOL     OW 6355   1.134   2.239   3.543
 1892SOL    HW1 6356   1.088   2.294   3.606
 1892SOL    HW2 6357   1.223   2.275   3.540
 1893SOL     OW 6358   1.160   2.066   3.332
 1893SOL    HW1 6359   1.151   2.128   3.404
 1893SOL    HW2 6360   1.199   2.117   3.261
 1894SOL     OW 6361   3.999   3.183   2.044
 1894SOL    HW1 6362   3.905   3.199   2.048
 1894SOL    HW2 6363   0.009   3.090   2.064
 1895SOL     OW 6364   0.075   3.663   2.756
 1895SOL    HW1 6365   0.084   3.568   2.761
 1895SOL    HW2 6366   0.165   3.695   2.752
 1896SOL     OW 6367   0.507   3.428   2.775
 1896SOL    HW1 6368   0.574   3.493   2.797
 1896SOL    HW2 6369   0.551   3.367   2.716
 1897SOL     OW 6370   0.985   2.655   3.089
 1897SOL    HW1 6371   1.040   2.631   3.164
 1897SOL    HW2 6372   0.899   2.618   3.110
 1898SOL     OW 6373   0.037   2.415   2.972
 1898SOL    HW1 6374   0.119   2.390   2.930
 1898SOL    HW2 6375   0.057   2.413   3.066
 1899SOL     OW 6376   0.206   2.376   3.588
 1899SOL    HW1 6377   0.250   2.333   3.515
 1899SOL    HW2 6378   0.155   2.447   3.548
 1900SOL     OW 6379   1.374   2.804   3.520
 1900SOL    HW1 6380   1.396   2.897   3.519
 1900SOL    HW2 6381   1.372   2.778   3.428
 1901SOL     OW 6382   0.817   2.431   2.219
 1901SOL    HW1 6383   0.819   2.355   2.161
 1901SOL    HW2 6384   0.742   2.482   2.188
 1902SOL     OW 6385   1.643   2.464   3.049
 1902SOL    HW1 6386   1.631   2.409   3.126
 1902SOL    HW2 6387   1.729   2.441   3.014
 1903SOL     OW 6388   0.296   3.409   3.594
 1903SOL    HW1 6389   0.245   3.479   3.636
 1903SOL    HW2 6390   0.261   3.329   3.631
 1904SOL     OW 6391   0.698   2.315   3.123
 1904SOL    HW1 6392   0.648   2.239   3.091
 1904SOL    HW2 6393   0.696   2.377   3.051
 1905SOL     OW 6394   0.931   3.536   3.329
 1905SOL    HW1 6395   0.903   3.502   3.244
 1905SOL    HW2 6396   0.925   3.631   3.320
 1906SOL     OW 6397   0.461   2.353   2.054
 1906SOL    HW1 6398   0.525   2.422   2.072
 1906SOL    HW2 6399   0.380   2.400   2.036
 1907SOL     OW 6400   0.157   2.998   3.335
 1907SOL    HW1 6401   0.161   2.947   3.415
 1907SOL    HW2 6402   0.172   2.935   3.264
 1908SOL     OW 6403   1.328   2.910   3.086
 1908SOL    HW1 6404   1.351   2.847   3.018
 1908SOL    HW2 6405   1.256   2.961   3.047
 1909SOL     OW 6406   1.309   2.719   2.169
 1909SOL    HW1 6407   1.233   2.688   2.218
 1909SOL    HW2 6408   1.286   2.705   2.077
 1910SOL     OW 6409   1.767   3.608   3.009
 1910SOL    HW1 6410   1.830   3.634   2.942
 1910SOL    HW2 6411   1.747   3.517   2.988
 1911SOL     OW 6412   1.243   3.596   2.976
 1911SOL    HW1 6413   1.325   3.614   2.931
 1911SOL    HW2 6414   1.247   3.502   2.995
 1912SOL     OW 6415   0.075   3.079   2.889
 1912SOL    HW1 6416   0.082   3.105   2.981
 1912SOL    HW2 6417   3.982   3.086   2.869
 1913SOL     OW 6418   0.679   3.525   3.589
 1913SOL    HW1 6419   0.624   3.603   3.592
 1913SOL    HW2 6420   0.738   3.540   3.515
 1914SOL     OW 6421   1.390   3.431   2.346
 1914SOL    HW1 6422   1.450   3.463   2.279
 1914SOL    HW2 6423   1.343   3.509   2.375
 1915SOL     OW 6424   0.167   3.629   3.692
 1915SOL    HW1 6425   0.109   3.578   3.749
 1915SOL    HW2 6426   0.214   3.687   3.751
 1916SOL     OW 6427   1.277   2.787   2.533
 1916SOL    HW1 6428   1.350   2.726   2.539
 1916SOL    HW2 6429   1.311   2.860   2.481
 1917SOL     OW 6430   0.816   3.135   3.293
 1917SOL    HW1 6431   0.789   3.174   3.376
 1917SOL    HW2 6432   0.746   3.155   3.232
 1918SOL     OW 6433   0.675   3.476   2.019
 1918SOL    HW1 6434   0.681   3.491   1.924
 1918SOL    HW2 6435   0.618   3.399   2.026
 1919SOL     OW 6436   1.628   3.588   3.253
 1919SOL    HW1 6437   1.678   3.595   3.171
 1919SOL    HW2 6438   1.615   3.678   3.281
 1920SOL     OW 6439   0.269   2.177   2.580
 1920SOL    HW1 6440   0.184   2.213   2.554
 1920SOL    HW2 6441   0.262   2.166   2.675
 1921SOL     OW 6442   1.206   3.469   1.896
 1921SOL    HW1 6443   1.197   3.377   1.921
 1921SOL    HW2 6444   1.145   3.481   1.824
 1922SOL     OW 6445   0.823   2.868   3.234
 1922SOL    HW1 6446   0.868   2.864   3.149
 1922SOL    HW2 6447   0.824   2.960   3.257
 1923SOL     OW 6448   0.915   2.772   2.151
 1923SOL    HW1 6449   0.977   2.804   2.085
 1923SOL    HW2 6450   0.963   2.702   2.197
 1924SOL     OW 6451   1.492   3.489   1.903
 1924SOL    HW1 6452   1.398   3.480   1.889
 1924SOL    HW2 6453   1.529   3.494   1.816
 1925SOL     OW 6454   0.373   3.164   3.353
 1925SOL    HW1 6455   0.359   3.244   3.303
 1925SOL    HW2 6456   0.296   3.111   3.336
 1926SOL     OW 6457   1.611   3.145   3.143
 1926SOL    HW1 6458   1.671   3.135   3.217
 1926SOL    HW2 6459   1.551   3.214   3.169
 1927SOL     OW 6460   1.050   2.968   2.568
 1927SOL    HW1 6461   0.980   2.917   2.607
 1927SOL    HW2 6462   1.112   2.903   2.535
 1928SOL     OW 6463   1.020   2.102   2.828
 1928SOL    HW1 6464   1.016   2.054   2.745
 1928SOL    HW2 6465   1.015   2.034   2.895
 1929SOL     OW 6466   0.603   3.352   2.343
 1929SOL    HW1 6467   0.645   3.301   2.274
 1929SOL    HW2 6468   0.535   3.403   2.298
 1930SOL     OW 6469   1.721   2.253   3.239
 1930SOL    HW1 6470   1.795   2.314   3.245
 1930SOL    HW2 6471   1.750   2.186   3.178
 1931SOL     OW 6472   0.252   3.204   2.152
 1931SOL    HW1 6473   0.159   3.215   2.132
 1931SOL    HW2 6474   0.262   3.242   2.239
 1932SOL     OW 6475   0.105   2.862   3.580
 1932SOL    HW1 6476   0.044   2.851   3.653
 1932SOL    HW2 6477   0.191   2.842   3.618
 1933SOL     OW 6478   0.673   2.058   3.361
 1933SOL    HW1 6479   0.757   2.039   3.319
 1933SOL    HW2 6480   0.697   2.088   3.449
 1934SOL     OW 6481   0.080   2.182   1.899
 1934SOL    HW1 6482   3.985   2.181   1.903
 1934SOL    HW2 6483   0.101   2.262   1.851
 1935SOL     OW 6484   1.431   2.721   3.263
 1935SOL    HW1 6485   1.383   2.781   3.206
 1935SOL    HW2 6486   1.520   2.723   3.230
 1936SOL     OW 6487   0.025   2.082   2.229
 1936SOL    HW1 6488   0.046   2.150   2.165
 1936SOL    HW2 6489   0.110   2.048   2.257
 1937SOL     OW 6490   1.179   3.202   1.979
 1937SOL    HW1 6491   1.088   3.173   1.981
 1937SOL    HW2 6492   1.207   3.201   2.070
 1938SOL     OW 6493   0.618   2.693   3.296
 1938SOL    HW1 6494   0.674   2.769   3.281
 1938SOL    HW2 6495   0.679   2.620   3.305
 1939SOL     OW 6496   1.485   3.639   2.840
 1939SOL    HW1 6497   1.511   3.693   2.766
 1939SOL    HW2 6498   1.568   3.619   2.885
 1940SOL     OW 6499   0.716   2.427   3.568
 1940SOL    HW1 6500   0.756   2.490   3.627
 1940SOL    HW2 6501   0.749   2.342   3.598
 1941SOL     OW 6502   1.470   3.064   3.494
 1941SOL    HW1 6503   1.458   3.077   3.588
 1941SOL    HW2 6504   1.564   3.077   3.480
 1942SOL     OW 6505   0.380   3.604   3.421
 1942SOL    HW1 6506   0.292   3.640   3.408
 1942SOL    HW2 6507   0.365   3.523   3.469
 1943SOL     OW 6508   1.671   2.744   3.116
 1943SOL    HW1 6509   1.662   2.659   3.074
 1943SOL    HW2 6510   1.661   2.807   3.045
 1944SOL     OW 6511   1.217   2.182   2.320
 1944SOL    HW1 6512   1.280   2.111   2.311
 1944SOL    HW2 6513   1.245   2.230   2.397
 1945SOL     OW 6514   0.591   2.602   2.531
 1945SOL    HW1 6515   0.629   2.688   2.515
 1945SOL    HW2 6516   0.522   2.594   2.465
 1946SOL     OW 6517   1.758   2.235   3.516
 1946SOL    HW1 6518   1.748   2.242   3.421
 1946SOL    HW2 6519   1.688   2.177   3.544
 1947SOL     OW 6520   1.745   2.798   3.372
 1947SOL    HW1 6521   1.744   2.893   3.385
 1947SOL    HW2 6522   1.730   2.787   3.279
 1948SOL     OW 6523   0.864   3.230   1.895
 1948SOL    HW1 6524   0.822   3.258   1.977
 1948SOL    HW2 6525   0.880   3.312   1.848
 1949SOL     OW 6526   0.658   3.654   2.803
 1949SOL    HW1 6527   0.635   3.744   2.783
 1949SOL    HW2 6528   0.754   3.651   2.800
 1950SOL     OW 6529   0.867   2.827   2.717
 1950SOL    HW1 6530   0.917   2.757   2.757
 1950SOL    HW2 6531   0.833   2.878   2.791
 1951SOL     OW 6532   1.078   2.849   1.950
 1951SOL    HW1 6533   1.058   2.901   1.872
 1951SOL    HW2 6534   1.154   2.797   1.925
 1952SOL     OW 6535   1.855   3.416   2.706
 1952SOL    HW1 6536   1.776   3.404   2.652
 1952SOL    HW2 6537   1.847   3.350   2.775
 1953SOL     OW 6538   0.223   3.166   3.717
 1953SOL    HW1 6539   0.152   3.106   3.692
 1953SOL    HW2 6540   0.211   3.179   3.811
 1954SOL     OW 6541   0.110   3.135   2.578
 1954SOL    HW1 6542   0.120   3.084   2.658
 1954SOL    HW2 6543   0.111   3.069   2.508
 1955SOL     OW 6544   0.680   3.263   3.489
 1955SOL    HW1 6545   0.599   3.221   3.519
 1955SOL    HW2 6546   0.676   3.352   3.526
 1956SOL     OW 6547   0.440   2.296   2.394
 1956SOL    HW1 6548   0.444   2.226   2.329
 1956SOL    HW2 6549   0.386   2.261   2.464
 1957SOL     OW 6550   1.701   3.351   2.959
 1957SOL    HW1 6551   1.620   3.327   2.916
 1957SOL    HW2 6552   1.715   3.284   3.025
 1958SOL     OW 6553   0.331   2.416   3.153
 1958SOL    HW1 6554   0.387   2.360   3.207
 1958SOL    HW2 6555   0.348   2.386   3.063
 1959SOL     OW 6556   0.826   3.441   2.540
 1959SOL    HW1 6557   0.817   3.487   2.457
 1959SOL    HW2 6558   0.749   3.383   2.544
 1960SOL     OW 6559   1.437   2.089   2.981
 1960SOL    HW1 6560   1.453   2.004   3.022
 1960SOL    HW2 6561   1.382   2.136   3.044
 1961SOL     OW 6562   1.009   1.881   3.006
 1961SOL    HW1 6563   0.955   1.813   2.966
 1961SOL    HW2 6564   1.097   1.844   3.008
 1962SOL     OW 6565   0.771   3.194   2.176
 1962SOL    HW1 6566   0.739   3.104   2.181
 1962SOL    HW2 6567   0.854   3.192   2.223
 1963SOL     OW 6568   0.620   3.418   3.146
 1963SOL    HW1 6569   0.622   3.500   3.197
 1963SOL    HW2 6570   0.707   3.411   3.108
 1964SOL     OW 6571   1.350   1.914   2.027
 1964SOL    HW1 6572   1.377   1.856   1.956
 1964SOL    HW2 6573   1.264   1.882   2.053
 1965SOL     OW 6574   1.297   2.322   2.544
 1965SOL    HW1 6575   1.244   2.401   2.551
 1965SOL    HW2 6576   1.294   2.282   2.631
 1966SOL     OW 6577   1.576   2.059   2.731
 1966SOL    HW1 6578   1.533   2.082   2.814
 1966SOL    HW2 6579   1.589   2.143   2.687
 1967SOL     OW 6580   0.045   2.914   2.101
 1967SOL    HW1 6581   0.139   2.898   2.093
 1967SOL    HW2 6582   0.010   2.835   2.142
 1968SOL     OW 6583   0.882   3.515   2.208
 1968SOL    HW1 6584   0.812   3.496   2.145
 1968SOL    HW2 6585   0.851   3.592   2.255
 1969SOL     OW 6586   0.231   2.483   3.845
 1969SOL    HW1 6587   0.138   2.493   3.865
 1969SOL    HW2 6588   0.233   2.455   3.754
 1970SOL     OW 6589   0.228   2.132   4.711
 1970SOL    HW1 6590   0.249   2.102   4.799
 1970SOL    HW2 6591   0.133   2.123   4.704
 1971SOL     OW 6592   0.012   2.226   4.357
 1971SOL    HW1 6593   3.926   2.244   4.395
 1971SOL    HW2 6594   3.993   2.188   4.272
 1972SOL     OW 6595   0.576   3.143   4.906
 1972SOL    HW1 6596   0.489   3.149   4.865
 1972SOL    HW2 6597   0.591   3.231   4.940
 1973SOL     OW 6598   1.559   3.373   4.431
 1973SOL    HW1 6599   1.516   3.353   4.514
 1973SOL    HW2 6600   1.487   3.377   4.367
 1974SOL     OW 6601   1.130   2.560   4.426
 1974SOL    HW1 6602   1.180   2.641   4.412
 1974SOL    HW2 6603   1.083   2.575   4.509
 1975SOL     OW 6604   1.753   2.475   3.957
 1975SOL    HW1 6605   1.740   2.468   3.862
 1975SOL    HW2 6606   1.746   2.385   3.989
 1976SOL     OW 6607   0.758   3.004   4.762
 1976SOL    HW1 6608   0.691   3.038   4.821
 1976SOL    HW2 6609   0.792   3.082   4.718
 1977SOL     OW 6610   0.864   2.639   5.544
 1977SOL    HW1 6611   0.853   2.710   5.607
 1977SOL    HW2 6612   0.888   2.682   5.462
 1978SOL     OW 6613   0.686   2.867   4.372
 1978SOL    HW1 6614   0.751   2.854   4.441
 1978SOL    HW2 6615   0.616   2.918   4.414
 1979SOL     OW 6616   0.709   3.013   5.536
 1979SOL    HW1 6617   0.757   3.092   5.561
 1979SOL    HW2 6618   0.626   3.045   5.501
 1980SOL     OW 6619   0.351   3.265   4.802
 1980SOL    HW1 6620   0.268   3.251   4.756
 1980SOL    HW2 6621   0.400   3.325   4.746
 1981SOL     OW 6622   1.461   3.361   5.076
 1981SOL    HW1 6623   1.510   3.443   5.086
 1981SOL    HW2 6624   1.402   3.359   5.151
 1982SOL     OW 6625   0.450   2.263   5.217
 1982SOL    HW1 6626   0.524   2.202   5.217
 1982SOL    HW2 6627   0.373   2.207   5.226
 1983SOL     OW 6628   1.610   2.308   4.460
 1983SOL    HW1 6629   1.531   2.335   4.412
 1983SOL    HW2 6630   1.632   2.385   4.513
 1984SOL     OW 6631   0.226   3.572   4.191
 1984SOL    HW1 6632   0.233   3.651   4.244
 1984SOL    HW2 6633   0.302   3.575   4.133
 1985SOL     OW 6634   1.136   3.203   5.416
 1985SOL    HW1 6635   1.176   3.198   5.503
 1985SOL    HW2 6636   1.083   3.123   5.410
 1986SOL     OW 6637   0.245   3.305   4.263
 1986SOL    HW1 6638   0.219   3.396   4.251
 1986SOL    HW2 6639   0.176   3.267   4.317
 1987SOL     OW 6640   0.246   2.932   4.608
 1987SOL    HW1 6641   0.264   2.849   4.651
 1987SOL    HW2 6642   0.194   2.981   4.672
 1988SOL     OW 6643   0.614   3.649   5.154
 1988SOL    HW1 6644   0.531   3.634   5.200
 1988SOL    HW2 6645   0.639   3.738   5.179
 1989SOL     OW 6646   0.583   2.845   3.859
 1989SOL    HW1 6647   0.628   2.893   3.790
 1989SOL    HW2 6648   0.626   2.873   3.940
 1990SOL     OW 6649   1.596   1.988   5.190
 1990SOL    HW1 6650   1.581   2.071   5.145
 1990SOL    HW2 6651   1.587   2.010   5.283
 1991SOL     OW 6652   0.140   2.509   4.298
 1991SOL    HW1 6653   0.085   2.431   4.299
 1991SOL    HW2 6654   0.104   2.565   4.367
 1992SOL     OW 6655   1.841   3.615   4.062
 1992SOL    HW1 6656   1.905   3.590   4.128
 1992SOL    HW2 6657   1.865   3.705   4.039
 1993SOL     OW 6658   0.041   3.455   3.864
 1993SOL    HW1 6659   0.031   3.362   3.885
 1993SOL    HW2 6660   3.964   3.497   3.902
 1994SOL     OW 6661   1.690   2.781   4.363
 1994SOL    HW1 6662   1.773   2.738   4.342
 1994SOL    HW2 6663   1.668   2.831   4.285
 1995SOL     OW 6664   1.645   2.969   4.154
 1995SOL    HW1 6665   1.731   2.976   4.111
 1995SOL    HW2 6666   1.651   3.030   4.227
 1996SOL     OW 6667   0.133   2.613   5.315
 1996SOL    HW1 6668   0.228   2.607   5.320
 1996SOL    HW2 6669   0.114   2.705   5.330
 1997SOL     OW 6670   0.613   3.246   4.458
 1997SOL    HW1 6671   0.566   3.163   4.468
 1997SOL    HW2 6672   0.596   3.272   4.368
 1998SOL     OW 6673   1.289   3.100   5.148
 1998SOL    HW1 6674   1.322   3.033   5.088
 1998SOL    HW2 6675   1.346   3.094   5.224
 1999SOL     OW 6676   0.815   1.861   4.231
 1999SOL    HW1 6677   0.855   1.946   4.214
 1999SOL    HW2 6678   0.721   1.879   4.240
 2000SOL     OW 6679   0.186   2.817   5.000
 2000SOL    HW1 6680   0.274   2.782   4.985
 2000SOL    HW2 6681   0.131   2.772   4.936
 2001SOL     OW 6682   1.531   2.855   3.921
 2001SOL    HW1 6683   1.462   2.796   3.952
 2001SOL    HW2 6684   1.572   2.888   4.001
 2002SOL     OW 6685   1.209   3.663   5.349
 2002SOL    HW1 6686   1.195   3.723   5.276
 2002SOL    HW2 6687   1.212   3.577   5.309
 2003SOL     OW 6688   0.337   2.109   5.537
 2003SOL    HW1 6689   0.378   2.196   5.543
 2003SOL    HW2 6690   0.246   2.124   5.562
 2004SOL     OW 6691   1.465   3.282   4.676
 2004SOL    HW1 6692   1.397   3.296   4.742
 2004SOL    HW2 6693   1.454   3.191   4.649
 2005SOL     OW 6694   1.657   3.597   4.304
 2005SOL    HW1 6695   1.640   3.568   4.214
 2005SOL    HW2 6696   1.633   3.523   4.358
 2006SOL     OW 6697   0.596   2.582   3.987
 2006SOL    HW1 6698   0.604   2.664   3.939
 2006SOL    HW2 6699   0.533   2.600   4.057
 2007SOL     OW 6700   1.279   2.215   4.658
 2007SOL    HW1 6701   1.191   2.179   4.666
 2007SOL    HW2 6702   1.333   2.160   4.715
 2008SOL     OW 6703   1.579   3.535   4.032
 2008SOL    HW1 6704   1.670   3.563   4.027
 2008SOL    HW2 6705   1.555   3.515   3.941
 2009SOL     OW 6706   0.792   2.479   5.176
 2009SOL    HW1 6707   0.765   2.456   5.265
 2009SOL    HW2 6708   0.751   2.413   5.120
 2010SOL     OW 6709   1.392   2.335   5.402
 2010SOL    HW1 6710   1.396   2.380   5.487
 2010SOL    HW2 6711   1.457   2.265   5.410
 2011SOL     OW 6712   0.956   2.750   5.306
 2011SOL    HW1 6713   1.010   2.679   5.270
 2011SOL    HW2 6714   0.908   2.783   5.230
 2012SOL     OW 6715   0.992   2.275   4.963
 2012SOL    HW1 6716   0.907   2.297   5.001
 2012SOL    HW2 6717   0.971   2.228   4.883
 2013SOL     OW 6718   1.050   2.561   4.150
 2013SOL    HW1 6719   1.065   2.554   4.245
 2013SOL    HW2 6720   0.968   2.513   4.136
 2014SOL     OW 6721   0.082   2.686   4.514
 2014SOL    HW1 6722   0.162   2.658   4.559
 2014SOL    HW2 6723   0.090   2.781   4.507
 2015SOL     OW 6724   0.128   3.711   5.297
 2015SOL    HW1 6725   0.134   3.681   5.388
 2015SOL    HW2 6726   0.035   3.700   5.275
 2016SOL     OW 6727   0.890   2.210   3.916
 2016SOL    HW1 6728   0.933   2.271   3.857
 2016SOL    HW2 6729   0.911   2.124   3.881
 2017SOL     OW 6730   1.668   2.443   5.553
 2017SOL    HW1 6731   1.652   2.516   5.493
 2017SOL    HW2 6732   1.724   2.383   5.503
 2018SOL     OW 6733   1.376   3.004   4.266
 2018SOL    HW1 6734   1.455   2.990   4.213
 2018SOL    HW2 6735   1.324   3.066   4.215
 2019SOL     OW 6736   0.546   2.043   4.616
 2019SOL    HW1 6737   0.552   2.073   4.707
 2019SOL    HW2 6738   0.548   2.123   4.564
 2020SOL     OW 6739   1.007   3.308   4.197
 2020SOL    HW1 6740   0.967   3.380   4.148
 2020SOL    HW2 6741   0.991   3.329   4.289
 2021SOL     OW 6742   0.358   3.668   4.581
 2021SOL    HW1 6743   0.434   3.609   4.590
 2021SOL    HW2 6744   0.395   3.756   4.590
 2022SOL     OW 6745   1.799   2.920   4.591
 2022SOL    HW1 6746   1.744   2.902   4.515
 2022SOL    HW2 6747   1.737   2.926   4.665
 2023SOL     OW 6748   1.228   3.399   5.235
 2023SOL    HW1 6749   1.213   3.327   5.296
 2023SOL    HW2 6750   1.164   3.386   5.166
 2024SOL     OW 6751   0.311   2.817   3.966
 2024SOL    HW1 6752   0.396   2.841   3.928
 2024SOL    HW2 6753   0.296   2.727   3.939
 2025SOL     OW 6754   1.476   2.603   4.452
 2025SOL    HW1 6755   1.468   2.558   4.536
 2025SOL    HW2 6756   1.555   2.658   4.462
 2026SOL     OW 6757   0.465   3.120   5.460
 2026SOL    HW1 6758   0.438   3.130   5.369
 2026SOL    HW2 6759   0.383   3.127   5.510
 2027SOL     OW 6760   1.113   3.642   3.948
 2027SOL    HW1 6761   1.051   3.594   4.004
 2027SOL    HW2 6762   1.142   3.578   3.883
 2028SOL     OW 6763   0.204   2.144   5.231
 2028SOL    HW1 6764   0.114   2.174   5.220
 2028SOL    HW2 6765   0.195   2.061   5.278
 2029SOL     OW 6766   1.628   3.242   3.812
 2029SOL    HW1 6767   1.588   3.327   3.795
 2029SOL    HW2 6768   1.560   3.178   3.793
 2030SOL     OW 6769   0.469   3.599   4.045
 2030SOL    HW1 6770   0.506   3.663   4.107
 2030SOL    HW2 6771   0.543   3.574   3.990
 2031SOL     OW 6772   1.397   1.969   4.153
 2031SOL    HW1 6773   1.381   1.946   4.062
 2031SOL    HW2 6774   1.492   1.962   4.164
 2032SOL     OW 6775   0.251   3.656   4.954
 2032SOL    HW1 6776   0.298   3.592   5.008
 2032SOL    HW2 6777   0.246   3.616   4.868
 2033SOL     OW 6778   0.937   3.560   4.626
 2033SOL    HW1 6779   1.015   3.508   4.645
 2033SOL    HW2 6780   0.892   3.512   4.557
 2034SOL     OW 6781   0.395   2.556   4.197
 2034SOL    HW1 6782   0.423   2.465   4.210
 2034SOL    HW2 6783   0.303   2.557   4.224
 2035SOL     OW 6784   1.536   2.086   5.448
 2035SOL    HW1 6785   1.546   2.110   5.540
 2035SOL    HW2 6786   1.468   2.018   5.448
 2036SOL     OW 6787   0.631   1.983   3.826
 2036SOL    HW1 6788   0.703   1.922   3.841
 2036SOL    HW2 6789   0.587   1.950   3.748
 2037SOL     OW 6790   0.768   2.141   5.479
 2037SOL    HW1 6791   0.842   2.080   5.480
 2037SOL    HW2 6792   0.716   2.116   5.556
 2038SOL     OW 6793   0.876   3.382   4.918
 2038SOL    HW1 6794   0.861   3.347   4.830
 2038SOL    HW2 6795   0.946   3.328   4.954
 2039SOL     OW 6796   1.341   2.451   5.156
 2039SOL    HW1 6797   1.372   2.419   5.241
 2039SOL    HW2 6798   1.377   2.539   5.149
 2040SOL     OW 6799   0.814   3.258   4.661
 2040SOL    HW1 6800   0.899   3.247   4.617
 2040SOL    HW2 6801   0.750   3.257   4.590
 2041SOL     OW 6802   0.927   2.371   4.628
 2041SOL    HW1 6803   0.904   2.363   4.535
 2041SOL    HW2 6804   0.960   2.285   4.652
 2042SOL     OW 6805   0.552   1.924   4.224
 2042SOL    HW1 6806   0.470   1.929   4.273
 2042SOL    HW2 6807   0.557   2.007   4.176
 2043SOL     OW 6808   1.428   3.060   3.765
 2043SOL    HW1 6809   1.460   2.984   3.814
 2043SOL    HW2 6810   1.342   3.080   3.803
 2044SOL     OW 6811   0.305   1.912   3.894
 2044SOL    HW1 6812   0.371   1.953   3.838
 2044SOL    HW2 6813   0.353   1.847   3.945
 2045SOL     OW 6814   0.937   2.106   4.187
 2045SOL    HW1 6815   0.906   2.149   4.107
 2045SOL    HW2 6816   1.032   2.122   4.187
 2046SOL     OW 6817   1.080   2.542   5.184
 2046SOL    HW1 6818   1.011   2.476   5.188
 2046SOL    HW2 6819   1.161   2.491   5.176
 2047SOL     OW 6820   1.224   3.431   4.517
 2047SOL    HW1 6821   1.241   3.500   4.453
 2047SOL    HW2 6822   1.292   3.444   4.584
 2048SOL     OW 6823   0.466   3.011   4.463
 2048SOL    HW1 6824   0.393   2.989   4.521
 2048SOL    HW2 6825   0.433   2.995   4.375
 2049SOL     OW 6826   1.269   3.659   4.329
 2049SOL    HW1 6827   1.314   3.723   4.273
 2049SOL    HW2 6828   1.200   3.709   4.372
 2050SOL     OW 6829   1.024   2.405   3.745
 2050SOL    HW1 6830   0.983   2.489   3.726
 2050SOL    HW2 6831   1.091   2.426   3.811
 2051SOL     OW 6832   0.080   2.432   5.114
 2051SOL    HW1 6833   0.169   2.419   5.083
 2051SOL    HW2 6834   0.087   2.501   5.180
 2052SOL     OW 6835   0.567   2.089   4.887
 2052SOL    HW1 6836   0.606   2.010   4.926
 2052SOL    HW2 6837   0.476   2.087   4.917
 2053SOL     OW 6838   0.869   2.321   4.364
 2053SOL    HW1 6839   0.821   2.374   4.300
 2053SOL    HW2 6840   0.888   2.240   4.317
 2054SOL     OW 6841   1.015   1.915   4.477
 2054SOL    HW1 6842   0.957   1.908   4.401
 2054SOL    HW2 6843   0.993   1.839   4.531
 2055SOL     OW 6844   1.436   3.025   4.581
 2055SOL    HW1 6845   1.368   2.958   4.580
 2055SOL    HW2 6846   1.460   3.037   4.489
 2056SOL     OW 6847   1.466   2.466   4.703
 2056SOL    HW1 6848   1.417   2.384   4.706
 2056SOL    HW2 6849   1.526   2.460   4.777
 2057SOL     OW 6850   1.847   2.681   4.107
 2057SOL    HW1 6851   1.904   2.628   4.163
 2057SOL    HW2 6852   1.815   2.619   4.041
 2058SOL     OW 6853   0.490   3.276   3.886
 2058SOL    HW1 6854   0.414   3.246   3.936
 2058SOL    HW2 6855   0.467   3.258   3.795
 2059SOL     OW 6856   1.669   3.127   4.371
 2059SOL    HW1 6857   1.764   3.131   4.384
 2059SOL    HW2 6858   1.639   3.215   4.392
 2060SOL     OW 6859   1.392   2.436   3.793
 2060SOL    HW1 6860   1.338   2.413   3.869
 2060SOL    HW2 6861   1.481   2.413   3.819
 2061SOL     OW 6862   0.573   2.131   4.048
 2061SOL    HW1 6863   0.597   2.080   3.970
 2061SOL    HW2 6864   0.539   2.214   4.014
 2062SOL     OW 6865   1.753   3.100   5.299
 2062SOL    HW1 6866   1.840   3.061   5.297
 2062SOL    HW2 6867   1.768   3.190   5.327
 2063SOL     OW 6868   1.059   3.215   5.058
 2063SOL    HW1 6869   0.985   3.184   5.109
 2063SOL    HW2 6870   1.135   3.174   5.099
 2064SOL     OW 6871   1.607   3.487   5.377
 2064SOL    HW1 6872   1.602   3.521   5.288
 2064SOL    HW2 6873   1.691   3.441   5.380
 2065SOL     OW 6874   1.127   3.064   4.830
 2065SOL    HW1 6875   1.069   3.102   4.896
 2065SOL    HW2 6876   1.093   3.096   4.746
 2066SOL     OW 6877   1.630   2.961   4.802
 2066SOL    HW1 6878   1.625   3.023   4.875
 2066SOL    HW2 6879   1.550   2.977   4.752
 2067SOL     OW 6880   0.918   1.960   5.121
 2067SOL    HW1 6881   0.941   1.941   5.030
 2067SOL    HW2 6882   0.997   1.999   5.158
 2068SOL     OW 6883   0.984   2.976   5.447
 2068SOL    HW1 6884   0.892   2.992   5.466
 2068SOL    HW2 6885   0.984   2.899   5.391
 2069SOL     OW 6886   0.707   2.922   4.095
 2069SOL    HW1 6887   0.694   2.907   4.189
 2069SOL    HW2 6888   0.784   2.869   4.073
 2070SOL     OW 6889   0.420   2.676   4.976
 2070SOL    HW1 6890   0.489   2.685   5.041
 2070SOL    HW2 6891   0.385   2.588   4.988
 2071SOL     OW 6892   1.266   2.239   4.999
 2071SOL    HW1 6893   1.299   2.316   5.044
 2071SOL    HW2 6894   1.177   2.261   4.974
 2072SOL     OW 6895   0.064   3.441   5.068
 2072SOL    HW1 6896   0.066   3.509   5.002
 2072SOL    HW2 6897   0.156   3.428   5.092
 2073SOL     OW 6898   0.375   2.964   4.210
 2073SOL    HW1 6899   0.368   3.042   4.155
 2073SOL    HW2 6900   0.373   2.891   4.148
 2074SOL     OW 6901   0.553   2.400   4.586
 2074SOL    HW1 6902   0.569   2.457   4.510
 2074SOL    HW2 6903   0.619   2.428   4.650
 2075SOL     OW 6904   1.248   3.210   4.113
 2075SOL    HW1 6905   1.304   3.281   4.144
 2075SOL    HW2 6906   1.161   3.231   4.147
 2076SOL     OW 6907   1.279   3.319   4.870
 2076SOL    HW1 6908   1.334   3.322   4.948
 2076SOL    HW2 6909   1.224   3.242   4.883
 2077SOL     OW 6910   1.579   2.484   4.200
 2077SOL    HW1 6911   1.538   2.544   4.262
 2077SOL    HW2 6912   1.626   2.541   4.139
 2078SOL     OW 6913   0.346   3.387   5.044
 2078SOL    HW1 6914   0.336   3.337   4.962
 2078SOL    HW2 6915   0.440   3.403   5.051
 2079SOL     OW 6916   0.412   2.603   5.325
 2079SOL    HW1 6917   0.473   2.649   5.268
 2079SOL    HW2 6918   0.453   2.518   5.341
 2080SOL     OW 6919   1.597   2.648   5.399
 2080SOL    HW1 6920   1.512   2.689   5.391
 2080SOL    HW2 6921   1.651   2.690   5.331
 2081SOL     OW 6922   0.995   1.983   5.479
 2081SOL    HW1 6923   1.051   2.055   5.449
 2081SOL    HW2 6924   1.043   1.904   5.454
 2082SOL     OW 6925   0.498   1.901   5.469
 2082SOL    HW1 6926   0.456   1.847   5.402
 2082SOL    HW2 6927   0.441   1.977   5.479
 2083SOL     OW 6928   0.584   2.735   4.755
 2083SOL    HW1 6929   0.614   2.825   4.753
 2083SOL    HW2 6930   0.528   2.730   4.833
 2084SOL     OW 6931   1.359   2.720   4.756
 2084SOL    HW1 6932   1.277   2.713   4.707
 2084SOL    HW2 6933   1.398   2.633   4.751
 2085SOL     OW 6934   1.206   2.390   3.993
 2085SOL    HW1 6935   1.213   2.312   4.048
 2085SOL    HW2 6936   1.163   2.455   4.049
 2086SOL     OW 6937   0.312   2.061   4.971
 2086SOL    HW1 6938   0.265   2.098   5.046
 2086SOL    HW2 6939   0.287   1.969   4.971
 2087SOL     OW 6940   0.057   3.166   5.004
 2087SOL    HW1 6941   0.090   3.128   5.085
 2087SOL    HW2 6942   0.050   3.260   5.022
 2088SOL     OW 6943   0.726   2.494   4.783
 2088SOL    HW1 6944   0.799   2.476   4.725
 2088SOL    HW2 6945   0.698   2.583   4.761
 2089SOL     OW 6946   1.733   2.822   5.577
 2089SOL    HW1 6947   1.689   2.762   5.516
 2089SOL    HW2 6948   1.670   2.834   5.648
 2090SOL     OW 6949   0.311   1.926   4.345
 2090SOL    HW1 6950   0.292   2.017   4.367
 2090SOL    HW2 6951   0.314   1.881   4.430
 2091SOL     OW 6952   1.608   2.233   4.099
 2091SOL    HW1 6953   1.623   2.183   4.179
 2091SOL    HW2 6954   1.587   2.322   4.129
 2092SOL     OW 6955   1.027   2.621   4.685
 2092SOL    HW1 6956   1.026   2.639   4.779
 2092SOL    HW2 6957   1.001   2.530   4.678
 2093SOL     OW 6958   0.984   3.429   5.441
 2093SOL    HW1 6959   0.967   3.472   5.357
 2093SOL    HW2 6960   1.026   3.346   5.417
 2094SOL     OW 6961   1.855   3.369   5.329
 2094SOL    HW1 6962   1.873   3.396   5.239
 2094SOL    HW2 6963   1.936   3.390   5.376
 2095SOL     OW 6964   0.351   2.781   5.527
 2095SOL    HW1 6965   0.431   2.802   5.575
 2095SOL    HW2 6966   0.378   2.716   5.462
 2096SOL     OW 6967   1.531   2.132   3.851
 2096SOL    HW1 6968   1.464   2.070   3.880
 2096SOL    HW2 6969   1.563   2.172   3.932
 2097SOL     OW 6970   1.293   2.689   3.756
 2097SOL    HW1 6971   1.334   2.603   3.759
 2097SOL    HW2 6972   1.324   2.728   3.674
 2098SOL     OW 6973   1.065   3.197   4.577
 2098SOL    HW1 6974   1.068   3.124   4.515
 2098SOL    HW2 6975   1.127   3.261   4.542
 2099SOL     OW 6976   0.314   2.668   4.675
 2099SOL    HW1 6977   0.408   2.686   4.668
 2099SOL    HW2 6978   0.309   2.578   4.708
 2100SOL     OW 6979   0.332   2.381   4.737
 2100SOL    HW1 6980   0.298   2.293   4.719
 2100SOL    HW2 6981   0.408   2.389   4.679
 2101SOL     OW 6982   1.134   2.239   5.404
 2101SOL    HW1 6983   1.087   2.296   5.466
 2101SOL    HW2 6984   1.222   2.275   5.401
 2102SOL     OW 6985   1.160   2.066   5.193
 2102SOL    HW1 6986   1.151   2.128   5.265
 2102SOL    HW2 6987   1.199   2.117   5.122
 2103SOL     OW 6988   3.999   3.183   3.906
 2103SOL    HW1 6989   3.905   3.199   3.910
 2103SOL    HW2 6990   0.009   3.090   3.926
 2104SOL     OW 6991   0.075   3.663   4.618
 2104SOL    HW1 6992   0.084   3.568   4.622
 2104SOL    HW2 6993   0.165   3.695   4.614
 2105SOL     OW 6994   0.507   3.428   4.637
 2105SOL    HW1 6995   0.574   3.493   4.659
 2105SOL    HW2 6996   0.551   3.367   4.578
 2106SOL     OW 6997   0.985   2.655   4.952
 2106SOL    HW1 6998   1.040   2.631   5.027
 2106SOL    HW2 6999   0.900   2.617   4.971
 2107SOL     OW 7000   0.037   2.415   4.834
 2107SOL    HW1 7001   0.119   2.389   4.792
 2107SOL    HW2 7002   0.057   2.413   4.928
 2108SOL     OW 7003   0.206   2.376   5.450
 2108SOL    HW1 7004   0.249   2.333   5.376
 2108SOL    HW2 7005   0.154   2.446   5.411
 2109SOL     OW 7006   1.373   2.804   5.382
 2109SOL    HW1 7007   1.396   2.897   5.381
 2109SOL    HW2 7008   1.371   2.779   5.290
 2110SOL     OW 7009   0.817   2.431   4.081
 2110SOL    HW1 7010   0.820   2.355   4.023
 2110SOL    HW2 7011   0.742   2.482   4.050
 2111SOL     OW 7012   1.643   2.464   4.911
 2111SOL    HW1 7013   1.632   2.408   4.987
 2111SOL    HW2 7014   1.729   2.441   4.876
 2112SOL     OW 7015   0.296   3.409   5.456
 2112SOL    HW1 7016   0.245   3.479   5.498
 2112SOL    HW2 7017   0.261   3.329   5.493
 2113SOL     OW 7018   0.698   2.315   4.985
 2113SOL    HW1 7019   0.648   2.239   4.953
 2113SOL    HW2 7020   0.696   2.377   4.913
 2114SOL     OW 7021   0.931   3.536   5.191
 2114SOL    HW1 7022   0.903   3.502   5.106
 2114SOL    HW2 7023   0.925   3.631   5.182
 2115SOL     OW 7024   0.461   2.353   3.916
 2115SOL    HW1 7025   0.525   2.422   3.934
 2115SOL    HW2 7026   0.380   2.400   3.898
 2116SOL     OW 7027   0.157   2.998   5.197
 2116SOL    HW1 7028   0.161   2.946   5.277
 2116SOL    HW2 7029   0.172   2.935   5.127
 2117SOL     OW 7030   1.327   2.910   4.948
 2117SOL    HW1 7031   1.351   2.847   4.880
 2117SOL    HW2 7032   1.256   2.961   4.909
 2118SOL     OW 7033   1.309   2.719   4.031
 2118SOL    HW1 7034   1.233   2.688   4.080
 2118SOL    HW2 7035   1.286   2.705   3.939
 2119SOL     OW 7036   1.767   3.608   4.871
 2119SOL    HW1 7037   1.830   3.634   4.804
 2119SOL    HW2 7038   1.747   3.517   4.850
 2120SOL     OW 7039   1.243   3.596   4.838
 2120SOL    HW1 7040   1.325   3.614   4.793
 2120SOL    HW2 7041   1.247   3.502   4.857
 2121SOL     OW 7042   0.075   3.079   4.751
 2121SOL    HW1 7043   0.082   3.105   4.843
 2121SOL    HW2 7044   3.982   3.085   4.731
 2122SOL     OW 7045   0.679   3.525   5.450
 2122SOL    HW1 7046   0.624   3.603   5.454
 2122SOL    HW2 7047   0.738   3.541   5.377
 2123SOL     OW 7048   1.390   3.431   4.208
 2123SOL    HW1 7049   1.450   3.462   4.141
 2123SOL    HW2 7050   1.343   3.509   4.237
 2124SOL     OW 7051   0.167   3.629   5.554
 2124SOL    HW1 7052   0.109   3.578   5.612
 2124SOL    HW2 7053   0.214   3.687   5.613
 2125SOL     OW 7054   1.277   2.787   4.395
 2125SOL    HW1 7055   1.350   2.726   4.401
 2125SOL    HW2 7056   1.311   2.860   4.343
 2126SOL     OW 7057   0.816   3.135   5.155
 2126SOL    HW1 7058   0.788   3.174   5.238
 2126SOL    HW2 7059   0.746   3.155   5.094
 2127SOL     OW 7060   0.675   3.476   3.881
 2127SOL    HW1 7061   0.681   3.491   3.786
 2127SOL    HW2 7062   0.618   3.399   3.888
 2128SOL     OW 7063   1.628   3.588   5.115
 2128SOL    HW1 7064   1.678   3.594   5.033
 2128SOL    HW2 7065   1.615   3.678   5.143
 2129SOL     OW 7066   0.269   2.177   4.442
 2129SOL    HW1 7067   0.183   2.213   4.415
 2129SOL    HW2 7068   0.262   2.166   4.537
 2130SOL     OW 7069   1.206   3.469   3.758
 2130SOL    HW1 7070   1.197   3.377   3.783
 2130SOL    HW2 7071   1.145   3.481   3.686
 2131SOL     OW 7072   0.824   2.868   5.096
 2131SOL    HW1 7073   0.868   2.864   5.011
 2131SOL    HW2 7074   0.824   2.961   5.119
 2132SOL     OW 7075   0.915   2.772   4.014
 2132SOL    HW1 7076   0.977   2.804   3.947
 2132SOL    HW2 7077   0.963   2.702   4.059
 2133SOL     OW 7078   1.492   3.489   3.765
 2133SOL    HW1 7079   1.397   3.480   3.751
 2133SOL    HW2 7080   1.529   3.494   3.678
 2134SOL     OW 7081   0.373   3.164   5.215
 2134SOL    HW1 7082   0.359   3.244   5.165
 2134SOL    HW2 7083   0.296   3.111   5.198
 2135SOL     OW 7084   1.611   3.145   5.005
 2135SOL    HW1 7085   1.671   3.136   5.078
 2135SOL    HW2 7086   1.551   3.214   5.031
 2136SOL     OW 7087   1.050   2.968   4.430
 2136SOL    HW1 7088   0.980   2.917   4.469
 2136SOL    HW2 7089   1.112   2.903   4.397
 2137SOL     OW 7090   1.020   2.102   4.690
 2137SOL    HW1 7091   1.016   2.054   4.608
 2137SOL    HW2 7092   1.015   2.034   4.758
 2138SOL     OW 7093   0.603   3.352   4.205
 2138SOL    HW1 7094   0.645   3.301   4.136
 2138SOL    HW2 7095   0.535   3.403   4.160
 2139SOL     OW 7096   1.722   2.253   5.100
 2139SOL    HW1 7097   1.795   2.314   5.106
 2139SOL    HW2 7098   1.753   2.184   5.041
 2140SOL     OW 7099   0.252   3.204   4.014
 2140SOL    HW1 7100   0.159   3.215   3.994
 2140SOL    HW2 7101   0.262   3.242   4.101
 2141SOL     OW 7102   0.105   2.862   5.442
 2141SOL    HW1 7103   0.044   2.851   5.514
 2141SOL    HW2 7104   0.191   2.842   5.480
 2142SOL     OW 7105   0.674   2.059   5.224
 2142SOL    HW1 7106   0.757   2.039   5.181
 2142SOL    HW2 7107   0.698   2.089   5.311
 2143SOL     OW 7108   0.080   2.182   3.761
 2143SOL    HW1 7109   3.985   2.181   3.765
 2143SOL    HW2 7110   0.101   2.262   3.713
 2144SOL     OW 7111   1.431   2.721   5.125
 2144SOL    HW1 7112   1.383   2.781   5.068
 2144SOL    HW2 7113   1.520   2.723   5.092
 2145SOL     OW 7114   0.025   2.082   4.091
 2145SOL    HW1 7115   0.046   2.150   4.027
 2145SOL    HW2 7116   0.110   2.048   4.119
 2146SOL     OW 7117   1.179   3.203   3.841
 2146SOL    HW1 7118   1.088   3.173   3.843
 2146SOL    HW2 7119   1.207   3.201   3.932
 2147SOL     OW 7120   0.618   2.693   5.159
 2147SOL    HW1 7121   0.674   2.769   5.143
 2147SOL    HW2 7122   0.680   2.620   5.166
 2148SOL     OW 7123   1.485   3.639   4.702
 2148SOL    HW1 7124   1.511   3.693   4.628
 2148SOL    HW2 7125   1.568   3.619   4.747
 2149SOL     OW 7126   0.716   2.426   5.429
 2149SOL    HW1 7127   0.755   2.489   5.490
 2149SOL    HW2 7128   0.746   2.340   5.460
 2150SOL     OW 7129   1.471   3.063   5.356
 2150SOL    HW1 7130   1.459   3.077   5.450
 2150SOL    HW2 7131   1.564   3.077   5.342
 2151SOL     OW 7132   0.380   3.604   5.283
 2151SOL    HW1 7133   0.292   3.640   5.269
 2151SOL    HW2 7134   0.365   3.523   5.331
 2152SOL     OW 7135   1.671   2.744   4.979
 2152SOL    HW1 7136   1.662   2.658   4.936
 2152SOL    HW2 7137   1.661   2.807   4.908
 2153SOL     OW 7138   1.217   2.182   4.182
 2153SOL    HW1 7139   1.280   2.111   4.173
 2153SOL    HW2 7140   1.245   2.230   4.259
 2154SOL     OW 7141   0.591   2.602   4.393
 2154SOL    HW1 7142   0.629   2.688   4.377
 2154SOL    HW2 7143   0.522   2.594   4.327
 2155SOL     OW 7144   1.758   2.234   5.375
 2155SOL    HW1 7145   1.746   2.241   5.281
 2155SOL    HW2 7146   1.688   2.175   5.404
 2156SOL     OW 7147   1.745   2.799   5.234
 2156SOL    HW1 7148   1.745   2.894   5.246
 2156SOL    HW2 7149   1.730   2.787   5.141
 2157SOL     OW 7150   0.864   3.230   3.757
 2157SOL    HW1 7151   0.822   3.258   3.839
 2157SOL    HW2 7152   0.880   3.312   3.710
 2158SOL     OW 7153   0.658   3.654   4.666
 2158SOL    HW1 7154   0.635   3.744   4.645
 2158SOL    HW2 7155   0.754   3.651   4.662
 2159SOL     OW 7156   0.867   2.827   4.579
 2159SOL    HW1 7157   0.917   2.757   4.619
 2159SOL    HW2 7158   0.833   2.878   4.653
 2160SOL     OW 7159   1.078   2.849   3.812
 2160SOL    HW1 7160   1.058   2.900   3.734
 2160SOL    HW2 7161   1.154   2.797   3.787
 2161SOL     OW 7162   1.855   3.416   4.568
 2161SOL    HW1 7163   1.776   3.404   4.514
 2161SOL    HW2 7164   1.847   3.350   4.637
 2162SOL     OW 7165   0.223   3.166   5.579
 2162SOL    HW1 7166   0.152   3.107   5.554
 2162SOL    HW2 7167   0.211   3.179   5.673
 2163SOL     OW 7168   0.110   3.135   4.440
 2163SOL    HW1 7169   0.120   3.084   4.520
 2163SOL    HW2 7170   0.111   3.069   4.370
 2164SOL     OW 7171   0.681   3.263   5.352
 2164SOL    HW1 7172   0.599   3.221   5.381
 2164SOL    HW2 7173   0.676   3.352   5.388
 2165SOL     OW 7174   0.440   2.296   4.256
 2165SOL    HW1 7175   0.444   2.226   4.191
 2165SOL    HW2 7176   0.386   2.261   4.326
 2166SOL     OW 7177   1.701   3.351   4.821
 2166SOL    HW1 7178   1.620   3.327   4.778
 2166SOL    HW2 7179   1.715   3.284   4.887
 2167SOL     OW 7180   0.331   2.416   5.015
 2167SOL    HW1 7181   0.387   2.360   5.069
 2167SOL    HW2 7182   0.348   2.386   4.925
 2168SOL     OW 7183   0.825   3.441   4.402
 2168SOL    HW1 7184   0.817   3.487   4.319
 2168SOL    HW2 7185   0.749   3.383   4.406
 2169SOL     OW 7186   1.437   2.089   4.843
 2169SOL    HW1 7187   1.454   2.004   4.884
 2169SOL    HW2 7188   1.382   2.135   4.906
 2170SOL     OW 7189   1.009   1.881   4.868
 2170SOL    HW1 7190   0.955   1.813   4.828
 2170SOL    HW2 7191   1.097   1.844   4.870
 2171SOL     OW 7192   0.771   3.194   4.038
 2171SOL    HW1 7193   0.739   3.104   4.043
 2171SOL    HW2 7194   0.854   3.192   4.085
 2172SOL     OW 7195   0.620   3.418   5.008
 2172SOL    HW1 7196   0.622   3.500   5.059
 2172SOL    HW2 7197   0.707   3.411   4.970
 2173SOL     OW 7198   1.350   1.914   3.889
 2173SOL    HW1 7199   1.377   1.856   3.818
 2173SOL    HW2 7200   1.264   1.882   3.915
 2174SOL     OW 7201   1.297   2.322   4.406
 2174SOL    HW1 7202   1.244   2.401   4.414
 2174SOL    HW2 7203   1.294   2.282   4.493
 2175SOL     OW 7204   1.574   2.059   4.592
 2175SOL    HW1 7205   1.533   2.082   4.676
 2175SOL    HW2 7206   1.589   2.143   4.549
 2176SOL     OW 7207   0.045   2.914   3.964
 2176SOL    HW1 7208   0.139   2.898   3.955
 2176SOL    HW2 7209   0.010   2.835   4.003
 2177SOL     OW 7210   0.882   3.515   4.070
 2177SOL    HW1 7211   0.812   3.496   4.007
 2177SOL    HW2 7212   0.851   3.592   4.117
 2178SOL     OW 7213   0.231   2.483   5.707
 2178SOL    HW1 7214   0.138   2.493   5.727
 2178SOL    HW2 7215   0.233   2.455   5.616
 2179SOL     OW 7216   0.228   2.133   6.573
 2179SOL    HW1 7217   0.249   2.101   6.661
 2179SOL    HW2 7218   0.133   2.123   6.566
 2180SOL     OW 7219   0.012   2.226   6.219
 2180SOL    HW1 7220   3.926   2.244   6.257
 2180SOL    HW2 7221   3.994   2.187   6.134
 2181SOL     OW 7222   0.576   3.143   6.767
 2181SOL    HW1 7223   0.489   3.148   6.727
 2181SOL    HW2 7224   0.592   3.231   6.802
 2182SOL     OW 7225   1.559   3.373   6.292
 2182SOL    HW1 7226   1.516   3.359   6.376
 2182SOL    HW2 7227   1.487   3.376   6.229
 2183SOL     OW 7228   1.116   2.595   6.277
 2183SOL    HW1 7229   1.206   2.627   6.284
 2183SOL    HW2 7230   1.083   2.596   6.367
 2184SOL     OW 7231   1.741   2.471   5.811
 2184SOL    HW1 7232   1.731   2.468   5.716
 2184SOL    HW2 7233   1.740   2.379   5.838
 2185SOL     OW 7234   0.758   3.004   6.624
 2185SOL    HW1 7235   0.691   3.037   6.682
 2185SOL    HW2 7236   0.792   3.082   6.580
 2186SOL     OW 7237   0.858   2.645   7.405
 2186SOL    HW1 7238   0.853   2.715   7.470
 2186SOL    HW2 7239   0.886   2.689   7.325
 2187SOL     OW 7240   0.687   2.868   6.234
 2187SOL    HW1 7241   0.750   2.853   6.305
 2187SOL    HW2 7242   0.617   2.918   6.275
 2188SOL     OW 7243   0.709   3.013   7.397
 2188SOL    HW1 7244   0.757   3.091   7.423
 2188SOL    HW2 7245   0.626   3.046   7.363
 2189SOL     OW 7246   0.351   3.265   6.664
 2189SOL    HW1 7247   0.268   3.252   6.618
 2189SOL    HW2 7248   0.400   3.325   6.608
 2190SOL     OW 7249   1.461   3.361   6.937
 2190SOL    HW1 7250   1.509   3.443   6.949
 2190SOL    HW2 7251   1.402   3.356   7.013
 2191SOL     OW 7252   0.450   2.262   7.076
 2191SOL    HW1 7253   0.523   2.200   7.078
 2191SOL    HW2 7254   0.372   2.208   7.088
 2192SOL     OW 7255   0.226   3.571   6.053
 2192SOL    HW1 7256   0.232   3.651   6.106
 2192SOL    HW2 7257   0.302   3.575   5.995
 2193SOL     OW 7258   1.135   3.203   7.277
 2193SOL    HW1 7259   1.177   3.198   7.363
 2193SOL    HW2 7260   1.084   3.123   7.270
 2194SOL     OW 7261   0.245   3.305   6.125
 2194SOL    HW1 7262   0.219   3.396   6.113
 2194SOL    HW2 7263   0.176   3.267   6.179
 2195SOL     OW 7264   0.247   2.933   6.471
 2195SOL    HW1 7265   0.263   2.849   6.514
 2195SOL    HW2 7266   0.194   2.982   6.534
 2196SOL     OW 7267   0.614   3.649   7.016
 2196SOL    HW1 7268   0.531   3.634   7.062
 2196SOL    HW2 7269   0.639   3.738   7.041
 2197SOL     OW 7270   0.584   2.844   5.721
 2197SOL    HW1 7271   0.628   2.893   5.651
 2197SOL    HW2 7272   0.626   2.874   5.802
 2198SOL     OW 7273   1.633   2.009   7.036
 2198SOL    HW1 7274   1.556   2.032   6.986
 2198SOL    HW2 7275   1.605   2.014   7.128
 2199SOL     OW 7276   0.141   2.509   6.160
 2199SOL    HW1 7277   0.085   2.431   6.160
 2199SOL    HW2 7278   0.104   2.564   6.229
 2200SOL     OW 7279   1.841   3.615   5.924
 2200SOL    HW1 7280   1.905   3.590   5.990
 2200SOL    HW2 7281   1.865   3.705   5.901
 2201SOL     OW 7282   0.041   3.455   5.726
 2201SOL    HW1 7283   0.031   3.362   5.748
 2201SOL    HW2 7284   3.964   3.497   5.763
 2202SOL     OW 7285   1.644   2.974   6.005
 2202SOL    HW1 7286   1.734   2.979   5.972
 2202SOL    HW2 7287   1.645   3.026   6.085
 2203SOL     OW 7288   0.133   2.613   7.177
 2203SOL    HW1 7289   0.228   2.607   7.182
 2203SOL    HW2 7290   0.114   2.705   7.193
 2204SOL     OW 7291   0.613   3.245   6.320
 2204SOL    HW1 7292   0.566   3.163   6.330
 2204SOL    HW2 7293   0.596   3.272   6.230
 2205SOL     OW 7294   1.291   3.103   7.010
 2205SOL    HW1 7295   1.322   3.032   6.953
 2205SOL    HW2 7296   1.345   3.094   7.089
 2206SOL     OW 7297   0.808   1.855   6.079
 2206SOL    HW1 7298   0.853   1.939   6.084
 2206SOL    HW2 7299   0.716   1.876   6.094
 2207SOL     OW 7300   0.186   2.817   6.862
 2207SOL    HW1 7301   0.274   2.782   6.846
 2207SOL    HW2 7302   0.131   2.771   6.799
 2208SOL     OW 7303   1.531   2.854   5.784
 2208SOL    HW1 7304   1.463   2.795   5.817
 2208SOL    HW2 7305   1.568   2.894   5.862
 2209SOL     OW 7306   1.210   3.664   7.211
 2209SOL    HW1 7307   1.195   3.723   7.138
 2209SOL    HW2 7308   1.212   3.577   7.171
 2210SOL     OW 7309   0.337   2.110   7.399
 2210SOL    HW1 7310   0.378   2.197   7.406
 2210SOL    HW2 7311   0.246   2.124   7.424
 2211SOL     OW 7312   1.466   3.300   6.544
 2211SOL    HW1 7313   1.399   3.313   6.611
 2211SOL    HW2 7314   1.456   3.209   6.517
 2212SOL     OW 7315   1.657   3.597   6.166
 2212SOL    HW1 7316   1.641   3.568   6.076
 2212SOL    HW2 7317   1.633   3.522   6.220
 2213SOL     OW 7318   0.596   2.582   5.849
 2213SOL    HW1 7319   0.603   2.665   5.801
 2213SOL    HW2 7320   0.533   2.600   5.919
 2214SOL     OW 7321   1.579   3.535   5.894
 2214SOL    HW1 7322   1.670   3.563   5.889
 2214SOL    HW2 7323   1.555   3.515   5.804
 2215SOL     OW 7324   0.797   2.478   7.040
 2215SOL    HW1 7325   0.768   2.457   7.129
 2215SOL    HW2 7326   0.752   2.414   6.985
 2216SOL     OW 7327   0.956   2.749   7.167
 2216SOL    HW1 7328   1.017   2.683   7.133
 2216SOL    HW2 7329   0.911   2.783   7.090
 2217SOL     OW 7330   0.976   2.255   6.854
 2217SOL    HW1 7331   0.890   2.294   6.874
 2217SOL    HW2 7332   0.974   2.240   6.760
 2218SOL     OW 7333   1.048   2.569   6.008
 2218SOL    HW1 7334   1.065   2.564   6.102
 2218SOL    HW2 7335   0.971   2.514   5.994
 2219SOL     OW 7336   0.082   2.686   6.376
 2219SOL    HW1 7337   0.162   2.658   6.421
 2219SOL    HW2 7338   0.089   2.781   6.369
 2220SOL     OW 7339   0.128   3.711   7.159
 2220SOL    HW1 7340   0.134   3.681   7.250
 2220SOL    HW2 7341   0.035   3.700   7.137
 2221SOL     OW 7342   0.895   2.207   5.781
 2221SOL    HW1 7343   0.931   2.269   5.717
 2221SOL    HW2 7344   0.902   2.122   5.739
 2222SOL     OW 7345   1.366   3.015   6.134
 2222SOL    HW1 7346   1.442   2.989   6.082
 2222SOL    HW2 7347   1.316   3.073   6.077
 2223SOL     OW 7348   0.546   2.045   6.477
 2223SOL    HW1 7349   0.551   2.074   6.568
 2223SOL    HW2 7350   0.546   2.126   6.426
 2224SOL     OW 7351   1.006   3.307   6.060
 2224SOL    HW1 7352   0.966   3.379   6.010
 2224SOL    HW2 7353   0.991   3.330   6.151
 2225SOL     OW 7354   0.358   3.668   6.443
 2225SOL    HW1 7355   0.434   3.609   6.452
 2225SOL    HW2 7356   0.395   3.756   6.452
 2226SOL     OW 7357   1.791   2.962   6.463
 2226SOL    HW1 7358   1.761   2.903   6.394
 2226SOL    HW2 7359   1.731   2.947   6.535
 2227SOL     OW 7360   1.228   3.400   7.098
 2227SOL    HW1 7361   1.213   3.327   7.158
 2227SOL    HW2 7362   1.164   3.386   7.028
 2228SOL     OW 7363   0.311   2.817   5.829
 2228SOL    HW1 7364   0.395   2.841   5.790
 2228SOL    HW2 7365   0.296   2.727   5.800
 2229SOL     OW 7366   0.465   3.121   7.323
 2229SOL    HW1 7367   0.438   3.130   7.231
 2229SOL    HW2 7368   0.383   3.127   7.372
 2230SOL     OW 7369   1.113   3.642   5.810
 2230SOL    HW1 7370   1.051   3.594   5.865
 2230SOL    HW2 7371   1.142   3.578   5.745
 2231SOL     OW 7372   0.203   2.145   7.095
 2231SOL    HW1 7373   0.113   2.174   7.082
 2231SOL    HW2 7374   0.195   2.061   7.140
 2232SOL     OW 7375   1.629   3.242   5.674
 2232SOL    HW1 7376   1.589   3.327   5.657
 2232SOL    HW2 7377   1.560   3.178   5.655
 2233SOL     OW 7378   0.469   3.599   5.907
 2233SOL    HW1 7379   0.506   3.663   5.969
 2233SOL    HW2 7380   0.543   3.574   5.852
 2234SOL     OW 7381   1.417   1.973   5.958
 2234SOL    HW1 7382   1.384   1.928   5.880
 2234SOL    HW2 7383   1.466   1.906   6.005
 2235SOL     OW 7384   0.251   3.656   6.816
 2235SOL    HW1 7385   0.298   3.592   6.870
 2235SOL    HW2 7386   0.246   3.616   6.730
 2236SOL     OW 7387   0.937   3.560   6.488
 2236SOL    HW1 7388   1.015   3.508   6.507
 2236SOL    HW2 7389   0.892   3.512   6.419
 2237SOL     OW 7390   0.395   2.556   6.060
 2237SOL    HW1 7391   0.423   2.465   6.072
 2237SOL    HW2 7392   0.303   2.557   6.086
 2238SOL     OW 7393   1.577   2.062   7.299
 2238SOL    HW1 7394   1.590   2.121   7.373
 2238SOL    HW2 7395   1.502   2.008   7.324
 2239SOL     OW 7396   0.635   1.985   5.685
 2239SOL    HW1 7397   0.701   1.919   5.705
 2239SOL    HW2 7398   0.588   1.951   5.609
 2240SOL     OW 7399   0.750   2.137   7.334
 2240SOL    HW1 7400   0.826   2.083   7.360
 2240SOL    HW2 7401   0.695   2.140   7.412
 2241SOL     OW 7402   0.876   3.382   6.780
 2241SOL    HW1 7403   0.861   3.347   6.692
 2241SOL    HW2 7404   0.946   3.327   6.816
 2242SOL     OW 7405   0.814   3.258   6.523
 2242SOL    HW1 7406   0.898   3.248   6.479
 2242SOL    HW2 7407   0.750   3.257   6.452
 2243SOL     OW 7408   0.928   2.380   6.486
 2243SOL    HW1 7409   0.900   2.372   6.395
 2243SOL    HW2 7410   0.974   2.298   6.504
 2244SOL     OW 7411   0.549   1.925   6.086
 2244SOL    HW1 7412   0.467   1.930   6.135
 2244SOL    HW2 7413   0.555   2.008   6.038
 2245SOL     OW 7414   1.428   3.060   5.627
 2245SOL    HW1 7415   1.459   2.985   5.677
 2245SOL    HW2 7416   1.343   3.081   5.664
 2246SOL     OW 7417   0.304   1.913   5.757
 2246SOL    HW1 7418   0.370   1.953   5.700
 2246SOL    HW2 7419   0.353   1.847   5.807
 2247SOL     OW 7420   0.932   2.107   6.054
 2247SOL    HW1 7421   0.902   2.146   5.972
 2247SOL    HW2 7422   1.025   2.091   6.040
 2248SOL     OW 7423   1.078   2.535   7.038
 2248SOL    HW1 7424   0.994   2.490   7.049
 2248SOL    HW2 7425   1.142   2.464   7.034
 2249SOL     OW 7426   1.224   3.432   6.380
 2249SOL    HW1 7427   1.241   3.500   6.315
 2249SOL    HW2 7428   1.293   3.443   6.445
 2250SOL     OW 7429   0.467   3.010   6.325
 2250SOL    HW1 7430   0.393   2.989   6.382
 2250SOL    HW2 7431   0.433   2.995   6.237
 2251SOL     OW 7432   1.269   3.659   6.191
 2251SOL    HW1 7433   1.314   3.722   6.135
 2251SOL    HW2 7434   1.200   3.709   6.234
 2252SOL     OW 7435   1.021   2.412   5.605
 2252SOL    HW1 7436   0.971   2.488   5.578
 2252SOL    HW2 7437   1.089   2.447   5.663
 2253SOL     OW 7438   0.080   2.432   6.975
 2253SOL    HW1 7439   0.170   2.420   6.945
 2253SOL    HW2 7440   0.086   2.501   7.042
 2254SOL     OW 7441   0.567   2.089   6.750
 2254SOL    HW1 7442   0.603   2.006   6.782
 2254SOL    HW2 7443   0.476   2.088   6.779
 2255SOL     OW 7444   0.867   2.321   6.228
 2255SOL    HW1 7445   0.821   2.377   6.165
 2255SOL    HW2 7446   0.886   2.241   6.180
 2256SOL     OW 7447   1.428   3.050   6.460
 2256SOL    HW1 7448   1.362   2.981   6.469
 2256SOL    HW2 7449   1.446   3.055   6.366
 2257SOL     OW 7450   0.490   3.276   5.748
 2257SOL    HW1 7451   0.414   3.246   5.798
 2257SOL    HW2 7452   0.466   3.258   5.657
 2258SOL     OW 7453   1.665   3.125   6.229
 2258SOL    HW1 7454   1.760   3.126   6.246
 2258SOL    HW2 7455   1.635   3.213   6.251
 2259SOL     OW 7456   1.396   2.436   5.662
 2259SOL    HW1 7457   1.368   2.402   5.747
 2259SOL    HW2 7458   1.490   2.419   5.660
 2260SOL     OW 7459   0.574   2.131   5.909
 2260SOL    HW1 7460   0.598   2.081   5.831
 2260SOL    HW2 7461   0.538   2.213   5.875
 2261SOL     OW 7462   1.746   3.111   7.163
 2261SOL    HW1 7463   1.826   3.061   7.146
 2261SOL    HW2 7464   1.777   3.198   7.189
 2262SOL     OW 7465   1.059   3.212   6.918
 2262SOL    HW1 7466   0.985   3.183   6.971
 2262SOL    HW2 7467   1.136   3.174   6.961
 2263SOL     OW 7468   1.609   3.488   7.240
 2263SOL    HW1 7469   1.603   3.521   7.150
 2263SOL    HW2 7470   1.691   3.439   7.242
 2264SOL     OW 7471   1.123   3.062   6.692
 2264SOL    HW1 7472   1.068   3.104   6.758
 2264SOL    HW2 7473   1.092   3.097   6.609
 2265SOL     OW 7474   1.621   2.956   6.672
 2265SOL    HW1 7475   1.621   3.022   6.742
 2265SOL    HW2 7476   1.547   2.981   6.616
 2266SOL     OW 7477   0.924   1.961   6.987
 2266SOL    HW1 7478   0.936   1.944   6.894
 2266SOL    HW2 7479   0.992   2.025   7.009
 2267SOL     OW 7480   0.982   2.978   7.308
 2267SOL    HW1 7481   0.888   2.990   7.325
 2267SOL    HW2 7482   0.986   2.900   7.252
 2268SOL     OW 7483   0.707   2.922   5.957
 2268SOL    HW1 7484   0.693   2.907   6.051
 2268SOL    HW2 7485   0.784   2.869   5.935
 2269SOL     OW 7486   0.420   2.676   6.837
 2269SOL    HW1 7487   0.488   2.685   6.903
 2269SOL    HW2 7488   0.385   2.588   6.850
 2270SOL     OW 7489   0.064   3.441   6.931
 2270SOL    HW1 7490   0.066   3.509   6.863
 2270SOL    HW2 7491   0.156   3.428   6.954
 2271SOL     OW 7492   0.377   2.964   6.072
 2271SOL    HW1 7493   0.367   3.042   6.018
 2271SOL    HW2 7494   0.373   2.891   6.010
 2272SOL     OW 7495   0.554   2.400   6.448
 2272SOL    HW1 7496   0.569   2.456   6.372
 2272SOL    HW2 7497   0.618   2.430   6.513
 2273SOL     OW 7498   1.246   3.212   5.973
 2273SOL    HW1 7499   1.303   3.282   6.005
 2273SOL    HW2 7500   1.160   3.234   6.008
 2274SOL     OW 7501   1.277   3.321   6.735
 2274SOL    HW1 7502   1.333   3.323   6.813
 2274SOL    HW2 7503   1.222   3.243   6.748
 2275SOL     OW 7504   1.580   2.498   6.034
 2275SOL    HW1 7505   1.536   2.573   6.073
 2275SOL    HW2 7506   1.628   2.535   5.960
 2276SOL     OW 7507   0.346   3.387   6.906
 2276SOL    HW1 7508   0.336   3.337   6.824
 2276SOL    HW2 7509   0.440   3.403   6.913
 2277SOL     OW 7510   0.412   2.603   7.187
 2277SOL    HW1 7511   0.474   2.649   7.130
 2277SOL    HW2 7512   0.453   2.519   7.204
 2278SOL     OW 7513   0.499   1.902   7.328
 2278SOL    HW1 7514   0.455   1.847   7.263
 2278SOL    HW2 7515   0.440   1.977   7.339
 2279SOL     OW 7516   0.586   2.734   6.619
 2279SOL    HW1 7517   0.612   2.826   6.614
 2279SOL    HW2 7518   0.527   2.729   6.694
 2280SOL     OW 7519   1.335   2.753   6.588
 2280SOL    HW1 7520   1.246   2.730   6.563
 2280SOL    HW2 7521   1.369   2.674   6.632
 2281SOL     OW 7522   0.313   2.061   6.833
 2281SOL    HW1 7523   0.265   2.099   6.907
 2281SOL    HW2 7524   0.287   1.969   6.832
 2282SOL     OW 7525   0.059   3.166   6.865
 2282SOL    HW1 7526   0.090   3.128   6.947
 2282SOL    HW2 7527   0.051   3.260   6.884
 2283SOL     OW 7528   0.726   2.496   6.646
 2283SOL    HW1 7529   0.797   2.479   6.583
 2283SOL    HW2 7530   0.695   2.584   6.625
 2284SOL     OW 7531   0.309   1.926   6.208
 2284SOL    HW1 7532   0.291   2.018   6.230
 2284SOL    HW2 7533   0.314   1.881   6.292
 2285SOL     OW 7534   1.631   2.235   5.948
 2285SOL    HW1 7535   1.614   2.173   6.018
 2285SOL    HW2 7536   1.601   2.319   5.982
 2286SOL     OW 7537   1.043   2.621   6.549
 2286SOL    HW1 7538   1.029   2.639   6.643
 2286SOL    HW2 7539   1.005   2.535   6.535
 2287SOL     OW 7540   0.985   3.429   7.303
 2287SOL    HW1 7541   0.967   3.472   7.219
 2287SOL    HW2 7542   1.026   3.346   7.279
 2288SOL     OW 7543   1.858   3.366   7.190
 2288SOL    HW1 7544   1.873   3.396   7.100
 2288SOL    HW2 7545   1.938   3.391   7.237
 2289SOL     OW 7546   0.351   2.782   7.388
 2289SOL    HW1 7547   0.430   2.802   7.438
 2289SOL    HW2 7548   0.379   2.717   7.324
 2290SOL     OW 7549   1.525   2.140   5.710
 2290SOL    HW1 7550   1.464   2.071   5.738
 2290SOL    HW2 7551   1.567   2.169   5.791
 2291SOL     OW 7552   1.293   2.689   5.618
 2291SOL    HW1 7553   1.337   2.604   5.621
 2291SOL    HW2 7554   1.324   2.729   5.536
 2292SOL     OW 7555   1.066   3.198   6.440
 2292SOL    HW1 7556   1.072   3.124   6.381
 2292SOL    HW2 7557   1.128   3.262   6.406
 2293SOL     OW 7558   0.314   2.668   6.537
 2293SOL    HW1 7559   0.408   2.685   6.529
 2293SOL    HW2 7560   0.308   2.579   6.571
 2294SOL     OW 7561   0.333   2.380   6.599
 2294SOL    HW1 7562   0.298   2.293   6.582
 2294SOL    HW2 7563   0.408   2.388   6.541
 2295SOL     OW 7564   3.999   3.183   5.768
 2295SOL    HW1 7565   3.905   3.199   5.772
 2295SOL    HW2 7566   0.009   3.090   5.788
 2296SOL     OW 7567   0.075   3.663   6.480
 2296SOL    HW1 7568   0.084   3.568   6.484
 2296SOL    HW2 7569   0.165   3.696   6.476
 2297SOL     OW 7570   0.507   3.428   6.499
 2297SOL    HW1 7571   0.574   3.493   6.521
 2297SOL    HW2 7572   0.551   3.367   6.440
 2298SOL     OW 7573   0.986   2.652   6.810
 2298SOL    HW1 7574   1.039   2.630   6.886
 2298SOL    HW2 7575   0.898   2.624   6.832
 2299SOL     OW 7576   0.038   2.416   6.696
 2299SOL    HW1 7577   0.119   2.388   6.654
 2299SOL    HW2 7578   0.056   2.413   6.790
 2300SOL     OW 7579   0.207   2.376   7.313
 2300SOL    HW1 7580   0.247   2.332   7.238
 2300SOL    HW2 7581   0.153   2.445   7.273
 2301SOL     OW 7582   1.322   2.833   7.246
 2301SOL    HW1 7583   1.373   2.914   7.248
 2301SOL    HW2 7584   1.356   2.784   7.171
 2302SOL     OW 7585   0.817   2.430   5.943
 2302SOL    HW1 7586   0.819   2.353   5.886
 2302SOL    HW2 7587   0.742   2.482   5.911
 2303SOL     OW 7588   0.296   3.410   7.318
 2303SOL    HW1 7589   0.245   3.479   7.360
 2303SOL    HW2 7590   0.261   3.329   7.355
 2304SOL     OW 7591   0.698   2.316   6.848
 2304SOL    HW1 7592   0.647   2.240   6.818
 2304SOL    HW2 7593   0.693   2.378   6.775
 2305SOL     OW 7594   0.931   3.536   7.053
 2305SOL    HW1 7595   0.903   3.502   6.968
 2305SOL    HW2 7596   0.925   3.631   7.044
 2306SOL     OW 7597   0.462   2.354   5.778
 2306SOL    HW1 7598   0.525   2.423   5.797
 2306SOL    HW2 7599   0.380   2.400   5.759
 2307SOL     OW 7600   0.157   2.998   7.059
 2307SOL    HW1 7601   0.160   2.946   7.139
 2307SOL    HW2 7602   0.172   2.935   6.989
 2308SOL     OW 7603   1.324   2.914   6.808
 2308SOL    HW1 7604   1.352   2.863   6.732
 2308SOL    HW2 7605   1.250   2.965   6.777
 2309SOL     OW 7606   1.308   2.706   5.895
 2309SOL    HW1 7607   1.229   2.677   5.939
 2309SOL    HW2 7608   1.286   2.705   5.801
 2310SOL     OW 7609   1.768   3.607   6.734
 2310SOL    HW1 7610   1.830   3.634   6.666
 2310SOL    HW2 7611   1.748   3.516   6.712
 2311SOL     OW 7612   1.243   3.596   6.700
 2311SOL    HW1 7613   1.325   3.615   6.655
 2311SOL    HW2 7614   1.246   3.503   6.719
 2312SOL     OW 7615   0.075   3.078   6.612
 2312SOL    HW1 7616   0.082   3.104   6.704
 2312SOL    HW2 7617   3.982   3.085   6.593
 2313SOL     OW 7618   0.679   3.525   7.313
 2313SOL    HW1 7619   0.624   3.603   7.316
 2313SOL    HW2 7620   0.738   3.541   7.239
 2314SOL     OW 7621   1.389   3.431   6.070
 2314SOL    HW1 7622   1.450   3.462   6.003
 2314SOL    HW2 7623   1.343   3.509   6.099
 2315SOL     OW 7624   0.166   3.629   7.416
 2315SOL    HW1 7625   0.109   3.578   7.474
 2315SOL    HW2 7626   0.214   3.687   7.476
 2316SOL     OW 7627   0.816   3.134   7.018
 2316SOL    HW1 7628   0.789   3.173   7.101
 2316SOL    HW2 7629   0.746   3.156   6.957
 2317SOL     OW 7630   0.675   3.476   5.742
 2317SOL    HW1 7631   0.681   3.491   5.648
 2317SOL    HW2 7632   0.618   3.399   5.750
 2318SOL     OW 7633   1.629   3.587   6.977
 2318SOL    HW1 7634   1.678   3.595   6.895
 2318SOL    HW2 7635   1.616   3.678   7.005
 2319SOL     OW 7636   0.269   2.178   6.304
 2319SOL    HW1 7637   0.183   2.213   6.278
 2319SOL    HW2 7638   0.261   2.166   6.399
 2320SOL     OW 7639   1.206   3.469   5.620
 2320SOL    HW1 7640   1.197   3.377   5.644
 2320SOL    HW2 7641   1.145   3.481   5.548
 2321SOL     OW 7642   0.826   2.867   6.956
 2321SOL    HW1 7643   0.867   2.868   6.870
 2321SOL    HW2 7644   0.824   2.959   6.983
 2322SOL     OW 7645   0.916   2.775   5.876
 2322SOL    HW1 7646   0.977   2.805   5.809
 2322SOL    HW2 7647   0.961   2.703   5.921
 2323SOL     OW 7648   1.492   3.488   5.627
 2323SOL    HW1 7649   1.398   3.480   5.613
 2323SOL    HW2 7650   1.530   3.494   5.540
 2324SOL     OW 7651   0.373   3.164   7.077
 2324SOL    HW1 7652   0.359   3.244   7.027
 2324SOL    HW2 7653   0.296   3.111   7.060
 2325SOL     OW 7654   1.614   3.149   6.867
 2325SOL    HW1 7655   1.662   3.131   6.948
 2325SOL    HW2 7656   1.551   3.216   6.891
 2326SOL     OW 7657   1.056   2.965   6.299
 2326SOL    HW1 7658   0.984   2.913   6.336
 2326SOL    HW2 7659   1.086   2.913   6.224
 2327SOL     OW 7660   0.603   3.352   6.068
 2327SOL    HW1 7661   0.645   3.301   5.998
 2327SOL    HW2 7662   0.535   3.403   6.023
 2328SOL     OW 7663   0.252   3.204   5.876
 2328SOL    HW1 7664   0.160   3.215   5.856
 2328SOL    HW2 7665   0.262   3.242   5.964
 2329SOL     OW 7666   0.105   2.862   7.304
 2329SOL    HW1 7667   0.044   2.851   7.376
 2329SOL    HW2 7668   0.191   2.842   7.341
 2330SOL     OW 7669   0.670   2.059   7.082
 2330SOL    HW1 7670   0.755   2.041   7.042
 2330SOL    HW2 7671   0.690   2.087   7.171
 2331SOL     OW 7672   0.080   2.182   5.623
 2331SOL    HW1 7673   3.985   2.181   5.628
 2331SOL    HW2 7674   0.101   2.262   5.575
 2332SOL     OW 7675   1.442   2.763   7.009
 2332SOL    HW1 7676   1.392   2.814   6.945
 2332SOL    HW2 7677   1.530   2.756   6.971
 2333SOL     OW 7678   0.025   2.083   5.954
 2333SOL    HW1 7679   0.047   2.149   5.888
 2333SOL    HW2 7680   0.110   2.048   5.982
 2334SOL     OW 7681   1.179   3.202   5.702
 2334SOL    HW1 7682   1.088   3.174   5.704
 2334SOL    HW2 7683   1.207   3.202   5.793
 2335SOL     OW 7684   0.619   2.692   7.020
 2335SOL    HW1 7685   0.674   2.769   7.005
 2335SOL    HW2 7686   0.681   2.620   7.030
 2336SOL     OW 7687   1.485   3.640   6.564
 2336SOL    HW1 7688   1.511   3.694   6.490
 2336SOL    HW2 7689   1.568   3.619   6.608
 2337SOL     OW 7690   0.719   2.430   7.293
 2337SOL    HW1 7691   0.755   2.497   7.350
 2337SOL    HW2 7692   0.755   2.348   7.326
 2338SOL     OW 7693   1.471   3.071   7.222
 2338SOL    HW1 7694   1.463   3.080   7.317
 2338SOL    HW2 7695   1.564   3.083   7.204
 2339SOL     OW 7696   0.380   3.604   7.145
 2339SOL    HW1 7697   0.292   3.640   7.131
 2339SOL    HW2 7698   0.365   3.523   7.193
 2340SOL     OW 7699   1.667   2.752   6.854
 2340SOL    HW1 7700   1.694   2.671   6.811
 2340SOL    HW2 7701   1.660   2.816   6.783
 2341SOL     OW 7702   0.590   2.602   6.256
 2341SOL    HW1 7703   0.630   2.688   6.238
 2341SOL    HW2 7704   0.522   2.593   6.190
 2342SOL     OW 7705   1.755   2.239   7.210
 2342SOL    HW1 7706   1.771   2.228   7.117
 2342SOL    HW2 7707   1.691   2.171   7.231
 2343SOL     OW 7708   0.865   3.230   5.620
 2343SOL    HW1 7709   0.822   3.258   5.700
 2343SOL    HW2 7710   0.881   3.311   5.571
 2344SOL     OW 7711   0.658   3.653   6.527
 2344SOL    HW1 7712   0.635   3.744   6.507
 2344SOL    HW2 7713   0.754   3.652   6.524
 2345SOL     OW 7714   0.866   2.826   6.443
 2345SOL    HW1 7715   0.918   2.758   6.485
 2345SOL    HW2 7716   0.832   2.879   6.515
 2346SOL     OW 7717   1.079   2.849   5.674
 2346SOL    HW1 7718   1.057   2.901   5.597
 2346SOL    HW2 7719   1.155   2.797   5.648
 2347SOL     OW 7720   1.854   3.417   6.430
 2347SOL    HW1 7721   1.777   3.403   6.374
 2347SOL    HW2 7722   1.846   3.350   6.498
 2348SOL     OW 7723   0.223   3.166   7.441
 2348SOL    HW1 7724   0.153   3.106   7.416
 2348SOL    HW2 7725   0.211   3.179   7.535
 2349SOL     OW 7726   0.110   3.135   6.302
 2349SOL    HW1 7727   0.119   3.084   6.383
 2349SOL    HW2 7728   0.111   3.070   6.232
 2350SOL     OW 7729   0.680   3.263   7.214
 2350SOL    HW1 7730   0.599   3.221   7.243
 2350SOL    HW2 7731   0.676   3.352   7.250
 2351SOL     OW 7732   0.441   2.296   6.119
 2351SOL    HW1 7733   0.444   2.227   6.053
 2351SOL    HW2 7734   0.386   2.261   6.188
 2352SOL     OW 7735   1.703   3.350   6.684
 2352SOL    HW1 7736   1.621   3.333   6.638
 2352SOL    HW2 7737   1.708   3.283   6.752
 2353SOL     OW 7738   0.332   2.416   6.877
 2353SOL    HW1 7739   0.386   2.359   6.931
 2353SOL    HW2 7740   0.347   2.386   6.787
 2354SOL     OW 7741   0.826   3.440   6.264
 2354SOL    HW1 7742   0.818   3.488   6.181
 2354SOL    HW2 7743   0.749   3.384   6.267
 2355SOL     OW 7744   0.771   3.194   5.900
 2355SOL    HW1 7745   0.738   3.104   5.905
 2355SOL    HW2 7746   0.854   3.193   5.947
 2356SOL     OW 7747   0.620   3.418   6.870
 2356SOL    HW1 7748   0.622   3.499   6.921
 2356SOL    HW2 7749   0.707   3.411   6.832
 2357SOL     OW 7750   1.344   1.907   5.709
 2357SOL    HW1 7751   1.370   1.833   5.655
 2357SOL    HW2 7752   1.258   1.882   5.744
 2358SOL     OW 7753   0.045   2.914   5.826
 2358SOL    HW1 7754   0.139   2.898   5.818
 2358SOL    HW2 7755   0.010   2.834   5.864
 2359SOL     OW 7756   0.882   3.515   5.932
 2359SOL    HW1 7757   0.813   3.496   5.869
 2359SOL    HW2 7758   0.852   3.592   5.979
 2360SOL     OW 7759   0.231   2.484   7.569
 2360SOL    HW1 7760   0.138   2.493   7.589
 2360SOL    HW2 7761   0.233   2.455   7.478
 2361SOL     OW 7762   0.228   2.132   8.435
 2361SOL    HW1 7763   0.249   2.102   8.523
 2361SOL    HW2 7764   0.133   2.123   8.428
 2362SOL     OW 7765   0.012   2.225   8.081
 2362SOL    HW1 7766   3.926   2.243   8.118
 2362SOL    HW2 7767   3.994   2.188   7.995
 2363SOL     OW 7768   0.575   3.143   8.630
 2363SOL    HW1 7769   0.489   3.149   8.589
 2363SOL    HW2 7770   0.591   3.232   8.664
 2364SOL     OW 7771   1.558   3.375   8.155
 2364SOL    HW1 7772   1.515   3.353   8.238
 2364SOL    HW2 7773   1.487   3.377   8.091
 2365SOL     OW 7774   1.129   2.561   8.155
 2365SOL    HW1 7775   1.179   2.640   8.135
 2365SOL    HW2 7776   1.084   2.581   8.237
 2366SOL     OW 7777   0.759   3.005   8.487
 2366SOL    HW1 7778   0.691   3.038   8.545
 2366SOL    HW2 7779   0.792   3.082   8.442
 2367SOL     OW 7780   0.864   2.640   9.269
 2367SOL    HW1 7781   0.854   2.711   9.332
 2367SOL    HW2 7782   0.888   2.682   9.187
 2368SOL     OW 7783   0.686   2.868   8.096
 2368SOL    HW1 7784   0.751   2.854   8.165
 2368SOL    HW2 7785   0.616   2.918   8.138
 2369SOL     OW 7786   0.709   3.013   9.260
 2369SOL    HW1 7787   0.757   3.092   9.285
 2369SOL    HW2 7788   0.626   3.045   9.225
 2370SOL     OW 7789   0.351   3.266   8.526
 2370SOL    HW1 7790   0.268   3.251   8.480
 2370SOL    HW2 7791   0.400   3.325   8.470
 2371SOL     OW 7792   1.461   3.361   8.800
 2371SOL    HW1 7793   1.509   3.443   8.811
 2371SOL    HW2 7794   1.401   3.358   8.875
 2372SOL     OW 7795   0.450   2.263   8.941
 2372SOL    HW1 7796   0.524   2.203   8.942
 2372SOL    HW2 7797   0.373   2.207   8.950
 2373SOL     OW 7798   0.226   3.572   7.915
 2373SOL    HW1 7799   0.233   3.651   7.968
 2373SOL    HW2 7800   0.302   3.575   7.857
 2374SOL     OW 7801   1.136   3.203   9.140
 2374SOL    HW1 7802   1.176   3.198   9.227
 2374SOL    HW2 7803   1.083   3.123   9.134
 2375SOL     OW 7804   0.245   3.305   7.987
 2375SOL    HW1 7805   0.219   3.396   7.975
 2375SOL    HW2 7806   0.175   3.267   8.040
 2376SOL     OW 7807   0.245   2.932   8.332
 2376SOL    HW1 7808   0.264   2.848   8.375
 2376SOL    HW2 7809   0.194   2.981   8.396
 2377SOL     OW 7810   0.614   3.649   8.878
 2377SOL    HW1 7811   0.531   3.634   8.924
 2377SOL    HW2 7812   0.639   3.738   8.903
 2378SOL     OW 7813   0.583   2.845   7.583
 2378SOL    HW1 7814   0.628   2.893   7.513
 2378SOL    HW2 7815   0.626   2.873   7.664
 2379SOL     OW 7816   1.588   1.988   8.912
 2379SOL    HW1 7817   1.577   2.072   8.867
 2379SOL    HW2 7818   1.582   2.010   9.005
 2380SOL     OW 7819   0.140   2.509   8.022
 2380SOL    HW1 7820   0.085   2.431   8.022
 2380SOL    HW2 7821   0.104   2.564   8.091
 2381SOL     OW 7822   1.841   3.615   7.786
 2381SOL    HW1 7823   1.905   3.590   7.853
 2381SOL    HW2 7824   1.865   3.705   7.763
 2382SOL     OW 7825   0.041   3.455   7.589
 2382SOL    HW1 7826   0.031   3.362   7.609
 2382SOL    HW2 7827   3.963   3.496   7.625
 2383SOL     OW 7828   1.694   2.787   8.092
 2383SOL    HW1 7829   1.772   2.740   8.063
 2383SOL    HW2 7830   1.661   2.829   8.013
 2384SOL     OW 7831   1.636   2.974   7.884
 2384SOL    HW1 7832   1.717   2.977   7.833
 2384SOL    HW2 7833   1.651   3.034   7.957
 2385SOL     OW 7834   0.133   2.613   9.039
 2385SOL    HW1 7835   0.229   2.607   9.044
 2385SOL    HW2 7836   0.114   2.706   9.054
 2386SOL     OW 7837   0.613   3.246   8.182
 2386SOL    HW1 7838   0.567   3.163   8.192
 2386SOL    HW2 7839   0.596   3.272   8.092
 2387SOL     OW 7840   1.289   3.100   8.872
 2387SOL    HW1 7841   1.322   3.033   8.812
 2387SOL    HW2 7842   1.346   3.093   8.948
 2388SOL     OW 7843   0.816   1.864   7.957
 2388SOL    HW1 7844   0.855   1.950   7.939
 2388SOL    HW2 7845   0.723   1.882   7.965
 2389SOL     OW 7846   0.186   2.816   8.724
 2389SOL    HW1 7847   0.274   2.782   8.709
 2389SOL    HW2 7848   0.131   2.772   8.659
 2390SOL     OW 7849   1.209   3.663   9.073
 2390SOL    HW1 7850   1.195   3.723   8.999
 2390SOL    HW2 7851   1.212   3.576   9.033
 2391SOL     OW 7852   0.337   2.109   9.261
 2391SOL    HW1 7853   0.379   2.195   9.267
 2391SOL    HW2 7854   0.246   2.124   9.286
 2392SOL     OW 7855   1.466   3.282   8.400
 2392SOL    HW1 7856   1.397   3.296   8.466
 2392SOL    HW2 7857   1.454   3.191   8.373
 2393SOL     OW 7858   1.658   3.597   8.027
 2393SOL    HW1 7859   1.640   3.568   7.938
 2393SOL    HW2 7860   1.633   3.523   8.082
 2394SOL     OW 7861   0.596   2.582   7.711
 2394SOL    HW1 7862   0.605   2.664   7.663
 2394SOL    HW2 7863   0.533   2.601   7.780
 2395SOL     OW 7864   1.282   2.215   8.388
 2395SOL    HW1 7865   1.192   2.181   8.391
 2395SOL    HW2 7866   1.332   2.158   8.446
 2396SOL     OW 7867   1.579   3.535   7.756
 2396SOL    HW1 7868   1.670   3.563   7.751
 2396SOL    HW2 7869   1.555   3.515   7.666
 2397SOL     OW 7870   0.792   2.479   8.901
 2397SOL    HW1 7871   0.765   2.456   8.989
 2397SOL    HW2 7872   0.751   2.413   8.845
 2398SOL     OW 7873   1.394   2.335   9.125
 2398SOL    HW1 7874   1.395   2.380   9.210
 2398SOL    HW2 7875   1.459   2.265   9.134
 2399SOL     OW 7876   0.956   2.750   9.030
 2399SOL    HW1 7877   1.010   2.679   8.995
 2399SOL    HW2 7878   0.908   2.783   8.954
 2400SOL     OW 7879   0.993   2.273   8.688
 2400SOL    HW1 7880   0.907   2.297   8.725
 2400SOL    HW2 7881   0.972   2.230   8.605
 2401SOL     OW 7882   1.035   2.568   7.885
 2401SOL    HW1 7883   1.056   2.555   7.978
 2401SOL    HW2 7884   0.957   2.515   7.870
 2402SOL     OW 7885   0.081   2.686   8.239
 2402SOL    HW1 7886   0.162   2.658   8.283
 2402SOL    HW2 7887   0.090   2.781   8.230
 2403SOL     OW 7888   0.128   3.711   9.021
 2403SOL    HW1 7889   0.134   3.681   9.112
 2403SOL    HW2 7890   0.035   3.700   8.999
 2404SOL     OW 7891   0.878   2.212   7.642
 2404SOL    HW1 7892   0.920   2.279   7.588
 2404SOL    HW2 7893   0.922   2.131   7.617
 2405SOL     OW 7894   1.707   2.440   9.280
 2405SOL    HW1 7895   1.671   2.511   9.227
 2405SOL    HW2 7896   1.737   2.375   9.216
 2406SOL     OW 7897   1.376   3.003   7.988
 2406SOL    HW1 7898   1.457   2.989   7.939
 2406SOL    HW2 7899   1.327   3.066   7.935
 2407SOL     OW 7900   0.545   2.042   8.341
 2407SOL    HW1 7901   0.552   2.073   8.431
 2407SOL    HW2 7902   0.549   2.121   8.287
 2408SOL     OW 7903   1.008   3.308   7.921
 2408SOL    HW1 7904   0.967   3.380   7.872
 2408SOL    HW2 7905   0.991   3.329   8.013
 2409SOL     OW 7906   0.358   3.668   8.305
 2409SOL    HW1 7907   0.433   3.609   8.314
 2409SOL    HW2 7908   0.396   3.756   8.314
 2410SOL     OW 7909   1.800   2.923   8.315
 2410SOL    HW1 7910   1.747   2.900   8.239
 2410SOL    HW2 7911   1.737   2.927   8.388
 2411SOL     OW 7912   1.228   3.399   8.959
 2411SOL    HW1 7913   1.213   3.327   9.020
 2411SOL    HW2 7914   1.164   3.385   8.890
 2412SOL     OW 7915   0.311   2.817   7.690
 2412SOL    HW1 7916   0.396   2.840   7.652
 2412SOL    HW2 7917   0.296   2.727   7.663
 2413SOL     OW 7918   1.480   2.604   8.180
 2413SOL    HW1 7919   1.471   2.549   8.258
 2413SOL    HW2 7920   1.558   2.658   8.197
 2414SOL     OW 7921   0.465   3.121   9.185
 2414SOL    HW1 7922   0.438   3.130   9.093
 2414SOL    HW2 7923   0.383   3.127   9.234
 2415SOL     OW 7924   1.113   3.642   7.672
 2415SOL    HW1 7925   1.051   3.594   7.727
 2415SOL    HW2 7926   1.142   3.578   7.607
 2416SOL     OW 7927   0.204   2.143   8.955
 2416SOL    HW1 7928   0.114   2.174   8.943
 2416SOL    HW2 7929   0.195   2.061   9.003
 2417SOL     OW 7930   1.629   3.243   7.535
 2417SOL    HW1 7931   1.587   3.328   7.518
 2417SOL    HW2 7932   1.560   3.179   7.519
 2418SOL     OW 7933   0.469   3.599   7.769
 2418SOL    HW1 7934   0.506   3.663   7.830
 2418SOL    HW2 7935   0.542   3.574   7.714
 2419SOL     OW 7936   0.251   3.656   8.678
 2419SOL    HW1 7937   0.298   3.592   8.732
 2419SOL    HW2 7938   0.246   3.616   8.591
 2420SOL     OW 7939   0.937   3.560   8.350
 2420SOL    HW1 7940   1.015   3.507   8.369
 2420SOL    HW2 7941   0.892   3.512   8.281
 2421SOL     OW 7942   0.395   2.556   7.921
 2421SOL    HW1 7943   0.423   2.466   7.934
 2421SOL    HW2 7944   0.303   2.557   7.948
 2422SOL     OW 7945   1.539   2.086   9.173
 2422SOL    HW1 7946   1.550   2.108   9.265
 2422SOL    HW2 7947   1.468   2.022   9.172
 2423SOL     OW 7948   0.627   1.982   7.551
 2423SOL    HW1 7949   0.692   1.915   7.572
 2423SOL    HW2 7950   0.585   1.949   7.472
 2424SOL     OW 7951   0.767   2.139   9.201
 2424SOL    HW1 7952   0.842   2.079   9.205
 2424SOL    HW2 7953   0.718   2.122   9.281
 2425SOL     OW 7954   0.876   3.382   8.642
 2425SOL    HW1 7955   0.861   3.347   8.554
 2425SOL    HW2 7956   0.946   3.328   8.678
 2426SOL     OW 7957   1.342   2.450   8.880
 2426SOL    HW1 7958   1.372   2.419   8.965
 2426SOL    HW2 7959   1.377   2.539   8.873
 2427SOL     OW 7960   0.814   3.258   8.385
 2427SOL    HW1 7961   0.898   3.247   8.342
 2427SOL    HW2 7962   0.750   3.257   8.314
 2428SOL     OW 7963   0.927   2.371   8.352
 2428SOL    HW1 7964   0.904   2.364   8.259
 2428SOL    HW2 7965   0.960   2.284   8.375
 2429SOL     OW 7966   0.552   1.924   7.948
 2429SOL    HW1 7967   0.470   1.929   7.996
 2429SOL    HW2 7968   0.557   2.006   7.900
 2430SOL     OW 7969   1.430   3.060   7.495
 2430SOL    HW1 7970   1.446   2.976   7.538
 2430SOL    HW2 7971   1.342   3.085   7.523
 2431SOL     OW 7972   0.305   1.912   7.618
 2431SOL    HW1 7973   0.371   1.953   7.563
 2431SOL    HW2 7974   0.353   1.846   7.669
 2432SOL     OW 7975   0.937   2.106   7.911
 2432SOL    HW1 7976   0.905   2.157   7.836
 2432SOL    HW2 7977   1.031   2.123   7.913
 2433SOL     OW 7978   1.080   2.542   8.908
 2433SOL    HW1 7979   1.010   2.476   8.913
 2433SOL    HW2 7980   1.160   2.491   8.900
 2434SOL     OW 7981   1.224   3.432   8.242
 2434SOL    HW1 7982   1.241   3.500   8.177
 2434SOL    HW2 7983   1.292   3.444   8.308
 2435SOL     OW 7984   0.466   3.011   8.187
 2435SOL    HW1 7985   0.393   2.989   8.244
 2435SOL    HW2 7986   0.433   2.995   8.099
 2436SOL     OW 7987   1.270   3.659   8.053
 2436SOL    HW1 7988   1.314   3.722   7.997
 2436SOL    HW2 7989   1.200   3.708   8.096
 2437SOL     OW 7990   0.993   2.400   7.485
 2437SOL    HW1 7991   0.970   2.489   7.456
 2437SOL    HW2 7992   1.076   2.411   7.531
 2438SOL     OW 7993   0.080   2.432   8.838
 2438SOL    HW1 7994   0.169   2.419   8.807
 2438SOL    HW2 7995   0.087   2.501   8.904
 2439SOL     OW 7996   0.567   2.089   8.612
 2439SOL    HW1 7997   0.606   2.010   8.650
 2439SOL    HW2 7998   0.476   2.087   8.641
 2440SOL     OW 7999   0.867   2.322   8.088
 2440SOL    HW1 8000   0.821   2.374   8.021
 2440SOL    HW2 8001   0.888   2.240   8.044
 2441SOL     OW 8002   0.999   1.923   8.211
 2441SOL    HW1 8003   0.956   1.911   8.126
 2441SOL    HW2 8004   0.982   1.841   8.257
 2442SOL     OW 8005   1.436   3.025   8.305
 2442SOL    HW1 8006   1.368   2.957   8.303
 2442SOL    HW2 8007   1.461   3.036   8.213
 2443SOL     OW 8008   1.463   2.464   8.429
 2443SOL    HW1 8009   1.413   2.383   8.435
 2443SOL    HW2 8010   1.525   2.459   8.501
 2444SOL     OW 8011   1.834   2.689   7.841
 2444SOL    HW1 8012   1.883   2.638   7.906
 2444SOL    HW2 8013   1.822   2.628   7.768
 2445SOL     OW 8014   0.490   3.277   7.610
 2445SOL    HW1 8015   0.414   3.246   7.660
 2445SOL    HW2 8016   0.467   3.258   7.519
 2446SOL     OW 8017   1.671   3.130   8.099
 2446SOL    HW1 8018   1.766   3.135   8.111
 2446SOL    HW2 8019   1.640   3.218   8.119
 2447SOL     OW 8020   0.571   2.130   7.773
 2447SOL    HW1 8021   0.596   2.081   7.695
 2447SOL    HW2 8022   0.541   2.215   7.739
 2448SOL     OW 8023   1.753   3.100   9.023
 2448SOL    HW1 8024   1.840   3.061   9.020
 2448SOL    HW2 8025   1.768   3.190   9.051
 2449SOL     OW 8026   1.059   3.216   8.782
 2449SOL    HW1 8027   0.985   3.184   8.834
 2449SOL    HW2 8028   1.135   3.174   8.823
 2450SOL     OW 8029   1.608   3.487   9.101
 2450SOL    HW1 8030   1.602   3.521   9.012
 2450SOL    HW2 8031   1.691   3.441   9.104
 2451SOL     OW 8032   1.128   3.065   8.554
 2451SOL    HW1 8033   1.068   3.102   8.619
 2451SOL    HW2 8034   1.094   3.095   8.470
 2452SOL     OW 8035   1.630   2.961   8.526
 2452SOL    HW1 8036   1.625   3.023   8.598
 2452SOL    HW2 8037   1.550   2.976   8.476
 2453SOL     OW 8038   0.918   1.959   8.846
 2453SOL    HW1 8039   0.940   1.941   8.755
 2453SOL    HW2 8040   0.997   1.999   8.883
 2454SOL     OW 8041   0.984   2.976   9.170
 2454SOL    HW1 8042   0.892   2.992   9.190
 2454SOL    HW2 8043   0.984   2.899   9.114
 2455SOL     OW 8044   0.708   2.921   7.819
 2455SOL    HW1 8045   0.696   2.907   7.913
 2455SOL    HW2 8046   0.785   2.868   7.797
 2456SOL     OW 8047   0.419   2.677   8.700
 2456SOL    HW1 8048   0.489   2.685   8.766
 2456SOL    HW2 8049   0.385   2.588   8.712
 2457SOL     OW 8050   1.267   2.238   8.722
 2457SOL    HW1 8051   1.299   2.316   8.768
 2457SOL    HW2 8052   1.178   2.260   8.697
 2458SOL     OW 8053   0.064   3.441   8.792
 2458SOL    HW1 8054   0.066   3.509   8.725
 2458SOL    HW2 8055   0.156   3.428   8.816
 2459SOL     OW 8056   0.375   2.964   7.934
 2459SOL    HW1 8057   0.368   3.042   7.879
 2459SOL    HW2 8058   0.374   2.891   7.873
 2460SOL     OW 8059   0.553   2.401   8.311
 2460SOL    HW1 8060   0.569   2.456   8.234
 2460SOL    HW2 8061   0.619   2.428   8.374
 2461SOL     OW 8062   1.248   3.210   7.836
 2461SOL    HW1 8063   1.304   3.281   7.868
 2461SOL    HW2 8064   1.161   3.231   7.871
 2462SOL     OW 8065   1.279   3.319   8.594
 2462SOL    HW1 8066   1.334   3.321   8.672
 2462SOL    HW2 8067   1.224   3.242   8.605
 2463SOL     OW 8068   1.549   2.589   7.904
 2463SOL    HW1 8069   1.534   2.586   7.998
 2463SOL    HW2 8070   1.644   2.586   7.894
 2464SOL     OW 8071   0.346   3.387   8.768
 2464SOL    HW1 8072   0.336   3.337   8.686
 2464SOL    HW2 8073   0.440   3.403   8.775
 2465SOL     OW 8074   0.412   2.603   9.049
 2465SOL    HW1 8075   0.473   2.649   8.992
 2465SOL    HW2 8076   0.454   2.518   9.065
 2466SOL     OW 8077   1.600   2.640   9.128
 2466SOL    HW1 8078   1.513   2.681   9.121
 2466SOL    HW2 8079   1.652   2.682   9.060
 2467SOL     OW 8080   0.996   1.983   9.204
 2467SOL    HW1 8081   1.050   2.056   9.174
 2467SOL    HW2 8082   1.045   1.905   9.178
 2468SOL     OW 8083   0.498   1.901   9.192
 2468SOL    HW1 8084   0.456   1.847   9.125
 2468SOL    HW2 8085   0.441   1.977   9.202
 2469SOL     OW 8086   0.584   2.735   8.479
 2469SOL    HW1 8087   0.615   2.825   8.477
 2469SOL    HW2 8088   0.527   2.731   8.557
 2470SOL     OW 8089   1.359   2.719   8.481
 2470SOL    HW1 8090   1.280   2.715   8.428
 2470SOL    HW2 8091   1.399   2.633   8.474
 2471SOL     OW 8092   1.160   2.386   7.723
 2471SOL    HW1 8093   1.188   2.318   7.784
 2471SOL    HW2 8094   1.137   2.460   7.778
 2472SOL     OW 8095   0.312   2.061   8.695
 2472SOL    HW1 8096   0.266   2.098   8.770
 2472SOL    HW2 8097   0.286   1.969   8.695
 2473SOL     OW 8098   0.055   3.166   8.728
 2473SOL    HW1 8099   0.089   3.128   8.809
 2473SOL    HW2 8100   0.050   3.260   8.746
 2474SOL     OW 8101   0.727   2.494   8.508
 2474SOL    HW1 8102   0.799   2.476   8.448
 2474SOL    HW2 8103   0.698   2.583   8.485
 2475SOL     OW 8104   1.734   2.822   9.299
 2475SOL    HW1 8105   1.688   2.761   9.241
 2475SOL    HW2 8106   1.674   2.834   9.373
 2476SOL     OW 8107   0.310   1.926   8.069
 2476SOL    HW1 8108   0.292   2.017   8.091
 2476SOL    HW2 8109   0.314   1.881   8.154
 2477SOL     OW 8110   1.025   2.622   8.410
 2477SOL    HW1 8111   1.025   2.639   8.504
 2477SOL    HW2 8112   1.000   2.530   8.402
 2478SOL     OW 8113   0.985   3.429   9.165
 2478SOL    HW1 8114   0.967   3.472   9.081
 2478SOL    HW2 8115   1.026   3.346   9.141
 2479SOL     OW 8116   1.855   3.369   9.053
 2479SOL    HW1 8117   1.873   3.396   8.963
 2479SOL    HW2 8118   1.936   3.390   9.100
 2480SOL     OW 8119   0.351   2.781   9.250
 2480SOL    HW1 8120   0.431   2.802   9.299
 2480SOL    HW2 8121   0.379   2.716   9.186
 2481SOL     OW 8122   1.064   3.197   8.301
 2481SOL    HW1 8123   1.068   3.124   8.239
 2481SOL    HW2 8124   1.127   3.261   8.266
 2482SOL     OW 8125   0.314   2.668   8.399
 2482SOL    HW1 8126   0.407   2.686   8.391
 2482SOL    HW2 8127   0.309   2.578   8.432
 2483SOL     OW 8128   0.332   2.381   8.461
 2483SOL    HW1 8129   0.298   2.293   8.443
 2483SOL    HW2 8130   0.408   2.390   8.404
 2484SOL     OW 8131   1.134   2.238   9.129
 2484SOL    HW1 8132   1.088   2.294   9.192
 2484SOL    HW2 8133   1.222   2.276   9.125
 2485SOL     OW 8134   1.161   2.065   8.918
 2485SOL    HW1 8135   1.151   2.128   8.990
 2485SOL    HW2 8136   1.198   2.117   8.846
 2486SOL     OW 8137   3.999   3.183   7.630
 2486SOL    HW1 8138   3.905   3.199   7.634
 2486SOL    HW2 8139   0.009   3.090   7.650
 2487SOL     OW 8140   0.075   3.663   8.342
 2487SOL    HW1 8141   0.084   3.568   8.346
 2487SOL    HW2 8142   0.165   3.695   8.338
 2488SOL     OW 8143   0.507   3.429   8.361
 2488SOL    HW1 8144   0.574   3.493   8.383
 2488SOL    HW2 8145   0.551   3.367   8.302
 2489SOL     OW 8146   0.985   2.656   8.676
 2489SOL    HW1 8147   1.039   2.631   8.751
 2489SOL    HW2 8148   0.899   2.617   8.695
 2490SOL     OW 8149   0.037   2.415   8.559
 2490SOL    HW1 8150   0.119   2.390   8.515
 2490SOL    HW2 8151   0.058   2.413   8.652
 2491SOL     OW 8152   0.206   2.376   9.174
 2491SOL    HW1 8153   0.250   2.333   9.101
 2491SOL    HW2 8154   0.155   2.447   9.134
 2492SOL     OW 8155   1.376   2.802   9.107
 2492SOL    HW1 8156   1.397   2.896   9.105
 2492SOL    HW2 8157   1.374   2.777   9.015
 2493SOL     OW 8158   0.810   2.426   7.812
 2493SOL    HW1 8159   0.819   2.356   7.748
 2493SOL    HW2 8160   0.740   2.481   7.777
 2494SOL     OW 8161   1.644   2.464   8.635
 2494SOL    HW1 8162   1.633   2.407   8.712
 2494SOL    HW2 8163   1.730   2.439   8.600
 2495SOL     OW 8164   0.296   3.410   9.180
 2495SOL    HW1 8165   0.245   3.479   9.222
 2495SOL    HW2 8166   0.261   3.329   9.217
 2496SOL     OW 8167   0.697   2.315   8.709
 2496SOL    HW1 8168   0.648   2.239   8.677
 2496SOL    HW2 8169   0.696   2.377   8.637
 2497SOL     OW 8170   0.931   3.536   8.915
 2497SOL    HW1 8171   0.903   3.502   8.830
 2497SOL    HW2 8172   0.924   3.631   8.906
 2498SOL     OW 8173   0.461   2.353   7.639
 2498SOL    HW1 8174   0.525   2.421   7.658
 2498SOL    HW2 8175   0.380   2.401   7.621
 2499SOL     OW 8176   0.157   2.998   8.921
 2499SOL    HW1 8177   0.161   2.947   9.001
 2499SOL    HW2 8178   0.172   2.935   8.850
 2500SOL     OW 8179   1.328   2.910   8.672
 2500SOL    HW1 8180   1.350   2.846   8.605
 2500SOL    HW2 8181   1.257   2.961   8.633
 2501SOL     OW 8182   1.767   3.607   8.596
 2501SOL    HW1 8183   1.830   3.634   8.528
 2501SOL    HW2 8184   1.747   3.516   8.574
 2502SOL     OW 8185   1.243   3.596   8.562
 2502SOL    HW1 8186   1.325   3.614   8.517
 2502SOL    HW2 8187   1.246   3.502   8.581
 2503SOL     OW 8188   0.075   3.078   8.475
 2503SOL    HW1 8189   0.082   3.105   8.567
 2503SOL    HW2 8190   3.982   3.086   8.455
 2504SOL     OW 8191   0.679   3.525   9.175
 2504SOL    HW1 8192   0.624   3.603   9.178
 2504SOL    HW2 8193   0.738   3.540   9.101
 2505SOL     OW 8194   1.690   1.959   7.952
 2505SOL    HW1 8195   1.779   1.955   7.918
 2505SOL    HW2 8196   1.677   1.874   7.995
 2506SOL     OW 8197   1.390   3.431   7.932
 2506SOL    HW1 8198   1.450   3.463   7.865
 2506SOL    HW2 8199   1.343   3.509   7.961
 2507SOL     OW 8200   0.166   3.629   9.278
 2507SOL    HW1 8201   0.109   3.578   9.336
 2507SOL    HW2 8202   0.214   3.687   9.337
 2508SOL     OW 8203   1.278   2.789   8.123
 2508SOL    HW1 8204   1.350   2.726   8.127
 2508SOL    HW2 8205   1.311   2.859   8.068
 2509SOL     OW 8206   0.816   3.134   8.879
 2509SOL    HW1 8207   0.788   3.174   8.962
 2509SOL    HW2 8208   0.746   3.155   8.818
 2510SOL     OW 8209   0.675   3.476   7.605
 2510SOL    HW1 8210   0.681   3.491   7.510
 2510SOL    HW2 8211   0.618   3.399   7.612
 2511SOL     OW 8212   1.628   3.588   8.839
 2511SOL    HW1 8213   1.678   3.595   8.757
 2511SOL    HW2 8214   1.615   3.678   8.867
 2512SOL     OW 8215   0.269   2.177   8.166
 2512SOL    HW1 8216   0.184   2.212   8.139
 2512SOL    HW2 8217   0.262   2.166   8.261
 2513SOL     OW 8218   1.206   3.469   7.483
 2513SOL    HW1 8219   1.197   3.376   7.506
 2513SOL    HW2 8220   1.146   3.481   7.410
 2514SOL     OW 8221   0.823   2.867   8.820
 2514SOL    HW1 8222   0.867   2.863   8.735
 2514SOL    HW2 8223   0.824   2.960   8.843
 2515SOL     OW 8224   0.917   2.772   7.735
 2515SOL    HW1 8225   0.981   2.804   7.671
 2515SOL    HW2 8226   0.963   2.705   7.785
 2516SOL     OW 8227   1.492   3.488   7.490
 2516SOL    HW1 8228   1.398   3.480   7.475
 2516SOL    HW2 8229   1.529   3.494   7.402
 2517SOL     OW 8230   0.373   3.164   8.940
 2517SOL    HW1 8231   0.359   3.244   8.889
 2517SOL    HW2 8232   0.296   3.111   8.922
 2518SOL     OW 8233   1.612   3.145   8.729
 2518SOL    HW1 8234   1.671   3.136   8.804
 2518SOL    HW2 8235   1.551   3.215   8.755
 2519SOL     OW 8236   1.050   2.968   8.154
 2519SOL    HW1 8237   0.979   2.916   8.192
 2519SOL    HW2 8238   1.112   2.904   8.121
 2520SOL     OW 8239   1.022   2.104   8.417
 2520SOL    HW1 8240   1.014   2.057   8.333
 2520SOL    HW2 8241   1.015   2.036   8.483
 2521SOL     OW 8242   0.603   3.353   7.929
 2521SOL    HW1 8243   0.645   3.301   7.861
 2521SOL    HW2 8244   0.535   3.402   7.884
 2522SOL     OW 8245   1.723   2.250   8.823
 2522SOL    HW1 8246   1.795   2.313   8.830
 2522SOL    HW2 8247   1.757   2.182   8.765
 2523SOL     OW 8248   0.252   3.204   7.738
 2523SOL    HW1 8249   0.160   3.215   7.718
 2523SOL    HW2 8250   0.262   3.242   7.826
 2524SOL     OW 8251   0.105   2.862   9.166
 2524SOL    HW1 8252   0.044   2.851   9.239
 2524SOL    HW2 8253   0.191   2.842   9.204
 2525SOL     OW 8254   0.673   2.058   8.947
 2525SOL    HW1 8255   0.757   2.039   8.905
 2525SOL    HW2 8256   0.697   2.088   9.035
 2526SOL     OW 8257   0.080   2.182   7.484
 2526SOL    HW1 8258   3.984   2.180   7.489
 2526SOL    HW2 8259   0.101   2.262   7.437
 2527SOL     OW 8260   1.431   2.720   8.849
 2527SOL    HW1 8261   1.382   2.780   8.792
 2527SOL    HW2 8262   1.521   2.723   8.816
 2528SOL     OW 8263   0.024   2.083   7.817
 2528SOL    HW1 8264   0.045   2.150   7.751
 2528SOL    HW2 8265   0.110   2.049   7.843
 2529SOL     OW 8266   1.181   3.201   7.564
 2529SOL    HW1 8267   1.090   3.173   7.566
 2529SOL    HW2 8268   1.208   3.201   7.656
 2530SOL     OW 8269   0.618   2.693   8.883
 2530SOL    HW1 8270   0.674   2.769   8.867
 2530SOL    HW2 8271   0.680   2.620   8.890
 2531SOL     OW 8272   1.485   3.639   8.426
 2531SOL    HW1 8273   1.511   3.693   8.352
 2531SOL    HW2 8274   1.568   3.619   8.471
 2532SOL     OW 8275   0.716   2.427   9.154
 2532SOL    HW1 8276   0.756   2.490   9.213
 2532SOL    HW2 8277   0.749   2.342   9.184
 2533SOL     OW 8278   1.470   3.063   9.080
 2533SOL    HW1 8279   1.458   3.077   9.174
 2533SOL    HW2 8280   1.564   3.077   9.066
 2534SOL     OW 8281   0.380   3.604   9.007
 2534SOL    HW1 8282   0.292   3.640   8.993
 2534SOL    HW2 8283   0.365   3.523   9.055
 2535SOL     OW 8284   1.672   2.744   8.703
 2535SOL    HW1 8285   1.662   2.659   8.660
 2535SOL    HW2 8286   1.661   2.807   8.632
 2536SOL     OW 8287   1.206   2.174   7.908
 2536SOL    HW1 8288   1.291   2.144   7.875
 2536SOL    HW2 8289   1.227   2.222   7.988
 2537SOL     OW 8290   0.589   2.603   8.119
 2537SOL    HW1 8291   0.630   2.687   8.100
 2537SOL    HW2 8292   0.521   2.594   8.051
 2538SOL     OW 8293   1.758   2.240   9.097
 2538SOL    HW1 8294   1.741   2.242   9.003
 2538SOL    HW2 8295   1.697   2.175   9.131
 2539SOL     OW 8296   1.743   2.797   8.960
 2539SOL    HW1 8297   1.743   2.891   8.973
 2539SOL    HW2 8298   1.729   2.785   8.866
 2540SOL     OW 8299   0.864   3.230   7.482
 2540SOL    HW1 8300   0.822   3.258   7.563
 2540SOL    HW2 8301   0.880   3.312   7.434
 2541SOL     OW 8302   0.658   3.654   8.390
 2541SOL    HW1 8303   0.635   3.744   8.369
 2541SOL    HW2 8304   0.754   3.651   8.386
 2542SOL     OW 8305   0.866   2.828   8.303
 2542SOL    HW1 8306   0.917   2.757   8.343
 2542SOL    HW2 8307   0.833   2.878   8.378
 2543SOL     OW 8308   1.082   2.857   7.532
 2543SOL    HW1 8309   1.052   2.909   7.458
 2543SOL    HW2 8310   1.156   2.807   7.498
 2544SOL     OW 8311   1.855   3.415   8.291
 2544SOL    HW1 8312   1.776   3.405   8.239
 2544SOL    HW2 8313   1.845   3.351   8.361
 2545SOL     OW 8314   0.223   3.166   9.303
 2545SOL    HW1 8315   0.152   3.106   9.278
 2545SOL    HW2 8316   0.211   3.179   9.397
 2546SOL     OW 8317   0.110   3.134   8.164
 2546SOL    HW1 8318   0.120   3.083   8.244
 2546SOL    HW2 8319   0.111   3.070   8.094
 2547SOL     OW 8320   0.680   3.263   9.076
 2547SOL    HW1 8321   0.599   3.221   9.105
 2547SOL    HW2 8322   0.676   3.352   9.112
 2548SOL     OW 8323   0.440   2.297   7.980
 2548SOL    HW1 8324   0.446   2.226   7.915
 2548SOL    HW2 8325   0.385   2.261   8.050
 2549SOL     OW 8326   1.701   3.351   8.544
 2549SOL    HW1 8327   1.620   3.327   8.501
 2549SOL    HW2 8328   1.714   3.284   8.611
 2550SOL     OW 8329   0.331   2.416   8.739
 2550SOL    HW1 8330   0.387   2.360   8.793
 2550SOL    HW2 8331   0.348   2.387   8.649
 2551SOL     OW 8332   0.825   3.441   8.126
 2551SOL    HW1 8333   0.817   3.487   8.042
 2551SOL    HW2 8334   0.749   3.383   8.130
 2552SOL     OW 8335   1.438   2.085   8.571
 2552SOL    HW1 8336   1.453   2.002   8.616
 2552SOL    HW2 8337   1.383   2.135   8.631
 2553SOL     OW 8338   1.008   1.881   8.593
 2553SOL    HW1 8339   0.954   1.814   8.552
 2553SOL    HW2 8340   1.096   1.843   8.593
 2554SOL     OW 8341   0.771   3.194   7.763
 2554SOL    HW1 8342   0.738   3.104   7.767
 2554SOL    HW2 8343   0.854   3.191   7.809
 2555SOL     OW 8344   0.620   3.418   8.732
 2555SOL    HW1 8345   0.622   3.500   8.783
 2555SOL    HW2 8346   0.707   3.411   8.694
 2556SOL     OW 8347   1.264   2.314   8.133
 2556SOL    HW1 8348   1.223   2.401   8.142
 2556SOL    HW2 8349   1.275   2.285   8.224
 2557SOL     OW 8350   1.577   2.065   8.326
 2557SOL    HW1 8351   1.530   2.079   8.408
 2557SOL    HW2 8352   1.566   2.148   8.279
 2558SOL     OW 8353   0.045   2.914   7.688
 2558SOL    HW1 8354   0.139   2.898   7.679
 2558SOL    HW2 8355   0.010   2.835   7.727
 2559SOL     OW 8356   0.882   3.516   7.794
 2559SOL    HW1 8357   0.813   3.496   7.731
 2559SOL    HW2 8358   0.851   3.593   7.841
 2560SOL     OW 8359   0.231   2.483   9.431
 2560SOL    HW1 8360   0.138   2.493   9.451
 2560SOL    HW2 8361   0.233   2.455   9.340
 2561SOL     OW 8362   0.228   2.132  10.297
 2561SOL    HW1 8363   0.249   2.102  10.385
 2561SOL    HW2 8364   0.133   2.123  10.290
 2562SOL     OW 8365   0.012   2.226   9.943
 2562SOL    HW1 8366   3.926   2.244   9.981
 2562SOL    HW2 8367   3.993   2.188   9.858
 2563SOL     OW 8368   0.576   3.143  10.492
 2563SOL    HW1 8369   0.489   3.149  10.451
 2563SOL    HW2 8370   0.591   3.231  10.526
 2564SOL     OW 8371   1.559   3.373  10.017
 2564SOL    HW1 8372   1.516   3.353  10.100
 2564SOL    HW2 8373   1.487   3.377   9.953
 2565SOL     OW 8374   1.130   2.560  10.012
 2565SOL    HW1 8375   1.180   2.641   9.998
 2565SOL    HW2 8376   1.083   2.575  10.095
 2566SOL     OW 8377   1.769   2.469   9.540
 2566SOL    HW1 8378   1.746   2.462   9.447
 2566SOL    HW2 8379   1.734   2.388   9.578
 2567SOL     OW 8380   0.758   3.004  10.348
 2567SOL    HW1 8381   0.691   3.038  10.407
 2567SOL    HW2 8382   0.792   3.082  10.304
 2568SOL     OW 8383   0.863   2.640  11.131
 2568SOL    HW1 8384   0.854   2.711  11.194
 2568SOL    HW2 8385   0.888   2.683  11.049
 2569SOL     OW 8386   0.686   2.867   9.958
 2569SOL    HW1 8387   0.751   2.854  10.027
 2569SOL    HW2 8388   0.616   2.918  10.000
 2570SOL     OW 8389   0.709   3.013  11.121
 2570SOL    HW1 8390   0.757   3.092  11.147
 2570SOL    HW2 8391   0.626   3.045  11.087
 2571SOL     OW 8392   0.351   3.265  10.388
 2571SOL    HW1 8393   0.268   3.251  10.342
 2571SOL    HW2 8394   0.400   3.325  10.332
 2572SOL     OW 8395   1.461   3.361  10.662
 2572SOL    HW1 8396   1.510   3.443  10.672
 2572SOL    HW2 8397   1.402   3.359  10.737
 2573SOL     OW 8398   0.450   2.263  10.802
 2573SOL    HW1 8399   0.524   2.202  10.804
 2573SOL    HW2 8400   0.373   2.207  10.812
 2574SOL     OW 8401   1.608   2.310  10.049
 2574SOL    HW1 8402   1.528   2.334  10.001
 2574SOL    HW2 8403   1.628   2.386  10.103
 2575SOL     OW 8404   0.226   3.571   9.777
 2575SOL    HW1 8405   0.233   3.651   9.830
 2575SOL    HW2 8406   0.302   3.575   9.719
 2576SOL     OW 8407   1.136   3.203  11.002
 2576SOL    HW1 8408   1.176   3.199  11.089
 2576SOL    HW2 8409   1.083   3.123  10.996
 2577SOL     OW 8410   0.245   3.305   9.849
 2577SOL    HW1 8411   0.219   3.396   9.837
 2577SOL    HW2 8412   0.176   3.267   9.903
 2578SOL     OW 8413   0.246   2.932  10.194
 2578SOL    HW1 8414   0.264   2.849  10.237
 2578SOL    HW2 8415   0.194   2.981  10.258
 2579SOL     OW 8416   0.614   3.649  10.740
 2579SOL    HW1 8417   0.531   3.634  10.786
 2579SOL    HW2 8418   0.639   3.738  10.765
 2580SOL     OW 8419   0.583   2.845   9.445
 2580SOL    HW1 8420   0.628   2.893   9.376
 2580SOL    HW2 8421   0.626   2.873   9.526
 2581SOL     OW 8422   1.591   1.988  10.776
 2581SOL    HW1 8423   1.580   2.071  10.729
 2581SOL    HW2 8424   1.584   2.011  10.868
 2582SOL     OW 8425   0.140   2.509   9.884
 2582SOL    HW1 8426   0.085   2.431   9.885
 2582SOL    HW2 8427   0.104   2.565   9.953
 2583SOL     OW 8428   1.841   3.615   9.648
 2583SOL    HW1 8429   1.905   3.590   9.714
 2583SOL    HW2 8430   1.865   3.705   9.625
 2584SOL     OW 8431   0.041   3.455   9.450
 2584SOL    HW1 8432   0.031   3.362   9.471
 2584SOL    HW2 8433   3.964   3.497   9.488
 2585SOL     OW 8434   1.689   2.781   9.949
 2585SOL    HW1 8435   1.773   2.739   9.929
 2585SOL    HW2 8436   1.668   2.831   9.871
 2586SOL     OW 8437   1.645   2.969   9.740
 2586SOL    HW1 8438   1.731   2.976   9.697
 2586SOL    HW2 8439   1.650   3.030   9.813
 2587SOL     OW 8440   0.133   2.613  10.901
 2587SOL    HW1 8441   0.229   2.607  10.906
 2587SOL    HW2 8442   0.114   2.705  10.917
 2588SOL     OW 8443   0.613   3.246  10.044
 2588SOL    HW1 8444   0.566   3.163  10.054
 2588SOL    HW2 8445   0.596   3.272   9.954
 2589SOL     OW 8446   1.289   3.100  10.734
 2589SOL    HW1 8447   1.322   3.033  10.674
 2589SOL    HW2 8448   1.346   3.094  10.811
 2590SOL     OW 8449   0.815   1.861   9.818
 2590SOL    HW1 8450   0.855   1.946   9.800
 2590SOL    HW2 8451   0.721   1.879   9.826
 2591SOL     OW 8452   0.186   2.817  10.586
 2591SOL    HW1 8453   0.274   2.782  10.571
 2591SOL    HW2 8454   0.131   2.772  10.522
 2592SOL     OW 8455   1.532   2.855   9.507
 2592SOL    HW1 8456   1.462   2.797   9.538
 2592SOL    HW2 8457   1.572   2.889   9.587
 2593SOL     OW 8458   1.209   3.663  10.935
 2593SOL    HW1 8459   1.195   3.723  10.861
 2593SOL    HW2 8460   1.212   3.577  10.895
 2594SOL     OW 8461   0.337   2.109  11.122
 2594SOL    HW1 8462   0.379   2.195  11.129
 2594SOL    HW2 8463   0.246   2.124  11.148
 2595SOL     OW 8464   1.465   3.282  10.262
 2595SOL    HW1 8465   1.397   3.296  10.328
 2595SOL    HW2 8466   1.454   3.191  10.235
 2596SOL     OW 8467   1.657   3.597   9.889
 2596SOL    HW1 8468   1.640   3.568   9.800
 2596SOL    HW2 8469   1.633   3.523   9.944
 2597SOL     OW 8470   0.596   2.582   9.573
 2597SOL    HW1 8471   0.604   2.664   9.525
 2597SOL    HW2 8472   0.533   2.600   9.643
 2598SOL     OW 8473   1.279   2.215  10.243
 2598SOL    HW1 8474   1.190   2.179  10.252
 2598SOL    HW2 8475   1.332   2.160  10.301
 2599SOL     OW 8476   1.579   3.535   9.618
 2599SOL    HW1 8477   1.670   3.563   9.613
 2599SOL    HW2 8478   1.555   3.515   9.527
 2600SOL     OW 8479   0.792   2.479  10.763
 2600SOL    HW1 8480   0.765   2.456  10.851
 2600SOL    HW2 8481   0.751   2.413  10.707
 2601SOL     OW 8482   1.394   2.335  10.987
 2601SOL    HW1 8483   1.396   2.380  11.072
 2601SOL    HW2 8484   1.458   2.265  10.996
 2602SOL     OW 8485   0.956   2.750  10.892
 2602SOL    HW1 8486   1.010   2.679  10.857
 2602SOL    HW2 8487   0.908   2.783  10.816
 2603SOL     OW 8488   0.992   2.275  10.549
 2603SOL    HW1 8489   0.908   2.297  10.588
 2603SOL    HW2 8490   0.970   2.228  10.469
 2604SOL     OW 8491   1.050   2.560   9.736
 2604SOL    HW1 8492   1.065   2.553   9.831
 2604SOL    HW2 8493   0.968   2.513   9.721
 2605SOL     OW 8494   0.082   2.686  10.100
 2605SOL    HW1 8495   0.162   2.658  10.145
 2605SOL    HW2 8496   0.090   2.781  10.093
 2606SOL     OW 8497   0.128   3.711  10.883
 2606SOL    HW1 8498   0.134   3.681  10.974
 2606SOL    HW2 8499   0.035   3.700  10.861
 2607SOL     OW 8500   0.890   2.210   9.502
 2607SOL    HW1 8501   0.933   2.271   9.442
 2607SOL    HW2 8502   0.910   2.123   9.466
 2608SOL     OW 8503   1.708   2.440  11.142
 2608SOL    HW1 8504   1.671   2.511  11.089
 2608SOL    HW2 8505   1.737   2.375  11.078
 2609SOL     OW 8506   1.376   3.004   9.852
 2609SOL    HW1 8507   1.455   2.991   9.799
 2609SOL    HW2 8508   1.323   3.066   9.801
 2610SOL     OW 8509   0.546   2.043  10.202
 2610SOL    HW1 8510   0.552   2.073  10.293
 2610SOL    HW2 8511   0.548   2.123  10.150
 2611SOL     OW 8512   1.008   3.308   9.783
 2611SOL    HW1 8513   0.967   3.380   9.734
 2611SOL    HW2 8514   0.991   3.329   9.875
 2612SOL     OW 8515   0.358   3.668  10.167
 2612SOL    HW1 8516   0.434   3.609  10.176
 2612SOL    HW2 8517   0.395   3.756  10.176
 2613SOL     OW 8518   1.799   2.919  10.177
 2613SOL    HW1 8519   1.743   2.903  10.101
 2613SOL    HW2 8520   1.738   2.925  10.251
 2614SOL     OW 8521   1.228   3.399  10.821
 2614SOL    HW1 8522   1.213   3.327  10.882
 2614SOL    HW2 8523   1.164   3.385  10.752
 2615SOL     OW 8524   0.311   2.817   9.552
 2615SOL    HW1 8525   0.395   2.841   9.514
 2615SOL    HW2 8526   0.296   2.727   9.524
 2616SOL     OW 8527   1.478   2.601  10.037
 2616SOL    HW1 8528   1.467   2.558  10.122
 2616SOL    HW2 8529   1.554   2.658  10.048
 2617SOL     OW 8530   0.465   3.121  11.047
 2617SOL    HW1 8531   0.438   3.130  10.955
 2617SOL    HW2 8532   0.383   3.127  11.096
 2618SOL     OW 8533   1.113   3.642   9.534
 2618SOL    HW1 8534   1.051   3.594   9.589
 2618SOL    HW2 8535   1.142   3.578   9.469
 2619SOL     OW 8536   0.204   2.144  10.817
 2619SOL    HW1 8537   0.114   2.174  10.805
 2619SOL    HW2 8538   0.195   2.061  10.865
 2620SOL     OW 8539   1.628   3.242   9.398
 2620SOL    HW1 8540   1.588   3.327   9.381
 2620SOL    HW2 8541   1.559   3.178   9.379
 2621SOL     OW 8542   0.469   3.599   9.631
 2621SOL    HW1 8543   0.506   3.663   9.693
 2621SOL    HW2 8544   0.543   3.574   9.576
 2622SOL     OW 8545   1.398   1.970   9.739
 2622SOL    HW1 8546   1.382   1.946   9.648
 2622SOL    HW2 8547   1.492   1.957   9.751
 2623SOL     OW 8548   0.251   3.656  10.540
 2623SOL    HW1 8549   0.298   3.592  10.594
 2623SOL    HW2 8550   0.246   3.616  10.454
 2624SOL     OW 8551   0.937   3.560  10.212
 2624SOL    HW1 8552   1.015   3.508  10.231
 2624SOL    HW2 8553   0.892   3.512  10.143
 2625SOL     OW 8554   0.395   2.556   9.783
 2625SOL    HW1 8555   0.423   2.465   9.796
 2625SOL    HW2 8556   0.303   2.557   9.810
 2626SOL     OW 8557   1.538   2.086  11.035
 2626SOL    HW1 8558   1.550   2.108  11.127
 2626SOL    HW2 8559   1.469   2.021  11.034
 2627SOL     OW 8560   0.631   1.983   9.412
 2627SOL    HW1 8561   0.703   1.922   9.426
 2627SOL    HW2 8562   0.587   1.950   9.334
 2628SOL     OW 8563   0.767   2.139  11.063
 2628SOL    HW1 8564   0.842   2.079  11.067
 2628SOL    HW2 8565   0.718   2.122  11.143
 2629SOL     OW 8566   0.876   3.382  10.504
 2629SOL    HW1 8567   0.861   3.347  10.416
 2629SOL    HW2 8568   0.946   3.328  10.540
 2630SOL     OW 8569   1.342   2.450  10.742
 2630SOL    HW1 8570   1.372   2.419  10.827
 2630SOL    HW2 8571   1.377   2.539  10.735
 2631SOL     OW 8572   0.814   3.258  10.247
 2631SOL    HW1 8573   0.898   3.247  10.203
 2631SOL    HW2 8574   0.750   3.257  10.176
 2632SOL     OW 8575   0.927   2.371  10.214
 2632SOL    HW1 8576   0.905   2.363  10.121
 2632SOL    HW2 8577   0.960   2.285  10.238
 2633SOL     OW 8578   0.552   1.924   9.809
 2633SOL    HW1 8579   0.470   1.929   9.859
 2633SOL    HW2 8580   0.557   2.007   9.761
 2634SOL     OW 8581   1.428   3.060   9.351
 2634SOL    HW1 8582   1.459   2.984   9.401
 2634SOL    HW2 8583   1.342   3.080   9.388
 2635SOL     OW 8584   0.305   1.912   9.480
 2635SOL    HW1 8585   0.371   1.953   9.424
 2635SOL    HW2 8586   0.354   1.847   9.530
 2636SOL     OW 8587   0.937   2.106   9.773
 2636SOL    HW1 8588   0.906   2.149   9.693
 2636SOL    HW2 8589   1.032   2.122   9.773
 2637SOL     OW 8590   1.080   2.542  10.770
 2637SOL    HW1 8591   1.011   2.476  10.775
 2637SOL    HW2 8592   1.161   2.491  10.763
 2638SOL     OW 8593   1.224   3.431  10.103
 2638SOL    HW1 8594   1.241   3.500  10.039
 2638SOL    HW2 8595   1.292   3.444  10.170
 2639SOL     OW 8596   0.466   3.011  10.049
 2639SOL    HW1 8597   0.393   2.989  10.106
 2639SOL    HW2 8598   0.433   2.995   9.961
 2640SOL     OW 8599   1.269   3.659   9.915
 2640SOL    HW1 8600   1.314   3.722   9.859
 2640SOL    HW2 8601   1.200   3.708   9.958
 2641SOL     OW 8602   1.024   2.405   9.331
 2641SOL    HW1 8603   0.982   2.489   9.311
 2641SOL    HW2 8604   1.090   2.427   9.398
 2642SOL     OW 8605   0.079   2.432  10.700
 2642SOL    HW1 8606   0.169   2.419  10.669
 2642SOL    HW2 8607   0.087   2.501  10.766
 2643SOL     OW 8608   0.567   2.088  10.473
 2643SOL    HW1 8609   0.606   2.011  10.512
 2643SOL    HW2 8610   0.476   2.087  10.503
 2644SOL     OW 8611   0.869   2.321   9.950
 2644SOL    HW1 8612   0.820   2.374   9.887
 2644SOL    HW2 8613   0.888   2.240   9.903
 2645SOL     OW 8614   1.015   1.915  10.063
 2645SOL    HW1 8615   0.957   1.908   9.987
 2645SOL    HW2 8616   0.993   1.839  10.117
 2646SOL     OW 8617   1.436   3.025  10.167
 2646SOL    HW1 8618   1.368   2.958  10.166
 2646SOL    HW2 8619   1.460   3.037  10.075
 2647SOL     OW 8620   1.466   2.466  10.289
 2647SOL    HW1 8621   1.417   2.384  10.292
 2647SOL    HW2 8622   1.526   2.461  10.363
 2648SOL     OW 8623   1.846   2.679   9.693
 2648SOL    HW1 8624   1.904   2.628   9.750
 2648SOL    HW2 8625   1.818   2.617   9.626
 2649SOL     OW 8626   0.490   3.276   9.472
 2649SOL    HW1 8627   0.414   3.246   9.522
 2649SOL    HW2 8628   0.467   3.258   9.381
 2650SOL     OW 8629   1.669   3.127   9.957
 2650SOL    HW1 8630   1.764   3.131   9.970
 2650SOL    HW2 8631   1.638   3.215   9.978
 2651SOL     OW 8632   1.393   2.434   9.380
 2651SOL    HW1 8633   1.335   2.415   9.453
 2651SOL    HW2 8634   1.479   2.403   9.409
 2652SOL     OW 8635   0.573   2.131   9.634
 2652SOL    HW1 8636   0.597   2.080   9.556
 2652SOL    HW2 8637   0.539   2.214   9.600
 2653SOL     OW 8638   1.753   3.100  10.885
 2653SOL    HW1 8639   1.840   3.061  10.882
 2653SOL    HW2 8640   1.768   3.190  10.913
 2654SOL     OW 8641   1.059   3.215  10.643
 2654SOL    HW1 8642   0.985   3.184  10.695
 2654SOL    HW2 8643   1.135   3.174  10.685
 2655SOL     OW 8644   1.607   3.487  10.963
 2655SOL    HW1 8645   1.602   3.521  10.874
 2655SOL    HW2 8646   1.691   3.441  10.966
 2656SOL     OW 8647   1.127   3.064  10.416
 2656SOL    HW1 8648   1.069   3.102  10.482
 2656SOL    HW2 8649   1.093   3.096  10.332
 2657SOL     OW 8650   1.630   2.961  10.388
 2657SOL    HW1 8651   1.626   3.023  10.461
 2657SOL    HW2 8652   1.550   2.977  10.338
 2658SOL     OW 8653   0.918   1.959  10.708
 2658SOL    HW1 8654   0.941   1.941  10.616
 2658SOL    HW2 8655   0.997   1.999  10.744
 2659SOL     OW 8656   0.984   2.976  11.032
 2659SOL    HW1 8657   0.892   2.992  11.052
 2659SOL    HW2 8658   0.984   2.899  10.976
 2660SOL     OW 8659   0.707   2.922   9.681
 2660SOL    HW1 8660   0.694   2.907   9.775
 2660SOL    HW2 8661   0.784   2.869   9.659
 2661SOL     OW 8662   0.420   2.676  10.562
 2661SOL    HW1 8663   0.489   2.685  10.627
 2661SOL    HW2 8664   0.385   2.588  10.574
 2662SOL     OW 8665   1.266   2.239  10.585
 2662SOL    HW1 8666   1.299   2.316  10.630
 2662SOL    HW2 8667   1.176   2.261  10.560
 2663SOL     OW 8668   0.064   3.441  10.654
 2663SOL    HW1 8669   0.066   3.509  10.588
 2663SOL    HW2 8670   0.156   3.428  10.678
 2664SOL     OW 8671   0.375   2.964   9.796
 2664SOL    HW1 8672   0.368   3.042   9.741
 2664SOL    HW2 8673   0.373   2.891   9.734
 2665SOL     OW 8674   0.553   2.400  10.172
 2665SOL    HW1 8675   0.569   2.457  10.096
 2665SOL    HW2 8676   0.618   2.428  10.236
 2666SOL     OW 8677   1.248   3.210   9.699
 2666SOL    HW1 8678   1.304   3.282   9.730
 2666SOL    HW2 8679   1.161   3.231   9.733
 2667SOL     OW 8680   1.279   3.319  10.456
 2667SOL    HW1 8681   1.334   3.322  10.534
 2667SOL    HW2 8682   1.224   3.242  10.469
 2668SOL     OW 8683   1.579   2.488   9.782
 2668SOL    HW1 8684   1.536   2.540   9.850
 2668SOL    HW2 8685   1.628   2.551   9.730
 2669SOL     OW 8686   0.346   3.387  10.630
 2669SOL    HW1 8687   0.336   3.337  10.548
 2669SOL    HW2 8688   0.440   3.403  10.637
 2670SOL     OW 8689   0.412   2.603  10.911
 2670SOL    HW1 8690   0.473   2.649  10.854
 2670SOL    HW2 8691   0.454   2.518  10.927
 2671SOL     OW 8692   1.599   2.640  10.990
 2671SOL    HW1 8693   1.513   2.681  10.983
 2671SOL    HW2 8694   1.652   2.682  10.922
 2672SOL     OW 8695   0.996   1.983  11.066
 2672SOL    HW1 8696   1.050   2.056  11.036
 2672SOL    HW2 8697   1.045   1.905  11.040
 2673SOL     OW 8698   0.498   1.901  11.054
 2673SOL    HW1 8699   0.456   1.847  10.988
 2673SOL    HW2 8700   0.441   1.977  11.064
 2674SOL     OW 8701   0.584   2.735  10.341
 2674SOL    HW1 8702   0.614   2.825  10.339
 2674SOL    HW2 8703   0.528   2.730  10.419
 2675SOL     OW 8704   1.359   2.721  10.341
 2675SOL    HW1 8705   1.277   2.713  10.293
 2675SOL    HW2 8706   1.398   2.633  10.337
 2676SOL     OW 8707   1.206   2.391   9.578
 2676SOL    HW1 8708   1.213   2.313   9.633
 2676SOL    HW2 8709   1.163   2.456   9.634
 2677SOL     OW 8710   0.312   2.061  10.557
 2677SOL    HW1 8711   0.266   2.098  10.632
 2677SOL    HW2 8712   0.286   1.969  10.557
 2678SOL     OW 8713   0.056   3.166  10.590
 2678SOL    HW1 8714   0.090   3.128  10.671
 2678SOL    HW2 8715   0.050   3.260  10.608
 2679SOL     OW 8716   0.726   2.494  10.369
 2679SOL    HW1 8717   0.799   2.476  10.311
 2679SOL    HW2 8718   0.698   2.583  10.347
 2680SOL     OW 8719   1.734   2.822  11.161
 2680SOL    HW1 8720   1.688   2.761  11.103
 2680SOL    HW2 8721   1.674   2.834  11.235
 2681SOL     OW 8722   0.311   1.926   9.931
 2681SOL    HW1 8723   0.292   2.017   9.953
 2681SOL    HW2 8724   0.314   1.881  10.016
 2682SOL     OW 8725   1.611   2.238   9.682
 2682SOL    HW1 8726   1.622   2.183   9.760
 2682SOL    HW2 8727   1.588   2.324   9.717
 2683SOL     OW 8728   1.027   2.621  10.271
 2683SOL    HW1 8729   1.025   2.639  10.365
 2683SOL    HW2 8730   1.001   2.530  10.264
 2684SOL     OW 8731   0.985   3.429  11.027
 2684SOL    HW1 8732   0.967   3.472  10.943
 2684SOL    HW2 8733   1.026   3.346  11.003
 2685SOL     OW 8734   1.855   3.369  10.915
 2685SOL    HW1 8735   1.873   3.396  10.825
 2685SOL    HW2 8736   1.936   3.390  10.962
 2686SOL     OW 8737   0.351   2.782  11.112
 2686SOL    HW1 8738   0.430   2.802  11.161
 2686SOL    HW2 8739   0.379   2.716  11.048
 2687SOL     OW 8740   1.528   2.135   9.438
 2687SOL    HW1 8741   1.463   2.071   9.465
 2687SOL    HW2 8742   1.561   2.172   9.520
 2688SOL     OW 8743   1.293   2.689   9.342
 2688SOL    HW1 8744   1.335   2.603   9.345
 2688SOL    HW2 8745   1.324   2.728   9.260
 2689SOL     OW 8746   1.065   3.197  10.163
 2689SOL    HW1 8747   1.068   3.124  10.101
 2689SOL    HW2 8748   1.127   3.261  10.128
 2690SOL     OW 8749   0.314   2.668  10.261
 2690SOL    HW1 8750   0.408   2.686  10.254
 2690SOL    HW2 8751   0.309   2.578  10.294
 2691SOL     OW 8752   0.332   2.381  10.323
 2691SOL    HW1 8753   0.298   2.293  10.305
 2691SOL    HW2 8754   0.408   2.389  10.265
 2692SOL     OW 8755   1.134   2.239  10.991
 2692SOL    HW1 8756   1.088   2.294  11.054
 2692SOL    HW2 8757   1.223   2.276  10.987
 2693SOL     OW 8758   1.160   2.066  10.780
 2693SOL    HW1 8759   1.151   2.128  10.852
 2693SOL    HW2 8760   1.199   2.117  10.709
 2694SOL     OW 8761   3.999   3.183   9.492
 2694SOL    HW1 8762   3.905   3.199   9.496
 2694SOL    HW2 8763   0.009   3.090   9.512
 2695SOL     OW 8764   0.075   3.663  10.204
 2695SOL    HW1 8765   0.084   3.568  10.208
 2695SOL    HW2 8766   0.165   3.695  10.200
 2696SOL     OW 8767   0.507   3.428  10.223
 2696SOL    HW1 8768   0.574   3.493  10.245
 2696SOL    HW2 8769   0.551   3.367  10.164
 2697SOL     OW 8770   0.985   2.655  10.537
 2697SOL    HW1 8771   1.040   2.631  10.612
 2697SOL    HW2 8772   0.899   2.618  10.558
 2698SOL     OW 8773   0.037   2.415  10.420
 2698SOL    HW1 8774   0.119   2.390  10.378
 2698SOL    HW2 8775   0.057   2.413  10.514
 2699SOL     OW 8776   0.206   2.376  11.036
 2699SOL    HW1 8777   0.249   2.333  10.963
 2699SOL    HW2 8778   0.155   2.446  10.996
 2700SOL     OW 8779   1.376   2.802  10.969
 2700SOL    HW1 8780   1.397   2.896  10.967
 2700SOL    HW2 8781   1.374   2.777  10.877
 2701SOL     OW 8782   0.817   2.431   9.667
 2701SOL    HW1 8783   0.819   2.355   9.609
 2701SOL    HW2 8784   0.742   2.482   9.636
 2702SOL     OW 8785   1.644   2.464  10.497
 2702SOL    HW1 8786   1.632   2.407  10.573
 2702SOL    HW2 8787   1.730   2.440  10.462
 2703SOL     OW 8788   0.296   3.409  11.042
 2703SOL    HW1 8789   0.245   3.479  11.084
 2703SOL    HW2 8790   0.261   3.329  11.079
 2704SOL     OW 8791   0.698   2.315  10.571
 2704SOL    HW1 8792   0.648   2.239  10.539
 2704SOL    HW2 8793   0.696   2.377  10.499
 2705SOL     OW 8794   0.931   3.536  10.777
 2705SOL    HW1 8795   0.903   3.502  10.692
 2705SOL    HW2 8796   0.925   3.631  10.768
 2706SOL     OW 8797   0.461   2.353   9.502
 2706SOL    HW1 8798   0.525   2.422   9.521
 2706SOL    HW2 8799   0.380   2.400   9.484
 2707SOL     OW 8800   0.157   2.998  10.783
 2707SOL    HW1 8801   0.161   2.946  10.863
 2707SOL    HW2 8802   0.172   2.935  10.712
 2708SOL     OW 8803   1.328   2.910  10.534
 2708SOL    HW1 8804   1.351   2.847  10.466
 2708SOL    HW2 8805   1.256   2.961  10.495
 2709SOL     OW 8806   1.310   2.719   9.617
 2709SOL    HW1 8807   1.234   2.688   9.666
 2709SOL    HW2 8808   1.286   2.705   9.525
 2710SOL     OW 8809   1.767   3.608  10.457
 2710SOL    HW1 8810   1.830   3.634  10.390
 2710SOL    HW2 8811   1.747   3.517  10.436
 2711SOL     OW 8812   1.243   3.596  10.424
 2711SOL    HW1 8813   1.325   3.614  10.379
 2711SOL    HW2 8814   1.247   3.502  10.443
 2712SOL     OW 8815   0.075   3.079  10.337
 2712SOL    HW1 8816   0.082   3.105  10.429
 2712SOL    HW2 8817   3.982   3.086  10.317
 2713SOL     OW 8818   0.679   3.525  11.036
 2713SOL    HW1 8819   0.624   3.603  11.040
 2713SOL    HW2 8820   0.738   3.541  10.963
 2714SOL     OW 8821   1.390   3.431   9.794
 2714SOL    HW1 8822   1.450   3.463   9.727
 2714SOL    HW2 8823   1.343   3.509   9.823
 2715SOL     OW 8824   0.167   3.629  11.140
 2715SOL    HW1 8825   0.109   3.578  11.197
 2715SOL    HW2 8826   0.214   3.687  11.199
 2716SOL     OW 8827   1.278   2.787   9.981
 2716SOL    HW1 8828   1.351   2.725   9.986
 2716SOL    HW2 8829   1.311   2.860   9.929
 2717SOL     OW 8830   0.816   3.135  10.741
 2717SOL    HW1 8831   0.789   3.174  10.824
 2717SOL    HW2 8832   0.746   3.155  10.680
 2718SOL     OW 8833   0.675   3.476   9.467
 2718SOL    HW1 8834   0.681   3.491   9.372
 2718SOL    HW2 8835   0.618   3.399   9.474
 2719SOL     OW 8836   1.628   3.588  10.701
 2719SOL    HW1 8837   1.678   3.595  10.619
 2719SOL    HW2 8838   1.615   3.678  10.729
 2720SOL     OW 8839   0.269   2.177  10.028
 2720SOL    HW1 8840   0.184   2.213  10.001
 2720SOL    HW2 8841   0.262   2.166  10.123
 2721SOL     OW 8842   1.206   3.469   9.344
 2721SOL    HW1 8843   1.197   3.377   9.368
 2721SOL    HW2 8844   1.145   3.481   9.272
 2722SOL     OW 8845   0.824   2.868  10.682
 2722SOL    HW1 8846   0.868   2.864  10.597
 2722SOL    HW2 8847   0.824   2.960  10.705
 2723SOL     OW 8848   0.916   2.772   9.600
 2723SOL    HW1 8849   0.977   2.804   9.534
 2723SOL    HW2 8850   0.963   2.702   9.644
 2724SOL     OW 8851   1.492   3.488   9.352
 2724SOL    HW1 8852   1.398   3.480   9.337
 2724SOL    HW2 8853   1.529   3.494   9.264
 2725SOL     OW 8854   0.373   3.164  10.801
 2725SOL    HW1 8855   0.359   3.244  10.751
 2725SOL    HW2 8856   0.296   3.111  10.784
 2726SOL     OW 8857   1.611   3.145  10.591
 2726SOL    HW1 8858   1.671   3.136  10.665
 2726SOL    HW2 8859   1.551   3.214  10.617
 2727SOL     OW 8860   1.050   2.968  10.016
 2727SOL    HW1 8861   0.980   2.917  10.055
 2727SOL    HW2 8862   1.112   2.903   9.983
 2728SOL     OW 8863   1.020   2.102  10.276
 2728SOL    HW1 8864   1.016   2.054  10.193
 2728SOL    HW2 8865   1.015   2.034  10.343
 2729SOL     OW 8866   0.603   3.352   9.791
 2729SOL    HW1 8867   0.645   3.301   9.722
 2729SOL    HW2 8868   0.535   3.403   9.746
 2730SOL     OW 8869   1.724   2.249  10.684
 2730SOL    HW1 8870   1.796   2.312  10.692
 2730SOL    HW2 8871   1.759   2.181  10.626
 2731SOL     OW 8872   0.252   3.204   9.600
 2731SOL    HW1 8873   0.160   3.215   9.580
 2731SOL    HW2 8874   0.262   3.242   9.687
 2732SOL     OW 8875   0.105   2.862  11.028
 2732SOL    HW1 8876   0.044   2.851  11.101
 2732SOL    HW2 8877   0.191   2.842  11.066
 2733SOL     OW 8878   0.673   2.058  10.809
 2733SOL    HW1 8879   0.757   2.039  10.767
 2733SOL    HW2 8880   0.697   2.088  10.897
 2734SOL     OW 8881   0.080   2.182   9.347
 2734SOL    HW1 8882   3.985   2.181   9.351
 2734SOL    HW2 8883   0.101   2.262   9.298
 2735SOL     OW 8884   1.431   2.720  10.711
 2735SOL    HW1 8885   1.383   2.781  10.655
 2735SOL    HW2 8886   1.521   2.723  10.678
 2736SOL     OW 8887   0.025   2.083   9.677
 2736SOL    HW1 8888   0.046   2.150   9.613
 2736SOL    HW2 8889   0.110   2.049   9.705
 2737SOL     OW 8890   1.179   3.202   9.427
 2737SOL    HW1 8891   1.088   3.173   9.429
 2737SOL    HW2 8892   1.207   3.201   9.518
 2738SOL     OW 8893   0.618   2.693  10.744
 2738SOL    HW1 8894   0.674   2.769  10.729
 2738SOL    HW2 8895   0.679   2.620  10.752
 2739SOL     OW 8896   1.485   3.639  10.288
 2739SOL    HW1 8897   1.511   3.693  10.214
 2739SOL    HW2 8898   1.568   3.619  10.333
 2740SOL     OW 8899   0.716   2.427  11.016
 2740SOL    HW1 8900   0.756   2.490  11.075
 2740SOL    HW2 8901   0.749   2.342  11.046
 2741SOL     OW 8902   1.470   3.064  10.942
 2741SOL    HW1 8903   1.458   3.077  11.036
 2741SOL    HW2 8904   1.564   3.077  10.928
 2742SOL     OW 8905   0.380   3.604  10.869
 2742SOL    HW1 8906   0.292   3.640  10.856
 2742SOL    HW2 8907   0.365   3.523  10.917
 2743SOL     OW 8908   1.671   2.744  10.565
 2743SOL    HW1 8909   1.663   2.659  10.522
 2743SOL    HW2 8910   1.661   2.807  10.494
 2744SOL     OW 8911   1.217   2.182   9.768
 2744SOL    HW1 8912   1.280   2.111   9.759
 2744SOL    HW2 8913   1.245   2.231   9.845
 2745SOL     OW 8914   0.591   2.602   9.979
 2745SOL    HW1 8915   0.629   2.688   9.963
 2745SOL    HW2 8916   0.522   2.593   9.913
 2746SOL     OW 8917   1.760   2.240  10.959
 2746SOL    HW1 8918   1.743   2.241  10.864
 2746SOL    HW2 8919   1.700   2.173  10.993
 2747SOL     OW 8920   1.743   2.797  10.822
 2747SOL    HW1 8921   1.743   2.892  10.835
 2747SOL    HW2 8922   1.729   2.785  10.728
 2748SOL     OW 8923   0.864   3.230   9.343
 2748SOL    HW1 8924   0.822   3.258   9.425
 2748SOL    HW2 8925   0.881   3.311   9.296
 2749SOL     OW 8926   0.658   3.654  10.252
 2749SOL    HW1 8927   0.635   3.744  10.231
 2749SOL    HW2 8928   0.754   3.651  10.248
 2750SOL     OW 8929   0.867   2.827  10.165
 2750SOL    HW1 8930   0.917   2.757  10.205
 2750SOL    HW2 8931   0.833   2.878  10.239
 2751SOL     OW 8932   1.079   2.849   9.398
 2751SOL    HW1 8933   1.058   2.900   9.320
 2751SOL    HW2 8934   1.155   2.797   9.373
 2752SOL     OW 8935   1.855   3.416  10.153
 2752SOL    HW1 8936   1.776   3.405  10.100
 2752SOL    HW2 8937   1.846   3.351  10.223
 2753SOL     OW 8938   0.223   3.166  11.165
 2753SOL    HW1 8939   0.152   3.106  11.140
 2753SOL    HW2 8940   0.211   3.179  11.259
 2754SOL     OW 8941   0.110   3.135  10.026
 2754SOL    HW1 8942   0.120   3.084  10.106
 2754SOL    HW2 8943   0.111   3.069   9.956
 2755SOL     OW 8944   0.680   3.263  10.938
 2755SOL    HW1 8945   0.599   3.221  10.967
 2755SOL    HW2 8946   0.676   3.352  10.974
 2756SOL     OW 8947   0.441   2.296   9.842
 2756SOL    HW1 8948   0.444   2.226   9.777
 2756SOL    HW2 8949   0.386   2.261   9.912
 2757SOL     OW 8950   1.701   3.351  10.407
 2757SOL    HW1 8951   1.620   3.327  10.364
 2757SOL    HW2 8952   1.715   3.284  10.473
 2758SOL     OW 8953   0.331   2.416  10.601
 2758SOL    HW1 8954   0.387   2.360  10.655
 2758SOL    HW2 8955   0.348   2.386  10.511
 2759SOL     OW 8956   0.826   3.441   9.988
 2759SOL    HW1 8957   0.817   3.487   9.905
 2759SOL    HW2 8958   0.749   3.383   9.992
 2760SOL     OW 8959   1.437   2.089  10.429
 2760SOL    HW1 8960   1.453   2.004  10.470
 2760SOL    HW2 8961   1.382   2.136  10.492
 2761SOL     OW 8962   1.009   1.881  10.454
 2761SOL    HW1 8963   0.955   1.813  10.414
 2761SOL    HW2 8964   1.097   1.844  10.456
 2762SOL     OW 8965   0.771   3.194   9.624
 2762SOL    HW1 8966   0.738   3.104   9.629
 2762SOL    HW2 8967   0.854   3.192   9.671
 2763SOL     OW 8968   0.620   3.418  10.594
 2763SOL    HW1 8969   0.622   3.500  10.645
 2763SOL    HW2 8970   0.707   3.411  10.556
 2764SOL     OW 8971   1.351   1.914   9.475
 2764SOL    HW1 8972   1.378   1.856   9.404
 2764SOL    HW2 8973   1.264   1.883   9.500
 2765SOL     OW 8974   1.298   2.322   9.992
 2765SOL    HW1 8975   1.244   2.401   9.999
 2765SOL    HW2 8976   1.294   2.282  10.079
 2766SOL     OW 8977   1.574   2.059  10.180
 2766SOL    HW1 8978   1.531   2.082  10.263
 2766SOL    HW2 8979   1.589   2.143  10.137
 2767SOL     OW 8980   0.045   2.914   9.550
 2767SOL    HW1 8981   0.139   2.898   9.541
 2767SOL    HW2 8982   0.010   2.835   9.589
 2768SOL     OW 8983   0.882   3.515   9.656
 2768SOL    HW1 8984   0.813   3.496   9.593
 2768SOL    HW2 8985   0.851   3.592   9.703
 2769SOL     OW 8986   0.231   2.483  11.293
 2769SOL    HW1 8987   0.138   2.493  11.313
 2769SOL    HW2 8988   0.233   2.455  11.202
 2770SOL     OW 8989   0.228   2.132  12.159
 2770SOL    HW1 8990   0.249   2.102  12.247
 2770SOL    HW2 8991   0.133   2.123  12.152
 2771SOL     OW 8992   0.012   2.226  11.805
 2771SOL    HW1 8993   3.926   2.244  11.843
 2771SOL    HW2 8994   3.993   2.188  11.720
 2772SOL     OW 8995   0.576   3.143  12.354
 2772SOL    HW1 8996   0.489   3.149  12.313
 2772SOL    HW2 8997   0.591   3.231  12.388
 2773SOL     OW 8998   1.559   3.373  11.879
 2773SOL    HW1 8999   1.516   3.353  11.962
 2773SOL    HW2 9000   1.487   3.377  11.815
 2774SOL     OW 9001   1.130   2.560  11.874
 2774SOL    HW1 9002   1.179   2.641  11.860
 2774SOL    HW2 9003   1.083   2.575  11.957
 2775SOL     OW 9004   1.768   2.469  11.401
 2775SOL    HW1 9005   1.746   2.462  11.308
 2775SOL    HW2 9006   1.734   2.388  11.440
 2776SOL     OW 9007   0.758   3.004  12.210
 2776SOL    HW1 9008   0.691   3.038  12.269
 2776SOL    HW2 9009   0.792   3.082  12.166
 2777SOL     OW 9010   0.863   2.640  12.993
 2777SOL    HW1 9011   0.855   2.712  13.056
 2777SOL    HW2 9012   0.888   2.683  12.911
 2778SOL     OW 9013   0.686   2.867  11.820
 2778SOL    HW1 9014   0.751   2.854  11.889
 2778SOL    HW2 9015   0.616   2.918  11.862
 2779SOL     OW 9016   0.709   3.013  12.983
 2779SOL    HW1 9017   0.757   3.091  13.009
 2779SOL    HW2 9018   0.626   3.045  12.949
 2780SOL     OW 9019   0.351   3.265  12.250
 2780SOL    HW1 9020   0.268   3.251  12.204
 2780SOL    HW2 9021   0.400   3.325  12.194
 2781SOL     OW 9022   1.461   3.361  12.524
 2781SOL    HW1 9023   1.510   3.443  12.534
 2781SOL    HW2 9024   1.402   3.358  12.599
 2782SOL     OW 9025   0.450   2.263  12.664
 2782SOL    HW1 9026   0.524   2.203  12.666
 2782SOL    HW2 9027   0.373   2.207  12.674
 2783SOL     OW 9028   1.607   2.310  11.911
 2783SOL    HW1 9029   1.527   2.335  11.864
 2783SOL    HW2 9030   1.627   2.387  11.966
 2784SOL     OW 9031   0.226   3.572  11.639
 2784SOL    HW1 9032   0.233   3.651  11.692
 2784SOL    HW2 9033   0.302   3.575  11.581
 2785SOL     OW 9034   1.136   3.203  12.864
 2785SOL    HW1 9035   1.176   3.199  12.951
 2785SOL    HW2 9036   1.083   3.123  12.858
 2786SOL     OW 9037   0.245   3.305  11.711
 2786SOL    HW1 9038   0.219   3.396  11.699
 2786SOL    HW2 9039   0.176   3.267  11.765
 2787SOL     OW 9040   0.246   2.932  12.056
 2787SOL    HW1 9041   0.264   2.849  12.099
 2787SOL    HW2 9042   0.194   2.981  12.120
 2788SOL     OW 9043   0.614   3.649  12.602
 2788SOL    HW1 9044   0.531   3.634  12.648
 2788SOL    HW2 9045   0.639   3.738  12.627
 2789SOL     OW 9046   0.583   2.845  11.307
 2789SOL    HW1 9047   0.628   2.893  11.238
 2789SOL    HW2 9048   0.626   2.873  11.388
 2790SOL     OW 9049   1.590   1.988  12.638
 2790SOL    HW1 9050   1.581   2.071  12.591
 2790SOL    HW2 9051   1.584   2.011  12.731
 2791SOL     OW 9052   0.140   2.509  11.746
 2791SOL    HW1 9053   0.085   2.431  11.747
 2791SOL    HW2 9054   0.104   2.565  11.815
 2792SOL     OW 9055   1.841   3.615  11.510
 2792SOL    HW1 9056   1.905   3.590  11.576
 2792SOL    HW2 9057   1.865   3.705  11.487
 2793SOL     OW 9058   0.041   3.455  11.312
 2793SOL    HW1 9059   0.031   3.362  11.333
 2793SOL    HW2 9060   3.964   3.497  11.350
 2794SOL     OW 9061   1.689   2.781  11.811
 2794SOL    HW1 9062   1.773   2.739  11.791
 2794SOL    HW2 9063   1.668   2.831  11.732
 2795SOL     OW 9064   1.645   2.969  11.601
 2795SOL    HW1 9065   1.731   2.976  11.559
 2795SOL    HW2 9066   1.650   3.030  11.675
 2796SOL     OW 9067   0.133   2.613  12.763
 2796SOL    HW1 9068   0.229   2.607  12.767
 2796SOL    HW2 9069   0.114   2.705  12.779
 2797SOL     OW 9070   0.613   3.246  11.906
 2797SOL    HW1 9071   0.566   3.163  11.916
 2797SOL    HW2 9072   0.596   3.272  11.816
 2798SOL     OW 9073   1.289   3.100  12.596
 2798SOL    HW1 9074   1.322   3.033  12.536
 2798SOL    HW2 9075   1.346   3.094  12.673
 2799SOL     OW 9076   0.815   1.861  11.679
 2799SOL    HW1 9077   0.855   1.946  11.662
 2799SOL    HW2 9078   0.721   1.879  11.688
 2800SOL     OW 9079   0.186   2.817  12.448
 2800SOL    HW1 9080   0.274   2.782  12.433
 2800SOL    HW2 9081   0.131   2.772  12.384
 2801SOL     OW 9082   1.532   2.855  11.369
 2801SOL    HW1 9083   1.462   2.797  11.400
 2801SOL    HW2 9084   1.572   2.889  11.449
 2802SOL     OW 9085   1.208   3.664  12.797
 2802SOL    HW1 9086   1.195   3.723  12.723
 2802SOL    HW2 9087   1.212   3.577  12.757
 2803SOL     OW 9088   0.337   2.109  12.984
 2803SOL    HW1 9089   0.379   2.195  12.991
 2803SOL    HW2 9090   0.246   2.125  13.010
 2804SOL     OW 9091   1.465   3.282  12.124
 2804SOL    HW1 9092   1.397   3.296  12.190
 2804SOL    HW2 9093   1.454   3.191  12.097
 2805SOL     OW 9094   1.657   3.597  11.751
 2805SOL    HW1 9095   1.640   3.568  11.662
 2805SOL    HW2 9096   1.633   3.523  11.806
 2806SOL     OW 9097   0.596   2.582  11.435
 2806SOL    HW1 9098   0.604   2.664  11.387
 2806SOL    HW2 9099   0.533   2.600  11.505
 2807SOL     OW 9100   1.279   2.215  12.105
 2807SOL    HW1 9101   1.190   2.179  12.114
 2807SOL    HW2 9102   1.332   2.160  12.163
 2808SOL     OW 9103   1.579   3.535  11.480
 2808SOL    HW1 9104   1.670   3.563  11.475
 2808SOL    HW2 9105   1.555   3.515  11.389
 2809SOL     OW 9106   0.792   2.479  12.625
 2809SOL    HW1 9107   0.765   2.456  12.713
 2809SOL    HW2 9108   0.751   2.413  12.569
 2810SOL     OW 9109   1.394   2.335  12.849
 2810SOL    HW1 9110   1.395   2.380  12.933
 2810SOL    HW2 9111   1.459   2.265  12.858
 2811SOL     OW 9112   0.956   2.750  12.754
 2811SOL    HW1 9113   1.010   2.679  12.719
 2811SOL    HW2 9114   0.908   2.783  12.678
 2812SOL     OW 9115   0.992   2.275  12.411
 2812SOL    HW1 9116   0.908   2.297  12.450
 2812SOL    HW2 9117   0.970   2.228  12.331
 2813SOL     OW 9118   1.050   2.561  11.598
 2813SOL    HW1 9119   1.065   2.554  11.693
 2813SOL    HW2 9120   0.968   2.513  11.583
 2814SOL     OW 9121   0.082   2.686  11.962
 2814SOL    HW1 9122   0.162   2.658  12.007
 2814SOL    HW2 9123   0.090   2.781  11.955
 2815SOL     OW 9124   0.128   3.711  12.746
 2815SOL    HW1 9125   0.134   3.681  12.837
 2815SOL    HW2 9126   0.035   3.700  12.723
 2816SOL     OW 9127   0.890   2.210  11.364
 2816SOL    HW1 9128   0.933   2.271  11.304
 2816SOL    HW2 9129   0.910   2.123  11.328
 2817SOL     OW 9130   1.707   2.439  13.003
 2817SOL    HW1 9131   1.671   2.510  12.950
 2817SOL    HW2 9132   1.737   2.375  12.939
 2818SOL     OW 9133   1.376   3.004  11.714
 2818SOL    HW1 9134   1.455   2.991  11.661
 2818SOL    HW2 9135   1.323   3.066  11.663
 2819SOL     OW 9136   0.546   2.043  12.064
 2819SOL    HW1 9137   0.552   2.073  12.155
 2819SOL    HW2 9138   0.548   2.123  12.012
 2820SOL     OW 9139   1.007   3.308  11.645
 2820SOL    HW1 9140   0.967   3.380  11.596
 2820SOL    HW2 9141   0.991   3.329  11.737
 2821SOL     OW 9142   0.358   3.668  12.029
 2821SOL    HW1 9143   0.433   3.609  12.038
 2821SOL    HW2 9144   0.395   3.756  12.038
 2822SOL     OW 9145   1.799   2.919  12.039
 2822SOL    HW1 9146   1.743   2.903  11.963
 2822SOL    HW2 9147   1.738   2.925  12.113
 2823SOL     OW 9148   1.228   3.399  12.683
 2823SOL    HW1 9149   1.213   3.327  12.744
 2823SOL    HW2 9150   1.164   3.385  12.614
 2824SOL     OW 9151   0.311   2.817  11.414
 2824SOL    HW1 9152   0.395   2.841  11.376
 2824SOL    HW2 9153   0.296   2.727  11.387
 2825SOL     OW 9154   1.478   2.602  11.899
 2825SOL    HW1 9155   1.467   2.559  11.984
 2825SOL    HW2 9156   1.554   2.658  11.910
 2826SOL     OW 9157   0.465   3.121  12.909
 2826SOL    HW1 9158   0.438   3.130  12.817
 2826SOL    HW2 9159   0.383   3.127  12.958
 2827SOL     OW 9160   1.113   3.642  11.396
 2827SOL    HW1 9161   1.051   3.594  11.452
 2827SOL    HW2 9162   1.142   3.578  11.331
 2828SOL     OW 9163   0.204   2.144  12.679
 2828SOL    HW1 9164   0.114   2.174  12.668
 2828SOL    HW2 9165   0.195   2.061  12.727
 2829SOL     OW 9166   1.628   3.242  11.260
 2829SOL    HW1 9167   1.588   3.327  11.243
 2829SOL    HW2 9168   1.559   3.178  11.241
 2830SOL     OW 9169   0.469   3.599  11.493
 2830SOL    HW1 9170   0.506   3.663  11.555
 2830SOL    HW2 9171   0.543   3.574  11.438
 2831SOL     OW 9172   1.398   1.970  11.601
 2831SOL    HW1 9173   1.382   1.946  11.510
 2831SOL    HW2 9174   1.492   1.957  11.613
 2832SOL     OW 9175   0.251   3.656  12.402
 2832SOL    HW1 9176   0.298   3.592  12.456
 2832SOL    HW2 9177   0.246   3.616  12.316
 2833SOL     OW 9178   0.937   3.560  12.074
 2833SOL    HW1 9179   1.015   3.508  12.094
 2833SOL    HW2 9180   0.892   3.512  12.005
 2834SOL     OW 9181   0.395   2.556  11.645
 2834SOL    HW1 9182   0.423   2.465  11.658
 2834SOL    HW2 9183   0.303   2.557  11.672
 2835SOL     OW 9184   1.538   2.086  12.897
 2835SOL    HW1 9185   1.550   2.109  12.989
 2835SOL    HW2 9186   1.468   2.021  12.896
 2836SOL     OW 9187   0.631   1.983  11.274
 2836SOL    HW1 9188   0.703   1.922  11.289
 2836SOL    HW2 9189   0.587   1.950  11.196
 2837SOL     OW 9190   0.767   2.138  12.924
 2837SOL    HW1 9191   0.842   2.079  12.929
 2837SOL    HW2 9192   0.719   2.123  13.006
 2838SOL     OW 9193   0.876   3.382  12.366
 2838SOL    HW1 9194   0.861   3.347  12.278
 2838SOL    HW2 9195   0.946   3.328  12.402
 2839SOL     OW 9196   1.342   2.450  12.604
 2839SOL    HW1 9197   1.372   2.419  12.689
 2839SOL    HW2 9198   1.377   2.539  12.597
 2840SOL     OW 9199   0.814   3.258  12.109
 2840SOL    HW1 9200   0.899   3.247  12.065
 2840SOL    HW2 9201   0.750   3.257  12.038
 2841SOL     OW 9202   0.927   2.371  12.076
 2841SOL    HW1 9203   0.905   2.363  11.983
 2841SOL    HW2 9204   0.960   2.285  12.100
 2842SOL     OW 9205   0.552   1.924  11.671
 2842SOL    HW1 9206   0.470   1.929  11.721
 2842SOL    HW2 9207   0.557   2.007  11.623
 2843SOL     OW 9208   1.428   3.060  11.213
 2843SOL    HW1 9209   1.459   2.984  11.263
 2843SOL    HW2 9210   1.342   3.080  11.250
 2844SOL     OW 9211   0.305   1.912  11.342
 2844SOL    HW1 9212   0.371   1.953  11.286
 2844SOL    HW2 9213   0.353   1.847  11.393
 2845SOL     OW 9214   0.937   2.106  11.635
 2845SOL    HW1 9215   0.906   2.149  11.555
 2845SOL    HW2 9216   1.032   2.122  11.635
 2846SOL     OW 9217   1.080   2.542  12.631
 2846SOL    HW1 9218   1.011   2.476  12.637
 2846SOL    HW2 9219   1.161   2.491  12.625
 2847SOL     OW 9220   1.224   3.431  11.965
 2847SOL    HW1 9221   1.241   3.500  11.901
 2847SOL    HW2 9222   1.292   3.444  12.032
 2848SOL     OW 9223   0.466   3.011  11.911
 2848SOL    HW1 9224   0.393   2.989  11.969
 2848SOL    HW2 9225   0.433   2.995  11.823
 2849SOL     OW 9226   1.269   3.659  11.777
 2849SOL    HW1 9227   1.314   3.722  11.721
 2849SOL    HW2 9228   1.200   3.708  11.820
 2850SOL     OW 9229   1.025   2.405  11.193
 2850SOL    HW1 9230   0.983   2.489  11.173
 2850SOL    HW2 9231   1.090   2.427  11.260
 2851SOL     OW 9232   0.079   2.432  12.562
 2851SOL    HW1 9233   0.169   2.419  12.531
 2851SOL    HW2 9234   0.087   2.501  12.628
 2852SOL     OW 9235   0.567   2.088  12.335
 2852SOL    HW1 9236   0.606   2.011  12.374
 2852SOL    HW2 9237   0.476   2.087  12.365
 2853SOL     OW 9238   0.869   2.321  11.812
 2853SOL    HW1 9239   0.820   2.374  11.749
 2853SOL    HW2 9240   0.888   2.240  11.765
 2854SOL     OW 9241   1.015   1.915  11.925
 2854SOL    HW1 9242   0.957   1.908  11.849
 2854SOL    HW2 9243   0.993   1.839  11.979
 2855SOL     OW 9244   1.436   3.025  12.029
 2855SOL    HW1 9245   1.368   2.958  12.029
 2855SOL    HW2 9246   1.460   3.037  11.937
 2856SOL     OW 9247   1.466   2.466  12.151
 2856SOL    HW1 9248   1.417   2.384  12.154
 2856SOL    HW2 9249   1.527   2.461  12.225
 2857SOL     OW 9250   1.846   2.679  11.555
 2857SOL    HW1 9251   1.903   2.628  11.612
 2857SOL    HW2 9252   1.818   2.617  11.488
 2858SOL     OW 9253   0.490   3.276  11.334
 2858SOL    HW1 9254   0.414   3.246  11.384
 2858SOL    HW2 9255   0.467   3.258  11.243
 2859SOL     OW 9256   1.669   3.127  11.819
 2859SOL    HW1 9257   1.764   3.131  11.832
 2859SOL    HW2 9258   1.638   3.215  11.840
 2860SOL     OW 9259   1.393   2.434  11.242
 2860SOL    HW1 9260   1.335   2.414  11.315
 2860SOL    HW2 9261   1.479   2.403  11.271
 2861SOL     OW 9262   0.573   2.131  11.496
 2861SOL    HW1 9263   0.597   2.080  11.418
 2861SOL    HW2 9264   0.539   2.214  11.462
 2862SOL     OW 9265   1.753   3.100  12.746
 2862SOL    HW1 9266   1.840   3.061  12.744
 2862SOL    HW2 9267   1.768   3.190  12.775
 2863SOL     OW 9268   1.059   3.215  12.505
 2863SOL    HW1 9269   0.985   3.184  12.557
 2863SOL    HW2 9270   1.135   3.174  12.547
 2864SOL     OW 9271   1.607   3.487  12.825
 2864SOL    HW1 9272   1.602   3.521  12.736
 2864SOL    HW2 9273   1.691   3.441  12.829
 2865SOL     OW 9274   1.127   3.064  12.278
 2865SOL    HW1 9275   1.069   3.102  12.344
 2865SOL    HW2 9276   1.093   3.096  12.194
 2866SOL     OW 9277   1.630   2.961  12.250
 2866SOL    HW1 9278   1.626   3.023  12.323
 2866SOL    HW2 9279   1.550   2.977  12.200
 2867SOL     OW 9280   0.918   1.959  12.569
 2867SOL    HW1 9281   0.941   1.941  12.478
 2867SOL    HW2 9282   0.997   1.999  12.606
 2868SOL     OW 9283   0.984   2.977  12.894
 2868SOL    HW1 9284   0.892   2.992  12.914
 2868SOL    HW2 9285   0.984   2.899  12.838
 2869SOL     OW 9286   0.707   2.922  11.543
 2869SOL    HW1 9287   0.694   2.907  11.637
 2869SOL    HW2 9288   0.784   2.869  11.521
 2870SOL     OW 9289   0.420   2.676  12.424
 2870SOL    HW1 9290   0.489   2.685  12.489
 2870SOL    HW2 9291   0.385   2.588  12.436
 2871SOL     OW 9292   1.266   2.239  12.447
 2871SOL    HW1 9293   1.299   2.316  12.492
 2871SOL    HW2 9294   1.176   2.261  12.422
 2872SOL     OW 9295   0.064   3.441  12.516
 2872SOL    HW1 9296   0.066   3.509  12.449
 2872SOL    HW2 9297   0.156   3.428  12.540
 2873SOL     OW 9298   0.375   2.964  11.658
 2873SOL    HW1 9299   0.368   3.042  11.603
 2873SOL    HW2 9300   0.373   2.891  11.596
 2874SOL     OW 9301   0.553   2.400  12.034
 2874SOL    HW1 9302   0.569   2.457  11.958
 2874SOL    HW2 9303   0.618   2.428  12.098
 2875SOL     OW 9304   1.248   3.210  11.561
 2875SOL    HW1 9305   1.304   3.282  11.592
 2875SOL    HW2 9306   1.161   3.231  11.595
 2876SOL     OW 9307   1.279   3.319  12.318
 2876SOL    HW1 9308   1.334   3.322  12.396
 2876SOL    HW2 9309   1.224   3.242  12.331
 2877SOL     OW 9310   1.579   2.488  11.644
 2877SOL    HW1 9311   1.536   2.540  11.712
 2877SOL    HW2 9312   1.628   2.551  11.592
 2878SOL     OW 9313   0.346   3.387  12.492
 2878SOL    HW1 9314   0.336   3.337  12.410
 2878SOL    HW2 9315   0.440   3.403  12.499
 2879SOL     OW 9316   0.412   2.603  12.773
 2879SOL    HW1 9317   0.473   2.649  12.716
 2879SOL    HW2 9318   0.454   2.518  12.789
 2880SOL     OW 9319   1.599   2.640  12.852
 2880SOL    HW1 9320   1.513   2.681  12.845
 2880SOL    HW2 9321   1.652   2.682  12.784
 2881SOL     OW 9322   0.996   1.983  12.928
 2881SOL    HW1 9323   1.050   2.056  12.898
 2881SOL    HW2 9324   1.045   1.905  12.902
 2882SOL     OW 9325   0.498   1.901  12.916
 2882SOL    HW1 9326   0.456   1.847  12.849
 2882SOL    HW2 9327   0.441   1.977  12.926
 2883SOL     OW 9328   0.584   2.735  12.203
 2883SOL    HW1 9329   0.615   2.825  12.201
 2883SOL    HW2 9330   0.528   2.730  12.281
 2884SOL     OW 9331   1.359   2.721  12.203
 2884SOL    HW1 9332   1.277   2.713  12.155
 2884SOL    HW2 9333   1.398   2.633  12.199
 2885SOL     OW 9334   1.206   2.391  11.440
 2885SOL    HW1 9335   1.213   2.313  11.495
 2885SOL    HW2 9336   1.163   2.456  11.496
 2886SOL     OW 9337   0.312   2.061  12.419
 2886SOL    HW1 9338   0.266   2.098  12.494
 2886SOL    HW2 9339   0.286   1.969  12.419
 2887SOL     OW 9340   0.057   3.166  12.452
 2887SOL    HW1 9341   0.090   3.128  12.533
 2887SOL    HW2 9342   0.050   3.260  12.470
 2888SOL     OW 9343   0.726   2.494  12.231
 2888SOL    HW1 9344   0.799   2.476  12.173
 2888SOL    HW2 9345   0.698   2.583  12.209
 2889SOL     OW 9346   1.733   2.822  13.023
 2889SOL    HW1 9347   1.687   2.761  12.966
 2889SOL    HW2 9348   1.674   2.834  13.097
 2890SOL     OW 9349   0.311   1.926  11.793
 2890SOL    HW1 9350   0.292   2.017  11.815
 2890SOL    HW2 9351   0.314   1.881  11.878
 2891SOL     OW 9352   1.610   2.238  11.544
 2891SOL    HW1 9353   1.622   2.183  11.622
 2891SOL    HW2 9354   1.588   2.324  11.579
 2892SOL     OW 9355   1.027   2.621  12.133
 2892SOL    HW1 9356   1.025   2.639  12.227
 2892SOL    HW2 9357   1.001   2.530  12.126
 2893SOL     OW 9358   0.984   3.429  12.889
 2893SOL    HW1 9359   0.967   3.472  12.805
 2893SOL    HW2 9360   1.026   3.346  12.865
 2894SOL     OW 9361   1.855   3.369  12.777
 2894SOL    HW1 9362   1.873   3.396  12.687
 2894SOL    HW2 9363   1.936   3.390  12.825
 2895SOL     OW 9364   0.351   2.781  12.975
 2895SOL    HW1 9365   0.431   2.802  13.023
 2895SOL    HW2 9366   0.379   2.716  12.910
 2896SOL     OW 9367   1.528   2.135  11.300
 2896SOL    HW1 9368   1.463   2.070  11.327
 2896SOL    HW2 9369   1.561   2.172  11.382
 2897SOL     OW 9370   1.293   2.689  11.204
 2897SOL    HW1 9371   1.335   2.603  11.207
 2897SOL    HW2 9372   1.324   2.728  11.122
 2898SOL     OW 9373   1.065   3.197  12.025
 2898SOL    HW1 9374   1.068   3.124  11.963
 2898SOL    HW2 9375   1.127   3.261  11.990
 2899SOL     OW 9376   0.314   2.668  12.123
 2899SOL    HW1 9377   0.408   2.686  12.116
 2899SOL    HW2 9378   0.309   2.578  12.156
 2900SOL     OW 9379   0.332   2.381  12.185
 2900SOL    HW1 9380   0.298   2.293  12.167
 2900SOL    HW2 9381   0.408   2.389  12.127
 2901SOL     OW 9382   1.134   2.239  12.853
 2901SOL    HW1 9383   1.088   2.294  12.916
 2901SOL    HW2 9384   1.223   2.276  12.849
 2902SOL     OW 9385   1.160   2.066  12.642
 2902SOL    HW1 9386   1.150   2.128  12.714
 2902SOL    HW2 9387   1.199   2.117  12.571
 2903SOL     OW 9388   3.999   3.183  11.354
 2903SOL    HW1 9389   3.905   3.199  11.358
 2903SOL    HW2 9390   0.009   3.090  11.374
 2904SOL     OW 9391   0.075   3.663  12.066
 2904SOL    HW1 9392   0.084   3.568  12.071
 2904SOL    HW2 9393   0.165   3.695  12.062
 2905SOL     OW 9394   0.507   3.428  12.085
 2905SOL    HW1 9395   0.574   3.493  12.107
 2905SOL    HW2 9396   0.551   3.367  12.026
 2906SOL     OW 9397   0.985   2.655  12.399
 2906SOL    HW1 9398   1.040   2.631  12.474
 2906SOL    HW2 9399   0.899   2.618  12.420
 2907SOL     OW 9400   0.037   2.415  12.282
 2907SOL    HW1 9401   0.119   2.390  12.240
 2907SOL    HW2 9402   0.057   2.413  12.376
 2908SOL     OW 9403   0.206   2.376  12.899
 2908SOL    HW1 9404   0.250   2.333  12.825
 2908SOL    HW2 9405   0.155   2.446  12.859
 2909SOL     OW 9406   1.376   2.802  12.831
 2909SOL    HW1 9407   1.398   2.896  12.830
 2909SOL    HW2 9408   1.374   2.777  12.738
 2910SOL     OW 9409   0.817   2.431  11.529
 2910SOL    HW1 9410   0.819   2.355  11.471
 2910SOL    HW2 9411   0.742   2.482  11.498
 2911SOL     OW 9412   1.644   2.464  12.359
 2911SOL    HW1 9413   1.632   2.407  12.435
 2911SOL    HW2 9414   1.730   2.440  12.324
 2912SOL     OW 9415   0.295   3.410  12.904
 2912SOL    HW1 9416   0.244   3.479  12.946
 2912SOL    HW2 9417   0.261   3.329  12.941
 2913SOL     OW 9418   0.698   2.315  12.433
 2913SOL    HW1 9419   0.648   2.239  12.401
 2913SOL    HW2 9420   0.696   2.377  12.361
 2914SOL     OW 9421   0.931   3.536  12.639
 2914SOL    HW1 9422   0.903   3.502  12.554
 2914SOL    HW2 9423   0.925   3.631  12.630
 2915SOL     OW 9424   0.461   2.353  11.364
 2915SOL    HW1 9425   0.525   2.422  11.383
 2915SOL    HW2 9426   0.380   2.400  11.346
 2916SOL     OW 9427   0.157   2.998  12.645
 2916SOL    HW1 9428   0.161   2.946  12.725
 2916SOL    HW2 9429   0.172   2.935  12.574
 2917SOL     OW 9430   1.328   2.910  12.396
 2917SOL    HW1 9431   1.351   2.847  12.328
 2917SOL    HW2 9432   1.256   2.961  12.357
 2918SOL     OW 9433   1.310   2.719  11.479
 2918SOL    HW1 9434   1.234   2.688  11.528
 2918SOL    HW2 9435   1.286   2.705  11.387
 2919SOL     OW 9436   1.767   3.608  12.319
 2919SOL    HW1 9437   1.830   3.634  12.252
 2919SOL    HW2 9438   1.747   3.517  12.298
 2920SOL     OW 9439   1.243   3.596  12.286
 2920SOL    HW1 9440   1.325   3.614  12.241
 2920SOL    HW2 9441   1.247   3.502  12.305
 2921SOL     OW 9442   0.075   3.079  12.199
 2921SOL    HW1 9443   0.082   3.105  12.291
 2921SOL    HW2 9444   3.982   3.086  12.179
 2922SOL     OW 9445   0.679   3.525  12.898
 2922SOL    HW1 9446   0.624   3.603  12.902
 2922SOL    HW2 9447   0.738   3.540  12.825
 2923SOL     OW 9448   1.390   3.431  11.656
 2923SOL    HW1 9449   1.450   3.463  11.589
 2923SOL    HW2 9450   1.343   3.509  11.685
 2924SOL     OW 9451   0.166   3.630  13.003
 2924SOL    HW1 9452   0.109   3.578  13.060
 2924SOL    HW2 9453   0.213   3.687  13.063
 2925SOL     OW 9454   1.277   2.787  11.843
 2925SOL    HW1 9455   1.351   2.726  11.848
 2925SOL    HW2 9456   1.311   2.860  11.791
 2926SOL     OW 9457   0.816   3.134  12.603
 2926SOL    HW1 9458   0.789   3.174  12.686
 2926SOL    HW2 9459   0.746   3.155  12.542
 2927SOL     OW 9460   0.675   3.476  11.329
 2927SOL    HW1 9461   0.681   3.491  11.234
 2927SOL    HW2 9462   0.618   3.399  11.336
 2928SOL     OW 9463   1.628   3.588  12.562
 2928SOL    HW1 9464   1.678   3.595  12.481
 2928SOL    HW2 9465   1.615   3.678  12.591
 2929SOL     OW 9466   0.269   2.177  11.890
 2929SOL    HW1 9467   0.184   2.213  11.863
 2929SOL    HW2 9468   0.262   2.166  11.985
 2930SOL     OW 9469   1.206   3.469  11.206
 2930SOL    HW1 9470   1.197   3.377  11.231
 2930SOL    HW2 9471   1.145   3.481  11.134
 2931SOL     OW 9472   0.823   2.868  12.544
 2931SOL    HW1 9473   0.868   2.864  12.459
 2931SOL    HW2 9474   0.824   2.960  12.567
 2932SOL     OW 9475   0.915   2.772  11.462
 2932SOL    HW1 9476   0.977   2.804  11.395
 2932SOL    HW2 9477   0.963   2.702  11.507
 2933SOL     OW 9478   1.492   3.488  11.213
 2933SOL    HW1 9479   1.398   3.480  11.199
 2933SOL    HW2 9480   1.529   3.494  11.126
 2934SOL     OW 9481   0.373   3.164  12.663
 2934SOL    HW1 9482   0.359   3.244  12.613
 2934SOL    HW2 9483   0.295   3.111  12.646
 2935SOL     OW 9484   1.611   3.145  12.453
 2935SOL    HW1 9485   1.671   3.135  12.527
 2935SOL    HW2 9486   1.551   3.214  12.479
 2936SOL     OW 9487   1.050   2.968  11.878
 2936SOL    HW1 9488   0.980   2.917  11.917
 2936SOL    HW2 9489   1.112   2.903  11.845
 2937SOL     OW 9490   1.020   2.102  12.138
 2937SOL    HW1 9491   1.016   2.054  12.055
 2937SOL    HW2 9492   1.015   2.034  12.205
 2938SOL     OW 9493   0.603   3.352  11.653
 2938SOL    HW1 9494   0.645   3.301  11.584
 2938SOL    HW2 9495   0.535   3.403  11.608
 2939SOL     OW 9496   1.725   2.248  12.545
 2939SOL    HW1 9497   1.796   2.312  12.553
 2939SOL    HW2 9498   1.760   2.180  12.487
 2940SOL     OW 9499   0.252   3.204  11.462
 2940SOL    HW1 9500   0.159   3.215  11.442
 2940SOL    HW2 9501   0.262   3.242  11.549
 2941SOL     OW 9502   0.105   2.862  12.890
 2941SOL    HW1 9503   0.044   2.852  12.962
 2941SOL    HW2 9504   0.191   2.842  12.928
 2942SOL     OW 9505   0.673   2.058  12.671
 2942SOL    HW1 9506   0.757   2.039  12.629
 2942SOL    HW2 9507   0.697   2.088  12.759
 2943SOL     OW 9508   0.080   2.182  11.209
 2943SOL    HW1 9509   3.985   2.181  11.213
 2943SOL    HW2 9510   0.101   2.262  11.161
 2944SOL     OW 9511   1.431   2.720  12.573
 2944SOL    HW1 9512   1.383   2.781  12.516
 2944SOL    HW2 9513   1.521   2.723  12.540
 2945SOL     OW 9514   0.025   2.083  11.539
 2945SOL    HW1 9515   0.046   2.150  11.475
 2945SOL    HW2 9516   0.110   2.049  11.567
 2946SOL     OW 9517   1.179   3.202  11.289
 2946SOL    HW1 9518   1.088   3.173  11.291
 2946SOL    HW2 9519   1.207   3.201  11.380
 2947SOL     OW 9520   0.618   2.693  12.606
 2947SOL    HW1 9521   0.674   2.769  12.591
 2947SOL    HW2 9522   0.679   2.620  12.615
 2948SOL     OW 9523   1.485   3.639  12.150
 2948SOL    HW1 9524   1.511   3.693  12.076
 2948SOL    HW2 9525   1.568   3.619  12.195
 2949SOL     OW 9526   0.716   2.427  12.878
 2949SOL    HW1 9527   0.756   2.490  12.937
 2949SOL    HW2 9528   0.749   2.342  12.908
 2950SOL     OW 9529   1.470   3.064  12.804
 2950SOL    HW1 9530   1.458   3.077  12.899
 2950SOL    HW2 9531   1.564   3.077  12.790
 2951SOL     OW 9532   0.380   3.604  12.731
 2951SOL    HW1 9533   0.292   3.640  12.718
 2951SOL    HW2 9534   0.365   3.523  12.779
 2952SOL     OW 9535   1.671   2.744  12.427
 2952SOL    HW1 9536   1.663   2.659  12.384
 2952SOL    HW2 9537   1.661   2.807  12.356
 2953SOL     OW 9538   1.217   2.182  11.629
 2953SOL    HW1 9539   1.280   2.111  11.621
 2953SOL    HW2 9540   1.245   2.231  11.707
 2954SOL     OW 9541   0.591   2.602  11.841
 2954SOL    HW1 9542   0.629   2.688  11.825
 2954SOL    HW2 9543   0.522   2.594  11.775
 2955SOL     OW 9544   1.760   2.239  12.820
 2955SOL    HW1 9545   1.743   2.240  12.726
 2955SOL    HW2 9546   1.700   2.173  12.855
 2956SOL     OW 9547   1.743   2.797  12.684
 2956SOL    HW1 9548   1.743   2.892  12.697
 2956SOL    HW2 9549   1.729   2.785  12.590
 2957SOL     OW 9550   0.864   3.230  11.205
 2957SOL    HW1 9551   0.822   3.258  11.287
 2957SOL    HW2 9552   0.880   3.312  11.158
 2958SOL     OW 9553   0.658   3.654  12.114
 2958SOL    HW1 9554   0.635   3.744  12.093
 2958SOL    HW2 9555   0.754   3.651  12.110
 2959SOL     OW 9556   0.867   2.827  12.027
 2959SOL    HW1 9557   0.917   2.757  12.067
 2959SOL    HW2 9558   0.833   2.878  12.101
 2960SOL     OW 9559   1.079   2.849  11.260
 2960SOL    HW1 9560   1.058   2.901  11.182
 2960SOL    HW2 9561   1.155   2.797  11.235
 2961SOL     OW 9562   1.855   3.416  12.015
 2961SOL    HW1 9563   1.776   3.404  11.962
 2961SOL    HW2 9564   1.846   3.351  12.085
 2962SOL     OW 9565   0.223   3.166  13.027
 2962SOL    HW1 9566   0.152   3.107  13.002
 2962SOL    HW2 9567   0.211   3.180  13.121
 2963SOL     OW 9568   0.110   3.135  11.888
 2963SOL    HW1 9569   0.120   3.084  11.968
 2963SOL    HW2 9570   0.111   3.069  11.818
 2964SOL     OW 9571   0.680   3.263  12.799
 2964SOL    HW1 9572   0.599   3.221  12.829
 2964SOL    HW2 9573   0.676   3.352  12.836
 2965SOL     OW 9574   0.441   2.296  11.704
 2965SOL    HW1 9575   0.444   2.226  11.639
 2965SOL    HW2 9576   0.386   2.261  11.774
 2966SOL     OW 9577   1.701   3.351  12.269
 2966SOL    HW1 9578   1.620   3.327  12.226
 2966SOL    HW2 9579   1.715   3.284  12.335
 2967SOL     OW 9580   0.331   2.416  12.463
 2967SOL    HW1 9581   0.387   2.360  12.517
 2967SOL    HW2 9582   0.348   2.386  12.373
 2968SOL     OW 9583   0.826   3.441  11.850
 2968SOL    HW1 9584   0.817   3.487  11.767
 2968SOL    HW2 9585   0.749   3.383  11.854
 2969SOL     OW 9586   1.437   2.089  12.291
 2969SOL    HW1 9587   1.453   2.004  12.332
 2969SOL    HW2 9588   1.382   2.136  12.354
 2970SOL     OW 9589   1.009   1.881  12.316
 2970SOL    HW1 9590   0.955   1.813  12.276
 2970SOL    HW2 9591   1.097   1.844  12.318
 2971SOL     OW 9592   0.771   3.194  11.486
 2971SOL    HW1 9593   0.739   3.104  11.491
 2971SOL    HW2 9594   0.854   3.192  11.533
 2972SOL     OW 9595   0.620   3.418  12.456
 2972SOL    HW1 9596   0.622   3.499  12.507
 2972SOL    HW2 9597   0.707   3.411  12.418
 2973SOL     OW 9598   1.351   1.914  11.337
 2973SOL    HW1 9599   1.378   1.856  11.266
 2973SOL    HW2 9600   1.264   1.883  11.362
 2974SOL     OW 9601   1.298   2.322  11.854
 2974SOL    HW1 9602   1.244   2.401  11.861
 2974SOL    HW2 9603   1.294   2.282  11.941
 2975SOL     OW 9604   1.574   2.059  12.043
 2975SOL    HW1 9605   1.531   2.083  12.125
 2975SOL    HW2 9606   1.590   2.143  11.999
 2976SOL     OW 9607   0.045   2.914  11.412
 2976SOL    HW1 9608   0.139   2.898  11.403
 2976SOL    HW2 9609   0.010   2.835  11.451
 2977SOL     OW 9610   0.882   3.515  11.518
 2977SOL    HW1 9611   0.812   3.496  11.455
 2977SOL    HW2 9612   0.851   3.592  11.565
 2978SOL     OW 9613   0.230   2.483  13.156
 2978SOL    HW1 9614   0.137   2.493  13.175
 2978SOL    HW2 9615   0.233   2.455  13.064
 2979SOL     OW 9616   0.284   2.126   0.131
 2979SOL    HW1 9617   0.313   2.180   0.205
 2979SOL    HW2 9618   0.199   2.162   0.108
 2980SOL     OW 9619   0.007   2.226  13.658
 2980SOL    HW1 9620   3.914   2.245  13.664
 2980SOL    HW2 9621   0.018   2.186  13.572
 2981SOL     OW 9622   1.532   3.363  13.723
 2981SOL    HW1 9623   1.473   3.307  13.775
 2981SOL    HW2 9624   1.484   3.379  13.642
 2982SOL     OW 9625   1.126   2.564  13.735
 2982SOL    HW1 9626   1.182   2.637  13.709
 2982SOL    HW2 9627   1.082   2.595  13.814
 2983SOL     OW 9628   1.773   2.467  13.261
 2983SOL    HW1 9629   1.748   2.461  13.169
 2983SOL    HW2 9630   1.732   2.390  13.302
 2984SOL     OW 9631   0.686   2.872  13.674
 2984SOL    HW1 9632   0.741   2.851  13.749
 2984SOL    HW2 9633   0.613   2.923  13.711
 2985SOL     OW 9634   1.623   2.315  13.742
 2985SOL    HW1 9635   1.531   2.328  13.718
 2985SOL    HW2 9636   1.634   2.368  13.822
 2986SOL     OW 9637   0.222   3.573  13.496
 2986SOL    HW1 9638   0.241   3.632  13.570
 2986SOL    HW2 9639   0.302   3.576  13.443
 2987SOL     OW 9640   0.243   3.304  13.571
 2987SOL    HW1 9641   0.217   3.396  13.562
 2987SOL    HW2 9642   0.178   3.266  13.630
 2988SOL     OW 9643   0.249   2.940   0.020
 2988SOL    HW1 9644   0.271   2.895   0.101
 2988SOL    HW2 9645   0.209   3.022   0.048
 2989SOL     OW 9646   0.583   2.845  13.168
 2989SOL    HW1 9647   0.628   2.893  13.099
 2989SOL    HW2 9648   0.625   2.874  13.249
 2990SOL     OW 9649   0.143   2.503  13.616
 2990SOL    HW1 9650   0.072   2.443  13.596
 2990SOL    HW2 9651   0.102   2.569  13.672
 2991SOL     OW 9652   1.841   3.615  13.373
 2991SOL    HW1 9653   1.906   3.590  13.439
 2991SOL    HW2 9654   1.864   3.705  13.350
 2992SOL     OW 9655   0.041   3.456  13.174
 2992SOL    HW1 9656   0.031   3.363  13.195
 2992SOL    HW2 9657   3.966   3.498  13.217
 2993SOL     OW 9658   1.688   2.778  13.668
 2993SOL    HW1 9659   1.774   2.743  13.648
 2993SOL    HW2 9660   1.665   2.832  13.592
 2994SOL     OW 9661   1.646   2.968  13.461
 2994SOL    HW1 9662   1.731   2.974  13.418
 2994SOL    HW2 9663   1.651   3.029  13.534
 2995SOL     OW 9664   0.611   3.247  13.763
 2995SOL    HW1 9665   0.563   3.166  13.778
 2995SOL    HW2 9666   0.584   3.275  13.675
 2996SOL     OW 9667   0.814   1.859  13.542
 2996SOL    HW1 9668   0.855   1.943  13.523
 2996SOL    HW2 9669   0.721   1.878  13.551
 2997SOL     OW 9670   1.531   2.854  13.232
 2997SOL    HW1 9671   1.462   2.796  13.263
 2997SOL    HW2 9672   1.571   2.890  13.312
 2998SOL     OW 9673   1.656   3.596  13.612
 2998SOL    HW1 9674   1.637   3.568  13.523
 2998SOL    HW2 9675   1.647   3.516  13.665
 2999SOL     OW 9676   0.595   2.582  13.296
 2999SOL    HW1 9677   0.603   2.665  13.248
 2999SOL    HW2 9678   0.533   2.601  13.366
 3000SOL     OW 9679   1.256   2.193   0.047
 3000SOL    HW1 9680   1.183   2.142   0.081
 3000SOL    HW2 9681   1.332   2.160   0.094
 3001SOL     OW 9682   1.579   3.536  13.341
 3001SOL    HW1 9683   1.671   3.563  13.337
 3001SOL    HW2 9684   1.556   3.515  13.250
 3002SOL     OW 9685   1.048   2.559  13.460
 3002SOL    HW1 9686   1.062   2.549  13.554
 3002SOL    HW2 9687   0.967   2.511  13.442
 3003SOL     OW 9688   0.082   2.695  13.808
 3003SOL    HW1 9689   0.168   2.679  13.848
 3003SOL    HW2 9690   0.074   2.790  13.807
 3004SOL     OW 9691   0.888   2.210  13.225
 3004SOL    HW1 9692   0.933   2.271  13.166
 3004SOL    HW2 9693   0.911   2.123  13.191
 3005SOL     OW 9694   1.365   2.998  13.558
 3005SOL    HW1 9695   1.453   2.995  13.522
 3005SOL    HW2 9696   1.321   3.069  13.510
 3006SOL     OW 9697   1.006   3.306  13.505
 3006SOL    HW1 9698   0.967   3.380  13.458
 3006SOL    HW2 9699   0.979   3.319  13.596
 3007SOL     OW 9700   0.404   3.670  13.822
 3007SOL    HW1 9701   0.436   3.586  13.855
 3007SOL    HW2 9702   0.441   3.735  13.881
 3008SOL     OW 9703   1.792   2.918  13.899
 3008SOL    HW1 9704   1.733   2.907  13.824
 3008SOL    HW2 9705   1.734   2.914   0.075
 3009SOL     OW 9706   0.311   2.817  13.277
 3009SOL    HW1 9707   0.395   2.841  13.239
 3009SOL    HW2 9708   0.296   2.727  13.248
 3010SOL     OW 9709   1.485   2.595  13.746
 3010SOL    HW1 9710   1.474   2.546  13.828
 3010SOL    HW2 9711   1.559   2.653  13.762
 3011SOL     OW 9712   1.112   3.642  13.257
 3011SOL    HW1 9713   1.052   3.594  13.314
 3011SOL    HW2 9714   1.142   3.578  13.193
 3012SOL     OW 9715   1.628   3.242  13.122
 3012SOL    HW1 9716   1.588   3.327  13.105
 3012SOL    HW2 9717   1.559   3.178  13.103
 3013SOL     OW 9718   0.468   3.599  13.354
 3013SOL    HW1 9719   0.505   3.661  13.416
 3013SOL    HW2 9720   0.542   3.573  13.299
 3014SOL     OW 9721   1.401   1.974  13.461
 3014SOL    HW1 9722   1.382   1.948  13.371
 3014SOL    HW2 9723   1.494   1.954  13.472
 3015SOL     OW 9724   0.932   3.551   0.014
 3015SOL    HW1 9725   0.964   3.482   0.072
 3015SOL    HW2 9726   0.885   3.504  13.846
 3016SOL     OW 9727   0.394   2.558  13.506
 3016SOL    HW1 9728   0.424   2.467  13.517
 3016SOL    HW2 9729   0.303   2.557  13.536
 3017SOL     OW 9730   0.630   1.983  13.136
 3017SOL    HW1 9731   0.703   1.922  13.151
 3017SOL    HW2 9732   0.587   1.950  13.058
 3018SOL     OW 9733   0.551   1.925  13.534
 3018SOL    HW1 9734   0.467   1.928  13.579
 3018SOL    HW2 9735   0.556   2.007  13.486
 3019SOL     OW 9736   1.428   3.060  13.075
 3019SOL    HW1 9737   1.459   2.984  13.125
 3019SOL    HW2 9738   1.343   3.080  13.113
 3020SOL     OW 9739   0.305   1.912  13.203
 3020SOL    HW1 9740   0.371   1.952  13.148
 3020SOL    HW2 9741   0.353   1.847  13.255
 3021SOL     OW 9742   0.938   2.102  13.496
 3021SOL    HW1 9743   0.905   2.148  13.419
 3021SOL    HW2 9744   1.031   2.122  13.498
 3022SOL     OW 9745   0.468   3.005  13.773
 3022SOL    HW1 9746   0.393   2.986  13.830
 3022SOL    HW2 9747   0.435   2.993  13.684
 3023SOL     OW 9748   1.271   3.661  13.630
 3023SOL    HW1 9749   1.314   3.727  13.576
 3023SOL    HW2 9750   1.205   3.709  13.679
 3024SOL     OW 9751   1.025   2.405  13.055
 3024SOL    HW1 9752   0.983   2.489  13.035
 3024SOL    HW2 9753   1.090   2.426  13.122
 3025SOL     OW 9754   0.890   2.333  13.667
 3025SOL    HW1 9755   0.822   2.377  13.617
 3025SOL    HW2 9756   0.894   2.244  13.630
 3026SOL     OW 9757   1.025   1.901  13.780
 3026SOL    HW1 9758   0.965   1.913  13.706
 3026SOL    HW2 9759   0.994   1.822  13.824
 3027SOL     OW 9760   1.847   2.680  13.413
 3027SOL    HW1 9761   1.903   2.629  13.472
 3027SOL    HW2 9762   1.819   2.617  13.346
 3028SOL     OW 9763   0.490   3.276  13.196
 3028SOL    HW1 9764   0.414   3.246  13.247
 3028SOL    HW2 9765   0.467   3.258  13.105
 3029SOL     OW 9766   1.679   3.130  13.668
 3029SOL    HW1 9767   1.772   3.134  13.691
 3029SOL    HW2 9768   1.642   3.211  13.702
 3030SOL     OW 9769   1.393   2.434  13.104
 3030SOL    HW1 9770   1.335   2.415  13.177
 3030SOL    HW2 9771   1.479   2.405  13.133
 3031SOL     OW 9772   0.572   2.131  13.358
 3031SOL    HW1 9773   0.597   2.080  13.280
 3031SOL    HW2 9774   0.540   2.214  13.323
 3032SOL     OW 9775   0.707   2.922  13.402
 3032SOL    HW1 9776   0.694   2.909  13.496
 3032SOL    HW2 9777   0.784   2.869  13.381
 3033SOL     OW 9778   0.378   2.964  13.520
 3033SOL    HW1 9779   0.368   3.043  13.467
 3033SOL    HW2 9780   0.374   2.893  13.457
 3034SOL     OW 9781   0.571   2.404  13.869
 3034SOL    HW1 9782   0.583   2.470  13.801
 3034SOL    HW2 9783   0.627   2.434   0.041
 3035SOL     OW 9784   1.247   3.212  13.419
 3035SOL    HW1 9785   1.302   3.285  13.448
 3035SOL    HW2 9786   1.161   3.232  13.455
 3036SOL     OW 9787   1.578   2.491  13.494
 3036SOL    HW1 9788   1.541   2.533  13.572
 3036SOL    HW2 9789   1.628   2.560  13.451
 3037SOL     OW 9790   1.206   2.390  13.302
 3037SOL    HW1 9791   1.213   2.313  13.357
 3037SOL    HW2 9792   1.163   2.456  13.358
 3038SOL     OW 9793   0.301   1.924  13.643
 3038SOL    HW1 9794   0.291   2.014  13.673
 3038SOL    HW2 9795   0.311   1.873  13.723
 3039SOL     OW 9796   1.613   2.238  13.409
 3039SOL    HW1 9797   1.611   2.184  13.488
 3039SOL    HW2 9798   1.590   2.326  13.439
 3040SOL     OW 9799   1.529   2.135  13.163
 3040SOL    HW1 9800   1.463   2.071  13.190
 3040SOL    HW2 9801   1.562   2.172  13.245
 3041SOL     OW 9802   1.292   2.689  13.065
 3041SOL    HW1 9803   1.335   2.603  13.069
 3041SOL    HW2 9804   1.324   2.728  12.984
 3042SOL     OW 9805   3.999   3.183  13.215
 3042SOL    HW1 9806   3.905   3.199  13.220
 3042SOL    HW2 9807   0.009   3.090  13.235
 3043SOL     OW 9808   0.817   2.433  13.385
 3043SOL    HW1 9809   0.818   2.355  13.329
 3043SOL    HW2 9810   0.740   2.482  13.355
 3044SOL     OW 9811   0.460   2.353  13.225
 3044SOL    HW1 9812   0.525   2.421  13.244
 3044SOL    HW2 9813   0.379   2.401  13.208
 3045SOL     OW 9814   1.311   2.716  13.339
 3045SOL    HW1 9815   1.233   2.689  13.389
 3045SOL    HW2 9816   1.286   2.703  13.248
 3046SOL     OW 9817   1.384   3.434  13.508
 3046SOL    HW1 9818   1.445   3.469  13.443
 3046SOL    HW2 9819   1.340   3.511  13.544
 3047SOL     OW 9820   1.286   2.777  13.687
 3047SOL    HW1 9821   1.363   2.721  13.673
 3047SOL    HW2 9822   1.309   2.861  13.647
 3048SOL     OW 9823   0.674   3.477  13.190
 3048SOL    HW1 9824   0.681   3.491  13.096
 3048SOL    HW2 9825   0.618   3.399  13.198
 3049SOL     OW 9826   0.279   2.173  13.742
 3049SOL    HW1 9827   0.196   2.215  13.721
 3049SOL    HW2 9828   0.285   2.177  13.837
 3050SOL     OW 9829   1.207   3.469  13.068
 3050SOL    HW1 9830   1.197   3.377  13.093
 3050SOL    HW2 9831   1.145   3.481  12.996
 3051SOL     OW 9832   0.917   2.773  13.326
 3051SOL    HW1 9833   0.977   2.804  13.258
 3051SOL    HW2 9834   0.963   2.700  13.368
 3052SOL     OW 9835   1.492   3.488  13.075
 3052SOL    HW1 9836   1.398   3.480  13.061
 3052SOL    HW2 9837   1.529   3.494  12.987
 3053SOL     OW 9838   1.049   2.953  13.753
 3053SOL    HW1 9839   0.963   2.912  13.749
 3053SOL    HW2 9840   1.101   2.907  13.687
 3054SOL     OW 9841   0.602   3.355  13.509
 3054SOL    HW1 9842   0.643   3.303  13.440
 3054SOL    HW2 9843   0.533   3.404  13.464
 3055SOL     OW 9844   0.252   3.203  13.324
 3055SOL    HW1 9845   0.159   3.215  13.303
 3055SOL    HW2 9846   0.262   3.242  13.411
 3056SOL     OW 9847   0.080   2.182  13.071
 3056SOL    HW1 9848   3.984   2.180  13.076
 3056SOL    HW2 9849   0.101   2.262  13.023
 3057SOL     OW 9850   0.024   2.090  13.403
 3057SOL    HW1 9851   0.048   2.149  13.332
 3057SOL    HW2 9852   0.107   2.048  13.428
 3058SOL     OW 9853   1.179   3.202  13.150
 3058SOL    HW1 9854   1.088   3.173  13.153
 3058SOL    HW2 9855   1.207   3.202  13.241
 3059SOL     OW 9856   1.217   2.182  13.491
 3059SOL    HW1 9857   1.281   2.111  13.482
 3059SOL    HW2 9858   1.246   2.230  13.569
 3060SOL     OW 9859   0.593   2.611  13.693
 3060SOL    HW1 9860   0.628   2.698  13.675
 3060SOL    HW2 9861   0.522   2.600  13.630
 3061SOL     OW 9862   0.863   3.230  13.066
 3061SOL    HW1 9863   0.823   3.257  13.149
 3061SOL    HW2 9864   0.880   3.312  13.020
 3062SOL     OW 9865   0.655   3.705   0.065
 3062SOL    HW1 9866   0.650   3.798   0.084
 3062SOL    HW2 9867   0.747   3.683   0.079
 3063SOL     OW 9868   0.833   2.823  13.893
 3063SOL    HW1 9869   0.876   2.748   0.033
 3063SOL    HW2 9870   0.841   2.893   0.058
 3064SOL     OW 9871   1.078   2.848  13.122
 3064SOL    HW1 9872   1.058   2.900  13.044
 3064SOL    HW2 9873   1.154   2.796  13.097
 3065SOL     OW 9874   0.113   3.131  13.751
 3065SOL    HW1 9875   0.058   3.081  13.812
 3065SOL    HW2 9876   0.127   3.072  13.677
 3066SOL     OW 9877   0.442   2.299  13.558
 3066SOL    HW1 9878   0.448   2.227  13.496
 3066SOL    HW2 9879   0.399   2.262  13.635
 3067SOL     OW 9880   1.680   3.330   0.333
 3067SOL    HW1 9881   1.651   3.306   0.245
 3067SOL    HW2 9882   1.762   3.282   0.346
 3068SOL     OW 9883   0.820   3.417  13.712
 3068SOL    HW1 9884   0.802   3.467  13.632
 3068SOL    HW2 9885   0.742   3.363  13.725
 3069SOL     OW 9886   0.772   3.194  13.345
 3069SOL    HW1 9887   0.739   3.104  13.352
 3069SOL    HW2 9888   0.854   3.193  13.394
 3070SOL     OW 9889   1.350   1.914  13.199
 3070SOL    HW1 9890   1.378   1.856  13.128
 3070SOL    HW2 9891   1.264   1.882  13.224
 3071SOL     OW 9892   1.304   2.321  13.713
 3071SOL    HW1 9893   1.247   2.398  13.720
 3071SOL    HW2 9894   1.292   2.275  13.797
 3072SOL     OW 9895   0.044   2.914  13.271
 3072SOL    HW1 9896   0.138   2.898  13.264
 3072SOL    HW2 9897   0.009   2.835  13.312
 3073SOL     OW 9898   0.883   3.516  13.379
 3073SOL    HW1 9899   0.812   3.497  13.317
 3073SOL    HW2 9900   0.852   3.591  13.429
 3074SOL     OW 9901   0.234   3.956   0.972
 3074SOL    HW1 9902   0.250   3.963   1.066
 3074SOL    HW2 9903   0.140   3.973   0.963
 3075SOL     OW 9904   0.019   0.093   0.640
 3075SOL    HW1 9905   3.931   0.087   0.675
 3075SOL    HW2 9906   0.014   0.051   0.554
 3076SOL     OW 9907   1.804   0.353   0.267
 3076SOL    HW1 9908   1.780   0.332   0.177
 3076SOL    HW2 9909   1.722   0.345   0.316
 3077SOL     OW 9910   0.441   0.101   1.511
 3077SOL    HW1 9911   0.512   0.061   1.462
 3077SOL    HW2 9912   0.363   0.051   1.487
 3078SOL     OW 9913   1.597   3.846   1.465
 3078SOL    HW1 9914   1.598   3.930   1.419
 3078SOL    HW2 9915   1.583   3.869   1.557
 3079SOL     OW 9916   0.805   3.727   0.503
 3079SOL    HW1 9917   0.834   3.818   0.494
 3079SOL    HW2 9918   0.710   3.733   0.515
 3080SOL     OW 9919   1.270   0.063   0.939
 3080SOL    HW1 9920   1.199   0.007   0.907
 3080SOL    HW2 9921   1.325   0.004   0.990
 3081SOL     OW 9922   0.553   3.905   0.889
 3081SOL    HW1 9923   0.549   3.926   0.982
 3081SOL    HW2 9924   0.548   3.990   0.845
 3082SOL     OW 9925   0.195   3.987   1.498
 3082SOL    HW1 9926   0.107   0.025   1.495
 3082SOL    HW2 9927   0.188   3.914   1.559
 3083SOL     OW 9928   1.407   3.840   0.425
 3083SOL    HW1 9929   1.399   3.796   0.340
 3083SOL    HW2 9930   1.499   3.826   0.450
 3084SOL     OW 9931   1.534   3.943   1.723
 3084SOL    HW1 9932   1.560   3.947   1.815
 3084SOL    HW2 9933   1.470   3.872   1.720
 3085SOL     OW 9934   0.773   3.962   1.745
 3085SOL    HW1 9935   0.832   3.932   1.813
 3085SOL    HW2 9936   0.690   3.977   1.790
 3086SOL     OW 9937   0.532   3.785   0.510
 3086SOL    HW1 9938   0.477   3.787   0.588
 3086SOL    HW2 9939   0.546   3.878   0.489
 3087SOL     OW 9940   0.268   3.739   0.189
 3087SOL    HW1 9941   0.302   3.828   0.176
 3087SOL    HW2 9942   0.341   3.691   0.227
 3088SOL     OW 9943   0.564   3.944   1.165
 3088SOL    HW1 9944   0.601   3.867   1.208
 3088SOL    HW2 9945   0.472   3.944   1.192
 3089SOL     OW 9946   1.018   3.769   0.744
 3089SOL    HW1 9947   0.954   3.759   0.674
 3089SOL    HW2 9948   0.995   3.702   0.808
 3090SOL     OW 9949   0.922   3.805   1.402
 3090SOL    HW1 9950   0.949   3.786   1.312
 3090SOL    HW2 9951   0.994   3.856   1.439
 3091SOL     OW 9952   1.265   0.079   1.264
 3091SOL    HW1 9953   1.284   0.146   1.329
 3091SOL    HW2 9954   1.196   0.118   1.210
 3092SOL     OW 9955   0.504   3.751   1.753
 3092SOL    HW1 9956   0.455   3.704   1.686
 3092SOL    HW2 9957   0.467   3.839   1.754
 3093SOL     OW 9958   0.305   3.926   1.254
 3093SOL    HW1 9959   0.262   3.944   1.338
 3093SOL    HW2 9960   0.288   3.833   1.238
 3094SOL     OW 9961   1.593   3.944   0.149
 3094SOL    HW1 9962   1.513   3.892   0.158
 3094SOL    HW2 9963   1.572   0.029   0.188
 3095SOL     OW 9964   1.164   3.925   1.473
 3095SOL    HW1 9965   1.169   3.997   1.536
 3095SOL    HW2 9966   1.202   3.961   1.393
 3096SOL     OW 9967   0.915   3.824   0.151
 3096SOL    HW1 9968   0.947   3.813   0.061
 3096SOL    HW2 9969   0.972   3.767   0.204
 3097SOL     OW 9970   1.714   3.860   0.516
 3097SOL    HW1 9971   1.792   3.849   0.461
 3097SOL    HW2 9972   1.701   3.775   0.557
 3098SOL     OW 9973   1.835   3.886   0.970
 3098SOL    HW1 9974   1.871   3.803   0.937
 3098SOL    HW2 9975   1.753   3.897   0.922
 3099SOL     OW 9976   0.672   3.911   1.494
 3099SOL    HW1 9977   0.754   3.907   1.445
 3099SOL    HW2 9978   0.699   3.933   1.583
 3100SOL     OW 9979   0.051   0.032   0.043
 3100SOL    HW1 9980   3.963   0.027   0.005
 3100SOL    HW2 9981   0.092   0.106  13.898
 3101SOL     OW 9982   0.125   3.928   0.371
 3101SOL    HW1 9983   0.074   3.976   0.306
 3101SOL    HW2 9984   0.165   3.856   0.321
 3102SOL     OW 9985   1.188   0.012   0.467
 3102SOL    HW1 9986   1.258   3.946   0.464
 3102SOL    HW2 9987   1.212   0.069   0.540
 3103SOL     OW 9988   1.785   0.047   1.642
 3103SOL    HW1 9989   1.761   0.077   1.554
 3103SOL    HW2 9990   1.704   0.010   1.678
 3104SOL     OW 9991   1.818   3.914   1.238
 3104SOL    HW1 9992   1.823   3.822   1.266
 3104SOL    HW2 9993   1.823   3.910   1.143
 3105SOL     OW 9994   1.437   3.935   1.118
 3105SOL    HW1 9995   1.472   3.858   1.164
 3105SOL    HW2 9996   1.378   3.976   1.180
 3106SOL     OW 9997   1.012   3.738   1.151
 3106SOL    HW1 9998   0.955   3.681   1.100
 3106SOL    HW2 9999   1.098   3.697   1.146
 3107SOL     OW10000   1.348   3.783   0.152
 3107SOL    HW110001   1.384   3.716   0.095
 3107SOL    HW210002   1.267   3.746   0.185
 3108SOL     OW10003   1.285   0.163   0.683
 3108SOL    HW110004   1.274   0.257   0.690
 3108SOL    HW210005   1.292   0.132   0.773
 3109SOL     OW10006   1.581   3.930   0.877
 3109SOL    HW110007   1.526   3.934   0.955
 3109SOL    HW210008   1.582   0.020   0.844
 3110SOL     OW10009   0.233   3.956   2.833
 3110SOL    HW110010   0.252   3.964   2.927
 3110SOL    HW210011   0.139   3.972   2.826
 3111SOL     OW10012   0.015   0.100   2.495
 3111SOL    HW110013   3.931   0.092   2.540
 3111SOL    HW210014   0.006   0.044   2.417
 3112SOL     OW10015   1.777   0.321   2.059
 3112SOL    HW110016   1.704   0.303   1.999
 3112SOL    HW210017   1.737   0.329   2.145
 3113SOL     OW10018   0.441   0.101   3.373
 3113SOL    HW110019   0.512   0.061   3.324
 3113SOL    HW210020   0.363   0.051   3.349
 3114SOL     OW10021   1.597   3.846   3.327
 3114SOL    HW110022   1.598   3.930   3.282
 3114SOL    HW210023   1.583   3.869   3.419
 3115SOL     OW10024   0.805   3.728   2.363
 3115SOL    HW110025   0.833   3.819   2.357
 3115SOL    HW210026   0.711   3.732   2.376
 3116SOL     OW10027   1.269   0.063   2.802
 3116SOL    HW110028   1.199   0.007   2.769
 3116SOL    HW210029   1.325   0.004   2.852
 3117SOL     OW10030   0.552   3.906   2.751
 3117SOL    HW110031   0.549   3.925   2.844
 3117SOL    HW210032   0.548   3.991   2.708
 3118SOL     OW10033   0.195   3.986   3.360
 3118SOL    HW110034   0.107   0.025   3.357
 3118SOL    HW210035   0.188   3.914   3.421
 3119SOL     OW10036   1.405   3.835   2.288
 3119SOL    HW110037   1.396   3.800   2.200
 3119SOL    HW210038   1.498   3.826   2.308
 3120SOL     OW10039   1.534   3.942   3.585
 3120SOL    HW110040   1.560   3.947   3.677
 3120SOL    HW210041   1.470   3.871   3.582
 3121SOL     OW10042   0.623   3.851   1.982
 3121SOL    HW110043   0.714   3.821   1.990
 3121SOL    HW210044   0.588   3.803   1.907
 3122SOL     OW10045   0.773   3.961   3.606
 3122SOL    HW110046   0.832   3.932   3.675
 3122SOL    HW210047   0.690   3.977   3.652
 3123SOL     OW10048   0.532   3.787   2.371
 3123SOL    HW110049   0.478   3.790   2.451
 3123SOL    HW210050   0.545   3.878   2.348
 3124SOL     OW10051   0.288   3.757   2.041
 3124SOL    HW110052   0.336   3.836   2.018
 3124SOL    HW210053   0.354   3.700   2.081
 3125SOL     OW10054   0.564   3.943   3.026
 3125SOL    HW110055   0.602   3.868   3.071
 3125SOL    HW210056   0.472   3.944   3.054
 3126SOL     OW10057   1.018   3.769   2.607
 3126SOL    HW110058   0.955   3.758   2.536
 3126SOL    HW210059   0.995   3.702   2.671
 3127SOL     OW10060   0.922   3.805   3.264
 3127SOL    HW110061   0.949   3.786   3.174
 3127SOL    HW210062   0.994   3.856   3.301
 3128SOL     OW10063   1.265   0.079   3.126
 3128SOL    HW110064   1.285   0.146   3.191
 3128SOL    HW210065   1.196   0.118   3.072
 3129SOL     OW10066   0.504   3.751   3.615
 3129SOL    HW110067   0.455   3.704   3.548
 3129SOL    HW210068   0.467   3.839   3.616
 3130SOL     OW10069   0.305   3.926   3.116
 3130SOL    HW110070   0.262   3.944   3.200
 3130SOL    HW210071   0.288   3.833   3.100
 3131SOL     OW10072   1.575   3.958   1.983
 3131SOL    HW110073   1.514   3.901   2.031
 3131SOL    HW210074   1.598   0.027   2.046
 3132SOL     OW10075   1.164   3.925   3.335
 3132SOL    HW110076   1.169   3.997   3.398
 3132SOL    HW210077   1.202   3.961   3.255
 3133SOL     OW10078   0.900   3.813   1.971
 3133SOL    HW110079   0.963   3.781   1.906
 3133SOL    HW210080   0.939   3.788   2.055
 3134SOL     OW10081   1.715   3.859   2.370
 3134SOL    HW110082   1.791   3.844   2.313
 3134SOL    HW210083   1.702   3.775   2.414
 3135SOL     OW10084   1.835   3.886   2.832
 3135SOL    HW110085   1.871   3.803   2.800
 3135SOL    HW210086   1.753   3.897   2.784
 3136SOL     OW10087   0.672   3.911   3.356
 3136SOL    HW110088   0.754   3.907   3.307
 3136SOL    HW210089   0.699   3.933   3.445
 3137SOL     OW10090   0.070   0.036   1.841
 3137SOL    HW110091   3.977   0.033   1.866
 3137SOL    HW210092   0.101   0.120   1.875
 3138SOL     OW10093   0.103   3.910   2.227
 3138SOL    HW110094   0.079   3.991   2.182
 3138SOL    HW210095   0.182   3.881   2.181
 3139SOL     OW10096   1.188   0.012   2.331
 3139SOL    HW110097   1.260   3.949   2.324
 3139SOL    HW210098   1.214   0.070   2.403
 3140SOL     OW10099   1.785   0.047   3.504
 3140SOL    HW110100   1.761   0.077   3.416
 3140SOL    HW210101   1.704   0.010   3.540
 3141SOL     OW10102   1.818   3.914   3.100
 3141SOL    HW110103   1.823   3.822   3.128
 3141SOL    HW210104   1.823   3.910   3.005
 3142SOL     OW10105   1.437   3.935   2.980
 3142SOL    HW110106   1.472   3.858   3.026
 3142SOL    HW210107   1.378   3.976   3.042
 3143SOL     OW10108   1.012   3.738   3.013
 3143SOL    HW110109   0.955   3.680   2.963
 3143SOL    HW210110   1.099   3.697   3.008
 3144SOL     OW10111   1.352   3.772   2.021
 3144SOL    HW110112   1.382   3.706   1.958
 3144SOL    HW210113   1.265   3.741   2.048
 3145SOL     OW10114   1.283   0.162   2.547
 3145SOL    HW110115   1.275   0.257   2.553
 3145SOL    HW210116   1.292   0.133   2.637
 3146SOL     OW10117   1.581   3.930   2.739
 3146SOL    HW110118   1.527   3.934   2.817
 3146SOL    HW210119   1.582   0.020   2.705
 3147SOL     OW10120   0.233   3.955   4.695
 3147SOL    HW110121   0.252   3.964   4.789
 3147SOL    HW210122   0.139   3.972   4.687
 3148SOL     OW10123   0.015   0.100   4.357
 3148SOL    HW110124   3.931   0.092   4.402
 3148SOL    HW210125   0.006   0.044   4.279
 3149SOL     OW10126   1.777   0.321   3.921
 3149SOL    HW110127   1.704   0.303   3.861
 3149SOL    HW210128   1.736   0.329   4.007
 3150SOL     OW10129   0.441   0.101   5.236
 3150SOL    HW110130   0.512   0.061   5.186
 3150SOL    HW210131   0.363   0.051   5.211
 3151SOL     OW10132   1.597   3.846   5.189
 3151SOL    HW110133   1.598   3.930   5.143
 3151SOL    HW210134   1.583   3.869   5.281
 3152SOL     OW10135   0.805   3.728   4.225
 3152SOL    HW110136   0.833   3.819   4.219
 3152SOL    HW210137   0.711   3.732   4.238
 3153SOL     OW10138   1.269   0.063   4.664
 3153SOL    HW110139   1.199   0.007   4.631
 3153SOL    HW210140   1.325   0.004   4.714
 3154SOL     OW10141   0.552   3.906   4.613
 3154SOL    HW110142   0.549   3.925   4.706
 3154SOL    HW210143   0.548   3.991   4.570
 3155SOL     OW10144   0.195   3.986   5.221
 3155SOL    HW110145   0.107   0.025   5.219
 3155SOL    HW210146   0.187   3.914   5.283
 3156SOL     OW10147   1.405   3.835   4.150
 3156SOL    HW110148   1.396   3.800   4.062
 3156SOL    HW210149   1.498   3.827   4.170
 3157SOL     OW10150   1.534   3.943   5.447
 3157SOL    HW110151   1.560   3.947   5.539
 3157SOL    HW210152   1.470   3.871   5.444
 3158SOL     OW10153   0.623   3.851   3.844
 3158SOL    HW110154   0.714   3.821   3.852
 3158SOL    HW210155   0.588   3.803   3.769
 3159SOL     OW10156   0.773   3.961   5.468
 3159SOL    HW110157   0.832   3.932   5.537
 3159SOL    HW210158   0.690   3.977   5.514
 3160SOL     OW10159   0.532   3.787   4.233
 3160SOL    HW110160   0.478   3.790   4.313
 3160SOL    HW210161   0.545   3.878   4.210
 3161SOL     OW10162   0.288   3.757   3.903
 3161SOL    HW110163   0.336   3.836   3.880
 3161SOL    HW210164   0.354   3.700   3.943
 3162SOL     OW10165   0.564   3.943   4.888
 3162SOL    HW110166   0.602   3.868   4.933
 3162SOL    HW210167   0.472   3.944   4.916
 3163SOL     OW10168   1.018   3.769   4.469
 3163SOL    HW110169   0.955   3.758   4.398
 3163SOL    HW210170   0.995   3.702   4.533
 3164SOL     OW10171   0.922   3.805   5.126
 3164SOL    HW110172   0.950   3.786   5.036
 3164SOL    HW210173   0.994   3.856   5.163
 3165SOL     OW10174   1.265   0.079   4.988
 3165SOL    HW110175   1.285   0.146   5.053
 3165SOL    HW210176   1.196   0.118   4.934
 3166SOL     OW10177   0.504   3.751   5.477
 3166SOL    HW110178   0.455   3.704   5.410
 3166SOL    HW210179   0.467   3.839   5.478
 3167SOL     OW10180   0.305   3.926   4.978
 3167SOL    HW110181   0.262   3.944   5.062
 3167SOL    HW210182   0.288   3.833   4.962
 3168SOL     OW10183   1.575   3.958   3.845
 3168SOL    HW110184   1.514   3.901   3.893
 3168SOL    HW210185   1.598   0.027   3.908
 3169SOL     OW10186   1.164   3.926   5.198
 3169SOL    HW110187   1.169   3.998   5.260
 3169SOL    HW210188   1.202   3.961   5.117
 3170SOL     OW10189   0.900   3.813   3.833
 3170SOL    HW110190   0.963   3.781   3.768
 3170SOL    HW210191   0.939   3.788   3.917
 3171SOL     OW10192   1.715   3.859   4.232
 3171SOL    HW110193   1.791   3.845   4.175
 3171SOL    HW210194   1.702   3.775   4.276
 3172SOL     OW10195   1.835   3.886   4.694
 3172SOL    HW110196   1.871   3.803   4.662
 3172SOL    HW210197   1.753   3.897   4.646
 3173SOL     OW10198   0.672   3.911   5.218
 3173SOL    HW110199   0.754   3.907   5.169
 3173SOL    HW210200   0.699   3.933   5.307
 3174SOL     OW10201   0.070   0.036   3.703
 3174SOL    HW110202   3.977   0.033   3.728
 3174SOL    HW210203   0.101   0.120   3.737
 3175SOL     OW10204   0.103   3.910   4.088
 3175SOL    HW110205   0.079   3.991   4.044
 3175SOL    HW210206   0.182   3.881   4.043
 3176SOL     OW10207   1.188   0.012   4.194
 3176SOL    HW110208   1.260   3.949   4.186
 3176SOL    HW210209   1.213   0.070   4.265
 3177SOL     OW10210   1.785   0.047   5.366
 3177SOL    HW110211   1.761   0.077   5.279
 3177SOL    HW210212   1.704   0.010   5.402
 3178SOL     OW10213   1.817   3.913   4.962
 3178SOL    HW110214   1.823   3.822   4.990
 3178SOL    HW210215   1.823   3.910   4.867
 3179SOL     OW10216   1.437   3.935   4.842
 3179SOL    HW110217   1.472   3.858   4.888
 3179SOL    HW210218   1.378   3.976   4.904
 3180SOL     OW10219   1.012   3.738   4.875
 3180SOL    HW110220   0.955   3.681   4.824
 3180SOL    HW210221   1.098   3.697   4.870
 3181SOL     OW10222   1.352   3.772   3.883
 3181SOL    HW110223   1.382   3.706   3.820
 3181SOL    HW210224   1.265   3.741   3.910
 3182SOL     OW10225   1.283   0.162   4.409
 3182SOL    HW110226   1.275   0.257   4.415
 3182SOL    HW210227   1.292   0.133   4.499
 3183SOL     OW10228   1.581   3.930   4.600
 3183SOL    HW110229   1.527   3.934   4.679
 3183SOL    HW210230   1.582   0.019   4.567
 3184SOL     OW10231   0.233   3.955   6.557
 3184SOL    HW110232   0.252   3.964   6.651
 3184SOL    HW210233   0.139   3.972   6.549
 3185SOL     OW10234   0.015   0.100   6.219
 3185SOL    HW110235   3.931   0.092   6.264
 3185SOL    HW210236   0.006   0.044   6.141
 3186SOL     OW10237   1.777   0.321   5.783
 3186SOL    HW110238   1.705   0.304   5.723
 3186SOL    HW210239   1.736   0.329   5.869
 3187SOL     OW10240   0.440   0.101   7.098
 3187SOL    HW110241   0.512   0.062   7.047
 3187SOL    HW210242   0.363   0.051   7.073
 3188SOL     OW10243   1.597   3.846   7.052
 3188SOL    HW110244   1.598   3.929   7.005
 3188SOL    HW210245   1.583   3.869   7.143
 3189SOL     OW10246   0.805   3.728   6.087
 3189SOL    HW110247   0.833   3.819   6.081
 3189SOL    HW210248   0.710   3.732   6.100
 3190SOL     OW10249   1.269   0.063   6.527
 3190SOL    HW110250   1.199   0.007   6.493
 3190SOL    HW210251   1.325   0.004   6.576
 3191SOL     OW10252   0.552   3.905   6.475
 3191SOL    HW110253   0.549   3.925   6.568
 3191SOL    HW210254   0.548   3.991   6.432
 3192SOL     OW10255   0.195   3.986   7.083
 3192SOL    HW110256   0.107   0.025   7.081
 3192SOL    HW210257   0.187   3.913   7.145
 3193SOL     OW10258   1.405   3.834   6.013
 3193SOL    HW110259   1.396   3.800   5.924
 3193SOL    HW210260   1.498   3.827   6.032
 3194SOL     OW10261   1.534   3.942   7.309
 3194SOL    HW110262   1.561   3.946   7.401
 3194SOL    HW210263   1.470   3.872   7.306
 3195SOL     OW10264   0.623   3.851   5.706
 3195SOL    HW110265   0.714   3.820   5.714
 3195SOL    HW210266   0.588   3.803   5.631
 3196SOL     OW10267   0.773   3.962   7.331
 3196SOL    HW110268   0.832   3.932   7.400
 3196SOL    HW210269   0.690   3.977   7.376
 3197SOL     OW10270   0.532   3.787   6.095
 3197SOL    HW110271   0.478   3.790   6.174
 3197SOL    HW210272   0.545   3.878   6.072
 3198SOL     OW10273   0.288   3.756   5.765
 3198SOL    HW110274   0.336   3.836   5.742
 3198SOL    HW210275   0.354   3.700   5.805
 3199SOL     OW10276   0.564   3.943   6.750
 3199SOL    HW110277   0.601   3.867   6.795
 3199SOL    HW210278   0.472   3.944   6.778
 3200SOL     OW10279   1.018   3.769   6.331
 3200SOL    HW110280   0.955   3.758   6.260
 3200SOL    HW210281   0.995   3.702   6.395
 3201SOL     OW10282   0.922   3.804   6.988
 3201SOL    HW110283   0.950   3.786   6.898
 3201SOL    HW210284   0.994   3.856   7.025
 3202SOL     OW10285   1.265   0.079   6.850
 3202SOL    HW110286   1.284   0.146   6.915
 3202SOL    HW210287   1.196   0.118   6.795
 3203SOL     OW10288   0.504   3.751   7.340
 3203SOL    HW110289   0.455   3.704   7.272
 3203SOL    HW210290   0.467   3.839   7.339
 3204SOL     OW10291   0.305   3.926   6.840
 3204SOL    HW110292   0.262   3.944   6.924
 3204SOL    HW210293   0.288   3.833   6.824
 3205SOL     OW10294   1.575   3.957   5.707
 3205SOL    HW110295   1.514   3.901   5.755
 3205SOL    HW210296   1.598   0.027   5.769
 3206SOL     OW10297   1.164   3.926   7.060
 3206SOL    HW110298   1.168   3.998   7.122
 3206SOL    HW210299   1.202   3.961   6.979
 3207SOL     OW10300   0.900   3.813   5.696
 3207SOL    HW110301   0.963   3.782   5.630
 3207SOL    HW210302   0.940   3.788   5.779
 3208SOL     OW10303   1.715   3.859   6.094
 3208SOL    HW110304   1.791   3.845   6.037
 3208SOL    HW210305   1.702   3.775   6.138
 3209SOL     OW10306   1.835   3.886   6.556
 3209SOL    HW110307   1.871   3.803   6.523
 3209SOL    HW210308   1.753   3.897   6.508
 3210SOL     OW10309   0.672   3.911   7.080
 3210SOL    HW110310   0.754   3.907   7.031
 3210SOL    HW210311   0.699   3.933   7.169
 3211SOL     OW10312   0.070   0.036   5.566
 3211SOL    HW110313   3.977   0.033   5.590
 3211SOL    HW210314   0.101   0.120   5.599
 3212SOL     OW10315   0.103   3.910   5.950
 3212SOL    HW110316   0.079   3.991   5.906
 3212SOL    HW210317   0.182   3.881   5.905
 3213SOL     OW10318   1.188   0.011   6.056
 3213SOL    HW110319   1.260   3.949   6.048
 3213SOL    HW210320   1.213   0.070   6.127
 3214SOL     OW10321   1.785   0.046   7.228
 3214SOL    HW110322   1.761   0.078   7.141
 3214SOL    HW210323   1.704   0.010   7.264
 3215SOL     OW10324   1.818   3.913   6.824
 3215SOL    HW110325   1.823   3.822   6.852
 3215SOL    HW210326   1.823   3.910   6.729
 3216SOL     OW10327   1.438   3.935   6.704
 3216SOL    HW110328   1.471   3.858   6.750
 3216SOL    HW210329   1.378   3.976   6.766
 3217SOL     OW10330   1.012   3.738   6.737
 3217SOL    HW110331   0.955   3.681   6.686
 3217SOL    HW210332   1.098   3.697   6.732
 3218SOL     OW10333   1.352   3.772   5.745
 3218SOL    HW110334   1.382   3.706   5.682
 3218SOL    HW210335   1.265   3.741   5.772
 3219SOL     OW10336   1.283   0.162   6.271
 3219SOL    HW110337   1.275   0.257   6.276
 3219SOL    HW210338   1.292   0.133   6.362
 3220SOL     OW10339   1.581   3.930   6.463
 3220SOL    HW110340   1.527   3.934   6.541
 3220SOL    HW210341   1.582   0.019   6.429
 3221SOL     OW10342   0.233   3.956   8.419
 3221SOL    HW110343   0.251   3.963   8.513
 3221SOL    HW210344   0.139   3.972   8.412
 3222SOL     OW10345   0.015   0.100   8.081
 3222SOL    HW110346   3.931   0.092   8.126
 3222SOL    HW210347   0.007   0.044   8.003
 3223SOL     OW10348   1.777   0.320   7.645
 3223SOL    HW110349   1.705   0.304   7.585
 3223SOL    HW210350   1.736   0.329   7.731
 3224SOL     OW10351   0.441   0.101   8.960
 3224SOL    HW110352   0.512   0.061   8.910
 3224SOL    HW210353   0.363   0.051   8.935
 3225SOL     OW10354   1.597   3.846   8.914
 3225SOL    HW110355   1.597   3.930   8.867
 3225SOL    HW210356   1.583   3.869   9.005
 3226SOL     OW10357   0.805   3.728   7.949
 3226SOL    HW110358   0.833   3.820   7.943
 3226SOL    HW210359   0.711   3.732   7.962
 3227SOL     OW10360   1.269   0.063   8.389
 3227SOL    HW110361   1.199   0.007   8.355
 3227SOL    HW210362   1.325   0.004   8.438
 3228SOL     OW10363   0.552   3.905   8.337
 3228SOL    HW110364   0.549   3.926   8.430
 3228SOL    HW210365   0.548   3.991   8.294
 3229SOL     OW10366   0.195   3.986   8.946
 3229SOL    HW110367   0.107   0.025   8.943
 3229SOL    HW210368   0.188   3.913   9.007
 3230SOL     OW10369   1.405   3.834   7.874
 3230SOL    HW110370   1.396   3.800   7.785
 3230SOL    HW210371   1.498   3.827   7.894
 3231SOL     OW10372   1.534   3.943   9.171
 3231SOL    HW110373   1.560   3.947   9.263
 3231SOL    HW210374   1.470   3.872   9.168
 3232SOL     OW10375   0.623   3.851   7.568
 3232SOL    HW110376   0.714   3.820   7.576
 3232SOL    HW210377   0.588   3.803   7.493
 3233SOL     OW10378   0.773   3.962   9.193
 3233SOL    HW110379   0.832   3.932   9.261
 3233SOL    HW210380   0.690   3.977   9.238
 3234SOL     OW10381   0.532   3.787   7.957
 3234SOL    HW110382   0.478   3.790   8.036
 3234SOL    HW210383   0.545   3.878   7.933
 3235SOL     OW10384   0.288   3.757   7.627
 3235SOL    HW110385   0.337   3.836   7.603
 3235SOL    HW210386   0.354   3.699   7.667
 3236SOL     OW10387   0.564   3.944   8.612
 3236SOL    HW110388   0.601   3.867   8.656
 3236SOL    HW210389   0.472   3.944   8.640
 3237SOL     OW10390   1.018   3.769   8.193
 3237SOL    HW110391   0.955   3.758   8.122
 3237SOL    HW210392   0.995   3.702   8.256
 3238SOL     OW10393   0.922   3.805   8.850
 3238SOL    HW110394   0.949   3.786   8.760
 3238SOL    HW210395   0.994   3.856   8.887
 3239SOL     OW10396   1.265   0.079   8.712
 3239SOL    HW110397   1.284   0.146   8.777
 3239SOL    HW210398   1.196   0.117   8.657
 3240SOL     OW10399   0.504   3.751   9.201
 3240SOL    HW110400   0.455   3.704   9.134
 3240SOL    HW210401   0.467   3.839   9.202
 3241SOL     OW10402   0.305   3.926   8.702
 3241SOL    HW110403   0.262   3.944   8.786
 3241SOL    HW210404   0.288   3.833   8.686
 3242SOL     OW10405   1.576   3.957   7.570
 3242SOL    HW110406   1.513   3.902   7.617
 3242SOL    HW210407   1.596   0.028   7.631
 3243SOL     OW10408   1.164   3.926   8.922
 3243SOL    HW110409   1.169   3.998   8.984
 3243SOL    HW210410   1.202   3.961   8.841
 3244SOL     OW10411   0.900   3.813   7.558
 3244SOL    HW110412   0.963   3.782   7.492
 3244SOL    HW210413   0.940   3.788   7.641
 3245SOL     OW10414   1.716   3.859   7.956
 3245SOL    HW110415   1.791   3.845   7.899
 3245SOL    HW210416   1.703   3.775   8.000
 3246SOL     OW10417   1.835   3.886   8.418
 3246SOL    HW110418   1.871   3.803   8.385
 3246SOL    HW210419   1.753   3.897   8.370
 3247SOL     OW10420   0.672   3.911   8.942
 3247SOL    HW110421   0.754   3.907   8.893
 3247SOL    HW210422   0.699   3.934   9.031
 3248SOL     OW10423   0.070   0.035   7.428
 3248SOL    HW110424   3.977   0.033   7.452
 3248SOL    HW210425   0.101   0.120   7.461
 3249SOL     OW10426   0.104   3.910   7.813
 3249SOL    HW110427   0.079   3.991   7.768
 3249SOL    HW210428   0.182   3.880   7.767
 3250SOL     OW10429   1.188   0.011   7.918
 3250SOL    HW110430   1.260   3.949   7.910
 3250SOL    HW210431   1.214   0.070   7.989
 3251SOL     OW10432   1.785   0.047   9.090
 3251SOL    HW110433   1.760   0.077   9.002
 3251SOL    HW210434   1.704   0.010   9.126
 3252SOL     OW10435   1.818   3.914   8.686
 3252SOL    HW110436   1.823   3.822   8.714
 3252SOL    HW210437   1.823   3.910   8.591
 3253SOL     OW10438   1.438   3.935   8.566
 3253SOL    HW110439   1.471   3.858   8.612
 3253SOL    HW210440   1.378   3.976   8.628
 3254SOL     OW10441   1.012   3.738   8.599
 3254SOL    HW110442   0.955   3.681   8.548
 3254SOL    HW210443   1.098   3.697   8.594
 3255SOL     OW10444   1.352   3.772   7.607
 3255SOL    HW110445   1.381   3.706   7.544
 3255SOL    HW210446   1.265   3.741   7.634
 3256SOL     OW10447   1.283   0.162   8.133
 3256SOL    HW110448   1.275   0.257   8.139
 3256SOL    HW210449   1.292   0.133   8.224
 3257SOL     OW10450   1.581   3.930   8.325
 3257SOL    HW110451   1.527   3.934   8.403
 3257SOL    HW210452   1.582   0.019   8.291
 3258SOL     OW10453   0.233   3.956  10.281
 3258SOL    HW110454   0.252   3.964  10.375
 3258SOL    HW210455   0.139   3.972  10.273
 3259SOL     OW10456   0.015   0.100   9.943
 3259SOL    HW110457   3.931   0.092   9.988
 3259SOL    HW210458   0.006   0.044   9.865
 3260SOL     OW10459   1.777   0.321   9.507
 3260SOL    HW110460   1.704   0.303   9.447
 3260SOL    HW210461   1.737   0.329   9.593
 3261SOL     OW10462   0.441   0.101  10.821
 3261SOL    HW110463   0.512   0.061  10.772
 3261SOL    HW210464   0.363   0.051  10.797
 3262SOL     OW10465   1.597   3.846  10.775
 3262SOL    HW110466   1.598   3.930  10.730
 3262SOL    HW210467   1.583   3.869  10.867
 3263SOL     OW10468   0.805   3.728   9.811
 3263SOL    HW110469   0.833   3.819   9.805
 3263SOL    HW210470   0.711   3.732   9.824
 3264SOL     OW10471   1.269   0.063  10.250
 3264SOL    HW110472   1.199   0.007  10.217
 3264SOL    HW210473   1.325   0.004  10.300
 3265SOL     OW10474   0.552   3.906  10.199
 3265SOL    HW110475   0.549   3.925  10.292
 3265SOL    HW210476   0.548   3.991  10.156
 3266SOL     OW10477   0.195   3.986  10.807
 3266SOL    HW110478   0.107   0.025  10.805
 3266SOL    HW210479   0.188   3.914  10.869
 3267SOL     OW10480   1.405   3.835   9.736
 3267SOL    HW110481   1.396   3.800   9.648
 3267SOL    HW210482   1.498   3.827   9.756
 3268SOL     OW10483   1.534   3.942  11.033
 3268SOL    HW110484   1.560   3.947  11.125
 3268SOL    HW210485   1.470   3.871  11.030
 3269SOL     OW10486   0.623   3.851   9.430
 3269SOL    HW110487   0.714   3.820   9.438
 3269SOL    HW210488   0.588   3.803   9.355
 3270SOL     OW10489   0.773   3.961  11.055
 3270SOL    HW110490   0.832   3.932  11.123
 3270SOL    HW210491   0.690   3.977  11.100
 3271SOL     OW10492   0.532   3.787   9.819
 3271SOL    HW110493   0.478   3.790   9.899
 3271SOL    HW210494   0.545   3.878   9.796
 3272SOL     OW10495   0.288   3.757   9.489
 3272SOL    HW110496   0.337   3.836   9.466
 3272SOL    HW210497   0.354   3.699   9.529
 3273SOL     OW10498   0.564   3.943  10.474
 3273SOL    HW110499   0.602   3.868  10.519
 3273SOL    HW210500   0.472   3.944  10.502
 3274SOL     OW10501   1.018   3.769  10.055
 3274SOL    HW110502   0.955   3.758   9.984
 3274SOL    HW210503   0.995   3.702  10.119
 3275SOL     OW10504   0.922   3.805  10.712
 3275SOL    HW110505   0.949   3.786  10.622
 3275SOL    HW210506   0.994   3.856  10.749
 3276SOL     OW10507   1.265   0.079  10.574
 3276SOL    HW110508   1.285   0.146  10.639
 3276SOL    HW210509   1.196   0.118  10.520
 3277SOL     OW10510   0.504   3.751  11.063
 3277SOL    HW110511   0.455   3.704  10.996
 3277SOL    HW210512   0.467   3.839  11.064
 3278SOL     OW10513   0.305   3.926  10.564
 3278SOL    HW110514   0.262   3.944  10.648
 3278SOL    HW210515   0.288   3.833  10.548
 3279SOL     OW10516   1.575   3.958   9.431
 3279SOL    HW110517   1.514   3.901   9.479
 3279SOL    HW210518   1.598   0.027   9.494
 3280SOL     OW10519   1.164   3.925  10.783
 3280SOL    HW110520   1.169   3.997  10.846
 3280SOL    HW210521   1.202   3.961  10.703
 3281SOL     OW10522   0.900   3.812   9.419
 3281SOL    HW110523   0.963   3.781   9.354
 3281SOL    HW210524   0.939   3.788   9.503
 3282SOL     OW10525   1.715   3.859   9.818
 3282SOL    HW110526   1.791   3.845   9.761
 3282SOL    HW210527   1.702   3.775   9.862
 3283SOL     OW10528   1.835   3.886  10.280
 3283SOL    HW110529   1.871   3.803  10.247
 3283SOL    HW210530   1.753   3.897  10.232
 3284SOL     OW10531   0.672   3.911  10.804
 3284SOL    HW110532   0.754   3.907  10.755
 3284SOL    HW210533   0.699   3.933  10.893
 3285SOL     OW10534   0.070   0.036   9.290
 3285SOL    HW110535   3.977   0.033   9.314
 3285SOL    HW210536   0.101   0.120   9.323
 3286SOL     OW10537   0.104   3.910   9.675
 3286SOL    HW110538   0.079   3.991   9.630
 3286SOL    HW210539   0.182   3.881   9.629
 3287SOL     OW10540   1.188   0.012   9.780
 3287SOL    HW110541   1.260   3.949   9.772
 3287SOL    HW210542   1.214   0.070   9.851
 3288SOL     OW10543   1.785   0.047  10.952
 3288SOL    HW110544   1.761   0.077  10.864
 3288SOL    HW210545   1.704   0.010  10.988
 3289SOL     OW10546   1.818   3.914  10.548
 3289SOL    HW110547   1.823   3.822  10.576
 3289SOL    HW210548   1.823   3.910  10.453
 3290SOL     OW10549   1.437   3.934  10.428
 3290SOL    HW110550   1.472   3.858  10.474
 3290SOL    HW210551   1.378   3.976  10.490
 3291SOL     OW10552   1.012   3.738  10.461
 3291SOL    HW110553   0.955   3.680  10.411
 3291SOL    HW210554   1.099   3.697  10.456
 3292SOL     OW10555   1.352   3.772   9.469
 3292SOL    HW110556   1.382   3.706   9.406
 3292SOL    HW210557   1.265   3.741   9.496
 3293SOL     OW10558   1.283   0.162   9.995
 3293SOL    HW110559   1.275   0.257  10.001
 3293SOL    HW210560   1.292   0.133  10.085
 3294SOL     OW10561   1.581   3.930  10.187
 3294SOL    HW110562   1.527   3.934  10.265
 3294SOL    HW210563   1.582   0.019  10.153
 3295SOL     OW10564   0.233   3.956  12.143
 3295SOL    HW110565   0.252   3.963  12.237
 3295SOL    HW210566   0.139   3.972  12.136
 3296SOL     OW10567   0.015   0.100  11.805
 3296SOL    HW110568   3.931   0.092  11.850
 3296SOL    HW210569   0.006   0.044  11.727
 3297SOL     OW10570   1.777   0.321  11.369
 3297SOL    HW110571   1.704   0.304  11.309
 3297SOL    HW210572   1.736   0.329  11.455
 3298SOL     OW10573   0.440   0.101  12.684
 3298SOL    HW110574   0.512   0.062  12.634
 3298SOL    HW210575   0.363   0.051  12.659
 3299SOL     OW10576   1.597   3.846  12.637
 3299SOL    HW110577   1.598   3.930  12.592
 3299SOL    HW210578   1.583   3.869  12.729
 3300SOL     OW10579   0.805   3.728  11.673
 3300SOL    HW110580   0.833   3.819  11.667
 3300SOL    HW210581   0.711   3.732  11.686
 3301SOL     OW10582   1.269   0.063  12.112
 3301SOL    HW110583   1.199   0.007  12.079
 3301SOL    HW210584   1.325   0.004  12.162
 3302SOL     OW10585   0.552   3.906  12.061
 3302SOL    HW110586   0.549   3.925  12.154
 3302SOL    HW210587   0.548   3.991  12.018
 3303SOL     OW10588   0.195   3.986  12.669
 3303SOL    HW110589   0.107   0.024  12.667
 3303SOL    HW210590   0.187   3.913  12.730
 3304SOL     OW10591   1.405   3.835  11.598
 3304SOL    HW110592   1.396   3.800  11.510
 3304SOL    HW210593   1.498   3.827  11.618
 3305SOL     OW10594   1.534   3.942  12.895
 3305SOL    HW110595   1.559   3.949  12.987
 3305SOL    HW210596   1.470   3.871  12.892
 3306SOL     OW10597   0.623   3.851  11.292
 3306SOL    HW110598   0.714   3.821  11.300
 3306SOL    HW210599   0.588   3.803  11.217
 3307SOL     OW10600   0.772   3.961  12.917
 3307SOL    HW110601   0.833   3.932  12.985
 3307SOL    HW210602   0.689   3.975  12.963
 3308SOL     OW10603   0.532   3.787  11.681
 3308SOL    HW110604   0.478   3.790  11.761
 3308SOL    HW210605   0.545   3.878  11.658
 3309SOL     OW10606   0.288   3.757  11.351
 3309SOL    HW110607   0.337   3.836  11.328
 3309SOL    HW210608   0.354   3.700  11.391
 3310SOL     OW10609   0.564   3.943  12.336
 3310SOL    HW110610   0.602   3.868  12.381
 3310SOL    HW210611   0.472   3.944  12.364
 3311SOL     OW10612   1.018   3.769  11.917
 3311SOL    HW110613   0.955   3.758  11.846
 3311SOL    HW210614   0.995   3.702  11.981
 3312SOL     OW10615   0.922   3.805  12.574
 3312SOL    HW110616   0.949   3.786  12.484
 3312SOL    HW210617   0.994   3.856  12.611
 3313SOL     OW10618   1.265   0.079  12.436
 3313SOL    HW110619   1.285   0.146  12.501
 3313SOL    HW210620   1.196   0.118  12.382
 3314SOL     OW10621   0.504   3.751  12.926
 3314SOL    HW110622   0.454   3.704  12.858
 3314SOL    HW210623   0.467   3.839  12.924
 3315SOL     OW10624   0.305   3.926  12.426
 3315SOL    HW110625   0.262   3.944  12.510
 3315SOL    HW210626   0.288   3.833  12.410
 3316SOL     OW10627   1.575   3.958  11.293
 3316SOL    HW110628   1.514   3.901  11.341
 3316SOL    HW210629   1.598   0.027  11.356
 3317SOL     OW10630   1.164   3.926  12.645
 3317SOL    HW110631   1.169   3.997  12.708
 3317SOL    HW210632   1.202   3.961  12.565
 3318SOL     OW10633   0.900   3.813  11.282
 3318SOL    HW110634   0.963   3.782  11.216
 3318SOL    HW210635   0.939   3.788  11.365
 3319SOL     OW10636   1.715   3.859  11.680
 3319SOL    HW110637   1.791   3.845  11.623
 3319SOL    HW210638   1.702   3.775  11.724
 3320SOL     OW10639   1.835   3.886  12.142
 3320SOL    HW110640   1.871   3.803  12.110
 3320SOL    HW210641   1.753   3.897  12.094
 3321SOL     OW10642   0.672   3.911  12.666
 3321SOL    HW110643   0.754   3.907  12.617
 3321SOL    HW210644   0.699   3.934  12.755
 3322SOL     OW10645   0.070   0.036  11.151
 3322SOL    HW110646   3.977   0.033  11.176
 3322SOL    HW210647   0.101   0.120  11.185
 3323SOL     OW10648   0.103   3.910  11.537
 3323SOL    HW110649   0.079   3.991  11.492
 3323SOL    HW210650   0.182   3.881  11.491
 3324SOL     OW10651   1.188   0.012  11.642
 3324SOL    HW110652   1.260   3.949  11.634
 3324SOL    HW210653   1.213   0.070  11.713
 3325SOL     OW10654   1.785   0.047  12.814
 3325SOL    HW110655   1.760   0.077  12.726
 3325SOL    HW210656   1.704   0.010  12.850
 3326SOL     OW10657   1.817   3.914  12.410
 3326SOL    HW110658   1.823   3.822  12.438
 3326SOL    HW210659   1.823   3.910  12.315
 3327SOL     OW10660   1.437   3.934  12.290
 3327SOL    HW110661   1.472   3.858  12.336
 3327SOL    HW210662   1.378   3.976  12.352
 3328SOL     OW10663   1.012   3.738  12.323
 3328SOL    HW110664   0.955   3.680  12.273
 3328SOL    HW210665   1.098   3.697  12.318
 3329SOL     OW10666   1.352   3.772  11.331
 3329SOL    HW110667   1.382   3.706  11.268
 3329SOL    HW210668   1.265   3.741  11.358
 3330SOL     OW10669   1.283   0.162  11.857
 3330SOL    HW110670   1.275   0.257  11.863
 3330SOL    HW210671   1.292   0.133  11.947
 3331SOL     OW10672   1.581   3.930  12.048
 3331SOL    HW110673   1.527   3.934  12.127
 3331SOL    HW210674   1.582   0.019  12.015
 3332SOL     OW10675   0.011   0.098  13.657
 3332SOL    HW110676   3.916   0.095  13.669
 3332SOL    HW210677   0.026   0.045  13.579
 3333SOL     OW10678   1.777   0.321  13.231
 3333SOL    HW110679   1.702   0.307  13.173
 3333SOL    HW210680   1.742   0.314  13.320
 3334SOL     OW10681   1.613   0.172  13.766
 3334SOL    HW110682   1.526   0.160  13.728
 3334SOL    HW210683   1.609   0.258  13.809
 3335SOL     OW10684   0.807   3.728  13.536
 3335SOL    HW110685   0.833   3.820  13.530
 3335SOL    HW210686   0.712   3.730  13.549
 3336SOL     OW10687   1.404   3.834  13.459
 3336SOL    HW110688   1.397   3.800  13.370
 3336SOL    HW210689   1.497   3.831  13.480
 3337SOL     OW10690   0.623   3.852  13.153
 3337SOL    HW110691   0.713   3.821  13.163
 3337SOL    HW210692   0.588   3.803  13.078
 3338SOL     OW10693   0.534   3.784  13.541
 3338SOL    HW110694   0.478   3.778  13.619
 3338SOL    HW210695   0.543   3.878  13.526
 3339SOL     OW10696   0.289   3.759  13.213
 3339SOL    HW110697   0.344   3.832  13.184
 3339SOL    HW210698   0.350   3.698  13.255
 3340SOL     OW10699   1.011   3.766  13.778
 3340SOL    HW110700   0.955   3.761  13.700
 3340SOL    HW210701   0.992   3.687  13.827
 3341SOL     OW10702   1.572   3.961  13.155
 3341SOL    HW110703   1.518   3.900  13.205
 3341SOL    HW210704   1.609   0.020  13.222
 3342SOL     OW10705   0.901   3.813  13.144
 3342SOL    HW110706   0.962   3.782  13.078
 3342SOL    HW210707   0.940   3.787  13.227
 3343SOL     OW10708   1.726   3.858  13.557
 3343SOL    HW110709   1.793   3.846  13.490
 3343SOL    HW210710   1.709   3.770  13.590
 3344SOL     OW10711   1.846   3.889   0.059
 3344SOL    HW110712   1.868   3.796   0.055
 3344SOL    HW210713   1.753   3.891   0.083
 3345SOL     OW10714   0.071   0.035  13.016
 3345SOL    HW110715   3.978   0.032  13.039
 3345SOL    HW210716   0.101   0.120  13.048
 3346SOL     OW10717   0.112   3.916  13.401
 3346SOL    HW110718   0.083   3.989  13.346
 3346SOL    HW210719   0.184   3.876  13.352
 3347SOL     OW10720   1.184   0.006  13.512
 3347SOL    HW110721   1.259   3.949  13.494
 3347SOL    HW210722   1.216   0.068  13.577
 3348SOL     OW10723   1.352   3.772  13.193
 3348SOL    HW110724   1.382   3.706  13.130
 3348SOL    HW210725   1.265   3.741  13.220
 3349SOL     OW10726   1.304   0.159  13.733
 3349SOL    HW110727   1.267   0.246  13.715
 3349SOL    HW210728   1.296   0.149  13.828
 3350SOL     OW10729   2.096   0.644   0.117
 3350SOL    HW110730   2.011   0.615   0.149
 3350SOL    HW210731   2.111   0.592   0.038
 3351SOL     OW10732   2.079   0.297   0.991
 3351SOL    HW110733   2.117   0.256   1.069
 3351SOL    HW210734   1.996   0.251   0.977
 3352SOL     OW10735   1.872   0.396   0.636
 3352SOL    HW110736   1.784   0.409   0.672
 3352SOL    HW210737   1.863   0.321   0.577
 3353SOL     OW10738   2.429   1.284   1.173
 3353SOL    HW110739   2.341   1.287   1.135
 3353SOL    HW210740   2.444   1.373   1.206
 3354SOL     OW10741   3.421   1.511   0.706
 3354SOL    HW110742   3.376   1.492   0.788
 3354SOL    HW210743   3.351   1.515   0.641
 3355SOL     OW10744   2.993   0.698   0.702
 3355SOL    HW110745   3.042   0.780   0.688
 3355SOL    HW210746   2.946   0.712   0.784
 3356SOL     OW10747   3.609   0.629   0.227
 3356SOL    HW110748   3.622   0.613   0.134
 3356SOL    HW210749   3.618   0.543   0.267
 3357SOL     OW10750   2.620   1.143   1.039
 3357SOL    HW110751   2.550   1.177   1.095
 3357SOL    HW210752   2.654   1.221   0.994
 3358SOL     OW10753   2.727   0.777   1.822
 3358SOL    HW110754   2.714   0.849   1.885
 3358SOL    HW210755   2.750   0.821   1.740
 3359SOL     OW10756   2.548   1.004   0.648
 3359SOL    HW110757   2.612   0.991   0.717
 3359SOL    HW210758   2.478   1.056   0.689
 3360SOL     OW10759   2.571   1.151   1.810
 3360SOL    HW110760   2.619   1.230   1.837
 3360SOL    HW210761   2.488   1.184   1.777
 3361SOL     OW10762   2.193   1.425   1.069
 3361SOL    HW110763   2.119   1.391   1.019
 3361SOL    HW210764   2.244   1.475   1.005
 3362SOL     OW10765   3.323   1.499   1.352
 3362SOL    HW110766   3.371   1.581   1.362
 3362SOL    HW210767   3.265   1.496   1.429
 3363SOL     OW10768   2.304   0.397   1.495
 3363SOL    HW110769   2.391   0.358   1.493
 3363SOL    HW210770   2.244   0.322   1.502
 3364SOL     OW10771   3.473   0.450   0.737
 3364SOL    HW110772   3.402   0.484   0.682
 3364SOL    HW210773   3.501   0.525   0.789
 3365SOL     OW10774   2.104   1.701   0.479
 3365SOL    HW110775   2.139   1.772   0.533
 3365SOL    HW210776   2.166   1.693   0.407
 3366SOL     OW10777   2.998   1.342   1.692
 3366SOL    HW110778   3.038   1.337   1.779
 3366SOL    HW210779   2.945   1.262   1.686
 3367SOL     OW10780   2.082   1.436   0.534
 3367SOL    HW110781   2.078   1.531   0.535
 3367SOL    HW210782   2.023   1.408   0.603
 3368SOL     OW10783   2.118   1.090   0.890
 3368SOL    HW110784   2.115   1.004   0.931
 3368SOL    HW210785   2.061   1.144   0.944
 3369SOL     OW10786   2.475   1.791   1.430
 3369SOL    HW110787   2.393   1.774   1.476
 3369SOL    HW210788   2.499   1.880   1.457
 3370SOL     OW10789   2.434   0.980   0.155
 3370SOL    HW110790   2.456   1.032   0.078
 3370SOL    HW210791   2.487   1.017   0.226
 3371SOL     OW10792   3.441   0.136   1.458
 3371SOL    HW110793   3.462   0.210   1.401
 3371SOL    HW210794   3.416   0.176   1.541
 3372SOL     OW10795   1.976   0.653   0.558
 3372SOL    HW110796   1.950   0.564   0.581
 3372SOL    HW210797   1.969   0.702   0.640
 3373SOL     OW10798   3.705   1.762   0.335
 3373SOL    HW110799   3.763   1.727   0.402
 3373SOL    HW210800   3.730   1.854   0.328
 3374SOL     OW10801   1.893   1.596   0.106
 3374SOL    HW110802   1.893   1.503   0.127
 3374SOL    HW210803   1.868   1.639   0.188
 3375SOL     OW10804   3.548   0.917   0.641
 3375SOL    HW110805   3.634   0.876   0.627
 3375SOL    HW210806   3.532   0.968   0.562
 3376SOL     OW10807   3.505   1.106   0.432
 3376SOL    HW110808   3.591   1.113   0.391
 3376SOL    HW210809   3.508   1.168   0.505
 3377SOL     OW10810   1.984   0.747   1.582
 3377SOL    HW110811   2.076   0.772   1.593
 3377SOL    HW210812   1.936   0.829   1.591
 3378SOL     OW10813   2.476   1.383   0.734
 3378SOL    HW110814   2.429   1.300   0.743
 3378SOL    HW210815   2.458   1.411   0.644
 3379SOL     OW10816   3.151   1.239   1.424
 3379SOL    HW110817   3.184   1.172   1.364
 3379SOL    HW210818   3.208   1.232   1.501
 3380SOL     OW10819   2.681   0.002   0.517
 3380SOL    HW110820   2.724   0.083   0.492
 3380SOL    HW210821   2.587   0.024   0.518
 3381SOL     OW10822   2.053   0.967   1.270
 3381SOL    HW110823   2.137   0.925   1.255
 3381SOL    HW210824   1.990   0.911   1.225
 3382SOL     OW10825   3.394   0.993   0.202
 3382SOL    HW110826   3.325   0.934   0.233
 3382SOL    HW210827   3.431   1.030   0.282
 3383SOL     OW10828   3.046   1.805   1.621
 3383SOL    HW110829   3.061   1.863   1.546
 3383SOL    HW210830   3.063   1.717   1.587
 3384SOL     OW10831   2.212   0.255   1.818
 3384SOL    HW110832   2.257   0.340   1.821
 3384SOL    HW210833   2.120   0.276   1.832
 3385SOL     OW10834   3.327   1.420   0.952
 3385SOL    HW110835   3.259   1.434   1.018
 3385SOL    HW210836   3.316   1.329   0.926
 3386SOL     OW10837   3.523   1.737   0.583
 3386SOL    HW110838   3.500   1.713   0.493
 3386SOL    HW210839   3.499   1.660   0.635
 3387SOL     OW10840   2.458   0.721   0.261
 3387SOL    HW110841   2.463   0.803   0.212
 3387SOL    HW210842   2.399   0.740   0.334
 3388SOL     OW10843   3.138   0.363   0.940
 3388SOL    HW110844   3.051   0.323   0.945
 3388SOL    HW210845   3.195   0.302   0.986
 3389SOL     OW10846   3.425   1.729   0.312
 3389SOL    HW110847   3.520   1.729   0.310
 3389SOL    HW210848   3.400   1.688   0.229
 3390SOL     OW10849   2.658   0.616   1.454
 3390SOL    HW110850   2.629   0.593   1.542
 3390SOL    HW210851   2.616   0.552   1.397
 3391SOL     OW10852   3.255   0.476   1.677
 3391SOL    HW110853   3.258   0.521   1.762
 3391SOL    HW210854   3.315   0.403   1.686
 3392SOL     OW10855   2.818   0.888   1.582
 3392SOL    HW110856   2.872   0.818   1.547
 3392SOL    HW210857   2.770   0.922   1.506
 3393SOL     OW10858   2.853   0.403   1.241
 3393SOL    HW110859   2.771   0.430   1.283
 3393SOL    HW210860   2.827   0.371   1.155
 3394SOL     OW10861   2.912   0.701   0.428
 3394SOL    HW110862   2.927   0.692   0.522
 3394SOL    HW210863   2.830   0.654   0.412
 3395SOL     OW10864   1.951   0.822   0.775
 3395SOL    HW110865   2.031   0.813   0.826
 3395SOL    HW210866   1.908   0.900   0.811
 3396SOL     OW10867   2.736   0.360   0.216
 3396SOL    HW110868   2.775   0.416   0.150
 3396SOL    HW210869   2.741   0.272   0.179
 3397SOL     OW10870   3.574   0.575   1.829
 3397SOL    HW110871   3.536   0.651   1.784
 3397SOL    HW210872   3.596   0.514   1.758
 3398SOL     OW10873   3.237   1.142   0.542
 3398SOL    HW110874   3.316   1.129   0.490
 3398SOL    HW210875   3.185   1.205   0.493
 3399SOL     OW10876   2.417   0.197   0.883
 3399SOL    HW110877   2.421   0.215   0.977
 3399SOL    HW210878   2.415   0.284   0.842
 3400SOL     OW10879   2.870   1.443   0.476
 3400SOL    HW110880   2.833   1.516   0.425
 3400SOL    HW210881   2.852   1.466   0.567
 3401SOL     OW10882   2.216   1.792   0.865
 3401SOL    HW110883   2.255   1.705   0.876
 3401SOL    HW210884   2.285   1.853   0.889
 3402SOL     OW10885   3.665   1.062   0.866
 3402SOL    HW110886   3.609   1.041   0.792
 3402SOL    HW210887   3.605   1.066   0.941
 3403SOL     OW10888   3.089   1.539   1.513
 3403SOL    HW110889   3.076   1.466   1.574
 3403SOL    HW210890   3.028   1.522   1.441
 3404SOL     OW10891   2.177   0.941   0.228
 3404SOL    HW110892   2.269   0.953   0.203
 3404SOL    HW210893   2.163   0.846   0.223
 3405SOL     OW10894   3.337   0.742   0.731
 3405SOL    HW110895   3.330   0.697   0.816
 3405SOL    HW210896   3.415   0.797   0.739
 3406SOL     OW10897   2.328   1.263   1.738
 3406SOL    HW110898   2.300   1.268   1.646
 3406SOL    HW210899   2.246   1.261   1.788
 3407SOL     OW10900   2.982   1.781   0.232
 3407SOL    HW110901   2.921   1.732   0.288
 3407SOL    HW210902   3.011   1.716   0.168
 3408SOL     OW10903   2.038   0.277   1.497
 3408SOL    HW110904   1.975   0.349   1.494
 3408SOL    HW210905   2.046   0.257   1.590
 3409SOL     OW10906   3.495   1.371   0.082
 3409SOL    HW110907   3.459   1.456   0.057
 3409SOL    HW210908   3.425   1.308   0.062
 3410SOL     OW10909   2.335   1.726   0.328
 3410SOL    HW110910   2.373   1.793   0.384
 3410SOL    HW210911   2.400   1.714   0.259
 3411SOL     OW10912   3.296   0.145   0.395
 3411SOL    HW110913   3.257   0.061   0.370
 3411SOL    HW210914   3.377   0.121   0.441
 3412SOL     OW10915   2.153   1.763   1.226
 3412SOL    HW110916   2.193   1.683   1.259
 3412SOL    HW210917   2.119   1.740   1.139
 3413SOL     OW10918   2.799   1.698   0.900
 3413SOL    HW110919   2.877   1.647   0.920
 3413SOL    HW210920   2.755   1.649   0.831
 3414SOL     OW10921   2.253   0.696   0.474
 3414SOL    HW110922   2.276   0.604   0.484
 3414SOL    HW210923   2.160   0.700   0.497
 3415SOL     OW10924   3.394   0.232   1.727
 3415SOL    HW110925   3.392   0.257   1.819
 3415SOL    HW210926   3.362   0.142   1.725
 3416SOL     OW10927   2.482   0.100   0.118
 3416SOL    HW110928   2.577   0.101   0.126
 3416SOL    HW210929   2.465   0.130   0.028
 3417SOL     OW10930   2.640   0.281   1.763
 3417SOL    HW110931   2.703   0.209   1.770
 3417SOL    HW210932   2.578   0.266   1.834
 3418SOL     OW10933   2.738   1.521   1.194
 3418SOL    HW110934   2.723   1.485   1.106
 3418SOL    HW210935   2.808   1.467   1.230
 3419SOL     OW10936   3.204   0.587   1.430
 3419SOL    HW110937   3.234   0.558   1.517
 3419SOL    HW210938   3.238   0.676   1.422
 3420SOL     OW10939   2.676   1.396   0.937
 3420SOL    HW110940   2.760   1.385   0.894
 3420SOL    HW210941   2.612   1.396   0.866
 3421SOL     OW10942   2.790   0.510   0.902
 3421SOL    HW110943   2.766   0.503   0.810
 3421SOL    HW210944   2.819   0.423   0.927
 3422SOL     OW10945   2.411   0.054   0.499
 3422SOL    HW110946   2.334   0.061   0.556
 3422SOL    HW210947   2.405   0.132   0.443
 3423SOL     OW10948   3.292   1.201   0.044
 3423SOL    HW110949   3.312   1.122   0.093
 3423SOL    HW210950   3.200   1.219   0.065
 3424SOL     OW10951   2.193   0.009   0.178
 3424SOL    HW110952   2.183   0.094   0.135
 3424SOL    HW210953   2.269   0.019   0.235
 3425SOL     OW10954   2.800   0.247   0.466
 3425SOL    HW110955   2.770   0.287   0.384
 3425SOL    HW210956   2.895   0.248   0.459
 3426SOL     OW10957   2.942   0.681   1.459
 3426SOL    HW110958   2.870   0.618   1.467
 3426SOL    HW210959   3.021   0.627   1.454
 3427SOL     OW10960   3.085   1.570   0.794
 3427SOL    HW110961   3.103   1.637   0.728
 3427SOL    HW210962   3.154   1.582   0.859
 3428SOL     OW10963   2.330   1.149   0.735
 3428SOL    HW110964   2.260   1.129   0.798
 3428SOL    HW210965   2.289   1.134   0.649
 3429SOL     OW10966   3.132   1.795   0.605
 3429SOL    HW110967   3.179   1.857   0.549
 3429SOL    HW210968   3.067   1.849   0.651
 3430SOL     OW10969   2.865   0.536   0.057
 3430SOL    HW110970   2.865   0.547  13.862
 3430SOL    HW210971   2.954   0.559   0.084
 3431SOL     OW10972   1.940   0.553   1.394
 3431SOL    HW110973   2.031   0.552   1.365
 3431SOL    HW210974   1.935   0.625   1.456
 3432SOL     OW10975   2.427   0.232   1.161
 3432SOL    HW110976   2.453   0.141   1.173
 3432SOL    HW210977   2.337   0.236   1.193
 3433SOL     OW10978   2.732   0.461   0.639
 3433SOL    HW110979   2.685   0.515   0.575
 3433SOL    HW210980   2.752   0.380   0.592
 3434SOL     OW10981   2.856   0.042   0.778
 3434SOL    HW110982   2.821   0.065   0.692
 3434SOL    HW210983   2.866   3.947   0.775
 3435SOL     OW10984   3.298   1.163   0.858
 3435SOL    HW110985   3.230   1.096   0.856
 3435SOL    HW210986   3.322   1.176   0.766
 3436SOL     OW10987   3.328   0.604   0.979
 3436SOL    HW110988   3.279   0.522   0.985
 3436SOL    HW210989   3.390   0.600   1.052
 3437SOL     OW10990   3.723   0.823   0.375
 3437SOL    HW110991   3.764   0.765   0.439
 3437SOL    HW210992   3.678   0.764   0.315
 3438SOL     OW10993   2.349   1.405   0.157
 3438SOL    HW110994   2.274   1.375   0.208
 3438SOL    HW210995   2.329   1.380   0.067
 3439SOL     OW10996   3.528   1.265   0.648
 3439SOL    HW110997   3.623   1.270   0.657
 3439SOL    HW210998   3.497   1.354   0.665
 3440SOL     OW10999   3.279   0.589   0.086
 3440SOL    HW111000   3.209   0.575   0.151
 3440SOL    HW211001   3.334   0.511   0.094
 3441SOL     OW11002   2.381   0.254   0.322
 3441SOL    HW111003   2.422   0.207   0.250
 3441SOL    HW211004   2.364   0.342   0.287
 3442SOL     OW11005   3.614   1.234   1.573
 3442SOL    HW111006   3.702   1.199   1.555
 3442SOL    HW211007   3.631   1.323   1.605
 3443SOL     OW11008   2.921   1.354   1.334
 3443SOL    HW111009   2.847   1.322   1.385
 3443SOL    HW211010   2.997   1.312   1.375
 3444SOL     OW11011   3.467   1.627   1.653
 3444SOL    HW111012   3.462   1.661   1.563
 3444SOL    HW211013   3.549   1.578   1.655
 3445SOL     OW11014   2.989   1.202   1.106
 3445SOL    HW111015   2.930   1.241   1.171
 3445SOL    HW211016   2.956   1.234   1.022
 3446SOL     OW11017   3.494   1.099   1.077
 3446SOL    HW111018   3.487   1.160   1.150
 3446SOL    HW211019   3.414   1.114   1.025
 3447SOL     OW11020   2.775   0.111   1.402
 3447SOL    HW111021   2.795   0.086   1.312
 3447SOL    HW211022   2.855   0.153   1.433
 3448SOL     OW11023   2.846   1.115   1.723
 3448SOL    HW111024   2.754   1.130   1.743
 3448SOL    HW211025   2.845   1.037   1.667
 3449SOL     OW11026   2.575   1.058   0.376
 3449SOL    HW111027   2.560   1.043   0.469
 3449SOL    HW211028   2.650   1.003   0.354
 3450SOL     OW11029   2.280   0.814   1.251
 3450SOL    HW111030   2.349   0.823   1.317
 3450SOL    HW211031   2.245   0.726   1.264
 3451SOL     OW11032   3.129   0.375   1.275
 3451SOL    HW111033   3.163   0.453   1.320
 3451SOL    HW211034   3.043   0.402   1.244
 3452SOL     OW11035   1.932   1.577   1.352
 3452SOL    HW111036   1.895   1.642   1.291
 3452SOL    HW211037   2.026   1.583   1.339
 3453SOL     OW11038   2.212   1.110   0.490
 3453SOL    HW111039   2.214   1.183   0.428
 3453SOL    HW211040   2.218   1.032   0.435
 3454SOL     OW11041   2.419   0.536   0.859
 3454SOL    HW111042   2.434   0.595   0.785
 3454SOL    HW211043   2.481   0.564   0.926
 3455SOL     OW11044   3.110   1.346   0.396
 3455SOL    HW111045   3.166   1.419   0.422
 3455SOL    HW211046   3.023   1.370   0.428
 3456SOL     OW11047   3.141   1.457   1.147
 3456SOL    HW111048   3.197   1.459   1.224
 3456SOL    HW211049   3.086   1.379   1.159
 3457SOL     OW11050   3.444   0.632   0.488
 3457SOL    HW111051   3.401   0.694   0.546
 3457SOL    HW211052   3.481   0.685   0.418
 3458SOL     OW11053   2.215   1.515   1.319
 3458SOL    HW111054   2.200   1.474   1.234
 3458SOL    HW211055   2.310   1.527   1.323
 3459SOL     OW11056   2.276   0.745   1.601
 3459SOL    HW111057   2.337   0.790   1.543
 3459SOL    HW211058   2.316   0.659   1.617
 3460SOL     OW11059   3.461   0.776   1.679
 3460SOL    HW111060   3.376   0.818   1.673
 3460SOL    HW211061   3.514   0.819   1.612
 3461SOL     OW11062   2.885   0.120   1.778
 3461SOL    HW111063   2.917   0.200   1.735
 3461SOL    HW211064   2.869   0.059   1.706
 3462SOL     OW11065   2.347   0.034   1.764
 3462SOL    HW111066   2.354   0.039   1.669
 3462SOL    HW211067   2.289   0.107   1.787
 3463SOL     OW11068   2.445   0.873   1.031
 3463SOL    HW111069   2.474   0.964   1.030
 3463SOL    HW211070   2.388   0.866   1.108
 3464SOL     OW11071   3.221   0.859   1.032
 3464SOL    HW111072   3.139   0.851   0.983
 3464SOL    HW211073   3.260   0.772   1.027
 3465SOL     OW11074   3.079   0.545   0.271
 3465SOL    HW111075   3.084   0.464   0.323
 3465SOL    HW211076   3.025   0.603   0.323
 3466SOL     OW11077   2.165   0.212   1.242
 3466SOL    HW111078   2.127   0.241   1.325
 3466SOL    HW211079   2.151   0.117   1.240
 3467SOL     OW11080   1.907   1.313   1.278
 3467SOL    HW111081   1.941   1.258   1.349
 3467SOL    HW211082   1.916   1.402   1.311
 3468SOL     OW11083   2.588   0.633   1.057
 3468SOL    HW111084   2.661   0.617   0.997
 3468SOL    HW211085   2.559   0.722   1.035
 3469SOL     OW11086   3.595   0.956   1.857
 3469SOL    HW111087   3.549   0.903   1.792
 3469SOL    HW211088   3.532   0.969   1.928
 3470SOL     OW11089   2.182   0.058   0.644
 3470SOL    HW111090   2.161   0.151   0.657
 3470SOL    HW211091   2.141   0.013   0.717
 3471SOL     OW11092   3.440   0.386   0.390
 3471SOL    HW111093   3.431   0.322   0.461
 3471SOL    HW211094   3.432   0.471   0.432
 3472SOL     OW11095   2.890   0.760   0.961
 3472SOL    HW111096   2.887   0.777   1.055
 3472SOL    HW211097   2.863   0.668   0.953
 3473SOL     OW11098   2.844   1.566   1.716
 3473SOL    HW111099   2.829   1.610   1.632
 3473SOL    HW211100   2.887   1.484   1.693
 3474SOL     OW11101   3.708   1.505   1.601
 3474SOL    HW111102   3.730   1.532   1.511
 3474SOL    HW211103   3.789   1.520   1.650
 3475SOL     OW11104   2.215   0.915   1.808
 3475SOL    HW111105   2.297   0.935   1.853
 3475SOL    HW211106   2.239   0.853   1.739
 3476SOL     OW11107   3.398   0.269   0.144
 3476SOL    HW111108   3.329   0.202   0.149
 3476SOL    HW211109   3.401   0.307   0.232
 3477SOL     OW11110   3.155   0.831   0.055
 3477SOL    HW111111   3.201   0.748   0.060
 3477SOL    HW211112   3.173   0.863  13.867
 3478SOL     OW11113   2.927   1.335   0.853
 3478SOL    HW111114   2.930   1.263   0.790
 3478SOL    HW211115   2.989   1.399   0.819
 3479SOL     OW11116   2.171   0.809   0.947
 3479SOL    HW111117   2.264   0.831   0.942
 3479SOL    HW211118   2.169   0.720   0.980
 3480SOL     OW11119   2.198   0.532   1.012
 3480SOL    HW111120   2.158   0.447   0.996
 3480SOL    HW211121   2.274   0.534   0.954
 3481SOL     OW11122   2.995   0.383   1.691
 3481SOL    HW111123   2.948   0.438   1.753
 3481SOL    HW211124   3.083   0.422   1.686
 3482SOL     OW11125   3.013   0.224   1.481
 3482SOL    HW111126   3.005   0.279   1.559
 3482SOL    HW211127   3.035   0.286   1.411
 3483SOL     OW11128   1.879   1.312   0.179
 3483SOL    HW111129   1.797   1.322   0.132
 3483SOL    HW211130   1.874   1.225   0.219
 3484SOL     OW11131   1.965   1.725   0.966
 3484SOL    HW111132   1.930   1.666   0.900
 3484SOL    HW211133   2.039   1.768   0.923
 3485SOL     OW11134   2.365   1.567   0.909
 3485SOL    HW111135   2.433   1.630   0.932
 3485SOL    HW211136   2.408   1.505   0.851
 3486SOL     OW11137   2.847   0.792   1.226
 3486SOL    HW111138   2.901   0.769   1.303
 3486SOL    HW211139   2.760   0.757   1.247
 3487SOL     OW11140   1.896   0.546   1.117
 3487SOL    HW111141   1.972   0.519   1.065
 3487SOL    HW211142   1.927   0.548   1.207
 3488SOL     OW11143   2.063   0.526   1.716
 3488SOL    HW111144   2.129   0.502   1.650
 3488SOL    HW211145   2.016   0.599   1.675
 3489SOL     OW11146   3.240   0.940   1.659
 3489SOL    HW111147   3.260   1.033   1.658
 3489SOL    HW211148   3.236   0.915   1.567
 3490SOL     OW11149   2.677   0.578   0.366
 3490SOL    HW111150   2.688   0.501   0.310
 3490SOL    HW211151   2.602   0.625   0.327
 3491SOL     OW11152   3.504   0.602   1.187
 3491SOL    HW111153   3.492   0.541   1.260
 3491SOL    HW211154   3.589   0.580   1.151
 3492SOL     OW11155   2.117   1.539   1.710
 3492SOL    HW111156   2.098   1.610   1.772
 3492SOL    HW211157   2.115   1.460   1.764
 3493SOL     OW11158   2.560   0.457   1.261
 3493SOL    HW111159   2.513   0.378   1.234
 3493SOL    HW211160   2.556   0.515   1.186
 3494SOL     OW11161   2.789   1.679   1.467
 3494SOL    HW111162   2.765   1.646   1.381
 3494SOL    HW211163   2.788   1.774   1.458
 3495SOL     OW11164   2.306   0.495   0.231
 3495SOL    HW111165   2.374   0.562   0.241
 3495SOL    HW211166   2.233   0.541   0.190
 3496SOL     OW11167   2.008   1.140   1.471
 3496SOL    HW111168   2.012   1.088   1.551
 3496SOL    HW211169   2.026   1.077   1.401
 3497SOL     OW11170   3.188   1.047   1.224
 3497SOL    HW111171   3.213   0.985   1.156
 3497SOL    HW211172   3.118   1.099   1.185
 3498SOL     OW11173   3.172   0.857   0.324
 3498SOL    HW111174   3.095   0.825   0.372
 3498SOL    HW211175   3.150   0.845   0.232
 3499SOL     OW11176   3.637   1.746   1.153
 3499SOL    HW111177   3.692   1.772   1.079
 3499SOL    HW211178   3.610   1.656   1.131
 3500SOL     OW11179   3.103   1.733   1.115
 3500SOL    HW111180   3.185   1.753   1.069
 3500SOL    HW211181   3.108   1.639   1.133
 3501SOL     OW11182   1.948   1.263   1.015
 3501SOL    HW111183   1.932   1.277   1.109
 3501SOL    HW211184   1.872   1.213   0.986
 3502SOL     OW11185   2.540   1.663   1.725
 3502SOL    HW111186   2.493   1.746   1.726
 3502SOL    HW211187   2.606   1.673   1.656
 3503SOL     OW11188   2.762   0.104   0.138
 3503SOL    HW111189   2.800   0.090   0.051
 3503SOL    HW211190   2.775   0.021   0.184
 3504SOL     OW11191   3.558   0.127   0.483
 3504SOL    HW111192   3.640   0.135   0.434
 3504SOL    HW211193   3.554   0.035   0.509
 3505SOL     OW11194   3.251   1.571   0.482
 3505SOL    HW111195   3.314   1.604   0.418
 3505SOL    HW211196   3.205   1.649   0.513
 3506SOL     OW11197   2.031   1.744   1.858
 3506SOL    HW111198   1.966   1.691   1.904
 3506SOL    HW211199   2.012   1.834   1.885
 3507SOL     OW11200   3.138   0.925   0.671
 3507SOL    HW111201   3.212   0.865   0.678
 3507SOL    HW211202   3.172   0.998   0.619
 3508SOL     OW11203   2.678   1.272   1.430
 3508SOL    HW111204   2.651   1.311   1.513
 3508SOL    HW211205   2.608   1.294   1.369
 3509SOL     OW11206   2.548   1.582   0.177
 3509SOL    HW111207   2.528   1.627   0.096
 3509SOL    HW211208   2.489   1.507   0.179
 3510SOL     OW11209   3.488   1.726   1.391
 3510SOL    HW111210   3.541   1.732   1.311
 3510SOL    HW211211   3.476   1.817   1.419
 3511SOL     OW11212   3.702   0.179   0.970
 3511SOL    HW111213   3.728   0.097   0.929
 3511SOL    HW211214   3.615   0.197   0.934
 3512SOL     OW11215   2.127   0.318   0.717
 3512SOL    HW111216   2.040   0.354   0.695
 3512SOL    HW211217   2.124   0.306   0.812
 3513SOL     OW11218   3.077   1.603   0.033
 3513SOL    HW111219   3.068   1.512   0.062
 3513SOL    HW211220   3.041   1.604  13.844
 3514SOL     OW11221   2.686   1.006   1.372
 3514SOL    HW111222   2.729   1.003   1.286
 3514SOL    HW211223   2.686   1.098   1.395
 3515SOL     OW11224   2.781   0.910   0.287
 3515SOL    HW111225   2.852   0.948   0.235
 3515SOL    HW211226   2.823   0.839   0.336
 3516SOL     OW11227   3.350   1.632   0.067
 3516SOL    HW111228   3.256   1.625   0.051
 3516SOL    HW211229   3.390   1.639  13.880
 3517SOL     OW11230   2.232   1.298   1.492
 3517SOL    HW111231   2.219   1.376   1.440
 3517SOL    HW211232   2.154   1.245   1.476
 3518SOL     OW11233   3.467   1.280   1.279
 3518SOL    HW111234   3.534   1.275   1.348
 3518SOL    HW211235   3.409   1.352   1.307
 3519SOL     OW11236   2.912   1.106   0.705
 3519SOL    HW111237   2.842   1.054   0.745
 3519SOL    HW211238   2.975   1.041   0.674
 3520SOL     OW11239   2.877   0.247   0.967
 3520SOL    HW111240   2.866   0.197   0.886
 3520SOL    HW211241   2.870   0.181   1.037
 3521SOL     OW11242   2.464   1.490   0.482
 3521SOL    HW111243   2.507   1.439   0.413
 3521SOL    HW211244   2.401   1.545   0.436
 3522SOL     OW11245   3.581   0.391   1.374
 3522SOL    HW111246   3.652   0.456   1.373
 3522SOL    HW211247   3.613   0.320   1.319
 3523SOL     OW11248   2.129   1.328   0.294
 3523SOL    HW111249   2.043   1.338   0.253
 3523SOL    HW211250   2.119   1.372   0.379
 3524SOL     OW11251   1.974   1.021   1.719
 3524SOL    HW111252   1.898   0.997   1.772
 3524SOL    HW211253   2.049   0.984   1.767
 3525SOL     OW11254   2.553   0.242   1.497
 3525SOL    HW111255   2.623   0.190   1.456
 3525SOL    HW211256   2.579   0.250   1.589
 3526SOL     OW11257   1.900   0.437   0.012
 3526SOL    HW111258   1.875   0.344   0.017
 3526SOL    HW211259   1.916   0.451  13.818
 3527SOL     OW11260   3.291   0.857   1.400
 3527SOL    HW111261   3.242   0.919   1.345
 3527SOL    HW211262   3.380   0.860   1.366
 3528SOL     OW11263   1.945   0.151   0.365
 3528SOL    HW111264   1.911   0.227   0.318
 3528SOL    HW211265   2.022   0.124   0.315
 3529SOL     OW11266   3.047   1.349   0.122
 3529SOL    HW111267   2.954   1.330   0.112
 3529SOL    HW211268   3.064   1.336   0.215
 3530SOL     OW11269   2.481   0.830   1.433
 3530SOL    HW111270   2.537   0.906   1.418
 3530SOL    HW211271   2.542   0.757   1.442
 3531SOL     OW11272   3.346   1.777   0.977
 3531SOL    HW111273   3.371   1.834   0.904
 3531SOL    HW211274   3.428   1.756   1.021
 3532SOL     OW11275   2.579   0.563   1.706
 3532SOL    HW111276   2.618   0.627   1.766
 3532SOL    HW211277   2.612   0.479   1.737
 3533SOL     OW11278   3.332   1.202   1.632
 3533SOL    HW111279   3.320   1.215   1.727
 3533SOL    HW211280   3.425   1.215   1.617
 3534SOL     OW11281   2.241   1.745   1.570
 3534SOL    HW111282   2.160   1.768   1.523
 3534SOL    HW211283   2.223   1.659   1.609
 3535SOL     OW11284   3.529   0.881   1.259
 3535SOL    HW111285   3.527   0.796   1.215
 3535SOL    HW211286   3.524   0.945   1.187
 3536SOL     OW11287   3.091   0.332   0.441
 3536SOL    HW111288   3.156   0.263   0.435
 3536SOL    HW211289   3.110   0.376   0.524
 3537SOL     OW11290   2.453   0.739   0.668
 3537SOL    HW111291   2.491   0.825   0.653
 3537SOL    HW211292   2.383   0.731   0.603
 3538SOL     OW11293   3.619   0.379   1.642
 3538SOL    HW111294   3.599   0.386   1.549
 3538SOL    HW211295   3.559   0.312   1.675
 3539SOL     OW11296   3.612   0.932   1.514
 3539SOL    HW111297   3.608   1.026   1.529
 3539SOL    HW211298   3.592   0.921   1.421
 3540SOL     OW11299   2.767   1.393   0.056
 3540SOL    HW111300   2.694   1.385   0.118
 3540SOL    HW211301   2.725   1.415  13.873
 3541SOL     OW11302   2.521   1.795   0.946
 3541SOL    HW111303   2.503   1.885   0.918
 3541SOL    HW211304   2.616   1.786   0.937
 3542SOL     OW11305   2.728   0.966   0.855
 3542SOL    HW111306   2.779   0.895   0.895
 3542SOL    HW211307   2.695   1.016   0.929
 3543SOL     OW11308   2.959   1.005   0.107
 3543SOL    HW111309   2.948   1.054   0.025
 3543SOL    HW211310   3.035   0.949   0.092
 3544SOL     OW11311   3.719   1.556   0.842
 3544SOL    HW111312   3.640   1.543   0.790
 3544SOL    HW211313   3.713   1.490   0.911
 3545SOL     OW11314   2.087   1.303   1.857
 3545SOL    HW111315   2.019   1.241   1.830
 3545SOL    HW211316   2.073   1.314   1.951
 3546SOL     OW11317   1.942   1.226   0.662
 3546SOL    HW111318   1.951   1.181   0.746
 3546SOL    HW211319   2.019   1.198   0.612
 3547SOL     OW11320   2.541   1.402   1.625
 3547SOL    HW111321   2.462   1.358   1.657
 3547SOL    HW211322   2.537   1.489   1.664
 3548SOL     OW11323   3.677   0.182   1.243
 3548SOL    HW111324   3.679   0.087   1.252
 3548SOL    HW211325   3.693   0.199   1.150
 3549SOL     OW11326   2.292   0.435   0.530
 3549SOL    HW111327   2.324   0.364   0.474
 3549SOL    HW211328   2.245   0.390   0.601
 3550SOL     OW11329   3.562   1.492   1.099
 3550SOL    HW111330   3.482   1.466   1.053
 3550SOL    HW211331   3.576   1.422   1.163
 3551SOL     OW11332   2.190   0.554   1.292
 3551SOL    HW111333   2.244   0.497   1.347
 3551SOL    HW211334   2.210   0.527   1.202
 3552SOL     OW11335   2.688   1.578   0.679
 3552SOL    HW111336   2.680   1.630   0.599
 3552SOL    HW211337   2.611   1.521   0.679
 3553SOL     OW11338   3.323   0.250   1.111
 3553SOL    HW111339   3.337   0.163   1.147
 3553SOL    HW211340   3.265   0.293   1.175
 3554SOL     OW11341   2.868   0.030   1.147
 3554SOL    HW111342   2.793   3.979   1.118
 3554SOL    HW211343   2.939   3.965   1.155
 3555SOL     OW11344   2.631   1.322   0.318
 3555SOL    HW111345   2.602   1.232   0.335
 3555SOL    HW211346   2.717   1.328   0.360
 3556SOL     OW11347   2.482   1.557   1.285
 3556SOL    HW111348   2.485   1.639   1.334
 3556SOL    HW211349   2.570   1.549   1.247
 3557SOL     OW11350   3.186   0.069   0.138
 3557SOL    HW111351   3.212   3.992   0.087
 3557SOL    HW211352   3.114   0.038   0.194
 3558SOL     OW11353   3.146   0.457   0.686
 3558SOL    HW111354   3.099   0.540   0.684
 3558SOL    HW211355   3.151   0.435   0.780
 3559SOL     OW11356   3.451   0.210   0.867
 3559SOL    HW111357   3.401   0.232   0.946
 3559SOL    HW211358   3.451   0.291   0.816
 3560SOL     OW11359   1.902   1.071   0.307
 3560SOL    HW111360   1.998   1.068   0.304
 3560SOL    HW211361   1.876   0.982   0.329
 3561SOL     OW11362   2.755   1.650   0.344
 3561SOL    HW111363   2.681   1.622   0.289
 3561SOL    HW211364   2.720   1.724   0.394
 3562SOL     OW11365   2.093   0.621   1.983
 3562SOL    HW111366   2.002   0.626   2.015
 3562SOL    HW211367   2.085   0.600   1.890
 3563SOL     OW11368   2.079   0.297   2.852
 3563SOL    HW111369   2.117   0.256   2.931
 3563SOL    HW211370   1.996   0.251   2.839
 3564SOL     OW11371   1.872   0.394   2.499
 3564SOL    HW111372   1.784   0.409   2.534
 3564SOL    HW211373   1.860   0.322   2.437
 3565SOL     OW11374   2.429   1.284   3.035
 3565SOL    HW111375   2.341   1.287   2.997
 3565SOL    HW211376   2.444   1.373   3.068
 3566SOL     OW11377   3.421   1.512   2.568
 3566SOL    HW111378   3.378   1.493   2.651
 3566SOL    HW211379   3.350   1.517   2.505
 3567SOL     OW11380   2.993   0.698   2.564
 3567SOL    HW111381   3.042   0.780   2.550
 3567SOL    HW211382   2.946   0.713   2.646
 3568SOL     OW11383   3.620   0.621   2.091
 3568SOL    HW111384   3.604   0.609   1.997
 3568SOL    HW211385   3.607   0.533   2.128
 3569SOL     OW11386   2.620   1.143   2.901
 3569SOL    HW111387   2.550   1.177   2.958
 3569SOL    HW211388   2.654   1.221   2.857
 3570SOL     OW11389   2.727   0.777   3.684
 3570SOL    HW111390   2.714   0.849   3.747
 3570SOL    HW211391   2.750   0.821   3.602
 3571SOL     OW11392   2.548   1.005   2.510
 3571SOL    HW111393   2.613   0.992   2.580
 3571SOL    HW211394   2.478   1.055   2.550
 3572SOL     OW11395   2.571   1.151   3.672
 3572SOL    HW111396   2.619   1.230   3.699
 3572SOL    HW211397   2.488   1.184   3.639
 3573SOL     OW11398   2.193   1.425   2.931
 3573SOL    HW111399   2.119   1.391   2.881
 3573SOL    HW211400   2.243   1.476   2.867
 3574SOL     OW11401   3.323   1.499   3.214
 3574SOL    HW111402   3.371   1.581   3.224
 3574SOL    HW211403   3.265   1.496   3.291
 3575SOL     OW11404   2.304   0.397   3.357
 3575SOL    HW111405   2.391   0.358   3.355
 3575SOL    HW211406   2.244   0.322   3.364
 3576SOL     OW11407   3.474   0.450   2.599
 3576SOL    HW111408   3.402   0.483   2.544
 3576SOL    HW211409   3.500   0.526   2.651
 3577SOL     OW11410   2.097   1.702   2.334
 3577SOL    HW111411   2.130   1.770   2.392
 3577SOL    HW211412   2.165   1.692   2.267
 3578SOL     OW11413   2.998   1.342   3.554
 3578SOL    HW111414   3.038   1.337   3.641
 3578SOL    HW211415   2.945   1.262   3.548
 3579SOL     OW11416   2.089   1.435   2.397
 3579SOL    HW111417   2.078   1.531   2.397
 3579SOL    HW211418   2.026   1.404   2.462
 3580SOL     OW11419   2.118   1.090   2.752
 3580SOL    HW111420   2.115   1.003   2.794
 3580SOL    HW211421   2.061   1.144   2.806
 3581SOL     OW11422   2.475   1.791   3.293
 3581SOL    HW111423   2.393   1.774   3.338
 3581SOL    HW211424   2.499   1.880   3.319
 3582SOL     OW11425   2.449   0.981   1.995
 3582SOL    HW111426   2.494   1.031   1.927
 3582SOL    HW211427   2.489   1.011   2.077
 3583SOL     OW11428   3.441   0.136   3.320
 3583SOL    HW111429   3.462   0.210   3.263
 3583SOL    HW211430   3.416   0.176   3.403
 3584SOL     OW11431   1.976   0.653   2.421
 3584SOL    HW111432   1.950   0.564   2.444
 3584SOL    HW211433   1.969   0.703   2.503
 3585SOL     OW11434   3.700   1.758   2.199
 3585SOL    HW111435   3.766   1.733   2.264
 3585SOL    HW211436   3.723   1.848   2.176
 3586SOL     OW11437   1.865   1.598   2.006
 3586SOL    HW111438   1.861   1.502   2.001
 3586SOL    HW211439   1.872   1.616   2.100
 3587SOL     OW11440   3.549   0.917   2.502
 3587SOL    HW111441   3.634   0.877   2.487
 3587SOL    HW211442   3.532   0.968   2.423
 3588SOL     OW11443   3.504   1.107   2.293
 3588SOL    HW111444   3.588   1.115   2.249
 3588SOL    HW211445   3.510   1.168   2.366
 3589SOL     OW11446   1.984   0.747   3.445
 3589SOL    HW111447   2.076   0.772   3.455
 3589SOL    HW211448   1.936   0.829   3.453
 3590SOL     OW11449   2.475   1.384   2.596
 3590SOL    HW111450   2.429   1.300   2.606
 3590SOL    HW211451   2.458   1.411   2.506
 3591SOL     OW11452   3.151   1.239   3.286
 3591SOL    HW111453   3.184   1.172   3.226
 3591SOL    HW211454   3.208   1.232   3.363
 3592SOL     OW11455   2.679   0.002   2.376
 3592SOL    HW111456   2.724   0.083   2.355
 3592SOL    HW211457   2.586   0.025   2.379
 3593SOL     OW11458   2.053   0.967   3.132
 3593SOL    HW111459   2.137   0.925   3.117
 3593SOL    HW211460   1.990   0.911   3.087
 3594SOL     OW11461   3.392   0.992   2.060
 3594SOL    HW111462   3.322   0.935   2.092
 3594SOL    HW211463   3.433   1.028   2.139
 3595SOL     OW11464   3.046   1.805   3.483
 3595SOL    HW111465   3.061   1.863   3.408
 3595SOL    HW211466   3.063   1.717   3.449
 3596SOL     OW11467   2.212   0.255   3.680
 3596SOL    HW111468   2.257   0.340   3.683
 3596SOL    HW211469   2.120   0.276   3.694
 3597SOL     OW11470   3.327   1.420   2.814
 3597SOL    HW111471   3.259   1.434   2.880
 3597SOL    HW211472   3.316   1.329   2.788
 3598SOL     OW11473   3.519   1.738   2.441
 3598SOL    HW111474   3.501   1.707   2.352
 3598SOL    HW211475   3.496   1.663   2.496
 3599SOL     OW11476   2.457   0.722   2.127
 3599SOL    HW111477   2.464   0.803   2.076
 3599SOL    HW211478   2.393   0.741   2.195
 3600SOL     OW11479   3.138   0.363   2.802
 3600SOL    HW111480   3.051   0.323   2.807
 3600SOL    HW211481   3.195   0.302   2.849
 3601SOL     OW11482   3.441   1.669   2.171
 3601SOL    HW111483   3.531   1.702   2.166
 3601SOL    HW211484   3.417   1.652   2.080
 3602SOL     OW11485   2.658   0.616   3.316
 3602SOL    HW111486   2.629   0.592   3.404
 3602SOL    HW211487   2.616   0.552   3.259
 3603SOL     OW11488   3.255   0.476   3.539
 3603SOL    HW111489   3.258   0.521   3.624
 3603SOL    HW211490   3.315   0.403   3.548
 3604SOL     OW11491   2.818   0.888   3.444
 3604SOL    HW111492   2.872   0.818   3.409
 3604SOL    HW211493   2.770   0.922   3.368
 3605SOL     OW11494   2.853   0.403   3.103
 3605SOL    HW111495   2.772   0.430   3.145
 3605SOL    HW211496   2.826   0.372   3.017
 3606SOL     OW11497   2.912   0.699   2.288
 3606SOL    HW111498   2.927   0.692   2.383
 3606SOL    HW211499   2.830   0.652   2.273
 3607SOL     OW11500   1.950   0.821   2.638
 3607SOL    HW111501   2.031   0.813   2.688
 3607SOL    HW211502   1.908   0.899   2.673
 3608SOL     OW11503   2.754   0.350   2.061
 3608SOL    HW111504   2.795   0.408   1.997
 3608SOL    HW211505   2.754   0.264   2.018
 3609SOL     OW11506   3.574   0.575   3.691
 3609SOL    HW111507   3.536   0.651   3.646
 3609SOL    HW211508   3.596   0.514   3.620
 3610SOL     OW11509   3.237   1.142   2.403
 3610SOL    HW111510   3.317   1.129   2.352
 3610SOL    HW211511   3.185   1.204   2.353
 3611SOL     OW11512   2.417   0.197   2.744
 3611SOL    HW111513   2.421   0.215   2.838
 3611SOL    HW211514   2.415   0.284   2.704
 3612SOL     OW11515   2.869   1.444   2.335
 3612SOL    HW111516   2.830   1.516   2.285
 3612SOL    HW211517   2.853   1.467   2.427
 3613SOL     OW11518   2.217   1.796   2.726
 3613SOL    HW111519   2.255   1.709   2.738
 3613SOL    HW211520   2.287   1.857   2.751
 3614SOL     OW11521   3.665   1.062   2.728
 3614SOL    HW111522   3.609   1.042   2.653
 3614SOL    HW211523   3.605   1.066   2.803
 3615SOL     OW11524   3.089   1.539   3.375
 3615SOL    HW111525   3.076   1.466   3.436
 3615SOL    HW211526   3.028   1.522   3.303
 3616SOL     OW11527   2.183   0.957   2.111
 3616SOL    HW111528   2.265   0.976   2.066
 3616SOL    HW211529   2.153   0.875   2.073
 3617SOL     OW11530   3.339   0.740   2.592
 3617SOL    HW111531   3.331   0.698   2.677
 3617SOL    HW211532   3.416   0.797   2.601
 3618SOL     OW11533   2.327   1.263   3.600
 3618SOL    HW111534   2.300   1.268   3.508
 3618SOL    HW211535   2.246   1.261   3.650
 3619SOL     OW11536   2.983   1.778   2.093
 3619SOL    HW111537   2.911   1.735   2.139
 3619SOL    HW211538   3.006   1.717   2.023
 3620SOL     OW11539   2.038   0.277   3.359
 3620SOL    HW111540   1.975   0.349   3.356
 3620SOL    HW211541   2.046   0.257   3.452
 3621SOL     OW11542   3.489   1.381   1.949
 3621SOL    HW111543   3.447   1.466   1.934
 3621SOL    HW211544   3.421   1.316   1.930
 3622SOL     OW11545   2.335   1.720   2.197
 3622SOL    HW111546   2.374   1.793   2.245
 3622SOL    HW211547   2.393   1.707   2.121
 3623SOL     OW11548   3.296   0.162   2.264
 3623SOL    HW111549   3.256   0.092   2.213
 3623SOL    HW211550   3.374   0.121   2.303
 3624SOL     OW11551   2.153   1.766   3.088
 3624SOL    HW111552   2.193   1.686   3.121
 3624SOL    HW211553   2.117   1.742   3.003
 3625SOL     OW11554   2.799   1.698   2.762
 3625SOL    HW111555   2.877   1.646   2.782
 3625SOL    HW211556   2.755   1.649   2.693
 3626SOL     OW11557   2.254   0.695   2.339
 3626SOL    HW111558   2.275   0.603   2.349
 3626SOL    HW211559   2.160   0.700   2.357
 3627SOL     OW11560   3.394   0.232   3.589
 3627SOL    HW111561   3.392   0.257   3.681
 3627SOL    HW211562   3.362   0.142   3.587
 3628SOL     OW11563   2.503   0.137   1.967
 3628SOL    HW111564   2.538   0.057   2.007
 3628SOL    HW211565   2.440   0.105   1.902
 3629SOL     OW11566   2.640   0.281   3.625
 3629SOL    HW111567   2.703   0.209   3.632
 3629SOL    HW211568   2.578   0.266   3.696
 3630SOL     OW11569   2.738   1.521   3.056
 3630SOL    HW111570   2.723   1.485   2.968
 3630SOL    HW211571   2.808   1.467   3.092
 3631SOL     OW11572   3.205   0.587   3.292
 3631SOL    HW111573   3.234   0.558   3.379
 3631SOL    HW211574   3.238   0.676   3.284
 3632SOL     OW11575   2.676   1.397   2.800
 3632SOL    HW111576   2.760   1.385   2.756
 3632SOL    HW211577   2.612   1.396   2.729
 3633SOL     OW11578   2.791   0.510   2.765
 3633SOL    HW111579   2.767   0.503   2.672
 3633SOL    HW211580   2.820   0.423   2.789
 3634SOL     OW11581   2.408   0.058   2.356
 3634SOL    HW111582   2.333   0.062   2.415
 3634SOL    HW211583   2.403   0.138   2.305
 3635SOL     OW11584   3.290   1.198   1.903
 3635SOL    HW111585   3.321   1.123   1.953
 3635SOL    HW211586   3.204   1.219   1.941
 3636SOL     OW11587   2.187   0.042   2.069
 3636SOL    HW111588   2.204   0.112   2.006
 3636SOL    HW211589   2.271   0.029   2.113
 3637SOL     OW11590   2.800   0.247   2.326
 3637SOL    HW111591   2.774   0.289   2.244
 3637SOL    HW211592   2.895   0.248   2.324
 3638SOL     OW11593   2.942   0.681   3.321
 3638SOL    HW111594   2.870   0.618   3.329
 3638SOL    HW211595   3.021   0.627   3.316
 3639SOL     OW11596   3.085   1.570   2.656
 3639SOL    HW111597   3.103   1.637   2.590
 3639SOL    HW211598   3.154   1.582   2.721
 3640SOL     OW11599   2.330   1.148   2.597
 3640SOL    HW111600   2.260   1.130   2.660
 3640SOL    HW211601   2.291   1.132   2.512
 3641SOL     OW11602   3.132   1.794   2.469
 3641SOL    HW111603   3.178   1.855   2.411
 3641SOL    HW211604   3.067   1.848   2.513
 3642SOL     OW11605   2.887   0.547   1.884
 3642SOL    HW111606   2.843   0.630   1.865
 3642SOL    HW211607   2.949   0.568   1.954
 3643SOL     OW11608   1.940   0.553   3.257
 3643SOL    HW111609   2.031   0.552   3.227
 3643SOL    HW211610   1.935   0.626   3.318
 3644SOL     OW11611   2.427   0.232   3.023
 3644SOL    HW111612   2.453   0.141   3.035
 3644SOL    HW211613   2.337   0.236   3.054
 3645SOL     OW11614   2.733   0.461   2.501
 3645SOL    HW111615   2.684   0.514   2.438
 3645SOL    HW211616   2.752   0.380   2.454
 3646SOL     OW11617   2.856   0.042   2.641
 3646SOL    HW111618   2.823   0.065   2.554
 3646SOL    HW211619   2.866   3.947   2.638
 3647SOL     OW11620   3.299   1.163   2.720
 3647SOL    HW111621   3.230   1.097   2.718
 3647SOL    HW211622   3.323   1.175   2.628
 3648SOL     OW11623   3.328   0.604   2.841
 3648SOL    HW111624   3.279   0.522   2.847
 3648SOL    HW211625   3.390   0.600   2.914
 3649SOL     OW11626   3.722   0.823   2.237
 3649SOL    HW111627   3.764   0.766   2.301
 3649SOL    HW211628   3.682   0.763   2.174
 3650SOL     OW11629   2.355   1.416   2.020
 3650SOL    HW111630   2.280   1.388   2.073
 3650SOL    HW211631   2.335   1.383   1.933
 3651SOL     OW11632   3.528   1.265   2.510
 3651SOL    HW111633   3.623   1.270   2.518
 3651SOL    HW211634   3.497   1.353   2.530
 3652SOL     OW11635   3.256   0.572   1.932
 3652SOL    HW111636   3.194   0.555   2.002
 3652SOL    HW211637   3.342   0.554   1.970
 3653SOL     OW11638   2.389   0.266   2.180
 3653SOL    HW111639   2.439   0.225   2.110
 3653SOL    HW211640   2.364   0.351   2.145
 3654SOL     OW11641   3.614   1.234   3.435
 3654SOL    HW111642   3.702   1.199   3.418
 3654SOL    HW211643   3.631   1.323   3.467
 3655SOL     OW11644   2.921   1.354   3.196
 3655SOL    HW111645   2.847   1.322   3.247
 3655SOL    HW211646   2.997   1.312   3.237
 3656SOL     OW11647   3.467   1.627   3.515
 3656SOL    HW111648   3.462   1.661   3.425
 3656SOL    HW211649   3.549   1.578   3.517
 3657SOL     OW11650   2.989   1.202   2.968
 3657SOL    HW111651   2.930   1.240   3.033
 3657SOL    HW211652   2.956   1.234   2.884
 3658SOL     OW11653   3.494   1.099   2.939
 3658SOL    HW111654   3.487   1.160   3.012
 3658SOL    HW211655   3.414   1.114   2.887
 3659SOL     OW11656   2.776   0.111   3.264
 3659SOL    HW111657   2.795   0.086   3.174
 3659SOL    HW211658   2.855   0.153   3.295
 3660SOL     OW11659   2.846   1.115   3.585
 3660SOL    HW111660   2.754   1.130   3.605
 3660SOL    HW211661   2.845   1.037   3.529
 3661SOL     OW11662   2.570   1.061   2.233
 3661SOL    HW111663   2.556   1.046   2.327
 3661SOL    HW211664   2.646   1.007   2.211
 3662SOL     OW11665   2.280   0.814   3.113
 3662SOL    HW111666   2.349   0.823   3.179
 3662SOL    HW211667   2.245   0.726   3.127
 3663SOL     OW11668   3.129   0.376   3.137
 3663SOL    HW111669   3.163   0.453   3.181
 3663SOL    HW211670   3.043   0.402   3.106
 3664SOL     OW11671   1.932   1.577   3.214
 3664SOL    HW111672   1.896   1.642   3.153
 3664SOL    HW211673   2.027   1.582   3.200
 3665SOL     OW11674   2.214   1.107   2.354
 3665SOL    HW111675   2.218   1.181   2.293
 3665SOL    HW211676   2.211   1.030   2.297
 3666SOL     OW11677   2.419   0.536   2.720
 3666SOL    HW111678   2.434   0.596   2.647
 3666SOL    HW211679   2.481   0.564   2.787
 3667SOL     OW11680   3.110   1.348   2.251
 3667SOL    HW111681   3.166   1.420   2.282
 3667SOL    HW211682   3.023   1.369   2.285
 3668SOL     OW11683   3.141   1.457   3.008
 3668SOL    HW111684   3.197   1.459   3.086
 3668SOL    HW211685   3.086   1.379   3.021
 3669SOL     OW11686   3.438   0.631   2.344
 3669SOL    HW111687   3.399   0.691   2.407
 3669SOL    HW211688   3.487   0.687   2.284
 3670SOL     OW11689   2.214   1.516   3.180
 3670SOL    HW111690   2.199   1.475   3.095
 3670SOL    HW211691   2.309   1.528   3.185
 3671SOL     OW11692   2.276   0.745   3.463
 3671SOL    HW111693   2.337   0.790   3.405
 3671SOL    HW211694   2.316   0.659   3.479
 3672SOL     OW11695   3.461   0.776   3.541
 3672SOL    HW111696   3.376   0.818   3.535
 3672SOL    HW211697   3.514   0.819   3.474
 3673SOL     OW11698   2.885   0.120   3.640
 3673SOL    HW111699   2.917   0.200   3.597
 3673SOL    HW211700   2.869   0.059   3.568
 3674SOL     OW11701   2.347   0.034   3.626
 3674SOL    HW111702   2.354   0.039   3.530
 3674SOL    HW211703   2.289   0.107   3.649
 3675SOL     OW11704   2.445   0.872   2.893
 3675SOL    HW111705   2.473   0.964   2.892
 3675SOL    HW211706   2.388   0.867   2.970
 3676SOL     OW11707   3.221   0.859   2.893
 3676SOL    HW111708   3.139   0.851   2.845
 3676SOL    HW211709   3.260   0.772   2.889
 3677SOL     OW11710   3.067   0.534   2.126
 3677SOL    HW111711   3.075   0.455   2.179
 3677SOL    HW211712   3.024   0.597   2.183
 3678SOL     OW11713   2.164   0.212   3.104
 3678SOL    HW111714   2.127   0.241   3.187
 3678SOL    HW211715   2.151   0.117   3.103
 3679SOL     OW11716   1.907   1.313   3.141
 3679SOL    HW111717   1.941   1.258   3.211
 3679SOL    HW211718   1.915   1.402   3.173
 3680SOL     OW11719   2.587   0.633   2.919
 3680SOL    HW111720   2.661   0.617   2.859
 3680SOL    HW211721   2.558   0.722   2.898
 3681SOL     OW11722   3.595   0.956   3.719
 3681SOL    HW111723   3.549   0.904   3.654
 3681SOL    HW211724   3.532   0.969   3.790
 3682SOL     OW11725   2.183   0.058   2.507
 3682SOL    HW111726   2.161   0.150   2.519
 3682SOL    HW211727   2.142   0.014   2.582
 3683SOL     OW11728   3.468   0.387   2.243
 3683SOL    HW111729   3.443   0.318   2.305
 3683SOL    HW211730   3.446   0.468   2.288
 3684SOL     OW11731   2.890   0.759   2.823
 3684SOL    HW111732   2.887   0.777   2.917
 3684SOL    HW211733   2.863   0.668   2.815
 3685SOL     OW11734   2.844   1.566   3.578
 3685SOL    HW111735   2.829   1.610   3.494
 3685SOL    HW211736   2.887   1.484   3.555
 3686SOL     OW11737   3.709   1.505   3.463
 3686SOL    HW111738   3.730   1.532   3.373
 3686SOL    HW211739   3.789   1.520   3.512
 3687SOL     OW11740   2.215   0.915   3.670
 3687SOL    HW111741   2.297   0.935   3.715
 3687SOL    HW211742   2.239   0.853   3.601
 3688SOL     OW11743   3.370   0.276   1.998
 3688SOL    HW111744   3.295   0.218   2.010
 3688SOL    HW211745   3.384   0.316   2.083
 3689SOL     OW11746   3.154   0.827   1.893
 3689SOL    HW111747   3.197   0.741   1.896
 3689SOL    HW211748   3.186   0.866   1.812
 3690SOL     OW11749   2.927   1.335   2.715
 3690SOL    HW111750   2.930   1.263   2.653
 3690SOL    HW211751   2.989   1.399   2.681
 3691SOL     OW11752   2.171   0.810   2.810
 3691SOL    HW111753   2.264   0.831   2.803
 3691SOL    HW211754   2.169   0.720   2.842
 3692SOL     OW11755   2.199   0.532   2.874
 3692SOL    HW111756   2.158   0.447   2.858
 3692SOL    HW211757   2.275   0.534   2.816
 3693SOL     OW11758   2.995   0.383   3.553
 3693SOL    HW111759   2.948   0.438   3.615
 3693SOL    HW211760   3.083   0.422   3.548
 3694SOL     OW11761   3.013   0.224   3.343
 3694SOL    HW111762   3.005   0.279   3.421
 3694SOL    HW211763   3.035   0.286   3.273
 3695SOL     OW11764   1.866   1.320   2.056
 3695SOL    HW111765   1.778   1.332   2.020
 3695SOL    HW211766   1.865   1.231   2.090
 3696SOL     OW11767   1.971   1.725   2.835
 3696SOL    HW111768   1.932   1.668   2.769
 3696SOL    HW211769   2.040   1.772   2.789
 3697SOL     OW11770   2.363   1.569   2.771
 3697SOL    HW111771   2.432   1.631   2.793
 3697SOL    HW211772   2.406   1.506   2.713
 3698SOL     OW11773   2.847   0.791   3.088
 3698SOL    HW111774   2.901   0.769   3.165
 3698SOL    HW211775   2.760   0.757   3.109
 3699SOL     OW11776   1.896   0.545   2.979
 3699SOL    HW111777   1.972   0.519   2.927
 3699SOL    HW211778   1.928   0.548   3.069
 3700SOL     OW11779   2.063   0.526   3.577
 3700SOL    HW111780   2.129   0.502   3.512
 3700SOL    HW211781   2.016   0.599   3.538
 3701SOL     OW11782   3.240   0.940   3.521
 3701SOL    HW111783   3.260   1.033   3.520
 3701SOL    HW211784   3.236   0.915   3.429
 3702SOL     OW11785   2.678   0.571   2.220
 3702SOL    HW111786   2.682   0.495   2.162
 3702SOL    HW211787   2.603   0.621   2.188
 3703SOL     OW11788   3.504   0.602   3.049
 3703SOL    HW111789   3.492   0.541   3.122
 3703SOL    HW211790   3.589   0.580   3.013
 3704SOL     OW11791   2.117   1.539   3.572
 3704SOL    HW111792   2.098   1.610   3.634
 3704SOL    HW211793   2.115   1.460   3.626
 3705SOL     OW11794   2.560   0.457   3.123
 3705SOL    HW111795   2.513   0.378   3.096
 3705SOL    HW211796   2.556   0.515   3.048
 3706SOL     OW11797   2.790   1.679   3.329
 3706SOL    HW111798   2.765   1.646   3.243
 3706SOL    HW211799   2.788   1.774   3.320
 3707SOL     OW11800   2.328   0.494   2.049
 3707SOL    HW111801   2.385   0.567   2.070
 3707SOL    HW211802   2.241   0.534   2.037
 3708SOL     OW11803   2.008   1.140   3.333
 3708SOL    HW111804   2.012   1.088   3.414
 3708SOL    HW211805   2.026   1.077   3.263
 3709SOL     OW11806   3.188   1.047   3.086
 3709SOL    HW111807   3.213   0.985   3.018
 3709SOL    HW211808   3.118   1.099   3.047
 3710SOL     OW11809   3.173   0.855   2.169
 3710SOL    HW111810   3.096   0.827   2.218
 3710SOL    HW211811   3.147   0.843   2.077
 3711SOL     OW11812   3.637   1.746   3.014
 3711SOL    HW111813   3.692   1.772   2.941
 3711SOL    HW211814   3.610   1.656   2.993
 3712SOL     OW11815   3.103   1.733   2.977
 3712SOL    HW111816   3.185   1.753   2.931
 3712SOL    HW211817   3.108   1.639   2.995
 3713SOL     OW11818   1.947   1.264   2.877
 3713SOL    HW111819   1.932   1.278   2.970
 3713SOL    HW211820   1.872   1.212   2.847
 3714SOL     OW11821   2.540   1.663   3.587
 3714SOL    HW111822   2.493   1.746   3.587
 3714SOL    HW211823   2.606   1.673   3.518
 3715SOL     OW11824   3.555   0.124   2.348
 3715SOL    HW111825   3.637   0.134   2.300
 3715SOL    HW211826   3.553   0.031   2.373
 3716SOL     OW11827   3.252   1.567   2.346
 3716SOL    HW111828   3.313   1.599   2.279
 3716SOL    HW211829   3.204   1.646   2.374
 3717SOL     OW11830   2.033   1.745   3.719
 3717SOL    HW111831   1.968   1.693   3.767
 3717SOL    HW211832   2.011   1.836   3.740
 3718SOL     OW11833   3.139   0.925   2.532
 3718SOL    HW111834   3.213   0.864   2.539
 3718SOL    HW211835   3.173   0.998   2.481
 3719SOL     OW11836   2.678   1.272   3.292
 3719SOL    HW111837   2.651   1.311   3.375
 3719SOL    HW211838   2.608   1.294   3.231
 3720SOL     OW11839   2.536   1.618   2.014
 3720SOL    HW111840   2.544   1.627   1.919
 3720SOL    HW211841   2.481   1.541   2.026
 3721SOL     OW11842   3.488   1.726   3.253
 3721SOL    HW111843   3.541   1.733   3.173
 3721SOL    HW211844   3.476   1.817   3.281
 3722SOL     OW11845   3.702   0.179   2.832
 3722SOL    HW111846   3.727   0.096   2.792
 3722SOL    HW211847   3.615   0.198   2.796
 3723SOL     OW11848   2.127   0.318   2.578
 3723SOL    HW111849   2.041   0.354   2.556
 3723SOL    HW211850   2.125   0.306   2.673
 3724SOL     OW11851   3.069   1.607   1.893
 3724SOL    HW111852   3.060   1.516   1.920
 3724SOL    HW211853   3.003   1.617   1.824
 3725SOL     OW11854   2.687   1.005   3.234
 3725SOL    HW111855   2.728   1.003   3.148
 3725SOL    HW211856   2.686   1.098   3.257
 3726SOL     OW11857   2.777   0.910   2.151
 3726SOL    HW111858   2.839   0.942   2.086
 3726SOL    HW211859   2.825   0.840   2.196
 3727SOL     OW11860   3.355   1.625   1.904
 3727SOL    HW111861   3.260   1.620   1.891
 3727SOL    HW211862   3.391   1.631   1.816
 3728SOL     OW11863   2.232   1.298   3.354
 3728SOL    HW111864   2.219   1.377   3.301
 3728SOL    HW211865   2.154   1.245   3.338
 3729SOL     OW11866   3.467   1.280   3.141
 3729SOL    HW111867   3.534   1.275   3.210
 3729SOL    HW211868   3.409   1.352   3.169
 3730SOL     OW11869   2.912   1.106   2.568
 3730SOL    HW111870   2.842   1.055   2.607
 3730SOL    HW211871   2.974   1.041   2.535
 3731SOL     OW11872   2.877   0.247   2.829
 3731SOL    HW111873   2.866   0.197   2.748
 3731SOL    HW211874   2.870   0.181   2.899
 3732SOL     OW11875   2.463   1.490   2.344
 3732SOL    HW111876   2.504   1.440   2.273
 3732SOL    HW211877   2.401   1.548   2.300
 3733SOL     OW11878   3.581   0.391   3.236
 3733SOL    HW111879   3.652   0.456   3.235
 3733SOL    HW211880   3.613   0.320   3.181
 3734SOL     OW11881   2.120   1.347   2.148
 3734SOL    HW111882   2.027   1.343   2.128
 3734SOL    HW211883   2.124   1.381   2.237
 3735SOL     OW11884   1.974   1.020   3.581
 3735SOL    HW111885   1.898   0.997   3.634
 3735SOL    HW211886   2.049   0.984   3.629
 3736SOL     OW11887   2.553   0.242   3.359
 3736SOL    HW111888   2.623   0.190   3.319
 3736SOL    HW211889   2.579   0.250   3.451
 3737SOL     OW11890   1.959   0.319   1.851
 3737SOL    HW111891   1.880   0.336   1.903
 3737SOL    HW211892   1.976   0.402   1.806
 3738SOL     OW11893   3.291   0.857   3.262
 3738SOL    HW111894   3.242   0.919   3.207
 3738SOL    HW211895   3.380   0.860   3.227
 3739SOL     OW11896   1.945   0.155   2.202
 3739SOL    HW111897   1.914   0.218   2.138
 3739SOL    HW211898   2.029   0.124   2.168
 3740SOL     OW11899   3.041   1.341   1.979
 3740SOL    HW111900   2.951   1.310   1.982
 3740SOL    HW211901   3.070   1.341   2.070
 3741SOL     OW11902   2.481   0.830   3.295
 3741SOL    HW111903   2.537   0.906   3.280
 3741SOL    HW211904   2.543   0.757   3.304
 3742SOL     OW11905   3.346   1.777   2.839
 3742SOL    HW111906   3.371   1.834   2.767
 3742SOL    HW211907   3.428   1.756   2.883
 3743SOL     OW11908   2.579   0.563   3.568
 3743SOL    HW111909   2.618   0.627   3.628
 3743SOL    HW211910   2.612   0.479   3.599
 3744SOL     OW11911   3.332   1.201   3.494
 3744SOL    HW111912   3.320   1.215   3.589
 3744SOL    HW211913   3.425   1.215   3.479
 3745SOL     OW11914   2.241   1.745   3.432
 3745SOL    HW111915   2.160   1.766   3.385
 3745SOL    HW211916   2.224   1.659   3.471
 3746SOL     OW11917   3.529   0.882   3.120
 3746SOL    HW111918   3.527   0.796   3.077
 3746SOL    HW211919   3.524   0.945   3.049
 3747SOL     OW11920   3.085   0.333   2.309
 3747SOL    HW111921   3.152   0.266   2.299
 3747SOL    HW211922   3.108   0.379   2.390
 3748SOL     OW11923   2.453   0.739   2.530
 3748SOL    HW111924   2.492   0.825   2.514
 3748SOL    HW211925   2.384   0.731   2.465
 3749SOL     OW11926   3.619   0.379   3.504
 3749SOL    HW111927   3.599   0.386   3.411
 3749SOL    HW211928   3.559   0.312   3.537
 3750SOL     OW11929   3.612   0.932   3.376
 3750SOL    HW111930   3.608   1.026   3.391
 3750SOL    HW211931   3.592   0.921   3.283
 3751SOL     OW11932   2.723   1.368   1.893
 3751SOL    HW111933   2.686   1.394   1.978
 3751SOL    HW211934   2.743   1.451   1.850
 3752SOL     OW11935   2.521   1.796   2.809
 3752SOL    HW111936   2.504   1.885   2.780
 3752SOL    HW211937   2.616   1.785   2.799
 3753SOL     OW11938   2.729   0.966   2.718
 3753SOL    HW111939   2.779   0.895   2.758
 3753SOL    HW211940   2.695   1.016   2.792
 3754SOL     OW11941   2.942   0.988   1.951
 3754SOL    HW111942   2.920   1.039   1.873
 3754SOL    HW211943   3.017   0.935   1.925
 3755SOL     OW11944   3.718   1.557   2.704
 3755SOL    HW111945   3.640   1.542   2.652
 3755SOL    HW211946   3.715   1.490   2.773
 3756SOL     OW11947   2.087   1.303   3.719
 3756SOL    HW111948   2.019   1.241   3.692
 3756SOL    HW211949   2.073   1.314   3.813
 3757SOL     OW11950   1.943   1.229   2.525
 3757SOL    HW111951   1.951   1.183   2.608
 3757SOL    HW211952   2.016   1.196   2.472
 3758SOL     OW11953   2.541   1.402   3.487
 3758SOL    HW111954   2.463   1.357   3.519
 3758SOL    HW211955   2.537   1.489   3.526
 3759SOL     OW11956   3.677   0.183   3.105
 3759SOL    HW111957   3.679   0.087   3.114
 3759SOL    HW211958   3.693   0.199   3.012
 3760SOL     OW11959   2.291   0.434   2.386
 3760SOL    HW111960   2.322   0.361   2.332
 3760SOL    HW211961   2.244   0.392   2.459
 3761SOL     OW11962   3.561   1.492   2.962
 3761SOL    HW111963   3.481   1.466   2.916
 3761SOL    HW211964   3.576   1.422   3.025
 3762SOL     OW11965   2.190   0.554   3.154
 3762SOL    HW111966   2.244   0.497   3.209
 3762SOL    HW211967   2.210   0.527   3.064
 3763SOL     OW11968   2.688   1.578   2.541
 3763SOL    HW111969   2.679   1.629   2.461
 3763SOL    HW211970   2.611   1.521   2.542
 3764SOL     OW11971   3.323   0.250   2.974
 3764SOL    HW111972   3.337   0.163   3.009
 3764SOL    HW211973   3.265   0.293   3.037
 3765SOL     OW11974   2.868   0.030   3.009
 3765SOL    HW111975   2.793   3.979   2.980
 3765SOL    HW211976   2.939   3.965   3.017
 3766SOL     OW11977   2.635   1.332   2.173
 3766SOL    HW111978   2.601   1.243   2.181
 3766SOL    HW211979   2.716   1.332   2.224
 3767SOL     OW11980   2.482   1.557   3.147
 3767SOL    HW111981   2.485   1.639   3.196
 3767SOL    HW211982   2.570   1.549   3.109
 3768SOL     OW11983   3.178   0.072   2.022
 3768SOL    HW111984   3.194   0.002   1.959
 3768SOL    HW211985   3.093   0.051   2.061
 3769SOL     OW11986   3.147   0.458   2.549
 3769SOL    HW111987   3.099   0.540   2.546
 3769SOL    HW211988   3.152   0.436   2.642
 3770SOL     OW11989   3.451   0.211   2.729
 3770SOL    HW111990   3.401   0.232   2.807
 3770SOL    HW211991   3.451   0.291   2.677
 3771SOL     OW11992   1.906   1.072   2.166
 3771SOL    HW111993   2.000   1.064   2.150
 3771SOL    HW211994   1.878   0.984   2.190
 3772SOL     OW11995   2.746   1.650   2.204
 3772SOL    HW111996   2.672   1.634   2.145
 3772SOL    HW211997   2.719   1.725   2.256
 3773SOL     OW11998   2.093   0.621   3.845
 3773SOL    HW111999   2.002   0.626   3.876
 3773SOL    HW212000   2.085   0.600   3.752
 3774SOL     OW12001   2.079   0.297   4.714
 3774SOL    HW112002   2.117   0.256   4.793
 3774SOL    HW212003   1.996   0.251   4.701
 3775SOL     OW12004   1.872   0.394   4.361
 3775SOL    HW112005   1.784   0.409   4.396
 3775SOL    HW212006   1.860   0.322   4.299
 3776SOL     OW12007   2.429   1.285   4.897
 3776SOL    HW112008   2.341   1.288   4.859
 3776SOL    HW212009   2.444   1.373   4.931
 3777SOL     OW12010   3.421   1.512   4.430
 3777SOL    HW112011   3.377   1.493   4.513
 3777SOL    HW212012   3.349   1.517   4.367
 3778SOL     OW12013   2.993   0.698   4.426
 3778SOL    HW112014   3.042   0.780   4.412
 3778SOL    HW212015   2.946   0.713   4.508
 3779SOL     OW12016   3.620   0.621   3.953
 3779SOL    HW112017   3.604   0.609   3.859
 3779SOL    HW212018   3.607   0.534   3.991
 3780SOL     OW12019   2.620   1.143   4.763
 3780SOL    HW112020   2.550   1.177   4.819
 3780SOL    HW212021   2.654   1.221   4.719
 3781SOL     OW12022   2.727   0.777   5.546
 3781SOL    HW112023   2.712   0.849   5.608
 3781SOL    HW212024   2.750   0.821   5.464
 3782SOL     OW12025   2.548   1.004   4.372
 3782SOL    HW112026   2.613   0.992   4.442
 3782SOL    HW212027   2.478   1.056   4.412
 3783SOL     OW12028   2.571   1.151   5.534
 3783SOL    HW112029   2.619   1.230   5.560
 3783SOL    HW212030   2.488   1.183   5.500
 3784SOL     OW12031   2.193   1.425   4.793
 3784SOL    HW112032   2.119   1.391   4.743
 3784SOL    HW212033   2.243   1.476   4.729
 3785SOL     OW12034   3.323   1.499   5.076
 3785SOL    HW112035   3.371   1.581   5.087
 3785SOL    HW212036   3.264   1.497   5.152
 3786SOL     OW12037   2.304   0.397   5.220
 3786SOL    HW112038   2.391   0.358   5.217
 3786SOL    HW212039   2.244   0.322   5.226
 3787SOL     OW12040   3.474   0.450   4.461
 3787SOL    HW112041   3.402   0.483   4.406
 3787SOL    HW212042   3.500   0.526   4.513
 3788SOL     OW12043   2.093   1.701   4.190
 3788SOL    HW112044   2.125   1.769   4.249
 3788SOL    HW212045   2.163   1.692   4.125
 3789SOL     OW12046   2.998   1.341   5.416
 3789SOL    HW112047   3.038   1.337   5.503
 3789SOL    HW212048   2.945   1.261   5.410
 3790SOL     OW12049   2.089   1.436   4.259
 3790SOL    HW112050   2.077   1.531   4.258
 3790SOL    HW212051   2.027   1.404   4.324
 3791SOL     OW12052   2.118   1.090   4.614
 3791SOL    HW112053   2.115   1.004   4.656
 3791SOL    HW212054   2.061   1.145   4.668
 3792SOL     OW12055   2.475   1.792   5.154
 3792SOL    HW112056   2.393   1.774   5.201
 3792SOL    HW212057   2.499   1.880   5.181
 3793SOL     OW12058   2.449   0.981   3.857
 3793SOL    HW112059   2.494   1.031   3.789
 3793SOL    HW212060   2.489   1.011   3.939
 3794SOL     OW12061   3.442   0.136   5.182
 3794SOL    HW112062   3.462   0.210   5.125
 3794SOL    HW212063   3.416   0.176   5.265
 3795SOL     OW12064   1.976   0.653   4.283
 3795SOL    HW112065   1.950   0.564   4.306
 3795SOL    HW212066   1.969   0.703   4.365
 3796SOL     OW12067   3.700   1.758   4.061
 3796SOL    HW112068   3.766   1.733   4.126
 3796SOL    HW212069   3.723   1.849   4.038
 3797SOL     OW12070   1.866   1.599   3.868
 3797SOL    HW112071   1.861   1.504   3.862
 3797SOL    HW212072   1.874   1.617   3.962
 3798SOL     OW12073   3.548   0.917   4.364
 3798SOL    HW112074   3.634   0.877   4.349
 3798SOL    HW212075   3.532   0.968   4.285
 3799SOL     OW12076   3.504   1.107   4.155
 3799SOL    HW112077   3.588   1.115   4.111
 3799SOL    HW212078   3.510   1.169   4.228
 3800SOL     OW12079   1.984   0.747   5.307
 3800SOL    HW112080   2.076   0.772   5.317
 3800SOL    HW212081   1.936   0.829   5.316
 3801SOL     OW12082   2.475   1.384   4.458
 3801SOL    HW112083   2.429   1.301   4.468
 3801SOL    HW212084   2.458   1.411   4.368
 3802SOL     OW12085   3.151   1.239   5.148
 3802SOL    HW112086   3.185   1.172   5.088
 3802SOL    HW212087   3.208   1.232   5.225
 3803SOL     OW12088   2.679   0.002   4.238
 3803SOL    HW112089   2.724   0.083   4.217
 3803SOL    HW212090   2.586   0.025   4.241
 3804SOL     OW12091   2.053   0.967   4.994
 3804SOL    HW112092   2.137   0.925   4.979
 3804SOL    HW212093   1.990   0.911   4.949
 3805SOL     OW12094   3.392   0.992   3.922
 3805SOL    HW112095   3.322   0.935   3.954
 3805SOL    HW212096   3.433   1.028   4.001
 3806SOL     OW12097   3.049   1.805   5.345
 3806SOL    HW112098   3.061   1.863   5.269
 3806SOL    HW212099   3.064   1.717   5.311
 3807SOL     OW12100   2.213   0.255   5.543
 3807SOL    HW112101   2.257   0.340   5.545
 3807SOL    HW212102   2.120   0.276   5.557
 3808SOL     OW12103   3.328   1.420   4.676
 3808SOL    HW112104   3.260   1.434   4.742
 3808SOL    HW212105   3.316   1.329   4.650
 3809SOL     OW12106   3.519   1.737   4.303
 3809SOL    HW112107   3.501   1.707   4.214
 3809SOL    HW212108   3.496   1.663   4.358
 3810SOL     OW12109   2.457   0.722   3.989
 3810SOL    HW112110   2.464   0.803   3.939
 3810SOL    HW212111   2.393   0.741   4.057
 3811SOL     OW12112   3.138   0.363   4.664
 3811SOL    HW112113   3.051   0.323   4.669
 3811SOL    HW212114   3.195   0.302   4.711
 3812SOL     OW12115   3.441   1.669   4.033
 3812SOL    HW112116   3.531   1.702   4.028
 3812SOL    HW212117   3.417   1.652   3.942
 3813SOL     OW12118   2.659   0.615   5.178
 3813SOL    HW112119   2.629   0.592   5.266
 3813SOL    HW212120   2.616   0.552   5.121
 3814SOL     OW12121   3.255   0.476   5.401
 3814SOL    HW112122   3.258   0.521   5.486
 3814SOL    HW212123   3.315   0.403   5.410
 3815SOL     OW12124   2.818   0.888   5.306
 3815SOL    HW112125   2.872   0.818   5.271
 3815SOL    HW212126   2.770   0.922   5.230
 3816SOL     OW12127   2.853   0.403   4.965
 3816SOL    HW112128   2.772   0.430   5.007
 3816SOL    HW212129   2.826   0.372   4.879
 3817SOL     OW12130   2.912   0.698   4.150
 3817SOL    HW112131   2.927   0.692   4.245
 3817SOL    HW212132   2.830   0.652   4.135
 3818SOL     OW12133   1.950   0.821   4.500
 3818SOL    HW112134   2.031   0.813   4.550
 3818SOL    HW212135   1.908   0.900   4.535
 3819SOL     OW12136   2.754   0.350   3.923
 3819SOL    HW112137   2.795   0.408   3.859
 3819SOL    HW212138   2.754   0.264   3.880
 3820SOL     OW12139   3.574   0.575   5.553
 3820SOL    HW112140   3.536   0.651   5.508
 3820SOL    HW212141   3.596   0.515   5.482
 3821SOL     OW12142   3.237   1.142   4.265
 3821SOL    HW112143   3.317   1.129   4.214
 3821SOL    HW212144   3.185   1.204   4.215
 3822SOL     OW12145   2.417   0.197   4.606
 3822SOL    HW112146   2.421   0.215   4.700
 3822SOL    HW212147   2.415   0.284   4.566
 3823SOL     OW12148   2.869   1.444   4.197
 3823SOL    HW112149   2.830   1.516   4.147
 3823SOL    HW212150   2.852   1.467   4.289
 3824SOL     OW12151   2.218   1.800   4.588
 3824SOL    HW112152   2.255   1.712   4.600
 3824SOL    HW212153   2.289   1.859   4.613
 3825SOL     OW12154   3.665   1.062   4.590
 3825SOL    HW112155   3.609   1.042   4.515
 3825SOL    HW212156   3.605   1.066   4.665
 3826SOL     OW12157   3.090   1.539   5.237
 3826SOL    HW112158   3.076   1.466   5.298
 3826SOL    HW212159   3.027   1.524   5.166
 3827SOL     OW12160   2.183   0.957   3.973
 3827SOL    HW112161   2.265   0.976   3.928
 3827SOL    HW212162   2.153   0.875   3.935
 3828SOL     OW12163   3.339   0.740   4.454
 3828SOL    HW112164   3.331   0.698   4.539
 3828SOL    HW212165   3.416   0.797   4.463
 3829SOL     OW12166   2.329   1.262   5.458
 3829SOL    HW112167   2.303   1.267   5.366
 3829SOL    HW212168   2.246   1.260   5.506
 3830SOL     OW12169   2.983   1.778   3.955
 3830SOL    HW112170   2.911   1.735   4.001
 3830SOL    HW212171   3.006   1.717   3.885
 3831SOL     OW12172   2.038   0.277   5.221
 3831SOL    HW112173   1.975   0.350   5.217
 3831SOL    HW212174   2.046   0.258   5.315
 3832SOL     OW12175   3.489   1.381   3.811
 3832SOL    HW112176   3.447   1.466   3.796
 3832SOL    HW212177   3.421   1.316   3.792
 3833SOL     OW12178   2.335   1.719   4.059
 3833SOL    HW112179   2.374   1.792   4.108
 3833SOL    HW212180   2.394   1.707   3.984
 3834SOL     OW12181   3.296   0.162   4.126
 3834SOL    HW112182   3.256   0.092   4.075
 3834SOL    HW212183   3.374   0.121   4.165
 3835SOL     OW12184   2.154   1.768   4.949
 3835SOL    HW112185   2.193   1.688   4.984
 3835SOL    HW212186   2.117   1.742   4.865
 3836SOL     OW12187   2.799   1.698   4.624
 3836SOL    HW112188   2.877   1.646   4.645
 3836SOL    HW212189   2.755   1.649   4.554
 3837SOL     OW12190   2.254   0.695   4.201
 3837SOL    HW112191   2.275   0.603   4.211
 3837SOL    HW212192   2.160   0.700   4.219
 3838SOL     OW12193   3.394   0.232   5.451
 3838SOL    HW112194   3.392   0.257   5.543
 3838SOL    HW212195   3.362   0.142   5.449
 3839SOL     OW12196   2.503   0.137   3.829
 3839SOL    HW112197   2.538   0.057   3.869
 3839SOL    HW212198   2.440   0.105   3.764
 3840SOL     OW12199   2.640   0.281   5.487
 3840SOL    HW112200   2.703   0.209   5.494
 3840SOL    HW212201   2.578   0.266   5.558
 3841SOL     OW12202   2.738   1.522   4.917
 3841SOL    HW112203   2.723   1.485   4.830
 3841SOL    HW212204   2.808   1.467   4.954
 3842SOL     OW12205   3.205   0.587   5.154
 3842SOL    HW112206   3.234   0.558   5.241
 3842SOL    HW212207   3.237   0.676   5.146
 3843SOL     OW12208   2.676   1.396   4.662
 3843SOL    HW112209   2.760   1.385   4.617
 3843SOL    HW212210   2.611   1.396   4.591
 3844SOL     OW12211   2.791   0.510   4.627
 3844SOL    HW112212   2.767   0.503   4.534
 3844SOL    HW212213   2.820   0.422   4.651
 3845SOL     OW12214   2.408   0.058   4.218
 3845SOL    HW112215   2.333   0.062   4.277
 3845SOL    HW212216   2.403   0.138   4.167
 3846SOL     OW12217   3.290   1.198   3.765
 3846SOL    HW112218   3.321   1.123   3.815
 3846SOL    HW212219   3.204   1.219   3.803
 3847SOL     OW12220   2.187   0.042   3.931
 3847SOL    HW112221   2.204   0.112   3.868
 3847SOL    HW212222   2.271   0.029   3.975
 3848SOL     OW12223   2.800   0.247   4.188
 3848SOL    HW112224   2.774   0.289   4.106
 3848SOL    HW212225   2.895   0.248   4.186
 3849SOL     OW12226   2.942   0.681   5.184
 3849SOL    HW112227   2.870   0.618   5.191
 3849SOL    HW212228   3.020   0.627   5.178
 3850SOL     OW12229   3.086   1.570   4.518
 3850SOL    HW112230   3.103   1.637   4.452
 3850SOL    HW212231   3.154   1.582   4.584
 3851SOL     OW12232   2.330   1.148   4.459
 3851SOL    HW112233   2.260   1.130   4.522
 3851SOL    HW212234   2.291   1.132   4.373
 3852SOL     OW12235   3.132   1.794   4.331
 3852SOL    HW112236   3.178   1.855   4.273
 3852SOL    HW212237   3.066   1.848   4.375
 3853SOL     OW12238   2.887   0.547   3.746
 3853SOL    HW112239   2.843   0.630   3.727
 3853SOL    HW212240   2.949   0.568   3.816
 3854SOL     OW12241   1.940   0.552   5.119
 3854SOL    HW112242   2.031   0.552   5.089
 3854SOL    HW212243   1.935   0.626   5.180
 3855SOL     OW12244   2.427   0.232   4.885
 3855SOL    HW112245   2.453   0.141   4.897
 3855SOL    HW212246   2.337   0.236   4.916
 3856SOL     OW12247   2.733   0.461   4.363
 3856SOL    HW112248   2.684   0.514   4.301
 3856SOL    HW212249   2.752   0.380   4.316
 3857SOL     OW12250   2.856   0.042   4.503
 3857SOL    HW112251   2.823   0.065   4.416
 3857SOL    HW212252   2.866   3.947   4.499
 3858SOL     OW12253   3.299   1.163   4.582
 3858SOL    HW112254   3.230   1.097   4.580
 3858SOL    HW212255   3.323   1.175   4.490
 3859SOL     OW12256   3.328   0.604   4.703
 3859SOL    HW112257   3.279   0.522   4.709
 3859SOL    HW212258   3.390   0.600   4.776
 3860SOL     OW12259   3.722   0.823   4.099
 3860SOL    HW112260   3.764   0.766   4.163
 3860SOL    HW212261   3.682   0.763   4.036
 3861SOL     OW12262   2.355   1.416   3.882
 3861SOL    HW112263   2.280   1.388   3.936
 3861SOL    HW212264   2.335   1.383   3.795
 3862SOL     OW12265   3.528   1.265   4.372
 3862SOL    HW112266   3.623   1.270   4.380
 3862SOL    HW212267   3.497   1.353   4.392
 3863SOL     OW12268   3.256   0.572   3.794
 3863SOL    HW112269   3.194   0.555   3.864
 3863SOL    HW212270   3.342   0.554   3.832
 3864SOL     OW12271   2.389   0.266   4.042
 3864SOL    HW112272   2.439   0.225   3.972
 3864SOL    HW212273   2.364   0.351   4.007
 3865SOL     OW12274   3.614   1.234   5.297
 3865SOL    HW112275   3.702   1.199   5.279
 3865SOL    HW212276   3.630   1.323   5.329
 3866SOL     OW12277   2.921   1.353   5.058
 3866SOL    HW112278   2.847   1.322   5.109
 3866SOL    HW212279   2.997   1.312   5.099
 3867SOL     OW12280   3.467   1.627   5.377
 3867SOL    HW112281   3.462   1.661   5.287
 3867SOL    HW212282   3.549   1.578   5.379
 3868SOL     OW12283   2.989   1.202   4.830
 3868SOL    HW112284   2.931   1.240   4.896
 3868SOL    HW212285   2.956   1.234   4.746
 3869SOL     OW12286   3.494   1.099   4.801
 3869SOL    HW112287   3.487   1.160   4.874
 3869SOL    HW212288   3.414   1.114   4.749
 3870SOL     OW12289   2.776   0.111   5.126
 3870SOL    HW112290   2.795   0.087   5.036
 3870SOL    HW212291   2.856   0.153   5.157
 3871SOL     OW12292   2.846   1.114   5.447
 3871SOL    HW112293   2.754   1.131   5.467
 3871SOL    HW212294   2.845   1.037   5.391
 3872SOL     OW12295   2.570   1.061   4.095
 3872SOL    HW112296   2.556   1.046   4.189
 3872SOL    HW212297   2.646   1.007   4.073
 3873SOL     OW12298   2.280   0.814   4.975
 3873SOL    HW112299   2.349   0.823   5.041
 3873SOL    HW212300   2.245   0.726   4.989
 3874SOL     OW12301   3.129   0.375   4.999
 3874SOL    HW112302   3.163   0.453   5.043
 3874SOL    HW212303   3.043   0.402   4.968
 3875SOL     OW12304   1.933   1.577   5.076
 3875SOL    HW112305   1.898   1.642   5.015
 3875SOL    HW212306   2.027   1.581   5.063
 3876SOL     OW12307   2.214   1.107   4.216
 3876SOL    HW112308   2.218   1.182   4.155
 3876SOL    HW212309   2.211   1.030   4.159
 3877SOL     OW12310   2.419   0.536   4.582
 3877SOL    HW112311   2.434   0.596   4.509
 3877SOL    HW212312   2.481   0.565   4.649
 3878SOL     OW12313   3.110   1.348   4.113
 3878SOL    HW112314   3.166   1.420   4.144
 3878SOL    HW212315   3.023   1.369   4.147
 3879SOL     OW12316   3.141   1.457   4.870
 3879SOL    HW112317   3.196   1.459   4.948
 3879SOL    HW212318   3.086   1.380   4.883
 3880SOL     OW12319   3.438   0.631   4.206
 3880SOL    HW112320   3.399   0.691   4.270
 3880SOL    HW212321   3.487   0.688   4.146
 3881SOL     OW12322   2.213   1.517   5.042
 3881SOL    HW112323   2.199   1.475   4.957
 3881SOL    HW212324   2.308   1.529   5.048
 3882SOL     OW12325   2.276   0.745   5.325
 3882SOL    HW112326   2.336   0.790   5.267
 3882SOL    HW212327   2.317   0.660   5.341
 3883SOL     OW12328   3.461   0.776   5.403
 3883SOL    HW112329   3.376   0.818   5.397
 3883SOL    HW212330   3.514   0.819   5.336
 3884SOL     OW12331   2.885   0.120   5.502
 3884SOL    HW112332   2.917   0.200   5.459
 3884SOL    HW212333   2.869   0.059   5.430
 3885SOL     OW12334   2.347   0.034   5.488
 3885SOL    HW112335   2.354   0.039   5.393
 3885SOL    HW212336   2.289   0.107   5.511
 3886SOL     OW12337   2.445   0.872   4.755
 3886SOL    HW112338   2.473   0.964   4.753
 3886SOL    HW212339   2.388   0.867   4.832
 3887SOL     OW12340   3.221   0.859   4.755
 3887SOL    HW112341   3.138   0.851   4.707
 3887SOL    HW212342   3.260   0.772   4.751
 3888SOL     OW12343   3.067   0.534   3.988
 3888SOL    HW112344   3.075   0.455   4.041
 3888SOL    HW212345   3.024   0.598   4.045
 3889SOL     OW12346   2.165   0.212   4.966
 3889SOL    HW112347   2.126   0.241   5.048
 3889SOL    HW212348   2.151   0.117   4.965
 3890SOL     OW12349   1.906   1.313   5.003
 3890SOL    HW112350   1.941   1.258   5.073
 3890SOL    HW212351   1.915   1.402   5.035
 3891SOL     OW12352   2.587   0.633   4.781
 3891SOL    HW112353   2.661   0.617   4.721
 3891SOL    HW212354   2.558   0.722   4.760
 3892SOL     OW12355   3.596   0.956   5.582
 3892SOL    HW112356   3.549   0.904   5.516
 3892SOL    HW212357   3.532   0.969   5.652
 3893SOL     OW12358   2.183   0.057   4.369
 3893SOL    HW112359   2.161   0.150   4.381
 3893SOL    HW212360   2.142   0.014   4.444
 3894SOL     OW12361   3.468   0.387   4.105
 3894SOL    HW112362   3.443   0.318   4.167
 3894SOL    HW212363   3.446   0.468   4.150
 3895SOL     OW12364   2.890   0.759   4.685
 3895SOL    HW112365   2.887   0.777   4.779
 3895SOL    HW212366   2.863   0.668   4.677
 3896SOL     OW12367   2.846   1.568   5.439
 3896SOL    HW112368   2.830   1.611   5.356
 3896SOL    HW212369   2.886   1.484   5.416
 3897SOL     OW12370   3.709   1.505   5.325
 3897SOL    HW112371   3.730   1.532   5.236
 3897SOL    HW212372   3.790   1.520   5.374
 3898SOL     OW12373   2.215   0.914   5.534
 3898SOL    HW112374   2.297   0.936   5.576
 3898SOL    HW212375   2.239   0.853   5.464
 3899SOL     OW12376   3.370   0.276   3.860
 3899SOL    HW112377   3.295   0.218   3.872
 3899SOL    HW212378   3.384   0.316   3.945
 3900SOL     OW12379   3.154   0.827   3.755
 3900SOL    HW112380   3.197   0.741   3.758
 3900SOL    HW212381   3.186   0.866   3.674
 3901SOL     OW12382   2.927   1.335   4.577
 3901SOL    HW112383   2.930   1.263   4.515
 3901SOL    HW212384   2.989   1.399   4.543
 3902SOL     OW12385   2.171   0.810   4.672
 3902SOL    HW112386   2.264   0.831   4.666
 3902SOL    HW212387   2.169   0.720   4.704
 3903SOL     OW12388   2.199   0.532   4.736
 3903SOL    HW112389   2.158   0.447   4.720
 3903SOL    HW212390   2.275   0.534   4.678
 3904SOL     OW12391   2.995   0.383   5.415
 3904SOL    HW112392   2.948   0.438   5.477
 3904SOL    HW212393   3.083   0.422   5.410
 3905SOL     OW12394   3.013   0.224   5.205
 3905SOL    HW112395   3.005   0.279   5.283
 3905SOL    HW212396   3.035   0.286   5.135
 3906SOL     OW12397   1.866   1.320   3.918
 3906SOL    HW112398   1.778   1.333   3.881
 3906SOL    HW212399   1.865   1.231   3.952
 3907SOL     OW12400   1.973   1.725   4.703
 3907SOL    HW112401   1.934   1.669   4.636
 3907SOL    HW212402   2.038   1.777   4.655
 3908SOL     OW12403   2.362   1.570   4.632
 3908SOL    HW112404   2.431   1.632   4.655
 3908SOL    HW212405   2.406   1.507   4.575
 3909SOL     OW12406   2.847   0.791   4.950
 3909SOL    HW112407   2.901   0.769   5.027
 3909SOL    HW212408   2.760   0.758   4.971
 3910SOL     OW12409   1.896   0.545   4.841
 3910SOL    HW112410   1.972   0.520   4.789
 3910SOL    HW212411   1.928   0.548   4.931
 3911SOL     OW12412   2.063   0.526   5.439
 3911SOL    HW112413   2.129   0.502   5.374
 3911SOL    HW212414   2.016   0.599   5.400
 3912SOL     OW12415   3.240   0.940   5.383
 3912SOL    HW112416   3.260   1.033   5.382
 3912SOL    HW212417   3.236   0.915   5.291
 3913SOL     OW12418   2.678   0.571   4.082
 3913SOL    HW112419   2.682   0.495   4.024
 3913SOL    HW212420   2.603   0.622   4.050
 3914SOL     OW12421   3.504   0.602   4.911
 3914SOL    HW112422   3.492   0.541   4.984
 3914SOL    HW212423   3.589   0.580   4.875
 3915SOL     OW12424   2.119   1.540   5.431
 3915SOL    HW112425   2.099   1.609   5.494
 3915SOL    HW212426   2.112   1.459   5.481
 3916SOL     OW12427   2.560   0.457   4.985
 3916SOL    HW112428   2.513   0.378   4.957
 3916SOL    HW212429   2.556   0.515   4.910
 3917SOL     OW12430   2.791   1.679   5.190
 3917SOL    HW112431   2.764   1.647   5.104
 3917SOL    HW212432   2.788   1.774   5.182
 3918SOL     OW12433   2.328   0.494   3.911
 3918SOL    HW112434   2.385   0.567   3.932
 3918SOL    HW212435   2.242   0.534   3.899
 3919SOL     OW12436   2.008   1.140   5.196
 3919SOL    HW112437   2.012   1.088   5.276
 3919SOL    HW212438   2.026   1.078   5.125
 3920SOL     OW12439   3.188   1.047   4.948
 3920SOL    HW112440   3.213   0.985   4.880
 3920SOL    HW212441   3.118   1.099   4.910
 3921SOL     OW12442   3.173   0.855   4.030
 3921SOL    HW112443   3.096   0.827   4.080
 3921SOL    HW212444   3.147   0.843   3.939
 3922SOL     OW12445   3.637   1.746   4.876
 3922SOL    HW112446   3.692   1.772   4.803
 3922SOL    HW212447   3.610   1.656   4.855
 3923SOL     OW12448   3.103   1.733   4.839
 3923SOL    HW112449   3.185   1.753   4.793
 3923SOL    HW212450   3.108   1.639   4.857
 3924SOL     OW12451   1.947   1.264   4.739
 3924SOL    HW112452   1.932   1.278   4.832
 3924SOL    HW212453   1.872   1.212   4.710
 3925SOL     OW12454   2.539   1.662   5.446
 3925SOL    HW112455   2.493   1.745   5.453
 3925SOL    HW212456   2.604   1.676   5.378
 3926SOL     OW12457   3.555   0.124   4.210
 3926SOL    HW112458   3.637   0.134   4.162
 3926SOL    HW212459   3.553   0.031   4.235
 3927SOL     OW12460   3.252   1.567   4.208
 3927SOL    HW112461   3.312   1.599   4.141
 3927SOL    HW212462   3.204   1.646   4.236
 3928SOL     OW12463   2.035   1.748   5.575
 3928SOL    HW112464   1.976   1.696   5.630
 3928SOL    HW212465   2.009   1.839   5.592
 3929SOL     OW12466   3.139   0.925   4.394
 3929SOL    HW112467   3.213   0.864   4.401
 3929SOL    HW212468   3.173   0.998   4.343
 3930SOL     OW12469   2.678   1.272   5.154
 3930SOL    HW112470   2.651   1.311   5.237
 3930SOL    HW212471   2.608   1.294   5.093
 3931SOL     OW12472   2.536   1.618   3.876
 3931SOL    HW112473   2.544   1.627   3.781
 3931SOL    HW212474   2.481   1.541   3.888
 3932SOL     OW12475   3.489   1.727   5.115
 3932SOL    HW112476   3.541   1.733   5.035
 3932SOL    HW212477   3.476   1.817   5.143
 3933SOL     OW12478   3.702   0.179   4.694
 3933SOL    HW112479   3.727   0.096   4.654
 3933SOL    HW212480   3.615   0.198   4.658
 3934SOL     OW12481   2.127   0.318   4.440
 3934SOL    HW112482   2.041   0.354   4.418
 3934SOL    HW212483   2.125   0.306   4.535
 3935SOL     OW12484   3.069   1.607   3.755
 3935SOL    HW112485   3.060   1.516   3.783
 3935SOL    HW212486   3.003   1.617   3.686
 3936SOL     OW12487   2.687   1.006   5.096
 3936SOL    HW112488   2.728   1.004   5.009
 3936SOL    HW212489   2.686   1.098   5.120
 3937SOL     OW12490   2.777   0.910   4.013
 3937SOL    HW112491   2.839   0.942   3.948
 3937SOL    HW212492   2.825   0.840   4.058
 3938SOL     OW12493   3.355   1.625   3.766
 3938SOL    HW112494   3.260   1.620   3.753
 3938SOL    HW212495   3.391   1.631   3.678
 3939SOL     OW12496   2.234   1.297   5.213
 3939SOL    HW112497   2.219   1.377   5.163
 3939SOL    HW212498   2.154   1.245   5.200
 3940SOL     OW12499   3.467   1.280   5.003
 3940SOL    HW112500   3.533   1.275   5.072
 3940SOL    HW212501   3.409   1.351   5.031
 3941SOL     OW12502   2.912   1.106   4.430
 3941SOL    HW112503   2.842   1.055   4.469
 3941SOL    HW212504   2.974   1.041   4.397
 3942SOL     OW12505   2.877   0.247   4.691
 3942SOL    HW112506   2.866   0.197   4.610
 3942SOL    HW212507   2.870   0.181   4.761
 3943SOL     OW12508   2.463   1.490   4.206
 3943SOL    HW112509   2.503   1.440   4.135
 3943SOL    HW212510   2.401   1.548   4.162
 3944SOL     OW12511   3.581   0.391   5.098
 3944SOL    HW112512   3.652   0.456   5.097
 3944SOL    HW212513   3.613   0.320   5.043
 3945SOL     OW12514   2.120   1.347   4.010
 3945SOL    HW112515   2.027   1.343   3.990
 3945SOL    HW212516   2.124   1.382   4.099
 3946SOL     OW12517   1.974   1.017   5.442
 3946SOL    HW112518   1.898   0.996   5.496
 3946SOL    HW212519   2.049   0.983   5.491
 3947SOL     OW12520   2.553   0.241   5.221
 3947SOL    HW112521   2.623   0.190   5.181
 3947SOL    HW212522   2.579   0.250   5.313
 3948SOL     OW12523   1.959   0.319   3.713
 3948SOL    HW112524   1.880   0.336   3.765
 3948SOL    HW212525   1.976   0.402   3.668
 3949SOL     OW12526   3.291   0.857   5.124
 3949SOL    HW112527   3.242   0.919   5.069
 3949SOL    HW212528   3.380   0.860   5.089
 3950SOL     OW12529   1.945   0.154   4.064
 3950SOL    HW112530   1.914   0.218   4.000
 3950SOL    HW212531   2.029   0.125   4.030
 3951SOL     OW12532   3.041   1.341   3.841
 3951SOL    HW112533   2.950   1.310   3.844
 3951SOL    HW212534   3.070   1.341   3.932
 3952SOL     OW12535   2.481   0.830   5.157
 3952SOL    HW112536   2.537   0.906   5.142
 3952SOL    HW212537   2.543   0.757   5.166
 3953SOL     OW12538   3.346   1.777   4.701
 3953SOL    HW112539   3.371   1.834   4.629
 3953SOL    HW212540   3.428   1.756   4.745
 3954SOL     OW12541   2.579   0.563   5.430
 3954SOL    HW112542   2.618   0.627   5.490
 3954SOL    HW212543   2.612   0.479   5.461
 3955SOL     OW12544   3.332   1.201   5.356
 3955SOL    HW112545   3.320   1.215   5.450
 3955SOL    HW212546   3.425   1.215   5.341
 3956SOL     OW12547   2.241   1.744   5.292
 3956SOL    HW112548   2.158   1.765   5.248
 3956SOL    HW212549   2.225   1.660   5.334
 3957SOL     OW12550   3.530   0.882   4.983
 3957SOL    HW112551   3.527   0.796   4.939
 3957SOL    HW212552   3.524   0.945   4.911
 3958SOL     OW12553   3.085   0.333   4.171
 3958SOL    HW112554   3.152   0.266   4.161
 3958SOL    HW212555   3.108   0.379   4.252
 3959SOL     OW12556   2.454   0.739   4.392
 3959SOL    HW112557   2.492   0.825   4.376
 3959SOL    HW212558   2.384   0.731   4.327
 3960SOL     OW12559   3.619   0.379   5.366
 3960SOL    HW112560   3.599   0.386   5.273
 3960SOL    HW212561   3.559   0.312   5.399
 3961SOL     OW12562   3.612   0.932   5.238
 3961SOL    HW112563   3.608   1.026   5.253
 3961SOL    HW212564   3.592   0.921   5.146
 3962SOL     OW12565   2.723   1.368   3.755
 3962SOL    HW112566   2.686   1.393   3.840
 3962SOL    HW212567   2.743   1.451   3.712
 3963SOL     OW12568   2.521   1.795   4.670
 3963SOL    HW112569   2.505   1.885   4.642
 3963SOL    HW212570   2.616   1.785   4.662
 3964SOL     OW12571   2.729   0.966   4.580
 3964SOL    HW112572   2.779   0.895   4.620
 3964SOL    HW212573   2.695   1.016   4.654
 3965SOL     OW12574   2.942   0.988   3.813
 3965SOL    HW112575   2.920   1.039   3.735
 3965SOL    HW212576   3.017   0.935   3.786
 3966SOL     OW12577   3.718   1.557   4.566
 3966SOL    HW112578   3.640   1.542   4.514
 3966SOL    HW212579   3.715   1.490   4.635
 3967SOL     OW12580   2.081   1.299   5.558
 3967SOL    HW112581   2.010   1.236   5.550
 3967SOL    HW212582   2.093   1.311   5.652
 3968SOL     OW12583   1.943   1.229   4.387
 3968SOL    HW112584   1.951   1.183   4.471
 3968SOL    HW212585   2.016   1.196   4.334
 3969SOL     OW12586   2.542   1.401   5.349
 3969SOL    HW112587   2.463   1.358   5.381
 3969SOL    HW212588   2.538   1.489   5.386
 3970SOL     OW12589   3.677   0.182   4.967
 3970SOL    HW112590   3.679   0.087   4.976
 3970SOL    HW212591   3.693   0.199   4.874
 3971SOL     OW12592   2.291   0.434   4.248
 3971SOL    HW112593   2.322   0.361   4.194
 3971SOL    HW212594   2.244   0.392   4.321
 3972SOL     OW12595   3.562   1.492   4.824
 3972SOL    HW112596   3.481   1.467   4.778
 3972SOL    HW212597   3.576   1.422   4.887
 3973SOL     OW12598   2.189   0.554   5.016
 3973SOL    HW112599   2.244   0.497   5.071
 3973SOL    HW212600   2.210   0.527   4.926
 3974SOL     OW12601   2.688   1.577   4.403
 3974SOL    HW112602   2.679   1.629   4.323
 3974SOL    HW212603   2.611   1.521   4.404
 3975SOL     OW12604   3.323   0.250   4.836
 3975SOL    HW112605   3.337   0.163   4.871
 3975SOL    HW212606   3.265   0.293   4.899
 3976SOL     OW12607   2.868   0.030   4.872
 3976SOL    HW112608   2.793   3.979   4.842
 3976SOL    HW212609   2.939   3.965   4.879
 3977SOL     OW12610   2.635   1.332   4.035
 3977SOL    HW112611   2.601   1.242   4.043
 3977SOL    HW212612   2.716   1.332   4.086
 3978SOL     OW12613   2.482   1.557   5.009
 3978SOL    HW112614   2.484   1.639   5.058
 3978SOL    HW212615   2.570   1.549   4.971
 3979SOL     OW12616   3.178   0.072   3.884
 3979SOL    HW112617   3.193   0.002   3.821
 3979SOL    HW212618   3.093   0.051   3.923
 3980SOL     OW12619   3.147   0.458   4.411
 3980SOL    HW112620   3.099   0.540   4.408
 3980SOL    HW212621   3.152   0.436   4.504
 3981SOL     OW12622   3.451   0.211   4.591
 3981SOL    HW112623   3.401   0.232   4.669
 3981SOL    HW212624   3.451   0.291   4.539
 3982SOL     OW12625   1.906   1.072   4.028
 3982SOL    HW112626   2.000   1.064   4.013
 3982SOL    HW212627   1.878   0.984   4.052
 3983SOL     OW12628   2.746   1.650   4.066
 3983SOL    HW112629   2.672   1.634   4.007
 3983SOL    HW212630   2.719   1.725   4.118
 3984SOL     OW12631   2.093   0.620   5.707
 3984SOL    HW112632   2.002   0.626   5.738
 3984SOL    HW212633   2.085   0.600   5.614
 3985SOL     OW12634   2.079   0.296   6.576
 3985SOL    HW112635   2.116   0.256   6.654
 3985SOL    HW212636   1.996   0.251   6.563
 3986SOL     OW12637   1.872   0.393   6.223
 3986SOL    HW112638   1.784   0.409   6.259
 3986SOL    HW212639   1.859   0.322   6.160
 3987SOL     OW12640   3.419   1.511   6.292
 3987SOL    HW112641   3.377   1.495   6.376
 3987SOL    HW212642   3.347   1.516   6.229
 3988SOL     OW12643   2.993   0.698   6.288
 3988SOL    HW112644   3.042   0.779   6.274
 3988SOL    HW212645   2.946   0.713   6.370
 3989SOL     OW12646   3.619   0.621   5.815
 3989SOL    HW112647   3.604   0.610   5.722
 3989SOL    HW212648   3.607   0.533   5.852
 3990SOL     OW12649   2.610   1.145   6.614
 3990SOL    HW112650   2.557   1.194   6.676
 3990SOL    HW212651   2.671   1.209   6.578
 3991SOL     OW12652   2.728   0.775   7.409
 3991SOL    HW112653   2.724   0.847   7.473
 3991SOL    HW212654   2.752   0.819   7.327
 3992SOL     OW12655   2.546   1.010   6.234
 3992SOL    HW112656   2.612   0.992   6.300
 3992SOL    HW212657   2.474   1.051   6.282
 3993SOL     OW12658   3.322   1.499   6.940
 3993SOL    HW112659   3.369   1.582   6.946
 3993SOL    HW212660   3.263   1.499   7.015
 3994SOL     OW12661   2.305   0.398   7.082
 3994SOL    HW112662   2.391   0.357   7.079
 3994SOL    HW212663   2.243   0.324   7.088
 3995SOL     OW12664   3.473   0.450   6.323
 3995SOL    HW112665   3.402   0.484   6.268
 3995SOL    HW212666   3.501   0.526   6.374
 3996SOL     OW12667   2.993   1.346   7.281
 3996SOL    HW112668   3.040   1.342   7.365
 3996SOL    HW212669   2.953   1.260   7.272
 3997SOL     OW12670   2.083   1.364   6.069
 3997SOL    HW112671   2.112   1.441   6.118
 3997SOL    HW212672   2.031   1.314   6.132
 3998SOL     OW12673   2.471   1.782   7.047
 3998SOL    HW112674   2.385   1.770   7.086
 3998SOL    HW212675   2.506   1.861   7.090
 3999SOL     OW12676   2.450   0.981   5.718
 3999SOL    HW112677   2.494   1.032   5.650
 3999SOL    HW212678   2.489   1.011   5.800
 4000SOL     OW12679   3.441   0.136   7.044
 4000SOL    HW112680   3.463   0.210   6.987
 4000SOL    HW212681   3.416   0.176   7.127
 4001SOL     OW12682   1.977   0.653   6.145
 4001SOL    HW112683   1.950   0.564   6.169
 4001SOL    HW212684   1.972   0.703   6.226
 4002SOL     OW12685   3.700   1.758   5.922
 4002SOL    HW112686   3.766   1.733   5.988
 4002SOL    HW212687   3.723   1.849   5.900
 4003SOL     OW12688   1.875   1.596   5.726
 4003SOL    HW112689   1.868   1.501   5.728
 4003SOL    HW212690   1.824   1.625   5.802
 4004SOL     OW12691   3.548   0.916   6.225
 4004SOL    HW112692   3.634   0.877   6.211
 4004SOL    HW212693   3.532   0.968   6.147
 4005SOL     OW12694   3.504   1.107   6.017
 4005SOL    HW112695   3.588   1.115   5.973
 4005SOL    HW212696   3.510   1.169   6.090
 4006SOL     OW12697   1.987   0.749   7.167
 4006SOL    HW112698   2.080   0.769   7.177
 4006SOL    HW212699   1.943   0.832   7.186
 4007SOL     OW12700   3.149   1.229   7.016
 4007SOL    HW112701   3.185   1.169   6.952
 4007SOL    HW212702   3.212   1.228   7.088
 4008SOL     OW12703   2.679   0.002   6.101
 4008SOL    HW112704   2.724   0.083   6.079
 4008SOL    HW212705   2.586   0.026   6.103
 4009SOL     OW12706   2.058   0.984   6.848
 4009SOL    HW112707   2.138   0.933   6.839
 4009SOL    HW212708   1.988   0.923   6.822
 4010SOL     OW12709   3.392   0.992   5.784
 4010SOL    HW112710   3.322   0.935   5.817
 4010SOL    HW212711   3.433   1.028   5.863
 4011SOL     OW12712   3.094   1.780   7.202
 4011SOL    HW112713   3.067   1.848   7.140
 4011SOL    HW212714   3.091   1.699   7.151
 4012SOL     OW12715   2.213   0.255   7.406
 4012SOL    HW112716   2.256   0.340   7.406
 4012SOL    HW212717   2.120   0.276   7.419
 4013SOL     OW12718   3.333   1.417   6.541
 4013SOL    HW112719   3.263   1.433   6.604
 4013SOL    HW212720   3.319   1.327   6.512
 4014SOL     OW12721   3.519   1.737   6.164
 4014SOL    HW112722   3.501   1.707   6.076
 4014SOL    HW212723   3.495   1.664   6.221
 4015SOL     OW12724   2.457   0.723   5.851
 4015SOL    HW112725   2.464   0.804   5.800
 4015SOL    HW212726   2.392   0.742   5.918
 4016SOL     OW12727   3.138   0.363   6.527
 4016SOL    HW112728   3.051   0.323   6.531
 4016SOL    HW212729   3.195   0.302   6.573
 4017SOL     OW12730   3.441   1.669   5.895
 4017SOL    HW112731   3.531   1.702   5.890
 4017SOL    HW212732   3.417   1.653   5.804
 4018SOL     OW12733   2.655   0.618   7.039
 4018SOL    HW112734   2.628   0.592   7.128
 4018SOL    HW212735   2.616   0.552   6.982
 4019SOL     OW12736   3.255   0.477   7.263
 4019SOL    HW112737   3.258   0.521   7.348
 4019SOL    HW212738   3.315   0.403   7.272
 4020SOL     OW12739   2.818   0.886   7.165
 4020SOL    HW112740   2.872   0.815   7.133
 4020SOL    HW212741   2.768   0.915   7.088
 4021SOL     OW12742   2.852   0.405   6.827
 4021SOL    HW112743   2.769   0.428   6.868
 4021SOL    HW212744   2.828   0.371   6.741
 4022SOL     OW12745   2.912   0.698   6.012
 4022SOL    HW112746   2.927   0.691   6.107
 4022SOL    HW212747   2.830   0.652   5.997
 4023SOL     OW12748   1.954   0.817   6.362
 4023SOL    HW112749   2.034   0.811   6.414
 4023SOL    HW212750   1.905   0.889   6.403
 4024SOL     OW12751   2.754   0.350   5.785
 4024SOL    HW112752   2.795   0.409   5.722
 4024SOL    HW212753   2.753   0.264   5.742
 4025SOL     OW12754   3.573   0.576   7.415
 4025SOL    HW112755   3.536   0.651   7.370
 4025SOL    HW212756   3.596   0.515   7.345
 4026SOL     OW12757   3.236   1.140   6.126
 4026SOL    HW112758   3.317   1.129   6.076
 4026SOL    HW212759   3.185   1.205   6.077
 4027SOL     OW12760   2.417   0.197   6.469
 4027SOL    HW112761   2.421   0.215   6.563
 4027SOL    HW212762   2.414   0.284   6.428
 4028SOL     OW12763   2.868   1.443   6.064
 4028SOL    HW112764   2.808   1.507   6.026
 4028SOL    HW212765   2.868   1.463   6.158
 4029SOL     OW12766   2.213   1.784   6.443
 4029SOL    HW112767   2.271   1.717   6.478
 4029SOL    HW212768   2.264   1.865   6.450
 4030SOL     OW12769   3.665   1.062   6.452
 4030SOL    HW112770   3.608   1.043   6.377
 4030SOL    HW212771   3.605   1.065   6.527
 4031SOL     OW12772   3.084   1.528   7.091
 4031SOL    HW112773   3.061   1.462   7.157
 4031SOL    HW212774   3.028   1.508   7.016
 4032SOL     OW12775   2.186   0.954   5.836
 4032SOL    HW112776   2.267   0.975   5.789
 4032SOL    HW212777   2.154   0.874   5.793
 4033SOL     OW12778   3.338   0.741   6.316
 4033SOL    HW112779   3.332   0.698   6.402
 4033SOL    HW212780   3.415   0.797   6.324
 4034SOL     OW12781   2.995   1.779   5.813
 4034SOL    HW112782   2.916   1.744   5.855
 4034SOL    HW212783   3.012   1.718   5.741
 4035SOL     OW12784   2.039   0.279   7.083
 4035SOL    HW112785   1.975   0.349   7.078
 4035SOL    HW212786   2.044   0.257   7.176
 4036SOL     OW12787   3.489   1.381   5.673
 4036SOL    HW112788   3.447   1.466   5.658
 4036SOL    HW212789   3.421   1.317   5.654
 4037SOL     OW12790   2.326   1.748   5.907
 4037SOL    HW112791   2.378   1.789   5.976
 4037SOL    HW212792   2.391   1.710   5.847
 4038SOL     OW12793   3.296   0.161   5.989
 4038SOL    HW112794   3.256   0.092   5.936
 4038SOL    HW212795   3.374   0.121   6.027
 4039SOL     OW12796   2.255   0.695   6.064
 4039SOL    HW112797   2.275   0.602   6.074
 4039SOL    HW212798   2.161   0.701   6.082
 4040SOL     OW12799   3.394   0.232   7.313
 4040SOL    HW112800   3.392   0.256   7.405
 4040SOL    HW212801   3.363   0.142   7.310
 4041SOL     OW12802   2.503   0.137   5.691
 4041SOL    HW112803   2.538   0.057   5.731
 4041SOL    HW212804   2.440   0.105   5.626
 4042SOL     OW12805   2.640   0.282   7.351
 4042SOL    HW112806   2.703   0.210   7.356
 4042SOL    HW212807   2.577   0.264   7.421
 4043SOL     OW12808   3.203   0.588   7.017
 4043SOL    HW112809   3.234   0.558   7.103
 4043SOL    HW212810   3.238   0.676   7.008
 4044SOL     OW12811   2.790   0.510   6.489
 4044SOL    HW112812   2.767   0.503   6.396
 4044SOL    HW212813   2.819   0.423   6.513
 4045SOL     OW12814   2.408   0.058   6.080
 4045SOL    HW112815   2.333   0.062   6.139
 4045SOL    HW212816   2.403   0.138   6.028
 4046SOL     OW12817   3.290   1.198   5.627
 4046SOL    HW112818   3.320   1.123   5.678
 4046SOL    HW212819   3.204   1.219   5.664
 4047SOL     OW12820   2.187   0.042   5.793
 4047SOL    HW112821   2.203   0.112   5.730
 4047SOL    HW212822   2.271   0.029   5.836
 4048SOL     OW12823   2.800   0.247   6.050
 4048SOL    HW112824   2.774   0.289   5.968
 4048SOL    HW212825   2.895   0.248   6.048
 4049SOL     OW12826   2.941   0.679   7.046
 4049SOL    HW112827   2.872   0.614   7.052
 4049SOL    HW212828   3.022   0.628   7.039
 4050SOL     OW12829   3.095   1.556   6.369
 4050SOL    HW112830   3.107   1.630   6.309
 4050SOL    HW212831   3.144   1.580   6.447
 4051SOL     OW12832   3.135   1.792   6.186
 4051SOL    HW112833   3.181   1.852   6.127
 4051SOL    HW212834   3.073   1.847   6.233
 4052SOL     OW12835   2.886   0.547   5.609
 4052SOL    HW112836   2.843   0.630   5.589
 4052SOL    HW212837   2.949   0.569   5.677
 4053SOL     OW12838   1.940   0.553   6.981
 4053SOL    HW112839   2.031   0.553   6.952
 4053SOL    HW212840   1.935   0.627   7.042
 4054SOL     OW12841   2.428   0.232   6.747
 4054SOL    HW112842   2.453   0.140   6.758
 4054SOL    HW212843   2.337   0.236   6.778
 4055SOL     OW12844   2.732   0.461   6.225
 4055SOL    HW112845   2.684   0.514   6.161
 4055SOL    HW212846   2.752   0.380   6.179
 4056SOL     OW12847   2.856   0.042   6.365
 4056SOL    HW112848   2.823   0.065   6.278
 4056SOL    HW212849   2.866   3.947   6.362
 4057SOL     OW12850   3.300   1.161   6.444
 4057SOL    HW112851   3.229   1.098   6.439
 4057SOL    HW212852   3.325   1.177   6.353
 4058SOL     OW12853   3.328   0.604   6.566
 4058SOL    HW112854   3.279   0.522   6.570
 4058SOL    HW212855   3.390   0.600   6.638
 4059SOL     OW12856   3.722   0.823   5.961
 4059SOL    HW112857   3.764   0.766   6.025
 4059SOL    HW212858   3.682   0.763   5.898
 4060SOL     OW12859   2.366   1.406   5.731
 4060SOL    HW112860   2.283   1.384   5.775
 4060SOL    HW212861   2.349   1.392   5.638
 4061SOL     OW12862   3.527   1.265   6.235
 4061SOL    HW112863   3.622   1.271   6.242
 4061SOL    HW212864   3.496   1.353   6.255
 4062SOL     OW12865   3.256   0.572   5.656
 4062SOL    HW112866   3.194   0.555   5.726
 4062SOL    HW212867   3.342   0.554   5.694
 4063SOL     OW12868   2.389   0.266   5.904
 4063SOL    HW112869   2.439   0.225   5.834
 4063SOL    HW212870   2.364   0.351   5.869
 4064SOL     OW12871   3.615   1.234   7.161
 4064SOL    HW112872   3.702   1.199   7.142
 4064SOL    HW212873   3.631   1.324   7.190
 4065SOL     OW12874   2.929   1.344   6.920
 4065SOL    HW112875   2.854   1.315   6.973
 4065SOL    HW212876   3.005   1.304   6.961
 4066SOL     OW12877   3.468   1.624   7.240
 4066SOL    HW112878   3.460   1.661   7.152
 4066SOL    HW212879   3.551   1.577   7.239
 4067SOL     OW12880   2.973   1.191   6.694
 4067SOL    HW112881   2.936   1.251   6.759
 4067SOL    HW212882   2.960   1.235   6.610
 4068SOL     OW12883   3.493   1.098   6.663
 4068SOL    HW112884   3.486   1.160   6.736
 4068SOL    HW212885   3.415   1.115   6.609
 4069SOL     OW12886   2.775   0.113   6.988
 4069SOL    HW112887   2.795   0.085   6.898
 4069SOL    HW212888   2.856   0.153   7.019
 4070SOL     OW12889   2.851   1.110   7.304
 4070SOL    HW112890   2.756   1.123   7.307
 4070SOL    HW212891   2.863   1.033   7.249
 4071SOL     OW12892   2.568   1.060   5.958
 4071SOL    HW112893   2.556   1.045   6.052
 4071SOL    HW212894   2.645   1.009   5.934
 4072SOL     OW12895   2.281   0.816   6.837
 4072SOL    HW112896   2.348   0.822   6.905
 4072SOL    HW212897   2.242   0.729   6.848
 4073SOL     OW12898   3.129   0.375   6.862
 4073SOL    HW112899   3.163   0.453   6.906
 4073SOL    HW212900   3.043   0.402   6.829
 4074SOL     OW12901   2.189   1.085   6.088
 4074SOL    HW112902   2.208   1.167   6.042
 4074SOL    HW212903   2.199   1.017   6.021
 4075SOL     OW12904   2.419   0.536   6.445
 4075SOL    HW112905   2.434   0.595   6.371
 4075SOL    HW212906   2.482   0.565   6.511
 4076SOL     OW12907   3.109   1.348   5.975
 4076SOL    HW112908   3.165   1.419   6.005
 4076SOL    HW212909   3.023   1.369   6.010
 4077SOL     OW12910   3.144   1.454   6.732
 4077SOL    HW112911   3.201   1.462   6.809
 4077SOL    HW212912   3.078   1.390   6.757
 4078SOL     OW12913   3.438   0.631   6.068
 4078SOL    HW112914   3.399   0.692   6.131
 4078SOL    HW212915   3.487   0.686   6.007
 4079SOL     OW12916   2.276   0.744   7.190
 4079SOL    HW112917   2.336   0.788   7.130
 4079SOL    HW212918   2.315   0.657   7.202
 4080SOL     OW12919   3.460   0.776   7.265
 4080SOL    HW112920   3.375   0.818   7.258
 4080SOL    HW212921   3.514   0.819   7.198
 4081SOL     OW12922   2.885   0.121   7.364
 4081SOL    HW112923   2.917   0.200   7.320
 4081SOL    HW212924   2.870   0.058   7.293
 4082SOL     OW12925   2.347   0.035   7.350
 4082SOL    HW112926   2.354   0.039   7.255
 4082SOL    HW212927   2.289   0.107   7.374
 4083SOL     OW12928   2.445   0.870   6.617
 4083SOL    HW112929   2.474   0.961   6.618
 4083SOL    HW212930   2.385   0.862   6.691
 4084SOL     OW12931   3.220   0.857   6.620
 4084SOL    HW112932   3.141   0.852   6.566
 4084SOL    HW212933   3.260   0.771   6.613
 4085SOL     OW12934   3.068   0.534   5.850
 4085SOL    HW112935   3.075   0.455   5.903
 4085SOL    HW212936   3.024   0.597   5.907
 4086SOL     OW12937   2.165   0.212   6.828
 4086SOL    HW112938   2.126   0.241   6.911
 4086SOL    HW212939   2.150   0.118   6.826
 4087SOL     OW12940   2.590   0.634   6.644
 4087SOL    HW112941   2.661   0.616   6.582
 4087SOL    HW212942   2.559   0.721   6.620
 4088SOL     OW12943   3.596   0.955   7.445
 4088SOL    HW112944   3.550   0.904   7.378
 4088SOL    HW212945   3.531   0.969   7.514
 4089SOL     OW12946   2.183   0.058   6.231
 4089SOL    HW112947   2.161   0.150   6.243
 4089SOL    HW212948   2.142   0.014   6.306
 4090SOL     OW12949   3.468   0.386   5.967
 4090SOL    HW112950   3.443   0.318   6.029
 4090SOL    HW212951   3.446   0.468   6.012
 4091SOL     OW12952   2.888   0.760   6.547
 4091SOL    HW112953   2.887   0.778   6.641
 4091SOL    HW212954   2.862   0.668   6.540
 4092SOL     OW12955   3.709   1.504   7.187
 4092SOL    HW112956   3.729   1.531   7.097
 4092SOL    HW212957   3.790   1.519   7.236
 4093SOL     OW12958   2.215   0.914   7.397
 4093SOL    HW112959   2.300   0.927   7.438
 4093SOL    HW212960   2.232   0.853   7.325
 4094SOL     OW12961   3.370   0.275   5.722
 4094SOL    HW112962   3.295   0.218   5.734
 4094SOL    HW212963   3.384   0.316   5.807
 4095SOL     OW12964   3.154   0.827   5.617
 4095SOL    HW112965   3.197   0.741   5.620
 4095SOL    HW212966   3.186   0.867   5.536
 4096SOL     OW12967   2.933   1.323   6.455
 4096SOL    HW112968   2.929   1.258   6.385
 4096SOL    HW212969   2.983   1.396   6.418
 4097SOL     OW12970   2.174   0.800   6.526
 4097SOL    HW112971   2.266   0.826   6.525
 4097SOL    HW212972   2.174   0.712   6.563
 4098SOL     OW12973   2.201   0.529   6.601
 4098SOL    HW112974   2.158   0.445   6.584
 4098SOL    HW212975   2.276   0.531   6.541
 4099SOL     OW12976   2.995   0.384   7.276
 4099SOL    HW112977   2.949   0.438   7.340
 4099SOL    HW212978   3.083   0.422   7.272
 4100SOL     OW12979   3.013   0.224   7.067
 4100SOL    HW112980   3.005   0.279   7.145
 4100SOL    HW212981   3.036   0.285   6.997
 4101SOL     OW12982   1.855   1.320   5.777
 4101SOL    HW112983   1.767   1.332   5.741
 4101SOL    HW212984   1.855   1.231   5.812
 4102SOL     OW12985   1.951   1.726   6.550
 4102SOL    HW112986   1.957   1.649   6.493
 4102SOL    HW212987   2.012   1.789   6.512
 4103SOL     OW12988   2.843   0.796   6.816
 4103SOL    HW112989   2.899   0.770   6.889
 4103SOL    HW212990   2.761   0.749   6.830
 4104SOL     OW12991   1.894   0.542   6.703
 4104SOL    HW112992   1.971   0.520   6.650
 4104SOL    HW212993   1.928   0.548   6.793
 4105SOL     OW12994   2.063   0.527   7.302
 4105SOL    HW112995   2.126   0.502   7.235
 4105SOL    HW212996   2.014   0.600   7.262
 4106SOL     OW12997   3.237   0.941   7.244
 4106SOL    HW112998   3.262   1.033   7.244
 4106SOL    HW212999   3.236   0.915   7.152
 4107SOL     OW13000   2.677   0.571   5.945
 4107SOL    HW113001   2.682   0.495   5.887
 4107SOL    HW213002   2.603   0.622   5.912
 4108SOL     OW13003   3.504   0.601   6.773
 4108SOL    HW113004   3.493   0.540   6.846
 4108SOL    HW213005   3.589   0.580   6.736
 4109SOL     OW13006   2.562   0.456   6.847
 4109SOL    HW113007   2.514   0.378   6.821
 4109SOL    HW213008   2.557   0.515   6.772
 4110SOL     OW13009   2.328   0.494   5.773
 4110SOL    HW113010   2.385   0.568   5.795
 4110SOL    HW213011   2.242   0.534   5.761
 4111SOL     OW13012   3.186   1.047   6.810
 4111SOL    HW113013   3.213   0.986   6.742
 4111SOL    HW213014   3.113   1.096   6.771
 4112SOL     OW13015   3.173   0.854   5.892
 4112SOL    HW113016   3.095   0.828   5.942
 4112SOL    HW213017   3.148   0.843   5.801
 4113SOL     OW13018   3.636   1.746   6.738
 4113SOL    HW113019   3.692   1.773   6.665
 4113SOL    HW213020   3.609   1.656   6.716
 4114SOL     OW13021   3.122   1.734   6.706
 4114SOL    HW113022   3.199   1.746   6.652
 4114SOL    HW213023   3.114   1.639   6.716
 4115SOL     OW13024   3.555   0.124   6.072
 4115SOL    HW113025   3.637   0.135   6.024
 4115SOL    HW213026   3.553   0.032   6.097
 4116SOL     OW13027   3.251   1.566   6.067
 4116SOL    HW113028   3.313   1.599   6.001
 4116SOL    HW213029   3.206   1.645   6.098
 4117SOL     OW13030   2.010   1.731   7.415
 4117SOL    HW113031   1.964   1.685   7.486
 4117SOL    HW213032   1.993   1.824   7.431
 4118SOL     OW13033   3.139   0.925   6.257
 4118SOL    HW113034   3.213   0.865   6.264
 4118SOL    HW213035   3.172   0.998   6.205
 4119SOL     OW13036   2.686   1.265   7.039
 4119SOL    HW113037   2.683   1.316   7.120
 4119SOL    HW213038   2.616   1.302   6.985
 4120SOL     OW13039   2.528   1.627   5.739
 4120SOL    HW113040   2.539   1.630   5.644
 4120SOL    HW213041   2.485   1.543   5.756
 4121SOL     OW13042   3.491   1.726   6.978
 4121SOL    HW113043   3.541   1.733   6.897
 4121SOL    HW213044   3.478   1.816   7.007
 4122SOL     OW13045   3.701   0.179   6.556
 4122SOL    HW113046   3.727   0.096   6.516
 4122SOL    HW213047   3.615   0.198   6.520
 4123SOL     OW13048   2.127   0.318   6.302
 4123SOL    HW113049   2.041   0.354   6.280
 4123SOL    HW213050   2.125   0.306   6.397
 4124SOL     OW13051   3.068   1.605   5.615
 4124SOL    HW113052   3.060   1.514   5.642
 4124SOL    HW213053   3.003   1.616   5.546
 4125SOL     OW13054   2.683   1.004   6.953
 4125SOL    HW113055   2.740   0.991   6.877
 4125SOL    HW213056   2.695   1.096   6.977
 4126SOL     OW13057   2.778   0.912   5.877
 4126SOL    HW113058   2.838   0.943   5.810
 4126SOL    HW213059   2.825   0.840   5.920
 4127SOL     OW13060   3.355   1.625   5.628
 4127SOL    HW113061   3.260   1.620   5.615
 4127SOL    HW213062   3.391   1.631   5.540
 4128SOL     OW13063   3.465   1.279   6.867
 4128SOL    HW113064   3.536   1.277   6.932
 4128SOL    HW213065   3.410   1.352   6.894
 4129SOL     OW13066   2.909   1.105   6.288
 4129SOL    HW113067   2.841   1.051   6.328
 4129SOL    HW213068   2.974   1.042   6.256
 4130SOL     OW13069   2.876   0.247   6.554
 4130SOL    HW113070   2.866   0.198   6.472
 4130SOL    HW213071   2.870   0.181   6.623
 4131SOL     OW13072   3.581   0.391   6.961
 4131SOL    HW113073   3.652   0.456   6.959
 4131SOL    HW213074   3.613   0.320   6.905
 4132SOL     OW13075   2.115   1.343   5.816
 4132SOL    HW113076   2.020   1.342   5.801
 4132SOL    HW213077   2.123   1.355   5.911
 4133SOL     OW13078   1.963   1.003   7.296
 4133SOL    HW113079   1.891   0.994   7.359
 4133SOL    HW213080   2.042   0.985   7.348
 4134SOL     OW13081   2.553   0.243   7.083
 4134SOL    HW113082   2.622   0.192   7.042
 4134SOL    HW213083   2.578   0.248   7.175
 4135SOL     OW13084   1.959   0.320   5.575
 4135SOL    HW113085   1.880   0.336   5.626
 4135SOL    HW213086   1.976   0.402   5.530
 4136SOL     OW13087   3.291   0.858   6.987
 4136SOL    HW113088   3.242   0.919   6.931
 4136SOL    HW213089   3.380   0.860   6.952
 4137SOL     OW13090   1.945   0.155   5.927
 4137SOL    HW113091   1.914   0.218   5.862
 4137SOL    HW213092   2.029   0.125   5.892
 4138SOL     OW13093   3.041   1.340   5.703
 4138SOL    HW113094   2.950   1.310   5.705
 4138SOL    HW213095   3.069   1.340   5.794
 4139SOL     OW13096   2.482   0.831   7.021
 4139SOL    HW113097   2.540   0.903   6.999
 4139SOL    HW213098   2.539   0.754   7.028
 4140SOL     OW13099   3.351   1.772   6.554
 4140SOL    HW113100   3.376   1.837   6.488
 4140SOL    HW213101   3.430   1.759   6.607
 4141SOL     OW13102   2.580   0.562   7.292
 4141SOL    HW113103   2.618   0.623   7.354
 4141SOL    HW213104   2.610   0.476   7.321
 4142SOL     OW13105   3.334   1.200   7.219
 4142SOL    HW113106   3.324   1.215   7.313
 4142SOL    HW213107   3.427   1.216   7.202
 4143SOL     OW13108   2.223   1.735   7.168
 4143SOL    HW113109   2.132   1.755   7.145
 4143SOL    HW213110   2.220   1.648   7.207
 4144SOL     OW13111   3.529   0.881   6.845
 4144SOL    HW113112   3.527   0.797   6.800
 4144SOL    HW213113   3.524   0.946   6.774
 4145SOL     OW13114   3.085   0.333   6.033
 4145SOL    HW113115   3.152   0.266   6.023
 4145SOL    HW213116   3.108   0.379   6.114
 4146SOL     OW13117   2.453   0.740   6.255
 4146SOL    HW113118   2.492   0.825   6.232
 4146SOL    HW213119   2.383   0.729   6.191
 4147SOL     OW13120   3.618   0.379   7.229
 4147SOL    HW113121   3.599   0.386   7.135
 4147SOL    HW213122   3.559   0.311   7.261
 4148SOL     OW13123   3.611   0.932   7.101
 4148SOL    HW113124   3.610   1.027   7.114
 4148SOL    HW213125   3.591   0.921   7.008
 4149SOL     OW13126   2.724   1.367   5.613
 4149SOL    HW113127   2.691   1.385   5.701
 4149SOL    HW213128   2.740   1.453   5.575
 4150SOL     OW13129   2.727   0.961   6.438
 4150SOL    HW113130   2.780   0.892   6.477
 4150SOL    HW213131   2.694   1.010   6.514
 4151SOL     OW13132   2.941   0.988   5.675
 4151SOL    HW113133   2.919   1.039   5.598
 4151SOL    HW213134   3.016   0.935   5.648
 4152SOL     OW13135   3.719   1.556   6.428
 4152SOL    HW113136   3.639   1.543   6.377
 4152SOL    HW213137   3.713   1.492   6.498
 4153SOL     OW13138   1.961   1.175   6.216
 4153SOL    HW113139   1.963   1.144   6.307
 4153SOL    HW213140   2.037   1.134   6.175
 4154SOL     OW13141   3.677   0.182   6.829
 4154SOL    HW113142   3.679   0.087   6.838
 4154SOL    HW213143   3.693   0.199   6.737
 4155SOL     OW13144   2.291   0.434   6.111
 4155SOL    HW113145   2.322   0.361   6.056
 4155SOL    HW213146   2.244   0.391   6.183
 4156SOL     OW13147   3.563   1.491   6.685
 4156SOL    HW113148   3.483   1.467   6.638
 4156SOL    HW213149   3.575   1.421   6.749
 4157SOL     OW13150   2.190   0.555   6.878
 4157SOL    HW113151   2.244   0.497   6.932
 4157SOL    HW213152   2.209   0.529   6.788
 4158SOL     OW13153   3.323   0.250   6.698
 4158SOL    HW113154   3.337   0.162   6.732
 4158SOL    HW213155   3.265   0.292   6.761
 4159SOL     OW13156   2.868   0.029   6.734
 4159SOL    HW113157   2.793   3.979   6.704
 4159SOL    HW213158   2.939   3.965   6.741
 4160SOL     OW13159   2.658   1.329   5.884
 4160SOL    HW113160   2.602   1.253   5.894
 4160SOL    HW213161   2.727   1.318   5.950
 4161SOL     OW13162   3.178   0.072   5.747
 4161SOL    HW113163   3.193   0.002   5.683
 4161SOL    HW213164   3.093   0.051   5.785
 4162SOL     OW13165   3.147   0.457   6.274
 4162SOL    HW113166   3.099   0.540   6.270
 4162SOL    HW213167   3.152   0.436   6.367
 4163SOL     OW13168   3.451   0.211   6.453
 4163SOL    HW113169   3.401   0.232   6.532
 4163SOL    HW213170   3.451   0.291   6.401
 4164SOL     OW13171   1.900   1.071   5.887
 4164SOL    HW113172   1.995   1.070   5.877
 4164SOL    HW213173   1.878   0.981   5.912
 4165SOL     OW13174   2.093   0.620   7.570
 4165SOL    HW113175   2.003   0.627   7.600
 4165SOL    HW213176   2.085   0.601   7.476
 4166SOL     OW13177   2.079   0.297   8.439
 4166SOL    HW113178   2.116   0.256   8.517
 4166SOL    HW213179   1.996   0.252   8.425
 4167SOL     OW13180   1.871   0.394   8.085
 4167SOL    HW113181   1.784   0.409   8.120
 4167SOL    HW213182   1.860   0.322   8.023
 4168SOL     OW13183   2.429   1.286   8.620
 4168SOL    HW113184   2.340   1.288   8.584
 4168SOL    HW213185   2.443   1.373   8.655
 4169SOL     OW13186   3.421   1.511   8.154
 4169SOL    HW113187   3.378   1.493   8.237
 4169SOL    HW213188   3.349   1.517   8.091
 4170SOL     OW13189   2.993   0.699   8.149
 4170SOL    HW113190   3.042   0.780   8.136
 4170SOL    HW213191   2.946   0.712   8.232
 4171SOL     OW13192   3.618   0.621   7.678
 4171SOL    HW113193   3.603   0.610   7.584
 4171SOL    HW213194   3.608   0.532   7.713
 4172SOL     OW13195   2.619   1.143   8.486
 4172SOL    HW113196   2.549   1.177   8.543
 4172SOL    HW213197   2.655   1.221   8.444
 4173SOL     OW13198   2.727   0.777   9.270
 4173SOL    HW113199   2.714   0.849   9.333
 4173SOL    HW213200   2.750   0.821   9.188
 4174SOL     OW13201   2.549   1.007   8.095
 4174SOL    HW113202   2.613   0.991   8.165
 4174SOL    HW213203   2.478   1.055   8.138
 4175SOL     OW13204   2.571   1.151   9.258
 4175SOL    HW113205   2.619   1.230   9.285
 4175SOL    HW213206   2.488   1.184   9.225
 4176SOL     OW13207   2.193   1.424   8.516
 4176SOL    HW113208   2.118   1.391   8.468
 4176SOL    HW213209   2.241   1.478   8.453
 4177SOL     OW13210   3.322   1.500   8.800
 4177SOL    HW113211   3.372   1.581   8.810
 4177SOL    HW213212   3.265   1.496   8.876
 4178SOL     OW13213   2.304   0.397   8.943
 4178SOL    HW113214   2.391   0.358   8.941
 4178SOL    HW213215   2.244   0.323   8.950
 4179SOL     OW13216   3.473   0.450   8.185
 4179SOL    HW113217   3.402   0.483   8.130
 4179SOL    HW213218   3.501   0.526   8.237
 4180SOL     OW13219   2.998   1.341   9.140
 4180SOL    HW113220   3.039   1.337   9.226
 4180SOL    HW213221   2.945   1.262   9.134
 4181SOL     OW13222   2.120   1.091   8.339
 4181SOL    HW113223   2.115   1.004   8.379
 4181SOL    HW213224   2.061   1.145   8.392
 4182SOL     OW13225   2.474   1.791   8.879
 4182SOL    HW113226   2.393   1.775   8.927
 4182SOL    HW213227   2.498   1.881   8.903
 4183SOL     OW13228   2.450   0.981   7.582
 4183SOL    HW113229   2.474   1.052   7.522
 4183SOL    HW213230   2.492   1.005   7.664
 4184SOL     OW13231   3.441   0.136   8.906
 4184SOL    HW113232   3.463   0.210   8.849
 4184SOL    HW213233   3.416   0.176   8.989
 4185SOL     OW13234   1.978   0.652   8.008
 4185SOL    HW113235   1.950   0.563   8.031
 4185SOL    HW213236   1.971   0.701   8.089
 4186SOL     OW13237   3.700   1.758   7.786
 4186SOL    HW113238   3.767   1.733   7.849
 4186SOL    HW213239   3.722   1.848   7.762
 4187SOL     OW13240   3.548   0.916   8.087
 4187SOL    HW113241   3.634   0.876   8.074
 4187SOL    HW213242   3.533   0.968   8.008
 4188SOL     OW13243   3.504   1.107   7.879
 4188SOL    HW113244   3.588   1.114   7.835
 4188SOL    HW213245   3.510   1.169   7.952
 4189SOL     OW13246   1.984   0.747   9.030
 4189SOL    HW113247   2.076   0.772   9.041
 4189SOL    HW213248   1.935   0.829   9.040
 4190SOL     OW13249   2.478   1.384   8.170
 4190SOL    HW113250   2.438   1.302   8.199
 4190SOL    HW213251   2.450   1.393   8.079
 4191SOL     OW13252   3.151   1.239   8.872
 4191SOL    HW113253   3.185   1.172   8.812
 4191SOL    HW213254   3.208   1.232   8.949
 4192SOL     OW13255   2.679   0.002   7.963
 4192SOL    HW113256   2.724   0.084   7.941
 4192SOL    HW213257   2.586   0.025   7.965
 4193SOL     OW13258   2.053   0.967   8.718
 4193SOL    HW113259   2.137   0.924   8.703
 4193SOL    HW213260   1.990   0.911   8.673
 4194SOL     OW13261   3.391   0.993   7.646
 4194SOL    HW113262   3.322   0.936   7.680
 4194SOL    HW213263   3.434   1.028   7.724
 4195SOL     OW13264   3.046   1.805   9.069
 4195SOL    HW113265   3.061   1.863   8.994
 4195SOL    HW213266   3.063   1.717   9.035
 4196SOL     OW13267   2.212   0.255   9.266
 4196SOL    HW113268   2.257   0.340   9.269
 4196SOL    HW213269   2.120   0.276   9.280
 4197SOL     OW13270   3.326   1.421   8.399
 4197SOL    HW113271   3.259   1.434   8.466
 4197SOL    HW213272   3.316   1.329   8.373
 4198SOL     OW13273   3.518   1.738   8.027
 4198SOL    HW113274   3.503   1.708   7.938
 4198SOL    HW213275   3.497   1.662   8.082
 4199SOL     OW13276   2.457   0.722   7.714
 4199SOL    HW113277   2.460   0.802   7.661
 4199SOL    HW213278   2.391   0.740   7.781
 4200SOL     OW13279   3.138   0.363   8.388
 4200SOL    HW113280   3.051   0.323   8.393
 4200SOL    HW213281   3.195   0.302   8.435
 4201SOL     OW13282   3.441   1.667   7.757
 4201SOL    HW113283   3.530   1.701   7.752
 4201SOL    HW213284   3.417   1.651   7.666
 4202SOL     OW13285   2.658   0.616   8.902
 4202SOL    HW113286   2.629   0.593   8.990
 4202SOL    HW213287   2.616   0.552   8.845
 4203SOL     OW13288   3.255   0.476   9.125
 4203SOL    HW113289   3.258   0.521   9.210
 4203SOL    HW213290   3.315   0.403   9.134
 4204SOL     OW13291   2.818   0.888   9.030
 4204SOL    HW113292   2.873   0.818   8.995
 4204SOL    HW213293   2.770   0.922   8.954
 4205SOL     OW13294   2.853   0.404   8.689
 4205SOL    HW113295   2.771   0.430   8.731
 4205SOL    HW213296   2.826   0.371   8.603
 4206SOL     OW13297   2.912   0.700   7.874
 4206SOL    HW113298   2.927   0.692   7.969
 4206SOL    HW213299   2.830   0.652   7.859
 4207SOL     OW13300   1.953   0.821   8.224
 4207SOL    HW113301   2.033   0.812   8.275
 4207SOL    HW213302   1.909   0.898   8.261
 4208SOL     OW13303   2.754   0.349   7.647
 4208SOL    HW113304   2.796   0.407   7.583
 4208SOL    HW213305   2.751   0.264   7.605
 4209SOL     OW13306   3.574   0.575   9.277
 4209SOL    HW113307   3.536   0.651   9.232
 4209SOL    HW213308   3.596   0.514   9.206
 4210SOL     OW13309   3.237   1.141   7.988
 4210SOL    HW113310   3.318   1.128   7.939
 4210SOL    HW213311   3.187   1.205   7.937
 4211SOL     OW13312   2.417   0.197   8.330
 4211SOL    HW113313   2.421   0.215   8.424
 4211SOL    HW213314   2.414   0.284   8.290
 4212SOL     OW13315   2.870   1.450   7.922
 4212SOL    HW113316   2.823   1.522   7.880
 4212SOL    HW213317   2.859   1.465   8.016
 4213SOL     OW13318   2.223   1.796   8.285
 4213SOL    HW113319   2.264   1.713   8.312
 4213SOL    HW213320   2.286   1.863   8.310
 4214SOL     OW13321   3.665   1.062   8.315
 4214SOL    HW113322   3.609   1.042   8.239
 4214SOL    HW213323   3.605   1.066   8.389
 4215SOL     OW13324   3.089   1.539   8.961
 4215SOL    HW113325   3.076   1.467   9.022
 4215SOL    HW213326   3.028   1.523   8.890
 4216SOL     OW13327   2.186   0.955   7.699
 4216SOL    HW113328   2.265   0.970   7.646
 4216SOL    HW213329   2.146   0.877   7.662
 4217SOL     OW13330   3.338   0.742   8.179
 4217SOL    HW113331   3.331   0.698   8.263
 4217SOL    HW213332   3.416   0.797   8.187
 4218SOL     OW13333   2.328   1.263   9.185
 4218SOL    HW113334   2.300   1.268   9.094
 4218SOL    HW213335   2.246   1.261   9.235
 4219SOL     OW13336   3.005   1.774   7.693
 4219SOL    HW113337   2.928   1.737   7.736
 4219SOL    HW213338   3.022   1.715   7.619
 4220SOL     OW13339   2.038   0.278   8.945
 4220SOL    HW113340   1.975   0.349   8.942
 4220SOL    HW213341   2.046   0.257   9.038
 4221SOL     OW13342   3.489   1.380   7.537
 4221SOL    HW113343   3.448   1.465   7.519
 4221SOL    HW213344   3.421   1.317   7.515
 4222SOL     OW13345   3.296   0.161   7.851
 4222SOL    HW113346   3.256   0.091   7.799
 4222SOL    HW213347   3.374   0.121   7.889
 4223SOL     OW13348   2.162   1.782   8.674
 4223SOL    HW113349   2.196   1.701   8.713
 4223SOL    HW213350   2.118   1.752   8.594
 4224SOL     OW13351   2.803   1.699   8.351
 4224SOL    HW113352   2.883   1.650   8.373
 4224SOL    HW213353   2.761   1.647   8.282
 4225SOL     OW13354   2.254   0.695   7.925
 4225SOL    HW113355   2.276   0.603   7.936
 4225SOL    HW213356   2.160   0.700   7.943
 4226SOL     OW13357   3.394   0.232   9.175
 4226SOL    HW113358   3.392   0.257   9.267
 4226SOL    HW213359   3.362   0.142   9.173
 4227SOL     OW13360   2.503   0.137   7.554
 4227SOL    HW113361   2.538   0.057   7.593
 4227SOL    HW213362   2.440   0.105   7.488
 4228SOL     OW13363   2.640   0.281   9.211
 4228SOL    HW113364   2.703   0.209   9.218
 4228SOL    HW213365   2.578   0.266   9.282
 4229SOL     OW13366   2.738   1.521   8.642
 4229SOL    HW113367   2.724   1.485   8.555
 4229SOL    HW213368   2.808   1.467   8.679
 4230SOL     OW13369   3.204   0.587   8.878
 4230SOL    HW113370   3.234   0.558   8.965
 4230SOL    HW213371   3.238   0.676   8.870
 4231SOL     OW13372   2.676   1.396   8.384
 4231SOL    HW113373   2.762   1.385   8.344
 4231SOL    HW213374   2.614   1.392   8.311
 4232SOL     OW13375   2.791   0.510   8.350
 4232SOL    HW113376   2.767   0.502   8.258
 4232SOL    HW213377   2.820   0.423   8.376
 4233SOL     OW13378   2.409   0.058   7.942
 4233SOL    HW113379   2.333   0.062   8.001
 4233SOL    HW213380   2.403   0.138   7.890
 4234SOL     OW13381   3.290   1.197   7.489
 4234SOL    HW113382   3.322   1.123   7.539
 4234SOL    HW213383   3.205   1.218   7.529
 4235SOL     OW13384   2.186   0.042   7.655
 4235SOL    HW113385   2.202   0.111   7.591
 4235SOL    HW213386   2.271   0.028   7.697
 4236SOL     OW13387   2.800   0.247   7.912
 4236SOL    HW113388   2.774   0.288   7.829
 4236SOL    HW213389   2.895   0.247   7.910
 4237SOL     OW13390   2.942   0.681   8.907
 4237SOL    HW113391   2.870   0.618   8.915
 4237SOL    HW213392   3.021   0.627   8.902
 4238SOL     OW13393   3.085   1.570   8.241
 4238SOL    HW113394   3.104   1.637   8.176
 4238SOL    HW213395   3.154   1.580   8.307
 4239SOL     OW13396   2.331   1.151   8.185
 4239SOL    HW113397   2.262   1.131   8.248
 4239SOL    HW213398   2.293   1.130   8.100
 4240SOL     OW13399   3.129   1.794   8.053
 4240SOL    HW113400   3.177   1.853   7.995
 4240SOL    HW213401   3.068   1.851   8.099
 4241SOL     OW13402   2.887   0.545   7.471
 4241SOL    HW113403   2.844   0.628   7.452
 4241SOL    HW213404   2.950   0.567   7.541
 4242SOL     OW13405   1.940   0.553   8.842
 4242SOL    HW113406   2.031   0.552   8.813
 4242SOL    HW213407   1.935   0.625   8.904
 4243SOL     OW13408   2.427   0.232   8.609
 4243SOL    HW113409   2.453   0.141   8.621
 4243SOL    HW213410   2.337   0.236   8.641
 4244SOL     OW13411   2.733   0.461   8.087
 4244SOL    HW113412   2.683   0.514   8.024
 4244SOL    HW213413   2.752   0.380   8.041
 4245SOL     OW13414   2.856   0.042   8.226
 4245SOL    HW113415   2.823   0.065   8.139
 4245SOL    HW213416   2.866   3.947   8.224
 4246SOL     OW13417   3.298   1.163   8.306
 4246SOL    HW113418   3.232   1.095   8.303
 4246SOL    HW213419   3.325   1.176   8.215
 4247SOL     OW13420   3.328   0.604   8.427
 4247SOL    HW113421   3.279   0.522   8.433
 4247SOL    HW213422   3.390   0.600   8.500
 4248SOL     OW13423   3.720   0.823   7.823
 4248SOL    HW113424   3.763   0.766   7.887
 4248SOL    HW213425   3.682   0.763   7.760
 4249SOL     OW13426   3.527   1.264   8.097
 4249SOL    HW113427   3.622   1.269   8.104
 4249SOL    HW213428   3.497   1.353   8.116
 4250SOL     OW13429   3.256   0.574   7.518
 4250SOL    HW113430   3.195   0.554   7.589
 4250SOL    HW213431   3.342   0.553   7.555
 4251SOL     OW13432   2.389   0.266   7.766
 4251SOL    HW113433   2.438   0.224   7.696
 4251SOL    HW213434   2.364   0.351   7.731
 4252SOL     OW13435   3.614   1.234   9.021
 4252SOL    HW113436   3.702   1.199   9.003
 4252SOL    HW213437   3.631   1.323   9.053
 4253SOL     OW13438   2.921   1.353   8.781
 4253SOL    HW113439   2.847   1.322   8.833
 4253SOL    HW213440   2.997   1.312   8.823
 4254SOL     OW13441   3.466   1.627   9.100
 4254SOL    HW113442   3.462   1.661   9.011
 4254SOL    HW213443   3.549   1.578   9.103
 4255SOL     OW13444   2.989   1.201   8.554
 4255SOL    HW113445   2.932   1.241   8.621
 4255SOL    HW213446   2.954   1.234   8.471
 4256SOL     OW13447   3.494   1.099   8.525
 4256SOL    HW113448   3.487   1.160   8.598
 4256SOL    HW213449   3.414   1.114   8.474
 4257SOL     OW13450   2.775   0.111   8.850
 4257SOL    HW113451   2.795   0.086   8.760
 4257SOL    HW213452   2.856   0.153   8.881
 4258SOL     OW13453   2.846   1.115   9.170
 4258SOL    HW113454   2.754   1.130   9.191
 4258SOL    HW213455   2.845   1.037   9.115
 4259SOL     OW13456   2.570   1.057   7.820
 4259SOL    HW113457   2.554   1.041   7.913
 4259SOL    HW213458   2.646   1.003   7.799
 4260SOL     OW13459   2.280   0.814   8.699
 4260SOL    HW113460   2.349   0.823   8.765
 4260SOL    HW213461   2.245   0.726   8.712
 4261SOL     OW13462   3.129   0.375   8.723
 4261SOL    HW113463   3.163   0.453   8.768
 4261SOL    HW213464   3.042   0.402   8.692
 4262SOL     OW13465   1.934   1.577   8.802
 4262SOL    HW113466   1.899   1.639   8.738
 4262SOL    HW213467   2.028   1.578   8.786
 4263SOL     OW13468   2.223   1.106   7.939
 4263SOL    HW113469   2.218   1.174   7.872
 4263SOL    HW213470   2.213   1.024   7.891
 4264SOL     OW13471   2.419   0.536   8.307
 4264SOL    HW113472   2.434   0.595   8.233
 4264SOL    HW213473   2.481   0.564   8.374
 4265SOL     OW13474   3.110   1.349   7.837
 4265SOL    HW113475   3.167   1.420   7.867
 4265SOL    HW213476   3.024   1.371   7.872
 4266SOL     OW13477   3.141   1.457   8.595
 4266SOL    HW113478   3.197   1.460   8.672
 4266SOL    HW213479   3.087   1.379   8.609
 4267SOL     OW13480   3.437   0.631   7.930
 4267SOL    HW113481   3.400   0.693   7.993
 4267SOL    HW213482   3.488   0.685   7.870
 4268SOL     OW13483   2.211   1.523   8.764
 4268SOL    HW113484   2.198   1.479   8.680
 4268SOL    HW213485   2.306   1.532   8.771
 4269SOL     OW13486   2.276   0.745   9.049
 4269SOL    HW113487   2.337   0.790   8.991
 4269SOL    HW213488   2.316   0.659   9.065
 4270SOL     OW13489   3.461   0.776   9.127
 4270SOL    HW113490   3.376   0.818   9.121
 4270SOL    HW213491   3.514   0.819   9.060
 4271SOL     OW13492   2.885   0.121   9.226
 4271SOL    HW113493   2.917   0.200   9.183
 4271SOL    HW213494   2.869   0.059   9.154
 4272SOL     OW13495   2.347   0.034   9.212
 4272SOL    HW113496   2.354   0.039   9.117
 4272SOL    HW213497   2.289   0.107   9.235
 4273SOL     OW13498   2.445   0.873   8.479
 4273SOL    HW113499   2.474   0.964   8.480
 4273SOL    HW213500   2.388   0.865   8.556
 4274SOL     OW13501   3.221   0.859   8.479
 4274SOL    HW113502   3.138   0.850   8.431
 4274SOL    HW213503   3.261   0.772   8.475
 4275SOL     OW13504   3.067   0.535   7.712
 4275SOL    HW113505   3.075   0.455   7.764
 4275SOL    HW213506   3.023   0.597   7.770
 4276SOL     OW13507   2.165   0.212   8.690
 4276SOL    HW113508   2.127   0.241   8.773
 4276SOL    HW213509   2.151   0.118   8.688
 4277SOL     OW13510   1.908   1.312   8.726
 4277SOL    HW113511   1.941   1.257   8.797
 4277SOL    HW213512   1.915   1.402   8.760
 4278SOL     OW13513   2.587   0.633   8.505
 4278SOL    HW113514   2.661   0.617   8.445
 4278SOL    HW213515   2.559   0.722   8.483
 4279SOL     OW13516   3.595   0.956   9.305
 4279SOL    HW113517   3.549   0.904   9.240
 4279SOL    HW213518   3.532   0.969   9.376
 4280SOL     OW13519   2.183   0.058   8.093
 4280SOL    HW113520   2.161   0.150   8.105
 4280SOL    HW213521   2.142   0.014   8.168
 4281SOL     OW13522   3.467   0.386   7.829
 4281SOL    HW113523   3.443   0.318   7.891
 4281SOL    HW213524   3.445   0.468   7.874
 4282SOL     OW13525   2.889   0.760   8.409
 4282SOL    HW113526   2.887   0.777   8.503
 4282SOL    HW213527   2.863   0.668   8.401
 4283SOL     OW13528   2.844   1.566   9.164
 4283SOL    HW113529   2.829   1.610   9.080
 4283SOL    HW213530   2.887   1.484   9.141
 4284SOL     OW13531   3.708   1.505   9.049
 4284SOL    HW113532   3.730   1.532   8.959
 4284SOL    HW213533   3.789   1.520   9.098
 4285SOL     OW13534   2.215   0.915   9.256
 4285SOL    HW113535   2.297   0.935   9.301
 4285SOL    HW213536   2.240   0.853   9.187
 4286SOL     OW13537   3.370   0.276   7.584
 4286SOL    HW113538   3.295   0.218   7.596
 4286SOL    HW213539   3.384   0.316   7.670
 4287SOL     OW13540   3.153   0.827   7.480
 4287SOL    HW113541   3.196   0.741   7.483
 4287SOL    HW213542   3.186   0.867   7.399
 4288SOL     OW13543   2.925   1.336   8.300
 4288SOL    HW113544   2.930   1.263   8.238
 4288SOL    HW213545   2.990   1.399   8.268
 4289SOL     OW13546   2.171   0.810   8.396
 4289SOL    HW113547   2.265   0.831   8.391
 4289SOL    HW213548   2.169   0.720   8.428
 4290SOL     OW13549   2.199   0.532   8.460
 4290SOL    HW113550   2.158   0.447   8.444
 4290SOL    HW213551   2.274   0.533   8.402
 4291SOL     OW13552   2.995   0.383   9.139
 4291SOL    HW113553   2.948   0.438   9.201
 4291SOL    HW213554   3.083   0.422   9.134
 4292SOL     OW13555   3.013   0.224   8.929
 4292SOL    HW113556   3.005   0.279   9.007
 4292SOL    HW213557   3.035   0.286   8.859
 4293SOL     OW13558   1.979   1.732   8.436
 4293SOL    HW113559   1.937   1.671   8.375
 4293SOL    HW213560   2.028   1.792   8.381
 4294SOL     OW13561   2.364   1.569   8.356
 4294SOL    HW113562   2.430   1.635   8.380
 4294SOL    HW213563   2.412   1.505   8.303
 4295SOL     OW13564   2.847   0.792   8.675
 4295SOL    HW113565   2.901   0.769   8.750
 4295SOL    HW213566   2.760   0.756   8.695
 4296SOL     OW13567   1.896   0.546   8.565
 4296SOL    HW113568   1.972   0.519   8.513
 4296SOL    HW213569   1.928   0.548   8.655
 4297SOL     OW13570   2.063   0.526   9.164
 4297SOL    HW113571   2.129   0.502   9.098
 4297SOL    HW213572   2.016   0.599   9.123
 4298SOL     OW13573   3.240   0.940   9.107
 4298SOL    HW113574   3.260   1.033   9.106
 4298SOL    HW213575   3.236   0.915   9.015
 4299SOL     OW13576   2.679   0.572   7.805
 4299SOL    HW113577   2.683   0.495   7.749
 4299SOL    HW213578   2.602   0.620   7.774
 4300SOL     OW13579   3.504   0.602   8.635
 4300SOL    HW113580   3.492   0.541   8.708
 4300SOL    HW213581   3.589   0.580   8.599
 4301SOL     OW13582   2.115   1.538   9.158
 4301SOL    HW113583   2.100   1.609   9.221
 4301SOL    HW213584   2.114   1.459   9.212
 4302SOL     OW13585   2.561   0.457   8.709
 4302SOL    HW113586   2.513   0.378   8.682
 4302SOL    HW213587   2.556   0.515   8.633
 4303SOL     OW13588   2.790   1.679   8.915
 4303SOL    HW113589   2.765   1.647   8.828
 4303SOL    HW213590   2.789   1.774   8.907
 4304SOL     OW13591   2.328   0.494   7.635
 4304SOL    HW113592   2.385   0.568   7.657
 4304SOL    HW213593   2.242   0.532   7.622
 4305SOL     OW13594   2.009   1.140   8.919
 4305SOL    HW113595   2.012   1.088   9.000
 4305SOL    HW213596   2.026   1.077   8.849
 4306SOL     OW13597   3.188   1.047   8.672
 4306SOL    HW113598   3.213   0.985   8.604
 4306SOL    HW213599   3.117   1.098   8.633
 4307SOL     OW13600   3.171   0.857   7.755
 4307SOL    HW113601   3.096   0.824   7.804
 4307SOL    HW213602   3.148   0.841   7.663
 4308SOL     OW13603   3.637   1.746   8.601
 4308SOL    HW113604   3.692   1.773   8.527
 4308SOL    HW213605   3.610   1.656   8.579
 4309SOL     OW13606   3.102   1.733   8.561
 4309SOL    HW113607   3.185   1.753   8.517
 4309SOL    HW213608   3.109   1.639   8.581
 4310SOL     OW13609   1.947   1.266   8.461
 4310SOL    HW113610   1.931   1.278   8.555
 4310SOL    HW213611   1.874   1.212   8.432
 4311SOL     OW13612   2.538   1.664   9.173
 4311SOL    HW113613   2.489   1.746   9.175
 4311SOL    HW213614   2.603   1.677   9.104
 4312SOL     OW13615   3.555   0.124   7.934
 4312SOL    HW113616   3.637   0.135   7.887
 4312SOL    HW213617   3.553   0.032   7.959
 4313SOL     OW13618   3.250   1.568   7.931
 4313SOL    HW113619   3.313   1.598   7.865
 4313SOL    HW213620   3.205   1.647   7.959
 4314SOL     OW13621   2.040   1.744   9.308
 4314SOL    HW113622   1.972   1.698   9.358
 4314SOL    HW213623   2.009   1.834   9.303
 4315SOL     OW13624   3.139   0.926   8.119
 4315SOL    HW113625   3.212   0.865   8.127
 4315SOL    HW213626   3.173   0.998   8.066
 4316SOL     OW13627   2.678   1.272   8.878
 4316SOL    HW113628   2.652   1.311   8.962
 4316SOL    HW213629   2.607   1.294   8.818
 4317SOL     OW13630   3.488   1.726   8.839
 4317SOL    HW113631   3.541   1.732   8.759
 4317SOL    HW213632   3.476   1.817   8.867
 4318SOL     OW13633   3.701   0.179   8.418
 4318SOL    HW113634   3.727   0.096   8.378
 4318SOL    HW213635   3.615   0.197   8.382
 4319SOL     OW13636   2.127   0.319   8.164
 4319SOL    HW113637   2.041   0.354   8.142
 4319SOL    HW213638   2.125   0.307   8.259
 4320SOL     OW13639   3.064   1.611   7.484
 4320SOL    HW113640   3.054   1.517   7.495
 4320SOL    HW213641   3.027   1.630   7.398
 4321SOL     OW13642   2.686   1.006   8.820
 4321SOL    HW113643   2.730   1.002   8.735
 4321SOL    HW213644   2.687   1.098   8.843
 4322SOL     OW13645   2.778   0.911   7.736
 4322SOL    HW113646   2.843   0.941   7.672
 4322SOL    HW213647   2.823   0.840   7.783
 4323SOL     OW13648   3.356   1.623   7.490
 4323SOL    HW113649   3.261   1.624   7.476
 4323SOL    HW213650   3.393   1.631   7.402
 4324SOL     OW13651   2.232   1.299   8.938
 4324SOL    HW113652   2.217   1.379   8.887
 4324SOL    HW213653   2.155   1.245   8.923
 4325SOL     OW13654   3.466   1.280   8.728
 4325SOL    HW113655   3.534   1.275   8.795
 4325SOL    HW213656   3.409   1.352   8.756
 4326SOL     OW13657   2.911   1.106   8.151
 4326SOL    HW113658   2.842   1.055   8.193
 4326SOL    HW213659   2.975   1.042   8.122
 4327SOL     OW13660   2.876   0.247   8.415
 4327SOL    HW113661   2.866   0.197   8.334
 4327SOL    HW213662   2.870   0.181   8.485
 4328SOL     OW13663   3.581   0.391   8.822
 4328SOL    HW113664   3.652   0.456   8.821
 4328SOL    HW213665   3.613   0.320   8.767
 4329SOL     OW13666   1.974   1.021   9.167
 4329SOL    HW113667   1.898   0.998   9.220
 4329SOL    HW213668   2.049   0.984   9.214
 4330SOL     OW13669   2.553   0.242   8.945
 4330SOL    HW113670   2.623   0.191   8.904
 4330SOL    HW213671   2.579   0.250   9.037
 4331SOL     OW13672   1.959   0.320   7.437
 4331SOL    HW113673   1.879   0.336   7.487
 4331SOL    HW213674   1.976   0.403   7.392
 4332SOL     OW13675   3.291   0.857   8.848
 4332SOL    HW113676   3.242   0.919   8.793
 4332SOL    HW213677   3.380   0.860   8.814
 4333SOL     OW13678   1.945   0.155   7.789
 4333SOL    HW113679   1.914   0.218   7.724
 4333SOL    HW213680   2.029   0.124   7.754
 4334SOL     OW13681   3.043   1.338   7.567
 4334SOL    HW113682   2.955   1.304   7.581
 4334SOL    HW213683   3.080   1.345   7.655
 4335SOL     OW13684   2.481   0.830   8.881
 4335SOL    HW113685   2.537   0.906   8.866
 4335SOL    HW213686   2.542   0.757   8.890
 4336SOL     OW13687   3.346   1.777   8.425
 4336SOL    HW113688   3.371   1.835   8.353
 4336SOL    HW213689   3.428   1.756   8.469
 4337SOL     OW13690   2.580   0.563   9.154
 4337SOL    HW113691   2.618   0.627   9.215
 4337SOL    HW213692   2.612   0.478   9.185
 4338SOL     OW13693   3.332   1.202   9.080
 4338SOL    HW113694   3.320   1.215   9.174
 4338SOL    HW213695   3.425   1.215   9.065
 4339SOL     OW13696   2.240   1.745   9.018
 4339SOL    HW113697   2.154   1.764   8.983
 4339SOL    HW213698   2.231   1.658   9.059
 4340SOL     OW13699   3.529   0.881   8.707
 4340SOL    HW113700   3.527   0.796   8.663
 4340SOL    HW213701   3.524   0.945   8.635
 4341SOL     OW13702   3.086   0.334   7.894
 4341SOL    HW113703   3.152   0.266   7.885
 4341SOL    HW213704   3.109   0.378   7.976
 4342SOL     OW13705   2.454   0.740   8.116
 4342SOL    HW113706   2.492   0.826   8.098
 4342SOL    HW213707   2.384   0.730   8.051
 4343SOL     OW13708   3.619   0.379   9.090
 4343SOL    HW113709   3.599   0.386   8.997
 4343SOL    HW213710   3.559   0.312   9.123
 4344SOL     OW13711   3.612   0.932   8.962
 4344SOL    HW113712   3.609   1.027   8.977
 4344SOL    HW213713   3.592   0.921   8.869
 4345SOL     OW13714   2.522   1.791   8.388
 4345SOL    HW113715   2.499   1.882   8.369
 4345SOL    HW213716   2.618   1.790   8.388
 4346SOL     OW13717   2.729   0.966   8.303
 4346SOL    HW113718   2.779   0.895   8.342
 4346SOL    HW213719   2.694   1.015   8.377
 4347SOL     OW13720   2.941   0.987   7.534
 4347SOL    HW113721   2.926   1.037   7.454
 4347SOL    HW213722   3.017   0.933   7.515
 4348SOL     OW13723   3.719   1.557   8.290
 4348SOL    HW113724   3.640   1.541   8.238
 4348SOL    HW213725   3.715   1.490   8.358
 4349SOL     OW13726   2.087   1.303   9.305
 4349SOL    HW113727   2.019   1.241   9.279
 4349SOL    HW213728   2.074   1.315   9.399
 4350SOL     OW13729   1.935   1.234   8.111
 4350SOL    HW113730   1.953   1.186   8.192
 4350SOL    HW213731   2.005   1.207   8.052
 4351SOL     OW13732   2.541   1.402   9.073
 4351SOL    HW113733   2.463   1.358   9.106
 4351SOL    HW213734   2.537   1.490   9.112
 4352SOL     OW13735   3.677   0.182   8.691
 4352SOL    HW113736   3.679   0.087   8.700
 4352SOL    HW213737   3.693   0.199   8.598
 4353SOL     OW13738   2.292   0.434   7.973
 4353SOL    HW113739   2.322   0.362   7.918
 4353SOL    HW213740   2.245   0.392   8.045
 4354SOL     OW13741   3.561   1.492   8.548
 4354SOL    HW113742   3.481   1.466   8.502
 4354SOL    HW213743   3.577   1.422   8.611
 4355SOL     OW13744   2.190   0.554   8.740
 4355SOL    HW113745   2.244   0.497   8.795
 4355SOL    HW213746   2.210   0.527   8.650
 4356SOL     OW13747   2.698   1.573   8.129
 4356SOL    HW113748   2.674   1.636   8.061
 4356SOL    HW213749   2.621   1.516   8.136
 4357SOL     OW13750   3.323   0.251   8.559
 4357SOL    HW113751   3.337   0.163   8.595
 4357SOL    HW213752   3.265   0.293   8.623
 4358SOL     OW13753   2.868   0.030   8.596
 4358SOL    HW113754   2.793   3.979   8.566
 4358SOL    HW213755   2.939   3.965   8.603
 4359SOL     OW13756   2.640   1.321   7.788
 4359SOL    HW113757   2.606   1.232   7.796
 4359SOL    HW213758   2.725   1.319   7.830
 4360SOL     OW13759   2.482   1.558   8.733
 4360SOL    HW113760   2.484   1.639   8.783
 4360SOL    HW213761   2.570   1.549   8.696
 4361SOL     OW13762   3.178   0.072   7.608
 4361SOL    HW113763   3.195   0.003   7.545
 4361SOL    HW213764   3.093   0.050   7.646
 4362SOL     OW13765   3.147   0.458   8.135
 4362SOL    HW113766   3.099   0.541   8.133
 4362SOL    HW213767   3.152   0.436   8.228
 4363SOL     OW13768   3.451   0.210   8.315
 4363SOL    HW113769   3.401   0.232   8.394
 4363SOL    HW213770   3.451   0.291   8.263
 4364SOL     OW13771   1.898   1.074   7.776
 4364SOL    HW113772   1.980   1.077   7.725
 4364SOL    HW213773   1.882   0.980   7.790
 4365SOL     OW13774   2.093   0.621   9.431
 4365SOL    HW113775   2.002   0.626   9.463
 4365SOL    HW213776   2.085   0.600   9.338
 4366SOL     OW13777   2.079   0.297  10.300
 4366SOL    HW113778   2.117   0.256  10.379
 4366SOL    HW213779   1.996   0.251  10.287
 4367SOL     OW13780   1.872   0.394   9.947
 4367SOL    HW113781   1.784   0.409   9.982
 4367SOL    HW213782   1.860   0.322   9.885
 4368SOL     OW13783   2.429   1.284  10.483
 4368SOL    HW113784   2.342   1.288  10.444
 4368SOL    HW213785   2.444   1.373  10.516
 4369SOL     OW13786   3.421   1.512  10.016
 4369SOL    HW113787   3.378   1.493  10.099
 4369SOL    HW213788   3.350   1.517   9.953
 4370SOL     OW13789   2.993   0.698  10.012
 4370SOL    HW113790   3.042   0.780   9.998
 4370SOL    HW213791   2.946   0.713  10.094
 4371SOL     OW13792   3.620   0.621   9.539
 4371SOL    HW113793   3.604   0.609   9.445
 4371SOL    HW213794   3.607   0.533   9.576
 4372SOL     OW13795   2.620   1.143  10.350
 4372SOL    HW113796   2.550   1.177  10.406
 4372SOL    HW213797   2.654   1.221  10.305
 4373SOL     OW13798   2.727   0.777  11.132
 4373SOL    HW113799   2.714   0.849  11.194
 4373SOL    HW213800   2.750   0.821  11.050
 4374SOL     OW13801   2.548   1.005   9.958
 4374SOL    HW113802   2.613   0.992  10.028
 4374SOL    HW213803   2.478   1.056   9.998
 4375SOL     OW13804   2.571   1.151  11.120
 4375SOL    HW113805   2.619   1.230  11.147
 4375SOL    HW213806   2.488   1.184  11.087
 4376SOL     OW13807   2.194   1.424  10.378
 4376SOL    HW113808   2.119   1.392  10.329
 4376SOL    HW213809   2.243   1.478  10.316
 4377SOL     OW13810   3.323   1.499  10.662
 4377SOL    HW113811   3.371   1.581  10.672
 4377SOL    HW213812   3.265   1.496  10.738
 4378SOL     OW13813   2.304   0.397  10.805
 4378SOL    HW113814   2.391   0.358  10.803
 4378SOL    HW213815   2.245   0.322  10.812
 4379SOL     OW13816   3.474   0.450  10.047
 4379SOL    HW113817   3.402   0.483   9.992
 4379SOL    HW213818   3.500   0.526  10.099
 4380SOL     OW13819   2.092   1.698   9.771
 4380SOL    HW113820   2.109   1.766   9.836
 4380SOL    HW213821   2.168   1.699   9.714
 4381SOL     OW13822   2.998   1.341  11.002
 4381SOL    HW113823   3.038   1.337  11.089
 4381SOL    HW213824   2.945   1.262  10.996
 4382SOL     OW13825   2.091   1.434   9.845
 4382SOL    HW113826   2.078   1.529   9.841
 4382SOL    HW213827   2.027   1.404   9.911
 4383SOL     OW13828   2.118   1.090  10.200
 4383SOL    HW113829   2.115   1.004  10.242
 4383SOL    HW213830   2.061   1.145  10.254
 4384SOL     OW13831   2.475   1.791  10.742
 4384SOL    HW113832   2.393   1.774  10.788
 4384SOL    HW213833   2.499   1.880  10.766
 4385SOL     OW13834   2.449   0.981   9.443
 4385SOL    HW113835   2.494   1.031   9.375
 4385SOL    HW213836   2.489   1.011   9.525
 4386SOL     OW13837   3.441   0.136  10.768
 4386SOL    HW113838   3.462   0.210  10.711
 4386SOL    HW213839   3.416   0.176  10.851
 4387SOL     OW13840   1.976   0.653   9.869
 4387SOL    HW113841   1.950   0.564   9.892
 4387SOL    HW213842   1.969   0.703   9.951
 4388SOL     OW13843   3.700   1.758   9.647
 4388SOL    HW113844   3.766   1.733   9.712
 4388SOL    HW213845   3.723   1.849   9.624
 4389SOL     OW13846   1.865   1.602   9.456
 4389SOL    HW113847   1.861   1.507   9.446
 4389SOL    HW213848   1.877   1.617   9.550
 4390SOL     OW13849   3.549   0.917   9.950
 4390SOL    HW113850   3.634   0.877   9.935
 4390SOL    HW213851   3.532   0.968   9.871
 4391SOL     OW13852   3.504   1.107   9.741
 4391SOL    HW113853   3.588   1.115   9.697
 4391SOL    HW213854   3.510   1.169   9.814
 4392SOL     OW13855   1.984   0.747  10.893
 4392SOL    HW113856   2.076   0.772  10.903
 4392SOL    HW213857   1.936   0.829  10.901
 4393SOL     OW13858   2.476   1.384  10.044
 4393SOL    HW113859   2.429   1.301  10.054
 4393SOL    HW213860   2.458   1.411   9.954
 4394SOL     OW13861   3.151   1.239  10.734
 4394SOL    HW113862   3.184   1.172  10.674
 4394SOL    HW213863   3.208   1.232  10.811
 4395SOL     OW13864   2.679   0.002   9.824
 4395SOL    HW113865   2.724   0.083   9.803
 4395SOL    HW213866   2.586   0.025   9.827
 4396SOL     OW13867   2.053   0.967  10.580
 4396SOL    HW113868   2.137   0.925  10.565
 4396SOL    HW213869   1.990   0.911  10.534
 4397SOL     OW13870   3.392   0.992   9.508
 4397SOL    HW113871   3.322   0.935   9.540
 4397SOL    HW213872   3.433   1.028   9.587
 4398SOL     OW13873   3.047   1.805  10.931
 4398SOL    HW113874   3.061   1.863  10.855
 4398SOL    HW213875   3.063   1.717  10.897
 4399SOL     OW13876   2.212   0.255  11.129
 4399SOL    HW113877   2.257   0.340  11.131
 4399SOL    HW213878   2.120   0.276  11.142
 4400SOL     OW13879   3.327   1.420  10.262
 4400SOL    HW113880   3.260   1.434  10.328
 4400SOL    HW213881   3.316   1.329  10.236
 4401SOL     OW13882   3.519   1.738   9.889
 4401SOL    HW113883   3.501   1.707   9.800
 4401SOL    HW213884   3.496   1.663   9.944
 4402SOL     OW13885   2.457   0.722   9.575
 4402SOL    HW113886   2.464   0.803   9.525
 4402SOL    HW213887   2.393   0.741   9.643
 4403SOL     OW13888   3.138   0.363  10.250
 4403SOL    HW113889   3.051   0.323  10.255
 4403SOL    HW213890   3.195   0.302  10.297
 4404SOL     OW13891   3.441   1.669   9.619
 4404SOL    HW113892   3.531   1.702   9.614
 4404SOL    HW213893   3.417   1.652   9.528
 4405SOL     OW13894   2.658   0.616  10.764
 4405SOL    HW113895   2.629   0.592  10.852
 4405SOL    HW213896   2.616   0.552  10.707
 4406SOL     OW13897   3.255   0.476  10.987
 4406SOL    HW113898   3.258   0.521  11.072
 4406SOL    HW213899   3.315   0.403  10.996
 4407SOL     OW13900   2.818   0.888  10.892
 4407SOL    HW113901   2.872   0.818  10.857
 4407SOL    HW213902   2.771   0.922  10.816
 4408SOL     OW13903   2.853   0.403  10.551
 4408SOL    HW113904   2.772   0.430  10.593
 4408SOL    HW213905   2.826   0.372  10.465
 4409SOL     OW13906   2.912   0.699   9.736
 4409SOL    HW113907   2.927   0.692   9.831
 4409SOL    HW213908   2.830   0.652   9.721
 4410SOL     OW13909   1.950   0.821  10.086
 4410SOL    HW113910   2.031   0.813  10.136
 4410SOL    HW213911   1.908   0.900  10.121
 4411SOL     OW13912   2.754   0.350   9.509
 4411SOL    HW113913   2.795   0.408   9.445
 4411SOL    HW213914   2.754   0.264   9.466
 4412SOL     OW13915   3.574   0.575  11.139
 4412SOL    HW113916   3.536   0.651  11.094
 4412SOL    HW213917   3.596   0.514  11.068
 4413SOL     OW13918   3.237   1.142   9.851
 4413SOL    HW113919   3.317   1.129   9.800
 4413SOL    HW213920   3.185   1.204   9.801
 4414SOL     OW13921   2.417   0.197  10.192
 4414SOL    HW113922   2.421   0.215  10.286
 4414SOL    HW213923   2.415   0.284  10.152
 4415SOL     OW13924   2.869   1.445   9.783
 4415SOL    HW113925   2.830   1.517   9.734
 4415SOL    HW213926   2.853   1.467   9.875
 4416SOL     OW13927   2.224   1.798  10.146
 4416SOL    HW113928   2.260   1.713  10.170
 4416SOL    HW213929   2.290   1.862  10.175
 4417SOL     OW13930   3.665   1.062  10.176
 4417SOL    HW113931   3.609   1.042  10.101
 4417SOL    HW213932   3.605   1.066  10.251
 4418SOL     OW13933   3.089   1.539  10.823
 4418SOL    HW113934   3.076   1.466  10.884
 4418SOL    HW213935   3.028   1.523  10.752
 4419SOL     OW13936   2.183   0.957   9.559
 4419SOL    HW113937   2.265   0.976   9.514
 4419SOL    HW213938   2.153   0.875   9.521
 4420SOL     OW13939   3.339   0.740  10.040
 4420SOL    HW113940   3.331   0.698  10.125
 4420SOL    HW213941   3.416   0.797  10.049
 4421SOL     OW13942   2.328   1.263  11.048
 4421SOL    HW113943   2.300   1.268  10.956
 4421SOL    HW213944   2.246   1.261  11.098
 4422SOL     OW13945   2.983   1.777   9.541
 4422SOL    HW113946   2.911   1.735   9.587
 4422SOL    HW213947   3.006   1.717   9.471
 4423SOL     OW13948   2.038   0.277  10.807
 4423SOL    HW113949   1.975   0.349  10.803
 4423SOL    HW213950   2.046   0.257  10.901
 4424SOL     OW13951   3.489   1.381   9.397
 4424SOL    HW113952   3.447   1.466   9.382
 4424SOL    HW213953   3.421   1.316   9.378
 4425SOL     OW13954   2.336   1.720   9.649
 4425SOL    HW113955   2.370   1.793   9.699
 4425SOL    HW213956   2.393   1.713   9.573
 4426SOL     OW13957   3.296   0.161   9.713
 4426SOL    HW113958   3.256   0.092   9.661
 4426SOL    HW213959   3.374   0.121   9.751
 4427SOL     OW13960   2.158   1.766  10.541
 4427SOL    HW113961   2.196   1.685  10.574
 4427SOL    HW213962   2.120   1.742  10.456
 4428SOL     OW13963   2.799   1.698  10.209
 4428SOL    HW113964   2.877   1.646  10.230
 4428SOL    HW213965   2.755   1.649  10.140
 4429SOL     OW13966   2.254   0.695   9.787
 4429SOL    HW113967   2.275   0.603   9.797
 4429SOL    HW213968   2.160   0.700   9.805
 4430SOL     OW13969   3.394   0.232  11.037
 4430SOL    HW113970   3.392   0.257  11.129
 4430SOL    HW213971   3.362   0.142  11.035
 4431SOL     OW13972   2.503   0.137   9.415
 4431SOL    HW113973   2.538   0.057   9.455
 4431SOL    HW213974   2.440   0.105   9.350
 4432SOL     OW13975   2.640   0.281  11.073
 4432SOL    HW113976   2.703   0.209  11.080
 4432SOL    HW213977   2.578   0.266  11.144
 4433SOL     OW13978   2.738   1.522  10.503
 4433SOL    HW113979   2.723   1.485  10.416
 4433SOL    HW213980   2.808   1.467  10.540
 4434SOL     OW13981   3.205   0.587  10.740
 4434SOL    HW113982   3.234   0.558  10.827
 4434SOL    HW213983   3.238   0.676  10.732
 4435SOL     OW13984   2.676   1.397  10.248
 4435SOL    HW113985   2.760   1.385  10.203
 4435SOL    HW213986   2.611   1.396  10.177
 4436SOL     OW13987   2.791   0.510  10.213
 4436SOL    HW113988   2.767   0.503  10.120
 4436SOL    HW213989   2.820   0.423  10.237
 4437SOL     OW13990   2.408   0.058   9.804
 4437SOL    HW113991   2.333   0.062   9.863
 4437SOL    HW213992   2.403   0.138   9.753
 4438SOL     OW13993   3.290   1.198   9.351
 4438SOL    HW113994   3.321   1.123   9.401
 4438SOL    HW213995   3.204   1.219   9.389
 4439SOL     OW13996   2.187   0.042   9.517
 4439SOL    HW113997   2.203   0.112   9.454
 4439SOL    HW213998   2.271   0.029   9.561
 4440SOL     OW13999   2.800   0.247   9.774
 4440SOL    HW114000   2.774   0.289   9.691
 4440SOL    HW214001   2.895   0.248   9.772
 4441SOL     OW14002   2.942   0.681  10.770
 4441SOL    HW114003   2.870   0.618  10.777
 4441SOL    HW214004   3.021   0.627  10.764
 4442SOL     OW14005   3.086   1.570  10.104
 4442SOL    HW114006   3.103   1.637  10.038
 4442SOL    HW214007   3.154   1.582  10.169
 4443SOL     OW14008   2.330   1.148  10.045
 4443SOL    HW114009   2.260   1.130  10.108
 4443SOL    HW214010   2.291   1.132   9.960
 4444SOL     OW14011   3.132   1.794   9.917
 4444SOL    HW114012   3.178   1.855   9.858
 4444SOL    HW214013   3.067   1.849   9.962
 4445SOL     OW14014   2.887   0.547   9.332
 4445SOL    HW114015   2.843   0.630   9.313
 4445SOL    HW214016   2.949   0.568   9.402
 4446SOL     OW14017   1.940   0.552  10.705
 4446SOL    HW114018   2.031   0.552  10.675
 4446SOL    HW214019   1.935   0.625  10.766
 4447SOL     OW14020   2.427   0.232  10.471
 4447SOL    HW114021   2.453   0.141  10.483
 4447SOL    HW214022   2.337   0.236  10.502
 4448SOL     OW14023   2.733   0.461   9.949
 4448SOL    HW114024   2.684   0.514   9.887
 4448SOL    HW214025   2.752   0.380   9.902
 4449SOL     OW14026   2.856   0.042  10.089
 4449SOL    HW114027   2.823   0.065  10.002
 4449SOL    HW214028   2.866   3.947  10.086
 4450SOL     OW14029   3.299   1.163  10.168
 4450SOL    HW114030   3.230   1.097  10.166
 4450SOL    HW214031   3.323   1.175  10.076
 4451SOL     OW14032   3.328   0.604  10.289
 4451SOL    HW114033   3.279   0.522  10.295
 4451SOL    HW214034   3.390   0.600  10.362
 4452SOL     OW14035   3.722   0.823   9.685
 4452SOL    HW114036   3.764   0.766   9.749
 4452SOL    HW214037   3.682   0.763   9.622
 4453SOL     OW14038   2.355   1.416   9.468
 4453SOL    HW114039   2.281   1.389   9.522
 4453SOL    HW214040   2.335   1.384   9.380
 4454SOL     OW14041   3.528   1.265   9.958
 4454SOL    HW114042   3.623   1.270   9.966
 4454SOL    HW214043   3.497   1.353   9.978
 4455SOL     OW14044   3.256   0.572   9.380
 4455SOL    HW114045   3.194   0.555   9.450
 4455SOL    HW214046   3.342   0.554   9.418
 4456SOL     OW14047   2.389   0.266   9.628
 4456SOL    HW114048   2.439   0.225   9.558
 4456SOL    HW214049   2.364   0.351   9.593
 4457SOL     OW14050   3.614   1.234  10.883
 4457SOL    HW114051   3.702   1.199  10.865
 4457SOL    HW214052   3.631   1.323  10.915
 4458SOL     OW14053   2.921   1.353  10.644
 4458SOL    HW114054   2.847   1.322  10.695
 4458SOL    HW214055   2.997   1.312  10.685
 4459SOL     OW14056   3.467   1.627  10.963
 4459SOL    HW114057   3.462   1.661  10.873
 4459SOL    HW214058   3.549   1.578  10.965
 4460SOL     OW14059   2.989   1.202  10.416
 4460SOL    HW114060   2.931   1.240  10.482
 4460SOL    HW214061   2.956   1.234  10.332
 4461SOL     OW14062   3.494   1.099  10.387
 4461SOL    HW114063   3.487   1.160  10.460
 4461SOL    HW214064   3.414   1.114  10.335
 4462SOL     OW14065   2.776   0.111  10.712
 4462SOL    HW114066   2.795   0.087  10.622
 4462SOL    HW214067   2.855   0.153  10.743
 4463SOL     OW14068   2.846   1.115  11.033
 4463SOL    HW114069   2.754   1.131  11.053
 4463SOL    HW214070   2.845   1.037  10.977
 4464SOL     OW14071   2.570   1.061   9.681
 4464SOL    HW114072   2.556   1.046   9.775
 4464SOL    HW214073   2.646   1.007   9.659
 4465SOL     OW14074   2.280   0.814  10.561
 4465SOL    HW114075   2.349   0.823  10.627
 4465SOL    HW214076   2.245   0.726  10.575
 4466SOL     OW14077   3.129   0.375  10.585
 4466SOL    HW114078   3.163   0.453  10.629
 4466SOL    HW214079   3.043   0.402  10.554
 4467SOL     OW14080   1.933   1.577  10.662
 4467SOL    HW114081   1.897   1.641  10.602
 4467SOL    HW214082   2.028   1.581  10.649
 4468SOL     OW14083   2.214   1.107   9.802
 4468SOL    HW114084   2.218   1.182   9.742
 4468SOL    HW214085   2.211   1.030   9.744
 4469SOL     OW14086   2.419   0.536  10.168
 4469SOL    HW114087   2.434   0.596  10.095
 4469SOL    HW214088   2.481   0.564  10.235
 4470SOL     OW14089   3.110   1.348   9.699
 4470SOL    HW114090   3.166   1.420   9.730
 4470SOL    HW214091   3.023   1.369   9.733
 4471SOL     OW14092   3.141   1.457  10.456
 4471SOL    HW114093   3.197   1.459  10.534
 4471SOL    HW214094   3.086   1.379  10.469
 4472SOL     OW14095   3.438   0.631   9.792
 4472SOL    HW114096   3.399   0.691   9.855
 4472SOL    HW214097   3.487   0.687   9.732
 4473SOL     OW14098   2.215   1.514  10.629
 4473SOL    HW114099   2.200   1.474  10.543
 4473SOL    HW214100   2.310   1.527  10.633
 4474SOL     OW14101   2.276   0.745  10.911
 4474SOL    HW114102   2.337   0.790  10.853
 4474SOL    HW214103   2.317   0.660  10.927
 4475SOL     OW14104   3.461   0.776  10.989
 4475SOL    HW114105   3.376   0.818  10.983
 4475SOL    HW214106   3.514   0.819  10.922
 4476SOL     OW14107   2.885   0.120  11.088
 4476SOL    HW114108   2.917   0.200  11.045
 4476SOL    HW214109   2.869   0.059  11.016
 4477SOL     OW14110   2.347   0.034  11.074
 4477SOL    HW114111   2.354   0.039  10.979
 4477SOL    HW214112   2.289   0.107  11.097
 4478SOL     OW14113   2.445   0.872  10.341
 4478SOL    HW114114   2.473   0.964  10.339
 4478SOL    HW214115   2.388   0.867  10.418
 4479SOL     OW14116   3.221   0.859  10.341
 4479SOL    HW114117   3.138   0.851  10.293
 4479SOL    HW214118   3.260   0.772  10.337
 4480SOL     OW14119   3.067   0.534   9.574
 4480SOL    HW114120   3.075   0.455   9.627
 4480SOL    HW214121   3.024   0.597   9.631
 4481SOL     OW14122   2.164   0.212  10.552
 4481SOL    HW114123   2.126   0.241  10.634
 4481SOL    HW214124   2.151   0.117  10.551
 4482SOL     OW14125   1.906   1.312  10.589
 4482SOL    HW114126   1.941   1.258  10.659
 4482SOL    HW214127   1.916   1.402  10.621
 4483SOL     OW14128   2.587   0.633  10.367
 4483SOL    HW114129   2.661   0.617  10.307
 4483SOL    HW214130   2.558   0.722  10.346
 4484SOL     OW14131   3.595   0.956  11.168
 4484SOL    HW114132   3.549   0.904  11.102
 4484SOL    HW214133   3.532   0.969  11.238
 4485SOL     OW14134   2.183   0.057   9.955
 4485SOL    HW114135   2.161   0.150   9.967
 4485SOL    HW214136   2.142   0.014  10.030
 4486SOL     OW14137   3.468   0.386   9.691
 4486SOL    HW114138   3.443   0.318   9.753
 4486SOL    HW214139   3.446   0.468   9.736
 4487SOL     OW14140   2.890   0.759  10.271
 4487SOL    HW114141   2.887   0.777  10.365
 4487SOL    HW214142   2.863   0.668  10.263
 4488SOL     OW14143   2.844   1.567  11.026
 4488SOL    HW114144   2.829   1.610  10.942
 4488SOL    HW214145   2.887   1.484  11.002
 4489SOL     OW14146   3.709   1.505  10.911
 4489SOL    HW114147   3.730   1.532  10.822
 4489SOL    HW214148   3.789   1.520  10.960
 4490SOL     OW14149   2.215   0.915  11.118
 4490SOL    HW114150   2.297   0.935  11.163
 4490SOL    HW214151   2.239   0.853  11.049
 4491SOL     OW14152   3.370   0.276   9.446
 4491SOL    HW114153   3.295   0.218   9.458
 4491SOL    HW214154   3.384   0.316   9.531
 4492SOL     OW14155   3.154   0.827   9.341
 4492SOL    HW114156   3.197   0.741   9.344
 4492SOL    HW214157   3.186   0.866   9.260
 4493SOL     OW14158   2.927   1.335  10.163
 4493SOL    HW114159   2.930   1.263  10.101
 4493SOL    HW214160   2.989   1.399  10.129
 4494SOL     OW14161   2.171   0.810  10.258
 4494SOL    HW114162   2.264   0.831  10.251
 4494SOL    HW214163   2.169   0.720  10.290
 4495SOL     OW14164   2.199   0.532  10.322
 4495SOL    HW114165   2.158   0.447  10.306
 4495SOL    HW214166   2.275   0.534  10.264
 4496SOL     OW14167   2.995   0.383  11.001
 4496SOL    HW114168   2.948   0.438  11.063
 4496SOL    HW214169   3.083   0.422  10.996
 4497SOL     OW14170   3.013   0.224  10.791
 4497SOL    HW114171   3.005   0.279  10.869
 4497SOL    HW214172   3.035   0.286  10.721
 4498SOL     OW14173   1.866   1.321   9.504
 4498SOL    HW114174   1.778   1.333   9.467
 4498SOL    HW214175   1.865   1.231   9.538
 4499SOL     OW14176   1.975   1.732  10.294
 4499SOL    HW114177   1.937   1.670  10.231
 4499SOL    HW214178   2.021   1.797  10.240
 4500SOL     OW14179   2.362   1.570  10.220
 4500SOL    HW114180   2.430   1.634  10.242
 4500SOL    HW214181   2.406   1.508  10.161
 4501SOL     OW14182   2.847   0.791  10.536
 4501SOL    HW114183   2.901   0.769  10.613
 4501SOL    HW214184   2.760   0.758  10.557
 4502SOL     OW14185   1.896   0.545  10.427
 4502SOL    HW114186   1.972   0.520  10.375
 4502SOL    HW214187   1.928   0.548  10.517
 4503SOL     OW14188   2.063   0.526  11.025
 4503SOL    HW114189   2.129   0.502  10.960
 4503SOL    HW214190   2.016   0.599  10.986
 4504SOL     OW14191   3.240   0.940  10.969
 4504SOL    HW114192   3.260   1.033  10.968
 4504SOL    HW214193   3.236   0.915  10.877
 4505SOL     OW14194   2.678   0.571   9.668
 4505SOL    HW114195   2.682   0.495   9.610
 4505SOL    HW214196   2.603   0.621   9.636
 4506SOL     OW14197   3.504   0.602  10.497
 4506SOL    HW114198   3.492   0.541  10.570
 4506SOL    HW214199   3.589   0.580  10.461
 4507SOL     OW14200   2.115   1.538  11.020
 4507SOL    HW114201   2.101   1.608  11.083
 4507SOL    HW214202   2.115   1.458  11.073
 4508SOL     OW14203   2.560   0.457  10.571
 4508SOL    HW114204   2.513   0.378  10.543
 4508SOL    HW214205   2.556   0.515  10.496
 4509SOL     OW14206   2.791   1.679  10.777
 4509SOL    HW114207   2.765   1.646  10.691
 4509SOL    HW214208   2.788   1.774  10.768
 4510SOL     OW14209   2.328   0.494   9.497
 4510SOL    HW114210   2.385   0.567   9.518
 4510SOL    HW214211   2.241   0.534   9.485
 4511SOL     OW14212   2.008   1.140  10.781
 4511SOL    HW114213   2.012   1.088  10.862
 4511SOL    HW214214   2.025   1.077  10.711
 4512SOL     OW14215   3.188   1.047  10.534
 4512SOL    HW114216   3.213   0.985  10.466
 4512SOL    HW214217   3.118   1.099  10.496
 4513SOL     OW14218   3.173   0.855   9.617
 4513SOL    HW114219   3.096   0.827   9.666
 4513SOL    HW214220   3.147   0.843   9.525
 4514SOL     OW14221   3.637   1.746  10.462
 4514SOL    HW114222   3.692   1.772  10.389
 4514SOL    HW214223   3.610   1.656  10.441
 4515SOL     OW14224   3.103   1.733  10.425
 4515SOL    HW114225   3.185   1.753  10.379
 4515SOL    HW214226   3.108   1.639  10.443
 4516SOL     OW14227   1.947   1.264  10.325
 4516SOL    HW114228   1.932   1.278  10.418
 4516SOL    HW214229   1.872   1.212  10.295
 4517SOL     OW14230   2.538   1.664  11.036
 4517SOL    HW114231   2.488   1.746  11.036
 4517SOL    HW214232   2.603   1.676  10.966
 4518SOL     OW14233   3.555   0.124   9.796
 4518SOL    HW114234   3.637   0.135   9.748
 4518SOL    HW214235   3.553   0.031   9.821
 4519SOL     OW14236   3.252   1.567   9.794
 4519SOL    HW114237   3.313   1.599   9.727
 4519SOL    HW214238   3.204   1.646   9.822
 4520SOL     OW14239   2.042   1.742  11.173
 4520SOL    HW114240   1.972   1.699  11.222
 4520SOL    HW214241   2.010   1.831  11.159
 4521SOL     OW14242   3.139   0.925   9.980
 4521SOL    HW114243   3.213   0.864   9.987
 4521SOL    HW214244   3.173   0.998   9.929
 4522SOL     OW14245   2.678   1.272  10.741
 4522SOL    HW114246   2.651   1.311  10.824
 4522SOL    HW214247   2.608   1.294  10.679
 4523SOL     OW14248   2.538   1.617   9.462
 4523SOL    HW114249   2.543   1.627   9.367
 4523SOL    HW214250   2.481   1.541   9.475
 4524SOL     OW14251   3.488   1.726  10.701
 4524SOL    HW114252   3.541   1.733  10.621
 4524SOL    HW214253   3.476   1.817  10.729
 4525SOL     OW14254   3.702   0.179  10.280
 4525SOL    HW114255   3.727   0.096  10.240
 4525SOL    HW214256   3.615   0.198  10.244
 4526SOL     OW14257   2.127   0.318  10.026
 4526SOL    HW114258   2.041   0.354  10.004
 4526SOL    HW214259   2.125   0.306  10.121
 4527SOL     OW14260   3.069   1.607   9.341
 4527SOL    HW114261   3.060   1.516   9.369
 4527SOL    HW214262   3.003   1.618   9.272
 4528SOL     OW14263   2.687   1.006  10.682
 4528SOL    HW114264   2.728   1.003  10.595
 4528SOL    HW214265   2.686   1.098  10.706
 4529SOL     OW14266   2.777   0.910   9.599
 4529SOL    HW114267   2.839   0.942   9.534
 4529SOL    HW214268   2.825   0.840   9.644
 4530SOL     OW14269   3.355   1.625   9.352
 4530SOL    HW114270   3.260   1.620   9.339
 4530SOL    HW214271   3.391   1.631   9.264
 4531SOL     OW14272   2.232   1.298  10.802
 4531SOL    HW114273   2.220   1.376  10.749
 4531SOL    HW214274   2.154   1.245  10.786
 4532SOL     OW14275   3.467   1.280  10.589
 4532SOL    HW114276   3.534   1.275  10.658
 4532SOL    HW214277   3.409   1.351  10.617
 4533SOL     OW14278   2.912   1.106  10.016
 4533SOL    HW114279   2.842   1.055  10.055
 4533SOL    HW214280   2.974   1.041   9.983
 4534SOL     OW14281   2.877   0.247  10.277
 4534SOL    HW114282   2.866   0.197  10.196
 4534SOL    HW214283   2.870   0.181  10.347
 4535SOL     OW14284   2.463   1.489   9.791
 4535SOL    HW114285   2.504   1.440   9.720
 4535SOL    HW214286   2.401   1.548   9.747
 4536SOL     OW14287   3.581   0.391  10.684
 4536SOL    HW114288   3.652   0.456  10.683
 4536SOL    HW214289   3.613   0.320  10.629
 4537SOL     OW14290   2.120   1.346   9.596
 4537SOL    HW114291   2.027   1.343   9.575
 4537SOL    HW214292   2.125   1.381   9.685
 4538SOL     OW14293   1.974   1.020  11.029
 4538SOL    HW114294   1.898   0.997  11.083
 4538SOL    HW214295   2.049   0.983  11.077
 4539SOL     OW14296   2.553   0.241  10.807
 4539SOL    HW114297   2.623   0.190  10.767
 4539SOL    HW214298   2.579   0.250  10.899
 4540SOL     OW14299   1.959   0.319   9.299
 4540SOL    HW114300   1.880   0.336   9.351
 4540SOL    HW214301   1.976   0.402   9.254
 4541SOL     OW14302   3.291   0.857  10.710
 4541SOL    HW114303   3.242   0.919  10.655
 4541SOL    HW214304   3.380   0.860  10.675
 4542SOL     OW14305   1.945   0.155   9.650
 4542SOL    HW114306   1.914   0.218   9.586
 4542SOL    HW214307   2.029   0.124   9.616
 4543SOL     OW14308   3.041   1.341   9.427
 4543SOL    HW114309   2.950   1.310   9.430
 4543SOL    HW214310   3.070   1.341   9.518
 4544SOL     OW14311   2.481   0.830  10.743
 4544SOL    HW114312   2.537   0.906  10.728
 4544SOL    HW214313   2.543   0.757  10.752
 4545SOL     OW14314   3.346   1.777  10.287
 4545SOL    HW114315   3.371   1.834  10.215
 4545SOL    HW214316   3.428   1.756  10.331
 4546SOL     OW14317   2.579   0.563  11.016
 4546SOL    HW114318   2.618   0.627  11.076
 4546SOL    HW214319   2.612   0.479  11.047
 4547SOL     OW14320   3.332   1.201  10.942
 4547SOL    HW114321   3.320   1.215  11.036
 4547SOL    HW214322   3.425   1.215  10.927
 4548SOL     OW14323   2.241   1.745  10.882
 4548SOL    HW114324   2.160   1.763  10.834
 4548SOL    HW214325   2.227   1.659  10.922
 4549SOL     OW14326   3.530   0.881  10.568
 4549SOL    HW114327   3.527   0.796  10.525
 4549SOL    HW214328   3.524   0.945  10.497
 4550SOL     OW14329   3.085   0.333   9.757
 4550SOL    HW114330   3.152   0.266   9.747
 4550SOL    HW214331   3.108   0.379   9.838
 4551SOL     OW14332   2.454   0.739   9.978
 4551SOL    HW114333   2.492   0.825   9.962
 4551SOL    HW214334   2.384   0.731   9.913
 4552SOL     OW14335   3.619   0.379  10.952
 4552SOL    HW114336   3.599   0.386  10.859
 4552SOL    HW214337   3.559   0.312  10.985
 4553SOL     OW14338   3.612   0.932  10.824
 4553SOL    HW114339   3.608   1.026  10.839
 4553SOL    HW214340   3.592   0.921  10.732
 4554SOL     OW14341   2.723   1.368   9.341
 4554SOL    HW114342   2.685   1.394   9.426
 4554SOL    HW214343   2.743   1.451   9.298
 4555SOL     OW14344   2.522   1.795  10.257
 4555SOL    HW114345   2.504   1.885  10.229
 4555SOL    HW214346   2.617   1.786  10.248
 4556SOL     OW14347   2.729   0.966  10.166
 4556SOL    HW114348   2.779   0.895  10.206
 4556SOL    HW214349   2.695   1.016  10.240
 4557SOL     OW14350   2.941   0.988   9.399
 4557SOL    HW114351   2.920   1.039   9.321
 4557SOL    HW214352   3.017   0.935   9.373
 4558SOL     OW14353   3.718   1.557  10.152
 4558SOL    HW114354   3.640   1.542  10.100
 4558SOL    HW214355   3.715   1.490  10.221
 4559SOL     OW14356   2.087   1.302  11.167
 4559SOL    HW114357   2.019   1.241  11.140
 4559SOL    HW214358   2.074   1.314  11.261
 4560SOL     OW14359   1.942   1.229   9.974
 4560SOL    HW114360   1.951   1.183  10.057
 4560SOL    HW214361   2.015   1.197   9.921
 4561SOL     OW14362   2.542   1.402  10.936
 4561SOL    HW114363   2.463   1.358  10.968
 4561SOL    HW214364   2.537   1.490  10.974
 4562SOL     OW14365   3.677   0.183  10.553
 4562SOL    HW114366   3.679   0.087  10.562
 4562SOL    HW214367   3.693   0.199  10.460
 4563SOL     OW14368   2.291   0.434   9.834
 4563SOL    HW114369   2.322   0.361   9.780
 4563SOL    HW214370   2.244   0.392   9.907
 4564SOL     OW14371   3.561   1.492  10.410
 4564SOL    HW114372   3.481   1.466  10.364
 4564SOL    HW214373   3.576   1.422  10.473
 4565SOL     OW14374   2.189   0.554  10.602
 4565SOL    HW114375   2.244   0.497  10.657
 4565SOL    HW214376   2.210   0.527  10.512
 4566SOL     OW14377   2.687   1.578   9.988
 4566SOL    HW114378   2.677   1.626   9.906
 4566SOL    HW214379   2.611   1.521   9.992
 4567SOL     OW14380   3.323   0.250  10.422
 4567SOL    HW114381   3.337   0.163  10.457
 4567SOL    HW214382   3.265   0.293  10.485
 4568SOL     OW14383   2.868   0.030  10.457
 4568SOL    HW114384   2.793   3.979  10.428
 4568SOL    HW214385   2.939   3.965  10.465
 4569SOL     OW14386   2.635   1.332   9.621
 4569SOL    HW114387   2.601   1.242   9.629
 4569SOL    HW214388   2.716   1.331   9.672
 4570SOL     OW14389   2.482   1.557  10.595
 4570SOL    HW114390   2.485   1.639  10.645
 4570SOL    HW214391   2.570   1.550  10.557
 4571SOL     OW14392   3.178   0.072   9.471
 4571SOL    HW114393   3.194   0.002   9.407
 4571SOL    HW214394   3.093   0.051   9.509
 4572SOL     OW14395   3.147   0.458   9.997
 4572SOL    HW114396   3.099   0.540   9.994
 4572SOL    HW214397   3.152   0.436  10.090
 4573SOL     OW14398   3.451   0.211  10.177
 4573SOL    HW114399   3.401   0.232  10.255
 4573SOL    HW214400   3.451   0.291  10.125
 4574SOL     OW14401   1.906   1.072   9.614
 4574SOL    HW114402   2.000   1.064   9.599
 4574SOL    HW214403   1.878   0.984   9.638
 4575SOL     OW14404   2.744   1.652   9.654
 4575SOL    HW114405   2.673   1.633   9.593
 4575SOL    HW214406   2.714   1.727   9.704
 4576SOL     OW14407   2.093   0.621  11.293
 4576SOL    HW114408   2.002   0.626  11.324
 4576SOL    HW214409   2.085   0.600  11.200
 4577SOL     OW14410   2.079   0.297  12.162
 4577SOL    HW114411   2.117   0.256  12.241
 4577SOL    HW214412   1.996   0.251  12.149
 4578SOL     OW14413   1.872   0.394  11.809
 4578SOL    HW114414   1.784   0.409  11.844
 4578SOL    HW214415   1.860   0.322  11.747
 4579SOL     OW14416   2.429   1.284  12.345
 4579SOL    HW114417   2.342   1.288  12.306
 4579SOL    HW214418   2.444   1.373  12.378
 4580SOL     OW14419   3.421   1.512  11.878
 4580SOL    HW114420   3.377   1.493  11.961
 4580SOL    HW214421   3.350   1.517  11.815
 4581SOL     OW14422   2.993   0.698  11.874
 4581SOL    HW114423   3.042   0.780  11.860
 4581SOL    HW214424   2.946   0.713  11.956
 4582SOL     OW14425   3.620   0.621  11.401
 4582SOL    HW114426   3.604   0.609  11.307
 4582SOL    HW214427   3.607   0.533  11.438
 4583SOL     OW14428   2.620   1.144  12.212
 4583SOL    HW114429   2.550   1.177  12.268
 4583SOL    HW214430   2.654   1.221  12.167
 4584SOL     OW14431   2.727   0.777  12.994
 4584SOL    HW114432   2.713   0.849  13.056
 4584SOL    HW214433   2.750   0.820  12.912
 4585SOL     OW14434   2.548   1.004  11.820
 4585SOL    HW114435   2.613   0.992  11.890
 4585SOL    HW214436   2.478   1.056  11.860
 4586SOL     OW14437   2.571   1.151  12.982
 4586SOL    HW114438   2.619   1.230  13.009
 4586SOL    HW214439   2.488   1.184  12.948
 4587SOL     OW14440   2.194   1.424  12.240
 4587SOL    HW114441   2.119   1.392  12.190
 4587SOL    HW214442   2.243   1.478  12.178
 4588SOL     OW14443   3.323   1.499  12.524
 4588SOL    HW114444   3.371   1.581  12.534
 4588SOL    HW214445   3.264   1.497  12.600
 4589SOL     OW14446   2.304   0.397  12.668
 4589SOL    HW114447   2.391   0.358  12.665
 4589SOL    HW214448   2.244   0.322  12.674
 4590SOL     OW14449   3.474   0.450  11.909
 4590SOL    HW114450   3.402   0.483  11.854
 4590SOL    HW214451   3.500   0.526  11.961
 4591SOL     OW14452   2.094   1.695  11.633
 4591SOL    HW114453   2.112   1.762  11.699
 4591SOL    HW214454   2.169   1.698  11.574
 4592SOL     OW14455   2.998   1.341  12.864
 4592SOL    HW114456   3.038   1.337  12.951
 4592SOL    HW214457   2.946   1.261  12.858
 4593SOL     OW14458   2.091   1.432  11.708
 4593SOL    HW114459   2.080   1.527  11.702
 4593SOL    HW214460   2.027   1.404  11.773
 4594SOL     OW14461   2.118   1.090  12.062
 4594SOL    HW114462   2.115   1.004  12.104
 4594SOL    HW214463   2.061   1.145  12.116
 4595SOL     OW14464   2.475   1.791  12.604
 4595SOL    HW114465   2.393   1.774  12.650
 4595SOL    HW214466   2.499   1.880  12.628
 4596SOL     OW14467   2.450   0.981  11.305
 4596SOL    HW114468   2.494   1.031  11.237
 4596SOL    HW214469   2.489   1.011  11.387
 4597SOL     OW14470   3.442   0.136  12.630
 4597SOL    HW114471   3.462   0.210  12.573
 4597SOL    HW214472   3.416   0.175  12.713
 4598SOL     OW14473   1.976   0.653  11.731
 4598SOL    HW114474   1.950   0.564  11.754
 4598SOL    HW214475   1.969   0.703  11.813
 4599SOL     OW14476   3.700   1.758  11.509
 4599SOL    HW114477   3.766   1.733  11.573
 4599SOL    HW214478   3.723   1.849  11.486
 4600SOL     OW14479   1.862   1.603  11.319
 4600SOL    HW114480   1.859   1.508  11.309
 4600SOL    HW214481   1.877   1.616  11.413
 4601SOL     OW14482   3.549   0.917  11.812
 4601SOL    HW114483   3.634   0.877  11.797
 4601SOL    HW214484   3.532   0.968  11.733
 4602SOL     OW14485   3.504   1.107  11.603
 4602SOL    HW114486   3.588   1.115  11.559
 4602SOL    HW214487   3.510   1.169  11.676
 4603SOL     OW14488   1.984   0.747  12.755
 4603SOL    HW114489   2.076   0.772  12.765
 4603SOL    HW214490   1.936   0.829  12.763
 4604SOL     OW14491   2.475   1.384  11.907
 4604SOL    HW114492   2.429   1.301  11.916
 4604SOL    HW214493   2.458   1.412  11.816
 4605SOL     OW14494   3.151   1.239  12.596
 4605SOL    HW114495   3.184   1.172  12.536
 4605SOL    HW214496   3.208   1.232  12.673
 4606SOL     OW14497   2.679   0.002  11.686
 4606SOL    HW114498   2.724   0.083  11.665
 4606SOL    HW214499   2.586   0.025  11.689
 4607SOL     OW14500   2.053   0.967  12.443
 4607SOL    HW114501   2.137   0.925  12.427
 4607SOL    HW214502   1.990   0.911  12.396
 4608SOL     OW14503   3.392   0.992  11.370
 4608SOL    HW114504   3.322   0.935  11.402
 4608SOL    HW214505   3.433   1.028  11.449
 4609SOL     OW14506   3.047   1.805  12.793
 4609SOL    HW114507   3.061   1.863  12.717
 4609SOL    HW214508   3.063   1.717  12.759
 4610SOL     OW14509   2.212   0.255  12.991
 4610SOL    HW114510   2.256   0.340  12.993
 4610SOL    HW214511   2.120   0.276  13.005
 4611SOL     OW14512   3.328   1.420  12.124
 4611SOL    HW114513   3.260   1.434  12.190
 4611SOL    HW214514   3.316   1.329  12.098
 4612SOL     OW14515   3.519   1.737  11.751
 4612SOL    HW114516   3.501   1.707  11.662
 4612SOL    HW214517   3.496   1.663  11.806
 4613SOL     OW14518   2.457   0.722  11.437
 4613SOL    HW114519   2.464   0.803  11.386
 4613SOL    HW214520   2.393   0.742  11.505
 4614SOL     OW14521   3.138   0.363  12.112
 4614SOL    HW114522   3.051   0.324  12.117
 4614SOL    HW214523   3.195   0.302  12.159
 4615SOL     OW14524   3.441   1.669  11.481
 4615SOL    HW114525   3.531   1.702  11.476
 4615SOL    HW214526   3.416   1.652  11.390
 4616SOL     OW14527   2.658   0.616  12.626
 4616SOL    HW114528   2.629   0.592  12.714
 4616SOL    HW214529   2.616   0.552  12.569
 4617SOL     OW14530   3.255   0.476  12.849
 4617SOL    HW114531   3.258   0.521  12.934
 4617SOL    HW214532   3.315   0.403  12.858
 4618SOL     OW14533   2.818   0.888  12.754
 4618SOL    HW114534   2.872   0.818  12.719
 4618SOL    HW214535   2.771   0.922  12.678
 4619SOL     OW14536   2.853   0.403  12.413
 4619SOL    HW114537   2.772   0.430  12.455
 4619SOL    HW214538   2.826   0.372  12.327
 4620SOL     OW14539   2.912   0.698  11.598
 4620SOL    HW114540   2.927   0.692  11.693
 4620SOL    HW214541   2.830   0.652  11.583
 4621SOL     OW14542   1.950   0.821  11.948
 4621SOL    HW114543   2.031   0.813  11.998
 4621SOL    HW214544   1.908   0.899  11.983
 4622SOL     OW14545   2.754   0.350  11.371
 4622SOL    HW114546   2.795   0.408  11.307
 4622SOL    HW214547   2.754   0.264  11.328
 4623SOL     OW14548   3.574   0.576  13.001
 4623SOL    HW114549   3.536   0.652  12.956
 4623SOL    HW214550   3.595   0.515  12.930
 4624SOL     OW14551   3.237   1.142  11.713
 4624SOL    HW114552   3.317   1.129  11.662
 4624SOL    HW214553   3.185   1.204  11.663
 4625SOL     OW14554   2.417   0.197  12.054
 4625SOL    HW114555   2.421   0.215  12.148
 4625SOL    HW214556   2.415   0.284  12.014
 4626SOL     OW14557   2.869   1.445  11.645
 4626SOL    HW114558   2.830   1.517  11.595
 4626SOL    HW214559   2.853   1.467  11.737
 4627SOL     OW14560   2.225   1.799  12.008
 4627SOL    HW114561   2.261   1.714  12.032
 4627SOL    HW214562   2.291   1.862  12.037
 4628SOL     OW14563   3.665   1.062  12.038
 4628SOL    HW114564   3.609   1.042  11.963
 4628SOL    HW214565   3.605   1.066  12.112
 4629SOL     OW14566   3.090   1.539  12.685
 4629SOL    HW114567   3.076   1.466  12.745
 4629SOL    HW214568   3.028   1.523  12.614
 4630SOL     OW14569   2.183   0.957  11.421
 4630SOL    HW114570   2.265   0.976  11.376
 4630SOL    HW214571   2.153   0.875  11.382
 4631SOL     OW14572   3.339   0.740  11.902
 4631SOL    HW114573   3.331   0.698  11.987
 4631SOL    HW214574   3.416   0.797  11.911
 4632SOL     OW14575   2.328   1.263  12.910
 4632SOL    HW114576   2.300   1.268  12.818
 4632SOL    HW214577   2.246   1.261  12.960
 4633SOL     OW14578   2.983   1.777  11.404
 4633SOL    HW114579   2.911   1.735  11.449
 4633SOL    HW214580   3.005   1.717  11.333
 4634SOL     OW14581   2.038   0.277  12.669
 4634SOL    HW114582   1.975   0.349  12.665
 4634SOL    HW214583   2.046   0.257  12.762
 4635SOL     OW14584   3.489   1.381  11.259
 4635SOL    HW114585   3.447   1.466  11.244
 4635SOL    HW214586   3.421   1.316  11.240
 4636SOL     OW14587   2.337   1.720  11.510
 4636SOL    HW114588   2.371   1.793  11.560
 4636SOL    HW214589   2.394   1.713  11.434
 4637SOL     OW14590   3.296   0.162  11.575
 4637SOL    HW114591   3.256   0.092  11.523
 4637SOL    HW214592   3.374   0.121  11.613
 4638SOL     OW14593   2.156   1.764  12.408
 4638SOL    HW114594   2.196   1.683  12.439
 4638SOL    HW214595   2.121   1.743  12.322
 4639SOL     OW14596   2.799   1.698  12.071
 4639SOL    HW114597   2.877   1.646  12.092
 4639SOL    HW214598   2.755   1.649  12.002
 4640SOL     OW14599   2.254   0.695  11.649
 4640SOL    HW114600   2.275   0.603  11.659
 4640SOL    HW214601   2.160   0.700  11.667
 4641SOL     OW14602   3.394   0.232  12.898
 4641SOL    HW114603   3.393   0.256  12.991
 4641SOL    HW214604   3.362   0.142  12.897
 4642SOL     OW14605   2.503   0.137  11.277
 4642SOL    HW114606   2.538   0.057  11.317
 4642SOL    HW214607   2.440   0.105  11.212
 4643SOL     OW14608   2.640   0.281  12.935
 4643SOL    HW114609   2.703   0.209  12.942
 4643SOL    HW214610   2.578   0.266  13.006
 4644SOL     OW14611   2.738   1.522  12.365
 4644SOL    HW114612   2.723   1.485  12.278
 4644SOL    HW214613   2.808   1.467  12.402
 4645SOL     OW14614   3.205   0.587  12.602
 4645SOL    HW114615   3.234   0.558  12.689
 4645SOL    HW214616   3.238   0.676  12.594
 4646SOL     OW14617   2.676   1.397  12.110
 4646SOL    HW114618   2.760   1.385  12.065
 4646SOL    HW214619   2.611   1.396  12.039
 4647SOL     OW14620   2.791   0.510  12.075
 4647SOL    HW114621   2.767   0.503  11.982
 4647SOL    HW214622   2.820   0.422  12.099
 4648SOL     OW14623   2.408   0.058  11.666
 4648SOL    HW114624   2.333   0.062  11.725
 4648SOL    HW214625   2.403   0.138  11.615
 4649SOL     OW14626   3.290   1.198  11.213
 4649SOL    HW114627   3.321   1.123  11.263
 4649SOL    HW214628   3.204   1.219  11.251
 4650SOL     OW14629   2.187   0.042  11.379
 4650SOL    HW114630   2.203   0.112  11.316
 4650SOL    HW214631   2.271   0.029  11.423
 4651SOL     OW14632   2.800   0.247  11.636
 4651SOL    HW114633   2.774   0.289  11.554
 4651SOL    HW214634   2.895   0.248  11.634
 4652SOL     OW14635   2.942   0.681  12.632
 4652SOL    HW114636   2.870   0.618  12.639
 4652SOL    HW214637   3.020   0.627  12.626
 4653SOL     OW14638   3.086   1.570  11.966
 4653SOL    HW114639   3.103   1.637  11.900
 4653SOL    HW214640   3.154   1.582  12.031
 4654SOL     OW14641   2.330   1.148  11.907
 4654SOL    HW114642   2.260   1.130  11.970
 4654SOL    HW214643   2.291   1.132  11.821
 4655SOL     OW14644   3.132   1.794  11.779
 4655SOL    HW114645   3.178   1.855  11.720
 4655SOL    HW214646   3.067   1.849  11.824
 4656SOL     OW14647   2.887   0.547  11.194
 4656SOL    HW114648   2.843   0.630  11.175
 4656SOL    HW214649   2.949   0.568  11.264
 4657SOL     OW14650   1.940   0.552  12.567
 4657SOL    HW114651   2.031   0.552  12.537
 4657SOL    HW214652   1.935   0.625  12.628
 4658SOL     OW14653   2.427   0.232  12.333
 4658SOL    HW114654   2.453   0.141  12.345
 4658SOL    HW214655   2.337   0.236  12.364
 4659SOL     OW14656   2.733   0.461  11.811
 4659SOL    HW114657   2.684   0.514  11.749
 4659SOL    HW214658   2.752   0.380  11.764
 4660SOL     OW14659   2.856   0.042  11.951
 4660SOL    HW114660   2.823   0.065  11.864
 4660SOL    HW214661   2.866   3.947  11.948
 4661SOL     OW14662   3.299   1.163  12.030
 4661SOL    HW114663   3.230   1.097  12.028
 4661SOL    HW214664   3.323   1.175  11.938
 4662SOL     OW14665   3.328   0.604  12.151
 4662SOL    HW114666   3.279   0.522  12.157
 4662SOL    HW214667   3.390   0.600  12.224
 4663SOL     OW14668   3.722   0.823  11.547
 4663SOL    HW114669   3.764   0.766  11.611
 4663SOL    HW214670   3.682   0.763  11.484
 4664SOL     OW14671   2.355   1.416  11.330
 4664SOL    HW114672   2.280   1.389  11.384
 4664SOL    HW214673   2.335   1.384  11.242
 4665SOL     OW14674   3.528   1.265  11.820
 4665SOL    HW114675   3.623   1.270  11.828
 4665SOL    HW214676   3.497   1.353  11.840
 4666SOL     OW14677   3.256   0.572  11.242
 4666SOL    HW114678   3.194   0.555  11.312
 4666SOL    HW214679   3.342   0.554  11.280
 4667SOL     OW14680   2.389   0.266  11.490
 4667SOL    HW114681   2.439   0.225  11.420
 4667SOL    HW214682   2.364   0.351  11.455
 4668SOL     OW14683   3.614   1.234  12.745
 4668SOL    HW114684   3.702   1.199  12.727
 4668SOL    HW214685   3.631   1.323  12.777
 4669SOL     OW14686   2.921   1.353  12.506
 4669SOL    HW114687   2.847   1.322  12.557
 4669SOL    HW214688   2.997   1.312  12.547
 4670SOL     OW14689   3.467   1.627  12.825
 4670SOL    HW114690   3.462   1.661  12.735
 4670SOL    HW214691   3.549   1.578  12.827
 4671SOL     OW14692   2.989   1.202  12.278
 4671SOL    HW114693   2.931   1.240  12.344
 4671SOL    HW214694   2.956   1.234  12.194
 4672SOL     OW14695   3.494   1.099  12.249
 4672SOL    HW114696   3.487   1.160  12.322
 4672SOL    HW214697   3.414   1.114  12.197
 4673SOL     OW14698   2.776   0.111  12.574
 4673SOL    HW114699   2.795   0.086  12.484
 4673SOL    HW214700   2.856   0.153  12.605
 4674SOL     OW14701   2.846   1.114  12.895
 4674SOL    HW114702   2.754   1.131  12.915
 4674SOL    HW214703   2.845   1.037  12.839
 4675SOL     OW14704   2.570   1.061  11.543
 4675SOL    HW114705   2.556   1.045  11.637
 4675SOL    HW214706   2.646   1.007  11.521
 4676SOL     OW14707   2.280   0.814  12.423
 4676SOL    HW114708   2.349   0.823  12.489
 4676SOL    HW214709   2.245   0.726  12.437
 4677SOL     OW14710   3.129   0.376  12.447
 4677SOL    HW114711   3.163   0.453  12.491
 4677SOL    HW214712   3.043   0.402  12.416
 4678SOL     OW14713   1.933   1.577  12.524
 4678SOL    HW114714   1.896   1.641  12.464
 4678SOL    HW214715   2.027   1.582  12.511
 4679SOL     OW14716   2.214   1.107  11.664
 4679SOL    HW114717   2.218   1.182  11.604
 4679SOL    HW214718   2.212   1.030  11.606
 4680SOL     OW14719   2.419   0.536  12.030
 4680SOL    HW114720   2.434   0.596  11.957
 4680SOL    HW214721   2.481   0.565  12.097
 4681SOL     OW14722   3.110   1.348  11.561
 4681SOL    HW114723   3.166   1.420  11.592
 4681SOL    HW214724   3.023   1.369  11.595
 4682SOL     OW14725   3.141   1.457  12.318
 4682SOL    HW114726   3.196   1.459  12.396
 4682SOL    HW214727   3.086   1.380  12.331
 4683SOL     OW14728   3.438   0.631  11.654
 4683SOL    HW114729   3.399   0.691  11.717
 4683SOL    HW214730   3.487   0.688  11.594
 4684SOL     OW14731   2.216   1.512  12.491
 4684SOL    HW114732   2.201   1.472  12.405
 4684SOL    HW214733   2.311   1.525  12.495
 4685SOL     OW14734   2.276   0.745  12.773
 4685SOL    HW114735   2.337   0.790  12.715
 4685SOL    HW214736   2.316   0.660  12.789
 4686SOL     OW14737   3.461   0.776  12.851
 4686SOL    HW114738   3.376   0.818  12.845
 4686SOL    HW214739   3.514   0.818  12.784
 4687SOL     OW14740   2.884   0.121  12.950
 4687SOL    HW114741   2.917   0.200  12.907
 4687SOL    HW214742   2.870   0.059  12.879
 4688SOL     OW14743   2.347   0.035  12.936
 4688SOL    HW114744   2.354   0.039  12.841
 4688SOL    HW214745   2.289   0.107  12.959
 4689SOL     OW14746   2.445   0.872  12.204
 4689SOL    HW114747   2.473   0.964  12.201
 4689SOL    HW214748   2.388   0.867  12.280
 4690SOL     OW14749   3.221   0.859  12.203
 4690SOL    HW114750   3.139   0.851  12.155
 4690SOL    HW214751   3.260   0.772  12.199
 4691SOL     OW14752   3.067   0.534  11.436
 4691SOL    HW114753   3.075   0.455  11.489
 4691SOL    HW214754   3.024   0.597  11.493
 4692SOL     OW14755   2.164   0.212  12.414
 4692SOL    HW114756   2.126   0.241  12.497
 4692SOL    HW214757   2.151   0.117  12.413
 4693SOL     OW14758   1.906   1.312  12.451
 4693SOL    HW114759   1.941   1.258  12.521
 4693SOL    HW214760   1.916   1.402  12.483
 4694SOL     OW14761   2.587   0.633  12.229
 4694SOL    HW114762   2.661   0.617  12.169
 4694SOL    HW214763   2.558   0.722  12.208
 4695SOL     OW14764   3.596   0.955  13.031
 4695SOL    HW114765   3.549   0.904  12.964
 4695SOL    HW214766   3.532   0.969  13.100
 4696SOL     OW14767   2.183   0.057  11.817
 4696SOL    HW114768   2.161   0.150  11.829
 4696SOL    HW214769   2.142   0.014  11.892
 4697SOL     OW14770   3.468   0.387  11.553
 4697SOL    HW114771   3.443   0.318  11.615
 4697SOL    HW214772   3.446   0.468  11.598
 4698SOL     OW14773   2.890   0.759  12.133
 4698SOL    HW114774   2.887   0.777  12.227
 4698SOL    HW214775   2.863   0.668  12.125
 4699SOL     OW14776   2.844   1.566  12.888
 4699SOL    HW114777   2.829   1.610  12.804
 4699SOL    HW214778   2.887   1.484  12.864
 4700SOL     OW14779   3.709   1.505  12.773
 4700SOL    HW114780   3.730   1.532  12.683
 4700SOL    HW214781   3.789   1.520  12.822
 4701SOL     OW14782   2.215   0.915  12.981
 4701SOL    HW114783   2.297   0.935  13.025
 4701SOL    HW214784   2.239   0.853  12.912
 4702SOL     OW14785   3.370   0.276  11.308
 4702SOL    HW114786   3.295   0.218  11.320
 4702SOL    HW214787   3.384   0.316  11.393
 4703SOL     OW14788   3.154   0.827  11.203
 4703SOL    HW114789   3.197   0.741  11.206
 4703SOL    HW214790   3.186   0.867  11.122
 4704SOL     OW14791   2.927   1.335  12.025
 4704SOL    HW114792   2.930   1.263  11.963
 4704SOL    HW214793   2.989   1.399  11.991
 4705SOL     OW14794   2.171   0.810  12.120
 4705SOL    HW114795   2.264   0.831  12.113
 4705SOL    HW214796   2.169   0.720  12.152
 4706SOL     OW14797   2.199   0.532  12.184
 4706SOL    HW114798   2.158   0.447  12.168
 4706SOL    HW214799   2.275   0.534  12.126
 4707SOL     OW14800   2.995   0.383  12.863
 4707SOL    HW114801   2.948   0.438  12.925
 4707SOL    HW214802   3.083   0.422  12.858
 4708SOL     OW14803   3.013   0.224  12.653
 4708SOL    HW114804   3.005   0.279  12.731
 4708SOL    HW214805   3.035   0.286  12.583
 4709SOL     OW14806   1.866   1.321  11.366
 4709SOL    HW114807   1.779   1.333  11.329
 4709SOL    HW214808   1.865   1.231  11.400
 4710SOL     OW14809   1.973   1.734  12.153
 4710SOL    HW114810   1.936   1.671  12.091
 4710SOL    HW214811   2.019   1.797  12.098
 4711SOL     OW14812   2.362   1.571  12.082
 4711SOL    HW114813   2.430   1.634  12.104
 4711SOL    HW214814   2.406   1.508  12.023
 4712SOL     OW14815   2.847   0.791  12.398
 4712SOL    HW114816   2.901   0.769  12.475
 4712SOL    HW214817   2.760   0.757  12.419
 4713SOL     OW14818   1.896   0.545  12.289
 4713SOL    HW114819   1.972   0.520  12.237
 4713SOL    HW214820   1.928   0.548  12.379
 4714SOL     OW14821   2.064   0.526  12.888
 4714SOL    HW114822   2.129   0.502  12.822
 4714SOL    HW214823   2.016   0.599  12.848
 4715SOL     OW14824   3.240   0.940  12.831
 4715SOL    HW114825   3.260   1.033  12.830
 4715SOL    HW214826   3.236   0.915  12.738
 4716SOL     OW14827   2.678   0.571  11.530
 4716SOL    HW114828   2.682   0.495  11.472
 4716SOL    HW214829   2.603   0.622  11.498
 4717SOL     OW14830   3.504   0.602  12.359
 4717SOL    HW114831   3.492   0.541  12.432
 4717SOL    HW214832   3.589   0.580  12.323
 4718SOL     OW14833   2.115   1.537  12.882
 4718SOL    HW114834   2.101   1.608  12.945
 4718SOL    HW214835   2.115   1.457  12.934
 4719SOL     OW14836   2.560   0.457  12.433
 4719SOL    HW114837   2.513   0.378  12.405
 4719SOL    HW214838   2.556   0.515  12.358
 4720SOL     OW14839   2.791   1.679  12.639
 4720SOL    HW114840   2.765   1.646  12.553
 4720SOL    HW214841   2.788   1.774  12.630
 4721SOL     OW14842   2.328   0.494  11.359
 4721SOL    HW114843   2.385   0.567  11.380
 4721SOL    HW214844   2.242   0.534  11.347
 4722SOL     OW14845   2.008   1.140  12.643
 4722SOL    HW114846   2.012   1.088  12.724
 4722SOL    HW214847   2.025   1.077  12.573
 4723SOL     OW14848   3.188   1.047  12.396
 4723SOL    HW114849   3.213   0.985  12.328
 4723SOL    HW214850   3.118   1.099  12.358
 4724SOL     OW14851   3.173   0.855  11.479
 4724SOL    HW114852   3.096   0.827  11.528
 4724SOL    HW214853   3.147   0.843  11.387
 4725SOL     OW14854   3.637   1.746  12.324
 4725SOL    HW114855   3.692   1.773  12.251
 4725SOL    HW214856   3.610   1.656  12.303
 4726SOL     OW14857   3.103   1.733  12.287
 4726SOL    HW114858   3.185   1.753  12.241
 4726SOL    HW214859   3.108   1.639  12.305
 4727SOL     OW14860   1.947   1.264  12.187
 4727SOL    HW114861   1.931   1.278  12.280
 4727SOL    HW214862   1.872   1.212  12.157
 4728SOL     OW14863   2.538   1.664  12.898
 4728SOL    HW114864   2.488   1.745  12.898
 4728SOL    HW214865   2.603   1.676  12.828
 4729SOL     OW14866   3.555   0.124  11.658
 4729SOL    HW114867   3.637   0.134  11.610
 4729SOL    HW214868   3.553   0.031  11.683
 4730SOL     OW14869   3.252   1.567  11.656
 4730SOL    HW114870   3.312   1.599  11.589
 4730SOL    HW214871   3.204   1.646  11.684
 4731SOL     OW14872   2.042   1.740  13.036
 4731SOL    HW114873   1.971   1.698  13.084
 4731SOL    HW214874   2.012   1.829  13.020
 4732SOL     OW14875   3.139   0.925  11.842
 4732SOL    HW114876   3.213   0.864  11.849
 4732SOL    HW214877   3.173   0.998  11.791
 4733SOL     OW14878   2.678   1.272  12.603
 4733SOL    HW114879   2.651   1.311  12.686
 4733SOL    HW214880   2.608   1.294  12.541
 4734SOL     OW14881   2.538   1.617  11.324
 4734SOL    HW114882   2.543   1.627  11.229
 4734SOL    HW214883   2.481   1.541  11.337
 4735SOL     OW14884   3.489   1.727  12.563
 4735SOL    HW114885   3.541   1.733  12.483
 4735SOL    HW214886   3.476   1.817  12.591
 4736SOL     OW14887   3.702   0.179  12.142
 4736SOL    HW114888   3.727   0.096  12.102
 4736SOL    HW214889   3.615   0.198  12.106
 4737SOL     OW14890   2.127   0.318  11.888
 4737SOL    HW114891   2.041   0.354  11.866
 4737SOL    HW214892   2.125   0.306  11.983
 4738SOL     OW14893   3.068   1.607  11.203
 4738SOL    HW114894   3.060   1.516  11.230
 4738SOL    HW214895   3.003   1.618  11.134
 4739SOL     OW14896   2.687   1.006  12.544
 4739SOL    HW114897   2.728   1.003  12.457
 4739SOL    HW214898   2.686   1.098  12.568
 4740SOL     OW14899   2.778   0.910  11.462
 4740SOL    HW114900   2.839   0.942  11.396
 4740SOL    HW214901   2.825   0.840  11.506
 4741SOL     OW14902   3.355   1.625  11.214
 4741SOL    HW114903   3.260   1.620  11.201
 4741SOL    HW214904   3.391   1.631  11.126
 4742SOL     OW14905   2.232   1.297  12.665
 4742SOL    HW114906   2.220   1.375  12.611
 4742SOL    HW214907   2.154   1.244  12.648
 4743SOL     OW14908   3.467   1.280  12.452
 4743SOL    HW114909   3.534   1.275  12.520
 4743SOL    HW214910   3.409   1.352  12.479
 4744SOL     OW14911   2.912   1.106  11.878
 4744SOL    HW114912   2.842   1.055  11.917
 4744SOL    HW214913   2.974   1.041  11.845
 4745SOL     OW14914   2.877   0.247  12.139
 4745SOL    HW114915   2.866   0.197  12.058
 4745SOL    HW214916   2.870   0.181  12.209
 4746SOL     OW14917   2.463   1.489  11.653
 4746SOL    HW114918   2.504   1.440  11.583
 4746SOL    HW214919   2.401   1.547  11.609
 4747SOL     OW14920   3.581   0.391  12.547
 4747SOL    HW114921   3.652   0.456  12.545
 4747SOL    HW214922   3.613   0.319  12.491
 4748SOL     OW14923   2.120   1.346  11.458
 4748SOL    HW114924   2.027   1.343  11.437
 4748SOL    HW214925   2.125   1.381  11.547
 4749SOL     OW14926   1.974   1.020  12.891
 4749SOL    HW114927   1.898   0.997  12.945
 4749SOL    HW214928   2.049   0.983  12.939
 4750SOL     OW14929   2.553   0.242  12.669
 4750SOL    HW114930   2.623   0.190  12.628
 4750SOL    HW214931   2.579   0.250  12.761
 4751SOL     OW14932   1.959   0.319  11.161
 4751SOL    HW114933   1.880   0.336  11.212
 4751SOL    HW214934   1.976   0.402  11.116
 4752SOL     OW14935   3.291   0.857  12.572
 4752SOL    HW114936   3.242   0.919  12.517
 4752SOL    HW214937   3.380   0.860  12.537
 4753SOL     OW14938   1.945   0.154  11.512
 4753SOL    HW114939   1.914   0.218  11.448
 4753SOL    HW214940   2.029   0.125  11.478
 4754SOL     OW14941   3.041   1.341  11.289
 4754SOL    HW114942   2.950   1.311  11.292
 4754SOL    HW214943   3.070   1.340  11.380
 4755SOL     OW14944   2.481   0.830  12.605
 4755SOL    HW114945   2.537   0.906  12.590
 4755SOL    HW214946   2.543   0.757  12.614
 4756SOL     OW14947   3.346   1.777  12.149
 4756SOL    HW114948   3.371   1.834  12.077
 4756SOL    HW214949   3.428   1.756  12.193
 4757SOL     OW14950   2.579   0.563  12.878
 4757SOL    HW114951   2.618   0.627  12.938
 4757SOL    HW214952   2.612   0.479  12.908
 4758SOL     OW14953   3.332   1.201  12.805
 4758SOL    HW114954   3.320   1.215  12.899
 4758SOL    HW214955   3.425   1.215  12.790
 4759SOL     OW14956   2.241   1.744  12.743
 4759SOL    HW114957   2.161   1.762  12.695
 4759SOL    HW214958   2.227   1.658  12.784
 4760SOL     OW14959   3.530   0.881  12.431
 4760SOL    HW114960   3.527   0.796  12.387
 4760SOL    HW214961   3.524   0.945  12.359
 4761SOL     OW14962   3.085   0.333  11.619
 4761SOL    HW114963   3.152   0.266  11.609
 4761SOL    HW214964   3.108   0.379  11.700
 4762SOL     OW14965   2.453   0.739  11.840
 4762SOL    HW114966   2.492   0.825  11.824
 4762SOL    HW214967   2.384   0.731  11.775
 4763SOL     OW14968   3.619   0.379  12.814
 4763SOL    HW114969   3.599   0.386  12.721
 4763SOL    HW214970   3.559   0.312  12.847
 4764SOL     OW14971   3.612   0.932  12.686
 4764SOL    HW114972   3.608   1.027  12.701
 4764SOL    HW214973   3.592   0.921  12.594
 4765SOL     OW14974   2.724   1.368  11.204
 4765SOL    HW114975   2.685   1.394  11.287
 4765SOL    HW214976   2.743   1.450  11.159
 4766SOL     OW14977   2.522   1.795  12.119
 4766SOL    HW114978   2.505   1.885  12.092
 4766SOL    HW214979   2.617   1.786  12.110
 4767SOL     OW14980   2.729   0.966  12.028
 4767SOL    HW114981   2.779   0.895  12.068
 4767SOL    HW214982   2.695   1.016  12.102
 4768SOL     OW14983   2.942   0.988  11.261
 4768SOL    HW114984   2.919   1.039  11.183
 4768SOL    HW214985   3.017   0.935  11.234
 4769SOL     OW14986   3.718   1.557  12.014
 4769SOL    HW114987   3.640   1.542  11.962
 4769SOL    HW214988   3.715   1.490  12.083
 4770SOL     OW14989   2.087   1.302  13.029
 4770SOL    HW114990   2.019   1.241  13.002
 4770SOL    HW214991   2.074   1.314  13.123
 4771SOL     OW14992   1.941   1.229  11.836
 4771SOL    HW114993   1.951   1.182  11.919
 4771SOL    HW214994   2.015   1.198  11.783
 4772SOL     OW14995   2.542   1.402  12.798
 4772SOL    HW114996   2.463   1.358  12.829
 4772SOL    HW214997   2.537   1.490  12.836
 4773SOL     OW14998   3.678   0.183  12.415
 4773SOL    HW114999   3.679   0.087  12.424
 4773SOL    HW215000   3.693   0.199  12.322
 4774SOL     OW15001   2.291   0.434  11.696
 4774SOL    HW115002   2.322   0.361  11.642
 4774SOL    HW215003   2.244   0.392  11.769
 4775SOL     OW15004   3.561   1.492  12.272
 4775SOL    HW115005   3.481   1.466  12.226
 4775SOL    HW215006   3.576   1.422  12.335
 4776SOL     OW15007   2.190   0.554  12.464
 4776SOL    HW115008   2.244   0.497  12.519
 4776SOL    HW215009   2.210   0.527  12.374
 4777SOL     OW15010   2.687   1.578  11.850
 4777SOL    HW115011   2.677   1.626  11.768
 4777SOL    HW215012   2.611   1.521  11.854
 4778SOL     OW15013   3.323   0.250  12.284
 4778SOL    HW115014   3.337   0.163  12.319
 4778SOL    HW215015   3.265   0.293  12.347
 4779SOL     OW15016   2.868   0.030  12.320
 4779SOL    HW115017   2.793   3.979  12.290
 4779SOL    HW215018   2.939   3.965  12.327
 4780SOL     OW15019   2.635   1.332  11.484
 4780SOL    HW115020   2.601   1.243  11.491
 4780SOL    HW215021   2.716   1.331  11.534
 4781SOL     OW15022   2.483   1.557  12.457
 4781SOL    HW115023   2.485   1.639  12.506
 4781SOL    HW215024   2.570   1.550  12.419
 4782SOL     OW15025   3.178   0.072  11.333
 4782SOL    HW115026   3.193   0.002  11.269
 4782SOL    HW215027   3.093   0.051  11.372
 4783SOL     OW15028   3.147   0.458  11.859
 4783SOL    HW115029   3.099   0.540  11.856
 4783SOL    HW215030   3.152   0.436  11.952
 4784SOL     OW15031   3.451   0.211  12.039
 4784SOL    HW115032   3.401   0.232  12.117
 4784SOL    HW215033   3.451   0.291  11.987
 4785SOL     OW15034   1.906   1.072  11.476
 4785SOL    HW115035   2.000   1.064  11.461
 4785SOL    HW215036   1.878   0.984  11.500
 4786SOL     OW15037   2.744   1.652  11.516
 4786SOL    HW115038   2.673   1.633  11.455
 4786SOL    HW215039   2.713   1.727  11.566
 4787SOL     OW15040   2.092   0.621  13.156
 4787SOL    HW115041   2.002   0.625  13.186
 4787SOL    HW215042   2.085   0.600  13.062
 4788SOL     OW15043   2.113   0.266   0.126
 4788SOL    HW115044   2.141   0.318   0.201
 4788SOL    HW215045   2.018   0.268   0.129
 4789SOL     OW15046   1.872   0.389  13.647
 4789SOL    HW115047   1.780   0.401  13.673
 4789SOL    HW215048   1.875   0.301  13.611
 4790SOL     OW15049   3.396   1.501  13.722
 4790SOL    HW115050   3.336   1.449  13.776
 4790SOL    HW215051   3.347   1.517  13.642
 4791SOL     OW15052   2.990   0.702  13.737
 4791SOL    HW115053   3.046   0.774  13.708
 4791SOL    HW215054   2.939   0.738  13.810
 4792SOL     OW15055   3.625   0.619  13.263
 4792SOL    HW115056   3.607   0.610  13.169
 4792SOL    HW215057   3.605   0.532  13.299
 4793SOL     OW15058   2.547   1.012  13.674
 4793SOL    HW115059   2.602   0.989  13.749
 4793SOL    HW215060   2.474   1.060  13.712
 4794SOL     OW15061   3.482   0.462  13.768
 4794SOL    HW115062   3.399   0.474  13.721
 4794SOL    HW215063   3.500   0.547  13.806
 4795SOL     OW15064   2.095   1.694  13.497
 4795SOL    HW115065   2.118   1.759  13.564
 4795SOL    HW215066   2.168   1.697  13.436
 4796SOL     OW15067   2.095   1.431  13.569
 4796SOL    HW115068   2.082   1.526  13.564
 4796SOL    HW215069   2.029   1.401  13.632
 4797SOL     OW15070   2.100   1.103   0.022
 4797SOL    HW115071   2.121   1.039   0.090
 4797SOL    HW215072   2.037   1.162   0.063
 4798SOL     OW15073   2.449   0.981  13.166
 4798SOL    HW115074   2.493   1.031  13.098
 4798SOL    HW215075   2.489   1.011  13.248
 4799SOL     OW15076   1.979   0.655  13.589
 4799SOL    HW115077   1.948   0.565  13.602
 4799SOL    HW215078   1.962   0.699  13.672
 4800SOL     OW15079   3.700   1.758  13.371
 4800SOL    HW115080   3.767   1.732  13.434
 4800SOL    HW215081   3.723   1.849  13.349
 4801SOL     OW15082   1.860   1.604  13.183
 4801SOL    HW115083   1.857   1.509  13.171
 4801SOL    HW215084   1.878   1.615  13.276
 4802SOL     OW15085   3.547   0.912  13.665
 4802SOL    HW115086   3.637   0.885  13.650
 4802SOL    HW215087   3.527   0.971  13.592
 4803SOL     OW15088   3.504   1.106  13.463
 4803SOL    HW115089   3.588   1.113  13.418
 4803SOL    HW215090   3.511   1.168  13.536
 4804SOL     OW15091   2.467   1.384  13.763
 4804SOL    HW115092   2.425   1.299  13.770
 4804SOL    HW215093   2.447   1.414  13.674
 4805SOL     OW15094   2.679   0.002  13.550
 4805SOL    HW115095   2.724   0.083  13.526
 4805SOL    HW215096   2.586   0.024  13.549
 4806SOL     OW15097   3.391   0.992  13.233
 4806SOL    HW115098   3.322   0.935  13.265
 4806SOL    HW215099   3.431   1.029  13.312
 4807SOL     OW15100   3.518   1.738  13.613
 4807SOL    HW115101   3.498   1.709  13.524
 4807SOL    HW215102   3.511   1.659  13.666
 4808SOL     OW15103   2.456   0.723  13.298
 4808SOL    HW115104   2.463   0.804  13.247
 4808SOL    HW215105   2.392   0.742  13.366
 4809SOL     OW15106   3.114   0.336   0.055
 4809SOL    HW115107   3.023   0.320   0.081
 4809SOL    HW215108   3.166   0.298   0.126
 4810SOL     OW15109   3.441   1.671  13.342
 4810SOL    HW115110   3.531   1.702  13.338
 4810SOL    HW215111   3.417   1.653  13.251
 4811SOL     OW15112   2.910   0.697  13.460
 4811SOL    HW115113   2.923   0.686  13.554
 4811SOL    HW215114   2.829   0.650  13.441
 4812SOL     OW15115   1.943   0.817  13.810
 4812SOL    HW115116   2.027   0.814  13.856
 4812SOL    HW215117   1.900   0.896  13.844
 4813SOL     OW15118   2.754   0.350  13.232
 4813SOL    HW115119   2.794   0.408  13.169
 4813SOL    HW215120   2.754   0.264  13.190
 4814SOL     OW15121   3.225   1.135  13.557
 4814SOL    HW115122   3.315   1.134  13.523
 4814SOL    HW215123   3.183   1.207  13.510
 4815SOL     OW15124   2.867   1.443  13.505
 4815SOL    HW115125   2.830   1.517  13.456
 4815SOL    HW215126   2.841   1.458  13.596
 4816SOL     OW15127   2.255   1.783  13.854
 4816SOL    HW115128   2.251   1.697  13.895
 4816SOL    HW215129   2.321   1.831   0.004
 4817SOL     OW15130   3.652   1.056  13.899
 4817SOL    HW115131   3.591   1.052  13.825
 4817SOL    HW215132   3.596   1.054   0.076
 4818SOL     OW15133   2.184   0.957  13.284
 4818SOL    HW115134   2.265   0.976  13.238
 4818SOL    HW215135   2.152   0.875  13.244
 4819SOL     OW15136   3.348   0.731  13.751
 4819SOL    HW115137   3.333   0.689  13.835
 4819SOL    HW215138   3.417   0.795  13.768
 4820SOL     OW15139   2.983   1.778  13.265
 4820SOL    HW115140   2.911   1.736  13.311
 4820SOL    HW215141   3.005   1.717  13.195
 4821SOL     OW15142   3.489   1.381  13.120
 4821SOL    HW115143   3.447   1.466  13.106
 4821SOL    HW215144   3.421   1.316  13.102
 4822SOL     OW15145   2.337   1.720  13.371
 4822SOL    HW115146   2.372   1.793  13.422
 4822SOL    HW215147   2.395   1.714  13.295
 4823SOL     OW15148   3.286   0.157  13.444
 4823SOL    HW115149   3.253   0.098  13.376
 4823SOL    HW215150   3.377   0.128  13.458
 4824SOL     OW15151   2.789   1.692   0.013
 4824SOL    HW115152   2.828   1.626   0.071
 4824SOL    HW215153   2.746   1.641  13.845
 4825SOL     OW15154   2.254   0.697  13.510
 4825SOL    HW115155   2.276   0.605  13.520
 4825SOL    HW215156   2.159   0.701  13.527
 4826SOL     OW15157   2.503   0.137  13.139
 4826SOL    HW115158   2.538   0.057  13.179
 4826SOL    HW215159   2.440   0.105  13.074
 4827SOL     OW15160   2.411   0.058  13.529
 4827SOL    HW115161   2.335   0.061  13.587
 4827SOL    HW215162   2.404   0.137  13.476
 4828SOL     OW15163   3.290   1.198  13.075
 4828SOL    HW115164   3.320   1.123  13.126
 4828SOL    HW215165   3.205   1.219  13.113
 4829SOL     OW15166   2.188   0.043  13.240
 4829SOL    HW115167   2.205   0.112  13.176
 4829SOL    HW215168   2.272   0.027  13.281
 4830SOL     OW15169   2.799   0.244  13.496
 4830SOL    HW115170   2.772   0.289  13.416
 4830SOL    HW215171   2.895   0.250  13.495
 4831SOL     OW15172   2.326   1.142  13.774
 4831SOL    HW115173   2.252   1.129  13.832
 4831SOL    HW215174   2.290   1.129  13.686
 4832SOL     OW15175   3.133   1.797  13.634
 4832SOL    HW115176   3.176   1.862  13.579
 4832SOL    HW215177   3.066   1.845  13.682
 4833SOL     OW15178   2.886   0.547  13.056
 4833SOL    HW115179   2.843   0.630  13.037
 4833SOL    HW215180   2.949   0.569  13.125
 4834SOL     OW15181   2.754   0.473  13.666
 4834SOL    HW115182   2.684   0.516  13.616
 4834SOL    HW215183   2.759   0.385  13.629
 4835SOL     OW15184   2.862   0.040  13.798
 4835SOL    HW115185   2.830   0.062  13.711
 4835SOL    HW215186   2.882   3.947  13.793
 4836SOL     OW15187   3.727   0.822  13.409
 4836SOL    HW115188   3.772   0.765  13.471
 4836SOL    HW215189   3.686   0.762  13.347
 4837SOL     OW15190   2.355   1.415  13.192
 4837SOL    HW115191   2.280   1.388  13.245
 4837SOL    HW215192   2.335   1.385  13.104
 4838SOL     OW15193   3.537   1.266  13.671
 4838SOL    HW115194   3.631   1.273  13.688
 4838SOL    HW215195   3.501   1.349  13.701
 4839SOL     OW15196   3.256   0.573  13.104
 4839SOL    HW115197   3.194   0.555  13.175
 4839SOL    HW215198   3.341   0.552  13.141
 4840SOL     OW15199   2.390   0.265  13.352
 4840SOL    HW115200   2.439   0.224  13.281
 4840SOL    HW215201   2.365   0.351  13.317
 4841SOL     OW15202   2.570   1.062  13.402
 4841SOL    HW115203   2.556   1.047  13.496
 4841SOL    HW215204   2.646   1.008  13.381
 4842SOL     OW15205   2.216   1.107  13.527
 4842SOL    HW115206   2.218   1.182  13.468
 4842SOL    HW215207   2.212   1.031  13.468
 4843SOL     OW15208   2.434   0.541  13.865
 4843SOL    HW115209   2.446   0.610  13.801
 4843SOL    HW215210   2.486   0.568   0.041
 4844SOL     OW15211   3.109   1.350  13.420
 4844SOL    HW115212   3.164   1.423  13.448
 4844SOL    HW215213   3.022   1.370  13.455
 4845SOL     OW15214   3.447   0.630  13.513
 4845SOL    HW115215   3.407   0.685  13.581
 4845SOL    HW215216   3.484   0.693  13.451
 4846SOL     OW15217   3.068   0.532  13.299
 4846SOL    HW115218   3.073   0.453  13.352
 4846SOL    HW215219   3.024   0.596  13.355
 4847SOL     OW15220   2.192   0.054  13.684
 4847SOL    HW115221   2.167   0.146  13.690
 4847SOL    HW215222   2.120   0.007  13.727
 4848SOL     OW15223   3.458   0.387  13.409
 4848SOL    HW115224   3.445   0.318  13.475
 4848SOL    HW215225   3.442   0.469  13.457
 4849SOL     OW15226   3.370   0.277  13.168
 4849SOL    HW115227   3.295   0.219  13.182
 4849SOL    HW215228   3.384   0.318  13.254
 4850SOL     OW15229   3.154   0.827  13.065
 4850SOL    HW115230   3.197   0.741  13.068
 4850SOL    HW215231   3.186   0.867  12.984
 4851SOL     OW15232   1.866   1.321  13.228
 4851SOL    HW115233   1.779   1.333  13.191
 4851SOL    HW215234   1.865   1.231  13.262
 4852SOL     OW15235   2.678   0.574  13.386
 4852SOL    HW115236   2.681   0.496  13.331
 4852SOL    HW215237   2.601   0.622  13.356
 4853SOL     OW15238   2.328   0.494  13.220
 4853SOL    HW115239   2.385   0.567  13.242
 4853SOL    HW215240   2.241   0.533  13.209
 4854SOL     OW15241   3.174   0.849  13.340
 4854SOL    HW115242   3.095   0.829  13.389
 4854SOL    HW215243   3.149   0.841  13.248
 4855SOL     OW15244   3.546   0.121  13.478
 4855SOL    HW115245   3.638   0.127  13.452
 4855SOL    HW215246   3.545   0.059  13.551
 4856SOL     OW15247   3.246   1.571  13.509
 4856SOL    HW115248   3.307   1.606  13.444
 4856SOL    HW215249   3.201   1.648  13.543
 4857SOL     OW15250   3.149   0.914  13.686
 4857SOL    HW115251   3.227   0.860  13.670
 4857SOL    HW215252   3.171   0.999  13.647
 4858SOL     OW15253   2.538   1.617  13.185
 4858SOL    HW115254   2.544   1.627  13.090
 4858SOL    HW215255   2.481   1.541  13.198
 4859SOL     OW15256   3.677   0.159   0.057
 4859SOL    HW115257   3.714   0.071   0.059
 4859SOL    HW215258   3.583   0.145   0.043
 4860SOL     OW15259   2.137   0.315  13.745
 4860SOL    HW115260   2.046   0.332  13.720
 4860SOL    HW215261   2.135   0.309  13.840
 4861SOL     OW15262   3.069   1.607  13.065
 4861SOL    HW115263   3.060   1.515  13.092
 4861SOL    HW215264   3.003   1.618  12.996
 4862SOL     OW15265   2.780   0.912  13.327
 4862SOL    HW115266   2.839   0.942  13.259
 4862SOL    HW215267   2.824   0.838  13.367
 4863SOL     OW15268   3.355   1.625  13.076
 4863SOL    HW115269   3.260   1.620  13.063
 4863SOL    HW215270   3.391   1.631  12.988
 4864SOL     OW15271   2.912   1.091  13.754
 4864SOL    HW115272   2.824   1.052  13.748
 4864SOL    HW215273   2.961   1.048  13.684
 4865SOL     OW15274   2.460   1.489  13.510
 4865SOL    HW115275   2.502   1.441  13.440
 4865SOL    HW215276   2.401   1.550  13.465
 4866SOL     OW15277   2.120   1.345  13.319
 4866SOL    HW115278   2.027   1.343  13.299
 4866SOL    HW215279   2.125   1.380  13.408
 4867SOL     OW15280   1.959   0.320  13.023
 4867SOL    HW115281   1.879   0.336  13.074
 4867SOL    HW215282   1.976   0.403  12.979
 4868SOL     OW15283   1.953   0.156  13.369
 4868SOL    HW115284   1.922   0.221  13.305
 4868SOL    HW215285   2.035   0.124  13.332
 4869SOL     OW15286   3.041   1.340  13.150
 4869SOL    HW115287   2.950   1.311  13.153
 4869SOL    HW215288   3.070   1.341  13.241
 4870SOL     OW15289   3.083   0.330  13.486
 4870SOL    HW115290   3.152   0.265  13.473
 4870SOL    HW215291   3.112   0.380  13.561
 4871SOL     OW15292   2.455   0.750  13.693
 4871SOL    HW115293   2.490   0.837  13.673
 4871SOL    HW215294   2.384   0.737  13.630
 4872SOL     OW15295   2.724   1.368  13.066
 4872SOL    HW115296   2.685   1.394  13.149
 4872SOL    HW215297   2.743   1.450  13.021
 4873SOL     OW15298   2.514   1.842   0.068
 4873SOL    HW115299   2.522   1.937   0.057
 4873SOL    HW215300   2.604   1.812   0.077
 4874SOL     OW15301   2.695   0.962  13.893
 4874SOL    HW115302   2.738   0.887   0.035
 4874SOL    HW215303   2.702   1.032   0.057
 4875SOL     OW15304   2.941   0.987  13.123
 4875SOL    HW115305   2.919   1.039  13.045
 4875SOL    HW215306   3.016   0.935  13.096
 4876SOL     OW15307   1.947   1.231  13.701
 4876SOL    HW115308   1.947   1.175  13.778
 4876SOL    HW215309   2.017   1.197  13.646
 4877SOL     OW15310   2.291   0.436  13.552
 4877SOL    HW115311   2.324   0.363  13.500
 4877SOL    HW215312   2.252   0.395  13.629
 4878SOL     OW15313   3.541   1.463   0.339
 4878SOL    HW115314   3.513   1.442   0.250
 4878SOL    HW215315   3.624   1.417   0.349
 4879SOL     OW15316   2.682   1.554  13.713
 4879SOL    HW115317   2.666   1.608  13.635
 4879SOL    HW215318   2.602   1.502  13.723
 4880SOL     OW15319   2.635   1.332  13.344
 4880SOL    HW115320   2.602   1.243  13.352
 4880SOL    HW215321   2.716   1.332  13.394
 4881SOL     OW15322   3.178   0.075  13.200
 4881SOL    HW115323   3.200   0.006  13.137
 4881SOL    HW215324   3.092   0.049  13.233
 4882SOL     OW15325   3.156   0.460  13.717
 4882SOL    HW115326   3.104   0.540  13.719
 4882SOL    HW215327   3.153   0.427  13.807
 4883SOL     OW15328   1.907   1.073  13.338
 4883SOL    HW115329   2.001   1.064  13.321
 4883SOL    HW215330   1.878   0.984  13.362
 4884SOL     OW15331   2.744   1.651  13.377
 4884SOL    HW115332   2.673   1.634  13.316
 4884SOL    HW215333   2.714   1.726  13.429
 4885SOL     OW15334   2.096   2.501   0.111
 4885SOL    HW115335   2.010   2.472   0.140
 4885SOL    HW215336   2.113   2.451   0.031
 4886SOL     OW15337   1.870   2.279   0.633
 4886SOL    HW115338   1.781   2.275   0.668
 4886SOL    HW215339   1.879   2.198   0.583
 4887SOL     OW15340   2.428   3.147   1.173
 4887SOL    HW115341   2.341   3.151   1.135
 4887SOL    HW215342   2.444   3.235   1.208
 4888SOL     OW15343   3.421   3.373   0.707
 4888SOL    HW115344   3.376   3.353   0.789
 4888SOL    HW215345   3.351   3.377   0.641
 4889SOL     OW15346   2.991   2.561   0.703
 4889SOL    HW115347   3.041   2.640   0.688
 4889SOL    HW215348   2.945   2.576   0.785
 4890SOL     OW15349   3.622   2.468   0.230
 4890SOL    HW115350   3.626   2.433   0.141
 4890SOL    HW215351   3.588   2.396   0.283
 4891SOL     OW15352   2.618   3.005   1.039
 4891SOL    HW115353   2.549   3.039   1.095
 4891SOL    HW215354   2.654   3.082   0.995
 4892SOL     OW15355   2.725   2.639   1.821
 4892SOL    HW115356   2.714   2.710   1.884
 4892SOL    HW215357   2.750   2.683   1.740
 4893SOL     OW15358   2.548   2.865   0.648
 4893SOL    HW115359   2.613   2.853   0.717
 4893SOL    HW215360   2.478   2.917   0.689
 4894SOL     OW15361   2.571   3.013   1.810
 4894SOL    HW115362   2.619   3.092   1.836
 4894SOL    HW215363   2.488   3.046   1.776
 4895SOL     OW15364   2.194   3.288   1.067
 4895SOL    HW115365   2.120   3.253   1.017
 4895SOL    HW215366   2.243   3.340   1.005
 4896SOL     OW15367   3.323   3.361   1.352
 4896SOL    HW115368   3.372   3.443   1.363
 4896SOL    HW215369   3.264   3.359   1.427
 4897SOL     OW15370   2.284   2.238   1.480
 4897SOL    HW115371   2.372   2.203   1.493
 4897SOL    HW215372   2.226   2.163   1.493
 4898SOL     OW15373   3.474   2.310   0.741
 4898SOL    HW115374   3.400   2.335   0.687
 4898SOL    HW215375   3.494   2.388   0.793
 4899SOL     OW15376   2.082   3.574   0.483
 4899SOL    HW115377   2.115   3.643   0.541
 4899SOL    HW215378   2.142   3.576   0.408
 4900SOL     OW15379   2.998   3.203   1.692
 4900SOL    HW115380   3.038   3.198   1.779
 4900SOL    HW215381   2.945   3.123   1.686
 4901SOL     OW15382   2.084   3.303   0.532
 4901SOL    HW115383   2.075   3.398   0.538
 4901SOL    HW215384   2.027   3.268   0.600
 4902SOL     OW15385   2.117   2.953   0.890
 4902SOL    HW115386   2.114   2.867   0.933
 4902SOL    HW215387   2.060   3.008   0.943
 4903SOL     OW15388   2.476   3.649   1.430
 4903SOL    HW115389   2.393   3.634   1.476
 4903SOL    HW215390   2.500   3.738   1.455
 4904SOL     OW15391   2.434   2.841   0.156
 4904SOL    HW115392   2.457   2.892   0.078
 4904SOL    HW215393   2.487   2.879   0.226
 4905SOL     OW15394   3.458   1.985   1.468
 4905SOL    HW115395   3.460   2.066   1.417
 4905SOL    HW215396   3.446   2.013   1.559
 4906SOL     OW15397   1.981   2.518   0.560
 4906SOL    HW115398   1.948   2.431   0.581
 4906SOL    HW215399   1.970   2.568   0.641
 4907SOL     OW15400   3.699   3.617   0.340
 4907SOL    HW115401   3.762   3.584   0.404
 4907SOL    HW215402   3.725   3.708   0.325
 4908SOL     OW15403   1.884   3.467   0.108
 4908SOL    HW115404   1.887   3.375   0.136
 4908SOL    HW215405   1.869   3.516   0.190
 4909SOL     OW15406   3.549   2.780   0.641
 4909SOL    HW115407   3.634   2.740   0.626
 4909SOL    HW215408   3.531   2.830   0.562
 4910SOL     OW15409   3.505   2.968   0.432
 4910SOL    HW115410   3.591   2.975   0.391
 4910SOL    HW215411   3.508   3.030   0.505
 4911SOL     OW15412   1.983   2.605   1.584
 4911SOL    HW115413   2.074   2.629   1.599
 4911SOL    HW215414   1.935   2.687   1.594
 4912SOL     OW15415   2.475   3.246   0.735
 4912SOL    HW115416   2.429   3.163   0.744
 4912SOL    HW215417   2.458   3.273   0.645
 4913SOL     OW15418   3.151   3.100   1.424
 4913SOL    HW115419   3.184   3.034   1.364
 4913SOL    HW215420   3.208   3.094   1.501
 4914SOL     OW15421   2.697   1.860   0.515
 4914SOL    HW115422   2.735   1.945   0.493
 4914SOL    HW215423   2.603   1.875   0.513
 4915SOL     OW15424   2.054   2.831   1.269
 4915SOL    HW115425   2.137   2.787   1.254
 4915SOL    HW215426   1.988   2.773   1.229
 4916SOL     OW15427   3.394   2.855   0.202
 4916SOL    HW115428   3.325   2.797   0.232
 4916SOL    HW215429   3.431   2.892   0.282
 4917SOL     OW15430   3.072   3.664   1.625
 4917SOL    HW115431   3.057   3.723   1.551
 4917SOL    HW215432   3.074   3.577   1.585
 4918SOL     OW15433   3.326   3.282   0.952
 4918SOL    HW115434   3.259   3.296   1.018
 4918SOL    HW215435   3.316   3.191   0.925
 4919SOL     OW15436   3.518   3.600   0.585
 4919SOL    HW115437   3.505   3.574   0.494
 4919SOL    HW215438   3.497   3.522   0.636
 4920SOL     OW15439   2.459   2.582   0.260
 4920SOL    HW115440   2.464   2.664   0.211
 4920SOL    HW215441   2.399   2.602   0.333
 4921SOL     OW15442   3.141   2.213   0.932
 4921SOL    HW115443   3.052   2.178   0.940
 4921SOL    HW215444   3.192   2.160   0.994
 4922SOL     OW15445   3.422   3.594   0.311
 4922SOL    HW115446   3.518   3.593   0.312
 4922SOL    HW215447   3.399   3.551   0.229
 4923SOL     OW15448   2.655   2.479   1.451
 4923SOL    HW115449   2.630   2.457   1.540
 4923SOL    HW215450   2.613   2.413   1.396
 4924SOL     OW15451   3.256   2.335   1.678
 4924SOL    HW115452   3.257   2.380   1.763
 4924SOL    HW215453   3.317   2.263   1.688
 4925SOL     OW15454   2.818   2.750   1.582
 4925SOL    HW115455   2.873   2.679   1.547
 4925SOL    HW215456   2.771   2.784   1.505
 4926SOL     OW15457   2.855   2.275   1.239
 4926SOL    HW115458   2.771   2.298   1.279
 4926SOL    HW215459   2.832   2.228   1.159
 4927SOL     OW15460   2.911   2.563   0.429
 4927SOL    HW115461   2.926   2.555   0.523
 4927SOL    HW215462   2.829   2.516   0.413
 4928SOL     OW15463   1.951   2.685   0.776
 4928SOL    HW115464   2.032   2.679   0.826
 4928SOL    HW215465   1.907   2.762   0.811
 4929SOL     OW15466   1.987   3.697   1.575
 4929SOL    HW115467   1.986   3.681   1.669
 4929SOL    HW215468   1.896   3.710   1.551
 4930SOL     OW15469   2.733   2.219   0.213
 4930SOL    HW115470   2.773   2.278   0.148
 4930SOL    HW215471   2.743   2.132   0.175
 4931SOL     OW15472   3.574   2.439   1.828
 4931SOL    HW115473   3.535   2.514   1.782
 4931SOL    HW215474   3.595   2.376   1.758
 4932SOL     OW15475   3.237   3.004   0.543
 4932SOL    HW115476   3.315   2.990   0.490
 4932SOL    HW215477   3.185   3.067   0.493
 4933SOL     OW15478   2.408   2.052   0.893
 4933SOL    HW115479   2.411   2.075   0.986
 4933SOL    HW215480   2.427   2.134   0.848
 4934SOL     OW15481   2.870   3.306   0.475
 4934SOL    HW115482   2.832   3.379   0.426
 4934SOL    HW215483   2.853   3.328   0.567
 4935SOL     OW15484   2.213   3.670   0.843
 4935SOL    HW115485   2.263   3.590   0.860
 4935SOL    HW215486   2.274   3.741   0.861
 4936SOL     OW15487   3.665   2.922   0.867
 4936SOL    HW115488   3.609   2.903   0.792
 4936SOL    HW215489   3.605   2.927   0.941
 4937SOL     OW15490   3.090   3.399   1.512
 4937SOL    HW115491   3.075   3.327   1.572
 4937SOL    HW215492   3.026   3.385   1.442
 4938SOL     OW15493   2.177   2.803   0.229
 4938SOL    HW115494   2.269   2.815   0.203
 4938SOL    HW215495   2.163   2.708   0.223
 4939SOL     OW15496   3.338   2.602   0.728
 4939SOL    HW115497   3.329   2.558   0.813
 4939SOL    HW215498   3.415   2.658   0.738
 4940SOL     OW15499   2.327   3.126   1.737
 4940SOL    HW115500   2.300   3.131   1.646
 4940SOL    HW215501   2.246   3.124   1.787
 4941SOL     OW15502   2.986   3.640   0.234
 4941SOL    HW115503   2.923   3.594   0.289
 4941SOL    HW215504   3.011   3.576   0.168
 4942SOL     OW15505   3.494   3.235   0.082
 4942SOL    HW115506   3.456   3.318   0.055
 4942SOL    HW215507   3.426   3.170   0.063
 4943SOL     OW15508   2.339   3.594   0.322
 4943SOL    HW115509   2.369   3.658   0.386
 4943SOL    HW215510   2.417   3.574   0.270
 4944SOL     OW15511   3.265   1.972   0.433
 4944SOL    HW115512   3.257   1.941   0.343
 4944SOL    HW215513   3.359   1.969   0.452
 4945SOL     OW15514   2.119   3.655   1.228
 4945SOL    HW115515   2.169   3.588   1.276
 4945SOL    HW215516   2.106   3.618   1.141
 4946SOL     OW15517   2.800   3.561   0.901
 4946SOL    HW115518   2.877   3.508   0.921
 4946SOL    HW215519   2.754   3.512   0.833
 4947SOL     OW15520   2.252   2.557   0.474
 4947SOL    HW115521   2.275   2.465   0.484
 4947SOL    HW215522   2.159   2.562   0.497
 4948SOL     OW15523   3.399   2.088   1.726
 4948SOL    HW115524   3.408   2.109   1.819
 4948SOL    HW215525   3.331   2.020   1.722
 4949SOL     OW15526   2.628   2.138   1.753
 4949SOL    HW115527   2.703   2.079   1.756
 4949SOL    HW215528   2.580   2.121   1.834
 4950SOL     OW15529   2.738   3.382   1.194
 4950SOL    HW115530   2.723   3.347   1.106
 4950SOL    HW215531   2.808   3.328   1.230
 4951SOL     OW15532   3.203   2.451   1.432
 4951SOL    HW115533   3.234   2.419   1.517
 4951SOL    HW215534   3.239   2.539   1.425
 4952SOL     OW15535   2.676   3.258   0.938
 4952SOL    HW115536   2.760   3.247   0.893
 4952SOL    HW215537   2.611   3.258   0.867
 4953SOL     OW15538   2.788   2.370   0.903
 4953SOL    HW115539   2.765   2.362   0.811
 4953SOL    HW215540   2.823   2.284   0.927
 4954SOL     OW15541   2.443   1.923   0.484
 4954SOL    HW115542   2.370   1.916   0.546
 4954SOL    HW215543   2.425   2.003   0.436
 4955SOL     OW15544   3.292   3.064   0.046
 4955SOL    HW115545   3.313   2.984   0.092
 4955SOL    HW215546   3.199   3.079   0.064
 4956SOL     OW15547   2.803   2.109   0.462
 4956SOL    HW115548   2.772   2.149   0.381
 4956SOL    HW215549   2.897   2.125   0.462
 4957SOL     OW15550   2.942   2.542   1.460
 4957SOL    HW115551   2.874   2.476   1.466
 4957SOL    HW215552   3.024   2.492   1.453
 4958SOL     OW15553   3.085   3.432   0.794
 4958SOL    HW115554   3.103   3.499   0.728
 4958SOL    HW215555   3.154   3.443   0.859
 4959SOL     OW15556   2.330   3.010   0.734
 4959SOL    HW115557   2.260   2.992   0.797
 4959SOL    HW215558   2.289   2.996   0.649
 4960SOL     OW15559   3.132   3.659   0.605
 4960SOL    HW115560   3.176   3.723   0.549
 4960SOL    HW215561   3.062   3.709   0.648
 4961SOL     OW15562   2.861   2.409   0.060
 4961SOL    HW115563   2.862   2.407  13.864
 4961SOL    HW215564   2.953   2.410   0.085
 4962SOL     OW15565   1.937   2.423   1.386
 4962SOL    HW115566   2.030   2.419   1.365
 4962SOL    HW215567   1.931   2.489   1.455
 4963SOL     OW15568   2.418   2.084   1.167
 4963SOL    HW115569   2.465   2.005   1.195
 4963SOL    HW215570   2.334   2.079   1.212
 4964SOL     OW15571   2.727   2.320   0.639
 4964SOL    HW115572   2.687   2.376   0.573
 4964SOL    HW215573   2.751   2.240   0.592
 4965SOL     OW15574   2.874   1.915   0.753
 4965SOL    HW115575   2.818   1.905   0.675
 4965SOL    HW215576   2.855   1.839   0.807
 4966SOL     OW15577   3.298   3.025   0.857
 4966SOL    HW115578   3.230   2.958   0.856
 4966SOL    HW215579   3.322   3.038   0.765
 4967SOL     OW15580   3.328   2.467   0.979
 4967SOL    HW115581   3.280   2.384   0.982
 4967SOL    HW215582   3.389   2.462   1.053
 4968SOL     OW15583   3.722   2.679   0.374
 4968SOL    HW115584   3.766   2.624   0.439
 4968SOL    HW215585   3.683   2.618   0.312
 4969SOL     OW15586   2.351   3.265   0.159
 4969SOL    HW115587   2.275   3.237   0.209
 4969SOL    HW215588   2.329   3.244   0.068
 4970SOL     OW15589   3.528   3.127   0.647
 4970SOL    HW115590   3.623   3.131   0.657
 4970SOL    HW215591   3.497   3.216   0.665
 4971SOL     OW15592   3.282   2.448   0.087
 4971SOL    HW115593   3.213   2.437   0.152
 4971SOL    HW215594   3.323   2.362   0.082
 4972SOL     OW15595   2.384   2.125   0.320
 4972SOL    HW115596   2.433   2.085   0.248
 4972SOL    HW215597   2.357   2.211   0.286
 4973SOL     OW15598   3.614   3.097   1.573
 4973SOL    HW115599   3.701   3.061   1.556
 4973SOL    HW215600   3.631   3.186   1.604
 4974SOL     OW15601   2.921   3.214   1.333
 4974SOL    HW115602   2.847   3.184   1.385
 4974SOL    HW215603   2.997   3.174   1.375
 4975SOL     OW15604   3.468   3.489   1.654
 4975SOL    HW115605   3.461   3.522   1.564
 4975SOL    HW215606   3.550   3.441   1.655
 4976SOL     OW15607   2.988   3.064   1.106
 4976SOL    HW115608   2.931   3.103   1.172
 4976SOL    HW215609   2.955   3.096   1.022
 4977SOL     OW15610   3.494   2.961   1.077
 4977SOL    HW115611   3.487   3.022   1.150
 4977SOL    HW215612   3.414   2.976   1.026
 4978SOL     OW15613   2.779   1.961   1.397
 4978SOL    HW115614   2.803   1.940   1.306
 4978SOL    HW215615   2.858   1.999   1.434
 4979SOL     OW15616   2.846   2.976   1.722
 4979SOL    HW115617   2.754   2.992   1.743
 4979SOL    HW215618   2.845   2.899   1.666
 4980SOL     OW15619   2.575   2.921   0.376
 4980SOL    HW115620   2.561   2.905   0.469
 4980SOL    HW215621   2.650   2.865   0.354
 4981SOL     OW15622   2.279   2.674   1.251
 4981SOL    HW115623   2.347   2.687   1.316
 4981SOL    HW215624   2.244   2.587   1.269
 4982SOL     OW15625   3.128   2.240   1.275
 4982SOL    HW115626   3.161   2.317   1.321
 4982SOL    HW215627   3.039   2.262   1.250
 4983SOL     OW15628   1.931   3.434   1.350
 4983SOL    HW115629   1.901   3.509   1.299
 4983SOL    HW215630   2.027   3.440   1.347
 4984SOL     OW15631   2.211   2.973   0.489
 4984SOL    HW115632   2.213   3.045   0.427
 4984SOL    HW215633   2.218   2.894   0.435
 4985SOL     OW15634   2.410   2.400   0.863
 4985SOL    HW115635   2.426   2.456   0.787
 4985SOL    HW215636   2.477   2.427   0.927
 4986SOL     OW15637   3.110   3.208   0.396
 4986SOL    HW115638   3.166   3.281   0.422
 4986SOL    HW215639   3.023   3.232   0.428
 4987SOL     OW15640   3.141   3.319   1.147
 4987SOL    HW115641   3.197   3.322   1.224
 4987SOL    HW215642   3.086   3.242   1.160
 4988SOL     OW15643   3.445   2.487   0.481
 4988SOL    HW115644   3.397   2.540   0.545
 4988SOL    HW215645   3.479   2.551   0.418
 4989SOL     OW15646   2.209   3.388   1.316
 4989SOL    HW115647   2.196   3.345   1.231
 4989SOL    HW215648   2.303   3.400   1.323
 4990SOL     OW15649   2.275   2.608   1.602
 4990SOL    HW115650   2.338   2.652   1.544
 4990SOL    HW215651   2.319   2.526   1.626
 4991SOL     OW15652   3.462   2.639   1.679
 4991SOL    HW115653   3.376   2.681   1.673
 4991SOL    HW215654   3.514   2.682   1.612
 4992SOL     OW15655   2.857   1.983   1.754
 4992SOL    HW115656   2.913   2.056   1.726
 4992SOL    HW215657   2.906   1.904   1.730
 4993SOL     OW15658   2.374   1.900   1.745
 4993SOL    HW115659   2.328   1.844   1.682
 4993SOL    HW215660   2.312   1.969   1.765
 4994SOL     OW15661   2.444   2.734   1.031
 4994SOL    HW115662   2.476   2.825   1.028
 4994SOL    HW215663   2.389   2.731   1.109
 4995SOL     OW15664   3.221   2.721   1.031
 4995SOL    HW115665   3.139   2.713   0.982
 4995SOL    HW215666   3.261   2.634   1.027
 4996SOL     OW15667   3.080   2.404   0.274
 4996SOL    HW115668   3.084   2.322   0.325
 4996SOL    HW215669   3.025   2.462   0.327
 4997SOL     OW15670   1.908   3.172   1.277
 4997SOL    HW115671   1.941   3.119   1.349
 4997SOL    HW215672   1.915   3.262   1.308
 4998SOL     OW15673   2.585   2.491   1.057
 4998SOL    HW115674   2.661   2.475   1.001
 4998SOL    HW215675   2.559   2.581   1.038
 4999SOL     OW15676   3.594   2.821   1.856
 4999SOL    HW115677   3.550   2.764   1.793
 4999SOL    HW215678   3.531   2.832   1.927
 5000SOL     OW15679   2.223   1.907   0.620
 5000SOL    HW115680   2.146   1.959   0.597
 5000SOL    HW215681   2.202   1.870   0.706
 5001SOL     OW15682   3.479   2.236   0.373
 5001SOL    HW115683   3.503   2.171   0.438
 5001SOL    HW215684   3.454   2.313   0.424
 5002SOL     OW15685   2.888   2.621   0.961
 5002SOL    HW115686   2.887   2.639   1.055
 5002SOL    HW215687   2.863   2.529   0.954
 5003SOL     OW15688   2.846   3.429   1.717
 5003SOL    HW115689   2.829   3.472   1.633
 5003SOL    HW215690   2.888   3.346   1.693
 5004SOL     OW15691   3.708   3.367   1.601
 5004SOL    HW115692   3.730   3.394   1.511
 5004SOL    HW215693   3.789   3.382   1.650
 5005SOL     OW15694   2.216   2.780   1.808
 5005SOL    HW115695   2.298   2.797   1.853
 5005SOL    HW215696   2.239   2.717   1.739
 5006SOL     OW15697   3.411   2.125   0.135
 5006SOL    HW115698   3.354   2.052   0.157
 5006SOL    HW215699   3.435   2.164   0.220
 5007SOL     OW15700   3.156   2.692   0.055
 5007SOL    HW115701   3.202   2.608   0.060
 5007SOL    HW215702   3.174   2.724  13.867
 5008SOL     OW15703   2.927   3.197   0.853
 5008SOL    HW115704   2.930   3.124   0.790
 5008SOL    HW215705   2.990   3.261   0.818
 5009SOL     OW15706   2.172   2.672   0.946
 5009SOL    HW115707   2.265   2.695   0.939
 5009SOL    HW215708   2.172   2.586   0.988
 5010SOL     OW15709   2.189   2.359   1.012
 5010SOL    HW115710   2.150   2.286   0.966
 5010SOL    HW215711   2.268   2.380   0.962
 5011SOL     OW15712   2.996   2.239   1.680
 5011SOL    HW115713   2.950   2.294   1.744
 5011SOL    HW215714   3.084   2.277   1.677
 5012SOL     OW15715   3.022   2.066   1.469
 5012SOL    HW115716   3.012   2.128   1.541
 5012SOL    HW215717   3.061   2.117   1.399
 5013SOL     OW15718   1.879   3.176   0.182
 5013SOL    HW115719   1.798   3.186   0.131
 5013SOL    HW215720   1.873   3.087   0.218
 5014SOL     OW15721   1.956   3.647   0.937
 5014SOL    HW115722   1.926   3.567   0.893
 5014SOL    HW215723   2.043   3.663   0.899
 5015SOL     OW15724   2.360   3.436   0.906
 5015SOL    HW115725   2.427   3.499   0.930
 5015SOL    HW215726   2.405   3.372   0.851
 5016SOL     OW15727   2.847   2.654   1.227
 5016SOL    HW115728   2.903   2.631   1.301
 5016SOL    HW215729   2.761   2.620   1.251
 5017SOL     OW15730   1.899   2.399   1.117
 5017SOL    HW115731   1.984   2.396   1.072
 5017SOL    HW215732   1.921   2.414   1.209
 5018SOL     OW15733   2.058   2.383   1.723
 5018SOL    HW115734   2.118   2.352   1.654
 5018SOL    HW215735   2.008   2.453   1.681
 5019SOL     OW15736   3.239   2.802   1.659
 5019SOL    HW115737   3.260   2.896   1.658
 5019SOL    HW215738   3.236   2.777   1.567
 5020SOL     OW15739   2.676   2.436   0.368
 5020SOL    HW115740   2.689   2.362   0.309
 5020SOL    HW215741   2.604   2.486   0.329
 5021SOL     OW15742   3.504   2.464   1.188
 5021SOL    HW115743   3.492   2.403   1.261
 5021SOL    HW215744   3.589   2.441   1.151
 5022SOL     OW15745   2.108   3.413   1.729
 5022SOL    HW115746   2.084   3.478   1.795
 5022SOL    HW215747   2.107   3.330   1.775
 5023SOL     OW15748   2.555   2.314   1.262
 5023SOL    HW115749   2.508   2.238   1.227
 5023SOL    HW215750   2.556   2.377   1.189
 5024SOL     OW15751   2.793   3.536   1.467
 5024SOL    HW115752   2.765   3.502   1.382
 5024SOL    HW215753   2.786   3.631   1.458
 5025SOL     OW15754   2.305   2.359   0.230
 5025SOL    HW115755   2.371   2.429   0.235
 5025SOL    HW215756   2.228   2.402   0.191
 5026SOL     OW15757   2.009   3.002   1.472
 5026SOL    HW115758   2.012   2.949   1.552
 5026SOL    HW215759   2.027   2.940   1.401
 5027SOL     OW15760   3.188   2.910   1.224
 5027SOL    HW115761   3.213   2.847   1.156
 5027SOL    HW215762   3.117   2.961   1.185
 5028SOL     OW15763   3.171   2.720   0.324
 5028SOL    HW115764   3.096   2.686   0.371
 5028SOL    HW215765   3.151   2.706   0.232
 5029SOL     OW15766   3.634   3.607   1.150
 5029SOL    HW115767   3.692   3.633   1.079
 5029SOL    HW215768   3.609   3.517   1.130
 5030SOL     OW15769   3.105   3.596   1.114
 5030SOL    HW115770   3.187   3.615   1.069
 5030SOL    HW215771   3.108   3.502   1.133
 5031SOL     OW15772   1.946   3.127   1.013
 5031SOL    HW115773   1.933   3.140   1.107
 5031SOL    HW215774   1.871   3.075   0.985
 5032SOL     OW15775   2.540   3.525   1.726
 5032SOL    HW115776   2.486   3.604   1.730
 5032SOL    HW215777   2.600   3.540   1.653
 5033SOL     OW15778   2.780   1.966   0.134
 5033SOL    HW115779   2.817   1.957   0.046
 5033SOL    HW215780   2.830   1.904   0.187
 5034SOL     OW15781   3.572   2.006   0.515
 5034SOL    HW115782   3.650   1.998   0.461
 5034SOL    HW215783   3.562   1.919   0.555
 5035SOL     OW15784   3.251   3.433   0.482
 5035SOL    HW115785   3.313   3.467   0.418
 5035SOL    HW215786   3.205   3.511   0.514
 5036SOL     OW15787   1.994   3.655   1.840
 5036SOL    HW115788   1.942   3.591   1.889
 5036SOL    HW215789   2.044   3.701   1.907
 5037SOL     OW15790   3.138   2.787   0.671
 5037SOL    HW115791   3.212   2.726   0.677
 5037SOL    HW215792   3.172   2.859   0.619
 5038SOL     OW15793   2.678   3.134   1.431
 5038SOL    HW115794   2.651   3.173   1.514
 5038SOL    HW215795   2.608   3.157   1.370
 5039SOL     OW15796   2.547   3.446   0.178
 5039SOL    HW115797   2.525   3.493   0.097
 5039SOL    HW215798   2.489   3.370   0.178
 5040SOL     OW15799   3.487   3.588   1.390
 5040SOL    HW115800   3.540   3.593   1.311
 5040SOL    HW215801   3.476   3.679   1.418
 5041SOL     OW15802   3.699   2.042   0.968
 5041SOL    HW115803   3.730   1.956   0.941
 5041SOL    HW215804   3.613   2.051   0.928
 5042SOL     OW15805   3.080   3.463   0.031
 5042SOL    HW115806   3.070   3.373   0.062
 5042SOL    HW215807   3.038   3.465  13.845
 5043SOL     OW15808   2.686   2.868   1.371
 5043SOL    HW115809   2.730   2.865   1.286
 5043SOL    HW215810   2.686   2.960   1.395
 5044SOL     OW15811   2.782   2.772   0.287
 5044SOL    HW115812   2.852   2.810   0.234
 5044SOL    HW215813   2.824   2.701   0.335
 5045SOL     OW15814   3.351   3.497   0.066
 5045SOL    HW115815   3.257   3.485   0.050
 5045SOL    HW215816   3.389   3.502  13.879
 5046SOL     OW15817   2.232   3.163   1.491
 5046SOL    HW115818   2.218   3.241   1.437
 5046SOL    HW215819   2.154   3.109   1.476
 5047SOL     OW15820   3.466   3.142   1.279
 5047SOL    HW115821   3.534   3.137   1.347
 5047SOL    HW215822   3.409   3.214   1.308
 5048SOL     OW15823   2.912   2.968   0.705
 5048SOL    HW115824   2.842   2.916   0.745
 5048SOL    HW215825   2.975   2.903   0.674
 5049SOL     OW15826   2.881   2.102   0.966
 5049SOL    HW115827   2.877   2.054   0.883
 5049SOL    HW215828   2.878   2.034   1.033
 5050SOL     OW15829   2.465   3.352   0.481
 5050SOL    HW115830   2.507   3.300   0.413
 5050SOL    HW215831   2.399   3.404   0.435
 5051SOL     OW15832   3.583   2.253   1.379
 5051SOL    HW115833   3.655   2.316   1.375
 5051SOL    HW215834   3.612   2.180   1.323
 5052SOL     OW15835   2.129   3.191   0.295
 5052SOL    HW115836   2.043   3.200   0.252
 5052SOL    HW215837   2.119   3.236   0.378
 5053SOL     OW15838   1.974   2.882   1.718
 5053SOL    HW115839   1.897   2.859   1.772
 5053SOL    HW215840   2.048   2.846   1.767
 5054SOL     OW15841   2.535   2.060   1.499
 5054SOL    HW115842   2.618   2.039   1.456
 5054SOL    HW215843   2.559   2.088   1.587
 5055SOL     OW15844   1.878   2.287   0.051
 5055SOL    HW115845   1.865   2.192   0.057
 5055SOL    HW215846   1.931   2.299  13.872
 5056SOL     OW15847   3.292   2.721   1.401
 5056SOL    HW115848   3.243   2.781   1.346
 5056SOL    HW215849   3.381   2.723   1.366
 5057SOL     OW15850   3.047   3.211   0.122
 5057SOL    HW115851   2.954   3.192   0.112
 5057SOL    HW215852   3.064   3.198   0.216
 5058SOL     OW15853   2.481   2.692   1.432
 5058SOL    HW115854   2.535   2.770   1.418
 5058SOL    HW215855   2.543   2.620   1.441
 5059SOL     OW15856   3.347   3.641   0.979
 5059SOL    HW115857   3.373   3.690   0.901
 5059SOL    HW215858   3.430   3.616   1.020
 5060SOL     OW15859   2.580   2.425   1.703
 5060SOL    HW115860   2.616   2.489   1.764
 5060SOL    HW215861   2.609   2.341   1.736
 5061SOL     OW15862   3.332   3.064   1.633
 5061SOL    HW115863   3.321   3.077   1.727
 5061SOL    HW215864   3.426   3.077   1.617
 5062SOL     OW15865   2.241   3.601   1.562
 5062SOL    HW115866   2.155   3.640   1.548
 5062SOL    HW215867   2.223   3.517   1.604
 5063SOL     OW15868   3.530   2.743   1.258
 5063SOL    HW115869   3.526   2.658   1.215
 5063SOL    HW215870   3.524   2.807   1.187
 5064SOL     OW15871   3.081   2.182   0.455
 5064SOL    HW115872   3.145   2.111   0.448
 5064SOL    HW215873   3.108   2.231   0.533
 5065SOL     OW15874   2.450   2.600   0.669
 5065SOL    HW115875   2.491   2.685   0.655
 5065SOL    HW215876   2.382   2.594   0.602
 5066SOL     OW15877   3.625   2.225   1.648
 5066SOL    HW115878   3.607   2.237   1.555
 5066SOL    HW215879   3.556   2.167   1.679
 5067SOL     OW15880   3.613   2.793   1.514
 5067SOL    HW115881   3.609   2.887   1.529
 5067SOL    HW215882   3.592   2.782   1.421
 5068SOL     OW15883   2.766   3.257   0.057
 5068SOL    HW115884   2.694   3.246   0.118
 5068SOL    HW215885   2.724   3.277  13.873
 5069SOL     OW15886   2.521   3.654   0.945
 5069SOL    HW115887   2.499   3.744   0.921
 5069SOL    HW215888   2.617   3.651   0.938
 5070SOL     OW15889   2.728   2.827   0.855
 5070SOL    HW115890   2.779   2.757   0.896
 5070SOL    HW215891   2.695   2.879   0.929
 5071SOL     OW15892   2.959   2.867   0.106
 5071SOL    HW115893   2.949   2.915   0.024
 5071SOL    HW215894   3.035   2.810   0.091
 5072SOL     OW15895   3.718   3.417   0.841
 5072SOL    HW115896   3.639   3.403   0.790
 5072SOL    HW215897   3.713   3.352   0.911
 5073SOL     OW15898   2.087   3.166   1.856
 5073SOL    HW115899   2.019   3.105   1.827
 5073SOL    HW215900   2.070   3.178   1.949
 5074SOL     OW15901   1.945   3.095   0.664
 5074SOL    HW115902   1.950   3.046   0.746
 5074SOL    HW215903   2.017   3.060   0.612
 5075SOL     OW15904   2.543   3.264   1.627
 5075SOL    HW115905   2.463   3.221   1.658
 5075SOL    HW215906   2.538   3.352   1.664
 5076SOL     OW15907   3.677   2.043   1.240
 5076SOL    HW115908   3.671   1.948   1.246
 5076SOL    HW215909   3.689   2.061   1.146
 5077SOL     OW15910   2.290   2.293   0.532
 5077SOL    HW115911   2.322   2.235   0.463
 5077SOL    HW215912   2.251   2.234   0.597
 5078SOL     OW15913   3.561   3.353   1.099
 5078SOL    HW115914   3.481   3.327   1.054
 5078SOL    HW215915   3.577   3.284   1.163
 5079SOL     OW15916   2.191   2.415   1.289
 5079SOL    HW115917   2.238   2.357   1.348
 5079SOL    HW215918   2.211   2.383   1.201
 5080SOL     OW15919   2.688   3.440   0.678
 5080SOL    HW115920   2.679   3.487   0.595
 5080SOL    HW215921   2.611   3.384   0.682
 5081SOL     OW15922   3.294   2.087   1.118
 5081SOL    HW115923   3.320   2.007   1.163
 5081SOL    HW215924   3.242   2.136   1.182
 5082SOL     OW15925   2.870   1.881   1.144
 5082SOL    HW115926   2.817   1.812   1.104
 5082SOL    HW215927   2.958   1.844   1.146
 5083SOL     OW15928   2.631   3.184   0.318
 5083SOL    HW115929   2.602   3.095   0.334
 5083SOL    HW215930   2.717   3.190   0.360
 5084SOL     OW15931   2.482   3.418   1.284
 5084SOL    HW115932   2.484   3.499   1.335
 5084SOL    HW215933   2.569   3.411   1.246
 5085SOL     OW15934   3.210   1.927   0.163
 5085SOL    HW115935   3.242   1.869   0.094
 5085SOL    HW215936   3.128   1.887   0.192
 5086SOL     OW15937   3.157   2.322   0.681
 5086SOL    HW115938   3.105   2.402   0.690
 5086SOL    HW215939   3.155   2.282   0.768
 5087SOL     OW15940   3.446   2.065   0.876
 5087SOL    HW115941   3.385   2.085   0.947
 5087SOL    HW215942   3.447   2.144   0.822
 5088SOL     OW15943   1.902   2.932   0.308
 5088SOL    HW115944   1.997   2.928   0.304
 5088SOL    HW215945   1.875   2.843   0.329
 5089SOL     OW15946   2.753   3.516   0.347
 5089SOL    HW115947   2.682   3.486   0.290
 5089SOL    HW215948   2.717   3.592   0.392
 5090SOL     OW15949   2.094   2.492   1.982
 5090SOL    HW115950   2.007   2.471   2.017
 5090SOL    HW215951   2.092   2.460   1.892
 5091SOL     OW15952   1.868   2.282   2.494
 5091SOL    HW115953   1.779   2.278   2.529
 5091SOL    HW215954   1.878   2.202   2.442
 5092SOL     OW15955   2.429   3.147   3.035
 5092SOL    HW115956   2.341   3.151   2.997
 5092SOL    HW215957   2.444   3.235   3.070
 5093SOL     OW15958   3.421   3.374   2.569
 5093SOL    HW115959   3.378   3.353   2.652
 5093SOL    HW215960   3.349   3.378   2.505
 5094SOL     OW15961   2.991   2.561   2.564
 5094SOL    HW115962   3.041   2.641   2.549
 5094SOL    HW215963   2.945   2.576   2.647
 5095SOL     OW15964   3.627   2.470   2.093
 5095SOL    HW115965   3.608   2.461   1.999
 5095SOL    HW215966   3.592   2.390   2.132
 5096SOL     OW15967   2.619   3.005   2.901
 5096SOL    HW115968   2.549   3.039   2.958
 5096SOL    HW215969   2.654   3.082   2.857
 5097SOL     OW15970   2.725   2.639   3.683
 5097SOL    HW115971   2.714   2.710   3.746
 5097SOL    HW215972   2.750   2.683   3.602
 5098SOL     OW15973   2.548   2.866   2.510
 5098SOL    HW115974   2.613   2.854   2.580
 5098SOL    HW215975   2.478   2.917   2.550
 5099SOL     OW15976   2.571   3.013   3.672
 5099SOL    HW115977   2.619   3.092   3.698
 5099SOL    HW215978   2.488   3.046   3.638
 5100SOL     OW15979   2.193   3.288   2.930
 5100SOL    HW115980   2.120   3.253   2.879
 5100SOL    HW215981   2.243   3.340   2.866
 5101SOL     OW15982   3.323   3.361   3.214
 5101SOL    HW115983   3.372   3.443   3.225
 5101SOL    HW215984   3.264   3.359   3.289
 5102SOL     OW15985   2.285   2.239   3.342
 5102SOL    HW115986   2.373   2.204   3.355
 5102SOL    HW215987   2.227   2.163   3.353
 5103SOL     OW15988   3.474   2.311   2.603
 5103SOL    HW115989   3.400   2.336   2.549
 5103SOL    HW215990   3.493   2.389   2.655
 5104SOL     OW15991   2.082   3.579   2.341
 5104SOL    HW115992   2.118   3.639   2.406
 5104SOL    HW215993   2.151   3.573   2.274
 5105SOL     OW15994   2.998   3.203   3.554
 5105SOL    HW115995   3.038   3.198   3.641
 5105SOL    HW215996   2.945   3.124   3.548
 5106SOL     OW15997   2.090   3.303   2.396
 5106SOL    HW115998   2.073   3.397   2.404
 5106SOL    HW215999   2.031   3.263   2.459
 5107SOL     OW16000   2.118   2.953   2.753
 5107SOL    HW116001   2.114   2.867   2.795
 5107SOL    HW216002   2.060   3.008   2.805
 5108SOL     OW16003   2.476   3.649   3.292
 5108SOL    HW116004   2.393   3.634   3.338
 5108SOL    HW216005   2.500   3.738   3.317
 5109SOL     OW16006   2.450   2.842   1.995
 5109SOL    HW116007   2.494   2.893   1.926
 5109SOL    HW216008   2.489   2.873   2.076
 5110SOL     OW16009   3.458   1.985   3.330
 5110SOL    HW116010   3.460   2.066   3.279
 5110SOL    HW216011   3.446   2.013   3.421
 5111SOL     OW16012   1.982   2.520   2.422
 5111SOL    HW116013   1.947   2.433   2.442
 5111SOL    HW216014   1.971   2.569   2.503
 5112SOL     OW16015   3.699   3.617   2.202
 5112SOL    HW116016   3.766   3.591   2.266
 5112SOL    HW216017   3.723   3.706   2.178
 5113SOL     OW16018   1.889   3.456   1.985
 5113SOL    HW116019   1.875   3.364   2.007
 5113SOL    HW216020   1.869   3.503   2.066
 5114SOL     OW16021   3.550   2.781   2.502
 5114SOL    HW116022   3.635   2.740   2.486
 5114SOL    HW216023   3.532   2.831   2.423
 5115SOL     OW16024   3.504   2.969   2.293
 5115SOL    HW116025   3.588   2.976   2.249
 5115SOL    HW216026   3.510   3.031   2.366
 5116SOL     OW16027   1.983   2.606   3.445
 5116SOL    HW116028   2.074   2.630   3.461
 5116SOL    HW216029   1.935   2.688   3.456
 5117SOL     OW16030   2.475   3.246   2.597
 5117SOL    HW116031   2.429   3.163   2.606
 5117SOL    HW216032   2.458   3.273   2.506
 5118SOL     OW16033   3.151   3.100   3.286
 5118SOL    HW116034   3.184   3.034   3.226
 5118SOL    HW216035   3.208   3.094   3.363
 5119SOL     OW16036   2.696   1.860   2.376
 5119SOL    HW116037   2.735   1.945   2.355
 5119SOL    HW216038   2.601   1.876   2.374
 5120SOL     OW16039   2.054   2.831   3.131
 5120SOL    HW116040   2.137   2.787   3.116
 5120SOL    HW216041   1.988   2.773   3.091
 5121SOL     OW16042   3.392   2.855   2.060
 5121SOL    HW116043   3.322   2.797   2.092
 5121SOL    HW216044   3.432   2.890   2.139
 5122SOL     OW16045   3.072   3.664   3.487
 5122SOL    HW116046   3.057   3.723   3.413
 5122SOL    HW216047   3.074   3.577   3.447
 5123SOL     OW16048   3.326   3.282   2.813
 5123SOL    HW116049   3.259   3.296   2.880
 5123SOL    HW216050   3.316   3.191   2.787
 5124SOL     OW16051   3.515   3.600   2.441
 5124SOL    HW116052   3.502   3.568   2.352
 5124SOL    HW216053   3.495   3.525   2.497
 5125SOL     OW16054   2.459   2.586   2.128
 5125SOL    HW116055   2.465   2.667   2.076
 5125SOL    HW216056   2.393   2.606   2.195
 5126SOL     OW16057   3.141   2.213   2.794
 5126SOL    HW116058   3.052   2.178   2.802
 5126SOL    HW216059   3.192   2.160   2.856
 5127SOL     OW16060   3.439   3.536   2.170
 5127SOL    HW116061   3.530   3.564   2.166
 5127SOL    HW216062   3.416   3.515   2.079
 5128SOL     OW16063   2.655   2.479   3.313
 5128SOL    HW116064   2.630   2.457   3.402
 5128SOL    HW216065   2.613   2.413   3.258
 5129SOL     OW16066   3.256   2.335   3.540
 5129SOL    HW116067   3.257   2.380   3.625
 5129SOL    HW216068   3.317   2.263   3.550
 5130SOL     OW16069   2.818   2.750   3.444
 5130SOL    HW116070   2.873   2.679   3.409
 5130SOL    HW216071   2.771   2.784   3.367
 5131SOL     OW16072   2.855   2.275   3.101
 5131SOL    HW116073   2.771   2.298   3.141
 5131SOL    HW216074   2.832   2.228   3.021
 5132SOL     OW16075   2.912   2.560   2.288
 5132SOL    HW116076   2.927   2.554   2.383
 5132SOL    HW216077   2.830   2.514   2.274
 5133SOL     OW16078   1.950   2.683   2.639
 5133SOL    HW116079   2.032   2.678   2.688
 5133SOL    HW216080   1.907   2.762   2.673
 5134SOL     OW16081   1.987   3.697   3.437
 5134SOL    HW116082   1.986   3.681   3.531
 5134SOL    HW216083   1.896   3.710   3.413
 5135SOL     OW16084   2.753   2.210   2.058
 5135SOL    HW116085   2.796   2.270   1.996
 5135SOL    HW216086   2.765   2.124   2.018
 5136SOL     OW16087   3.574   2.439   3.690
 5136SOL    HW116088   3.535   2.514   3.644
 5136SOL    HW216089   3.595   2.376   3.620
 5137SOL     OW16090   3.237   3.004   2.404
 5137SOL    HW116091   3.316   2.990   2.352
 5137SOL    HW216092   3.185   3.066   2.352
 5138SOL     OW16093   2.406   2.052   2.755
 5138SOL    HW116094   2.410   2.075   2.848
 5138SOL    HW216095   2.426   2.134   2.710
 5139SOL     OW16096   2.870   3.308   2.335
 5139SOL    HW116097   2.829   3.380   2.286
 5139SOL    HW216098   2.853   3.329   2.427
 5140SOL     OW16099   2.213   3.669   2.703
 5140SOL    HW116100   2.263   3.590   2.721
 5140SOL    HW216101   2.274   3.741   2.723
 5141SOL     OW16102   3.665   2.923   2.728
 5141SOL    HW116103   3.609   2.903   2.653
 5141SOL    HW216104   3.605   2.927   2.802
 5142SOL     OW16105   3.090   3.399   3.374
 5142SOL    HW116106   3.075   3.327   3.434
 5142SOL    HW216107   3.026   3.385   3.304
 5143SOL     OW16108   2.182   2.817   2.111
 5143SOL    HW116109   2.264   2.836   2.064
 5143SOL    HW216110   2.150   2.736   2.072
 5144SOL     OW16111   3.338   2.602   2.590
 5144SOL    HW116112   3.330   2.558   2.674
 5144SOL    HW216113   3.416   2.658   2.600
 5145SOL     OW16114   2.327   3.126   3.599
 5145SOL    HW116115   2.300   3.131   3.508
 5145SOL    HW216116   2.246   3.124   3.649
 5146SOL     OW16117   2.975   3.642   2.086
 5146SOL    HW116118   2.914   3.594   2.142
 5146SOL    HW216119   3.004   3.578   2.021
 5147SOL     OW16120   3.489   3.244   1.950
 5147SOL    HW116121   3.446   3.328   1.933
 5147SOL    HW216122   3.421   3.179   1.931
 5148SOL     OW16123   2.331   3.596   2.186
 5148SOL    HW116124   2.366   3.661   2.246
 5148SOL    HW216125   2.404   3.573   2.129
 5149SOL     OW16126   3.263   1.970   2.293
 5149SOL    HW116127   3.253   1.945   2.202
 5149SOL    HW216128   3.357   1.975   2.307
 5150SOL     OW16129   2.119   3.655   3.090
 5150SOL    HW116130   2.169   3.588   3.138
 5150SOL    HW216131   2.106   3.617   3.003
 5151SOL     OW16132   2.800   3.561   2.763
 5151SOL    HW116133   2.877   3.507   2.784
 5151SOL    HW216134   2.754   3.512   2.695
 5152SOL     OW16135   2.254   2.557   2.339
 5152SOL    HW116136   2.275   2.464   2.348
 5152SOL    HW216137   2.160   2.563   2.357
 5153SOL     OW16138   3.399   2.088   3.588
 5153SOL    HW116139   3.408   2.109   3.681
 5153SOL    HW216140   3.331   2.020   3.584
 5154SOL     OW16141   2.503   1.989   1.968
 5154SOL    HW116142   2.570   1.924   1.991
 5154SOL    HW216143   2.457   1.950   1.894
 5155SOL     OW16144   2.628   2.138   3.615
 5155SOL    HW116145   2.703   2.079   3.618
 5155SOL    HW216146   2.580   2.120   3.696
 5156SOL     OW16147   2.738   3.382   3.056
 5156SOL    HW116148   2.723   3.347   2.968
 5156SOL    HW216149   2.808   3.328   3.092
 5157SOL     OW16150   3.203   2.451   3.294
 5157SOL    HW116151   3.234   2.419   3.379
 5157SOL    HW216152   3.239   2.539   3.287
 5158SOL     OW16153   2.676   3.258   2.800
 5158SOL    HW116154   2.760   3.247   2.755
 5158SOL    HW216155   2.611   3.257   2.729
 5159SOL     OW16156   2.788   2.370   2.766
 5159SOL    HW116157   2.766   2.363   2.673
 5159SOL    HW216158   2.823   2.284   2.789
 5160SOL     OW16159   2.442   1.926   2.343
 5160SOL    HW116160   2.368   1.917   2.403
 5160SOL    HW216161   2.424   2.007   2.294
 5161SOL     OW16162   3.290   3.060   1.903
 5161SOL    HW116163   3.321   2.985   1.953
 5161SOL    HW216164   3.204   3.080   1.941
 5162SOL     OW16165   2.802   2.110   2.324
 5162SOL    HW116166   2.773   2.150   2.242
 5162SOL    HW216167   2.897   2.124   2.325
 5163SOL     OW16168   2.942   2.542   3.322
 5163SOL    HW116169   2.873   2.476   3.328
 5163SOL    HW216170   3.024   2.492   3.315
 5164SOL     OW16171   3.086   3.431   2.655
 5164SOL    HW116172   3.103   3.500   2.591
 5164SOL    HW216173   3.154   3.442   2.721
 5165SOL     OW16174   2.330   3.010   2.597
 5165SOL    HW116175   2.260   2.992   2.659
 5165SOL    HW216176   2.291   2.994   2.511
 5166SOL     OW16177   3.132   3.659   2.467
 5166SOL    HW116178   3.175   3.723   2.411
 5166SOL    HW216179   3.062   3.708   2.510
 5167SOL     OW16180   2.887   2.406   1.883
 5167SOL    HW116181   2.844   2.489   1.863
 5167SOL    HW216182   2.951   2.427   1.950
 5168SOL     OW16183   1.937   2.423   3.248
 5168SOL    HW116184   2.030   2.418   3.227
 5168SOL    HW216185   1.931   2.489   3.317
 5169SOL     OW16186   2.418   2.084   3.029
 5169SOL    HW116187   2.464   2.005   3.057
 5169SOL    HW216188   2.333   2.078   3.073
 5170SOL     OW16189   2.727   2.320   2.502
 5170SOL    HW116190   2.685   2.375   2.436
 5170SOL    HW216191   2.751   2.240   2.455
 5171SOL     OW16192   2.874   1.915   2.615
 5171SOL    HW116193   2.819   1.904   2.537
 5171SOL    HW216194   2.855   1.839   2.669
 5172SOL     OW16195   3.298   3.026   2.719
 5172SOL    HW116196   3.230   2.958   2.718
 5172SOL    HW216197   3.323   3.037   2.628
 5173SOL     OW16198   3.328   2.467   2.841
 5173SOL    HW116199   3.280   2.384   2.844
 5173SOL    HW216200   3.389   2.462   2.915
 5174SOL     OW16201   3.722   2.681   2.237
 5174SOL    HW116202   3.767   2.625   2.301
 5174SOL    HW216203   3.685   2.620   2.173
 5175SOL     OW16204   2.354   3.277   2.020
 5175SOL    HW116205   2.279   3.249   2.073
 5175SOL    HW216206   2.335   3.245   1.932
 5176SOL     OW16207   3.528   3.127   2.510
 5176SOL    HW116208   3.623   3.131   2.518
 5176SOL    HW216209   3.498   3.216   2.530
 5177SOL     OW16210   3.256   2.433   1.933
 5177SOL    HW116211   3.195   2.415   2.005
 5177SOL    HW216212   3.340   2.400   1.965
 5178SOL     OW16213   2.384   2.130   2.177
 5178SOL    HW116214   2.425   2.079   2.107
 5178SOL    HW216215   2.364   2.214   2.136
 5179SOL     OW16216   3.614   3.097   3.435
 5179SOL    HW116217   3.701   3.061   3.418
 5179SOL    HW216218   3.631   3.186   3.466
 5180SOL     OW16219   2.921   3.215   3.196
 5180SOL    HW116220   2.847   3.184   3.247
 5180SOL    HW216221   2.997   3.174   3.237
 5181SOL     OW16222   3.468   3.489   3.516
 5181SOL    HW116223   3.461   3.522   3.426
 5181SOL    HW216224   3.550   3.441   3.517
 5182SOL     OW16225   2.989   3.064   2.968
 5182SOL    HW116226   2.931   3.103   3.034
 5182SOL    HW216227   2.955   3.096   2.884
 5183SOL     OW16228   3.494   2.961   2.938
 5183SOL    HW116229   3.487   3.022   3.012
 5183SOL    HW216230   3.414   2.976   2.888
 5184SOL     OW16231   2.779   1.961   3.259
 5184SOL    HW116232   2.803   1.940   3.168
 5184SOL    HW216233   2.858   1.999   3.296
 5185SOL     OW16234   2.846   2.976   3.584
 5185SOL    HW116235   2.754   2.992   3.605
 5185SOL    HW216236   2.845   2.899   3.528
 5186SOL     OW16237   2.570   2.923   2.233
 5186SOL    HW116238   2.556   2.907   2.327
 5186SOL    HW216239   2.646   2.869   2.211
 5187SOL     OW16240   2.279   2.675   3.113
 5187SOL    HW116241   2.348   2.687   3.179
 5187SOL    HW216242   2.244   2.587   3.131
 5188SOL     OW16243   3.129   2.240   3.137
 5188SOL    HW116244   3.161   2.317   3.182
 5188SOL    HW216245   3.039   2.262   3.112
 5189SOL     OW16246   1.931   3.434   3.212
 5189SOL    HW116247   1.901   3.510   3.161
 5189SOL    HW216248   2.027   3.440   3.209
 5190SOL     OW16249   2.213   2.970   2.353
 5190SOL    HW116250   2.217   3.043   2.292
 5190SOL    HW216251   2.211   2.892   2.297
 5191SOL     OW16252   2.411   2.400   2.725
 5191SOL    HW116253   2.426   2.457   2.649
 5191SOL    HW216254   2.477   2.427   2.789
 5192SOL     OW16255   3.110   3.210   2.251
 5192SOL    HW116256   3.166   3.281   2.282
 5192SOL    HW216257   3.023   3.231   2.285
 5193SOL     OW16258   3.141   3.319   3.008
 5193SOL    HW116259   3.197   3.322   3.086
 5193SOL    HW216260   3.086   3.242   3.021
 5194SOL     OW16261   3.443   2.486   2.340
 5194SOL    HW116262   3.398   2.541   2.404
 5194SOL    HW216263   3.487   2.547   2.282
 5195SOL     OW16264   2.209   3.388   3.178
 5195SOL    HW116265   2.196   3.345   3.093
 5195SOL    HW216266   2.303   3.400   3.185
 5196SOL     OW16267   2.275   2.608   3.464
 5196SOL    HW116268   2.338   2.652   3.406
 5196SOL    HW216269   2.319   2.526   3.487
 5197SOL     OW16270   3.462   2.639   3.541
 5197SOL    HW116271   3.376   2.681   3.535
 5197SOL    HW216272   3.514   2.682   3.474
 5198SOL     OW16273   2.857   1.983   3.616
 5198SOL    HW116274   2.913   2.056   3.588
 5198SOL    HW216275   2.906   1.904   3.592
 5199SOL     OW16276   2.373   1.900   3.608
 5199SOL    HW116277   2.327   1.844   3.545
 5199SOL    HW216278   2.309   1.969   3.629
 5200SOL     OW16279   2.445   2.734   2.894
 5200SOL    HW116280   2.476   2.825   2.890
 5200SOL    HW216281   2.389   2.731   2.971
 5201SOL     OW16282   3.221   2.721   2.893
 5201SOL    HW116283   3.139   2.712   2.845
 5201SOL    HW216284   3.261   2.634   2.889
 5202SOL     OW16285   3.068   2.391   2.129
 5202SOL    HW116286   3.076   2.313   2.184
 5202SOL    HW216287   3.025   2.455   2.186
 5203SOL     OW16288   1.908   3.172   3.139
 5203SOL    HW116289   1.941   3.119   3.211
 5203SOL    HW216290   1.915   3.262   3.170
 5204SOL     OW16291   2.585   2.491   2.920
 5204SOL    HW116292   2.660   2.475   2.863
 5204SOL    HW216293   2.559   2.581   2.900
 5205SOL     OW16294   3.594   2.821   3.718
 5205SOL    HW116295   3.550   2.764   3.655
 5205SOL    HW216296   3.531   2.832   3.789
 5206SOL     OW16297   2.221   1.903   2.478
 5206SOL    HW116298   2.146   1.959   2.458
 5206SOL    HW216299   2.203   1.870   2.566
 5207SOL     OW16300   3.477   2.235   2.230
 5207SOL    HW116301   3.505   2.171   2.296
 5207SOL    HW216302   3.455   2.313   2.280
 5208SOL     OW16303   2.889   2.621   2.823
 5208SOL    HW116304   2.887   2.639   2.917
 5208SOL    HW216305   2.863   2.529   2.816
 5209SOL     OW16306   2.846   3.429   3.579
 5209SOL    HW116307   2.829   3.472   3.495
 5209SOL    HW216308   2.888   3.346   3.556
 5210SOL     OW16309   3.708   3.367   3.463
 5210SOL    HW116310   3.730   3.394   3.373
 5210SOL    HW216311   3.789   3.382   3.512
 5211SOL     OW16312   2.216   2.780   3.670
 5211SOL    HW116313   2.298   2.797   3.716
 5211SOL    HW216314   2.239   2.717   3.601
 5212SOL     OW16315   3.392   2.136   1.989
 5212SOL    HW116316   3.328   2.070   2.015
 5212SOL    HW216317   3.425   2.171   2.072
 5213SOL     OW16318   3.154   2.688   1.894
 5213SOL    HW116319   3.198   2.603   1.897
 5213SOL    HW216320   3.186   2.728   1.812
 5214SOL     OW16321   2.927   3.197   2.715
 5214SOL    HW116322   2.930   3.124   2.653
 5214SOL    HW216323   2.989   3.261   2.680
 5215SOL     OW16324   2.172   2.673   2.809
 5215SOL    HW116325   2.265   2.695   2.801
 5215SOL    HW216326   2.172   2.587   2.850
 5216SOL     OW16327   2.190   2.360   2.874
 5216SOL    HW116328   2.149   2.287   2.827
 5216SOL    HW216329   2.268   2.380   2.824
 5217SOL     OW16330   2.996   2.239   3.542
 5217SOL    HW116331   2.950   2.294   3.606
 5217SOL    HW216332   3.084   2.277   3.539
 5218SOL     OW16333   3.022   2.066   3.331
 5218SOL    HW116334   3.012   2.128   3.403
 5218SOL    HW216335   3.061   2.117   3.261
 5219SOL     OW16336   1.867   3.184   2.057
 5219SOL    HW116337   1.780   3.197   2.020
 5219SOL    HW216338   1.864   3.094   2.090
 5220SOL     OW16339   1.956   3.647   2.798
 5220SOL    HW116340   1.926   3.567   2.755
 5220SOL    HW216341   2.043   3.663   2.761
 5221SOL     OW16342   2.359   3.436   2.768
 5221SOL    HW116343   2.427   3.499   2.792
 5221SOL    HW216344   2.405   3.372   2.713
 5222SOL     OW16345   2.847   2.654   3.089
 5222SOL    HW116346   2.903   2.631   3.163
 5222SOL    HW216347   2.761   2.620   3.112
 5223SOL     OW16348   1.899   2.398   2.979
 5223SOL    HW116349   1.983   2.397   2.934
 5223SOL    HW216350   1.921   2.413   3.071
 5224SOL     OW16351   2.060   2.385   3.584
 5224SOL    HW116352   2.120   2.354   3.516
 5224SOL    HW216353   2.009   2.454   3.542
 5225SOL     OW16354   3.239   2.802   3.521
 5225SOL    HW116355   3.260   2.896   3.520
 5225SOL    HW216356   3.236   2.777   3.429
 5226SOL     OW16357   2.677   2.431   2.221
 5226SOL    HW116358   2.681   2.356   2.161
 5226SOL    HW216359   2.604   2.483   2.190
 5227SOL     OW16360   3.504   2.464   3.050
 5227SOL    HW116361   3.492   2.403   3.123
 5227SOL    HW216362   3.589   2.441   3.013
 5228SOL     OW16363   2.108   3.413   3.591
 5228SOL    HW116364   2.084   3.478   3.657
 5228SOL    HW216365   2.107   3.330   3.637
 5229SOL     OW16366   2.555   2.314   3.124
 5229SOL    HW116367   2.508   2.238   3.089
 5229SOL    HW216368   2.556   2.377   3.051
 5230SOL     OW16369   2.793   3.536   3.329
 5230SOL    HW116370   2.765   3.502   3.244
 5230SOL    HW216371   2.786   3.631   3.320
 5231SOL     OW16372   2.327   2.359   2.054
 5231SOL    HW116373   2.384   2.434   2.073
 5231SOL    HW216374   2.242   2.398   2.036
 5232SOL     OW16375   2.009   3.002   3.334
 5232SOL    HW116376   2.012   2.950   3.414
 5232SOL    HW216377   2.027   2.940   3.263
 5233SOL     OW16378   3.188   2.910   3.086
 5233SOL    HW116379   3.213   2.847   3.018
 5233SOL    HW216380   3.118   2.961   3.047
 5234SOL     OW16381   3.172   2.718   2.169
 5234SOL    HW116382   3.096   2.688   2.218
 5234SOL    HW216383   3.148   2.705   2.077
 5235SOL     OW16384   3.634   3.608   3.012
 5235SOL    HW116385   3.692   3.633   2.941
 5235SOL    HW216386   3.609   3.517   2.992
 5236SOL     OW16387   3.105   3.596   2.976
 5236SOL    HW116388   3.187   3.614   2.931
 5236SOL    HW216389   3.108   3.502   2.995
 5237SOL     OW16390   1.945   3.128   2.875
 5237SOL    HW116391   1.932   3.141   2.969
 5237SOL    HW216392   1.872   3.074   2.847
 5238SOL     OW16393   2.540   3.525   3.588
 5238SOL    HW116394   2.486   3.604   3.592
 5238SOL    HW216395   2.600   3.540   3.515
 5239SOL     OW16396   3.576   2.007   2.376
 5239SOL    HW116397   3.645   1.994   2.311
 5239SOL    HW216398   3.564   1.920   2.415
 5240SOL     OW16399   3.251   3.430   2.346
 5240SOL    HW116400   3.312   3.462   2.279
 5240SOL    HW216401   3.205   3.509   2.375
 5241SOL     OW16402   1.994   3.655   3.702
 5241SOL    HW116403   1.942   3.591   3.751
 5241SOL    HW216404   2.044   3.701   3.769
 5242SOL     OW16405   3.139   2.786   2.533
 5242SOL    HW116406   3.213   2.726   2.539
 5242SOL    HW216407   3.173   2.860   2.481
 5243SOL     OW16408   2.678   3.134   3.293
 5243SOL    HW116409   2.651   3.173   3.376
 5243SOL    HW216410   2.608   3.157   3.232
 5244SOL     OW16411   2.537   3.477   2.018
 5244SOL    HW116412   2.544   3.492   1.924
 5244SOL    HW216413   2.480   3.400   2.026
 5245SOL     OW16414   3.487   3.588   3.252
 5245SOL    HW116415   3.540   3.593   3.173
 5245SOL    HW216416   3.476   3.679   3.280
 5246SOL     OW16417   3.699   2.042   2.831
 5246SOL    HW116418   3.730   1.956   2.804
 5246SOL    HW216419   3.613   2.051   2.790
 5247SOL     OW16420   3.068   3.469   1.896
 5247SOL    HW116421   3.059   3.377   1.921
 5247SOL    HW216422   3.007   3.481   1.824
 5248SOL     OW16423   2.686   2.868   3.233
 5248SOL    HW116424   2.730   2.865   3.148
 5248SOL    HW216425   2.686   2.960   3.257
 5249SOL     OW16426   2.778   2.772   2.152
 5249SOL    HW116427   2.839   2.804   2.085
 5249SOL    HW216428   2.825   2.702   2.196
 5250SOL     OW16429   3.353   3.490   1.903
 5250SOL    HW116430   3.259   3.480   1.888
 5250SOL    HW216431   3.391   3.495   1.816
 5251SOL     OW16432   2.232   3.163   3.353
 5251SOL    HW116433   2.218   3.241   3.299
 5251SOL    HW216434   2.154   3.109   3.338
 5252SOL     OW16435   3.467   3.142   3.141
 5252SOL    HW116436   3.534   3.137   3.210
 5252SOL    HW216437   3.409   3.213   3.170
 5253SOL     OW16438   2.912   2.968   2.568
 5253SOL    HW116439   2.842   2.917   2.607
 5253SOL    HW216440   2.974   2.903   2.535
 5254SOL     OW16441   2.881   2.102   2.828
 5254SOL    HW116442   2.877   2.054   2.745
 5254SOL    HW216443   2.878   2.034   2.895
 5255SOL     OW16444   2.464   3.352   2.343
 5255SOL    HW116445   2.506   3.301   2.274
 5255SOL    HW216446   2.398   3.404   2.297
 5256SOL     OW16447   3.583   2.253   3.241
 5256SOL    HW116448   3.655   2.316   3.237
 5256SOL    HW216449   3.612   2.180   3.185
 5257SOL     OW16450   2.121   3.208   2.150
 5257SOL    HW116451   2.028   3.205   2.127
 5257SOL    HW216452   2.123   3.245   2.238
 5258SOL     OW16453   1.974   2.882   3.580
 5258SOL    HW116454   1.897   2.860   3.634
 5258SOL    HW216455   2.048   2.846   3.629
 5259SOL     OW16456   2.534   2.060   3.361
 5259SOL    HW116457   2.618   2.039   3.319
 5259SOL    HW216458   2.558   2.088   3.449
 5260SOL     OW16459   1.898   2.277   1.924
 5260SOL    HW116460   1.855   2.197   1.893
 5260SOL    HW216461   1.950   2.307   1.849
 5261SOL     OW16462   3.292   2.721   3.263
 5261SOL    HW116463   3.243   2.781   3.208
 5261SOL    HW216464   3.381   2.722   3.228
 5262SOL     OW16465   3.041   3.203   1.979
 5262SOL    HW116466   2.950   3.173   1.981
 5262SOL    HW216467   3.069   3.201   2.070
 5263SOL     OW16468   2.481   2.692   3.294
 5263SOL    HW116469   2.535   2.770   3.280
 5263SOL    HW216470   2.543   2.620   3.303
 5264SOL     OW16471   3.347   3.641   2.841
 5264SOL    HW116472   3.374   3.691   2.764
 5264SOL    HW216473   3.429   3.615   2.883
 5265SOL     OW16474   2.580   2.425   3.565
 5265SOL    HW116475   2.616   2.489   3.626
 5265SOL    HW216476   2.609   2.341   3.598
 5266SOL     OW16477   3.332   3.064   3.495
 5266SOL    HW116478   3.321   3.077   3.589
 5266SOL    HW216479   3.426   3.077   3.479
 5267SOL     OW16480   2.241   3.601   3.424
 5267SOL    HW116481   2.155   3.640   3.411
 5267SOL    HW216482   2.223   3.517   3.466
 5268SOL     OW16483   3.530   2.743   3.120
 5268SOL    HW116484   3.526   2.658   3.077
 5268SOL    HW216485   3.524   2.807   3.049
 5269SOL     OW16486   3.080   2.182   2.319
 5269SOL    HW116487   3.143   2.110   2.310
 5269SOL    HW216488   3.109   2.230   2.397
 5270SOL     OW16489   2.451   2.600   2.532
 5270SOL    HW116490   2.492   2.685   2.516
 5270SOL    HW216491   2.383   2.593   2.464
 5271SOL     OW16492   3.625   2.225   3.511
 5271SOL    HW116493   3.607   2.237   3.417
 5271SOL    HW216494   3.556   2.167   3.541
 5272SOL     OW16495   3.613   2.793   3.376
 5272SOL    HW116496   3.609   2.887   3.391
 5272SOL    HW216497   3.592   2.782   3.283
 5273SOL     OW16498   2.725   3.230   1.895
 5273SOL    HW116499   2.684   3.257   1.977
 5273SOL    HW216500   2.742   3.312   1.848
 5274SOL     OW16501   2.521   3.654   2.807
 5274SOL    HW116502   2.499   3.745   2.783
 5274SOL    HW216503   2.616   3.651   2.800
 5275SOL     OW16504   2.728   2.828   2.718
 5275SOL    HW116505   2.779   2.757   2.758
 5275SOL    HW216506   2.695   2.878   2.792
 5276SOL     OW16507   2.941   2.850   1.951
 5276SOL    HW116508   2.920   2.901   1.872
 5276SOL    HW216509   3.017   2.797   1.925
 5277SOL     OW16510   3.717   3.418   2.704
 5277SOL    HW116511   3.638   3.400   2.652
 5277SOL    HW216512   3.716   3.352   2.773
 5278SOL     OW16513   2.087   3.166   3.718
 5278SOL    HW116514   2.019   3.104   3.689
 5278SOL    HW216515   2.070   3.178   3.811
 5279SOL     OW16516   1.946   3.097   2.526
 5279SOL    HW116517   1.949   3.048   2.608
 5279SOL    HW216518   2.014   3.057   2.472
 5280SOL     OW16519   2.543   3.264   3.489
 5280SOL    HW116520   2.463   3.221   3.520
 5280SOL    HW216521   2.538   3.352   3.526
 5281SOL     OW16522   3.677   2.043   3.102
 5281SOL    HW116523   3.671   1.948   3.108
 5281SOL    HW216524   3.689   2.061   3.008
 5282SOL     OW16525   2.291   2.293   2.386
 5282SOL    HW116526   2.323   2.232   2.320
 5282SOL    HW216527   2.251   2.237   2.453
 5283SOL     OW16528   3.561   3.354   2.962
 5283SOL    HW116529   3.481   3.327   2.917
 5283SOL    HW216530   3.577   3.284   3.026
 5284SOL     OW16531   2.191   2.416   3.151
 5284SOL    HW116532   2.238   2.357   3.210
 5284SOL    HW216533   2.211   2.383   3.063
 5285SOL     OW16534   2.688   3.440   2.540
 5285SOL    HW116535   2.678   3.486   2.456
 5285SOL    HW216536   2.611   3.383   2.546
 5286SOL     OW16537   3.294   2.087   2.980
 5286SOL    HW116538   3.320   2.007   3.026
 5286SOL    HW216539   3.242   2.136   3.044
 5287SOL     OW16540   2.870   1.881   3.006
 5287SOL    HW116541   2.816   1.812   2.966
 5287SOL    HW216542   2.958   1.844   3.008
 5288SOL     OW16543   2.634   3.194   2.175
 5288SOL    HW116544   2.601   3.104   2.181
 5288SOL    HW216545   2.716   3.192   2.223
 5289SOL     OW16546   2.482   3.418   3.146
 5289SOL    HW116547   2.484   3.499   3.197
 5289SOL    HW216548   2.569   3.411   3.108
 5290SOL     OW16549   3.214   1.916   2.026
 5290SOL    HW116550   3.242   1.852   1.960
 5290SOL    HW216551   3.127   1.886   2.053
 5291SOL     OW16552   3.158   2.322   2.544
 5291SOL    HW116553   3.105   2.402   2.552
 5291SOL    HW216554   3.155   2.282   2.631
 5292SOL     OW16555   3.446   2.065   2.738
 5292SOL    HW116556   3.385   2.085   2.809
 5292SOL    HW216557   3.447   2.144   2.684
 5293SOL     OW16558   1.906   2.934   2.167
 5293SOL    HW116559   1.999   2.925   2.150
 5293SOL    HW216560   1.877   2.846   2.190
 5294SOL     OW16561   2.745   3.516   2.207
 5294SOL    HW116562   2.675   3.496   2.145
 5294SOL    HW216563   2.714   3.592   2.255
 5295SOL     OW16564   2.094   2.491   3.845
 5295SOL    HW116565   2.007   2.471   3.879
 5295SOL    HW216566   2.092   2.460   3.754
 5296SOL     OW16567   1.865   2.284   4.353
 5296SOL    HW116568   1.777   2.280   4.390
 5296SOL    HW216569   1.872   2.206   4.298
 5297SOL     OW16570   2.429   3.147   4.897
 5297SOL    HW116571   2.341   3.151   4.859
 5297SOL    HW216572   2.444   3.235   4.931
 5298SOL     OW16573   3.421   3.374   4.431
 5298SOL    HW116574   3.378   3.353   4.514
 5298SOL    HW216575   3.349   3.378   4.367
 5299SOL     OW16576   2.991   2.561   4.426
 5299SOL    HW116577   3.041   2.641   4.412
 5299SOL    HW216578   2.945   2.576   4.509
 5300SOL     OW16579   3.627   2.470   3.955
 5300SOL    HW116580   3.608   2.461   3.861
 5300SOL    HW216581   3.592   2.390   3.994
 5301SOL     OW16582   2.619   3.005   4.763
 5301SOL    HW116583   2.550   3.039   4.820
 5301SOL    HW216584   2.654   3.083   4.719
 5302SOL     OW16585   2.726   2.641   5.547
 5302SOL    HW116586   2.715   2.714   5.607
 5302SOL    HW216587   2.750   2.682   5.464
 5303SOL     OW16588   2.548   2.866   4.372
 5303SOL    HW116589   2.613   2.854   4.442
 5303SOL    HW216590   2.478   2.917   4.412
 5304SOL     OW16591   2.571   3.013   5.535
 5304SOL    HW116592   2.619   3.092   5.560
 5304SOL    HW216593   2.488   3.046   5.500
 5305SOL     OW16594   2.193   3.289   4.792
 5305SOL    HW116595   2.120   3.253   4.741
 5305SOL    HW216596   2.243   3.340   4.728
 5306SOL     OW16597   3.323   3.361   5.076
 5306SOL    HW116598   3.372   3.443   5.087
 5306SOL    HW216599   3.264   3.358   5.151
 5307SOL     OW16600   2.286   2.240   5.202
 5307SOL    HW116601   2.375   2.207   5.218
 5307SOL    HW216602   2.229   2.164   5.215
 5308SOL     OW16603   3.475   2.311   4.465
 5308SOL    HW116604   3.400   2.335   4.411
 5308SOL    HW216605   3.493   2.389   4.517
 5309SOL     OW16606   2.082   3.579   4.203
 5309SOL    HW116607   2.118   3.639   4.268
 5309SOL    HW216608   2.151   3.573   4.136
 5310SOL     OW16609   2.998   3.203   5.416
 5310SOL    HW116610   3.039   3.198   5.503
 5310SOL    HW216611   2.945   3.123   5.410
 5311SOL     OW16612   2.090   3.303   4.258
 5311SOL    HW116613   2.073   3.397   4.266
 5311SOL    HW216614   2.031   3.263   4.321
 5312SOL     OW16615   2.118   2.953   4.615
 5312SOL    HW116616   2.114   2.867   4.657
 5312SOL    HW216617   2.060   3.008   4.668
 5313SOL     OW16618   2.476   3.649   5.154
 5313SOL    HW116619   2.393   3.634   5.200
 5313SOL    HW216620   2.500   3.738   5.179
 5314SOL     OW16621   2.450   2.842   3.857
 5314SOL    HW116622   2.494   2.893   3.788
 5314SOL    HW216623   2.489   2.873   3.938
 5315SOL     OW16624   3.459   1.985   5.192
 5315SOL    HW116625   3.459   2.066   5.141
 5315SOL    HW216626   3.446   2.013   5.283
 5316SOL     OW16627   1.982   2.520   4.284
 5316SOL    HW116628   1.947   2.434   4.303
 5316SOL    HW216629   1.971   2.569   4.365
 5317SOL     OW16630   3.699   3.617   4.064
 5317SOL    HW116631   3.766   3.591   4.128
 5317SOL    HW216632   3.723   3.706   4.040
 5318SOL     OW16633   1.889   3.456   3.847
 5318SOL    HW116634   1.875   3.364   3.868
 5318SOL    HW216635   1.869   3.503   3.928
 5319SOL     OW16636   3.550   2.781   4.364
 5319SOL    HW116637   3.635   2.740   4.348
 5319SOL    HW216638   3.532   2.831   4.285
 5320SOL     OW16639   3.503   2.969   4.155
 5320SOL    HW116640   3.588   2.976   4.111
 5320SOL    HW216641   3.510   3.030   4.228
 5321SOL     OW16642   1.983   2.607   5.307
 5321SOL    HW116643   2.075   2.629   5.321
 5321SOL    HW216644   1.936   2.689   5.317
 5322SOL     OW16645   2.475   3.246   4.459
 5322SOL    HW116646   2.429   3.163   4.468
 5322SOL    HW216647   2.458   3.273   4.368
 5323SOL     OW16648   3.151   3.100   5.148
 5323SOL    HW116649   3.184   3.034   5.088
 5323SOL    HW216650   3.208   3.094   5.225
 5324SOL     OW16651   2.696   1.860   4.238
 5324SOL    HW116652   2.736   1.944   4.217
 5324SOL    HW216653   2.602   1.876   4.236
 5325SOL     OW16654   2.054   2.831   4.993
 5325SOL    HW116655   2.137   2.787   4.978
 5325SOL    HW216656   1.989   2.773   4.953
 5326SOL     OW16657   3.392   2.855   3.922
 5326SOL    HW116658   3.322   2.797   3.954
 5326SOL    HW216659   3.432   2.890   4.001
 5327SOL     OW16660   3.072   3.664   5.349
 5327SOL    HW116661   3.057   3.723   5.275
 5327SOL    HW216662   3.074   3.576   5.309
 5328SOL     OW16663   3.326   3.282   4.675
 5328SOL    HW116664   3.259   3.296   4.742
 5328SOL    HW216665   3.316   3.191   4.649
 5329SOL     OW16666   3.515   3.600   4.303
 5329SOL    HW116667   3.502   3.568   4.214
 5329SOL    HW216668   3.495   3.525   4.359
 5330SOL     OW16669   2.459   2.586   3.990
 5330SOL    HW116670   2.465   2.667   3.938
 5330SOL    HW216671   2.393   2.606   4.057
 5331SOL     OW16672   3.141   2.212   4.656
 5331SOL    HW116673   3.052   2.179   4.665
 5331SOL    HW216674   3.192   2.160   4.718
 5332SOL     OW16675   3.439   3.536   4.032
 5332SOL    HW116676   3.530   3.564   4.028
 5332SOL    HW216677   3.416   3.515   3.941
 5333SOL     OW16678   2.656   2.481   5.173
 5333SOL    HW116679   2.633   2.457   5.263
 5333SOL    HW216680   2.613   2.413   5.120
 5334SOL     OW16681   3.257   2.336   5.402
 5334SOL    HW116682   3.257   2.380   5.486
 5334SOL    HW216683   3.317   2.263   5.412
 5335SOL     OW16684   2.818   2.750   5.305
 5335SOL    HW116685   2.873   2.679   5.271
 5335SOL    HW216686   2.771   2.783   5.229
 5336SOL     OW16687   2.856   2.276   4.962
 5336SOL    HW116688   2.772   2.298   5.004
 5336SOL    HW216689   2.831   2.227   4.884
 5337SOL     OW16690   2.912   2.561   4.150
 5337SOL    HW116691   2.927   2.554   4.245
 5337SOL    HW216692   2.830   2.514   4.136
 5338SOL     OW16693   1.950   2.684   4.501
 5338SOL    HW116694   2.032   2.678   4.550
 5338SOL    HW216695   1.907   2.762   4.535
 5339SOL     OW16696   1.987   3.697   5.299
 5339SOL    HW116697   1.986   3.680   5.393
 5339SOL    HW216698   1.896   3.710   5.275
 5340SOL     OW16699   2.753   2.210   3.920
 5340SOL    HW116700   2.796   2.270   3.858
 5340SOL    HW216701   2.765   2.124   3.881
 5341SOL     OW16702   3.576   2.440   5.552
 5341SOL    HW116703   3.536   2.514   5.506
 5341SOL    HW216704   3.595   2.376   5.483
 5342SOL     OW16705   3.237   3.004   4.266
 5342SOL    HW116706   3.316   2.990   4.214
 5342SOL    HW216707   3.185   3.066   4.214
 5343SOL     OW16708   2.405   2.052   4.617
 5343SOL    HW116709   2.409   2.074   4.710
 5343SOL    HW216710   2.427   2.134   4.573
 5344SOL     OW16711   2.870   3.308   4.197
 5344SOL    HW116712   2.829   3.380   4.148
 5344SOL    HW216713   2.853   3.329   4.289
 5345SOL     OW16714   2.213   3.669   4.565
 5345SOL    HW116715   2.263   3.590   4.583
 5345SOL    HW216716   2.274   3.741   4.585
 5346SOL     OW16717   3.665   2.923   4.590
 5346SOL    HW116718   3.609   2.903   4.515
 5346SOL    HW216719   3.605   2.927   4.664
 5347SOL     OW16720   3.089   3.400   5.236
 5347SOL    HW116721   3.075   3.327   5.296
 5347SOL    HW216722   3.026   3.385   5.165
 5348SOL     OW16723   2.182   2.818   3.973
 5348SOL    HW116724   2.264   2.836   3.926
 5348SOL    HW216725   2.150   2.736   3.935
 5349SOL     OW16726   3.339   2.603   4.452
 5349SOL    HW116727   3.329   2.558   4.536
 5349SOL    HW216728   3.416   2.658   4.462
 5350SOL     OW16729   2.328   3.126   5.461
 5350SOL    HW116730   2.300   3.131   5.370
 5350SOL    HW216731   2.246   3.124   5.511
 5351SOL     OW16732   2.975   3.642   3.948
 5351SOL    HW116733   2.914   3.594   4.004
 5351SOL    HW216734   3.004   3.578   3.883
 5352SOL     OW16735   3.489   3.244   3.812
 5352SOL    HW116736   3.446   3.328   3.795
 5352SOL    HW216737   3.421   3.179   3.793
 5353SOL     OW16738   2.331   3.596   4.048
 5353SOL    HW116739   2.366   3.661   4.108
 5353SOL    HW216740   2.404   3.573   3.991
 5354SOL     OW16741   3.263   1.970   4.155
 5354SOL    HW116742   3.253   1.945   4.064
 5354SOL    HW216743   3.357   1.975   4.169
 5355SOL     OW16744   2.119   3.655   4.952
 5355SOL    HW116745   2.169   3.588   5.000
 5355SOL    HW216746   2.106   3.617   4.865
 5356SOL     OW16747   2.800   3.561   4.625
 5356SOL    HW116748   2.877   3.507   4.646
 5356SOL    HW216749   2.754   3.512   4.557
 5357SOL     OW16750   2.254   2.557   4.201
 5357SOL    HW116751   2.275   2.464   4.210
 5357SOL    HW216752   2.160   2.563   4.219
 5358SOL     OW16753   3.399   2.087   5.450
 5358SOL    HW116754   3.407   2.108   5.543
 5358SOL    HW216755   3.330   2.021   5.446
 5359SOL     OW16756   2.503   1.989   3.830
 5359SOL    HW116757   2.570   1.924   3.853
 5359SOL    HW216758   2.457   1.950   3.756
 5360SOL     OW16759   2.630   2.141   5.477
 5360SOL    HW116760   2.704   2.081   5.480
 5360SOL    HW216761   2.578   2.118   5.555
 5361SOL     OW16762   2.738   3.382   4.918
 5361SOL    HW116763   2.723   3.347   4.830
 5361SOL    HW216764   2.808   3.328   4.954
 5362SOL     OW16765   3.204   2.450   5.156
 5362SOL    HW116766   3.234   2.419   5.241
 5362SOL    HW216767   3.239   2.539   5.149
 5363SOL     OW16768   2.676   3.258   4.662
 5363SOL    HW116769   2.760   3.247   4.617
 5363SOL    HW216770   2.611   3.257   4.591
 5364SOL     OW16771   2.789   2.370   4.628
 5364SOL    HW116772   2.766   2.362   4.535
 5364SOL    HW216773   2.823   2.284   4.652
 5365SOL     OW16774   2.443   1.926   4.205
 5365SOL    HW116775   2.368   1.915   4.263
 5365SOL    HW216776   2.424   2.007   4.157
 5366SOL     OW16777   3.290   3.060   3.765
 5366SOL    HW116778   3.322   2.985   3.815
 5366SOL    HW216779   3.204   3.080   3.803
 5367SOL     OW16780   2.802   2.110   4.186
 5367SOL    HW116781   2.773   2.150   4.104
 5367SOL    HW216782   2.897   2.124   4.187
 5368SOL     OW16783   2.943   2.542   5.183
 5368SOL    HW116784   2.873   2.477   5.191
 5368SOL    HW216785   3.023   2.491   5.178
 5369SOL     OW16786   3.086   3.431   4.517
 5369SOL    HW116787   3.103   3.500   4.453
 5369SOL    HW216788   3.154   3.442   4.583
 5370SOL     OW16789   2.330   3.011   4.459
 5370SOL    HW116790   2.260   2.992   4.521
 5370SOL    HW216791   2.291   2.994   4.373
 5371SOL     OW16792   3.132   3.659   4.329
 5371SOL    HW116793   3.175   3.723   4.273
 5371SOL    HW216794   3.062   3.708   4.372
 5372SOL     OW16795   2.887   2.406   3.745
 5372SOL    HW116796   2.844   2.489   3.725
 5372SOL    HW216797   2.951   2.427   3.812
 5373SOL     OW16798   1.936   2.423   5.110
 5373SOL    HW116799   2.029   2.418   5.089
 5373SOL    HW216800   1.931   2.489   5.179
 5374SOL     OW16801   2.417   2.083   4.891
 5374SOL    HW116802   2.464   2.005   4.920
 5374SOL    HW216803   2.333   2.079   4.937
 5375SOL     OW16804   2.727   2.320   4.364
 5375SOL    HW116805   2.685   2.375   4.298
 5375SOL    HW216806   2.751   2.240   4.317
 5376SOL     OW16807   2.874   1.915   4.477
 5376SOL    HW116808   2.819   1.904   4.399
 5376SOL    HW216809   2.855   1.839   4.531
 5377SOL     OW16810   3.298   3.026   4.581
 5377SOL    HW116811   3.230   2.958   4.580
 5377SOL    HW216812   3.323   3.037   4.489
 5378SOL     OW16813   3.328   2.466   4.703
 5378SOL    HW116814   3.280   2.384   4.706
 5378SOL    HW216815   3.389   2.462   4.777
 5379SOL     OW16816   3.722   2.681   4.099
 5379SOL    HW116817   3.767   2.625   4.163
 5379SOL    HW216818   3.685   2.620   4.036
 5380SOL     OW16819   2.354   3.277   3.882
 5380SOL    HW116820   2.279   3.249   3.935
 5380SOL    HW216821   2.335   3.245   3.794
 5381SOL     OW16822   3.528   3.127   4.371
 5381SOL    HW116823   3.623   3.132   4.380
 5381SOL    HW216824   3.498   3.216   4.392
 5382SOL     OW16825   3.256   2.433   3.795
 5382SOL    HW116826   3.195   2.415   3.867
 5382SOL    HW216827   3.340   2.400   3.827
 5383SOL     OW16828   2.384   2.130   4.039
 5383SOL    HW116829   2.425   2.079   3.969
 5383SOL    HW216830   2.364   2.214   3.998
 5384SOL     OW16831   3.614   3.097   5.297
 5384SOL    HW116832   3.701   3.061   5.279
 5384SOL    HW216833   3.631   3.186   5.328
 5385SOL     OW16834   2.921   3.215   5.058
 5385SOL    HW116835   2.847   3.184   5.109
 5385SOL    HW216836   2.997   3.174   5.099
 5386SOL     OW16837   3.468   3.490   5.378
 5386SOL    HW116838   3.461   3.522   5.288
 5386SOL    HW216839   3.550   3.441   5.379
 5387SOL     OW16840   2.989   3.064   4.830
 5387SOL    HW116841   2.931   3.102   4.896
 5387SOL    HW216842   2.955   3.096   4.746
 5388SOL     OW16843   3.494   2.961   4.800
 5388SOL    HW116844   3.487   3.022   4.874
 5388SOL    HW216845   3.414   2.975   4.750
 5389SOL     OW16846   2.779   1.960   5.121
 5389SOL    HW116847   2.803   1.940   5.030
 5389SOL    HW216848   2.858   1.999   5.159
 5390SOL     OW16849   2.846   2.976   5.446
 5390SOL    HW116850   2.754   2.992   5.466
 5390SOL    HW216851   2.846   2.899   5.390
 5391SOL     OW16852   2.570   2.923   4.095
 5391SOL    HW116853   2.556   2.907   4.189
 5391SOL    HW216854   2.646   2.869   4.073
 5392SOL     OW16855   2.279   2.675   4.975
 5392SOL    HW116856   2.348   2.686   5.041
 5392SOL    HW216857   2.244   2.587   4.992
 5393SOL     OW16858   3.129   2.240   4.998
 5393SOL    HW116859   3.161   2.317   5.044
 5393SOL    HW216860   3.039   2.262   4.974
 5394SOL     OW16861   1.931   3.434   5.074
 5394SOL    HW116862   1.901   3.509   5.023
 5394SOL    HW216863   2.027   3.440   5.071
 5395SOL     OW16864   2.213   2.970   4.215
 5395SOL    HW116865   2.217   3.043   4.153
 5395SOL    HW216866   2.211   2.892   4.159
 5396SOL     OW16867   2.411   2.400   4.586
 5396SOL    HW116868   2.426   2.457   4.511
 5396SOL    HW216869   2.476   2.426   4.651
 5397SOL     OW16870   3.110   3.210   4.113
 5397SOL    HW116871   3.166   3.281   4.144
 5397SOL    HW216872   3.023   3.231   4.147
 5398SOL     OW16873   3.141   3.319   4.870
 5398SOL    HW116874   3.196   3.322   4.948
 5398SOL    HW216875   3.086   3.242   4.883
 5399SOL     OW16876   3.443   2.486   4.202
 5399SOL    HW116877   3.398   2.541   4.266
 5399SOL    HW216878   3.487   2.547   4.144
 5400SOL     OW16879   2.209   3.388   5.040
 5400SOL    HW116880   2.196   3.345   4.955
 5400SOL    HW216881   2.303   3.400   5.047
 5401SOL     OW16882   2.275   2.607   5.326
 5401SOL    HW116883   2.338   2.650   5.268
 5401SOL    HW216884   2.318   2.526   5.353
 5402SOL     OW16885   3.462   2.639   5.403
 5402SOL    HW116886   3.376   2.680   5.397
 5402SOL    HW216887   3.514   2.682   5.336
 5403SOL     OW16888   2.858   1.981   5.475
 5403SOL    HW116889   2.913   2.055   5.450
 5403SOL    HW216890   2.909   1.904   5.451
 5404SOL     OW16891   2.373   1.898   5.468
 5404SOL    HW116892   2.325   1.843   5.406
 5404SOL    HW216893   2.311   1.965   5.495
 5405SOL     OW16894   2.445   2.734   4.756
 5405SOL    HW116895   2.476   2.825   4.752
 5405SOL    HW216896   2.389   2.731   4.833
 5406SOL     OW16897   3.221   2.721   4.755
 5406SOL    HW116898   3.139   2.712   4.707
 5406SOL    HW216899   3.261   2.634   4.751
 5407SOL     OW16900   3.068   2.391   3.991
 5407SOL    HW116901   3.076   2.313   4.046
 5407SOL    HW216902   3.025   2.455   4.048
 5408SOL     OW16903   1.907   3.172   5.001
 5408SOL    HW116904   1.941   3.119   5.072
 5408SOL    HW216905   1.915   3.262   5.032
 5409SOL     OW16906   2.584   2.491   4.781
 5409SOL    HW116907   2.660   2.475   4.725
 5409SOL    HW216908   2.559   2.581   4.762
 5410SOL     OW16909   3.594   2.821   5.581
 5410SOL    HW116910   3.550   2.764   5.518
 5410SOL    HW216911   3.530   2.832   5.651
 5411SOL     OW16912   2.221   1.897   4.336
 5411SOL    HW116913   2.150   1.959   4.320
 5411SOL    HW216914   2.206   1.867   4.426
 5412SOL     OW16915   3.478   2.235   4.092
 5412SOL    HW116916   3.505   2.171   4.158
 5412SOL    HW216917   3.455   2.313   4.142
 5413SOL     OW16918   2.889   2.621   4.685
 5413SOL    HW116919   2.887   2.639   4.779
 5413SOL    HW216920   2.863   2.529   4.678
 5414SOL     OW16921   2.846   3.429   5.441
 5414SOL    HW116922   2.829   3.472   5.357
 5414SOL    HW216923   2.888   3.346   5.417
 5415SOL     OW16924   3.708   3.367   5.325
 5415SOL    HW116925   3.730   3.394   5.235
 5415SOL    HW216926   3.789   3.382   5.374
 5416SOL     OW16927   2.216   2.781   5.530
 5416SOL    HW116928   2.298   2.795   5.577
 5416SOL    HW216929   2.239   2.717   5.462
 5417SOL     OW16930   3.392   2.136   3.851
 5417SOL    HW116931   3.328   2.070   3.877
 5417SOL    HW216932   3.425   2.171   3.934
 5418SOL     OW16933   3.154   2.688   3.756
 5418SOL    HW116934   3.198   2.603   3.759
 5418SOL    HW216935   3.186   2.728   3.674
 5419SOL     OW16936   2.927   3.197   4.577
 5419SOL    HW116937   2.930   3.124   4.515
 5419SOL    HW216938   2.989   3.261   4.542
 5420SOL     OW16939   2.172   2.673   4.671
 5420SOL    HW116940   2.265   2.695   4.663
 5420SOL    HW216941   2.172   2.586   4.712
 5421SOL     OW16942   2.189   2.361   4.735
 5421SOL    HW116943   2.150   2.287   4.689
 5421SOL    HW216944   2.268   2.381   4.685
 5422SOL     OW16945   2.997   2.239   5.403
 5422SOL    HW116946   2.949   2.293   5.466
 5422SOL    HW216947   3.085   2.277   5.400
 5423SOL     OW16948   3.022   2.065   5.193
 5423SOL    HW116949   3.012   2.127   5.265
 5423SOL    HW216950   3.061   2.117   5.122
 5424SOL     OW16951   1.867   3.184   3.919
 5424SOL    HW116952   1.780   3.197   3.882
 5424SOL    HW216953   1.865   3.094   3.952
 5425SOL     OW16954   1.956   3.647   4.660
 5425SOL    HW116955   1.926   3.567   4.617
 5425SOL    HW216956   2.043   3.663   4.623
 5426SOL     OW16957   2.359   3.436   4.630
 5426SOL    HW116958   2.427   3.499   4.654
 5426SOL    HW216959   2.405   3.372   4.575
 5427SOL     OW16960   2.847   2.655   4.951
 5427SOL    HW116961   2.903   2.631   5.025
 5427SOL    HW216962   2.761   2.619   4.975
 5428SOL     OW16963   1.899   2.399   4.841
 5428SOL    HW116964   1.984   2.397   4.796
 5428SOL    HW216965   1.921   2.413   4.933
 5429SOL     OW16966   2.058   2.389   5.450
 5429SOL    HW116967   2.124   2.357   5.387
 5429SOL    HW216968   2.010   2.457   5.402
 5430SOL     OW16969   3.239   2.802   5.383
 5430SOL    HW116970   3.260   2.896   5.382
 5430SOL    HW216971   3.236   2.777   5.291
 5431SOL     OW16972   2.677   2.431   4.083
 5431SOL    HW116973   2.681   2.356   4.023
 5431SOL    HW216974   2.604   2.483   4.051
 5432SOL     OW16975   3.504   2.464   4.912
 5432SOL    HW116976   3.492   2.403   4.985
 5432SOL    HW216977   3.589   2.441   4.875
 5433SOL     OW16978   2.108   3.413   5.452
 5433SOL    HW116979   2.084   3.478   5.519
 5433SOL    HW216980   2.107   3.330   5.499
 5434SOL     OW16981   2.555   2.314   4.985
 5434SOL    HW116982   2.508   2.238   4.952
 5434SOL    HW216983   2.556   2.376   4.913
 5435SOL     OW16984   2.793   3.536   5.191
 5435SOL    HW116985   2.765   3.502   5.106
 5435SOL    HW216986   2.786   3.631   5.182
 5436SOL     OW16987   2.327   2.359   3.915
 5436SOL    HW116988   2.384   2.434   3.935
 5436SOL    HW216989   2.242   2.398   3.898
 5437SOL     OW16990   2.009   3.002   5.196
 5437SOL    HW116991   2.012   2.950   5.276
 5437SOL    HW216992   2.027   2.940   5.125
 5438SOL     OW16993   3.189   2.910   4.948
 5438SOL    HW116994   3.213   2.847   4.880
 5438SOL    HW216995   3.118   2.961   4.909
 5439SOL     OW16996   3.172   2.718   4.031
 5439SOL    HW116997   3.096   2.688   4.080
 5439SOL    HW216998   3.148   2.705   3.939
 5440SOL     OW16999   3.634   3.608   4.874
 5440SOL    HW117000   3.692   3.633   4.803
 5440SOL    HW217001   3.609   3.517   4.854
 5441SOL     OW17002   3.105   3.596   4.838
 5441SOL    HW117003   3.187   3.614   4.793
 5441SOL    HW217004   3.108   3.502   4.857
 5442SOL     OW17005   1.945   3.129   4.737
 5442SOL    HW117006   1.932   3.140   4.831
 5442SOL    HW217007   1.872   3.074   4.709
 5443SOL     OW17008   2.540   3.525   5.450
 5443SOL    HW117009   2.486   3.604   5.454
 5443SOL    HW217010   2.600   3.540   5.377
 5444SOL     OW17011   3.576   2.007   4.238
 5444SOL    HW117012   3.645   1.994   4.173
 5444SOL    HW217013   3.564   1.920   4.277
 5445SOL     OW17014   3.251   3.430   4.208
 5445SOL    HW117015   3.312   3.462   4.141
 5445SOL    HW217016   3.205   3.509   4.237
 5446SOL     OW17017   1.993   3.655   5.564
 5446SOL    HW117018   1.942   3.591   5.613
 5446SOL    HW217019   2.044   3.701   5.631
 5447SOL     OW17020   3.139   2.787   4.395
 5447SOL    HW117021   3.213   2.726   4.401
 5447SOL    HW217022   3.173   2.860   4.343
 5448SOL     OW17023   2.678   3.135   5.155
 5448SOL    HW117024   2.651   3.173   5.238
 5448SOL    HW217025   2.608   3.157   5.094
 5449SOL     OW17026   2.537   3.477   3.880
 5449SOL    HW117027   2.544   3.492   3.786
 5449SOL    HW217028   2.480   3.400   3.888
 5450SOL     OW17029   3.488   3.588   5.115
 5450SOL    HW117030   3.540   3.593   5.035
 5450SOL    HW217031   3.476   3.679   5.142
 5451SOL     OW17032   3.699   2.042   4.693
 5451SOL    HW117033   3.730   1.956   4.666
 5451SOL    HW217034   3.613   2.051   4.652
 5452SOL     OW17035   3.068   3.469   3.758
 5452SOL    HW117036   3.059   3.377   3.783
 5452SOL    HW217037   3.007   3.481   3.686
 5453SOL     OW17038   2.686   2.868   5.095
 5453SOL    HW117039   2.730   2.864   5.011
 5453SOL    HW217040   2.686   2.961   5.119
 5454SOL     OW17041   2.778   2.772   4.014
 5454SOL    HW117042   2.839   2.804   3.947
 5454SOL    HW217043   2.825   2.702   4.058
 5455SOL     OW17044   3.353   3.490   3.765
 5455SOL    HW117045   3.259   3.480   3.750
 5455SOL    HW217046   3.391   3.495   3.678
 5456SOL     OW17047   2.232   3.164   5.215
 5456SOL    HW117048   2.218   3.241   5.161
 5456SOL    HW217049   2.154   3.109   5.199
 5457SOL     OW17050   3.467   3.142   5.003
 5457SOL    HW117051   3.534   3.137   5.072
 5457SOL    HW217052   3.409   3.213   5.032
 5458SOL     OW17053   2.912   2.968   4.430
 5458SOL    HW117054   2.842   2.917   4.469
 5458SOL    HW217055   2.974   2.903   4.397
 5459SOL     OW17056   2.881   2.102   4.690
 5459SOL    HW117057   2.877   2.054   4.607
 5459SOL    HW217058   2.878   2.034   4.757
 5460SOL     OW17059   2.464   3.352   4.205
 5460SOL    HW117060   2.506   3.301   4.136
 5460SOL    HW217061   2.398   3.404   4.159
 5461SOL     OW17062   3.583   2.253   5.103
 5461SOL    HW117063   3.655   2.316   5.099
 5461SOL    HW217064   3.612   2.180   5.047
 5462SOL     OW17065   2.121   3.208   4.011
 5462SOL    HW117066   2.028   3.205   3.989
 5462SOL    HW217067   2.123   3.245   4.100
 5463SOL     OW17068   1.974   2.883   5.443
 5463SOL    HW117069   1.898   2.859   5.497
 5463SOL    HW217070   2.049   2.846   5.490
 5464SOL     OW17071   2.535   2.060   5.223
 5464SOL    HW117072   2.619   2.040   5.182
 5464SOL    HW217073   2.558   2.088   5.312
 5465SOL     OW17074   1.897   2.278   3.781
 5465SOL    HW117075   1.857   2.196   3.749
 5465SOL    HW217076   1.950   2.308   3.708
 5466SOL     OW17077   3.292   2.721   5.125
 5466SOL    HW117078   3.243   2.781   5.070
 5466SOL    HW217079   3.381   2.723   5.090
 5467SOL     OW17080   3.041   3.203   3.841
 5467SOL    HW117081   2.950   3.172   3.843
 5467SOL    HW217082   3.069   3.201   3.932
 5468SOL     OW17083   2.480   2.693   5.156
 5468SOL    HW117084   2.536   2.769   5.142
 5468SOL    HW217085   2.542   2.620   5.165
 5469SOL     OW17086   3.347   3.641   4.703
 5469SOL    HW117087   3.374   3.691   4.626
 5469SOL    HW217088   3.429   3.615   4.745
 5470SOL     OW17089   2.584   2.424   5.424
 5470SOL    HW117090   2.615   2.485   5.491
 5470SOL    HW217091   2.605   2.337   5.460
 5471SOL     OW17092   3.332   3.064   5.357
 5471SOL    HW117093   3.321   3.077   5.451
 5471SOL    HW217094   3.426   3.077   5.341
 5472SOL     OW17095   2.241   3.601   5.286
 5472SOL    HW117096   2.155   3.640   5.272
 5472SOL    HW217097   2.223   3.517   5.328
 5473SOL     OW17098   3.530   2.743   4.982
 5473SOL    HW117099   3.526   2.658   4.939
 5473SOL    HW217100   3.524   2.806   4.910
 5474SOL     OW17101   3.080   2.182   4.181
 5474SOL    HW117102   3.143   2.110   4.172
 5474SOL    HW217103   3.109   2.230   4.259
 5475SOL     OW17104   2.451   2.600   4.393
 5475SOL    HW117105   2.492   2.685   4.378
 5475SOL    HW217106   2.383   2.593   4.326
 5476SOL     OW17107   3.625   2.225   5.373
 5476SOL    HW117108   3.607   2.237   5.279
 5476SOL    HW217109   3.556   2.167   5.403
 5477SOL     OW17110   3.614   2.793   5.238
 5477SOL    HW117111   3.609   2.888   5.252
 5477SOL    HW217112   3.592   2.782   5.145
 5478SOL     OW17113   2.725   3.230   3.757
 5478SOL    HW117114   2.684   3.257   3.839
 5478SOL    HW217115   2.742   3.312   3.711
 5479SOL     OW17116   2.521   3.655   4.669
 5479SOL    HW117117   2.499   3.745   4.645
 5479SOL    HW217118   2.616   3.651   4.662
 5480SOL     OW17119   2.728   2.828   4.580
 5480SOL    HW117120   2.779   2.757   4.620
 5480SOL    HW217121   2.695   2.878   4.654
 5481SOL     OW17122   2.941   2.850   3.813
 5481SOL    HW117123   2.920   2.901   3.734
 5481SOL    HW217124   3.017   2.797   3.787
 5482SOL     OW17125   3.717   3.418   4.566
 5482SOL    HW117126   3.638   3.400   4.514
 5482SOL    HW217127   3.716   3.352   4.635
 5483SOL     OW17128   2.087   3.166   5.580
 5483SOL    HW117129   2.020   3.104   5.550
 5483SOL    HW217130   2.069   3.178   5.673
 5484SOL     OW17131   1.946   3.097   4.388
 5484SOL    HW117132   1.949   3.048   4.470
 5484SOL    HW217133   2.014   3.057   4.333
 5485SOL     OW17134   2.543   3.263   5.351
 5485SOL    HW117135   2.463   3.221   5.382
 5485SOL    HW217136   2.538   3.352   5.388
 5486SOL     OW17137   3.678   2.044   4.964
 5486SOL    HW117138   3.671   1.948   4.970
 5486SOL    HW217139   3.689   2.061   4.870
 5487SOL     OW17140   2.292   2.294   4.247
 5487SOL    HW117141   2.323   2.232   4.182
 5487SOL    HW217142   2.253   2.239   4.315
 5488SOL     OW17143   3.561   3.354   4.824
 5488SOL    HW117144   3.481   3.327   4.778
 5488SOL    HW217145   3.577   3.284   4.887
 5489SOL     OW17146   2.190   2.416   5.013
 5489SOL    HW117147   2.237   2.357   5.072
 5489SOL    HW217148   2.211   2.383   4.925
 5490SOL     OW17149   2.688   3.440   4.402
 5490SOL    HW117150   2.678   3.485   4.318
 5490SOL    HW217151   2.611   3.383   4.408
 5491SOL     OW17152   3.294   2.087   4.842
 5491SOL    HW117153   3.319   2.007   4.888
 5491SOL    HW217154   3.242   2.136   4.906
 5492SOL     OW17155   2.870   1.881   4.867
 5492SOL    HW117156   2.816   1.813   4.829
 5492SOL    HW217157   2.959   1.844   4.870
 5493SOL     OW17158   2.634   3.194   4.037
 5493SOL    HW117159   2.601   3.104   4.043
 5493SOL    HW217160   2.716   3.192   4.085
 5494SOL     OW17161   2.482   3.418   5.008
 5494SOL    HW117162   2.484   3.499   5.059
 5494SOL    HW217163   2.569   3.411   4.970
 5495SOL     OW17164   3.214   1.916   3.888
 5495SOL    HW117165   3.242   1.852   3.822
 5495SOL    HW217166   3.127   1.886   3.915
 5496SOL     OW17167   3.158   2.322   4.406
 5496SOL    HW117168   3.105   2.401   4.414
 5496SOL    HW217169   3.155   2.282   4.493
 5497SOL     OW17170   3.446   2.065   4.600
 5497SOL    HW117171   3.385   2.085   4.671
 5497SOL    HW217172   3.447   2.144   4.546
 5498SOL     OW17173   1.906   2.934   4.029
 5498SOL    HW117174   1.999   2.925   4.012
 5498SOL    HW217175   1.877   2.846   4.052
 5499SOL     OW17176   2.745   3.516   4.069
 5499SOL    HW117177   2.675   3.496   4.007
 5499SOL    HW217178   2.714   3.592   4.117
 5500SOL     OW17179   2.066   2.508   5.709
 5500SOL    HW117180   1.980   2.475   5.734
 5500SOL    HW217181   2.081   2.474   5.621
 5501SOL     OW17182   1.774   2.208   6.235
 5501SOL    HW117183   1.766   2.303   6.234
 5501SOL    HW217184   1.835   2.188   6.164
 5502SOL     OW17185   2.425   3.146   6.758
 5502SOL    HW117186   2.342   3.157   6.713
 5502SOL    HW217187   2.446   3.232   6.792
 5503SOL     OW17188   3.420   3.374   6.293
 5503SOL    HW117189   3.378   3.353   6.376
 5503SOL    HW217190   3.349   3.378   6.229
 5504SOL     OW17191   2.992   2.560   6.288
 5504SOL    HW117192   3.043   2.638   6.266
 5504SOL    HW217193   2.963   2.575   6.378
 5505SOL     OW17194   3.625   2.470   5.818
 5505SOL    HW117195   3.608   2.461   5.724
 5505SOL    HW217196   3.592   2.388   5.855
 5506SOL     OW17197   2.640   3.011   6.638
 5506SOL    HW117198   2.556   3.032   6.679
 5506SOL    HW217199   2.660   3.089   6.585
 5507SOL     OW17200   2.751   2.656   7.410
 5507SOL    HW117201   2.713   2.726   7.464
 5507SOL    HW217202   2.769   2.698   7.326
 5508SOL     OW17203   2.588   3.023   7.363
 5508SOL    HW117204   2.624   3.101   7.405
 5508SOL    HW217205   2.494   3.042   7.355
 5509SOL     OW17206   2.195   3.288   6.653
 5509SOL    HW117207   2.121   3.253   6.604
 5509SOL    HW217208   2.244   3.340   6.590
 5510SOL     OW17209   3.323   3.361   6.938
 5510SOL    HW117210   3.371   3.443   6.949
 5510SOL    HW217211   3.263   3.358   7.013
 5511SOL     OW17212   3.473   2.311   6.329
 5511SOL    HW117213   3.409   2.342   6.266
 5511SOL    HW217214   3.496   2.388   6.381
 5512SOL     OW17215   2.082   3.579   6.065
 5512SOL    HW117216   2.118   3.639   6.130
 5512SOL    HW217217   2.151   3.573   5.998
 5513SOL     OW17218   2.998   3.204   7.279
 5513SOL    HW117219   3.039   3.199   7.365
 5513SOL    HW217220   2.946   3.124   7.272
 5514SOL     OW17221   2.090   3.303   6.120
 5514SOL    HW117222   2.072   3.397   6.128
 5514SOL    HW217223   2.030   3.262   6.182
 5515SOL     OW17224   2.115   2.966   6.462
 5515SOL    HW117225   2.145   2.894   6.518
 5515SOL    HW217226   2.060   3.019   6.520
 5516SOL     OW17227   2.475   3.650   7.016
 5516SOL    HW117228   2.393   3.634   7.062
 5516SOL    HW217229   2.500   3.739   7.041
 5517SOL     OW17230   2.448   2.841   5.716
 5517SOL    HW117231   2.491   2.891   5.647
 5517SOL    HW217232   2.488   2.872   5.797
 5518SOL     OW17233   3.467   1.983   7.056
 5518SOL    HW117234   3.446   2.059   7.002
 5518SOL    HW217235   3.447   2.012   7.146
 5519SOL     OW17236   3.699   3.617   5.926
 5519SOL    HW117237   3.766   3.591   5.990
 5519SOL    HW217238   3.723   3.706   5.902
 5520SOL     OW17239   1.889   3.456   5.709
 5520SOL    HW117240   1.874   3.364   5.731
 5520SOL    HW217241   1.869   3.503   5.790
 5521SOL     OW17242   3.548   2.779   6.226
 5521SOL    HW117243   3.634   2.739   6.210
 5521SOL    HW217244   3.531   2.830   6.146
 5522SOL     OW17245   3.503   2.969   6.017
 5522SOL    HW117246   3.588   2.976   5.973
 5522SOL    HW217247   3.510   3.031   6.090
 5523SOL     OW17248   2.478   3.247   6.320
 5523SOL    HW117249   2.434   3.162   6.330
 5523SOL    HW217250   2.458   3.274   6.231
 5524SOL     OW17251   3.152   3.101   7.009
 5524SOL    HW117252   3.184   3.034   6.950
 5524SOL    HW217253   3.208   3.094   7.087
 5525SOL     OW17254   3.392   2.855   5.784
 5525SOL    HW117255   3.322   2.797   5.815
 5525SOL    HW217256   3.432   2.889   5.863
 5526SOL     OW17257   3.072   3.664   7.210
 5526SOL    HW117258   3.057   3.722   7.136
 5526SOL    HW217259   3.073   3.576   7.172
 5527SOL     OW17260   2.229   2.164   7.413
 5527SOL    HW117261   2.272   2.243   7.381
 5527SOL    HW217262   2.136   2.187   7.416
 5528SOL     OW17263   3.327   3.283   6.538
 5528SOL    HW117264   3.259   3.296   6.604
 5528SOL    HW217265   3.316   3.191   6.511
 5529SOL     OW17266   3.515   3.600   6.165
 5529SOL    HW117267   3.502   3.568   6.076
 5529SOL    HW217268   3.495   3.525   6.221
 5530SOL     OW17269   2.462   2.585   5.849
 5530SOL    HW117270   2.467   2.664   5.795
 5530SOL    HW217271   2.385   2.600   5.904
 5531SOL     OW17272   3.439   3.536   5.894
 5531SOL    HW117273   3.530   3.564   5.890
 5531SOL    HW217274   3.416   3.515   5.803
 5532SOL     OW17275   3.267   2.342   7.263
 5532SOL    HW117276   3.264   2.382   7.349
 5532SOL    HW217277   3.321   2.263   7.275
 5533SOL     OW17278   2.835   2.758   7.161
 5533SOL    HW117279   2.884   2.682   7.128
 5533SOL    HW217280   2.786   2.789   7.085
 5534SOL     OW17281   2.874   2.252   6.847
 5534SOL    HW117282   2.797   2.276   6.898
 5534SOL    HW217283   2.839   2.209   6.769
 5535SOL     OW17284   2.927   2.568   6.014
 5535SOL    HW117285   2.935   2.555   6.109
 5535SOL    HW217286   2.845   2.523   5.991
 5536SOL     OW17287   1.987   3.695   7.161
 5536SOL    HW117288   1.985   3.680   7.255
 5536SOL    HW217289   1.896   3.712   7.137
 5537SOL     OW17290   2.753   2.224   5.782
 5537SOL    HW117291   2.798   2.269   5.710
 5537SOL    HW217292   2.752   2.132   5.756
 5538SOL     OW17293   3.578   2.440   7.413
 5538SOL    HW117294   3.536   2.514   7.368
 5538SOL    HW217295   3.594   2.376   7.344
 5539SOL     OW17296   3.237   3.005   6.128
 5539SOL    HW117297   3.316   2.990   6.076
 5539SOL    HW217298   3.185   3.066   6.076
 5540SOL     OW17299   2.869   3.308   6.059
 5540SOL    HW117300   2.829   3.379   6.011
 5540SOL    HW217301   2.853   3.329   6.151
 5541SOL     OW17302   2.213   3.669   6.428
 5541SOL    HW117303   2.264   3.590   6.445
 5541SOL    HW217304   2.274   3.741   6.446
 5542SOL     OW17305   3.665   2.923   6.452
 5542SOL    HW117306   3.608   2.904   6.377
 5542SOL    HW217307   3.605   2.927   6.526
 5543SOL     OW17308   3.089   3.400   7.098
 5543SOL    HW117309   3.075   3.327   7.159
 5543SOL    HW217310   3.026   3.383   7.027
 5544SOL     OW17311   2.174   2.820   5.830
 5544SOL    HW117312   2.256   2.839   5.786
 5544SOL    HW217313   2.149   2.733   5.799
 5545SOL     OW17314   3.337   2.601   6.316
 5545SOL    HW117315   3.330   2.560   6.402
 5545SOL    HW217316   3.414   2.658   6.323
 5546SOL     OW17317   2.328   3.130   7.327
 5546SOL    HW117318   2.302   3.136   7.235
 5546SOL    HW217319   2.246   3.126   7.376
 5547SOL     OW17320   2.975   3.642   5.810
 5547SOL    HW117321   2.913   3.594   5.865
 5547SOL    HW217322   3.004   3.578   5.745
 5548SOL     OW17323   3.489   3.244   5.675
 5548SOL    HW117324   3.446   3.328   5.656
 5548SOL    HW217325   3.422   3.179   5.655
 5549SOL     OW17326   2.331   3.595   5.911
 5549SOL    HW117327   2.366   3.661   5.970
 5549SOL    HW217328   2.404   3.573   5.853
 5550SOL     OW17329   3.264   1.970   6.017
 5550SOL    HW117330   3.254   1.946   5.925
 5550SOL    HW217331   3.359   1.975   6.030
 5551SOL     OW17332   2.119   3.654   6.815
 5551SOL    HW117333   2.170   3.589   6.861
 5551SOL    HW217334   2.107   3.618   6.727
 5552SOL     OW17335   2.799   3.561   6.487
 5552SOL    HW117336   2.874   3.506   6.510
 5552SOL    HW217337   2.754   3.512   6.419
 5553SOL     OW17338   2.243   2.581   6.010
 5553SOL    HW117339   2.285   2.513   6.063
 5553SOL    HW217340   2.152   2.582   6.039
 5554SOL     OW17341   3.398   2.087   7.311
 5554SOL    HW117342   3.405   2.106   7.404
 5554SOL    HW217343   3.325   2.026   7.304
 5555SOL     OW17344   2.513   1.998   5.681
 5555SOL    HW117345   2.557   1.928   5.730
 5555SOL    HW217346   2.461   1.952   5.615
 5556SOL     OW17347   2.738   3.383   6.780
 5556SOL    HW117348   2.723   3.347   6.693
 5556SOL    HW217349   2.807   3.327   6.817
 5557SOL     OW17350   3.202   2.456   7.021
 5557SOL    HW117351   3.233   2.420   7.104
 5557SOL    HW217352   3.243   2.542   7.015
 5558SOL     OW17353   2.675   3.263   6.523
 5558SOL    HW117354   2.759   3.249   6.480
 5558SOL    HW217355   2.611   3.258   6.453
 5559SOL     OW17356   3.291   3.061   5.627
 5559SOL    HW117357   3.322   2.985   5.676
 5559SOL    HW217358   3.204   3.080   5.664
 5560SOL     OW17359   2.830   2.081   6.039
 5560SOL    HW117360   2.767   2.140   5.997
 5560SOL    HW217361   2.914   2.125   6.030
 5561SOL     OW17362   2.938   2.525   7.043
 5561SOL    HW117363   2.898   2.449   7.086
 5561SOL    HW217364   3.031   2.501   7.035
 5562SOL     OW17365   3.087   3.430   6.378
 5562SOL    HW117366   3.104   3.500   6.315
 5562SOL    HW217367   3.154   3.442   6.446
 5563SOL     OW17368   2.334   3.016   6.315
 5563SOL    HW117369   2.263   2.997   6.376
 5563SOL    HW217370   2.300   2.991   6.229
 5564SOL     OW17371   3.132   3.659   6.191
 5564SOL    HW117372   3.175   3.723   6.135
 5564SOL    HW217373   3.062   3.708   6.234
 5565SOL     OW17374   2.891   2.407   5.602
 5565SOL    HW117375   2.844   2.489   5.586
 5565SOL    HW217376   2.949   2.427   5.675
 5566SOL     OW17377   2.413   2.073   6.686
 5566SOL    HW117378   2.469   2.025   6.747
 5566SOL    HW217379   2.353   2.122   6.742
 5567SOL     OW17380   3.299   3.026   6.444
 5567SOL    HW117381   3.232   2.957   6.444
 5567SOL    HW217382   3.321   3.036   6.351
 5568SOL     OW17383   3.330   2.459   6.572
 5568SOL    HW117384   3.290   2.374   6.590
 5568SOL    HW217385   3.396   2.470   6.641
 5569SOL     OW17386   3.723   2.681   5.961
 5569SOL    HW117387   3.767   2.625   6.025
 5569SOL    HW217388   3.685   2.620   5.898
 5570SOL     OW17389   2.354   3.277   5.744
 5570SOL    HW117390   2.279   3.249   5.796
 5570SOL    HW217391   2.335   3.245   5.656
 5571SOL     OW17392   3.528   3.127   6.234
 5571SOL    HW117393   3.623   3.132   6.242
 5571SOL    HW217394   3.497   3.216   6.255
 5572SOL     OW17395   3.257   2.434   5.657
 5572SOL    HW117396   3.194   2.416   5.727
 5572SOL    HW217397   3.340   2.398   5.689
 5573SOL     OW17398   3.614   3.097   7.158
 5573SOL    HW117399   3.701   3.061   7.141
 5573SOL    HW217400   3.631   3.186   7.190
 5574SOL     OW17401   2.921   3.218   6.924
 5574SOL    HW117402   2.846   3.183   6.973
 5574SOL    HW217403   2.997   3.175   6.962
 5575SOL     OW17404   3.468   3.490   7.240
 5575SOL    HW117405   3.461   3.523   7.150
 5575SOL    HW217406   3.550   3.441   7.241
 5576SOL     OW17407   2.993   3.069   6.693
 5576SOL    HW117408   2.929   3.096   6.759
 5576SOL    HW217409   2.952   3.092   6.609
 5577SOL     OW17410   3.494   2.961   6.662
 5577SOL    HW117411   3.488   3.022   6.736
 5577SOL    HW217412   3.414   2.976   6.612
 5578SOL     OW17413   2.851   2.977   7.311
 5578SOL    HW117414   2.757   2.994   7.325
 5578SOL    HW217415   2.853   2.902   7.252
 5579SOL     OW17416   2.570   2.927   5.949
 5579SOL    HW117417   2.552   2.912   6.042
 5579SOL    HW217418   2.647   2.873   5.930
 5580SOL     OW17419   3.142   2.255   6.843
 5580SOL    HW117420   3.168   2.325   6.902
 5580SOL    HW217421   3.047   2.262   6.838
 5581SOL     OW17422   1.931   3.434   6.934
 5581SOL    HW117423   1.899   3.509   6.884
 5581SOL    HW217424   2.026   3.441   6.932
 5582SOL     OW17425   2.219   2.963   6.072
 5582SOL    HW117426   2.217   3.041   6.017
 5582SOL    HW217427   2.211   2.890   6.011
 5583SOL     OW17428   3.109   3.210   5.975
 5583SOL    HW117429   3.165   3.281   6.006
 5583SOL    HW217430   3.023   3.231   6.009
 5584SOL     OW17431   3.140   3.320   6.732
 5584SOL    HW117432   3.194   3.320   6.810
 5584SOL    HW217433   3.085   3.242   6.740
 5585SOL     OW17434   3.444   2.484   6.068
 5585SOL    HW117435   3.398   2.544   6.128
 5585SOL    HW217436   3.487   2.542   6.005
 5586SOL     OW17437   2.211   3.385   6.903
 5586SOL    HW117438   2.198   3.344   6.817
 5586SOL    HW217439   2.305   3.400   6.908
 5587SOL     OW17440   3.463   2.641   7.267
 5587SOL    HW117441   3.376   2.680   7.260
 5587SOL    HW217442   3.514   2.683   7.198
 5588SOL     OW17443   2.374   1.931   7.295
 5588SOL    HW117444   2.311   1.865   7.266
 5588SOL    HW217445   2.321   1.994   7.345
 5589SOL     OW17446   3.218   2.721   6.613
 5589SOL    HW117447   3.132   2.708   6.574
 5589SOL    HW217448   3.256   2.633   6.617
 5590SOL     OW17449   3.069   2.393   5.851
 5590SOL    HW117450   3.077   2.314   5.905
 5590SOL    HW217451   3.028   2.457   5.909
 5591SOL     OW17452   2.240   2.090   6.895
 5591SOL    HW117453   2.159   2.103   6.944
 5591SOL    HW217454   2.229   2.006   6.851
 5592SOL     OW17455   1.914   3.171   6.865
 5592SOL    HW117456   1.937   3.125   6.946
 5592SOL    HW217457   1.914   3.264   6.889
 5593SOL     OW17458   3.594   2.822   7.442
 5593SOL    HW117459   3.551   2.763   7.380
 5593SOL    HW217460   3.530   2.833   7.513
 5594SOL     OW17461   3.479   2.236   5.954
 5594SOL    HW117462   3.506   2.171   6.019
 5594SOL    HW217463   3.455   2.313   6.005
 5595SOL     OW17464   2.928   2.616   6.548
 5595SOL    HW117465   2.915   2.650   6.637
 5595SOL    HW217466   2.865   2.545   6.540
 5596SOL     OW17467   2.846   3.430   7.303
 5596SOL    HW117468   2.829   3.472   7.219
 5596SOL    HW217469   2.887   3.347   7.280
 5597SOL     OW17470   3.708   3.367   7.187
 5597SOL    HW117471   3.729   3.394   7.097
 5597SOL    HW217472   3.789   3.382   7.236
 5598SOL     OW17473   3.393   2.136   5.713
 5598SOL    HW117474   3.328   2.071   5.738
 5598SOL    HW217475   3.425   2.171   5.796
 5599SOL     OW17476   3.155   2.689   5.619
 5599SOL    HW117477   3.197   2.603   5.622
 5599SOL    HW217478   3.186   2.728   5.537
 5600SOL     OW17479   2.924   3.200   6.435
 5600SOL    HW117480   2.930   3.126   6.374
 5600SOL    HW217481   2.989   3.262   6.403
 5601SOL     OW17482   2.218   2.303   6.643
 5601SOL    HW117483   2.135   2.318   6.597
 5601SOL    HW217484   2.285   2.337   6.584
 5602SOL     OW17485   3.004   2.270   7.236
 5602SOL    HW117486   2.957   2.308   7.310
 5602SOL    HW217487   3.095   2.297   7.250
 5603SOL     OW17488   3.047   2.061   7.056
 5603SOL    HW117489   3.017   2.124   7.122
 5603SOL    HW217490   3.060   2.114   6.977
 5604SOL     OW17491   1.867   3.183   5.782
 5604SOL    HW117492   1.780   3.197   5.744
 5604SOL    HW217493   1.864   3.093   5.815
 5605SOL     OW17494   1.957   3.647   6.523
 5605SOL    HW117495   1.926   3.567   6.479
 5605SOL    HW217496   2.043   3.663   6.485
 5606SOL     OW17497   2.360   3.436   6.492
 5606SOL    HW117498   2.428   3.498   6.517
 5606SOL    HW217499   2.405   3.371   6.437
 5607SOL     OW17500   2.859   2.654   6.811
 5607SOL    HW117501   2.905   2.616   6.886
 5607SOL    HW217502   2.772   2.675   6.844
 5608SOL     OW17503   3.239   2.802   7.245
 5608SOL    HW117504   3.259   2.896   7.244
 5608SOL    HW217505   3.237   2.777   7.153
 5609SOL     OW17506   2.702   2.457   5.926
 5609SOL    HW117507   2.704   2.372   5.884
 5609SOL    HW217508   2.618   2.495   5.899
 5610SOL     OW17509   3.507   2.468   6.775
 5610SOL    HW117510   3.492   2.406   6.846
 5610SOL    HW217511   3.591   2.443   6.738
 5611SOL     OW17512   2.107   3.413   7.314
 5611SOL    HW117513   2.085   3.479   7.380
 5611SOL    HW217514   2.109   3.331   7.363
 5612SOL     OW17515   2.792   3.537   7.054
 5612SOL    HW117516   2.766   3.501   6.969
 5612SOL    HW217517   2.784   3.632   7.043
 5613SOL     OW17518   2.317   2.395   5.700
 5613SOL    HW117519   2.380   2.447   5.751
 5613SOL    HW217520   2.231   2.428   5.727
 5614SOL     OW17521   2.007   2.991   7.056
 5614SOL    HW117522   2.046   2.937   7.124
 5614SOL    HW217523   2.014   2.938   6.976
 5615SOL     OW17524   3.190   2.909   6.809
 5615SOL    HW117525   3.212   2.847   6.740
 5615SOL    HW217526   3.119   2.962   6.771
 5616SOL     OW17527   3.171   2.718   5.894
 5616SOL    HW117528   3.095   2.686   5.943
 5616SOL    HW217529   3.148   2.704   5.802
 5617SOL     OW17530   3.634   3.607   6.736
 5617SOL    HW117531   3.692   3.633   6.665
 5617SOL    HW217532   3.609   3.517   6.716
 5618SOL     OW17533   3.105   3.596   6.701
 5618SOL    HW117534   3.188   3.614   6.655
 5618SOL    HW217535   3.108   3.503   6.720
 5619SOL     OW17536   1.953   3.133   6.602
 5619SOL    HW117537   1.930   3.143   6.694
 5619SOL    HW217538   1.881   3.084   6.563
 5620SOL     OW17539   2.541   3.526   7.315
 5620SOL    HW117540   2.488   3.606   7.316
 5620SOL    HW217541   2.600   3.538   7.241
 5621SOL     OW17542   3.576   2.007   6.100
 5621SOL    HW117543   3.645   1.994   6.035
 5621SOL    HW217544   3.564   1.921   6.139
 5622SOL     OW17545   3.251   3.430   6.070
 5622SOL    HW117546   3.312   3.462   6.003
 5622SOL    HW217547   3.205   3.509   6.099
 5623SOL     OW17548   1.994   3.656   7.426
 5623SOL    HW117549   1.942   3.591   7.475
 5623SOL    HW217550   2.044   3.702   7.493
 5624SOL     OW17551   3.137   2.786   6.253
 5624SOL    HW117552   3.212   2.727   6.264
 5624SOL    HW217553   3.172   2.860   6.202
 5625SOL     OW17554   2.678   3.130   7.017
 5625SOL    HW117555   2.650   3.171   7.099
 5625SOL    HW217556   2.609   3.151   6.955
 5626SOL     OW17557   2.537   3.477   5.742
 5626SOL    HW117558   2.544   3.492   5.648
 5626SOL    HW217559   2.480   3.400   5.750
 5627SOL     OW17560   3.488   3.588   6.977
 5627SOL    HW117561   3.540   3.593   6.897
 5627SOL    HW217562   3.476   3.679   7.004
 5628SOL     OW17563   3.698   2.042   6.553
 5628SOL    HW117564   3.729   1.955   6.527
 5628SOL    HW217565   3.611   2.049   6.513
 5629SOL     OW17566   3.068   3.469   5.620
 5629SOL    HW117567   3.059   3.377   5.645
 5629SOL    HW217568   3.007   3.481   5.547
 5630SOL     OW17569   2.701   2.862   6.947
 5630SOL    HW117570   2.713   2.880   6.854
 5630SOL    HW217571   2.687   2.949   6.986
 5631SOL     OW17572   2.781   2.777   5.881
 5631SOL    HW117573   2.839   2.807   5.812
 5631SOL    HW217574   2.824   2.701   5.919
 5632SOL     OW17575   3.353   3.490   5.627
 5632SOL    HW117576   3.259   3.480   5.612
 5632SOL    HW217577   3.391   3.495   5.540
 5633SOL     OW17578   2.225   3.164   7.082
 5633SOL    HW117579   2.224   3.242   7.027
 5633SOL    HW217580   2.146   3.116   7.058
 5634SOL     OW17581   3.467   3.142   6.865
 5634SOL    HW117582   3.533   3.136   6.935
 5634SOL    HW217583   3.409   3.213   6.893
 5635SOL     OW17584   2.910   2.964   6.294
 5635SOL    HW117585   2.842   2.909   6.333
 5635SOL    HW217586   2.975   2.902   6.262
 5636SOL     OW17587   2.464   3.353   6.066
 5636SOL    HW117588   2.506   3.302   5.997
 5636SOL    HW217589   2.397   3.405   6.021
 5637SOL     OW17590   3.584   2.255   6.964
 5637SOL    HW117591   3.657   2.317   6.959
 5637SOL    HW217592   3.612   2.181   6.911
 5638SOL     OW17593   2.121   3.207   5.874
 5638SOL    HW117594   2.028   3.205   5.851
 5638SOL    HW217595   2.124   3.245   5.962
 5639SOL     OW17596   1.892   2.279   5.638
 5639SOL    HW117597   1.861   2.194   5.606
 5639SOL    HW217598   1.951   2.310   5.569
 5640SOL     OW17599   3.293   2.722   6.987
 5640SOL    HW117600   3.243   2.783   6.932
 5640SOL    HW217601   3.381   2.724   6.952
 5641SOL     OW17602   3.041   3.203   5.703
 5641SOL    HW117603   2.950   3.172   5.705
 5641SOL    HW217604   3.069   3.201   5.794
 5642SOL     OW17605   3.347   3.642   6.565
 5642SOL    HW117606   3.374   3.691   6.488
 5642SOL    HW217607   3.429   3.615   6.607
 5643SOL     OW17608   3.332   3.064   7.219
 5643SOL    HW117609   3.321   3.077   7.313
 5643SOL    HW217610   3.426   3.077   7.204
 5644SOL     OW17611   2.241   3.602   7.148
 5644SOL    HW117612   2.155   3.640   7.135
 5644SOL    HW217613   2.224   3.517   7.189
 5645SOL     OW17614   3.530   2.744   6.845
 5645SOL    HW117615   3.528   2.658   6.803
 5645SOL    HW217616   3.524   2.806   6.772
 5646SOL     OW17617   3.089   2.188   6.037
 5646SOL    HW117618   3.147   2.112   6.032
 5646SOL    HW217619   3.113   2.231   6.120
 5647SOL     OW17620   3.625   2.224   7.234
 5647SOL    HW117621   3.607   2.237   7.141
 5647SOL    HW217622   3.555   2.166   7.264
 5648SOL     OW17623   3.615   2.794   7.099
 5648SOL    HW117624   3.608   2.888   7.115
 5648SOL    HW217625   3.593   2.783   7.007
 5649SOL     OW17626   2.725   3.231   5.619
 5649SOL    HW117627   2.684   3.259   5.701
 5649SOL    HW217628   2.743   3.312   5.572
 5650SOL     OW17629   2.521   3.655   6.532
 5650SOL    HW117630   2.499   3.745   6.507
 5650SOL    HW217631   2.616   3.650   6.524
 5651SOL     OW17632   2.940   2.850   5.675
 5651SOL    HW117633   2.919   2.900   5.596
 5651SOL    HW217634   3.015   2.796   5.650
 5652SOL     OW17635   3.717   3.418   6.428
 5652SOL    HW117636   3.638   3.400   6.376
 5652SOL    HW217637   3.716   3.352   6.497
 5653SOL     OW17638   2.086   3.164   7.445
 5653SOL    HW117639   2.002   3.123   7.425
 5653SOL    HW217640   2.082   3.183   7.539
 5654SOL     OW17641   1.944   3.098   6.248
 5654SOL    HW117642   1.942   3.051   6.331
 5654SOL    HW217643   2.017   3.058   6.200
 5655SOL     OW17644   2.537   3.272   7.203
 5655SOL    HW117645   2.468   3.220   7.244
 5655SOL    HW217646   2.535   3.356   7.248
 5656SOL     OW17647   3.684   2.045   6.826
 5656SOL    HW117648   3.668   1.952   6.834
 5656SOL    HW217649   3.691   2.061   6.732
 5657SOL     OW17650   3.561   3.353   6.685
 5657SOL    HW117651   3.481   3.327   6.640
 5657SOL    HW217652   3.577   3.284   6.750
 5658SOL     OW17653   2.688   3.441   6.263
 5658SOL    HW117654   2.676   3.485   6.179
 5658SOL    HW217655   2.612   3.383   6.271
 5659SOL     OW17656   3.300   2.095   6.692
 5659SOL    HW117657   3.301   2.010   6.736
 5659SOL    HW217658   3.242   2.149   6.746
 5660SOL     OW17659   2.634   3.197   5.899
 5660SOL    HW117660   2.602   3.107   5.900
 5660SOL    HW217661   2.717   3.194   5.946
 5661SOL     OW17662   2.481   3.420   6.868
 5661SOL    HW117663   2.485   3.500   6.920
 5661SOL    HW217664   2.569   3.411   6.831
 5662SOL     OW17665   3.218   1.919   5.748
 5662SOL    HW117666   3.245   1.855   5.682
 5662SOL    HW217667   3.131   1.889   5.776
 5663SOL     OW17668   3.150   2.318   6.272
 5663SOL    HW117669   3.101   2.400   6.275
 5663SOL    HW217670   3.161   2.294   6.364
 5664SOL     OW17671   3.444   2.063   6.461
 5664SOL    HW117672   3.388   2.083   6.537
 5664SOL    HW217673   3.446   2.144   6.411
 5665SOL     OW17674   1.906   2.929   5.891
 5665SOL    HW117675   2.000   2.919   5.874
 5665SOL    HW217676   1.872   2.840   5.890
 5666SOL     OW17677   2.745   3.515   5.931
 5666SOL    HW117678   2.675   3.496   5.869
 5666SOL    HW217679   2.714   3.592   5.979
 5667SOL     OW17680   1.861   2.273   8.083
 5667SOL    HW117681   1.789   2.274   8.146
 5667SOL    HW217682   1.840   2.201   8.023
 5668SOL     OW17683   2.428   3.147   8.621
 5668SOL    HW117684   2.340   3.151   8.583
 5668SOL    HW217685   2.444   3.235   8.656
 5669SOL     OW17686   3.421   3.374   8.155
 5669SOL    HW117687   3.378   3.353   8.238
 5669SOL    HW217688   3.350   3.378   8.091
 5670SOL     OW17689   2.989   2.564   8.150
 5670SOL    HW117690   3.042   2.642   8.136
 5670SOL    HW217691   2.946   2.579   8.234
 5671SOL     OW17692   3.626   2.470   7.679
 5671SOL    HW117693   3.608   2.462   7.585
 5671SOL    HW217694   3.592   2.389   7.717
 5672SOL     OW17695   2.618   3.005   8.486
 5672SOL    HW117696   2.549   3.039   8.543
 5672SOL    HW217697   2.654   3.082   8.442
 5673SOL     OW17698   2.726   2.639   9.269
 5673SOL    HW117699   2.714   2.711   9.332
 5673SOL    HW217700   2.750   2.683   9.188
 5674SOL     OW17701   2.543   2.856   8.106
 5674SOL    HW117702   2.610   2.850   8.173
 5674SOL    HW217703   2.477   2.915   8.144
 5675SOL     OW17704   2.571   3.013   9.258
 5675SOL    HW117705   2.619   3.092   9.284
 5675SOL    HW217706   2.488   3.046   9.224
 5676SOL     OW17707   2.194   3.288   8.516
 5676SOL    HW117708   2.120   3.253   8.465
 5676SOL    HW217709   2.243   3.340   8.452
 5677SOL     OW17710   3.323   3.361   8.800
 5677SOL    HW117711   3.372   3.443   8.810
 5677SOL    HW217712   3.264   3.359   8.876
 5678SOL     OW17713   2.292   2.256   8.950
 5678SOL    HW117714   2.384   2.227   8.946
 5678SOL    HW217715   2.242   2.175   8.957
 5679SOL     OW17716   3.474   2.310   8.190
 5679SOL    HW117717   3.401   2.336   8.133
 5679SOL    HW217718   3.495   2.389   8.239
 5680SOL     OW17719   2.083   3.578   7.927
 5680SOL    HW117720   2.117   3.639   7.992
 5680SOL    HW217721   2.152   3.573   7.860
 5681SOL     OW17722   2.998   3.203   9.140
 5681SOL    HW117723   3.039   3.198   9.227
 5681SOL    HW217724   2.945   3.123   9.134
 5682SOL     OW17725   2.090   3.302   7.981
 5682SOL    HW117726   2.074   3.397   7.988
 5682SOL    HW217727   2.031   3.263   8.044
 5683SOL     OW17728   2.118   2.953   8.339
 5683SOL    HW117729   2.116   2.868   8.384
 5683SOL    HW217730   2.060   3.009   8.391
 5684SOL     OW17731   2.475   3.649   8.878
 5684SOL    HW117732   2.393   3.634   8.924
 5684SOL    HW217733   2.500   3.738   8.903
 5685SOL     OW17734   3.458   1.985   8.916
 5685SOL    HW117735   3.461   2.066   8.865
 5685SOL    HW217736   3.446   2.014   9.007
 5686SOL     OW17737   1.926   2.532   8.033
 5686SOL    HW117738   1.918   2.438   8.052
 5686SOL    HW217739   1.941   2.572   8.119
 5687SOL     OW17740   3.699   3.617   7.789
 5687SOL    HW117741   3.766   3.591   7.852
 5687SOL    HW217742   3.723   3.707   7.764
 5688SOL     OW17743   1.891   3.456   7.571
 5688SOL    HW117744   1.873   3.365   7.593
 5688SOL    HW217745   1.869   3.505   7.651
 5689SOL     OW17746   3.549   2.780   8.088
 5689SOL    HW117747   3.634   2.739   8.071
 5689SOL    HW217748   3.531   2.831   8.009
 5690SOL     OW17749   3.503   2.969   7.880
 5690SOL    HW117750   3.587   2.976   7.835
 5690SOL    HW217751   3.510   3.030   7.953
 5691SOL     OW17752   1.981   2.603   9.033
 5691SOL    HW117753   2.073   2.623   9.049
 5691SOL    HW217754   1.936   2.687   9.043
 5692SOL     OW17755   2.476   3.247   8.183
 5692SOL    HW117756   2.429   3.164   8.192
 5692SOL    HW217757   2.459   3.273   8.092
 5693SOL     OW17758   3.151   3.100   8.872
 5693SOL    HW117759   3.184   3.034   8.812
 5693SOL    HW217760   3.208   3.094   8.949
 5694SOL     OW17761   2.695   1.877   7.988
 5694SOL    HW117762   2.725   1.932   7.916
 5694SOL    HW217763   2.602   1.864   7.971
 5695SOL     OW17764   2.054   2.831   8.717
 5695SOL    HW117765   2.137   2.786   8.702
 5695SOL    HW217766   1.988   2.773   8.678
 5696SOL     OW17767   3.393   2.855   7.645
 5696SOL    HW117768   3.323   2.797   7.675
 5696SOL    HW217769   3.432   2.889   7.726
 5697SOL     OW17770   3.071   3.664   9.073
 5697SOL    HW117771   3.057   3.723   8.999
 5697SOL    HW217772   3.074   3.576   9.033
 5698SOL     OW17773   2.255   2.156   9.261
 5698SOL    HW117774   2.302   2.235   9.290
 5698SOL    HW217775   2.163   2.174   9.278
 5699SOL     OW17776   3.326   3.283   8.399
 5699SOL    HW117777   3.259   3.296   8.466
 5699SOL    HW217778   3.316   3.191   8.373
 5700SOL     OW17779   3.514   3.601   8.027
 5700SOL    HW117780   3.502   3.569   7.938
 5700SOL    HW217781   3.495   3.525   8.083
 5701SOL     OW17782   3.140   2.213   8.382
 5701SOL    HW117783   3.051   2.178   8.390
 5701SOL    HW217784   3.192   2.161   8.443
 5702SOL     OW17785   3.439   3.536   7.756
 5702SOL    HW117786   3.530   3.564   7.752
 5702SOL    HW217787   3.416   3.515   7.665
 5703SOL     OW17788   2.656   2.480   8.900
 5703SOL    HW117789   2.630   2.457   8.990
 5703SOL    HW217790   2.613   2.415   8.845
 5704SOL     OW17791   3.256   2.335   9.126
 5704SOL    HW117792   3.257   2.380   9.211
 5704SOL    HW217793   3.317   2.263   9.136
 5705SOL     OW17794   2.818   2.750   9.030
 5705SOL    HW117795   2.873   2.679   8.995
 5705SOL    HW217796   2.771   2.784   8.953
 5706SOL     OW17797   2.855   2.274   8.689
 5706SOL    HW117798   2.771   2.298   8.729
 5706SOL    HW217799   2.830   2.228   8.609
 5707SOL     OW17800   2.915   2.562   7.878
 5707SOL    HW117801   2.936   2.559   7.972
 5707SOL    HW217802   2.834   2.512   7.870
 5708SOL     OW17803   1.950   2.687   8.247
 5708SOL    HW117804   2.034   2.687   8.293
 5708SOL    HW217805   1.909   2.769   8.273
 5709SOL     OW17806   1.987   3.697   9.023
 5709SOL    HW117807   1.986   3.681   9.117
 5709SOL    HW217808   1.896   3.710   8.999
 5710SOL     OW17809   3.574   2.439   9.276
 5710SOL    HW117810   3.535   2.514   9.230
 5710SOL    HW217811   3.595   2.376   9.207
 5711SOL     OW17812   3.237   3.004   7.990
 5711SOL    HW117813   3.316   2.989   7.938
 5711SOL    HW217814   3.185   3.066   7.938
 5712SOL     OW17815   2.403   2.045   8.339
 5712SOL    HW117816   2.419   2.071   8.430
 5712SOL    HW217817   2.421   2.124   8.288
 5713SOL     OW17818   2.870   3.309   7.921
 5713SOL    HW117819   2.829   3.381   7.873
 5713SOL    HW217820   2.853   3.329   8.013
 5714SOL     OW17821   2.213   3.670   8.290
 5714SOL    HW117822   2.263   3.590   8.307
 5714SOL    HW217823   2.274   3.741   8.308
 5715SOL     OW17824   3.665   2.923   8.314
 5715SOL    HW117825   3.610   2.903   8.239
 5715SOL    HW217826   3.605   2.927   8.388
 5716SOL     OW17827   3.089   3.400   8.960
 5716SOL    HW117828   3.075   3.327   9.020
 5716SOL    HW217829   3.026   3.385   8.889
 5717SOL     OW17830   3.337   2.604   8.178
 5717SOL    HW117831   3.331   2.558   8.262
 5717SOL    HW217832   3.416   2.657   8.185
 5718SOL     OW17833   2.327   3.125   9.185
 5718SOL    HW117834   2.299   3.131   9.094
 5718SOL    HW217835   2.246   3.124   9.235
 5719SOL     OW17836   2.975   3.642   7.672
 5719SOL    HW117837   2.914   3.593   7.728
 5719SOL    HW217838   3.004   3.578   7.607
 5720SOL     OW17839   3.489   3.245   7.537
 5720SOL    HW117840   3.446   3.328   7.518
 5720SOL    HW217841   3.422   3.179   7.518
 5721SOL     OW17842   2.331   3.595   7.773
 5721SOL    HW117843   2.367   3.661   7.832
 5721SOL    HW217844   2.404   3.573   7.715
 5722SOL     OW17845   3.263   1.967   7.881
 5722SOL    HW117846   3.254   1.946   7.788
 5722SOL    HW217847   3.357   1.977   7.894
 5723SOL     OW17848   2.120   3.655   8.676
 5723SOL    HW117849   2.169   3.588   8.724
 5723SOL    HW217850   2.106   3.617   8.590
 5724SOL     OW17851   2.800   3.560   8.349
 5724SOL    HW117852   2.878   3.508   8.369
 5724SOL    HW217853   2.754   3.512   8.281
 5725SOL     OW17854   3.399   2.088   9.174
 5725SOL    HW117855   3.408   2.109   9.267
 5725SOL    HW217856   3.331   2.020   9.170
 5726SOL     OW17857   2.629   2.140   9.203
 5726SOL    HW117858   2.703   2.080   9.205
 5726SOL    HW217859   2.576   2.117   9.279
 5727SOL     OW17860   2.738   3.382   8.642
 5727SOL    HW117861   2.723   3.347   8.554
 5727SOL    HW217862   2.808   3.328   8.678
 5728SOL     OW17863   3.203   2.451   8.880
 5728SOL    HW117864   3.234   2.419   8.965
 5728SOL    HW217865   3.239   2.539   8.873
 5729SOL     OW17866   2.676   3.258   8.386
 5729SOL    HW117867   2.760   3.247   8.341
 5729SOL    HW217868   2.612   3.258   8.315
 5730SOL     OW17869   2.797   2.370   8.378
 5730SOL    HW117870   2.777   2.368   8.284
 5730SOL    HW217871   2.830   2.282   8.397
 5731SOL     OW17872   2.393   2.013   8.001
 5731SOL    HW117873   2.329   1.947   8.031
 5731SOL    HW217874   2.398   2.000   7.906
 5732SOL     OW17875   3.291   3.061   7.490
 5732SOL    HW117876   3.322   2.984   7.538
 5732SOL    HW217877   3.203   3.077   7.525
 5733SOL     OW17878   2.942   2.542   8.907
 5733SOL    HW117879   2.874   2.476   8.914
 5733SOL    HW217880   3.024   2.492   8.901
 5734SOL     OW17881   3.085   3.432   8.242
 5734SOL    HW117882   3.103   3.499   8.177
 5734SOL    HW217883   3.154   3.442   8.307
 5735SOL     OW17884   2.329   3.011   8.183
 5735SOL    HW117885   2.260   2.994   8.247
 5735SOL    HW217886   2.286   2.998   8.098
 5736SOL     OW17887   3.132   3.659   8.053
 5736SOL    HW117888   3.175   3.723   7.997
 5736SOL    HW217889   3.062   3.709   8.096
 5737SOL     OW17890   2.910   2.422   7.450
 5737SOL    HW117891   2.852   2.499   7.445
 5737SOL    HW217892   2.949   2.427   7.537
 5738SOL     OW17893   1.938   2.422   8.834
 5738SOL    HW117894   2.031   2.418   8.813
 5738SOL    HW217895   1.932   2.487   8.904
 5739SOL     OW17896   2.457   2.085   8.602
 5739SOL    HW117897   2.496   2.006   8.639
 5739SOL    HW217898   2.373   2.094   8.646
 5740SOL     OW17899   2.743   2.342   8.123
 5740SOL    HW117900   2.678   2.388   8.071
 5740SOL    HW217901   2.761   2.261   8.075
 5741SOL     OW17902   2.870   1.918   8.201
 5741SOL    HW117903   2.811   1.906   8.127
 5741SOL    HW217904   2.855   1.841   8.256
 5742SOL     OW17905   3.299   3.026   8.305
 5742SOL    HW117906   3.230   2.958   8.303
 5742SOL    HW217907   3.324   3.037   8.214
 5743SOL     OW17908   3.328   2.467   8.428
 5743SOL    HW117909   3.281   2.384   8.430
 5743SOL    HW217910   3.389   2.462   8.501
 5744SOL     OW17911   3.722   2.681   7.824
 5744SOL    HW117912   3.767   2.624   7.887
 5744SOL    HW217913   3.685   2.620   7.760
 5745SOL     OW17914   2.353   3.280   7.607
 5745SOL    HW117915   2.277   3.249   7.657
 5745SOL    HW217916   2.342   3.240   7.520
 5746SOL     OW17917   3.528   3.127   8.097
 5746SOL    HW117918   3.623   3.131   8.104
 5746SOL    HW217919   3.498   3.216   8.116
 5747SOL     OW17920   3.258   2.434   7.520
 5747SOL    HW117921   3.193   2.415   7.587
 5747SOL    HW217922   3.339   2.396   7.554
 5748SOL     OW17923   3.614   3.097   9.021
 5748SOL    HW117924   3.701   3.061   9.003
 5748SOL    HW217925   3.631   3.186   9.052
 5749SOL     OW17926   2.921   3.214   8.781
 5749SOL    HW117927   2.847   3.184   8.833
 5749SOL    HW217928   2.998   3.174   8.823
 5750SOL     OW17929   3.468   3.489   9.102
 5750SOL    HW117930   3.461   3.522   9.012
 5750SOL    HW217931   3.550   3.441   9.103
 5751SOL     OW17932   2.988   3.063   8.554
 5751SOL    HW117933   2.931   3.103   8.620
 5751SOL    HW217934   2.956   3.097   8.470
 5752SOL     OW17935   3.494   2.961   8.525
 5752SOL    HW117936   3.487   3.022   8.598
 5752SOL    HW217937   3.414   2.976   8.474
 5753SOL     OW17938   2.780   1.960   8.845
 5753SOL    HW117939   2.804   1.941   8.754
 5753SOL    HW217940   2.859   1.999   8.883
 5754SOL     OW17941   2.846   2.976   9.170
 5754SOL    HW117942   2.754   2.992   9.191
 5754SOL    HW217943   2.845   2.899   9.114
 5755SOL     OW17944   2.590   2.947   7.851
 5755SOL    HW117945   2.577   2.913   7.939
 5755SOL    HW217946   2.653   2.886   7.811
 5756SOL     OW17947   2.280   2.673   8.698
 5756SOL    HW117948   2.347   2.686   8.765
 5756SOL    HW217949   2.245   2.586   8.716
 5757SOL     OW17950   3.128   2.240   8.723
 5757SOL    HW117951   3.161   2.317   8.768
 5757SOL    HW217952   3.039   2.262   8.699
 5758SOL     OW17953   1.931   3.434   8.798
 5758SOL    HW117954   1.901   3.509   8.747
 5758SOL    HW217955   2.027   3.440   8.795
 5759SOL     OW17956   2.208   2.972   7.938
 5759SOL    HW117957   2.221   3.049   7.882
 5759SOL    HW217958   2.248   2.900   7.890
 5760SOL     OW17959   2.412   2.400   8.310
 5760SOL    HW117960   2.431   2.457   8.235
 5760SOL    HW217961   2.475   2.426   8.377
 5761SOL     OW17962   3.110   3.209   7.838
 5761SOL    HW117963   3.166   3.281   7.868
 5761SOL    HW217964   3.023   3.231   7.871
 5762SOL     OW17965   3.141   3.319   8.595
 5762SOL    HW117966   3.197   3.322   8.672
 5762SOL    HW217967   3.086   3.242   8.608
 5763SOL     OW17968   3.445   2.485   7.928
 5763SOL    HW117969   3.398   2.543   7.988
 5763SOL    HW217970   3.486   2.544   7.865
 5764SOL     OW17971   2.209   3.388   8.764
 5764SOL    HW117972   2.196   3.345   8.679
 5764SOL    HW217973   2.303   3.400   8.771
 5765SOL     OW17974   2.275   2.609   9.050
 5765SOL    HW117975   2.338   2.652   8.992
 5765SOL    HW217976   2.314   2.523   9.069
 5766SOL     OW17977   3.462   2.639   9.127
 5766SOL    HW117978   3.376   2.681   9.121
 5766SOL    HW217979   3.514   2.682   9.060
 5767SOL     OW17980   2.857   1.982   9.202
 5767SOL    HW117981   2.912   2.055   9.174
 5767SOL    HW217982   2.907   1.904   9.177
 5768SOL     OW17983   2.372   1.906   9.198
 5768SOL    HW117984   2.318   1.856   9.138
 5768SOL    HW217985   2.324   1.989   9.209
 5769SOL     OW17986   2.443   2.737   8.478
 5769SOL    HW117987   2.477   2.826   8.478
 5769SOL    HW217988   2.390   2.731   8.557
 5770SOL     OW17989   3.221   2.721   8.480
 5770SOL    HW117990   3.140   2.713   8.429
 5770SOL    HW217991   3.261   2.634   8.476
 5771SOL     OW17992   3.070   2.392   7.715
 5771SOL    HW117993   3.078   2.314   7.769
 5771SOL    HW217994   3.031   2.458   7.773
 5772SOL     OW17995   2.229   2.071   8.731
 5772SOL    HW117996   2.146   2.093   8.773
 5772SOL    HW217997   2.222   1.977   8.712
 5773SOL     OW17998   1.909   3.172   8.724
 5773SOL    HW117999   1.941   3.119   8.797
 5773SOL    HW218000   1.915   3.262   8.756
 5774SOL     OW18001   2.581   2.492   8.506
 5774SOL    HW118002   2.662   2.475   8.459
 5774SOL    HW218003   2.560   2.583   8.486
 5775SOL     OW18004   3.594   2.821   9.305
 5775SOL    HW118005   3.550   2.764   9.241
 5775SOL    HW218006   3.531   2.832   9.375
 5776SOL     OW18007   3.477   2.235   7.817
 5776SOL    HW118008   3.506   2.172   7.882
 5776SOL    HW218009   3.455   2.313   7.867
 5777SOL     OW18010   2.890   2.623   8.411
 5777SOL    HW118011   2.889   2.643   8.504
 5777SOL    HW218012   2.866   2.530   8.406
 5778SOL     OW18013   2.846   3.429   9.165
 5778SOL    HW118014   2.829   3.472   9.081
 5778SOL    HW218015   2.888   3.347   9.142
 5779SOL     OW18016   3.708   3.367   9.049
 5779SOL    HW118017   3.730   3.394   8.959
 5779SOL    HW218018   3.789   3.382   9.098
 5780SOL     OW18019   2.215   2.777   9.258
 5780SOL    HW118020   2.298   2.797   9.301
 5780SOL    HW218021   2.238   2.716   9.188
 5781SOL     OW18022   3.394   2.136   7.575
 5781SOL    HW118023   3.329   2.071   7.600
 5781SOL    HW218024   3.425   2.172   7.658
 5782SOL     OW18025   3.157   2.691   7.483
 5782SOL    HW118026   3.194   2.603   7.483
 5782SOL    HW218027   3.185   2.728   7.399
 5783SOL     OW18028   2.927   3.197   8.302
 5783SOL    HW118029   2.930   3.125   8.240
 5783SOL    HW218030   2.989   3.261   8.267
 5784SOL     OW18031   2.177   2.673   8.397
 5784SOL    HW118032   2.270   2.696   8.396
 5784SOL    HW218033   2.174   2.585   8.435
 5785SOL     OW18034   2.188   2.365   8.457
 5785SOL    HW118035   2.153   2.284   8.420
 5785SOL    HW218036   2.267   2.383   8.407
 5786SOL     OW18037   2.996   2.239   9.128
 5786SOL    HW118038   2.949   2.294   9.192
 5786SOL    HW218039   3.084   2.277   9.125
 5787SOL     OW18040   3.022   2.066   8.917
 5787SOL    HW118041   3.012   2.128   8.989
 5787SOL    HW218042   3.062   2.117   8.847
 5788SOL     OW18043   1.865   3.184   7.641
 5788SOL    HW118044   1.778   3.200   7.605
 5788SOL    HW218045   1.860   3.096   7.678
 5789SOL     OW18046   1.956   3.647   8.384
 5789SOL    HW118047   1.926   3.567   8.341
 5789SOL    HW218048   2.043   3.663   8.347
 5790SOL     OW18049   2.360   3.436   8.354
 5790SOL    HW118050   2.427   3.499   8.378
 5790SOL    HW218051   2.405   3.373   8.299
 5791SOL     OW18052   2.847   2.655   8.676
 5791SOL    HW118053   2.904   2.632   8.749
 5791SOL    HW218054   2.761   2.620   8.700
 5792SOL     OW18055   1.901   2.392   8.566
 5792SOL    HW118056   1.984   2.399   8.520
 5792SOL    HW218057   1.922   2.410   8.657
 5793SOL     OW18058   2.069   2.381   9.178
 5793SOL    HW118059   2.120   2.351   9.103
 5793SOL    HW218060   2.003   2.439   9.140
 5794SOL     OW18061   3.239   2.802   9.107
 5794SOL    HW118062   3.260   2.896   9.106
 5794SOL    HW218063   3.236   2.777   9.015
 5795SOL     OW18064   3.504   2.464   8.636
 5795SOL    HW118065   3.493   2.403   8.709
 5795SOL    HW218066   3.589   2.441   8.599
 5796SOL     OW18067   2.108   3.413   9.177
 5796SOL    HW118068   2.084   3.478   9.243
 5796SOL    HW218069   2.107   3.330   9.224
 5797SOL     OW18070   2.554   2.318   8.712
 5797SOL    HW118071   2.518   2.237   8.676
 5797SOL    HW218072   2.554   2.380   8.639
 5798SOL     OW18073   2.793   3.536   8.915
 5798SOL    HW118074   2.765   3.502   8.830
 5798SOL    HW218075   2.786   3.631   8.906
 5799SOL     OW18076   2.009   3.002   8.920
 5799SOL    HW118077   2.012   2.949   9.000
 5799SOL    HW218078   2.027   2.940   8.849
 5800SOL     OW18079   3.188   2.910   8.672
 5800SOL    HW118080   3.213   2.847   8.605
 5800SOL    HW218081   3.117   2.961   8.633
 5801SOL     OW18082   3.173   2.718   7.756
 5801SOL    HW118083   3.094   2.690   7.802
 5801SOL    HW218084   3.152   2.706   7.663
 5802SOL     OW18085   3.634   3.608   8.598
 5802SOL    HW118086   3.693   3.633   8.527
 5802SOL    HW218087   3.609   3.518   8.578
 5803SOL     OW18088   3.105   3.596   8.562
 5803SOL    HW118089   3.187   3.615   8.517
 5803SOL    HW218090   3.108   3.502   8.581
 5804SOL     OW18091   1.946   3.128   8.461
 5804SOL    HW118092   1.932   3.140   8.555
 5804SOL    HW218093   1.872   3.075   8.432
 5805SOL     OW18094   2.540   3.525   9.174
 5805SOL    HW118095   2.486   3.604   9.178
 5805SOL    HW218096   2.600   3.540   9.101
 5806SOL     OW18097   3.577   2.007   7.962
 5806SOL    HW118098   3.645   1.995   7.897
 5806SOL    HW218099   3.565   1.920   8.001
 5807SOL     OW18100   3.252   3.430   7.932
 5807SOL    HW118101   3.312   3.462   7.865
 5807SOL    HW218102   3.205   3.509   7.961
 5808SOL     OW18103   1.994   3.655   9.288
 5808SOL    HW118104   1.942   3.591   9.337
 5808SOL    HW218105   2.044   3.701   9.355
 5809SOL     OW18106   3.139   2.787   8.119
 5809SOL    HW118107   3.213   2.726   8.126
 5809SOL    HW218108   3.172   2.860   8.066
 5810SOL     OW18109   2.678   3.134   8.879
 5810SOL    HW118110   2.651   3.173   8.962
 5810SOL    HW218111   2.608   3.157   8.818
 5811SOL     OW18112   2.537   3.479   7.605
 5811SOL    HW118113   2.545   3.494   7.511
 5811SOL    HW218114   2.481   3.402   7.612
 5812SOL     OW18115   3.487   3.588   8.838
 5812SOL    HW118116   3.540   3.593   8.759
 5812SOL    HW218117   3.476   3.679   8.866
 5813SOL     OW18118   3.699   2.042   8.417
 5813SOL    HW118119   3.730   1.956   8.390
 5813SOL    HW218120   3.613   2.051   8.375
 5814SOL     OW18121   3.068   3.469   7.483
 5814SOL    HW118122   3.059   3.377   7.507
 5814SOL    HW218123   3.007   3.480   7.409
 5815SOL     OW18124   2.686   2.868   8.819
 5815SOL    HW118125   2.732   2.865   8.735
 5815SOL    HW218126   2.686   2.960   8.843
 5816SOL     OW18127   2.783   2.778   7.746
 5816SOL    HW118128   2.838   2.811   7.675
 5816SOL    HW218129   2.834   2.706   7.784
 5817SOL     OW18130   3.353   3.491   7.489
 5817SOL    HW118131   3.259   3.480   7.474
 5817SOL    HW218132   3.391   3.495   7.402
 5818SOL     OW18133   2.232   3.163   8.939
 5818SOL    HW118134   2.218   3.241   8.885
 5818SOL    HW218135   2.154   3.109   8.923
 5819SOL     OW18136   3.466   3.142   8.728
 5819SOL    HW118137   3.534   3.137   8.795
 5819SOL    HW218138   3.409   3.213   8.756
 5820SOL     OW18139   2.912   2.968   8.155
 5820SOL    HW118140   2.842   2.915   8.194
 5820SOL    HW218141   2.974   2.905   8.120
 5821SOL     OW18142   2.882   2.101   8.415
 5821SOL    HW118143   2.877   2.053   8.332
 5821SOL    HW218144   2.878   2.033   8.482
 5822SOL     OW18145   2.463   3.350   7.929
 5822SOL    HW118146   2.508   3.301   7.861
 5822SOL    HW218147   2.400   3.404   7.882
 5823SOL     OW18148   3.583   2.253   8.827
 5823SOL    HW118149   3.655   2.316   8.823
 5823SOL    HW218150   3.612   2.180   8.771
 5824SOL     OW18151   2.119   3.204   7.734
 5824SOL    HW118152   2.026   3.205   7.712
 5824SOL    HW218153   2.123   3.243   7.822
 5825SOL     OW18154   1.974   2.882   9.167
 5825SOL    HW118155   1.898   2.859   9.220
 5825SOL    HW218156   2.048   2.845   9.215
 5826SOL     OW18157   2.537   2.059   8.947
 5826SOL    HW118158   2.622   2.038   8.907
 5826SOL    HW218159   2.558   2.088   9.035
 5827SOL     OW18160   1.961   2.268   7.391
 5827SOL    HW118161   1.887   2.215   7.361
 5827SOL    HW218162   1.935   2.358   7.373
 5828SOL     OW18163   3.292   2.721   8.849
 5828SOL    HW118164   3.243   2.781   8.794
 5828SOL    HW218165   3.381   2.722   8.814
 5829SOL     OW18166   3.041   3.204   7.565
 5829SOL    HW118167   2.952   3.168   7.566
 5829SOL    HW218168   3.069   3.201   7.656
 5830SOL     OW18169   2.481   2.693   8.879
 5830SOL    HW118170   2.536   2.770   8.866
 5830SOL    HW218171   2.543   2.620   8.889
 5831SOL     OW18172   3.347   3.641   8.428
 5831SOL    HW118173   3.374   3.691   8.350
 5831SOL    HW218174   3.429   3.615   8.469
 5832SOL     OW18175   2.579   2.425   9.152
 5832SOL    HW118176   2.617   2.488   9.213
 5832SOL    HW218177   2.610   2.340   9.185
 5833SOL     OW18178   3.332   3.064   9.081
 5833SOL    HW118179   3.321   3.077   9.175
 5833SOL    HW218180   3.426   3.077   9.065
 5834SOL     OW18181   2.241   3.601   9.010
 5834SOL    HW118182   2.155   3.640   8.997
 5834SOL    HW218183   2.223   3.517   9.052
 5835SOL     OW18184   3.529   2.743   8.706
 5835SOL    HW118185   3.527   2.658   8.663
 5835SOL    HW218186   3.524   2.807   8.635
 5836SOL     OW18187   3.089   2.190   7.903
 5836SOL    HW118188   3.146   2.113   7.896
 5836SOL    HW218189   3.117   2.233   7.983
 5837SOL     OW18190   2.461   2.591   8.111
 5837SOL    HW118191   2.496   2.680   8.105
 5837SOL    HW218192   2.385   2.592   8.053
 5838SOL     OW18193   3.625   2.225   9.097
 5838SOL    HW118194   3.607   2.237   9.004
 5838SOL    HW218195   3.556   2.167   9.127
 5839SOL     OW18196   3.613   2.793   8.962
 5839SOL    HW118197   3.610   2.887   8.976
 5839SOL    HW218198   3.592   2.782   8.869
 5840SOL     OW18199   2.721   3.234   7.480
 5840SOL    HW118200   2.684   3.260   7.564
 5840SOL    HW218201   2.743   3.317   7.437
 5841SOL     OW18202   2.521   3.654   8.393
 5841SOL    HW118203   2.499   3.744   8.369
 5841SOL    HW218204   2.616   3.651   8.386
 5842SOL     OW18205   2.728   2.826   8.305
 5842SOL    HW118206   2.781   2.758   8.346
 5842SOL    HW218207   2.697   2.879   8.379
 5843SOL     OW18208   2.946   2.859   7.542
 5843SOL    HW118209   2.918   2.902   7.462
 5843SOL    HW218210   3.015   2.799   7.515
 5844SOL     OW18211   3.717   3.418   8.290
 5844SOL    HW118212   3.639   3.400   8.238
 5844SOL    HW218213   3.717   3.351   8.358
 5845SOL     OW18214   2.087   3.166   9.304
 5845SOL    HW118215   2.019   3.105   9.275
 5845SOL    HW218216   2.069   3.178   9.397
 5846SOL     OW18217   1.947   3.098   8.113
 5846SOL    HW118218   1.945   3.047   8.194
 5846SOL    HW218219   2.016   3.056   8.060
 5847SOL     OW18220   2.543   3.263   9.075
 5847SOL    HW118221   2.463   3.221   9.106
 5847SOL    HW218222   2.538   3.352   9.112
 5848SOL     OW18223   3.677   2.043   8.688
 5848SOL    HW118224   3.672   1.948   8.694
 5848SOL    HW218225   3.689   2.061   8.595
 5849SOL     OW18226   2.316   2.290   7.982
 5849SOL    HW118227   2.328   2.211   7.930
 5849SOL    HW218228   2.269   2.261   8.060
 5850SOL     OW18229   3.561   3.354   8.548
 5850SOL    HW118230   3.481   3.327   8.503
 5850SOL    HW218231   3.577   3.284   8.611
 5851SOL     OW18232   2.192   2.413   8.738
 5851SOL    HW118233   2.242   2.356   8.797
 5851SOL    HW218234   2.211   2.379   8.650
 5852SOL     OW18235   2.688   3.441   8.126
 5852SOL    HW118236   2.679   3.486   8.042
 5852SOL    HW218237   2.611   3.384   8.131
 5853SOL     OW18238   3.293   2.087   8.566
 5853SOL    HW118239   3.321   2.008   8.612
 5853SOL    HW218240   3.242   2.135   8.630
 5854SOL     OW18241   2.870   1.881   8.592
 5854SOL    HW118242   2.817   1.812   8.552
 5854SOL    HW218243   2.959   1.845   8.594
 5855SOL     OW18244   2.635   3.201   7.761
 5855SOL    HW118245   2.603   3.112   7.772
 5855SOL    HW218246   2.720   3.202   7.806
 5856SOL     OW18247   2.482   3.418   8.732
 5856SOL    HW118248   2.484   3.499   8.783
 5856SOL    HW218249   2.569   3.411   8.694
 5857SOL     OW18250   3.220   1.919   7.612
 5857SOL    HW118251   3.244   1.862   7.538
 5857SOL    HW218252   3.137   1.883   7.643
 5858SOL     OW18253   3.159   2.323   8.132
 5858SOL    HW118254   3.107   2.403   8.141
 5858SOL    HW218255   3.156   2.283   8.220
 5859SOL     OW18256   3.445   2.064   8.324
 5859SOL    HW118257   3.385   2.086   8.395
 5859SOL    HW218258   3.448   2.143   8.270
 5860SOL     OW18259   1.894   2.937   7.751
 5860SOL    HW118260   1.990   2.933   7.748
 5860SOL    HW218261   1.867   2.850   7.781
 5861SOL     OW18262   2.744   3.516   7.794
 5861SOL    HW118263   2.675   3.496   7.731
 5861SOL    HW218264   2.713   3.593   7.841
 5862SOL     OW18265   2.090   2.478   9.434
 5862SOL    HW118266   1.999   2.487   9.463
 5862SOL    HW218267   2.083   2.451   9.343
 5863SOL     OW18268   1.857   2.282   9.935
 5863SOL    HW118269   1.773   2.283   9.980
 5863SOL    HW218270   1.856   2.202   9.882
 5864SOL     OW18271   2.429   3.147  10.483
 5864SOL    HW118272   2.341   3.151  10.445
 5864SOL    HW218273   2.444   3.235  10.517
 5865SOL     OW18274   3.421   3.374  10.017
 5865SOL    HW118275   3.378   3.353  10.100
 5865SOL    HW218276   3.349   3.378   9.953
 5866SOL     OW18277   2.991   2.561  10.012
 5866SOL    HW118278   3.041   2.641   9.997
 5866SOL    HW218279   2.945   2.576  10.095
 5867SOL     OW18280   3.627   2.470   9.541
 5867SOL    HW118281   3.608   2.461   9.447
 5867SOL    HW218282   3.592   2.390   9.580
 5868SOL     OW18283   2.619   3.005  10.349
 5868SOL    HW118284   2.549   3.039  10.406
 5868SOL    HW218285   2.654   3.082  10.305
 5869SOL     OW18286   2.725   2.639  11.131
 5869SOL    HW118287   2.714   2.711  11.194
 5869SOL    HW218288   2.750   2.683  11.049
 5870SOL     OW18289   2.548   2.865   9.958
 5870SOL    HW118290   2.613   2.854  10.028
 5870SOL    HW218291   2.478   2.917   9.998
 5871SOL     OW18292   2.571   3.013  11.120
 5871SOL    HW118293   2.619   3.092  11.146
 5871SOL    HW218294   2.488   3.046  11.086
 5872SOL     OW18295   2.193   3.288  10.378
 5872SOL    HW118296   2.120   3.253  10.327
 5872SOL    HW218297   2.243   3.340  10.314
 5873SOL     OW18298   3.323   3.361  10.662
 5873SOL    HW118299   3.372   3.443  10.673
 5873SOL    HW218300   3.264   3.359  10.737
 5874SOL     OW18301   2.290   2.241  10.786
 5874SOL    HW118302   2.380   2.211  10.802
 5874SOL    HW218303   2.235   2.169  10.813
 5875SOL     OW18304   3.474   2.311  10.051
 5875SOL    HW118305   3.400   2.336   9.996
 5875SOL    HW218306   3.493   2.389  10.103
 5876SOL     OW18307   2.083   3.579   9.789
 5876SOL    HW118308   2.118   3.639   9.854
 5876SOL    HW218309   2.151   3.573   9.722
 5877SOL     OW18310   2.998   3.203  11.002
 5877SOL    HW118311   3.038   3.198  11.089
 5877SOL    HW218312   2.945   3.123  10.996
 5878SOL     OW18313   2.090   3.303   9.844
 5878SOL    HW118314   2.073   3.397   9.851
 5878SOL    HW218315   2.031   3.263   9.907
 5879SOL     OW18316   2.117   2.953  10.200
 5879SOL    HW118317   2.114   2.867  10.243
 5879SOL    HW218318   2.060   3.008  10.254
 5880SOL     OW18319   2.475   3.649  10.740
 5880SOL    HW118320   2.393   3.634  10.786
 5880SOL    HW218321   2.500   3.738  10.765
 5881SOL     OW18322   2.450   2.843   9.443
 5881SOL    HW118323   2.494   2.893   9.375
 5881SOL    HW218324   2.490   2.873   9.525
 5882SOL     OW18325   3.458   1.985  10.778
 5882SOL    HW118326   3.460   2.066  10.727
 5882SOL    HW218327   3.446   2.013  10.869
 5883SOL     OW18328   1.981   2.518   9.870
 5883SOL    HW118329   1.944   2.432   9.888
 5883SOL    HW218330   1.970   2.567   9.952
 5884SOL     OW18331   3.699   3.617   9.651
 5884SOL    HW118332   3.766   3.591   9.714
 5884SOL    HW218333   3.723   3.706   9.626
 5885SOL     OW18334   1.889   3.456   9.433
 5885SOL    HW118335   1.875   3.364   9.455
 5885SOL    HW218336   1.869   3.503   9.514
 5886SOL     OW18337   3.550   2.781   9.950
 5886SOL    HW118338   3.634   2.740   9.934
 5886SOL    HW218339   3.531   2.831   9.871
 5887SOL     OW18340   3.503   2.969   9.741
 5887SOL    HW118341   3.588   2.976   9.697
 5887SOL    HW218342   3.510   3.031   9.814
 5888SOL     OW18343   1.981   2.603  10.895
 5888SOL    HW118344   2.073   2.623  10.911
 5888SOL    HW218345   1.936   2.687  10.905
 5889SOL     OW18346   2.475   3.246  10.045
 5889SOL    HW118347   2.429   3.163  10.054
 5889SOL    HW218348   2.458   3.273   9.954
 5890SOL     OW18349   3.151   3.100  10.734
 5890SOL    HW118350   3.184   3.034  10.674
 5890SOL    HW218351   3.208   3.094  10.811
 5891SOL     OW18352   2.672   1.862   9.817
 5891SOL    HW118353   2.713   1.947   9.799
 5891SOL    HW218354   2.579   1.881   9.826
 5892SOL     OW18355   2.054   2.831  10.579
 5892SOL    HW118356   2.137   2.787  10.564
 5892SOL    HW218357   1.989   2.773  10.540
 5893SOL     OW18358   3.392   2.855   9.508
 5893SOL    HW118359   3.322   2.797   9.540
 5893SOL    HW218360   3.432   2.890   9.587
 5894SOL     OW18361   3.072   3.664  10.935
 5894SOL    HW118362   3.057   3.723  10.861
 5894SOL    HW218363   3.074   3.577  10.895
 5895SOL     OW18364   2.258   2.161  11.114
 5895SOL    HW118365   2.301   2.236  11.156
 5895SOL    HW218366   2.165   2.176  11.130
 5896SOL     OW18367   3.326   3.282  10.261
 5896SOL    HW118368   3.259   3.296  10.328
 5896SOL    HW218369   3.316   3.191  10.235
 5897SOL     OW18370   3.515   3.600   9.889
 5897SOL    HW118371   3.502   3.568   9.800
 5897SOL    HW218372   3.495   3.525   9.945
 5898SOL     OW18373   2.457   2.585   9.575
 5898SOL    HW118374   2.465   2.665   9.524
 5898SOL    HW218375   2.393   2.605   9.642
 5899SOL     OW18376   3.141   2.213  10.243
 5899SOL    HW118377   3.052   2.178  10.251
 5899SOL    HW218378   3.192   2.160  10.304
 5900SOL     OW18379   3.439   3.536   9.618
 5900SOL    HW118380   3.530   3.564   9.614
 5900SOL    HW218381   3.416   3.515   9.527
 5901SOL     OW18382   2.655   2.479  10.762
 5901SOL    HW118383   2.629   2.456  10.851
 5901SOL    HW218384   2.613   2.413  10.707
 5902SOL     OW18385   3.256   2.336  10.988
 5902SOL    HW118386   3.257   2.380  11.073
 5902SOL    HW218387   3.317   2.263  10.998
 5903SOL     OW18388   2.818   2.750  10.892
 5903SOL    HW118389   2.872   2.679  10.857
 5903SOL    HW218390   2.771   2.784  10.815
 5904SOL     OW18391   2.855   2.276  10.549
 5904SOL    HW118392   2.771   2.297  10.589
 5904SOL    HW218393   2.832   2.227  10.469
 5905SOL     OW18394   2.912   2.561   9.736
 5905SOL    HW118395   2.927   2.554   9.831
 5905SOL    HW218396   2.830   2.514   9.722
 5906SOL     OW18397   1.950   2.683  10.087
 5906SOL    HW118398   2.032   2.678  10.136
 5906SOL    HW218399   1.907   2.762  10.121
 5907SOL     OW18400   1.987   3.697  10.885
 5907SOL    HW118401   1.986   3.680  10.979
 5907SOL    HW218402   1.896   3.710  10.861
 5908SOL     OW18403   2.754   2.211   9.507
 5908SOL    HW118404   2.796   2.270   9.444
 5908SOL    HW218405   2.759   2.125   9.467
 5909SOL     OW18406   3.574   2.439  11.138
 5909SOL    HW118407   3.535   2.514  11.092
 5909SOL    HW218408   3.595   2.376  11.069
 5910SOL     OW18409   3.237   3.004   9.852
 5910SOL    HW118410   3.316   2.990   9.800
 5910SOL    HW218411   3.185   3.066   9.800
 5911SOL     OW18412   2.408   2.054  10.200
 5911SOL    HW118413   2.408   2.072  10.294
 5911SOL    HW218414   2.428   2.138  10.159
 5912SOL     OW18415   2.870   3.308   9.783
 5912SOL    HW118416   2.829   3.380   9.734
 5912SOL    HW218417   2.853   3.329   9.875
 5913SOL     OW18418   2.213   3.669  10.151
 5913SOL    HW118419   2.263   3.590  10.169
 5913SOL    HW218420   2.274   3.741  10.171
 5914SOL     OW18421   3.665   2.923  10.176
 5914SOL    HW118422   3.609   2.903  10.101
 5914SOL    HW218423   3.605   2.927  10.250
 5915SOL     OW18424   3.090   3.399  10.822
 5915SOL    HW118425   3.075   3.327  10.882
 5915SOL    HW218426   3.026   3.385  10.752
 5916SOL     OW18427   2.183   2.818   9.560
 5916SOL    HW118428   2.265   2.838   9.514
 5916SOL    HW218429   2.152   2.738   9.519
 5917SOL     OW18430   3.338   2.603  10.038
 5917SOL    HW118431   3.330   2.558  10.122
 5917SOL    HW218432   3.416   2.658  10.048
 5918SOL     OW18433   2.327   3.125  11.047
 5918SOL    HW118434   2.300   3.131  10.956
 5918SOL    HW218435   2.246   3.124  11.097
 5919SOL     OW18436   2.975   3.642   9.534
 5919SOL    HW118437   2.914   3.594   9.590
 5919SOL    HW218438   3.004   3.578   9.469
 5920SOL     OW18439   3.489   3.244   9.399
 5920SOL    HW118440   3.446   3.328   9.381
 5920SOL    HW218441   3.421   3.179   9.379
 5921SOL     OW18442   2.331   3.596   9.635
 5921SOL    HW118443   2.366   3.661   9.694
 5921SOL    HW218444   2.404   3.573   9.577
 5922SOL     OW18445   3.263   1.970   9.741
 5922SOL    HW118446   3.253   1.945   9.650
 5922SOL    HW218447   3.357   1.975   9.755
 5923SOL     OW18448   2.119   3.655  10.538
 5923SOL    HW118449   2.169   3.588  10.586
 5923SOL    HW218450   2.106   3.617  10.451
 5924SOL     OW18451   2.800   3.561  10.211
 5924SOL    HW118452   2.877   3.507  10.232
 5924SOL    HW218453   2.754   3.512  10.143
 5925SOL     OW18454   2.254   2.557   9.787
 5925SOL    HW118455   2.275   2.465   9.797
 5925SOL    HW218456   2.160   2.562   9.805
 5926SOL     OW18457   3.399   2.088  11.036
 5926SOL    HW118458   3.407   2.109  11.129
 5926SOL    HW218459   3.331   2.020  11.032
 5927SOL     OW18460   2.506   1.987   9.421
 5927SOL    HW118461   2.572   1.918   9.430
 5927SOL    HW218462   2.449   1.956   9.350
 5928SOL     OW18463   2.629   2.140  11.064
 5928SOL    HW118464   2.703   2.080  11.067
 5928SOL    HW218465   2.576   2.117  11.141
 5929SOL     OW18466   2.738   3.382  10.504
 5929SOL    HW118467   2.723   3.347  10.416
 5929SOL    HW218468   2.808   3.328  10.540
 5930SOL     OW18469   3.203   2.451  10.742
 5930SOL    HW118470   3.234   2.419  10.827
 5930SOL    HW218471   3.239   2.539  10.735
 5931SOL     OW18472   2.676   3.258  10.248
 5931SOL    HW118473   2.760   3.247  10.203
 5931SOL    HW218474   2.611   3.258  10.177
 5932SOL     OW18475   2.788   2.370  10.214
 5932SOL    HW118476   2.766   2.362  10.121
 5932SOL    HW218477   2.823   2.284  10.238
 5933SOL     OW18478   2.405   1.927   9.817
 5933SOL    HW118479   2.341   1.940   9.887
 5933SOL    HW218480   2.394   2.004   9.760
 5934SOL     OW18481   3.290   3.060   9.351
 5934SOL    HW118482   3.322   2.985   9.401
 5934SOL    HW218483   3.204   3.080   9.389
 5935SOL     OW18484   2.799   2.108   9.772
 5935SOL    HW118485   2.772   2.149   9.690
 5935SOL    HW218486   2.894   2.120   9.775
 5936SOL     OW18487   2.942   2.542  10.770
 5936SOL    HW118488   2.873   2.476  10.776
 5936SOL    HW218489   3.023   2.492  10.763
 5937SOL     OW18490   3.085   3.431  10.103
 5937SOL    HW118491   3.103   3.500  10.039
 5937SOL    HW218492   3.154   3.442  10.169
 5938SOL     OW18493   2.330   3.011  10.045
 5938SOL    HW118494   2.260   2.992  10.107
 5938SOL    HW218495   2.291   2.994   9.959
 5939SOL     OW18496   3.132   3.659   9.915
 5939SOL    HW118497   3.175   3.723   9.859
 5939SOL    HW218498   3.062   3.708   9.958
 5940SOL     OW18499   2.887   2.406   9.331
 5940SOL    HW118500   2.844   2.489   9.311
 5940SOL    HW218501   2.951   2.427   9.398
 5941SOL     OW18502   1.936   2.423  10.696
 5941SOL    HW118503   2.029   2.418  10.674
 5941SOL    HW218504   1.932   2.488  10.766
 5942SOL     OW18505   2.414   2.083  10.476
 5942SOL    HW118506   2.462   2.005  10.505
 5942SOL    HW218507   2.331   2.080  10.523
 5943SOL     OW18508   2.727   2.320   9.950
 5943SOL    HW118509   2.686   2.376   9.884
 5943SOL    HW218510   2.751   2.240   9.902
 5944SOL     OW18511   2.875   1.916  10.063
 5944SOL    HW118512   2.819   1.906   9.986
 5944SOL    HW218513   2.855   1.839  10.117
 5945SOL     OW18514   3.298   3.026  10.167
 5945SOL    HW118515   3.230   2.958  10.166
 5945SOL    HW218516   3.323   3.037  10.076
 5946SOL     OW18517   3.328   2.467  10.289
 5946SOL    HW118518   3.280   2.384  10.292
 5946SOL    HW218519   3.389   2.462  10.363
 5947SOL     OW18520   3.722   2.681   9.685
 5947SOL    HW118521   3.767   2.625   9.749
 5947SOL    HW218522   3.685   2.620   9.621
 5948SOL     OW18523   2.354   3.277   9.468
 5948SOL    HW118524   2.279   3.249   9.521
 5948SOL    HW218525   2.335   3.245   9.380
 5949SOL     OW18526   3.528   3.127   9.958
 5949SOL    HW118527   3.623   3.131   9.966
 5949SOL    HW218528   3.498   3.216   9.978
 5950SOL     OW18529   3.256   2.433   9.381
 5950SOL    HW118530   3.195   2.415   9.453
 5950SOL    HW218531   3.340   2.400   9.413
 5951SOL     OW18532   2.386   2.126   9.630
 5951SOL    HW118533   2.427   2.073   9.562
 5951SOL    HW218534   2.367   2.210   9.587
 5952SOL     OW18535   3.614   3.097  10.883
 5952SOL    HW118536   3.701   3.061  10.866
 5952SOL    HW218537   3.631   3.186  10.914
 5953SOL     OW18538   2.921   3.215  10.644
 5953SOL    HW118539   2.847   3.184  10.695
 5953SOL    HW218540   2.997   3.174  10.685
 5954SOL     OW18541   3.468   3.489  10.964
 5954SOL    HW118542   3.461   3.522  10.874
 5954SOL    HW218543   3.550   3.441  10.965
 5955SOL     OW18544   2.989   3.064  10.416
 5955SOL    HW118545   2.931   3.103  10.482
 5955SOL    HW218546   2.955   3.096  10.332
 5956SOL     OW18547   3.494   2.961  10.386
 5956SOL    HW118548   3.487   3.022  10.460
 5956SOL    HW218549   3.414   2.976  10.336
 5957SOL     OW18550   2.779   1.961  10.707
 5957SOL    HW118551   2.803   1.940  10.616
 5957SOL    HW218552   2.858   1.999  10.744
 5958SOL     OW18553   2.846   2.976  11.032
 5958SOL    HW118554   2.754   2.992  11.053
 5958SOL    HW218555   2.845   2.899  10.976
 5959SOL     OW18556   2.570   2.923   9.681
 5959SOL    HW118557   2.557   2.907   9.775
 5959SOL    HW218558   2.646   2.869   9.659
 5960SOL     OW18559   2.279   2.675  10.561
 5960SOL    HW118560   2.348   2.687  10.627
 5960SOL    HW218561   2.244   2.587  10.578
 5961SOL     OW18562   3.128   2.240  10.584
 5961SOL    HW118563   3.161   2.317  10.630
 5961SOL    HW218564   3.039   2.262  10.560
 5962SOL     OW18565   1.931   3.434  10.660
 5962SOL    HW118566   1.901   3.510  10.609
 5962SOL    HW218567   2.027   3.440  10.657
 5963SOL     OW18568   2.213   2.970   9.801
 5963SOL    HW118569   2.217   3.043   9.740
 5963SOL    HW218570   2.211   2.892   9.745
 5964SOL     OW18571   2.412   2.399  10.172
 5964SOL    HW118572   2.427   2.457  10.097
 5964SOL    HW218573   2.477   2.426  10.237
 5965SOL     OW18574   3.110   3.210   9.699
 5965SOL    HW118575   3.166   3.281   9.730
 5965SOL    HW218576   3.023   3.231   9.733
 5966SOL     OW18577   3.141   3.319  10.456
 5966SOL    HW118578   3.197   3.322  10.534
 5966SOL    HW218579   3.086   3.242  10.469
 5967SOL     OW18580   3.443   2.485   9.788
 5967SOL    HW118581   3.398   2.541   9.852
 5967SOL    HW218582   3.487   2.547   9.729
 5968SOL     OW18583   2.209   3.388  10.626
 5968SOL    HW118584   2.196   3.345  10.541
 5968SOL    HW218585   2.303   3.400  10.633
 5969SOL     OW18586   2.275   2.609  10.912
 5969SOL    HW118587   2.338   2.652  10.854
 5969SOL    HW218588   2.315   2.525  10.933
 5970SOL     OW18589   3.462   2.639  10.989
 5970SOL    HW118590   3.376   2.681  10.983
 5970SOL    HW218591   3.514   2.682  10.922
 5971SOL     OW18592   2.857   1.982  11.064
 5971SOL    HW118593   2.912   2.055  11.036
 5971SOL    HW218594   2.906   1.904  11.039
 5972SOL     OW18595   2.372   1.907  11.060
 5972SOL    HW118596   2.318   1.854  11.000
 5972SOL    HW218597   2.325   1.990  11.068
 5973SOL     OW18598   2.445   2.734  10.342
 5973SOL    HW118599   2.476   2.825  10.338
 5973SOL    HW218600   2.389   2.731  10.419
 5974SOL     OW18601   3.221   2.721  10.341
 5974SOL    HW118602   3.139   2.712  10.292
 5974SOL    HW218603   3.261   2.634  10.337
 5975SOL     OW18604   3.068   2.391   9.578
 5975SOL    HW118605   3.076   2.312   9.632
 5975SOL    HW218606   3.025   2.455   9.635
 5976SOL     OW18607   1.908   3.172  10.587
 5976SOL    HW118608   1.941   3.119  10.659
 5976SOL    HW218609   1.915   3.262  10.618
 5977SOL     OW18610   2.584   2.491  10.367
 5977SOL    HW118611   2.660   2.475  10.311
 5977SOL    HW218612   2.559   2.581  10.348
 5978SOL     OW18613   3.594   2.821  11.166
 5978SOL    HW118614   3.550   2.764  11.103
 5978SOL    HW218615   3.531   2.832  11.237
 5979SOL     OW18616   3.477   2.235   9.678
 5979SOL    HW118617   3.505   2.171   9.744
 5979SOL    HW218618   3.455   2.313   9.728
 5980SOL     OW18619   2.889   2.621  10.271
 5980SOL    HW118620   2.888   2.639  10.365
 5980SOL    HW218621   2.863   2.529  10.264
 5981SOL     OW18622   2.846   3.429  11.027
 5981SOL    HW118623   2.829   3.472  10.943
 5981SOL    HW218624   2.888   3.346  11.003
 5982SOL     OW18625   3.708   3.367  10.911
 5982SOL    HW118626   3.730   3.394  10.821
 5982SOL    HW218627   3.789   3.382  10.960
 5983SOL     OW18628   2.215   2.778  11.120
 5983SOL    HW118629   2.298   2.797  11.163
 5983SOL    HW218630   2.237   2.717  11.050
 5984SOL     OW18631   3.392   2.136   9.437
 5984SOL    HW118632   3.328   2.070   9.463
 5984SOL    HW218633   3.425   2.171   9.520
 5985SOL     OW18634   3.154   2.688   9.342
 5985SOL    HW118635   3.198   2.603   9.345
 5985SOL    HW218636   3.186   2.728   9.260
 5986SOL     OW18637   2.927   3.197  10.163
 5986SOL    HW118638   2.930   3.124  10.101
 5986SOL    HW218639   2.989   3.261  10.128
 5987SOL     OW18640   2.172   2.673  10.257
 5987SOL    HW118641   2.265   2.695  10.249
 5987SOL    HW218642   2.172   2.586  10.298
 5988SOL     OW18643   2.190   2.363  10.320
 5988SOL    HW118644   2.150   2.290  10.274
 5988SOL    HW218645   2.269   2.382  10.271
 5989SOL     OW18646   2.996   2.240  10.990
 5989SOL    HW118647   2.949   2.294  11.054
 5989SOL    HW218648   3.084   2.277  10.987
 5990SOL     OW18649   3.022   2.066  10.779
 5990SOL    HW118650   3.012   2.128  10.851
 5990SOL    HW218651   3.061   2.117  10.709
 5991SOL     OW18652   1.867   3.184   9.505
 5991SOL    HW118653   1.780   3.198   9.468
 5991SOL    HW218654   1.864   3.094   9.538
 5992SOL     OW18655   1.956   3.647  10.246
 5992SOL    HW118656   1.926   3.567  10.203
 5992SOL    HW218657   2.043   3.663  10.209
 5993SOL     OW18658   2.359   3.436  10.216
 5993SOL    HW118659   2.427   3.499  10.240
 5993SOL    HW218660   2.405   3.372  10.161
 5994SOL     OW18661   2.847   2.655  10.537
 5994SOL    HW118662   2.903   2.631  10.611
 5994SOL    HW218663   2.761   2.620  10.560
 5995SOL     OW18664   1.900   2.396  10.427
 5995SOL    HW118665   1.985   2.398  10.383
 5995SOL    HW218666   1.921   2.410  10.519
 5996SOL     OW18667   2.066   2.381  11.041
 5996SOL    HW118668   2.115   2.349  10.965
 5996SOL    HW218669   2.001   2.440  11.004
 5997SOL     OW18670   3.239   2.802  10.969
 5997SOL    HW118671   3.260   2.896  10.968
 5997SOL    HW218672   3.236   2.777  10.877
 5998SOL     OW18673   2.677   2.431   9.670
 5998SOL    HW118674   2.683   2.357   9.610
 5998SOL    HW218675   2.604   2.483   9.637
 5999SOL     OW18676   3.504   2.464  10.498
 5999SOL    HW118677   3.492   2.403  10.571
 5999SOL    HW218678   3.589   2.441  10.461
 6000SOL     OW18679   2.108   3.413  11.039
 6000SOL    HW118680   2.084   3.478  11.105
 6000SOL    HW218681   2.107   3.330  11.086
 6001SOL     OW18682   2.556   2.314  10.571
 6001SOL    HW118683   2.507   2.239  10.538
 6001SOL    HW218684   2.556   2.376  10.499
 6002SOL     OW18685   2.793   3.536  10.777
 6002SOL    HW118686   2.765   3.502  10.692
 6002SOL    HW218687   2.786   3.631  10.768
 6003SOL     OW18688   2.328   2.356   9.496
 6003SOL    HW118689   2.385   2.430   9.519
 6003SOL    HW218690   2.241   2.396   9.486
 6004SOL     OW18691   2.009   3.002  10.782
 6004SOL    HW118692   2.012   2.949  10.862
 6004SOL    HW218693   2.027   2.940  10.711
 6005SOL     OW18694   3.188   2.910  10.534
 6005SOL    HW118695   3.213   2.847  10.466
 6005SOL    HW218696   3.118   2.961  10.495
 6006SOL     OW18697   3.172   2.718   9.617
 6006SOL    HW118698   3.095   2.688   9.666
 6006SOL    HW218699   3.148   2.705   9.525
 6007SOL     OW18700   3.634   3.608  10.460
 6007SOL    HW118701   3.692   3.633  10.389
 6007SOL    HW218702   3.609   3.517  10.440
 6008SOL     OW18703   3.105   3.596  10.424
 6008SOL    HW118704   3.187   3.614  10.379
 6008SOL    HW218705   3.108   3.502  10.443
 6009SOL     OW18706   1.945   3.128  10.323
 6009SOL    HW118707   1.932   3.141  10.417
 6009SOL    HW218708   1.872   3.074  10.295
 6010SOL     OW18709   2.540   3.525  11.036
 6010SOL    HW118710   2.486   3.604  11.040
 6010SOL    HW218711   2.600   3.540  10.963
 6011SOL     OW18712   3.576   2.007   9.824
 6011SOL    HW118713   3.645   1.994   9.759
 6011SOL    HW218714   3.564   1.920   9.863
 6012SOL     OW18715   3.251   3.430   9.794
 6012SOL    HW118716   3.312   3.462   9.727
 6012SOL    HW218717   3.205   3.509   9.823
 6013SOL     OW18718   1.994   3.655  11.150
 6013SOL    HW118719   1.942   3.591  11.199
 6013SOL    HW218720   2.044   3.701  11.217
 6014SOL     OW18721   3.139   2.787   9.981
 6014SOL    HW118722   3.213   2.726   9.987
 6014SOL    HW218723   3.173   2.860   9.929
 6015SOL     OW18724   2.678   3.134  10.741
 6015SOL    HW118725   2.651   3.173  10.824
 6015SOL    HW218726   2.608   3.157  10.680
 6016SOL     OW18727   2.537   3.477   9.466
 6016SOL    HW118728   2.544   3.492   9.372
 6016SOL    HW218729   2.480   3.400   9.474
 6017SOL     OW18730   3.487   3.588  10.700
 6017SOL    HW118731   3.540   3.593  10.621
 6017SOL    HW218732   3.476   3.679  10.728
 6018SOL     OW18733   3.699   2.042  10.279
 6018SOL    HW118734   3.730   1.956  10.252
 6018SOL    HW218735   3.613   2.051  10.237
 6019SOL     OW18736   3.068   3.469   9.344
 6019SOL    HW118737   3.059   3.377   9.369
 6019SOL    HW218738   3.007   3.481   9.272
 6020SOL     OW18739   2.686   2.868  10.681
 6020SOL    HW118740   2.730   2.865  10.597
 6020SOL    HW218741   2.686   2.960  10.705
 6021SOL     OW18742   2.778   2.772   9.600
 6021SOL    HW118743   2.839   2.804   9.533
 6021SOL    HW218744   2.825   2.702   9.645
 6022SOL     OW18745   3.353   3.490   9.351
 6022SOL    HW118746   3.259   3.480   9.336
 6022SOL    HW218747   3.391   3.495   9.264
 6023SOL     OW18748   2.232   3.164  10.801
 6023SOL    HW118749   2.218   3.241  10.747
 6023SOL    HW218750   2.154   3.109  10.785
 6024SOL     OW18751   3.466   3.142  10.589
 6024SOL    HW118752   3.534   3.137  10.657
 6024SOL    HW218753   3.409   3.213  10.618
 6025SOL     OW18754   2.912   2.968  10.016
 6025SOL    HW118755   2.842   2.917  10.055
 6025SOL    HW218756   2.974   2.903   9.983
 6026SOL     OW18757   2.881   2.102  10.276
 6026SOL    HW118758   2.877   2.054  10.193
 6026SOL    HW218759   2.878   2.034  10.344
 6027SOL     OW18760   2.464   3.352   9.791
 6027SOL    HW118761   2.506   3.301   9.722
 6027SOL    HW218762   2.398   3.404   9.745
 6028SOL     OW18763   3.583   2.253  10.689
 6028SOL    HW118764   3.655   2.316  10.685
 6028SOL    HW218765   3.612   2.180  10.633
 6029SOL     OW18766   2.121   3.208   9.598
 6029SOL    HW118767   2.028   3.205   9.575
 6029SOL    HW218768   2.123   3.245   9.686
 6030SOL     OW18769   1.974   2.882  11.029
 6030SOL    HW118770   1.898   2.859  11.082
 6030SOL    HW218771   2.048   2.845  11.077
 6031SOL     OW18772   2.536   2.060  10.808
 6031SOL    HW118773   2.620   2.039  10.768
 6031SOL    HW218774   2.558   2.088  10.897
 6032SOL     OW18775   3.292   2.721  10.711
 6032SOL    HW118776   3.243   2.781  10.656
 6032SOL    HW218777   3.381   2.722  10.676
 6033SOL     OW18778   3.041   3.203   9.427
 6033SOL    HW118779   2.950   3.173   9.429
 6033SOL    HW218780   3.069   3.201   9.518
 6034SOL     OW18781   2.481   2.693  10.742
 6034SOL    HW118782   2.536   2.770  10.728
 6034SOL    HW218783   2.543   2.620  10.751
 6035SOL     OW18784   3.347   3.641  10.289
 6035SOL    HW118785   3.374   3.691  10.212
 6035SOL    HW218786   3.429   3.615  10.331
 6036SOL     OW18787   2.579   2.425  11.014
 6036SOL    HW118788   2.617   2.488  11.074
 6036SOL    HW218789   2.609   2.340  11.046
 6037SOL     OW18790   3.332   3.064  10.943
 6037SOL    HW118791   3.321   3.077  11.037
 6037SOL    HW218792   3.426   3.077  10.927
 6038SOL     OW18793   2.241   3.601  10.872
 6038SOL    HW118794   2.155   3.640  10.858
 6038SOL    HW218795   2.223   3.517  10.914
 6039SOL     OW18796   3.530   2.743  10.568
 6039SOL    HW118797   3.526   2.658  10.525
 6039SOL    HW218798   3.524   2.807  10.497
 6040SOL     OW18799   3.080   2.181   9.768
 6040SOL    HW118800   3.143   2.110   9.758
 6040SOL    HW218801   3.109   2.230   9.845
 6041SOL     OW18802   2.451   2.600   9.979
 6041SOL    HW118803   2.492   2.685   9.964
 6041SOL    HW218804   2.383   2.594   9.912
 6042SOL     OW18805   3.625   2.225  10.959
 6042SOL    HW118806   3.607   2.237  10.865
 6042SOL    HW218807   3.556   2.167  10.989
 6043SOL     OW18808   3.613   2.793  10.824
 6043SOL    HW118809   3.609   2.887  10.839
 6043SOL    HW218810   3.592   2.782  10.731
 6044SOL     OW18811   2.725   3.230   9.343
 6044SOL    HW118812   2.684   3.257   9.425
 6044SOL    HW218813   2.742   3.312   9.296
 6045SOL     OW18814   2.521   3.654  10.255
 6045SOL    HW118815   2.499   3.745  10.231
 6045SOL    HW218816   2.616   3.651  10.248
 6046SOL     OW18817   2.728   2.828  10.166
 6046SOL    HW118818   2.779   2.757  10.206
 6046SOL    HW218819   2.695   2.878  10.240
 6047SOL     OW18820   2.941   2.850   9.398
 6047SOL    HW118821   2.920   2.901   9.320
 6047SOL    HW218822   3.017   2.797   9.373
 6048SOL     OW18823   3.717   3.418  10.152
 6048SOL    HW118824   3.638   3.400  10.100
 6048SOL    HW218825   3.716   3.352  10.221
 6049SOL     OW18826   2.087   3.166  11.166
 6049SOL    HW118827   2.019   3.105  11.137
 6049SOL    HW218828   2.070   3.178  11.259
 6050SOL     OW18829   1.946   3.096   9.974
 6050SOL    HW118830   1.950   3.048  10.056
 6050SOL    HW218831   2.014   3.057   9.920
 6051SOL     OW18832   2.543   3.263  10.937
 6051SOL    HW118833   2.463   3.221  10.968
 6051SOL    HW218834   2.538   3.352  10.974
 6052SOL     OW18835   3.677   2.043  10.550
 6052SOL    HW118836   3.671   1.948  10.556
 6052SOL    HW218837   3.689   2.061  10.456
 6053SOL     OW18838   2.293   2.294   9.835
 6053SOL    HW118839   2.322   2.231   9.768
 6053SOL    HW218840   2.246   2.241   9.899
 6054SOL     OW18841   3.561   3.354  10.410
 6054SOL    HW118842   3.481   3.327  10.364
 6054SOL    HW218843   3.577   3.284  10.473
 6055SOL     OW18844   2.191   2.416  10.598
 6055SOL    HW118845   2.237   2.356  10.657
 6055SOL    HW218846   2.210   2.383  10.511
 6056SOL     OW18847   2.688   3.440   9.988
 6056SOL    HW118848   2.678   3.486   9.904
 6056SOL    HW218849   2.611   3.383   9.994
 6057SOL     OW18850   3.294   2.087  10.428
 6057SOL    HW118851   3.319   2.007  10.473
 6057SOL    HW218852   3.242   2.136  10.492
 6058SOL     OW18853   2.870   1.881  10.454
 6058SOL    HW118854   2.816   1.812  10.415
 6058SOL    HW218855   2.958   1.844  10.456
 6059SOL     OW18856   2.634   3.194   9.624
 6059SOL    HW118857   2.601   3.104   9.629
 6059SOL    HW218858   2.716   3.192   9.671
 6060SOL     OW18859   2.482   3.418  10.594
 6060SOL    HW118860   2.484   3.499  10.645
 6060SOL    HW218861   2.569   3.411  10.556
 6061SOL     OW18862   3.214   1.916   9.474
 6061SOL    HW118863   3.242   1.853   9.408
 6061SOL    HW218864   3.127   1.886   9.501
 6062SOL     OW18865   3.158   2.322   9.992
 6062SOL    HW118866   3.105   2.402  10.000
 6062SOL    HW218867   3.155   2.282  10.079
 6063SOL     OW18868   3.446   2.065  10.186
 6063SOL    HW118869   3.385   2.085  10.257
 6063SOL    HW218870   3.447   2.144  10.132
 6064SOL     OW18871   1.905   2.934   9.616
 6064SOL    HW118872   1.999   2.925   9.599
 6064SOL    HW218873   1.877   2.845   9.639
 6065SOL     OW18874   2.745   3.516   9.655
 6065SOL    HW118875   2.675   3.496   9.593
 6065SOL    HW218876   2.714   3.592   9.703
 6066SOL     OW18877   2.089   2.479  11.296
 6066SOL    HW118878   1.999   2.487  11.326
 6066SOL    HW218879   2.083   2.451  11.205
 6067SOL     OW18880   1.856   2.282  11.797
 6067SOL    HW118881   1.772   2.284  11.843
 6067SOL    HW218882   1.852   2.200  11.746
 6068SOL     OW18883   2.429   3.147  12.345
 6068SOL    HW118884   2.341   3.151  12.307
 6068SOL    HW218885   2.444   3.235  12.380
 6069SOL     OW18886   3.421   3.374  11.879
 6069SOL    HW118887   3.378   3.353  11.962
 6069SOL    HW218888   3.349   3.378  11.815
 6070SOL     OW18889   2.991   2.561  11.874
 6070SOL    HW118890   3.041   2.641  11.859
 6070SOL    HW218891   2.945   2.576  11.957
 6071SOL     OW18892   3.627   2.470  11.403
 6071SOL    HW118893   3.608   2.461  11.309
 6071SOL    HW218894   3.592   2.390  11.442
 6072SOL     OW18895   2.619   3.005  12.211
 6072SOL    HW118896   2.549   3.039  12.268
 6072SOL    HW218897   2.654   3.082  12.167
 6073SOL     OW18898   2.725   2.639  12.993
 6073SOL    HW118899   2.714   2.711  13.056
 6073SOL    HW218900   2.750   2.683  12.911
 6074SOL     OW18901   2.548   2.865  11.820
 6074SOL    HW118902   2.613   2.854  11.890
 6074SOL    HW218903   2.478   2.917  11.860
 6075SOL     OW18904   2.571   3.013  12.982
 6075SOL    HW118905   2.619   3.092  13.008
 6075SOL    HW218906   2.488   3.046  12.948
 6076SOL     OW18907   2.193   3.288  12.240
 6076SOL    HW118908   2.120   3.253  12.189
 6076SOL    HW218909   2.243   3.340  12.176
 6077SOL     OW18910   3.323   3.361  12.524
 6077SOL    HW118911   3.372   3.443  12.535
 6077SOL    HW218912   3.264   3.358  12.599
 6078SOL     OW18913   2.292   2.242  12.646
 6078SOL    HW118914   2.382   2.212  12.662
 6078SOL    HW218915   2.237   2.171  12.680
 6079SOL     OW18916   3.474   2.311  11.913
 6079SOL    HW118917   3.400   2.336  11.858
 6079SOL    HW218918   3.493   2.389  11.965
 6080SOL     OW18919   2.083   3.579  11.651
 6080SOL    HW118920   2.118   3.639  11.716
 6080SOL    HW218921   2.151   3.573  11.584
 6081SOL     OW18922   2.998   3.203  12.864
 6081SOL    HW118923   3.038   3.199  12.951
 6081SOL    HW218924   2.945   3.124  12.858
 6082SOL     OW18925   2.090   3.303  11.706
 6082SOL    HW118926   2.073   3.397  11.713
 6082SOL    HW218927   2.031   3.263  11.769
 6083SOL     OW18928   2.117   2.953  12.062
 6083SOL    HW118929   2.114   2.867  12.105
 6083SOL    HW218930   2.060   3.008  12.116
 6084SOL     OW18931   2.475   3.649  12.602
 6084SOL    HW118932   2.393   3.634  12.648
 6084SOL    HW218933   2.500   3.738  12.627
 6085SOL     OW18934   2.450   2.842  11.305
 6085SOL    HW118935   2.494   2.893  11.237
 6085SOL    HW218936   2.490   2.873  11.387
 6086SOL     OW18937   3.458   1.985  12.640
 6086SOL    HW118938   3.459   2.066  12.589
 6086SOL    HW218939   3.446   2.013  12.731
 6087SOL     OW18940   1.981   2.518  11.732
 6087SOL    HW118941   1.944   2.431  11.750
 6087SOL    HW218942   1.970   2.566  11.814
 6088SOL     OW18943   3.699   3.617  11.512
 6088SOL    HW118944   3.766   3.591  11.576
 6088SOL    HW218945   3.723   3.706  11.488
 6089SOL     OW18946   1.889   3.456  11.295
 6089SOL    HW118947   1.875   3.364  11.317
 6089SOL    HW218948   1.869   3.504  11.376
 6090SOL     OW18949   3.550   2.781  11.812
 6090SOL    HW118950   3.634   2.740  11.796
 6090SOL    HW218951   3.532   2.831  11.733
 6091SOL     OW18952   3.503   2.969  11.603
 6091SOL    HW118953   3.588   2.976  11.559
 6091SOL    HW218954   3.510   3.031  11.676
 6092SOL     OW18955   1.981   2.603  12.757
 6092SOL    HW118956   2.074   2.623  12.773
 6092SOL    HW218957   1.937   2.687  12.767
 6093SOL     OW18958   2.476   3.246  11.907
 6093SOL    HW118959   2.429   3.163  11.916
 6093SOL    HW218960   2.458   3.273  11.816
 6094SOL     OW18961   3.151   3.100  12.596
 6094SOL    HW118962   3.184   3.034  12.536
 6094SOL    HW218963   3.208   3.094  12.673
 6095SOL     OW18964   2.673   1.862  11.679
 6095SOL    HW118965   2.713   1.947  11.661
 6095SOL    HW218966   2.579   1.881  11.688
 6096SOL     OW18967   2.054   2.831  12.440
 6096SOL    HW118968   2.137   2.787  12.426
 6096SOL    HW218969   1.989   2.772  12.402
 6097SOL     OW18970   3.392   2.855  11.370
 6097SOL    HW118971   3.322   2.797  11.402
 6097SOL    HW218972   3.432   2.890  11.449
 6098SOL     OW18973   3.071   3.664  12.796
 6098SOL    HW118974   3.057   3.723  12.723
 6098SOL    HW218975   3.074   3.576  12.757
 6099SOL     OW18976   2.257   2.162  12.971
 6099SOL    HW118977   2.300   2.232  13.020
 6099SOL    HW218978   2.163   2.179  12.984
 6100SOL     OW18979   3.326   3.282  12.123
 6100SOL    HW118980   3.259   3.296  12.190
 6100SOL    HW218981   3.316   3.191  12.097
 6101SOL     OW18982   3.515   3.600  11.751
 6101SOL    HW118983   3.502   3.568  11.662
 6101SOL    HW218984   3.495   3.525  11.807
 6102SOL     OW18985   2.457   2.584  11.437
 6102SOL    HW118986   2.465   2.664  11.386
 6102SOL    HW218987   2.392   2.605  11.504
 6103SOL     OW18988   3.141   2.213  12.104
 6103SOL    HW118989   3.052   2.178  12.113
 6103SOL    HW218990   3.192   2.160  12.166
 6104SOL     OW18991   3.439   3.536  11.480
 6104SOL    HW118992   3.530   3.564  11.476
 6104SOL    HW218993   3.416   3.515  11.389
 6105SOL     OW18994   2.655   2.479  12.623
 6105SOL    HW118995   2.630   2.456  12.713
 6105SOL    HW218996   2.613   2.413  12.569
 6106SOL     OW18997   3.256   2.336  12.850
 6106SOL    HW118998   3.257   2.380  12.935
 6106SOL    HW218999   3.317   2.263  12.860
 6107SOL     OW19000   2.818   2.750  12.754
 6107SOL    HW119001   2.873   2.679  12.719
 6107SOL    HW219002   2.771   2.784  12.677
 6108SOL     OW19003   2.855   2.275  12.411
 6108SOL    HW119004   2.771   2.297  12.451
 6108SOL    HW219005   2.832   2.227  12.331
 6109SOL     OW19006   2.912   2.561  11.598
 6109SOL    HW119007   2.927   2.554  11.693
 6109SOL    HW219008   2.830   2.514  11.584
 6110SOL     OW19009   1.950   2.683  11.949
 6110SOL    HW119010   2.032   2.678  11.998
 6110SOL    HW219011   1.907   2.762  11.983
 6111SOL     OW19012   1.987   3.697  12.747
 6111SOL    HW119013   1.986   3.681  12.841
 6111SOL    HW219014   1.896   3.710  12.723
 6112SOL     OW19015   2.754   2.211  11.369
 6112SOL    HW119016   2.796   2.270  11.306
 6112SOL    HW219017   2.759   2.125  11.329
 6113SOL     OW19018   3.574   2.440  13.000
 6113SOL    HW119019   3.535   2.514  12.954
 6113SOL    HW219020   3.595   2.377  12.931
 6114SOL     OW19021   3.237   3.004  11.714
 6114SOL    HW119022   3.316   2.990  11.662
 6114SOL    HW219023   3.185   3.066  11.662
 6115SOL     OW19024   2.408   2.054  12.062
 6115SOL    HW119025   2.408   2.071  12.156
 6115SOL    HW219026   2.428   2.138  12.022
 6116SOL     OW19027   2.870   3.308  11.645
 6116SOL    HW119028   2.829   3.380  11.596
 6116SOL    HW219029   2.853   3.329  11.737
 6117SOL     OW19030   2.213   3.669  12.013
 6117SOL    HW119031   2.263   3.590  12.031
 6117SOL    HW219032   2.274   3.741  12.033
 6118SOL     OW19033   3.665   2.923  12.038
 6118SOL    HW119034   3.609   2.903  11.963
 6118SOL    HW219035   3.605   2.927  12.112
 6119SOL     OW19036   3.090   3.399  12.684
 6119SOL    HW119037   3.075   3.327  12.745
 6119SOL    HW219038   3.026   3.385  12.614
 6120SOL     OW19039   2.183   2.818  11.422
 6120SOL    HW119040   2.265   2.838  11.376
 6120SOL    HW219041   2.152   2.738  11.381
 6121SOL     OW19042   3.338   2.603  11.900
 6121SOL    HW119043   3.330   2.558  11.984
 6121SOL    HW219044   3.416   2.658  11.910
 6122SOL     OW19045   2.327   3.125  12.909
 6122SOL    HW119046   2.299   3.131  12.818
 6122SOL    HW219047   2.246   3.124  12.959
 6123SOL     OW19048   2.975   3.642  11.396
 6123SOL    HW119049   2.914   3.594  11.452
 6123SOL    HW219050   3.004   3.578  11.331
 6124SOL     OW19051   3.489   3.244  11.260
 6124SOL    HW119052   3.446   3.328  11.243
 6124SOL    HW219053   3.421   3.179  11.241
 6125SOL     OW19054   2.331   3.596  11.497
 6125SOL    HW119055   2.366   3.661  11.556
 6125SOL    HW219056   2.404   3.573  11.439
 6126SOL     OW19057   3.263   1.970  11.603
 6126SOL    HW119058   3.253   1.945  11.512
 6126SOL    HW219059   3.357   1.975  11.617
 6127SOL     OW19060   2.119   3.655  12.400
 6127SOL    HW119061   2.169   3.588  12.448
 6127SOL    HW219062   2.106   3.617  12.313
 6128SOL     OW19063   2.800   3.561  12.073
 6128SOL    HW119064   2.877   3.507  12.094
 6128SOL    HW219065   2.754   3.512  12.005
 6129SOL     OW19066   2.253   2.557  11.649
 6129SOL    HW119067   2.275   2.465  11.659
 6129SOL    HW219068   2.160   2.562  11.667
 6130SOL     OW19069   3.399   2.087  12.898
 6130SOL    HW119070   3.407   2.109  12.991
 6130SOL    HW219071   3.331   2.020  12.894
 6131SOL     OW19072   2.506   1.987  11.282
 6131SOL    HW119073   2.572   1.918  11.292
 6131SOL    HW219074   2.449   1.956  11.211
 6132SOL     OW19075   2.629   2.140  12.926
 6132SOL    HW119076   2.703   2.080  12.929
 6132SOL    HW219077   2.577   2.117  13.003
 6133SOL     OW19078   2.738   3.382  12.366
 6133SOL    HW119079   2.723   3.347  12.278
 6133SOL    HW219080   2.808   3.328  12.402
 6134SOL     OW19081   3.203   2.451  12.604
 6134SOL    HW119082   3.234   2.419  12.689
 6134SOL    HW219083   3.239   2.539  12.597
 6135SOL     OW19084   2.676   3.258  12.110
 6135SOL    HW119085   2.760   3.247  12.065
 6135SOL    HW219086   2.611   3.258  12.039
 6136SOL     OW19087   2.788   2.370  12.076
 6136SOL    HW119088   2.766   2.362  11.983
 6136SOL    HW219089   2.823   2.284  12.100
 6137SOL     OW19090   2.405   1.927  11.679
 6137SOL    HW119091   2.341   1.939  11.749
 6137SOL    HW219092   2.394   2.004  11.622
 6138SOL     OW19093   3.290   3.060  11.213
 6138SOL    HW119094   3.322   2.985  11.263
 6138SOL    HW219095   3.204   3.080  11.251
 6139SOL     OW19096   2.799   2.108  11.634
 6139SOL    HW119097   2.772   2.149  11.552
 6139SOL    HW219098   2.894   2.120  11.637
 6140SOL     OW19099   2.942   2.542  12.632
 6140SOL    HW119100   2.873   2.476  12.638
 6140SOL    HW219101   3.023   2.492  12.625
 6141SOL     OW19102   3.086   3.431  11.965
 6141SOL    HW119103   3.103   3.500  11.901
 6141SOL    HW219104   3.154   3.442  12.031
 6142SOL     OW19105   2.330   3.011  11.907
 6142SOL    HW119106   2.260   2.992  11.969
 6142SOL    HW219107   2.291   2.994  11.821
 6143SOL     OW19108   3.132   3.659  11.777
 6143SOL    HW119109   3.175   3.723  11.721
 6143SOL    HW219110   3.062   3.708  11.820
 6144SOL     OW19111   2.887   2.406  11.193
 6144SOL    HW119112   2.844   2.489  11.173
 6144SOL    HW219113   2.951   2.427  11.260
 6145SOL     OW19114   1.936   2.423  12.558
 6145SOL    HW119115   2.029   2.418  12.536
 6145SOL    HW219116   1.932   2.488  12.628
 6146SOL     OW19117   2.414   2.083  12.338
 6146SOL    HW119118   2.461   2.005  12.368
 6146SOL    HW219119   2.331   2.081  12.386
 6147SOL     OW19120   2.727   2.320  11.812
 6147SOL    HW119121   2.686   2.376  11.746
 6147SOL    HW219122   2.751   2.240  11.764
 6148SOL     OW19123   2.875   1.916  11.925
 6148SOL    HW119124   2.819   1.906  11.848
 6148SOL    HW219125   2.855   1.839  11.979
 6149SOL     OW19126   3.298   3.026  12.029
 6149SOL    HW119127   3.230   2.958  12.028
 6149SOL    HW219128   3.323   3.037  11.938
 6150SOL     OW19129   3.328   2.467  12.151
 6150SOL    HW119130   3.280   2.384  12.154
 6150SOL    HW219131   3.389   2.462  12.225
 6151SOL     OW19132   3.722   2.681  11.547
 6151SOL    HW119133   3.767   2.625  11.611
 6151SOL    HW219134   3.685   2.620  11.484
 6152SOL     OW19135   2.354   3.277  11.330
 6152SOL    HW119136   2.279   3.249  11.383
 6152SOL    HW219137   2.335   3.245  11.242
 6153SOL     OW19138   3.528   3.127  11.820
 6153SOL    HW119139   3.623   3.132  11.828
 6153SOL    HW219140   3.498   3.216  11.840
 6154SOL     OW19141   3.256   2.433  11.244
 6154SOL    HW119142   3.195   2.415  11.315
 6154SOL    HW219143   3.340   2.400  11.275
 6155SOL     OW19144   2.387   2.127  11.493
 6155SOL    HW119145   2.427   2.073  11.424
 6155SOL    HW219146   2.367   2.210  11.450
 6156SOL     OW19147   3.614   3.097  12.744
 6156SOL    HW119148   3.701   3.061  12.727
 6156SOL    HW219149   3.631   3.185  12.776
 6157SOL     OW19150   2.921   3.215  12.506
 6157SOL    HW119151   2.847   3.184  12.557
 6157SOL    HW219152   2.997   3.174  12.547
 6158SOL     OW19153   3.468   3.489  12.825
 6158SOL    HW119154   3.461   3.522  12.736
 6158SOL    HW219155   3.550   3.441  12.827
 6159SOL     OW19156   2.989   3.064  12.278
 6159SOL    HW119157   2.931   3.103  12.344
 6159SOL    HW219158   2.955   3.096  12.194
 6160SOL     OW19159   3.494   2.961  12.249
 6160SOL    HW119160   3.487   3.022  12.322
 6160SOL    HW219161   3.414   2.976  12.198
 6161SOL     OW19162   2.779   1.960  12.569
 6161SOL    HW119163   2.803   1.940  12.478
 6161SOL    HW219164   2.859   1.999  12.606
 6162SOL     OW19165   2.846   2.976  12.894
 6162SOL    HW119166   2.754   2.992  12.915
 6162SOL    HW219167   2.845   2.899  12.838
 6163SOL     OW19168   2.570   2.923  11.543
 6163SOL    HW119169   2.557   2.907  11.637
 6163SOL    HW219170   2.646   2.869  11.521
 6164SOL     OW19171   2.279   2.675  12.423
 6164SOL    HW119172   2.348   2.687  12.489
 6164SOL    HW219173   2.244   2.587  12.440
 6165SOL     OW19174   3.128   2.240  12.446
 6165SOL    HW119175   3.161   2.317  12.492
 6165SOL    HW219176   3.039   2.262  12.422
 6166SOL     OW19177   1.931   3.434  12.522
 6166SOL    HW119178   1.901   3.510  12.471
 6166SOL    HW219179   2.027   3.440  12.519
 6167SOL     OW19180   2.213   2.970  11.663
 6167SOL    HW119181   2.218   3.043  11.602
 6167SOL    HW219182   2.211   2.892  11.607
 6168SOL     OW19183   2.412   2.399  12.034
 6168SOL    HW119184   2.427   2.457  11.959
 6168SOL    HW219185   2.477   2.426  12.099
 6169SOL     OW19186   3.110   3.210  11.561
 6169SOL    HW119187   3.166   3.281  11.592
 6169SOL    HW219188   3.023   3.231  11.595
 6170SOL     OW19189   3.141   3.319  12.318
 6170SOL    HW119190   3.197   3.322  12.396
 6170SOL    HW219191   3.086   3.242  12.331
 6171SOL     OW19192   3.443   2.486  11.650
 6171SOL    HW119193   3.398   2.541  11.714
 6171SOL    HW219194   3.487   2.547  11.591
 6172SOL     OW19195   2.209   3.388  12.488
 6172SOL    HW119196   2.196   3.345  12.403
 6172SOL    HW219197   2.303   3.400  12.495
 6173SOL     OW19198   2.275   2.609  12.774
 6173SOL    HW119199   2.338   2.652  12.716
 6173SOL    HW219200   2.316   2.525  12.795
 6174SOL     OW19201   3.462   2.639  12.851
 6174SOL    HW119202   3.376   2.681  12.845
 6174SOL    HW219203   3.514   2.682  12.784
 6175SOL     OW19204   2.857   1.982  12.926
 6175SOL    HW119205   2.912   2.055  12.898
 6175SOL    HW219206   2.907   1.904  12.901
 6176SOL     OW19207   2.372   1.906  12.921
 6176SOL    HW119208   2.318   1.854  12.862
 6176SOL    HW219209   2.325   1.990  12.928
 6177SOL     OW19210   2.445   2.734  12.203
 6177SOL    HW119211   2.476   2.825  12.200
 6177SOL    HW219212   2.389   2.731  12.281
 6178SOL     OW19213   3.221   2.721  12.203
 6178SOL    HW119214   3.139   2.712  12.155
 6178SOL    HW219215   3.261   2.634  12.199
 6179SOL     OW19216   3.068   2.391  11.440
 6179SOL    HW119217   3.076   2.312  11.494
 6179SOL    HW219218   3.025   2.455  11.497
 6180SOL     OW19219   1.908   3.172  12.449
 6180SOL    HW119220   1.941   3.119  12.521
 6180SOL    HW219221   1.915   3.262  12.480
 6181SOL     OW19222   2.584   2.491  12.229
 6181SOL    HW119223   2.660   2.475  12.173
 6181SOL    HW219224   2.559   2.581  12.210
 6182SOL     OW19225   3.595   2.820  13.029
 6182SOL    HW119226   3.550   2.764  12.966
 6182SOL    HW219227   3.531   2.832  13.100
 6183SOL     OW19228   3.478   2.235  11.540
 6183SOL    HW119229   3.505   2.171  11.606
 6183SOL    HW219230   3.455   2.313  11.590
 6184SOL     OW19231   2.889   2.621  12.133
 6184SOL    HW119232   2.887   2.639  12.227
 6184SOL    HW219233   2.863   2.529  12.126
 6185SOL     OW19234   2.846   3.429  12.889
 6185SOL    HW119235   2.829   3.472  12.805
 6185SOL    HW219236   2.888   3.346  12.866
 6186SOL     OW19237   3.708   3.367  12.773
 6186SOL    HW119238   3.730   3.394  12.683
 6186SOL    HW219239   3.789   3.382  12.822
 6187SOL     OW19240   2.215   2.778  12.982
 6187SOL    HW119241   2.298   2.796  13.025
 6187SOL    HW219242   2.237   2.717  12.912
 6188SOL     OW19243   3.392   2.136  11.299
 6188SOL    HW119244   3.328   2.070  11.325
 6188SOL    HW219245   3.425   2.171  11.382
 6189SOL     OW19246   3.154   2.688  11.204
 6189SOL    HW119247   3.198   2.603  11.207
 6189SOL    HW219248   3.186   2.728  11.122
 6190SOL     OW19249   2.927   3.197  12.025
 6190SOL    HW119250   2.930   3.124  11.963
 6190SOL    HW219251   2.989   3.261  11.990
 6191SOL     OW19252   2.172   2.673  12.119
 6191SOL    HW119253   2.265   2.695  12.111
 6191SOL    HW219254   2.172   2.586  12.160
 6192SOL     OW19255   2.190   2.364  12.182
 6192SOL    HW119256   2.150   2.290  12.136
 6192SOL    HW219257   2.269   2.383  12.133
 6193SOL     OW19258   2.996   2.239  12.852
 6193SOL    HW119259   2.949   2.294  12.915
 6193SOL    HW219260   3.084   2.277  12.849
 6194SOL     OW19261   3.022   2.066  12.641
 6194SOL    HW119262   3.012   2.128  12.713
 6194SOL    HW219263   3.061   2.117  12.571
 6195SOL     OW19264   1.867   3.184  11.367
 6195SOL    HW119265   1.780   3.198  11.330
 6195SOL    HW219266   1.864   3.094  11.400
 6196SOL     OW19267   1.956   3.647  12.108
 6196SOL    HW119268   1.926   3.567  12.065
 6196SOL    HW219269   2.043   3.663  12.071
 6197SOL     OW19270   2.359   3.436  12.078
 6197SOL    HW119271   2.427   3.499  12.102
 6197SOL    HW219272   2.405   3.372  12.023
 6198SOL     OW19273   2.847   2.654  12.399
 6198SOL    HW119274   2.903   2.631  12.473
 6198SOL    HW219275   2.761   2.620  12.422
 6199SOL     OW19276   1.900   2.396  12.289
 6199SOL    HW119277   1.985   2.398  12.245
 6199SOL    HW219278   1.921   2.410  12.381
 6200SOL     OW19279   2.064   2.380  12.903
 6200SOL    HW119280   2.114   2.350  12.827
 6200SOL    HW219281   1.999   2.440  12.866
 6201SOL     OW19282   3.239   2.802  12.831
 6201SOL    HW119283   3.260   2.896  12.830
 6201SOL    HW219284   3.236   2.777  12.739
 6202SOL     OW19285   2.677   2.431  11.532
 6202SOL    HW119286   2.683   2.357  11.472
 6202SOL    HW219287   2.604   2.483  11.499
 6203SOL     OW19288   3.504   2.464  12.360
 6203SOL    HW119289   3.492   2.403  12.433
 6203SOL    HW219290   3.589   2.441  12.323
 6204SOL     OW19291   2.108   3.413  12.901
 6204SOL    HW119292   2.084   3.478  12.967
 6204SOL    HW219293   2.107   3.330  12.948
 6205SOL     OW19294   2.557   2.313  12.433
 6205SOL    HW119295   2.507   2.239  12.401
 6205SOL    HW219296   2.556   2.376  12.361
 6206SOL     OW19297   2.793   3.536  12.639
 6206SOL    HW119298   2.765   3.502  12.554
 6206SOL    HW219299   2.786   3.631  12.630
 6207SOL     OW19300   2.327   2.356  11.356
 6207SOL    HW119301   2.385   2.429  11.380
 6207SOL    HW219302   2.241   2.395  11.347
 6208SOL     OW19303   2.009   3.002  12.644
 6208SOL    HW119304   2.012   2.949  12.724
 6208SOL    HW219305   2.027   2.940  12.573
 6209SOL     OW19306   3.188   2.910  12.396
 6209SOL    HW119307   3.213   2.847  12.328
 6209SOL    HW219308   3.118   2.961  12.357
 6210SOL     OW19309   3.172   2.718  11.479
 6210SOL    HW119310   3.096   2.688  11.528
 6210SOL    HW219311   3.148   2.705  11.387
 6211SOL     OW19312   3.634   3.608  12.322
 6211SOL    HW119313   3.692   3.633  12.251
 6211SOL    HW219314   3.609   3.517  12.302
 6212SOL     OW19315   3.105   3.596  12.286
 6212SOL    HW119316   3.187   3.614  12.241
 6212SOL    HW219317   3.108   3.502  12.305
 6213SOL     OW19318   1.945   3.128  12.185
 6213SOL    HW119319   1.932   3.141  12.279
 6213SOL    HW219320   1.872   3.074  12.157
 6214SOL     OW19321   2.540   3.525  12.898
 6214SOL    HW119322   2.486   3.604  12.902
 6214SOL    HW219323   2.600   3.540  12.825
 6215SOL     OW19324   3.576   2.007  11.686
 6215SOL    HW119325   3.645   1.994  11.621
 6215SOL    HW219326   3.564   1.920  11.725
 6216SOL     OW19327   3.251   3.430  11.656
 6216SOL    HW119328   3.312   3.462  11.589
 6216SOL    HW219329   3.205   3.509  11.685
 6217SOL     OW19330   1.993   3.655  13.012
 6217SOL    HW119331   1.942   3.591  13.061
 6217SOL    HW219332   2.044   3.701  13.079
 6218SOL     OW19333   3.139   2.787  11.843
 6218SOL    HW119334   3.213   2.726  11.849
 6218SOL    HW219335   3.173   2.860  11.791
 6219SOL     OW19336   2.678   3.134  12.603
 6219SOL    HW119337   2.651   3.173  12.686
 6219SOL    HW219338   2.608   3.157  12.542
 6220SOL     OW19339   2.537   3.477  11.328
 6220SOL    HW119340   2.544   3.492  11.234
 6220SOL    HW219341   2.480   3.400  11.336
 6221SOL     OW19342   3.488   3.588  12.562
 6221SOL    HW119343   3.540   3.593  12.483
 6221SOL    HW219344   3.476   3.679  12.590
 6222SOL     OW19345   3.699   2.042  12.141
 6222SOL    HW119346   3.730   1.956  12.114
 6222SOL    HW219347   3.613   2.051  12.100
 6223SOL     OW19348   3.068   3.469  11.206
 6223SOL    HW119349   3.059   3.377  11.231
 6223SOL    HW219350   3.007   3.481  11.134
 6224SOL     OW19351   2.686   2.868  12.543
 6224SOL    HW119352   2.730   2.865  12.459
 6224SOL    HW219353   2.686   2.960  12.567
 6225SOL     OW19354   2.778   2.772  11.462
 6225SOL    HW119355   2.839   2.804  11.395
 6225SOL    HW219356   2.825   2.702  11.507
 6226SOL     OW19357   3.353   3.490  11.213
 6226SOL    HW119358   3.259   3.480  11.198
 6226SOL    HW219359   3.391   3.495  11.126
 6227SOL     OW19360   2.232   3.163  12.663
 6227SOL    HW119361   2.218   3.241  12.609
 6227SOL    HW219362   2.154   3.109  12.647
 6228SOL     OW19363   3.467   3.142  12.452
 6228SOL    HW119364   3.533   3.137  12.520
 6228SOL    HW219365   3.409   3.214  12.480
 6229SOL     OW19366   2.912   2.968  11.878
 6229SOL    HW119367   2.842   2.917  11.917
 6229SOL    HW219368   2.974   2.903  11.845
 6230SOL     OW19369   2.881   2.102  12.138
 6230SOL    HW119370   2.877   2.054  12.055
 6230SOL    HW219371   2.878   2.034  12.205
 6231SOL     OW19372   2.464   3.352  11.653
 6231SOL    HW119373   2.506   3.301  11.584
 6231SOL    HW219374   2.398   3.404  11.607
 6232SOL     OW19375   3.583   2.253  12.551
 6232SOL    HW119376   3.655   2.316  12.547
 6232SOL    HW219377   3.612   2.180  12.495
 6233SOL     OW19378   2.121   3.208  11.460
 6233SOL    HW119379   2.028   3.205  11.437
 6233SOL    HW219380   2.123   3.245  11.548
 6234SOL     OW19381   1.974   2.881  12.890
 6234SOL    HW119382   1.898   2.859  12.944
 6234SOL    HW219383   2.048   2.845  12.939
 6235SOL     OW19384   2.536   2.060  12.670
 6235SOL    HW119385   2.620   2.039  12.630
 6235SOL    HW219386   2.558   2.088  12.759
 6236SOL     OW19387   3.292   2.721  12.573
 6236SOL    HW119388   3.243   2.781  12.518
 6236SOL    HW219389   3.381   2.723  12.538
 6237SOL     OW19390   3.041   3.203  11.289
 6237SOL    HW119391   2.950   3.173  11.291
 6237SOL    HW219392   3.069   3.201  11.380
 6238SOL     OW19393   2.481   2.693  12.604
 6238SOL    HW119394   2.536   2.770  12.590
 6238SOL    HW219395   2.543   2.620  12.613
 6239SOL     OW19396   3.347   3.641  12.151
 6239SOL    HW119397   3.374   3.691  12.074
 6239SOL    HW219398   3.429   3.615  12.193
 6240SOL     OW19399   2.579   2.425  12.876
 6240SOL    HW119400   2.617   2.488  12.937
 6240SOL    HW219401   2.609   2.340  12.908
 6241SOL     OW19402   3.332   3.064  12.805
 6241SOL    HW119403   3.321   3.077  12.899
 6241SOL    HW219404   3.425   3.077  12.790
 6242SOL     OW19405   2.241   3.601  12.734
 6242SOL    HW119406   2.155   3.640  12.721
 6242SOL    HW219407   2.223   3.517  12.776
 6243SOL     OW19408   3.530   2.743  12.430
 6243SOL    HW119409   3.526   2.658  12.387
 6243SOL    HW219410   3.524   2.807  12.359
 6244SOL     OW19411   3.080   2.181  11.630
 6244SOL    HW119412   3.143   2.110  11.620
 6244SOL    HW219413   3.109   2.230  11.707
 6245SOL     OW19414   2.451   2.600  11.841
 6245SOL    HW119415   2.492   2.685  11.826
 6245SOL    HW219416   2.383   2.594  11.774
 6246SOL     OW19417   3.625   2.225  12.821
 6246SOL    HW119418   3.607   2.237  12.728
 6246SOL    HW219419   3.556   2.167  12.851
 6247SOL     OW19420   3.613   2.793  12.686
 6247SOL    HW119421   3.609   2.888  12.701
 6247SOL    HW219422   3.592   2.782  12.593
 6248SOL     OW19423   2.725   3.230  11.205
 6248SOL    HW119424   2.684   3.257  11.287
 6248SOL    HW219425   2.742   3.312  11.158
 6249SOL     OW19426   2.521   3.654  12.117
 6249SOL    HW119427   2.499   3.745  12.093
 6249SOL    HW219428   2.616   3.651  12.110
 6250SOL     OW19429   2.728   2.828  12.028
 6250SOL    HW119430   2.779   2.757  12.068
 6250SOL    HW219431   2.695   2.878  12.102
 6251SOL     OW19432   2.941   2.850  11.260
 6251SOL    HW119433   2.920   2.901  11.182
 6251SOL    HW219434   3.017   2.797  11.235
 6252SOL     OW19435   3.717   3.418  12.014
 6252SOL    HW119436   3.638   3.400  11.962
 6252SOL    HW219437   3.716   3.352  12.083
 6253SOL     OW19438   2.087   3.166  13.028
 6253SOL    HW119439   2.019   3.105  12.999
 6253SOL    HW219440   2.069   3.179  13.121
 6254SOL     OW19441   1.946   3.096  11.836
 6254SOL    HW119442   1.950   3.048  11.918
 6254SOL    HW219443   2.014   3.057  11.782
 6255SOL     OW19444   2.542   3.264  12.798
 6255SOL    HW119445   2.463   3.221  12.829
 6255SOL    HW219446   2.538   3.352  12.836
 6256SOL     OW19447   3.678   2.043  12.412
 6256SOL    HW119448   3.671   1.948  12.418
 6256SOL    HW219449   3.689   2.061  12.318
 6257SOL     OW19450   2.292   2.294  11.696
 6257SOL    HW119451   2.321   2.231  11.631
 6257SOL    HW219452   2.249   2.242  11.763
 6258SOL     OW19453   3.561   3.354  12.272
 6258SOL    HW119454   3.481   3.327  12.227
 6258SOL    HW219455   3.577   3.284  12.336
 6259SOL     OW19456   2.191   2.416  12.460
 6259SOL    HW119457   2.237   2.356  12.519
 6259SOL    HW219458   2.210   2.383  12.373
 6260SOL     OW19459   2.688   3.440  11.850
 6260SOL    HW119460   2.678   3.486  11.766
 6260SOL    HW219461   2.611   3.383  11.856
 6261SOL     OW19462   3.294   2.087  12.290
 6261SOL    HW119463   3.319   2.007  12.335
 6261SOL    HW219464   3.242   2.136  12.354
 6262SOL     OW19465   2.870   1.881  12.316
 6262SOL    HW119466   2.816   1.813  12.277
 6262SOL    HW219467   2.959   1.844  12.318
 6263SOL     OW19468   2.634   3.194  11.485
 6263SOL    HW119469   2.601   3.104  11.491
 6263SOL    HW219470   2.716   3.192  11.533
 6264SOL     OW19471   2.482   3.418  12.456
 6264SOL    HW119472   2.484   3.499  12.506
 6264SOL    HW219473   2.569   3.411  12.418
 6265SOL     OW19474   3.214   1.916  11.336
 6265SOL    HW119475   3.242   1.853  11.269
 6265SOL    HW219476   3.127   1.886  11.363
 6266SOL     OW19477   3.158   2.322  11.854
 6266SOL    HW119478   3.105   2.402  11.862
 6266SOL    HW219479   3.155   2.282  11.941
 6267SOL     OW19480   3.446   2.065  12.048
 6267SOL    HW119481   3.385   2.085  12.119
 6267SOL    HW219482   3.447   2.144  11.994
 6268SOL     OW19483   1.905   2.934  11.478
 6268SOL    HW119484   1.999   2.925  11.461
 6268SOL    HW219485   1.877   2.845  11.500
 6269SOL     OW19486   2.745   3.516  11.517
 6269SOL    HW119487   2.675   3.496  11.455
 6269SOL    HW219488   2.714   3.592  11.565
 6270SOL     OW19489   2.088   2.480  13.158
 6270SOL    HW119490   1.997   2.486  13.188
 6270SOL    HW219491   2.082   2.451  13.067
 6271SOL     OW19492   1.877   2.264  13.661
 6271SOL    HW119493   1.789   2.281  13.694
 6271SOL    HW219494   1.863   2.206  13.586
 6272SOL     OW19495   3.394   3.362  13.724
 6272SOL    HW119496   3.335   3.307  13.775
 6272SOL    HW219497   3.347   3.379  13.642
 6273SOL     OW19498   2.988   2.564  13.736
 6273SOL    HW119499   3.044   2.637  13.709
 6273SOL    HW219500   2.943   2.595  13.814
 6274SOL     OW19501   3.633   2.468  13.264
 6274SOL    HW119502   3.611   2.460  13.171
 6274SOL    HW219503   3.591   2.392  13.305
 6275SOL     OW19504   2.547   2.873  13.674
 6275SOL    HW119505   2.602   2.851  13.749
 6275SOL    HW219506   2.473   2.921  13.712
 6276SOL     OW19507   3.487   2.323  13.756
 6276SOL    HW119508   3.399   2.321  13.718
 6276SOL    HW219509   3.485   2.395  13.818
 6277SOL     OW19510   2.083   3.579  13.515
 6277SOL    HW119511   2.120   3.629  13.588
 6277SOL    HW219512   2.153   3.576  13.449
 6278SOL     OW19513   2.092   3.303  13.568
 6278SOL    HW119514   2.072   3.397  13.575
 6278SOL    HW219515   2.031   3.261  13.629
 6279SOL     OW19516   2.101   2.965   0.023
 6279SOL    HW119517   2.121   2.901   0.091
 6279SOL    HW219518   2.036   3.023   0.062
 6280SOL     OW19519   2.450   2.842  13.166
 6280SOL    HW119520   2.493   2.893  13.098
 6280SOL    HW219521   2.489   2.873  13.248
 6281SOL     OW19522   1.977   2.519  13.591
 6281SOL    HW119523   1.948   2.430  13.611
 6281SOL    HW219524   1.965   2.567  13.673
 6282SOL     OW19525   3.699   3.617  13.374
 6282SOL    HW119526   3.766   3.590  13.436
 6282SOL    HW219527   3.721   3.707  13.352
 6283SOL     OW19528   1.889   3.457  13.157
 6283SOL    HW119529   1.875   3.364  13.179
 6283SOL    HW219530   1.869   3.504  13.238
 6284SOL     OW19531   3.548   2.777  13.667
 6284SOL    HW119532   3.638   2.747  13.650
 6284SOL    HW219533   3.527   2.833  13.593
 6285SOL     OW19534   3.504   2.968  13.463
 6285SOL    HW119535   3.588   2.975  13.418
 6285SOL    HW219536   3.510   3.029  13.536
 6286SOL     OW19537   2.468   3.246  13.762
 6286SOL    HW119538   2.425   3.161  13.770
 6286SOL    HW219539   2.447   3.275  13.674
 6287SOL     OW19540   2.672   1.860  13.541
 6287SOL    HW119541   2.712   1.945  13.522
 6287SOL    HW219542   2.579   1.880  13.551
 6288SOL     OW19543   3.391   2.854  13.232
 6288SOL    HW119544   3.322   2.797  13.265
 6288SOL    HW219545   3.431   2.891  13.312
 6289SOL     OW19546   3.515   3.597  13.613
 6289SOL    HW119547   3.498   3.568  13.523
 6289SOL    HW219548   3.510   3.518  13.666
 6290SOL     OW19549   2.456   2.583  13.298
 6290SOL    HW119550   2.463   2.664  13.247
 6290SOL    HW219551   2.391   2.604  13.366
 6291SOL     OW19552   3.123   2.194   0.051
 6291SOL    HW119553   3.042   2.147   0.072
 6291SOL    HW219554   3.190   2.146   0.100
 6292SOL     OW19555   3.439   3.536  13.341
 6292SOL    HW119556   3.530   3.564  13.338
 6292SOL    HW219557   3.417   3.515  13.250
 6293SOL     OW19558   2.910   2.559  13.460
 6293SOL    HW119559   2.923   2.549  13.554
 6293SOL    HW219560   2.829   2.512  13.442
 6294SOL     OW19561   1.946   2.683  13.808
 6294SOL    HW119562   2.028   2.678  13.856
 6294SOL    HW219563   1.901   2.759  13.845
 6295SOL     OW19564   2.753   2.211  13.230
 6295SOL    HW119565   2.796   2.269  13.168
 6295SOL    HW219566   2.760   2.124  13.191
 6296SOL     OW19567   3.226   2.998  13.558
 6296SOL    HW119568   3.315   2.995  13.523
 6296SOL    HW219569   3.183   3.069  13.510
 6297SOL     OW19570   2.868   3.306  13.505
 6297SOL    HW119571   2.829   3.380  13.458
 6297SOL    HW219572   2.841   3.319  13.596
 6298SOL     OW19573   2.249   3.663  13.812
 6298SOL    HW119574   2.228   3.585  13.864
 6298SOL    HW219575   2.301   3.717  13.871
 6299SOL     OW19576   3.651   2.919  13.900
 6299SOL    HW119577   3.592   2.911  13.825
 6299SOL    HW219578   3.594   2.915   0.076
 6300SOL     OW19579   2.183   2.819  13.284
 6300SOL    HW119580   2.265   2.838  13.237
 6300SOL    HW219581   2.152   2.738  13.245
 6301SOL     OW19582   3.346   2.595  13.746
 6301SOL    HW119583   3.334   2.549  13.829
 6301SOL    HW219584   3.420   2.654  13.763
 6302SOL     OW19585   2.975   3.643  13.258
 6302SOL    HW119586   2.914   3.594  13.314
 6302SOL    HW219587   3.004   3.578  13.193
 6303SOL     OW19588   3.489   3.244  13.122
 6303SOL    HW119589   3.446   3.328  13.104
 6303SOL    HW219590   3.421   3.179  13.103
 6304SOL     OW19591   2.330   3.595  13.358
 6304SOL    HW119592   2.366   3.660  13.418
 6304SOL    HW219593   2.404   3.573  13.301
 6305SOL     OW19594   3.264   1.974  13.463
 6305SOL    HW119595   3.253   1.946  13.372
 6305SOL    HW219596   3.359   1.974  13.477
 6306SOL     OW19597   2.795   3.552   0.013
 6306SOL    HW119598   2.826   3.484   0.073
 6306SOL    HW219599   2.747   3.504  13.846
 6307SOL     OW19600   2.251   2.565  13.509
 6307SOL    HW119601   2.274   2.472  13.515
 6307SOL    HW219602   2.158   2.568  13.528
 6308SOL     OW19603   2.505   1.988  13.142
 6308SOL    HW119604   2.572   1.919  13.153
 6308SOL    HW219605   2.450   1.956  13.071
 6309SOL     OW19606   2.405   1.926  13.541
 6309SOL    HW119607   2.337   1.937  13.608
 6309SOL    HW219608   2.395   2.002  13.483
 6310SOL     OW19609   3.290   3.060  13.075
 6310SOL    HW119610   3.321   2.984  13.125
 6310SOL    HW219611   3.205   3.080  13.113
 6311SOL     OW19612   2.798   2.104  13.496
 6311SOL    HW119613   2.771   2.148  13.416
 6311SOL    HW219614   2.893   2.119  13.500
 6312SOL     OW19615   2.326   3.005  13.773
 6312SOL    HW119616   2.252   2.991  13.832
 6312SOL    HW219617   2.290   2.991  13.686
 6313SOL     OW19618   3.133   3.661  13.629
 6313SOL    HW119619   3.176   3.728  13.576
 6313SOL    HW219620   3.067   3.709  13.679
 6314SOL     OW19621   2.887   2.406  13.054
 6314SOL    HW119622   2.844   2.489  13.035
 6314SOL    HW219623   2.951   2.426  13.122
 6315SOL     OW19624   2.752   2.332  13.667
 6315SOL    HW119625   2.686   2.378  13.614
 6315SOL    HW219626   2.758   2.245  13.628
 6316SOL     OW19627   2.885   1.904  13.780
 6316SOL    HW119628   2.826   1.912  13.705
 6316SOL    HW219629   2.857   1.824  13.824
 6317SOL     OW19630   3.726   2.679  13.409
 6317SOL    HW119631   3.774   2.623  13.471
 6317SOL    HW219632   3.688   2.619  13.346
 6318SOL     OW19633   2.354   3.277  13.193
 6318SOL    HW119634   2.279   3.249  13.245
 6318SOL    HW219635   2.335   3.245  13.104
 6319SOL     OW19636   3.538   3.129  13.670
 6319SOL    HW119637   3.631   3.134  13.688
 6319SOL    HW219638   3.502   3.212  13.702
 6320SOL     OW19639   3.256   2.433  13.105
 6320SOL    HW119640   3.194   2.415  13.177
 6320SOL    HW219641   3.340   2.400  13.137
 6321SOL     OW19642   2.388   2.122  13.355
 6321SOL    HW119643   2.429   2.073  13.283
 6321SOL    HW219644   2.367   2.207  13.317
 6322SOL     OW19645   2.571   2.924  13.402
 6322SOL    HW119646   2.556   2.909  13.496
 6322SOL    HW219647   2.647   2.870  13.381
 6323SOL     OW19648   2.216   2.970  13.526
 6323SOL    HW119649   2.217   3.044  13.466
 6323SOL    HW219650   2.212   2.893  13.470
 6324SOL     OW19651   2.445   2.398  13.864
 6324SOL    HW119652   2.449   2.469  13.800
 6324SOL    HW219653   2.489   2.433   0.042
 6325SOL     OW19654   3.109   3.212  13.419
 6325SOL    HW119655   3.164   3.285  13.449
 6325SOL    HW219656   3.023   3.232  13.455
 6326SOL     OW19657   3.445   2.488  13.502
 6326SOL    HW119658   3.404   2.534  13.575
 6326SOL    HW219659   3.483   2.558  13.448
 6327SOL     OW19660   3.067   2.391  13.301
 6327SOL    HW119661   3.075   2.312  13.355
 6327SOL    HW219662   3.025   2.455  13.358
 6328SOL     OW19663   3.478   2.235  13.402
 6328SOL    HW119664   3.503   2.172  13.469
 6328SOL    HW219665   3.455   2.314  13.451
 6329SOL     OW19666   3.393   2.136  13.162
 6329SOL    HW119667   3.328   2.070  13.187
 6329SOL    HW219668   3.425   2.171  13.244
 6330SOL     OW19669   3.154   2.688  13.065
 6330SOL    HW119670   3.197   2.603  13.069
 6330SOL    HW219671   3.186   2.728  12.984
 6331SOL     OW19672   1.867   3.184  13.229
 6331SOL    HW119673   1.780   3.198  13.191
 6331SOL    HW219674   1.865   3.094  13.263
 6332SOL     OW19675   2.677   2.433  13.388
 6332SOL    HW119676   2.681   2.357  13.330
 6332SOL    HW219677   2.601   2.483  13.357
 6333SOL     OW19678   2.328   2.354  13.213
 6333SOL    HW119679   2.386   2.426  13.239
 6333SOL    HW219680   2.241   2.393  13.208
 6334SOL     OW19681   3.173   2.714  13.340
 6334SOL    HW119682   3.095   2.689  13.389
 6334SOL    HW219683   3.149   2.703  13.248
 6335SOL     OW19684   3.579   2.006  13.550
 6335SOL    HW119685   3.646   1.994  13.483
 6335SOL    HW219686   3.566   1.919  13.587
 6336SOL     OW19687   3.246   3.434  13.508
 6336SOL    HW119688   3.307   3.469  13.444
 6336SOL    HW219689   3.202   3.511  13.544
 6337SOL     OW19690   3.148   2.777  13.687
 6337SOL    HW119691   3.224   2.721  13.672
 6337SOL    HW219692   3.171   2.861  13.647
 6338SOL     OW19693   2.537   3.477  13.190
 6338SOL    HW119694   2.544   3.492  13.096
 6338SOL    HW219695   2.480   3.400  13.198
 6339SOL     OW19696   3.684   2.020   0.081
 6339SOL    HW119697   3.701   1.931   0.050
 6339SOL    HW219698   3.589   2.030   0.075
 6340SOL     OW19699   2.123   2.276  13.787
 6340SOL    HW119700   2.055   2.255  13.723
 6340SOL    HW219701   2.133   2.195  13.838
 6341SOL     OW19702   3.068   3.469  13.068
 6341SOL    HW119703   3.059   3.377  13.093
 6341SOL    HW219704   3.007   3.481  12.996
 6342SOL     OW19705   2.779   2.774  13.326
 6342SOL    HW119706   2.840   2.804  13.258
 6342SOL    HW219707   2.825   2.700  13.368
 6343SOL     OW19708   3.353   3.490  13.075
 6343SOL    HW119709   3.259   3.480  13.060
 6343SOL    HW219710   3.391   3.495  12.987
 6344SOL     OW19711   2.911   2.953  13.753
 6344SOL    HW119712   2.825   2.912  13.748
 6344SOL    HW219713   2.963   2.908  13.686
 6345SOL     OW19714   2.462   3.353  13.510
 6345SOL    HW119715   2.505   3.302  13.441
 6345SOL    HW219716   2.396   3.406  13.464
 6346SOL     OW19717   2.121   3.207  13.322
 6346SOL    HW119718   2.028   3.205  13.300
 6346SOL    HW219719   2.124   3.246  13.410
 6347SOL     OW19720   3.041   3.203  13.150
 6347SOL    HW119721   2.950   3.173  13.153
 6347SOL    HW219722   3.069   3.202  13.241
 6348SOL     OW19723   3.080   2.182  13.491
 6348SOL    HW119724   3.143   2.111  13.481
 6348SOL    HW219725   3.110   2.230  13.569
 6349SOL     OW19726   2.453   2.611  13.694
 6349SOL    HW119727   2.490   2.697  13.674
 6349SOL    HW219728   2.381   2.600  13.631
 6350SOL     OW19729   2.725   3.230  13.066
 6350SOL    HW119730   2.684   3.257  13.149
 6350SOL    HW219731   2.742   3.312  13.020
 6351SOL     OW19732   2.512   3.706   0.066
 6351SOL    HW119733   2.509   3.801   0.081
 6351SOL    HW219734   2.604   3.683   0.078
 6352SOL     OW19735   2.695   2.824  13.893
 6352SOL    HW119736   2.738   2.747   0.032
 6352SOL    HW219737   2.705   2.893   0.058
 6353SOL     OW19738   2.941   2.849  13.122
 6353SOL    HW119739   2.919   2.900  13.044
 6353SOL    HW219740   3.016   2.796  13.097
 6354SOL     OW19741   1.952   3.097  13.699
 6354SOL    HW119742   1.945   3.041  13.776
 6354SOL    HW219743   2.018   3.055  13.644
 6355SOL     OW19744   2.288   2.304  13.545
 6355SOL    HW119745   2.320   2.224  13.504
 6355SOL    HW219746   2.269   2.280  13.635
 6356SOL     OW19747   3.541   3.329   0.336
 6356SOL    HW119748   3.512   3.301   0.249
 6356SOL    HW219749   3.622   3.281   0.350
 6357SOL     OW19750   2.681   3.416  13.713
 6357SOL    HW119751   2.664   3.466  13.633
 6357SOL    HW219752   2.602   3.364  13.726
 6358SOL     OW19753   2.634   3.194  13.345
 6358SOL    HW119754   2.601   3.105  13.352
 6358SOL    HW219755   2.717   3.193  13.394
 6359SOL     OW19756   3.214   1.916  13.197
 6359SOL    HW119757   3.241   1.852  13.131
 6359SOL    HW219758   3.127   1.886  13.225
 6360SOL     OW19759   3.165   2.321  13.715
 6360SOL    HW119760   3.108   2.398  13.722
 6360SOL    HW219761   3.155   2.276  13.798
 6361SOL     OW19762   1.906   2.934  13.339
 6361SOL    HW119763   2.000   2.925  13.321
 6361SOL    HW219764   1.877   2.846  13.361
 6362SOL     OW19765   2.745   3.516  13.379
 6362SOL    HW119766   2.674   3.497  13.317
 6362SOL    HW219767   2.713   3.591  13.429
 6363SOL     OW19768   2.094   3.986   0.986
 6363SOL    HW119769   2.118   3.965   1.076
 6363SOL    HW219770   2.004   3.953   0.978
 6364SOL     OW19771   1.879   0.064   0.706
 6364SOL    HW119772   1.804   0.118   0.683
 6364SOL    HW219773   1.897   0.012   0.628
 6365SOL     OW19774   3.660   0.358   0.250
 6365SOL    HW119775   3.634   0.313   0.170
 6365SOL    HW219776   3.583   0.353   0.307
 6366SOL     OW19777   2.299   0.099   1.507
 6366SOL    HW119778   2.373   0.058   1.463
 6366SOL    HW219779   2.224   0.043   1.485
 6367SOL     OW19780   3.460   3.847   1.465
 6367SOL    HW119781   3.458   3.931   1.420
 6367SOL    HW219782   3.447   3.868   1.557
 6368SOL     OW19783   2.667   3.727   0.502
 6368SOL    HW119784   2.696   3.818   0.494
 6368SOL    HW219785   2.572   3.732   0.514
 6369SOL     OW19786   3.131   0.063   0.939
 6369SOL    HW119787   3.061   0.007   0.907
 6369SOL    HW219788   3.187   0.004   0.990
 6370SOL     OW19789   2.415   3.906   0.889
 6370SOL    HW119790   2.410   3.925   0.983
 6370SOL    HW219791   2.410   3.992   0.847
 6371SOL     OW19792   2.053   3.984   1.491
 6371SOL    HW119793   1.997   0.062   1.491
 6371SOL    HW219794   2.022   3.933   1.566
 6372SOL     OW19795   3.269   3.841   0.424
 6372SOL    HW119796   3.260   3.797   0.339
 6372SOL    HW219797   3.360   3.823   0.450
 6373SOL     OW19798   3.398   3.942   1.725
 6373SOL    HW119799   3.422   3.947   1.817
 6373SOL    HW219800   3.333   3.872   1.720
 6374SOL     OW19801   2.636   3.963   1.745
 6374SOL    HW119802   2.692   3.931   1.816
 6374SOL    HW219803   2.551   3.978   1.786
 6375SOL     OW19804   2.394   3.785   0.508
 6375SOL    HW119805   2.342   3.786   0.589
 6375SOL    HW219806   2.407   3.877   0.487
 6376SOL     OW19807   2.135   3.744   0.211
 6376SOL    HW119808   2.166   3.827   0.176
 6376SOL    HW219809   2.215   3.695   0.232
 6377SOL     OW19810   2.422   3.943   1.166
 6377SOL    HW119811   2.461   3.867   1.208
 6377SOL    HW219812   2.330   3.942   1.194
 6378SOL     OW19813   2.880   3.770   0.744
 6378SOL    HW119814   2.817   3.758   0.674
 6378SOL    HW219815   2.857   3.702   0.808
 6379SOL     OW19816   2.783   3.805   1.402
 6379SOL    HW119817   2.811   3.786   1.312
 6379SOL    HW219818   2.856   3.856   1.439
 6380SOL     OW19819   3.127   0.079   1.264
 6380SOL    HW119820   3.145   0.146   1.330
 6380SOL    HW219821   3.058   0.117   1.209
 6381SOL     OW19822   2.368   3.750   1.753
 6381SOL    HW119823   2.317   3.704   1.686
 6381SOL    HW219824   2.329   3.837   1.757
 6382SOL     OW19825   2.158   3.923   1.252
 6382SOL    HW119826   2.116   3.941   1.336
 6382SOL    HW219827   2.145   3.829   1.239
 6383SOL     OW19828   3.457   3.945   0.148
 6383SOL    HW119829   3.378   3.892   0.157
 6383SOL    HW219830   3.437   0.027   0.194
 6384SOL     OW19831   3.026   3.926   1.473
 6384SOL    HW119832   3.030   3.997   1.537
 6384SOL    HW219833   3.064   3.962   1.393
 6385SOL     OW19834   2.776   3.823   0.151
 6385SOL    HW119835   2.809   3.813   0.061
 6385SOL    HW219836   2.833   3.767   0.203
 6386SOL     OW19837   3.585   3.863   0.526
 6386SOL    HW119838   3.656   3.849   0.463
 6386SOL    HW219839   3.567   3.775   0.560
 6387SOL     OW19840   3.696   3.895   0.964
 6387SOL    HW119841   3.730   3.810   0.939
 6387SOL    HW219842   3.610   3.901   0.923
 6388SOL     OW19843   2.534   3.913   1.494
 6388SOL    HW119844   2.615   3.907   1.445
 6388SOL    HW219845   2.561   3.934   1.584
 6389SOL     OW19846   1.931   3.865   0.340
 6389SOL    HW119847   1.908   3.938   0.283
 6389SOL    HW219848   2.012   3.830   0.304
 6390SOL     OW19849   3.050   0.012   0.467
 6390SOL    HW119850   3.119   3.946   0.464
 6390SOL    HW219851   3.074   0.069   0.540
 6391SOL     OW19852   3.647   0.051   1.633
 6391SOL    HW119853   3.610   0.080   1.550
 6391SOL    HW219854   3.574   0.010   1.680
 6392SOL     OW19855   3.680   3.911   1.237
 6392SOL    HW119856   3.672   3.819   1.261
 6392SOL    HW219857   3.687   3.911   1.142
 6393SOL     OW19858   3.300   3.935   1.118
 6393SOL    HW119859   3.331   3.856   1.162
 6393SOL    HW219860   3.240   3.976   1.181
 6394SOL     OW19861   2.874   3.738   1.151
 6394SOL    HW119862   2.816   3.681   1.101
 6394SOL    HW219863   2.960   3.697   1.146
 6395SOL     OW19864   3.211   3.783   0.152
 6395SOL    HW119865   3.248   3.715   0.096
 6395SOL    HW219866   3.129   3.746   0.184
 6396SOL     OW19867   3.147   0.162   0.683
 6396SOL    HW119868   3.137   0.257   0.689
 6396SOL    HW219869   3.154   0.133   0.773
 6397SOL     OW19870   3.442   3.932   0.876
 6397SOL    HW119871   3.387   3.933   0.955
 6397SOL    HW219872   3.440   0.022   0.845
 6398SOL     OW19873   2.094   3.984   2.848
 6398SOL    HW119874   2.118   3.965   2.938
 6398SOL    HW219875   2.004   3.953   2.840
 6399SOL     OW19876   1.879   0.062   2.570
 6399SOL    HW119877   1.807   0.121   2.546
 6399SOL    HW219878   1.896   0.012   2.491
 6400SOL     OW19879   3.637   0.321   2.050
 6400SOL    HW119880   3.561   0.309   1.993
 6400SOL    HW219881   3.600   0.334   2.137
 6401SOL     OW19882   2.299   0.099   3.369
 6401SOL    HW119883   2.373   0.058   3.325
 6401SOL    HW219884   2.224   0.043   3.347
 6402SOL     OW19885   3.460   3.847   3.327
 6402SOL    HW119886   3.458   3.932   3.282
 6402SOL    HW219887   3.447   3.867   3.419
 6403SOL     OW19888   2.668   3.728   2.363
 6403SOL    HW119889   2.695   3.820   2.357
 6403SOL    HW219890   2.573   3.732   2.376
 6404SOL     OW19891   3.131   0.063   2.802
 6404SOL    HW119892   3.061   0.007   2.769
 6404SOL    HW219893   3.187   0.004   2.853
 6405SOL     OW19894   2.415   3.906   2.751
 6405SOL    HW119895   2.411   3.925   2.845
 6405SOL    HW219896   2.410   3.992   2.709
 6406SOL     OW19897   2.053   3.984   3.353
 6406SOL    HW119898   1.997   0.062   3.353
 6406SOL    HW219899   2.022   3.933   3.428
 6407SOL     OW19900   3.267   3.836   2.287
 6407SOL    HW119901   3.257   3.800   2.199
 6407SOL    HW219902   3.359   3.824   2.308
 6408SOL     OW19903   3.398   3.942   3.587
 6408SOL    HW119904   3.423   3.947   3.679
 6408SOL    HW219905   3.333   3.872   3.583
 6409SOL     OW19906   2.487   3.850   1.984
 6409SOL    HW119907   2.577   3.820   1.990
 6409SOL    HW219908   2.451   3.804   1.908
 6410SOL     OW19909   2.636   3.963   3.607
 6410SOL    HW119910   2.692   3.931   3.678
 6410SOL    HW219911   2.551   3.978   3.648
 6411SOL     OW19912   2.395   3.786   2.372
 6411SOL    HW119913   2.344   3.790   2.453
 6411SOL    HW219914   2.407   3.878   2.348
 6412SOL     OW19915   2.151   3.754   2.040
 6412SOL    HW119916   2.194   3.838   2.023
 6412SOL    HW219917   2.219   3.700   2.080
 6413SOL     OW19918   2.421   3.943   3.027
 6413SOL    HW119919   2.461   3.867   3.070
 6413SOL    HW219920   2.330   3.942   3.056
 6414SOL     OW19921   2.880   3.769   2.606
 6414SOL    HW119922   2.817   3.757   2.536
 6414SOL    HW219923   2.857   3.702   2.671
 6415SOL     OW19924   2.783   3.805   3.264
 6415SOL    HW119925   2.811   3.786   3.174
 6415SOL    HW219926   2.856   3.856   3.301
 6416SOL     OW19927   3.127   0.079   3.126
 6416SOL    HW119928   3.145   0.146   3.192
 6416SOL    HW219929   3.058   0.117   3.071
 6417SOL     OW19930   2.368   3.750   3.615
 6417SOL    HW119931   2.317   3.704   3.548
 6417SOL    HW219932   2.329   3.837   3.619
 6418SOL     OW19933   2.158   3.923   3.114
 6418SOL    HW119934   2.116   3.942   3.198
 6418SOL    HW219935   2.145   3.829   3.101
 6419SOL     OW19936   3.441   3.958   1.986
 6419SOL    HW119937   3.378   3.901   2.028
 6419SOL    HW219938   3.454   0.030   2.048
 6420SOL     OW19939   3.026   3.925   3.335
 6420SOL    HW119940   3.030   3.997   3.399
 6420SOL    HW219941   3.064   3.962   3.255
 6421SOL     OW19942   2.763   3.812   1.971
 6421SOL    HW119943   2.826   3.782   1.906
 6421SOL    HW219944   2.801   3.788   2.055
 6422SOL     OW19945   3.587   3.861   2.383
 6422SOL    HW119946   3.656   3.846   2.319
 6422SOL    HW219947   3.569   3.774   2.419
 6423SOL     OW19948   3.696   3.896   2.827
 6423SOL    HW119949   3.730   3.810   2.801
 6423SOL    HW219950   3.610   3.901   2.785
 6424SOL     OW19951   2.534   3.913   3.356
 6424SOL    HW119952   2.615   3.907   3.307
 6424SOL    HW219953   2.561   3.934   3.446
 6425SOL     OW19954   1.910   0.053   1.897
 6425SOL    HW119955   1.863   0.034   1.816
 6425SOL    HW219956   1.945   0.141   1.884
 6426SOL     OW19957   1.928   3.869   2.174
 6426SOL    HW119958   1.914   3.958   2.141
 6426SOL    HW219959   2.011   3.841   2.135
 6427SOL     OW19960   3.051   0.013   2.331
 6427SOL    HW119961   3.122   3.949   2.324
 6427SOL    HW219962   3.076   0.070   2.403
 6428SOL     OW19963   3.647   0.051   3.495
 6428SOL    HW119964   3.610   0.080   3.412
 6428SOL    HW219965   3.574   0.010   3.541
 6429SOL     OW19966   3.680   3.912   3.099
 6429SOL    HW119967   3.671   3.819   3.123
 6429SOL    HW219968   3.687   3.911   3.004
 6430SOL     OW19969   3.300   3.935   2.980
 6430SOL    HW119970   3.331   3.856   3.025
 6430SOL    HW219971   3.240   3.976   3.043
 6431SOL     OW19972   2.874   3.738   3.013
 6431SOL    HW119973   2.816   3.681   2.963
 6431SOL    HW219974   2.960   3.697   3.008
 6432SOL     OW19975   3.214   3.772   2.019
 6432SOL    HW119976   3.245   3.705   1.958
 6432SOL    HW219977   3.128   3.742   2.047
 6433SOL     OW19978   3.146   0.162   2.546
 6433SOL    HW119979   3.138   0.257   2.552
 6433SOL    HW219980   3.154   0.133   2.637
 6434SOL     OW19981   3.442   3.932   2.738
 6434SOL    HW119982   3.387   3.933   2.816
 6434SOL    HW219983   3.440   0.022   2.706
 6435SOL     OW19984   2.094   3.984   4.709
 6435SOL    HW119985   2.118   3.965   4.800
 6435SOL    HW219986   2.004   3.953   4.702
 6436SOL     OW19987   1.879   0.062   4.432
 6436SOL    HW119988   1.807   0.121   4.408
 6436SOL    HW219989   1.896   0.012   4.353
 6437SOL     OW19990   3.637   0.321   3.912
 6437SOL    HW119991   3.561   0.309   3.855
 6437SOL    HW219992   3.600   0.334   3.999
 6438SOL     OW19993   2.298   0.099   5.232
 6438SOL    HW119994   2.373   0.059   5.187
 6438SOL    HW219995   2.224   0.043   5.209
 6439SOL     OW19996   3.460   3.847   5.189
 6439SOL    HW119997   3.458   3.931   5.144
 6439SOL    HW219998   3.447   3.868   5.281
 6440SOL     OW19999   2.668   3.728   4.225
 6440SOL    HW120000   2.695   3.820   4.219
 6440SOL    HW220001   2.573   3.732   4.238
 6441SOL     OW20002   3.131   0.063   4.664
 6441SOL    HW120003   3.061   0.007   4.631
 6441SOL    HW220004   3.187   0.004   4.714
 6442SOL     OW20005   2.415   3.906   4.613
 6442SOL    HW120006   2.411   3.925   4.707
 6442SOL    HW220007   2.410   3.992   4.571
 6443SOL     OW20008   2.052   3.984   5.215
 6443SOL    HW120009   1.998   0.063   5.215
 6443SOL    HW220010   2.022   3.934   5.290
 6444SOL     OW20011   3.267   3.836   4.149
 6444SOL    HW120012   3.257   3.800   4.061
 6444SOL    HW220013   3.359   3.824   4.170
 6445SOL     OW20014   3.398   3.942   5.449
 6445SOL    HW120015   3.423   3.946   5.541
 6445SOL    HW220016   3.333   3.872   5.444
 6446SOL     OW20017   2.487   3.850   3.846
 6446SOL    HW120018   2.577   3.820   3.852
 6446SOL    HW220019   2.451   3.804   3.770
 6447SOL     OW20020   2.636   3.963   5.469
 6447SOL    HW120021   2.692   3.931   5.540
 6447SOL    HW220022   2.551   3.978   5.510
 6448SOL     OW20023   2.395   3.786   4.234
 6448SOL    HW120024   2.344   3.790   4.315
 6448SOL    HW220025   2.407   3.878   4.210
 6449SOL     OW20026   2.151   3.754   3.902
 6449SOL    HW120027   2.194   3.838   3.885
 6449SOL    HW220028   2.219   3.700   3.942
 6450SOL     OW20029   2.421   3.943   4.890
 6450SOL    HW120030   2.461   3.867   4.932
 6450SOL    HW220031   2.330   3.942   4.918
 6451SOL     OW20032   2.880   3.769   4.468
 6451SOL    HW120033   2.817   3.757   4.397
 6451SOL    HW220034   2.857   3.702   4.532
 6452SOL     OW20035   2.783   3.805   5.126
 6452SOL    HW120036   2.811   3.786   5.036
 6452SOL    HW220037   2.856   3.856   5.163
 6453SOL     OW20038   3.127   0.079   4.988
 6453SOL    HW120039   3.145   0.146   5.053
 6453SOL    HW220040   3.058   0.117   4.933
 6454SOL     OW20041   2.368   3.750   5.477
 6454SOL    HW120042   2.317   3.704   5.410
 6454SOL    HW220043   2.329   3.837   5.481
 6455SOL     OW20044   2.158   3.923   4.976
 6455SOL    HW120045   2.115   3.941   5.060
 6455SOL    HW220046   2.145   3.829   4.962
 6456SOL     OW20047   3.441   3.958   3.848
 6456SOL    HW120048   3.378   3.901   3.890
 6456SOL    HW220049   3.453   0.030   3.909
 6457SOL     OW20050   3.026   3.926   5.197
 6457SOL    HW120051   3.030   3.997   5.261
 6457SOL    HW220052   3.064   3.962   5.117
 6458SOL     OW20053   2.763   3.812   3.833
 6458SOL    HW120054   2.826   3.782   3.768
 6458SOL    HW220055   2.801   3.788   3.917
 6459SOL     OW20056   3.587   3.861   4.245
 6459SOL    HW120057   3.656   3.846   4.181
 6459SOL    HW220058   3.569   3.774   4.281
 6460SOL     OW20059   3.696   3.896   4.689
 6460SOL    HW120060   3.730   3.810   4.663
 6460SOL    HW220061   3.610   3.901   4.647
 6461SOL     OW20062   2.534   3.912   5.219
 6461SOL    HW120063   2.615   3.907   5.169
 6461SOL    HW220064   2.561   3.934   5.308
 6462SOL     OW20065   1.910   0.053   3.759
 6462SOL    HW120066   1.863   0.034   3.678
 6462SOL    HW220067   1.945   0.141   3.746
 6463SOL     OW20068   1.928   3.869   4.036
 6463SOL    HW120069   1.915   3.958   4.003
 6463SOL    HW220070   2.011   3.841   3.997
 6464SOL     OW20071   3.051   0.013   4.193
 6464SOL    HW120072   3.122   3.949   4.186
 6464SOL    HW220073   3.076   0.070   4.265
 6465SOL     OW20074   3.647   0.051   5.358
 6465SOL    HW120075   3.611   0.080   5.274
 6465SOL    HW220076   3.574   0.010   5.403
 6466SOL     OW20077   3.680   3.911   4.961
 6466SOL    HW120078   3.671   3.819   4.985
 6466SOL    HW220079   3.687   3.911   4.866
 6467SOL     OW20080   3.300   3.935   4.842
 6467SOL    HW120081   3.330   3.856   4.887
 6467SOL    HW220082   3.240   3.976   4.905
 6468SOL     OW20083   2.874   3.738   4.875
 6468SOL    HW120084   2.816   3.681   4.825
 6468SOL    HW220085   2.960   3.697   4.870
 6469SOL     OW20086   3.214   3.772   3.881
 6469SOL    HW120087   3.245   3.704   3.820
 6469SOL    HW220088   3.128   3.742   3.909
 6470SOL     OW20089   3.146   0.162   4.408
 6470SOL    HW120090   3.138   0.257   4.414
 6470SOL    HW220091   3.154   0.133   4.499
 6471SOL     OW20092   3.442   3.932   4.600
 6471SOL    HW120093   3.387   3.933   4.678
 6471SOL    HW220094   3.440   0.022   4.568
 6472SOL     OW20095   2.094   3.985   6.572
 6472SOL    HW120096   2.118   3.965   6.662
 6472SOL    HW220097   2.004   3.954   6.564
 6473SOL     OW20098   1.879   0.062   6.294
 6473SOL    HW120099   1.808   0.122   6.270
 6473SOL    HW220100   1.896   0.012   6.215
 6474SOL     OW20101   3.637   0.321   5.774
 6474SOL    HW120102   3.561   0.310   5.717
 6474SOL    HW220103   3.600   0.334   5.861
 6475SOL     OW20104   2.300   0.098   7.094
 6475SOL    HW120105   2.373   0.057   7.049
 6475SOL    HW220106   2.224   0.044   7.071
 6476SOL     OW20107   3.460   3.847   7.051
 6476SOL    HW120108   3.457   3.931   7.006
 6476SOL    HW220109   3.447   3.868   7.143
 6477SOL     OW20110   2.668   3.728   6.086
 6477SOL    HW120111   2.695   3.820   6.081
 6477SOL    HW220112   2.573   3.732   6.099
 6478SOL     OW20113   3.130   0.063   6.527
 6478SOL    HW120114   3.061   0.007   6.492
 6478SOL    HW220115   3.187   0.004   6.576
 6479SOL     OW20116   2.415   3.906   6.475
 6479SOL    HW120117   2.411   3.925   6.569
 6479SOL    HW220118   2.410   3.992   6.433
 6480SOL     OW20119   2.053   3.984   7.078
 6480SOL    HW120120   1.996   0.061   7.075
 6480SOL    HW220121   2.022   3.934   7.153
 6481SOL     OW20122   3.267   3.836   6.011
 6481SOL    HW120123   3.257   3.801   5.923
 6481SOL    HW220124   3.359   3.824   6.032
 6482SOL     OW20125   3.397   3.943   7.311
 6482SOL    HW120126   3.422   3.947   7.403
 6482SOL    HW220127   3.333   3.871   7.306
 6483SOL     OW20128   2.487   3.850   5.708
 6483SOL    HW120129   2.577   3.820   5.714
 6483SOL    HW220130   2.450   3.804   5.632
 6484SOL     OW20131   2.636   3.965   7.331
 6484SOL    HW120132   2.692   3.931   7.401
 6484SOL    HW220133   2.550   3.977   7.373
 6485SOL     OW20134   2.394   3.786   6.096
 6485SOL    HW120135   2.344   3.790   6.177
 6485SOL    HW220136   2.407   3.878   6.071
 6486SOL     OW20137   2.151   3.754   5.764
 6486SOL    HW120138   2.194   3.838   5.747
 6486SOL    HW220139   2.219   3.700   5.804
 6487SOL     OW20140   2.422   3.944   6.752
 6487SOL    HW120141   2.461   3.867   6.792
 6487SOL    HW220142   2.330   3.942   6.780
 6488SOL     OW20143   2.880   3.770   6.330
 6488SOL    HW120144   2.817   3.757   6.259
 6488SOL    HW220145   2.858   3.702   6.394
 6489SOL     OW20146   2.783   3.807   6.987
 6489SOL    HW120147   2.811   3.786   6.898
 6489SOL    HW220148   2.856   3.855   7.024
 6490SOL     OW20149   3.127   0.079   6.850
 6490SOL    HW120150   3.145   0.147   6.915
 6490SOL    HW220151   3.058   0.116   6.795
 6491SOL     OW20152   2.368   3.751   7.339
 6491SOL    HW120153   2.317   3.705   7.272
 6491SOL    HW220154   2.329   3.838   7.343
 6492SOL     OW20155   2.158   3.923   6.838
 6492SOL    HW120156   2.116   3.941   6.922
 6492SOL    HW220157   2.144   3.829   6.825
 6493SOL     OW20158   3.441   3.958   5.710
 6493SOL    HW120159   3.377   3.901   5.752
 6493SOL    HW220160   3.453   0.030   5.771
 6494SOL     OW20161   3.025   3.926   7.059
 6494SOL    HW120162   3.031   3.997   7.122
 6494SOL    HW220163   3.064   3.961   6.979
 6495SOL     OW20164   2.763   3.812   5.695
 6495SOL    HW120165   2.826   3.782   5.630
 6495SOL    HW220166   2.801   3.787   5.779
 6496SOL     OW20167   3.587   3.861   6.107
 6496SOL    HW120168   3.656   3.846   6.042
 6496SOL    HW220169   3.569   3.774   6.143
 6497SOL     OW20170   3.696   3.896   6.551
 6497SOL    HW120171   3.730   3.810   6.525
 6497SOL    HW220172   3.610   3.901   6.508
 6498SOL     OW20173   2.534   3.913   7.081
 6498SOL    HW120174   2.616   3.906   7.031
 6498SOL    HW220175   2.562   3.935   7.170
 6499SOL     OW20176   1.910   0.053   5.621
 6499SOL    HW120177   1.863   0.034   5.539
 6499SOL    HW220178   1.945   0.141   5.608
 6500SOL     OW20179   1.928   3.869   5.898
 6500SOL    HW120180   1.914   3.958   5.865
 6500SOL    HW220181   2.011   3.841   5.859
 6501SOL     OW20182   3.050   0.012   6.055
 6501SOL    HW120183   3.122   3.949   6.048
 6501SOL    HW220184   3.076   0.070   6.127
 6502SOL     OW20185   3.647   0.052   7.220
 6502SOL    HW120186   3.611   0.079   7.136
 6502SOL    HW220187   3.574   0.010   7.266
 6503SOL     OW20188   3.680   3.911   6.823
 6503SOL    HW120189   3.671   3.819   6.847
 6503SOL    HW220190   3.687   3.911   6.728
 6504SOL     OW20191   3.301   3.936   6.704
 6504SOL    HW120192   3.330   3.855   6.747
 6504SOL    HW220193   3.240   3.976   6.767
 6505SOL     OW20194   2.874   3.738   6.737
 6505SOL    HW120195   2.816   3.680   6.688
 6505SOL    HW220196   2.960   3.696   6.732
 6506SOL     OW20197   3.214   3.772   5.743
 6506SOL    HW120198   3.245   3.704   5.682
 6506SOL    HW220199   3.128   3.742   5.771
 6507SOL     OW20200   3.146   0.162   6.271
 6507SOL    HW120201   3.138   0.257   6.276
 6507SOL    HW220202   3.154   0.133   6.362
 6508SOL     OW20203   3.442   3.932   6.462
 6508SOL    HW120204   3.388   3.933   6.540
 6508SOL    HW220205   3.440   0.022   6.430
 6509SOL     OW20206   2.094   3.985   8.434
 6509SOL    HW120207   2.118   3.965   8.524
 6509SOL    HW220208   2.004   3.953   8.426
 6510SOL     OW20209   1.879   0.063   8.156
 6510SOL    HW120210   1.808   0.121   8.132
 6510SOL    HW220211   1.896   0.012   8.077
 6511SOL     OW20212   3.637   0.322   7.636
 6511SOL    HW120213   3.561   0.310   7.579
 6511SOL    HW220214   3.599   0.334   7.723
 6512SOL     OW20215   2.299   0.099   8.955
 6512SOL    HW120216   2.373   0.058   8.911
 6512SOL    HW220217   2.224   0.043   8.934
 6513SOL     OW20218   3.460   3.847   8.913
 6513SOL    HW120219   3.458   3.931   8.868
 6513SOL    HW220220   3.447   3.868   9.005
 6514SOL     OW20221   2.668   3.728   7.949
 6514SOL    HW120222   2.695   3.820   7.944
 6514SOL    HW220223   2.573   3.732   7.962
 6515SOL     OW20224   3.131   0.063   8.388
 6515SOL    HW120225   3.061   0.006   8.355
 6515SOL    HW220226   3.187   0.004   8.438
 6516SOL     OW20227   2.415   3.906   8.337
 6516SOL    HW120228   2.411   3.925   8.431
 6516SOL    HW220229   2.410   3.992   8.295
 6517SOL     OW20230   2.053   3.984   8.939
 6517SOL    HW120231   1.997   0.062   8.939
 6517SOL    HW220232   2.022   3.933   9.014
 6518SOL     OW20233   3.266   3.837   7.873
 6518SOL    HW120234   3.257   3.800   7.785
 6518SOL    HW220235   3.359   3.823   7.894
 6519SOL     OW20236   3.398   3.942   9.173
 6519SOL    HW120237   3.422   3.947   9.265
 6519SOL    HW220238   3.333   3.871   9.168
 6520SOL     OW20239   2.487   3.851   7.569
 6520SOL    HW120240   2.577   3.819   7.576
 6520SOL    HW220241   2.450   3.804   7.494
 6521SOL     OW20242   2.636   3.963   9.193
 6521SOL    HW120243   2.692   3.931   9.264
 6521SOL    HW220244   2.551   3.978   9.234
 6522SOL     OW20245   2.395   3.786   7.958
 6522SOL    HW120246   2.344   3.790   8.039
 6522SOL    HW220247   2.407   3.878   7.933
 6523SOL     OW20248   2.151   3.754   7.626
 6523SOL    HW120249   2.194   3.838   7.608
 6523SOL    HW220250   2.219   3.700   7.666
 6524SOL     OW20251   2.421   3.943   8.614
 6524SOL    HW120252   2.461   3.867   8.656
 6524SOL    HW220253   2.330   3.942   8.642
 6525SOL     OW20254   2.880   3.770   8.193
 6525SOL    HW120255   2.817   3.757   8.122
 6525SOL    HW220256   2.857   3.702   8.257
 6526SOL     OW20257   2.783   3.805   8.850
 6526SOL    HW120258   2.811   3.786   8.760
 6526SOL    HW220259   2.856   3.856   8.887
 6527SOL     OW20260   3.127   0.079   8.712
 6527SOL    HW120261   3.145   0.146   8.778
 6527SOL    HW220262   3.058   0.117   8.657
 6528SOL     OW20263   2.368   3.750   9.201
 6528SOL    HW120264   2.317   3.704   9.134
 6528SOL    HW220265   2.329   3.837   9.205
 6529SOL     OW20266   2.158   3.923   8.700
 6529SOL    HW120267   2.116   3.942   8.784
 6529SOL    HW220268   2.145   3.829   8.687
 6530SOL     OW20269   3.441   3.958   7.572
 6530SOL    HW120270   3.378   3.900   7.614
 6530SOL    HW220271   3.454   0.029   7.635
 6531SOL     OW20272   3.026   3.926   8.921
 6531SOL    HW120273   3.030   3.997   8.985
 6531SOL    HW220274   3.064   3.962   8.841
 6532SOL     OW20275   2.763   3.812   7.557
 6532SOL    HW120276   2.825   3.781   7.491
 6532SOL    HW220277   2.802   3.787   7.640
 6533SOL     OW20278   3.587   3.861   7.969
 6533SOL    HW120279   3.656   3.846   7.904
 6533SOL    HW220280   3.568   3.774   8.005
 6534SOL     OW20281   3.696   3.896   8.413
 6534SOL    HW120282   3.730   3.810   8.388
 6534SOL    HW220283   3.610   3.901   8.370
 6535SOL     OW20284   2.534   3.913   8.943
 6535SOL    HW120285   2.615   3.907   8.893
 6535SOL    HW220286   2.561   3.934   9.032
 6536SOL     OW20287   1.910   0.053   7.483
 6536SOL    HW120288   1.863   0.034   7.402
 6536SOL    HW220289   1.945   0.141   7.470
 6537SOL     OW20290   1.928   3.869   7.760
 6537SOL    HW120291   1.914   3.958   7.727
 6537SOL    HW220292   2.011   3.841   7.721
 6538SOL     OW20293   3.050   0.013   7.918
 6538SOL    HW120294   3.121   3.949   7.910
 6538SOL    HW220295   3.077   0.070   7.990
 6539SOL     OW20296   3.647   0.051   9.082
 6539SOL    HW120297   3.610   0.080   8.998
 6539SOL    HW220298   3.574   0.010   9.128
 6540SOL     OW20299   3.680   3.911   8.685
 6540SOL    HW120300   3.672   3.819   8.709
 6540SOL    HW220301   3.687   3.911   8.590
 6541SOL     OW20302   3.300   3.935   8.566
 6541SOL    HW120303   3.331   3.856   8.610
 6541SOL    HW220304   3.240   3.976   8.629
 6542SOL     OW20305   2.874   3.738   8.599
 6542SOL    HW120306   2.817   3.681   8.549
 6542SOL    HW220307   2.960   3.697   8.594
 6543SOL     OW20308   3.214   3.772   7.605
 6543SOL    HW120309   3.245   3.704   7.544
 6543SOL    HW220310   3.128   3.742   7.633
 6544SOL     OW20311   3.146   0.162   8.133
 6544SOL    HW120312   3.138   0.257   8.138
 6544SOL    HW220313   3.154   0.133   8.224
 6545SOL     OW20314   3.442   3.932   8.324
 6545SOL    HW120315   3.387   3.933   8.402
 6545SOL    HW220316   3.440   0.022   8.292
 6546SOL     OW20317   2.094   3.984  10.295
 6546SOL    HW120318   2.118   3.965  10.386
 6546SOL    HW220319   2.004   3.953  10.288
 6547SOL     OW20320   1.879   0.062  10.018
 6547SOL    HW120321   1.807   0.121   9.994
 6547SOL    HW220322   1.896   0.012   9.939
 6548SOL     OW20323   3.637   0.321   9.498
 6548SOL    HW120324   3.561   0.310   9.441
 6548SOL    HW220325   3.600   0.334   9.585
 6549SOL     OW20326   2.299   0.099  10.817
 6549SOL    HW120327   2.373   0.058  10.773
 6549SOL    HW220328   2.224   0.043  10.795
 6550SOL     OW20329   3.460   3.847  10.775
 6550SOL    HW120330   3.458   3.931  10.730
 6550SOL    HW220331   3.447   3.868  10.867
 6551SOL     OW20332   2.668   3.728   9.811
 6551SOL    HW120333   2.695   3.820   9.805
 6551SOL    HW220334   2.573   3.732   9.824
 6552SOL     OW20335   3.131   0.063  10.250
 6552SOL    HW120336   3.061   0.007  10.217
 6552SOL    HW220337   3.187   0.004  10.301
 6553SOL     OW20338   2.415   3.906  10.199
 6553SOL    HW120339   2.411   3.925  10.293
 6553SOL    HW220340   2.410   3.992  10.157
 6554SOL     OW20341   2.053   3.984  10.801
 6554SOL    HW120342   1.998   0.062  10.801
 6554SOL    HW220343   2.022   3.933  10.877
 6555SOL     OW20344   3.267   3.836   9.735
 6555SOL    HW120345   3.257   3.800   9.647
 6555SOL    HW220346   3.359   3.824   9.756
 6556SOL     OW20347   3.398   3.942  11.035
 6556SOL    HW120348   3.423   3.946  11.127
 6556SOL    HW220349   3.333   3.872  11.031
 6557SOL     OW20350   2.487   3.850   9.432
 6557SOL    HW120351   2.577   3.820   9.438
 6557SOL    HW220352   2.451   3.804   9.356
 6558SOL     OW20353   2.636   3.963  11.055
 6558SOL    HW120354   2.692   3.931  11.126
 6558SOL    HW220355   2.551   3.978  11.096
 6559SOL     OW20356   2.394   3.786   9.820
 6559SOL    HW120357   2.344   3.790   9.901
 6559SOL    HW220358   2.407   3.878   9.796
 6560SOL     OW20359   2.151   3.754   9.488
 6560SOL    HW120360   2.194   3.838   9.471
 6560SOL    HW220361   2.219   3.700   9.528
 6561SOL     OW20362   2.421   3.943  10.476
 6561SOL    HW120363   2.461   3.867  10.518
 6561SOL    HW220364   2.330   3.942  10.504
 6562SOL     OW20365   2.880   3.769  10.054
 6562SOL    HW120366   2.817   3.757   9.984
 6562SOL    HW220367   2.857   3.702  10.119
 6563SOL     OW20368   2.783   3.805  10.712
 6563SOL    HW120369   2.811   3.786  10.622
 6563SOL    HW220370   2.856   3.856  10.749
 6564SOL     OW20371   3.127   0.079  10.574
 6564SOL    HW120372   3.145   0.146  10.639
 6564SOL    HW220373   3.058   0.117  10.519
 6565SOL     OW20374   2.368   3.750  11.063
 6565SOL    HW120375   2.317   3.704  10.996
 6565SOL    HW220376   2.329   3.837  11.067
 6566SOL     OW20377   2.158   3.923  10.562
 6566SOL    HW120378   2.115   3.942  10.646
 6566SOL    HW220379   2.145   3.829  10.549
 6567SOL     OW20380   3.441   3.958   9.434
 6567SOL    HW120381   3.378   3.901   9.476
 6567SOL    HW220382   3.454   0.030   9.496
 6568SOL     OW20383   3.026   3.925  10.783
 6568SOL    HW120384   3.030   3.997  10.847
 6568SOL    HW220385   3.064   3.962  10.703
 6569SOL     OW20386   2.763   3.812   9.419
 6569SOL    HW120387   2.826   3.782   9.354
 6569SOL    HW220388   2.801   3.788   9.503
 6570SOL     OW20389   3.587   3.861   9.831
 6570SOL    HW120390   3.656   3.846   9.767
 6570SOL    HW220391   3.569   3.774   9.867
 6571SOL     OW20392   3.696   3.896  10.275
 6571SOL    HW120393   3.730   3.810  10.249
 6571SOL    HW220394   3.610   3.901  10.233
 6572SOL     OW20395   2.534   3.913  10.804
 6572SOL    HW120396   2.615   3.907  10.755
 6572SOL    HW220397   2.561   3.934  10.894
 6573SOL     OW20398   1.910   0.053   9.345
 6573SOL    HW120399   1.863   0.033   9.264
 6573SOL    HW220400   1.945   0.141   9.332
 6574SOL     OW20401   1.928   3.869   9.622
 6574SOL    HW120402   1.914   3.958   9.589
 6574SOL    HW220403   2.011   3.841   9.583
 6575SOL     OW20404   3.050   0.012   9.779
 6575SOL    HW120405   3.122   3.949   9.772
 6575SOL    HW220406   3.076   0.070   9.851
 6576SOL     OW20407   3.647   0.051  10.943
 6576SOL    HW120408   3.610   0.080  10.860
 6576SOL    HW220409   3.574   0.010  10.989
 6577SOL     OW20410   3.680   3.912  10.547
 6577SOL    HW120411   3.671   3.819  10.571
 6577SOL    HW220412   3.687   3.911  10.452
 6578SOL     OW20413   3.300   3.935  10.428
 6578SOL    HW120414   3.330   3.856  10.473
 6578SOL    HW220415   3.240   3.976  10.491
 6579SOL     OW20416   2.874   3.738  10.461
 6579SOL    HW120417   2.816   3.681  10.411
 6579SOL    HW220418   2.960   3.697  10.456
 6580SOL     OW20419   3.214   3.772   9.467
 6580SOL    HW120420   3.245   3.705   9.406
 6580SOL    HW220421   3.128   3.742   9.495
 6581SOL     OW20422   3.146   0.162   9.994
 6581SOL    HW120423   3.138   0.257  10.000
 6581SOL    HW220424   3.154   0.133  10.085
 6582SOL     OW20425   3.442   3.932  10.186
 6582SOL    HW120426   3.387   3.933  10.264
 6582SOL    HW220427   3.440   0.022  10.154
 6583SOL     OW20428   2.094   3.984  12.157
 6583SOL    HW120429   2.118   3.965  12.248
 6583SOL    HW220430   2.004   3.953  12.150
 6584SOL     OW20431   1.879   0.062  11.880
 6584SOL    HW120432   1.807   0.121  11.856
 6584SOL    HW220433   1.896   0.012  11.801
 6585SOL     OW20434   3.637   0.321  11.360
 6585SOL    HW120435   3.561   0.309  11.303
 6585SOL    HW220436   3.600   0.334  11.447
 6586SOL     OW20437   2.299   0.099  12.679
 6586SOL    HW120438   2.373   0.058  12.635
 6586SOL    HW220439   2.224   0.043  12.657
 6587SOL     OW20440   3.460   3.847  12.637
 6587SOL    HW120441   3.458   3.932  12.593
 6587SOL    HW220442   3.447   3.867  12.729
 6588SOL     OW20443   2.668   3.728  11.673
 6588SOL    HW120444   2.695   3.820  11.667
 6588SOL    HW220445   2.573   3.732  11.686
 6589SOL     OW20446   3.131   0.063  12.112
 6589SOL    HW120447   3.061   0.007  12.079
 6589SOL    HW220448   3.187   0.004  12.163
 6590SOL     OW20449   2.415   3.906  12.061
 6590SOL    HW120450   2.411   3.925  12.155
 6590SOL    HW220451   2.410   3.992  12.019
 6591SOL     OW20452   2.053   3.984  12.663
 6591SOL    HW120453   1.997   0.062  12.663
 6591SOL    HW220454   2.022   3.933  12.738
 6592SOL     OW20455   3.267   3.836  11.597
 6592SOL    HW120456   3.257   3.800  11.509
 6592SOL    HW220457   3.359   3.824  11.618
 6593SOL     OW20458   3.398   3.942  12.896
 6593SOL    HW120459   3.421   3.948  12.989
 6593SOL    HW220460   3.333   3.872  12.893
 6594SOL     OW20461   2.487   3.850  11.294
 6594SOL    HW120462   2.577   3.820  11.300
 6594SOL    HW220463   2.451   3.804  11.218
 6595SOL     OW20464   2.636   3.963  12.917
 6595SOL    HW120465   2.692   3.931  12.988
 6595SOL    HW220466   2.551   3.977  12.958
 6596SOL     OW20467   2.394   3.786  11.682
 6596SOL    HW120468   2.344   3.790  11.763
 6596SOL    HW220469   2.407   3.878  11.658
 6597SOL     OW20470   2.151   3.754  11.350
 6597SOL    HW120471   2.194   3.838  11.333
 6597SOL    HW220472   2.219   3.700  11.390
 6598SOL     OW20473   2.421   3.943  12.338
 6598SOL    HW120474   2.461   3.867  12.380
 6598SOL    HW220475   2.330   3.942  12.366
 6599SOL     OW20476   2.880   3.769  11.916
 6599SOL    HW120477   2.817   3.757  11.846
 6599SOL    HW220478   2.857   3.702  11.981
 6600SOL     OW20479   2.783   3.805  12.573
 6600SOL    HW120480   2.811   3.786  12.484
 6600SOL    HW220481   2.856   3.856  12.611
 6601SOL     OW20482   3.127   0.079  12.436
 6601SOL    HW120483   3.145   0.146  12.501
 6601SOL    HW220484   3.058   0.117  12.381
 6602SOL     OW20485   2.368   3.750  12.925
 6602SOL    HW120486   2.317   3.704  12.858
 6602SOL    HW220487   2.329   3.837  12.929
 6603SOL     OW20488   2.158   3.923  12.424
 6603SOL    HW120489   2.116   3.942  12.508
 6603SOL    HW220490   2.145   3.829  12.411
 6604SOL     OW20491   3.441   3.958  11.296
 6604SOL    HW120492   3.378   3.901  11.338
 6604SOL    HW220493   3.453   0.030  11.357
 6605SOL     OW20494   3.026   3.925  12.645
 6605SOL    HW120495   3.030   3.997  12.709
 6605SOL    HW220496   3.064   3.962  12.565
 6606SOL     OW20497   2.763   3.812  11.281
 6606SOL    HW120498   2.826   3.782  11.216
 6606SOL    HW220499   2.801   3.788  11.365
 6607SOL     OW20500   3.587   3.861  11.693
 6607SOL    HW120501   3.656   3.846  11.629
 6607SOL    HW220502   3.569   3.774  11.729
 6608SOL     OW20503   3.696   3.896  12.137
 6608SOL    HW120504   3.730   3.810  12.111
 6608SOL    HW220505   3.610   3.901  12.095
 6609SOL     OW20506   2.534   3.913  12.666
 6609SOL    HW120507   2.616   3.907  12.617
 6609SOL    HW220508   2.561   3.934  12.756
 6610SOL     OW20509   1.910   0.053  11.207
 6610SOL    HW120510   1.863   0.034  11.125
 6610SOL    HW220511   1.945   0.141  11.194
 6611SOL     OW20512   1.928   3.869  11.484
 6611SOL    HW120513   1.914   3.958  11.451
 6611SOL    HW220514   2.011   3.841  11.445
 6612SOL     OW20515   3.051   0.012  11.641
 6612SOL    HW120516   3.122   3.949  11.634
 6612SOL    HW220517   3.076   0.070  11.713
 6613SOL     OW20518   3.647   0.051  12.805
 6613SOL    HW120519   3.610   0.080  12.722
 6613SOL    HW220520   3.575   0.010  12.852
 6614SOL     OW20521   3.681   3.912  12.409
 6614SOL    HW120522   3.671   3.819  12.433
 6614SOL    HW220523   3.687   3.911  12.314
 6615SOL     OW20524   3.300   3.935  12.290
 6615SOL    HW120525   3.330   3.856  12.335
 6615SOL    HW220526   3.240   3.976  12.353
 6616SOL     OW20527   2.874   3.738  12.323
 6616SOL    HW120528   2.816   3.681  12.273
 6616SOL    HW220529   2.960   3.697  12.318
 6617SOL     OW20530   3.214   3.772  11.329
 6617SOL    HW120531   3.245   3.704  11.268
 6617SOL    HW220532   3.128   3.742  11.357
 6618SOL     OW20533   3.146   0.162  11.856
 6618SOL    HW120534   3.138   0.257  11.862
 6618SOL    HW220535   3.154   0.133  11.947
 6619SOL     OW20536   3.442   3.932  12.048
 6619SOL    HW120537   3.387   3.933  12.126
 6619SOL    HW220538   3.440   0.022  12.016
 6620SOL     OW20539   1.884   0.090  13.687
 6620SOL    HW120540   1.804   0.107  13.737
 6620SOL    HW220541   1.873   0.002  13.653
 6621SOL     OW20542   3.637   0.319  13.222
 6621SOL    HW120543   3.560   0.310  13.165
 6621SOL    HW220544   3.601   0.325  13.310
 6622SOL     OW20545   3.467   0.175  13.763
 6622SOL    HW120546   3.378   0.164  13.728
 6622SOL    HW220547   3.464   0.256  13.813
 6623SOL     OW20548   2.669   3.728  13.537
 6623SOL    HW120549   2.695   3.820  13.530
 6623SOL    HW220550   2.574   3.730  13.548
 6624SOL     OW20551   3.267   3.837  13.458
 6624SOL    HW120552   3.260   3.800  13.370
 6624SOL    HW220553   3.360   3.829  13.481
 6625SOL     OW20554   2.487   3.851  13.155
 6625SOL    HW120555   2.577   3.820  13.162
 6625SOL    HW220556   2.451   3.804  13.080
 6626SOL     OW20557   2.396   3.784  13.542
 6626SOL    HW120558   2.340   3.778  13.620
 6626SOL    HW220559   2.404   3.878  13.526
 6627SOL     OW20560   2.151   3.754  13.211
 6627SOL    HW120561   2.196   3.837  13.194
 6627SOL    HW220562   2.218   3.699  13.252
 6628SOL     OW20563   2.873   3.767  13.777
 6628SOL    HW120564   2.817   3.761  13.700
 6628SOL    HW220565   2.854   3.687  13.827
 6629SOL     OW20566   3.439   3.961  13.157
 6629SOL    HW120567   3.381   3.900  13.201
 6629SOL    HW220568   3.465   0.023  13.226
 6630SOL     OW20569   2.763   3.812  13.143
 6630SOL    HW120570   2.825   3.782  13.077
 6630SOL    HW220571   2.802   3.786  13.227
 6631SOL     OW20572   3.589   3.858  13.563
 6631SOL    HW120573   3.656   3.847  13.495
 6631SOL    HW220574   3.572   3.769  13.594
 6632SOL     OW20575   3.711   3.889   0.049
 6632SOL    HW120576   3.740   3.799   0.059
 6632SOL    HW220577   3.620   3.889   0.080
 6633SOL     OW20578   1.910   0.053  13.068
 6633SOL    HW120579   1.863   0.034  12.987
 6633SOL    HW220580   1.945   0.141  13.056
 6634SOL     OW20581   1.926   3.869  13.345
 6634SOL    HW120582   1.915   3.960  13.317
 6634SOL    HW220583   2.009   3.842  13.306
 6635SOL     OW20584   3.047   0.007  13.511
 6635SOL    HW120585   3.121   3.949  13.494
 6635SOL    HW220586   3.079   0.068  13.577
 6636SOL     OW20587   3.215   3.772  13.191
 6636SOL    HW120588   3.245   3.704  13.130
 6636SOL    HW220589   3.128   3.743  13.219
 6637SOL     OW20590   3.168   0.160  13.732
 6637SOL    HW120591   3.129   0.245  13.715
 6637SOL    HW220592   3.158   0.147  13.826
 6638SOL     OW20593   3.955   0.633   0.123
 6638SOL    HW120594   3.884   0.626   0.187
 6638SOL    HW220595   3.926   0.579   0.049
 6639SOL     OW20596   3.952   0.292   0.989
 6639SOL    HW120597   3.966   0.273   1.082
 6639SOL    HW220598   3.865   0.257   0.970
 6640SOL     OW20599   3.731   0.392   0.640
 6640SOL    HW120600   3.644   0.407   0.677
 6640SOL    HW220601   3.721   0.314   0.585
 6641SOL     OW20602   0.014   1.518   1.049
 6641SOL    HW120603   3.969   1.435   1.034
 6641SOL    HW220604   0.085   1.519   0.985
 6642SOL     OW20605   3.945   1.718   0.472
 6642SOL    HW120606   3.951   1.792   0.533
 6642SOL    HW220607   0.035   1.705   0.441
 6643SOL     OW20608   3.937   1.438   0.510
 6643SOL    HW120609   3.926   1.533   0.516
 6643SOL    HW220610   3.884   1.403   0.582
 6644SOL     OW20611   3.812   0.648   0.556
 6644SOL    HW120612   3.798   0.557   0.581
 6644SOL    HW220613   3.815   0.695   0.639
 6645SOL     OW20614   3.701   1.615   0.104
 6645SOL    HW120615   3.734   1.527   0.122
 6645SOL    HW220616   3.702   1.659   0.189
 6646SOL     OW20617   3.830   0.747   1.579
 6646SOL    HW120618   3.915   0.778   1.610
 6646SOL    HW220619   3.774   0.825   1.579
 6647SOL     OW20620   3.803   0.817   0.772
 6647SOL    HW120621   3.895   0.810   0.795
 6647SOL    HW220622   3.771   0.892   0.823
 6648SOL     OW20623   3.848   1.860   1.568
 6648SOL    HW120624   3.851   1.830   1.659
 6648SOL    HW220625   3.760   1.837   1.538
 6649SOL     OW20626   3.924   0.310   1.518
 6649SOL    HW120627   3.846   0.354   1.484
 6649SOL    HW220628   3.890   0.247   1.581
 6650SOL     OW20629   3.805   0.550   1.390
 6650SOL    HW120630   3.900   0.546   1.377
 6650SOL    HW220631   3.791   0.625   1.447
 6651SOL     OW20632   3.789   1.572   1.348
 6651SOL    HW120633   3.762   1.638   1.284
 6651SOL    HW220634   3.884   1.578   1.349
 6652SOL     OW20635   0.070   1.091   0.527
 6652SOL    HW120636   0.085   1.153   0.455
 6652SOL    HW220637   0.136   1.023   0.514
 6653SOL     OW20638   0.009   0.215   1.243
 6653SOL    HW120639   3.984   0.241   1.332
 6653SOL    HW220640   0.007   0.120   1.244
 6654SOL     OW20641   3.754   1.311   1.278
 6654SOL    HW120642   3.799   1.262   1.348
 6654SOL    HW220643   3.767   1.403   1.300
 6655SOL     OW20644   3.741   1.316   0.174
 6655SOL    HW120645   3.658   1.330   0.128
 6655SOL    HW220646   3.729   1.233   0.219
 6656SOL     OW20647   3.801   1.795   0.936
 6656SOL    HW120648   3.780   1.713   0.892
 6656SOL    HW220649   3.895   1.807   0.921
 6657SOL     OW20650   0.216   1.555   0.875
 6657SOL    HW120651   0.285   1.622   0.877
 6657SOL    HW220652   0.244   1.494   0.807
 6658SOL     OW20653   3.754   0.535   1.116
 6658SOL    HW120654   3.834   0.525   1.065
 6658SOL    HW220655   3.784   0.548   1.206
 6659SOL     OW20656   3.908   0.529   1.715
 6659SOL    HW120657   3.947   0.477   1.644
 6659SOL    HW220658   3.859   0.598   1.670
 6660SOL     OW20659   3.946   1.538   1.727
 6660SOL    HW120660   3.940   1.612   1.786
 6660SOL    HW220661   3.986   1.469   1.779
 6661SOL     OW20662   3.859   1.126   1.474
 6661SOL    HW120663   3.930   1.114   1.538
 6661SOL    HW220664   3.895   1.095   1.392
 6662SOL     OW20665   3.811   1.264   1.014
 6662SOL    HW120666   3.785   1.277   1.105
 6662SOL    HW220667   3.746   1.203   0.979
 6663SOL     OW20668   3.839   1.793   1.829
 6663SOL    HW120669   3.789   1.727   1.875
 6663SOL    HW220670   3.892   1.836   1.896
 6664SOL     OW20671   3.804   0.400   0.004
 6664SOL    HW120672   3.766   0.317   0.034
 6664SOL    HW220673   3.774   0.408  13.814
 6665SOL     OW20674   3.794   0.146   0.343
 6665SOL    HW120675   3.760   0.224   0.298
 6665SOL    HW220676   3.889   0.158   0.344
 6666SOL     OW20677   3.800   1.236   0.662
 6666SOL    HW120678   3.794   1.188   0.745
 6666SOL    HW220679   3.884   1.209   0.625
 6667SOL     OW20680   3.752   1.079   0.306
 6667SOL    HW120681   3.848   1.082   0.301
 6667SOL    HW220682   3.733   0.988   0.328
 6668SOL     OW20683   3.956   0.630   1.971
 6668SOL    HW120684   3.874   0.632   2.020
 6668SOL    HW220685   3.932   0.598   1.884
 6669SOL     OW20686   3.953   0.291   2.850
 6669SOL    HW120687   3.966   0.273   2.944
 6669SOL    HW220688   3.865   0.257   2.832
 6670SOL     OW20689   3.731   0.391   2.502
 6670SOL    HW120690   3.644   0.407   2.538
 6670SOL    HW220691   3.720   0.314   2.446
 6671SOL     OW20692   0.014   1.518   2.911
 6671SOL    HW120693   3.969   1.434   2.896
 6671SOL    HW220694   0.085   1.519   2.847
 6672SOL     OW20695   3.941   1.719   2.335
 6672SOL    HW120696   3.951   1.792   2.397
 6672SOL    HW220697   0.030   1.701   2.305
 6673SOL     OW20698   3.942   1.439   2.373
 6673SOL    HW120699   3.922   1.532   2.378
 6673SOL    HW220700   3.885   1.399   2.440
 6674SOL     OW20701   3.812   0.648   2.419
 6674SOL    HW120702   3.798   0.557   2.444
 6674SOL    HW220703   3.815   0.696   2.502
 6675SOL     OW20704   3.753   1.597   1.991
 6675SOL    HW120705   3.733   1.505   2.009
 6675SOL    HW220706   3.723   1.644   2.069
 6676SOL     OW20707   3.830   0.747   3.441
 6676SOL    HW120708   3.915   0.778   3.472
 6676SOL    HW220709   3.774   0.825   3.441
 6677SOL     OW20710   3.803   0.817   2.635
 6677SOL    HW120711   3.896   0.810   2.657
 6677SOL    HW220712   3.771   0.892   2.685
 6678SOL     OW20713   3.848   1.860   3.430
 6678SOL    HW120714   3.851   1.830   3.521
 6678SOL    HW220715   3.760   1.837   3.400
 6679SOL     OW20716   3.924   0.310   3.380
 6679SOL    HW120717   3.846   0.354   3.346
 6679SOL    HW220718   3.890   0.247   3.443
 6680SOL     OW20719   3.805   0.550   3.252
 6680SOL    HW120720   3.899   0.546   3.239
 6680SOL    HW220721   3.791   0.625   3.309
 6681SOL     OW20722   0.266   0.288   2.197
 6681SOL    HW120723   0.306   0.223   2.138
 6681SOL    HW220724   0.292   0.373   2.160
 6682SOL     OW20725   3.789   1.572   3.210
 6682SOL    HW120726   3.762   1.638   3.146
 6682SOL    HW220727   3.884   1.578   3.211
 6683SOL     OW20728   0.070   1.090   2.385
 6683SOL    HW120729   0.071   1.144   2.305
 6683SOL    HW220730   0.127   1.016   2.364
 6684SOL     OW20731   0.009   0.216   3.105
 6684SOL    HW120732   3.984   0.241   3.193
 6684SOL    HW220733   0.007   0.120   3.106
 6685SOL     OW20734   3.754   1.311   3.140
 6685SOL    HW120735   3.799   1.262   3.210
 6685SOL    HW220736   3.767   1.403   3.162
 6686SOL     OW20737   3.729   1.326   2.050
 6686SOL    HW120738   3.643   1.339   2.011
 6686SOL    HW220739   3.723   1.242   2.094
 6687SOL     OW20740   3.801   1.796   2.798
 6687SOL    HW120741   3.780   1.713   2.754
 6687SOL    HW220742   3.895   1.807   2.783
 6688SOL     OW20743   0.217   1.555   2.737
 6688SOL    HW120744   0.285   1.622   2.740
 6688SOL    HW220745   0.245   1.493   2.670
 6689SOL     OW20746   3.754   0.535   2.978
 6689SOL    HW120747   3.834   0.525   2.928
 6689SOL    HW220748   3.783   0.548   3.069
 6690SOL     OW20749   3.908   0.529   3.577
 6690SOL    HW120750   3.947   0.477   3.506
 6690SOL    HW220751   3.859   0.598   3.532
 6691SOL     OW20752   3.946   1.538   3.589
 6691SOL    HW120753   3.940   1.613   3.648
 6691SOL    HW220754   3.986   1.469   3.641
 6692SOL     OW20755   3.859   1.126   3.336
 6692SOL    HW120756   3.930   1.114   3.400
 6692SOL    HW220757   3.895   1.095   3.254
 6693SOL     OW20758   3.810   1.264   2.876
 6693SOL    HW120759   3.785   1.277   2.967
 6693SOL    HW220760   3.746   1.203   2.841
 6694SOL     OW20761   3.839   1.793   3.691
 6694SOL    HW120762   3.789   1.727   3.737
 6694SOL    HW220763   3.892   1.836   3.758
 6695SOL     OW20764   3.822   0.317   1.853
 6695SOL    HW120765   3.748   0.334   1.912
 6695SOL    HW220766   3.829   0.396   1.800
 6696SOL     OW20767   3.782   0.152   2.207
 6696SOL    HW120768   3.750   0.211   2.138
 6696SOL    HW220769   3.876   0.149   2.194
 6697SOL     OW20770   3.800   1.238   2.525
 6697SOL    HW120771   3.794   1.189   2.607
 6697SOL    HW220772   3.881   1.206   2.484
 6698SOL     OW20773   3.753   1.082   2.171
 6698SOL    HW120774   3.844   1.082   2.140
 6698SOL    HW220775   3.735   0.990   2.191
 6699SOL     OW20776   3.956   0.630   3.833
 6699SOL    HW120777   3.874   0.632   3.882
 6699SOL    HW220778   3.932   0.598   3.746
 6700SOL     OW20779   3.953   0.290   4.712
 6700SOL    HW120780   3.966   0.273   4.806
 6700SOL    HW220781   3.865   0.257   4.694
 6701SOL     OW20782   3.731   0.391   4.364
 6701SOL    HW120783   3.644   0.407   4.401
 6701SOL    HW220784   3.720   0.314   4.308
 6702SOL     OW20785   0.014   1.518   4.773
 6702SOL    HW120786   3.969   1.435   4.759
 6702SOL    HW220787   0.085   1.519   4.709
 6703SOL     OW20788   3.941   1.719   4.197
 6703SOL    HW120789   3.951   1.792   4.259
 6703SOL    HW220790   0.030   1.701   4.167
 6704SOL     OW20791   3.942   1.439   4.236
 6704SOL    HW120792   3.922   1.532   4.240
 6704SOL    HW220793   3.885   1.399   4.302
 6705SOL     OW20794   3.812   0.648   4.281
 6705SOL    HW120795   3.798   0.557   4.307
 6705SOL    HW220796   3.815   0.696   4.364
 6706SOL     OW20797   3.753   1.597   3.853
 6706SOL    HW120798   3.733   1.505   3.871
 6706SOL    HW220799   3.723   1.644   3.931
 6707SOL     OW20800   3.830   0.747   5.303
 6707SOL    HW120801   3.915   0.779   5.334
 6707SOL    HW220802   3.774   0.825   5.303
 6708SOL     OW20803   3.803   0.817   4.497
 6708SOL    HW120804   3.896   0.810   4.519
 6708SOL    HW220805   3.771   0.892   4.547
 6709SOL     OW20806   3.848   1.860   5.292
 6709SOL    HW120807   3.851   1.830   5.383
 6709SOL    HW220808   3.760   1.838   5.262
 6710SOL     OW20809   3.924   0.310   5.242
 6710SOL    HW120810   3.847   0.354   5.208
 6710SOL    HW220811   3.889   0.247   5.305
 6711SOL     OW20812   3.805   0.550   5.114
 6711SOL    HW120813   3.900   0.546   5.101
 6711SOL    HW220814   3.791   0.625   5.171
 6712SOL     OW20815   0.266   0.288   4.059
 6712SOL    HW120816   0.306   0.224   4.000
 6712SOL    HW220817   0.291   0.373   4.022
 6713SOL     OW20818   3.789   1.572   5.072
 6713SOL    HW120819   3.761   1.638   5.008
 6713SOL    HW220820   3.884   1.578   5.073
 6714SOL     OW20821   0.070   1.090   4.247
 6714SOL    HW120822   0.071   1.144   4.168
 6714SOL    HW220823   0.127   1.016   4.226
 6715SOL     OW20824   0.009   0.216   4.967
 6715SOL    HW120825   3.984   0.241   5.055
 6715SOL    HW220826   0.007   0.120   4.968
 6716SOL     OW20827   3.754   1.310   5.002
 6716SOL    HW120828   3.799   1.262   5.072
 6716SOL    HW220829   3.767   1.403   5.025
 6717SOL     OW20830   3.729   1.326   3.912
 6717SOL    HW120831   3.643   1.339   3.873
 6717SOL    HW220832   3.723   1.242   3.956
 6718SOL     OW20833   3.801   1.795   4.660
 6718SOL    HW120834   3.780   1.713   4.616
 6718SOL    HW220835   3.895   1.807   4.645
 6719SOL     OW20836   0.217   1.555   4.599
 6719SOL    HW120837   0.285   1.622   4.601
 6719SOL    HW220838   0.245   1.493   4.532
 6720SOL     OW20839   3.754   0.534   4.841
 6720SOL    HW120840   3.834   0.525   4.790
 6720SOL    HW220841   3.783   0.548   4.931
 6721SOL     OW20842   3.908   0.529   5.439
 6721SOL    HW120843   3.947   0.478   5.368
 6721SOL    HW220844   3.859   0.598   5.395
 6722SOL     OW20845   3.946   1.538   5.451
 6722SOL    HW120846   3.940   1.613   5.510
 6722SOL    HW220847   3.986   1.469   5.504
 6723SOL     OW20848   3.859   1.127   5.198
 6723SOL    HW120849   3.930   1.114   5.261
 6723SOL    HW220850   3.895   1.095   5.116
 6724SOL     OW20851   3.811   1.264   4.738
 6724SOL    HW120852   3.785   1.277   4.829
 6724SOL    HW220853   3.746   1.203   4.703
 6725SOL     OW20854   3.839   1.793   5.553
 6725SOL    HW120855   3.789   1.727   5.599
 6725SOL    HW220856   3.892   1.836   5.620
 6726SOL     OW20857   3.822   0.317   3.716
 6726SOL    HW120858   3.748   0.334   3.774
 6726SOL    HW220859   3.829   0.396   3.662
 6727SOL     OW20860   3.782   0.152   4.069
 6727SOL    HW120861   3.750   0.211   4.000
 6727SOL    HW220862   3.877   0.149   4.056
 6728SOL     OW20863   3.800   1.238   4.387
 6728SOL    HW120864   3.794   1.189   4.469
 6728SOL    HW220865   3.881   1.206   4.346
 6729SOL     OW20866   3.753   1.082   4.033
 6729SOL    HW120867   3.844   1.082   4.002
 6729SOL    HW220868   3.735   0.990   4.053
 6730SOL     OW20869   3.956   0.629   5.695
 6730SOL    HW120870   3.874   0.632   5.744
 6730SOL    HW220871   3.932   0.598   5.608
 6731SOL     OW20872   3.953   0.290   6.574
 6731SOL    HW120873   3.966   0.273   6.667
 6731SOL    HW220874   3.865   0.257   6.556
 6732SOL     OW20875   3.731   0.391   6.226
 6732SOL    HW120876   3.644   0.407   6.263
 6732SOL    HW220877   3.720   0.314   6.170
 6733SOL     OW20878   0.015   1.518   6.635
 6733SOL    HW120879   3.969   1.435   6.620
 6733SOL    HW220880   0.085   1.519   6.570
 6734SOL     OW20881   3.941   1.719   6.059
 6734SOL    HW120882   3.951   1.792   6.121
 6734SOL    HW220883   0.030   1.701   6.030
 6735SOL     OW20884   3.942   1.439   6.098
 6735SOL    HW120885   3.922   1.532   6.102
 6735SOL    HW220886   3.885   1.399   6.164
 6736SOL     OW20887   3.811   0.648   6.143
 6736SOL    HW120888   3.799   0.556   6.169
 6736SOL    HW220889   3.815   0.696   6.226
 6737SOL     OW20890   3.753   1.597   5.715
 6737SOL    HW120891   3.733   1.505   5.733
 6737SOL    HW220892   3.723   1.644   5.793
 6738SOL     OW20893   3.830   0.747   7.165
 6738SOL    HW120894   3.916   0.778   7.194
 6738SOL    HW220895   3.775   0.826   7.165
 6739SOL     OW20896   3.803   0.816   6.359
 6739SOL    HW120897   3.896   0.810   6.382
 6739SOL    HW220898   3.771   0.892   6.409
 6740SOL     OW20899   3.849   1.859   7.154
 6740SOL    HW120900   3.850   1.830   7.245
 6740SOL    HW220901   3.760   1.841   7.123
 6741SOL     OW20902   3.924   0.310   7.104
 6741SOL    HW120903   3.847   0.354   7.069
 6741SOL    HW220904   3.889   0.247   7.167
 6742SOL     OW20905   3.805   0.550   6.976
 6742SOL    HW120906   3.899   0.546   6.963
 6742SOL    HW220907   3.792   0.626   7.033
 6743SOL     OW20908   0.266   0.288   5.920
 6743SOL    HW120909   0.306   0.224   5.861
 6743SOL    HW220910   0.292   0.373   5.884
 6744SOL     OW20911   3.789   1.571   6.933
 6744SOL    HW120912   3.760   1.638   6.871
 6744SOL    HW220913   3.884   1.579   6.934
 6745SOL     OW20914   0.070   1.090   6.109
 6745SOL    HW120915   0.071   1.144   6.030
 6745SOL    HW220916   0.127   1.016   6.088
 6746SOL     OW20917   0.009   0.216   6.829
 6746SOL    HW120918   3.984   0.241   6.918
 6746SOL    HW220919   0.007   0.120   6.830
 6747SOL     OW20920   3.752   1.310   6.865
 6747SOL    HW120921   3.800   1.263   6.933
 6747SOL    HW220922   3.766   1.403   6.886
 6748SOL     OW20923   3.729   1.326   5.774
 6748SOL    HW120924   3.643   1.339   5.735
 6748SOL    HW220925   3.723   1.242   5.818
 6749SOL     OW20926   3.801   1.796   6.522
 6749SOL    HW120927   3.780   1.713   6.478
 6749SOL    HW220928   3.895   1.807   6.506
 6750SOL     OW20929   0.217   1.555   6.461
 6750SOL    HW120930   0.286   1.621   6.464
 6750SOL    HW220931   0.245   1.493   6.394
 6751SOL     OW20932   3.754   0.534   6.703
 6751SOL    HW120933   3.834   0.525   6.652
 6751SOL    HW220934   3.784   0.548   6.792
 6752SOL     OW20935   3.908   0.529   7.301
 6752SOL    HW120936   3.948   0.478   7.231
 6752SOL    HW220937   3.859   0.598   7.257
 6753SOL     OW20938   3.946   1.537   7.313
 6753SOL    HW120939   3.940   1.613   7.371
 6753SOL    HW220940   3.988   1.470   7.366
 6754SOL     OW20941   3.859   1.124   7.061
 6754SOL    HW120942   3.932   1.115   7.123
 6754SOL    HW220943   3.895   1.095   6.977
 6755SOL     OW20944   3.811   1.264   6.601
 6755SOL    HW120945   3.784   1.276   6.692
 6755SOL    HW220946   3.746   1.204   6.565
 6756SOL     OW20947   3.840   1.793   7.415
 6756SOL    HW120948   3.789   1.727   7.461
 6756SOL    HW220949   3.892   1.836   7.483
 6757SOL     OW20950   3.822   0.317   5.577
 6757SOL    HW120951   3.748   0.334   5.635
 6757SOL    HW220952   3.830   0.396   5.524
 6758SOL     OW20953   3.782   0.152   5.931
 6758SOL    HW120954   3.750   0.211   5.862
 6758SOL    HW220955   3.876   0.149   5.918
 6759SOL     OW20956   3.800   1.238   6.249
 6759SOL    HW120957   3.795   1.189   6.331
 6759SOL    HW220958   3.881   1.206   6.208
 6760SOL     OW20959   3.753   1.082   5.895
 6760SOL    HW120960   3.844   1.082   5.864
 6760SOL    HW220961   3.735   0.990   5.915
 6761SOL     OW20962   3.956   0.629   7.557
 6761SOL    HW120963   3.874   0.632   7.606
 6761SOL    HW220964   3.932   0.598   7.470
 6762SOL     OW20965   3.952   0.291   8.437
 6762SOL    HW120966   3.966   0.273   8.530
 6762SOL    HW220967   3.865   0.257   8.418
 6763SOL     OW20968   3.731   0.391   8.088
 6763SOL    HW120969   3.644   0.406   8.124
 6763SOL    HW220970   3.721   0.314   8.032
 6764SOL     OW20971   0.014   1.517   8.498
 6764SOL    HW120972   3.969   1.434   8.482
 6764SOL    HW220973   0.085   1.519   8.433
 6765SOL     OW20974   3.940   1.718   7.922
 6765SOL    HW120975   3.951   1.791   7.983
 6765SOL    HW220976   0.029   1.701   7.891
 6766SOL     OW20977   3.942   1.439   7.960
 6766SOL    HW120978   3.923   1.533   7.964
 6766SOL    HW220979   3.885   1.400   8.027
 6767SOL     OW20980   3.811   0.648   8.005
 6767SOL    HW120981   3.799   0.556   8.030
 6767SOL    HW220982   3.815   0.695   8.088
 6768SOL     OW20983   3.753   1.597   7.578
 6768SOL    HW120984   3.734   1.505   7.595
 6768SOL    HW220985   3.723   1.644   7.656
 6769SOL     OW20986   3.830   0.747   9.027
 6769SOL    HW120987   3.915   0.778   9.057
 6769SOL    HW220988   3.774   0.825   9.027
 6770SOL     OW20989   3.803   0.817   8.222
 6770SOL    HW120990   3.896   0.810   8.243
 6770SOL    HW220991   3.772   0.892   8.272
 6771SOL     OW20992   3.848   1.860   9.016
 6771SOL    HW120993   3.851   1.830   9.107
 6771SOL    HW220994   3.760   1.838   8.986
 6772SOL     OW20995   3.924   0.310   8.966
 6772SOL    HW120996   3.847   0.354   8.932
 6772SOL    HW220997   3.890   0.247   9.029
 6773SOL     OW20998   3.805   0.550   8.838
 6773SOL    HW120999   3.899   0.546   8.825
 6773SOL    HW221000   3.792   0.625   8.895
 6774SOL     OW21001   0.266   0.288   7.782
 6774SOL    HW121002   0.306   0.223   7.724
 6774SOL    HW221003   0.292   0.373   7.745
 6775SOL     OW21004   3.789   1.572   8.795
 6775SOL    HW121005   3.762   1.638   8.731
 6775SOL    HW221006   3.885   1.578   8.797
 6776SOL     OW21007   0.069   1.090   7.970
 6776SOL    HW121008   0.072   1.145   7.892
 6776SOL    HW221009   0.129   1.017   7.951
 6777SOL     OW21010   0.009   0.215   8.691
 6777SOL    HW121011   3.984   0.241   8.780
 6777SOL    HW221012   0.007   0.120   8.692
 6778SOL     OW21013   3.753   1.311   8.727
 6778SOL    HW121014   3.799   1.262   8.795
 6778SOL    HW221015   3.767   1.403   8.748
 6779SOL     OW21016   3.729   1.326   7.637
 6779SOL    HW121017   3.643   1.339   7.598
 6779SOL    HW221018   3.723   1.242   7.680
 6780SOL     OW21019   3.802   1.796   8.384
 6780SOL    HW121020   3.780   1.714   8.340
 6780SOL    HW221021   3.895   1.808   8.369
 6781SOL     OW21022   0.216   1.555   8.323
 6781SOL    HW121023   0.285   1.622   8.325
 6781SOL    HW221024   0.245   1.494   8.255
 6782SOL     OW21025   3.754   0.535   8.564
 6782SOL    HW121026   3.834   0.525   8.513
 6782SOL    HW221027   3.784   0.548   8.654
 6783SOL     OW21028   3.908   0.529   9.163
 6783SOL    HW121029   3.947   0.477   9.092
 6783SOL    HW221030   3.859   0.598   9.118
 6784SOL     OW21031   3.946   1.537   9.175
 6784SOL    HW121032   3.940   1.612   9.234
 6784SOL    HW221033   3.987   1.469   9.227
 6785SOL     OW21034   3.859   1.126   8.922
 6785SOL    HW121035   3.930   1.114   8.986
 6785SOL    HW221036   3.896   1.095   8.840
 6786SOL     OW21037   3.810   1.265   8.462
 6786SOL    HW121038   3.784   1.277   8.553
 6786SOL    HW221039   3.747   1.203   8.427
 6787SOL     OW21040   3.839   1.793   9.277
 6787SOL    HW121041   3.789   1.727   9.324
 6787SOL    HW221042   3.892   1.836   9.344
 6788SOL     OW21043   3.822   0.317   7.439
 6788SOL    HW121044   3.747   0.335   7.496
 6788SOL    HW221045   3.830   0.396   7.385
 6789SOL     OW21046   3.782   0.153   7.793
 6789SOL    HW121047   3.750   0.212   7.724
 6789SOL    HW221048   3.876   0.149   7.780
 6790SOL     OW21049   3.799   1.238   8.111
 6790SOL    HW121050   3.796   1.189   8.193
 6790SOL    HW221051   3.880   1.208   8.068
 6791SOL     OW21052   3.753   1.081   7.757
 6791SOL    HW121053   3.843   1.082   7.726
 6791SOL    HW221054   3.735   0.989   7.777
 6792SOL     OW21055   3.956   0.630   9.419
 6792SOL    HW121056   3.874   0.632   9.468
 6792SOL    HW221057   3.932   0.598   9.332
 6793SOL     OW21058   3.953   0.291  10.298
 6793SOL    HW121059   3.966   0.273  10.392
 6793SOL    HW221060   3.865   0.257  10.280
 6794SOL     OW21061   3.731   0.391   9.950
 6794SOL    HW121062   3.644   0.407   9.986
 6794SOL    HW221063   3.720   0.314   9.894
 6795SOL     OW21064   0.014   1.518  10.359
 6795SOL    HW121065   3.969   1.435  10.344
 6795SOL    HW221066   0.085   1.519  10.295
 6796SOL     OW21067   3.941   1.719   9.783
 6796SOL    HW121068   3.951   1.792   9.845
 6796SOL    HW221069   0.030   1.701   9.753
 6797SOL     OW21070   3.942   1.439   9.822
 6797SOL    HW121071   3.922   1.532   9.826
 6797SOL    HW221072   3.885   1.399   9.888
 6798SOL     OW21073   3.812   0.648   9.867
 6798SOL    HW121074   3.798   0.557   9.893
 6798SOL    HW221075   3.815   0.696   9.950
 6799SOL     OW21076   3.753   1.597   9.439
 6799SOL    HW121077   3.733   1.505   9.457
 6799SOL    HW221078   3.723   1.644   9.517
 6800SOL     OW21079   3.830   0.747  10.889
 6800SOL    HW121080   3.915   0.778  10.920
 6800SOL    HW221081   3.774   0.825  10.889
 6801SOL     OW21082   3.803   0.817  10.083
 6801SOL    HW121083   3.896   0.810  10.105
 6801SOL    HW221084   3.771   0.892  10.133
 6802SOL     OW21085   3.848   1.860  10.878
 6802SOL    HW121086   3.851   1.830  10.969
 6802SOL    HW221087   3.760   1.837  10.848
 6803SOL     OW21088   3.924   0.310  10.828
 6803SOL    HW121089   3.846   0.354  10.794
 6803SOL    HW221090   3.890   0.247  10.891
 6804SOL     OW21091   3.805   0.550  10.700
 6804SOL    HW121092   3.900   0.546  10.687
 6804SOL    HW221093   3.791   0.625  10.757
 6805SOL     OW21094   0.266   0.288   9.645
 6805SOL    HW121095   0.306   0.223   9.586
 6805SOL    HW221096   0.292   0.373   9.607
 6806SOL     OW21097   3.789   1.572  10.658
 6806SOL    HW121098   3.762   1.638  10.594
 6806SOL    HW221099   3.884   1.578  10.659
 6807SOL     OW21100   0.070   1.090   9.833
 6807SOL    HW121101   0.071   1.144   9.753
 6807SOL    HW221102   0.127   1.016   9.812
 6808SOL     OW21103   0.009   0.216  10.553
 6808SOL    HW121104   3.984   0.241  10.642
 6808SOL    HW221105   0.007   0.120  10.554
 6809SOL     OW21106   3.754   1.311  10.588
 6809SOL    HW121107   3.799   1.262  10.658
 6809SOL    HW221108   3.767   1.403  10.610
 6810SOL     OW21109   3.729   1.326   9.498
 6810SOL    HW121110   3.643   1.339   9.459
 6810SOL    HW221111   3.723   1.242   9.542
 6811SOL     OW21112   3.801   1.796  10.246
 6811SOL    HW121113   3.780   1.713  10.202
 6811SOL    HW221114   3.895   1.807  10.231
 6812SOL     OW21115   0.217   1.555  10.185
 6812SOL    HW121116   0.285   1.622  10.187
 6812SOL    HW221117   0.245   1.494  10.118
 6813SOL     OW21118   3.754   0.535  10.427
 6813SOL    HW121119   3.834   0.525  10.376
 6813SOL    HW221120   3.783   0.548  10.517
 6814SOL     OW21121   3.908   0.529  11.025
 6814SOL    HW121122   3.947   0.477  10.954
 6814SOL    HW221123   3.859   0.598  10.981
 6815SOL     OW21124   3.946   1.538  11.037
 6815SOL    HW121125   3.940   1.613  11.096
 6815SOL    HW221126   3.986   1.469  11.089
 6816SOL     OW21127   3.859   1.126  10.784
 6816SOL    HW121128   3.930   1.114  10.847
 6816SOL    HW221129   3.895   1.095  10.702
 6817SOL     OW21130   3.810   1.264  10.324
 6817SOL    HW121131   3.785   1.277  10.415
 6817SOL    HW221132   3.746   1.203  10.289
 6818SOL     OW21133   3.839   1.793  11.139
 6818SOL    HW121134   3.789   1.727  11.185
 6818SOL    HW221135   3.892   1.836  11.206
 6819SOL     OW21136   3.822   0.317   9.301
 6819SOL    HW121137   3.748   0.334   9.359
 6819SOL    HW221138   3.829   0.396   9.248
 6820SOL     OW21139   3.782   0.152   9.655
 6820SOL    HW121140   3.750   0.211   9.586
 6820SOL    HW221141   3.876   0.149   9.642
 6821SOL     OW21142   3.800   1.238   9.973
 6821SOL    HW121143   3.794   1.189  10.055
 6821SOL    HW221144   3.880   1.206   9.932
 6822SOL     OW21145   3.753   1.082   9.619
 6822SOL    HW121146   3.844   1.082   9.588
 6822SOL    HW221147   3.735   0.990   9.639
 6823SOL     OW21148   3.956   0.630  11.281
 6823SOL    HW121149   3.874   0.632  11.330
 6823SOL    HW221150   3.932   0.598  11.194
 6824SOL     OW21151   3.953   0.291  12.161
 6824SOL    HW121152   3.966   0.273  12.254
 6824SOL    HW221153   3.865   0.257  12.142
 6825SOL     OW21154   3.731   0.391  11.812
 6825SOL    HW121155   3.644   0.407  11.849
 6825SOL    HW221156   3.720   0.314  11.756
 6826SOL     OW21157   0.014   1.518  12.221
 6826SOL    HW121158   3.969   1.435  12.206
 6826SOL    HW221159   0.085   1.519  12.157
 6827SOL     OW21160   3.941   1.719  11.645
 6827SOL    HW121161   3.951   1.792  11.707
 6827SOL    HW221162   0.030   1.701  11.615
 6828SOL     OW21163   3.942   1.439  11.684
 6828SOL    HW121164   3.922   1.532  11.688
 6828SOL    HW221165   3.885   1.399  11.750
 6829SOL     OW21166   3.812   0.648  11.729
 6829SOL    HW121167   3.798   0.557  11.755
 6829SOL    HW221168   3.815   0.696  11.812
 6830SOL     OW21169   3.753   1.597  11.301
 6830SOL    HW121170   3.733   1.505  11.319
 6830SOL    HW221171   3.723   1.644  11.379
 6831SOL     OW21172   3.829   0.747  12.751
 6831SOL    HW121173   3.915   0.779  12.781
 6831SOL    HW221174   3.774   0.825  12.751
 6832SOL     OW21175   3.803   0.816  11.945
 6832SOL    HW121176   3.896   0.810  11.967
 6832SOL    HW221177   3.771   0.892  11.995
 6833SOL     OW21178   3.848   1.860  12.740
 6833SOL    HW121179   3.851   1.830  12.831
 6833SOL    HW221180   3.760   1.837  12.710
 6834SOL     OW21181   3.924   0.310  12.690
 6834SOL    HW121182   3.847   0.354  12.655
 6834SOL    HW221183   3.889   0.246  12.753
 6835SOL     OW21184   3.805   0.550  12.562
 6835SOL    HW121185   3.900   0.546  12.549
 6835SOL    HW221186   3.791   0.625  12.619
 6836SOL     OW21187   0.266   0.288  11.507
 6836SOL    HW121188   0.306   0.223  11.448
 6836SOL    HW221189   0.292   0.373  11.470
 6837SOL     OW21190   3.789   1.572  12.520
 6837SOL    HW121191   3.761   1.638  12.456
 6837SOL    HW221192   3.884   1.578  12.521
 6838SOL     OW21193   0.070   1.090  11.695
 6838SOL    HW121194   0.071   1.144  11.616
 6838SOL    HW221195   0.127   1.016  11.674
 6839SOL     OW21196   0.009   0.216  12.415
 6839SOL    HW121197   3.984   0.241  12.503
 6839SOL    HW221198   0.007   0.120  12.416
 6840SOL     OW21199   3.754   1.310  12.450
 6840SOL    HW121200   3.799   1.263  12.520
 6840SOL    HW221201   3.767   1.403  12.472
 6841SOL     OW21202   3.729   1.326  11.360
 6841SOL    HW121203   3.643   1.339  11.321
 6841SOL    HW221204   3.723   1.242  11.404
 6842SOL     OW21205   3.801   1.795  12.108
 6842SOL    HW121206   3.780   1.713  12.064
 6842SOL    HW221207   3.895   1.807  12.093
 6843SOL     OW21208   0.217   1.555  12.047
 6843SOL    HW121209   0.285   1.622  12.049
 6843SOL    HW221210   0.245   1.494  11.980
 6844SOL     OW21211   3.754   0.534  12.289
 6844SOL    HW121212   3.834   0.525  12.238
 6844SOL    HW221213   3.783   0.548  12.379
 6845SOL     OW21214   3.909   0.529  12.887
 6845SOL    HW121215   3.947   0.477  12.816
 6845SOL    HW221216   3.859   0.598  12.843
 6846SOL     OW21217   3.946   1.538  12.899
 6846SOL    HW121218   3.940   1.613  12.958
 6846SOL    HW221219   3.985   1.469  12.952
 6847SOL     OW21220   3.859   1.126  12.646
 6847SOL    HW121221   3.931   1.114  12.709
 6847SOL    HW221222   3.895   1.095  12.563
 6848SOL     OW21223   3.810   1.264  12.186
 6848SOL    HW121224   3.785   1.277  12.277
 6848SOL    HW221225   3.746   1.203  12.151
 6849SOL     OW21226   3.840   1.794  13.002
 6849SOL    HW121227   3.790   1.727  13.048
 6849SOL    HW221228   3.892   1.836  13.070
 6850SOL     OW21229   3.822   0.317  11.163
 6850SOL    HW121230   3.748   0.334  11.222
 6850SOL    HW221231   3.829   0.396  11.110
 6851SOL     OW21232   3.782   0.152  11.517
 6851SOL    HW121233   3.750   0.211  11.448
 6851SOL    HW221234   3.877   0.149  11.504
 6852SOL     OW21235   3.800   1.238  11.835
 6852SOL    HW121236   3.794   1.188  11.917
 6852SOL    HW221237   3.880   1.206  11.794
 6853SOL     OW21238   3.753   1.082  11.481
 6853SOL    HW121239   3.844   1.082  11.450
 6853SOL    HW221240   3.735   0.990  11.501
 6854SOL     OW21241   3.955   0.628  13.145
 6854SOL    HW121242   3.871   0.632  13.190
 6854SOL    HW221243   3.933   0.597  13.057
 6855SOL     OW21244   3.723   0.391  13.649
 6855SOL    HW121245   3.633   0.409  13.677
 6855SOL    HW221246   3.721   0.300  13.619
 6856SOL     OW21247   3.941   1.716  13.503
 6856SOL    HW121248   3.946   1.792  13.561
 6856SOL    HW221249   0.032   1.699  13.478
 6857SOL     OW21250   3.942   1.436  13.545
 6857SOL    HW121251   3.924   1.530  13.549
 6857SOL    HW221252   3.884   1.398  13.611
 6858SOL     OW21253   3.949   1.089  13.900
 6858SOL    HW121254   3.982   1.042   0.076
 6858SOL    HW221255   3.878   1.144   0.033
 6859SOL     OW21256   3.827   0.649  13.593
 6859SOL    HW121257   3.785   0.565  13.610
 6859SOL    HW221258   3.816   0.698  13.674
 6860SOL     OW21259   3.752   1.597  13.163
 6860SOL    HW121260   3.733   1.505  13.181
 6860SOL    HW221261   3.723   1.643  13.241
 6861SOL     OW21262   3.798   0.809  13.812
 6861SOL    HW121263   3.892   0.813  13.830
 6861SOL    HW221264   3.763   0.890  13.850
 6862SOL     OW21265   0.097   1.809  13.879
 6862SOL    HW121266   0.058   1.734   0.022
 6862SOL    HW221267   0.168   1.836   0.038
 6863SOL     OW21268   0.265   0.292  13.369
 6863SOL    HW121269   0.307   0.222  13.317
 6863SOL    HW221270   0.297   0.373  13.330
 6864SOL     OW21271   0.072   1.088  13.553
 6864SOL    HW121272   0.071   1.147  13.477
 6864SOL    HW221273   0.131   1.017  13.527
 6865SOL     OW21274   3.729   1.327  13.221
 6865SOL    HW121275   3.643   1.340  13.182
 6865SOL    HW221276   3.723   1.243  13.266
 6866SOL     OW21277   0.309   1.534   0.028
 6866SOL    HW121278   0.270   1.621   0.037
 6866SOL    HW221279   0.254   1.489  13.864
 6867SOL     OW21280   3.822   0.318  13.025
 6867SOL    HW121281   3.747   0.334  13.082
 6867SOL    HW221282   3.829   0.397  12.972
 6868SOL     OW21283   3.789   0.154  13.375
 6868SOL    HW121284   3.755   0.212  13.307
 6868SOL    HW221285   3.883   0.150  13.359
 6869SOL     OW21286   3.807   1.235  13.695
 6869SOL    HW121287   3.797   1.172  13.767
 6869SOL    HW221288   3.886   1.206  13.649
 6870SOL     OW21289   3.753   1.081  13.342
 6870SOL    HW121290   3.844   1.082  13.311
 6870SOL    HW221291   3.735   0.989  13.362
 6871SOL     OW21292   3.954   2.496   0.126
 6871SOL    HW121293   3.878   2.490   0.183
 6871SOL    HW221294   3.929   2.448   0.047
 6872SOL     OW21295   3.960   2.126   0.985
 6872SOL    HW121296   3.967   2.124   1.080
 6872SOL    HW221297   3.867   2.111   0.968
 6873SOL     OW21298   3.727   2.245   0.636
 6873SOL    HW121299   3.646   2.266   0.682
 6873SOL    HW221300   3.709   2.161   0.593
 6874SOL     OW21301   0.015   3.377   1.050
 6874SOL    HW121302   3.970   3.295   1.031
 6874SOL    HW221303   0.085   3.382   0.986
 6875SOL     OW21304   3.940   3.578   0.478
 6875SOL    HW121305   3.957   3.651   0.537
 6875SOL    HW221306   0.024   3.563   0.434
 6876SOL     OW21307   3.936   3.299   0.510
 6876SOL    HW121308   3.927   3.394   0.515
 6876SOL    HW221309   3.884   3.266   0.583
 6877SOL     OW21310   3.819   2.504   0.558
 6877SOL    HW121311   3.790   2.417   0.583
 6877SOL    HW221312   3.815   2.555   0.640
 6878SOL     OW21313   3.731   3.472   0.111
 6878SOL    HW121314   3.727   3.379   0.134
 6878SOL    HW221315   3.708   3.517   0.192
 6879SOL     OW21316   3.830   2.603   1.583
 6879SOL    HW121317   3.916   2.633   1.614
 6879SOL    HW221318   3.776   2.681   1.583
 6880SOL     OW21319   3.803   2.678   0.771
 6880SOL    HW121320   3.895   2.672   0.795
 6880SOL    HW221321   3.769   2.752   0.821
 6881SOL     OW21322   3.850   3.714   1.567
 6881SOL    HW121323   3.852   3.687   1.659
 6881SOL    HW221324   3.758   3.703   1.541
 6882SOL     OW21325   3.925   2.158   1.514
 6882SOL    HW121326   3.844   2.199   1.485
 6882SOL    HW221327   3.898   2.079   1.559
 6883SOL     OW21328   3.805   2.413   1.388
 6883SOL    HW121329   3.900   2.407   1.378
 6883SOL    HW221330   3.792   2.486   1.448
 6884SOL     OW21331   3.789   3.433   1.347
 6884SOL    HW121332   3.763   3.501   1.285
 6884SOL    HW221333   3.885   3.440   1.350
 6885SOL     OW21334   0.070   2.950   0.526
 6885SOL    HW121335   0.084   3.016   0.457
 6885SOL    HW221336   0.141   2.887   0.512
 6886SOL     OW21337   0.010   2.075   1.248
 6886SOL    HW121338   3.982   2.104   1.335
 6886SOL    HW221339   0.010   1.980   1.253
 6887SOL     OW21340   3.753   3.173   1.278
 6887SOL    HW121341   3.799   3.125   1.347
 6887SOL    HW221342   3.767   3.265   1.300
 6888SOL     OW21343   0.001   1.921   0.651
 6888SOL    HW121344   0.022   2.013   0.667
 6888SOL    HW221345   0.023   1.877   0.733
 6889SOL     OW21346   3.739   3.178   0.176
 6889SOL    HW121347   3.657   3.189   0.127
 6889SOL    HW221348   3.729   3.094   0.220
 6890SOL     OW21349   3.803   3.654   0.936
 6890SOL    HW121350   3.782   3.572   0.891
 6890SOL    HW221351   3.897   3.665   0.923
 6891SOL     OW21352   0.216   3.420   0.876
 6891SOL    HW121353   0.276   3.495   0.873
 6891SOL    HW221354   0.249   3.360   0.809
 6892SOL     OW21355   3.756   2.400   1.117
 6892SOL    HW121356   3.840   2.393   1.071
 6892SOL    HW221357   3.780   2.409   1.209
 6893SOL     OW21358   3.904   2.378   1.722
 6893SOL    HW121359   3.937   2.322   1.652
 6893SOL    HW221360   3.856   2.447   1.676
 6894SOL     OW21361   3.945   3.398   1.727
 6894SOL    HW121362   3.940   3.476   1.783
 6894SOL    HW221363   3.987   3.332   1.782
 6895SOL     OW21364   3.859   2.988   1.474
 6895SOL    HW121365   3.930   2.976   1.538
 6895SOL    HW221366   3.896   2.958   1.391
 6896SOL     OW21367   3.810   3.126   1.014
 6896SOL    HW121368   3.785   3.139   1.105
 6896SOL    HW221369   3.745   3.064   0.980
 6897SOL     OW21370   3.839   3.654   1.828
 6897SOL    HW121371   3.790   3.587   1.877
 6897SOL    HW221372   3.889   3.700   1.895
 6898SOL     OW21373   3.781   2.268   0.029
 6898SOL    HW121374   3.742   2.185   0.057
 6898SOL    HW221375   3.763   2.272  13.835
 6899SOL     OW21376   3.789   2.023   0.347
 6899SOL    HW121377   3.765   2.057   0.261
 6899SOL    HW221378   3.885   2.019   0.346
 6900SOL     OW21379   3.799   3.097   0.662
 6900SOL    HW121380   3.795   3.050   0.746
 6900SOL    HW221381   3.884   3.073   0.626
 6901SOL     OW21382   3.751   2.939   0.307
 6901SOL    HW121383   3.847   2.942   0.300
 6901SOL    HW221384   3.732   2.847   0.328
 6902SOL     OW21385   3.955   2.494   1.972
 6902SOL    HW121386   3.873   2.491   2.021
 6902SOL    HW221387   3.932   2.456   1.887
 6903SOL     OW21388   3.960   2.125   2.847
 6903SOL    HW121389   3.967   2.123   2.943
 6903SOL    HW221390   3.867   2.111   2.830
 6904SOL     OW21391   3.727   2.242   2.498
 6904SOL    HW121392   3.647   2.267   2.544
 6904SOL    HW221393   3.706   2.158   2.457
 6905SOL     OW21394   0.014   3.378   2.911
 6905SOL    HW121395   3.970   3.295   2.894
 6905SOL    HW221396   0.085   3.382   2.847
 6906SOL     OW21397   3.941   3.583   2.336
 6906SOL    HW121398   3.955   3.655   2.397
 6906SOL    HW221399   0.028   3.562   2.302
 6907SOL     OW21400   3.940   3.301   2.372
 6907SOL    HW121401   3.924   3.395   2.380
 6907SOL    HW221402   3.885   3.262   2.440
 6908SOL     OW21403   3.820   2.504   2.421
 6908SOL    HW121404   3.790   2.417   2.445
 6908SOL    HW221405   3.815   2.554   2.502
 6909SOL     OW21406   3.751   3.459   1.991
 6909SOL    HW121407   3.733   3.367   2.009
 6909SOL    HW221408   3.722   3.505   2.071
 6910SOL     OW21409   3.830   2.603   3.445
 6910SOL    HW121410   3.916   2.633   3.476
 6910SOL    HW221411   3.776   2.681   3.445
 6911SOL     OW21412   3.803   2.677   2.634
 6911SOL    HW121413   3.895   2.672   2.657
 6911SOL    HW221414   3.770   2.752   2.683
 6912SOL     OW21415   3.850   3.713   3.429
 6912SOL    HW121416   3.852   3.687   3.521
 6912SOL    HW221417   3.758   3.703   3.403
 6913SOL     OW21418   3.925   2.158   3.376
 6913SOL    HW121419   3.844   2.199   3.347
 6913SOL    HW221420   3.898   2.079   3.421
 6914SOL     OW21421   0.002   1.880   2.025
 6914SOL    HW121422   0.031   1.970   2.011
 6914SOL    HW221423   0.069   1.842   2.083
 6915SOL     OW21424   3.805   2.412   3.250
 6915SOL    HW121425   3.900   2.407   3.239
 6915SOL    HW221426   3.792   2.486   3.310
 6916SOL     OW21427   0.282   2.147   2.188
 6916SOL    HW121428   0.298   2.079   2.123
 6916SOL    HW221429   0.296   2.229   2.141
 6917SOL     OW21430   3.789   3.433   3.209
 6917SOL    HW121431   3.763   3.501   3.147
 6917SOL    HW221432   3.885   3.439   3.212
 6918SOL     OW21433   0.070   2.951   2.384
 6918SOL    HW121434   0.071   3.007   2.307
 6918SOL    HW221435   0.130   2.879   2.362
 6919SOL     OW21436   0.010   2.075   3.111
 6919SOL    HW121437   3.982   2.104   3.197
 6919SOL    HW221438   0.010   1.980   3.115
 6920SOL     OW21439   3.754   3.172   3.140
 6920SOL    HW121440   3.798   3.124   3.209
 6920SOL    HW221441   3.767   3.265   3.162
 6921SOL     OW21442   0.003   1.919   2.512
 6921SOL    HW121443   0.020   2.012   2.526
 6921SOL    HW221444   0.024   1.878   2.596
 6922SOL     OW21445   3.729   3.189   2.050
 6922SOL    HW121446   3.643   3.201   2.011
 6922SOL    HW221447   3.723   3.104   2.094
 6923SOL     OW21448   3.803   3.655   2.798
 6923SOL    HW121449   3.782   3.572   2.754
 6923SOL    HW221450   3.897   3.665   2.784
 6924SOL     OW21451   0.216   3.420   2.738
 6924SOL    HW121452   0.277   3.494   2.735
 6924SOL    HW221453   0.250   3.359   2.673
 6925SOL     OW21454   3.756   2.400   2.979
 6925SOL    HW121455   3.839   2.393   2.933
 6925SOL    HW221456   3.780   2.409   3.071
 6926SOL     OW21457   3.904   2.378   3.584
 6926SOL    HW121458   3.937   2.322   3.514
 6926SOL    HW221459   3.856   2.447   3.538
 6927SOL     OW21460   3.945   3.398   3.589
 6927SOL    HW121461   3.940   3.476   3.645
 6927SOL    HW221462   3.987   3.332   3.644
 6928SOL     OW21463   3.859   2.989   3.336
 6928SOL    HW121464   3.929   2.976   3.400
 6928SOL    HW221465   3.896   2.958   3.254
 6929SOL     OW21466   3.810   3.127   2.876
 6929SOL    HW121467   3.785   3.139   2.967
 6929SOL    HW221468   3.746   3.065   2.841
 6930SOL     OW21469   3.839   3.654   3.690
 6930SOL    HW121470   3.790   3.587   3.739
 6930SOL    HW221471   3.889   3.700   3.757
 6931SOL     OW21472   3.801   2.200   1.902
 6931SOL    HW121473   3.717   2.166   1.874
 6931SOL    HW221474   3.821   2.270   1.841
 6932SOL     OW21475   3.768   2.020   2.175
 6932SOL    HW121476   3.759   2.092   2.112
 6932SOL    HW221477   3.861   2.019   2.197
 6933SOL     OW21478   3.800   3.100   2.526
 6933SOL    HW121479   3.795   3.051   2.607
 6933SOL    HW221480   3.880   3.070   2.484
 6934SOL     OW21481   3.752   2.942   2.171
 6934SOL    HW121482   3.843   2.943   2.140
 6934SOL    HW221483   3.734   2.850   2.191
 6935SOL     OW21484   3.955   2.494   3.834
 6935SOL    HW121485   3.873   2.491   3.883
 6935SOL    HW221486   3.933   2.456   3.749
 6936SOL     OW21487   3.960   2.125   4.709
 6936SOL    HW121488   3.967   2.124   4.805
 6936SOL    HW221489   3.867   2.111   4.692
 6937SOL     OW21490   3.727   2.242   4.360
 6937SOL    HW121491   3.647   2.267   4.406
 6937SOL    HW221492   3.706   2.158   4.319
 6938SOL     OW21493   0.014   3.378   4.774
 6938SOL    HW121494   3.970   3.295   4.756
 6938SOL    HW221495   0.085   3.382   4.709
 6939SOL     OW21496   3.941   3.583   4.198
 6939SOL    HW121497   3.955   3.655   4.259
 6939SOL    HW221498   0.028   3.562   4.164
 6940SOL     OW21499   3.940   3.301   4.234
 6940SOL    HW121500   3.924   3.395   4.242
 6940SOL    HW221501   3.885   3.262   4.302
 6941SOL     OW21502   3.820   2.504   4.283
 6941SOL    HW121503   3.790   2.417   4.307
 6941SOL    HW221504   3.815   2.554   4.364
 6942SOL     OW21505   3.751   3.459   3.853
 6942SOL    HW121506   3.733   3.367   3.871
 6942SOL    HW221507   3.722   3.505   3.933
 6943SOL     OW21508   3.830   2.603   5.307
 6943SOL    HW121509   3.915   2.633   5.338
 6943SOL    HW221510   3.775   2.681   5.306
 6944SOL     OW21511   3.803   2.677   4.496
 6944SOL    HW121512   3.895   2.672   4.519
 6944SOL    HW221513   3.770   2.752   4.546
 6945SOL     OW21514   3.850   3.714   5.291
 6945SOL    HW121515   3.852   3.687   5.383
 6945SOL    HW221516   3.758   3.703   5.265
 6946SOL     OW21517   3.925   2.158   5.238
 6946SOL    HW121518   3.844   2.199   5.209
 6946SOL    HW221519   3.897   2.078   5.283
 6947SOL     OW21520   0.002   1.880   3.887
 6947SOL    HW121521   0.031   1.970   3.873
 6947SOL    HW221522   0.069   1.842   3.945
 6948SOL     OW21523   3.805   2.412   5.112
 6948SOL    HW121524   3.900   2.407   5.101
 6948SOL    HW221525   3.792   2.486   5.172
 6949SOL     OW21526   0.282   2.147   4.050
 6949SOL    HW121527   0.298   2.079   3.985
 6949SOL    HW221528   0.296   2.229   4.003
 6950SOL     OW21529   3.789   3.433   5.071
 6950SOL    HW121530   3.763   3.501   5.009
 6950SOL    HW221531   3.885   3.440   5.074
 6951SOL     OW21532   0.070   2.951   4.246
 6951SOL    HW121533   0.071   3.007   4.169
 6951SOL    HW221534   0.129   2.879   4.224
 6952SOL     OW21535   0.011   2.075   4.973
 6952SOL    HW121536   3.982   2.104   5.059
 6952SOL    HW221537   0.009   1.980   4.977
 6953SOL     OW21538   3.754   3.172   5.002
 6953SOL    HW121539   3.798   3.124   5.072
 6953SOL    HW221540   3.768   3.265   5.024
 6954SOL     OW21541   0.004   1.919   4.374
 6954SOL    HW121542   0.020   2.012   4.388
 6954SOL    HW221543   0.024   1.878   4.458
 6955SOL     OW21544   3.729   3.188   3.912
 6955SOL    HW121545   3.643   3.201   3.873
 6955SOL    HW221546   3.723   3.104   3.956
 6956SOL     OW21547   3.803   3.655   4.660
 6956SOL    HW121548   3.782   3.572   4.616
 6956SOL    HW221549   3.897   3.665   4.646
 6957SOL     OW21550   0.216   3.420   4.600
 6957SOL    HW121551   0.277   3.494   4.597
 6957SOL    HW221552   0.250   3.359   4.535
 6958SOL     OW21553   3.756   2.400   4.841
 6958SOL    HW121554   3.839   2.393   4.795
 6958SOL    HW221555   3.780   2.409   4.933
 6959SOL     OW21556   3.905   2.379   5.446
 6959SOL    HW121557   3.936   2.321   5.375
 6959SOL    HW221558   3.856   2.447   5.401
 6960SOL     OW21559   3.945   3.398   5.451
 6960SOL    HW121560   3.940   3.476   5.507
 6960SOL    HW221561   3.987   3.332   5.506
 6961SOL     OW21562   3.859   2.989   5.198
 6961SOL    HW121563   3.930   2.976   5.262
 6961SOL    HW221564   3.895   2.958   5.115
 6962SOL     OW21565   3.810   3.127   4.738
 6962SOL    HW121566   3.785   3.139   4.829
 6962SOL    HW221567   3.746   3.065   4.703
 6963SOL     OW21568   3.839   3.653   5.552
 6963SOL    HW121569   3.790   3.587   5.601
 6963SOL    HW221570   3.889   3.700   5.619
 6964SOL     OW21571   3.801   2.200   3.764
 6964SOL    HW121572   3.717   2.166   3.736
 6964SOL    HW221573   3.821   2.270   3.703
 6965SOL     OW21574   3.768   2.020   4.037
 6965SOL    HW121575   3.759   2.092   3.974
 6965SOL    HW221576   3.861   2.019   4.059
 6966SOL     OW21577   3.800   3.101   4.388
 6966SOL    HW121578   3.794   3.051   4.469
 6966SOL    HW221579   3.880   3.070   4.346
 6967SOL     OW21580   3.752   2.942   4.033
 6967SOL    HW121581   3.843   2.943   4.002
 6967SOL    HW221582   3.734   2.850   4.053
 6968SOL     OW21583   3.955   2.494   5.696
 6968SOL    HW121584   3.873   2.491   5.745
 6968SOL    HW221585   3.933   2.456   5.610
 6969SOL     OW21586   3.959   2.125   6.572
 6969SOL    HW121587   3.967   2.124   6.667
 6969SOL    HW221588   3.866   2.111   6.555
 6970SOL     OW21589   3.727   2.242   6.222
 6970SOL    HW121590   3.647   2.265   6.270
 6970SOL    HW221591   3.707   2.159   6.180
 6971SOL     OW21592   0.014   3.378   6.636
 6971SOL    HW121593   3.970   3.295   6.618
 6971SOL    HW221594   0.085   3.382   6.571
 6972SOL     OW21595   3.941   3.583   6.061
 6972SOL    HW121596   3.955   3.655   6.121
 6972SOL    HW221597   0.028   3.562   6.026
 6973SOL     OW21598   3.940   3.301   6.096
 6973SOL    HW121599   3.924   3.395   6.104
 6973SOL    HW221600   3.885   3.262   6.164
 6974SOL     OW21601   3.820   2.504   6.145
 6974SOL    HW121602   3.791   2.417   6.168
 6974SOL    HW221603   3.815   2.554   6.226
 6975SOL     OW21604   3.751   3.459   5.716
 6975SOL    HW121605   3.733   3.367   5.733
 6975SOL    HW221606   3.722   3.505   5.795
 6976SOL     OW21607   3.830   2.603   7.168
 6976SOL    HW121608   3.915   2.633   7.201
 6976SOL    HW221609   3.775   2.681   7.168
 6977SOL     OW21610   3.802   2.677   6.357
 6977SOL    HW121611   3.895   2.672   6.381
 6977SOL    HW221612   3.769   2.752   6.408
 6978SOL     OW21613   3.849   3.714   7.154
 6978SOL    HW121614   3.851   3.687   7.245
 6978SOL    HW221615   3.758   3.702   7.127
 6979SOL     OW21616   3.924   2.159   7.100
 6979SOL    HW121617   3.843   2.198   7.070
 6979SOL    HW221618   3.897   2.078   7.145
 6980SOL     OW21619   0.002   1.880   5.749
 6980SOL    HW121620   0.032   1.970   5.734
 6980SOL    HW221621   0.068   1.842   5.807
 6981SOL     OW21622   3.806   2.413   6.973
 6981SOL    HW121623   3.901   2.408   6.963
 6981SOL    HW221624   3.792   2.486   7.033
 6982SOL     OW21625   0.283   2.147   5.913
 6982SOL    HW121626   0.298   2.078   5.848
 6982SOL    HW221627   0.293   2.229   5.864
 6983SOL     OW21628   3.789   3.433   6.933
 6983SOL    HW121629   3.763   3.501   6.871
 6983SOL    HW221630   3.885   3.440   6.936
 6984SOL     OW21631   0.071   2.951   6.108
 6984SOL    HW121632   0.070   3.007   6.031
 6984SOL    HW221633   0.128   2.878   6.085
 6985SOL     OW21634   0.014   2.076   6.835
 6985SOL    HW121635   3.980   2.104   6.920
 6985SOL    HW221636   0.006   1.980   6.838
 6986SOL     OW21637   3.755   3.172   6.864
 6986SOL    HW121638   3.798   3.124   6.934
 6986SOL    HW221639   3.768   3.265   6.886
 6987SOL     OW21640   0.003   1.919   6.236
 6987SOL    HW121641   0.020   2.012   6.251
 6987SOL    HW221642   0.023   1.878   6.320
 6988SOL     OW21643   3.729   3.188   5.774
 6988SOL    HW121644   3.643   3.201   5.735
 6988SOL    HW221645   3.723   3.104   5.818
 6989SOL     OW21646   3.803   3.655   6.522
 6989SOL    HW121647   3.782   3.572   6.478
 6989SOL    HW221648   3.897   3.665   6.508
 6990SOL     OW21649   0.217   3.420   6.462
 6990SOL    HW121650   0.277   3.494   6.459
 6990SOL    HW221651   0.250   3.359   6.397
 6991SOL     OW21652   3.757   2.401   6.702
 6991SOL    HW121653   3.841   2.394   6.657
 6991SOL    HW221654   3.779   2.409   6.794
 6992SOL     OW21655   3.906   2.378   7.307
 6992SOL    HW121656   3.934   2.320   7.237
 6992SOL    HW221657   3.855   2.446   7.263
 6993SOL     OW21658   3.945   3.399   7.313
 6993SOL    HW121659   3.940   3.475   7.370
 6993SOL    HW221660   3.987   3.331   7.367
 6994SOL     OW21661   3.859   2.990   7.060
 6994SOL    HW121662   3.929   2.976   7.124
 6994SOL    HW221663   3.895   2.957   6.978
 6995SOL     OW21664   3.810   3.126   6.600
 6995SOL    HW121665   3.785   3.139   6.691
 6995SOL    HW221666   3.745   3.065   6.566
 6996SOL     OW21667   3.839   3.654   7.414
 6996SOL    HW121668   3.790   3.587   7.463
 6996SOL    HW221669   3.889   3.700   7.482
 6997SOL     OW21670   3.801   2.200   5.626
 6997SOL    HW121671   3.717   2.166   5.598
 6997SOL    HW221672   3.821   2.271   5.564
 6998SOL     OW21673   3.768   2.021   5.899
 6998SOL    HW121674   3.759   2.091   5.835
 6998SOL    HW221675   3.862   2.019   5.921
 6999SOL     OW21676   3.800   3.101   6.250
 6999SOL    HW121677   3.795   3.051   6.331
 6999SOL    HW221678   3.881   3.070   6.208
 7000SOL     OW21679   3.752   2.942   5.895
 7000SOL    HW121680   3.843   2.943   5.864
 7000SOL    HW221681   3.734   2.850   5.915
 7001SOL     OW21682   3.954   2.494   7.558
 7001SOL    HW121683   3.872   2.491   7.607
 7001SOL    HW221684   3.933   2.456   7.472
 7002SOL     OW21685   3.960   2.125   8.433
 7002SOL    HW121686   3.967   2.123   8.529
 7002SOL    HW221687   3.867   2.111   8.416
 7003SOL     OW21688   3.727   2.242   8.084
 7003SOL    HW121689   3.647   2.266   8.131
 7003SOL    HW221690   3.707   2.159   8.043
 7004SOL     OW21691   0.014   3.378   8.498
 7004SOL    HW121692   3.970   3.295   8.480
 7004SOL    HW221693   0.085   3.382   8.434
 7005SOL     OW21694   3.941   3.583   7.922
 7005SOL    HW121695   3.955   3.655   7.983
 7005SOL    HW221696   0.027   3.562   7.888
 7006SOL     OW21697   3.940   3.301   7.959
 7006SOL    HW121698   3.924   3.395   7.966
 7006SOL    HW221699   3.886   3.262   8.026
 7007SOL     OW21700   3.820   2.505   8.007
 7007SOL    HW121701   3.791   2.417   8.030
 7007SOL    HW221702   3.815   2.554   8.089
 7008SOL     OW21703   3.752   3.459   7.578
 7008SOL    HW121704   3.733   3.367   7.594
 7008SOL    HW221705   3.722   3.504   7.657
 7009SOL     OW21706   3.831   2.603   9.031
 7009SOL    HW121707   3.916   2.633   9.062
 7009SOL    HW221708   3.776   2.681   9.031
 7010SOL     OW21709   3.802   2.676   8.221
 7010SOL    HW121710   3.895   2.672   8.243
 7010SOL    HW221711   3.770   2.752   8.270
 7011SOL     OW21712   3.850   3.714   9.015
 7011SOL    HW121713   3.852   3.687   9.107
 7011SOL    HW221714   3.758   3.703   8.989
 7012SOL     OW21715   3.925   2.158   8.962
 7012SOL    HW121716   3.844   2.199   8.933
 7012SOL    HW221717   3.897   2.079   9.007
 7013SOL     OW21718   0.002   1.880   7.612
 7013SOL    HW121719   0.031   1.969   7.596
 7013SOL    HW221720   0.070   1.842   7.668
 7014SOL     OW21721   3.805   2.412   8.837
 7014SOL    HW121722   3.900   2.407   8.825
 7014SOL    HW221723   3.792   2.486   8.896
 7015SOL     OW21724   0.280   2.147   7.774
 7015SOL    HW121725   0.298   2.079   7.709
 7015SOL    HW221726   0.296   2.229   7.727
 7016SOL     OW21727   3.789   3.433   8.795
 7016SOL    HW121728   3.763   3.501   8.733
 7016SOL    HW221729   3.885   3.440   8.798
 7017SOL     OW21730   0.070   2.951   7.970
 7017SOL    HW121731   0.071   3.007   7.893
 7017SOL    HW221732   0.129   2.879   7.949
 7018SOL     OW21733   0.010   2.075   8.697
 7018SOL    HW121734   3.982   2.103   8.784
 7018SOL    HW221735   0.010   1.980   8.701
 7019SOL     OW21736   3.753   3.173   8.726
 7019SOL    HW121737   3.799   3.125   8.795
 7019SOL    HW221738   3.767   3.265   8.748
 7020SOL     OW21739   0.003   1.919   8.098
 7020SOL    HW121740   0.020   2.012   8.111
 7020SOL    HW221741   0.024   1.879   8.182
 7021SOL     OW21742   3.729   3.188   7.637
 7021SOL    HW121743   3.643   3.201   7.597
 7021SOL    HW221744   3.723   3.104   7.680
 7022SOL     OW21745   3.803   3.655   8.384
 7022SOL    HW121746   3.782   3.573   8.340
 7022SOL    HW221747   3.898   3.665   8.370
 7023SOL     OW21748   0.216   3.420   8.324
 7023SOL    HW121749   0.277   3.494   8.321
 7023SOL    HW221750   0.249   3.359   8.258
 7024SOL     OW21751   3.756   2.399   8.565
 7024SOL    HW121752   3.839   2.393   8.518
 7024SOL    HW221753   3.780   2.409   8.657
 7025SOL     OW21754   3.904   2.378   9.170
 7025SOL    HW121755   3.937   2.322   9.100
 7025SOL    HW221756   3.856   2.447   9.124
 7026SOL     OW21757   3.945   3.398   9.175
 7026SOL    HW121758   3.940   3.475   9.232
 7026SOL    HW221759   3.987   3.332   9.229
 7027SOL     OW21760   3.859   2.988   8.922
 7027SOL    HW121761   3.930   2.976   8.986
 7027SOL    HW221762   3.896   2.958   8.839
 7028SOL     OW21763   3.810   3.127   8.462
 7028SOL    HW121764   3.784   3.139   8.553
 7028SOL    HW221765   3.746   3.064   8.427
 7029SOL     OW21766   3.839   3.654   9.276
 7029SOL    HW121767   3.790   3.587   9.325
 7029SOL    HW221768   3.889   3.700   9.343
 7030SOL     OW21769   3.801   2.200   7.488
 7030SOL    HW121770   3.717   2.165   7.459
 7030SOL    HW221771   3.820   2.271   7.427
 7031SOL     OW21772   3.768   2.021   7.761
 7031SOL    HW121773   3.759   2.091   7.697
 7031SOL    HW221774   3.861   2.020   7.783
 7032SOL     OW21775   3.800   3.101   8.112
 7032SOL    HW121776   3.795   3.051   8.193
 7032SOL    HW221777   3.880   3.070   8.069
 7033SOL     OW21778   3.753   2.942   7.758
 7033SOL    HW121779   3.843   2.943   7.726
 7033SOL    HW221780   3.734   2.850   7.777
 7034SOL     OW21781   3.955   2.494   9.420
 7034SOL    HW121782   3.873   2.491   9.469
 7034SOL    HW221783   3.933   2.456   9.335
 7035SOL     OW21784   3.960   2.125  10.295
 7035SOL    HW121785   3.967   2.123  10.391
 7035SOL    HW221786   3.867   2.111  10.278
 7036SOL     OW21787   3.727   2.242   9.946
 7036SOL    HW121788   3.647   2.267   9.992
 7036SOL    HW221789   3.706   2.158   9.905
 7037SOL     OW21790   0.014   3.378  10.360
 7037SOL    HW121791   3.970   3.295  10.342
 7037SOL    HW221792   0.085   3.382  10.295
 7038SOL     OW21793   3.941   3.583   9.784
 7038SOL    HW121794   3.955   3.655   9.845
 7038SOL    HW221795   0.028   3.562   9.750
 7039SOL     OW21796   3.940   3.301   9.820
 7039SOL    HW121797   3.924   3.395   9.828
 7039SOL    HW221798   3.885   3.262   9.888
 7040SOL     OW21799   3.820   2.504   9.869
 7040SOL    HW121800   3.790   2.417   9.893
 7040SOL    HW221801   3.815   2.554   9.951
 7041SOL     OW21802   3.751   3.459   9.439
 7041SOL    HW121803   3.733   3.367   9.457
 7041SOL    HW221804   3.722   3.505   9.519
 7042SOL     OW21805   3.830   2.603  10.893
 7042SOL    HW121806   3.916   2.633  10.924
 7042SOL    HW221807   3.776   2.681  10.893
 7043SOL     OW21808   3.802   2.677  10.082
 7043SOL    HW121809   3.895   2.672  10.105
 7043SOL    HW221810   3.770   2.752  10.131
 7044SOL     OW21811   3.850   3.713  10.877
 7044SOL    HW121812   3.852   3.687  10.969
 7044SOL    HW221813   3.758   3.703  10.851
 7045SOL     OW21814   3.925   2.158  10.824
 7045SOL    HW121815   3.844   2.199  10.795
 7045SOL    HW221816   3.898   2.079  10.869
 7046SOL     OW21817   0.002   1.880   9.473
 7046SOL    HW121818   0.031   1.970   9.458
 7046SOL    HW221819   0.069   1.842   9.531
 7047SOL     OW21820   3.805   2.412  10.698
 7047SOL    HW121821   3.900   2.407  10.687
 7047SOL    HW221822   3.792   2.486  10.758
 7048SOL     OW21823   0.282   2.147   9.636
 7048SOL    HW121824   0.298   2.079   9.571
 7048SOL    HW221825   0.296   2.229   9.589
 7049SOL     OW21826   3.789   3.433  10.657
 7049SOL    HW121827   3.763   3.501  10.595
 7049SOL    HW221828   3.885   3.439  10.660
 7050SOL     OW21829   0.070   2.951   9.832
 7050SOL    HW121830   0.071   3.007   9.755
 7050SOL    HW221831   0.129   2.879   9.810
 7051SOL     OW21832   0.011   2.075  10.559
 7051SOL    HW121833   3.982   2.104  10.645
 7051SOL    HW221834   0.009   1.980  10.563
 7052SOL     OW21835   3.753   3.172  10.588
 7052SOL    HW121836   3.798   3.124  10.657
 7052SOL    HW221837   3.767   3.265  10.610
 7053SOL     OW21838   0.003   1.919   9.960
 7053SOL    HW121839   0.020   2.012   9.974
 7053SOL    HW221840   0.024   1.878  10.044
 7054SOL     OW21841   3.729   3.189   9.498
 7054SOL    HW121842   3.643   3.201   9.459
 7054SOL    HW221843   3.723   3.104   9.542
 7055SOL     OW21844   3.803   3.655  10.246
 7055SOL    HW121845   3.782   3.572  10.202
 7055SOL    HW221846   3.897   3.665  10.232
 7056SOL     OW21847   0.216   3.420  10.186
 7056SOL    HW121848   0.277   3.494  10.183
 7056SOL    HW221849   0.250   3.359  10.121
 7057SOL     OW21850   3.756   2.400  10.427
 7057SOL    HW121851   3.839   2.393  10.381
 7057SOL    HW221852   3.780   2.409  10.519
 7058SOL     OW21853   3.904   2.378  11.032
 7058SOL    HW121854   3.937   2.322  10.962
 7058SOL    HW221855   3.856   2.447  10.986
 7059SOL     OW21856   3.945   3.398  11.037
 7059SOL    HW121857   3.940   3.476  11.093
 7059SOL    HW221858   3.987   3.332  11.092
 7060SOL     OW21859   3.859   2.989  10.784
 7060SOL    HW121860   3.929   2.976  10.848
 7060SOL    HW221861   3.896   2.958  10.701
 7061SOL     OW21862   3.810   3.127  10.324
 7061SOL    HW121863   3.785   3.139  10.415
 7061SOL    HW221864   3.746   3.065  10.289
 7062SOL     OW21865   3.839   3.654  11.138
 7062SOL    HW121866   3.790   3.587  11.187
 7062SOL    HW221867   3.889   3.700  11.205
 7063SOL     OW21868   3.801   2.200   9.350
 7063SOL    HW121869   3.717   2.166   9.322
 7063SOL    HW221870   3.821   2.270   9.289
 7064SOL     OW21871   3.768   2.020   9.623
 7064SOL    HW121872   3.759   2.091   9.559
 7064SOL    HW221873   3.861   2.019   9.645
 7065SOL     OW21874   3.800   3.100   9.974
 7065SOL    HW121875   3.795   3.051  10.055
 7065SOL    HW221876   3.880   3.070   9.932
 7066SOL     OW21877   3.752   2.942   9.619
 7066SOL    HW121878   3.843   2.943   9.588
 7066SOL    HW221879   3.734   2.850   9.639
 7067SOL     OW21880   3.955   2.494  11.282
 7067SOL    HW121881   3.873   2.491  11.331
 7067SOL    HW221882   3.933   2.456  11.197
 7068SOL     OW21883   3.960   2.125  12.157
 7068SOL    HW121884   3.967   2.123  12.253
 7068SOL    HW221885   3.867   2.111  12.140
 7069SOL     OW21886   3.727   2.242  11.808
 7069SOL    HW121887   3.647   2.267  11.854
 7069SOL    HW221888   3.706   2.158  11.767
 7070SOL     OW21889   0.014   3.378  12.222
 7070SOL    HW121890   3.970   3.295  12.204
 7070SOL    HW221891   0.085   3.382  12.157
 7071SOL     OW21892   3.941   3.583  11.646
 7071SOL    HW121893   3.955   3.655  11.707
 7071SOL    HW221894   0.028   3.562  11.612
 7072SOL     OW21895   3.940   3.301  11.682
 7072SOL    HW121896   3.924   3.395  11.690
 7072SOL    HW221897   3.885   3.262  11.750
 7073SOL     OW21898   3.820   2.504  11.731
 7073SOL    HW121899   3.790   2.417  11.755
 7073SOL    HW221900   3.815   2.554  11.812
 7074SOL     OW21901   3.751   3.459  11.301
 7074SOL    HW121902   3.733   3.367  11.319
 7074SOL    HW221903   3.722   3.505  11.381
 7075SOL     OW21904   3.830   2.603  12.755
 7075SOL    HW121905   3.916   2.633  12.786
 7075SOL    HW221906   3.775   2.681  12.755
 7076SOL     OW21907   3.803   2.677  11.944
 7076SOL    HW121908   3.895   2.672  11.967
 7076SOL    HW221909   3.770   2.752  11.993
 7077SOL     OW21910   3.850   3.714  12.740
 7077SOL    HW121911   3.852   3.687  12.832
 7077SOL    HW221912   3.758   3.703  12.714
 7078SOL     OW21913   3.925   2.158  12.686
 7078SOL    HW121914   3.844   2.199  12.657
 7078SOL    HW221915   3.897   2.078  12.731
 7079SOL     OW21916   0.002   1.880  11.335
 7079SOL    HW121917   0.031   1.970  11.321
 7079SOL    HW221918   0.069   1.842  11.393
 7080SOL     OW21919   3.805   2.412  12.560
 7080SOL    HW121920   3.900   2.407  12.549
 7080SOL    HW221921   3.792   2.486  12.620
 7081SOL     OW21922   0.282   2.147  11.498
 7081SOL    HW121923   0.298   2.079  11.433
 7081SOL    HW221924   0.295   2.229  11.451
 7082SOL     OW21925   3.789   3.433  12.519
 7082SOL    HW121926   3.763   3.501  12.457
 7082SOL    HW221927   3.885   3.439  12.522
 7083SOL     OW21928   0.070   2.951  11.694
 7083SOL    HW121929   0.071   3.007  11.617
 7083SOL    HW221930   0.129   2.879  11.672
 7084SOL     OW21931   0.011   2.075  12.421
 7084SOL    HW121932   3.982   2.104  12.507
 7084SOL    HW221933   0.009   1.980  12.425
 7085SOL     OW21934   3.754   3.172  12.450
 7085SOL    HW121935   3.798   3.124  12.520
 7085SOL    HW221936   3.768   3.265  12.472
 7086SOL     OW21937   0.004   1.919  11.822
 7086SOL    HW121938   0.020   2.012  11.836
 7086SOL    HW221939   0.024   1.878  11.906
 7087SOL     OW21940   3.729   3.188  11.360
 7087SOL    HW121941   3.643   3.201  11.321
 7087SOL    HW221942   3.723   3.104  11.404
 7088SOL     OW21943   3.803   3.655  12.108
 7088SOL    HW121944   3.782   3.572  12.064
 7088SOL    HW221945   3.897   3.665  12.094
 7089SOL     OW21946   0.216   3.420  12.048
 7089SOL    HW121947   0.277   3.494  12.045
 7089SOL    HW221948   0.250   3.359  11.983
 7090SOL     OW21949   3.756   2.400  12.289
 7090SOL    HW121950   3.839   2.393  12.243
 7090SOL    HW221951   3.780   2.409  12.381
 7091SOL     OW21952   3.905   2.379  12.894
 7091SOL    HW121953   3.936   2.322  12.824
 7091SOL    HW221954   3.856   2.447  12.849
 7092SOL     OW21955   3.945   3.399  12.899
 7092SOL    HW121956   3.939   3.476  12.956
 7092SOL    HW221957   3.985   3.331  12.954
 7093SOL     OW21958   3.859   2.989  12.646
 7093SOL    HW121959   3.929   2.976  12.710
 7093SOL    HW221960   3.896   2.958  12.563
 7094SOL     OW21961   3.810   3.127  12.186
 7094SOL    HW121962   3.785   3.139  12.277
 7094SOL    HW221963   3.746   3.065  12.151
 7095SOL     OW21964   3.841   3.654  13.002
 7095SOL    HW121965   3.791   3.588  13.050
 7095SOL    HW221966   3.889   3.701  13.069
 7096SOL     OW21967   3.801   2.200  11.212
 7096SOL    HW121968   3.717   2.166  11.184
 7096SOL    HW221969   3.821   2.270  11.150
 7097SOL     OW21970   3.768   2.020  11.485
 7097SOL    HW121971   3.759   2.091  11.422
 7097SOL    HW221972   3.861   2.019  11.507
 7098SOL     OW21973   3.800   3.100  11.836
 7098SOL    HW121974   3.794   3.051  11.917
 7098SOL    HW221975   3.880   3.070  11.794
 7099SOL     OW21976   3.752   2.942  11.481
 7099SOL    HW121977   3.843   2.943  11.450
 7099SOL    HW221978   3.734   2.850  11.501
 7100SOL     OW21979   3.953   2.493  13.145
 7100SOL    HW121980   3.870   2.490  13.192
 7100SOL    HW221981   3.933   2.456  13.059
 7101SOL     OW21982   3.725   2.244  13.662
 7101SOL    HW121983   3.638   2.272  13.689
 7101SOL    HW221984   3.711   2.159  13.621
 7102SOL     OW21985   3.942   3.579  13.502
 7102SOL    HW121986   3.944   3.656  13.558
 7102SOL    HW221987   0.033   3.563  13.478
 7103SOL     OW21988   3.940   3.298  13.544
 7103SOL    HW121989   3.926   3.392  13.550
 7103SOL    HW221990   3.884   3.261  13.611
 7104SOL     OW21991   3.949   2.950  13.899
 7104SOL    HW121992   3.982   2.905   0.077
 7104SOL    HW221993   3.879   3.006   0.032
 7105SOL     OW21994   3.833   2.505  13.597
 7105SOL    HW121995   3.783   2.425  13.612
 7105SOL    HW221996   3.817   2.558  13.675
 7106SOL     OW21997   3.749   3.460  13.162
 7106SOL    HW121998   3.733   3.367  13.181
 7106SOL    HW221999   3.722   3.505  13.242
 7107SOL     OW22000   3.800   2.673  13.809
 7107SOL    HW122001   3.894   2.678  13.829
 7107SOL    HW222002   3.763   2.751  13.849
 7108SOL     OW22003   0.109   3.636  13.841
 7108SOL    HW122004   0.068   3.575   0.002
 7108SOL    HW222005   0.178   3.678  13.892
 7109SOL     OW22006   0.002   1.882  13.200
 7109SOL    HW122007   0.037   1.969  13.178
 7109SOL    HW222008   0.069   1.842  13.256
 7110SOL     OW22009   0.281   2.147  13.357
 7110SOL    HW122010   0.300   2.077  13.294
 7110SOL    HW222011   0.300   2.228  13.309
 7111SOL     OW22012   0.072   2.950  13.552
 7111SOL    HW122013   0.071   3.010  13.478
 7111SOL    HW222014   0.132   2.881  13.526
 7112SOL     OW22015   3.989   1.928  13.666
 7112SOL    HW122016   0.018   2.018  13.682
 7112SOL    HW222017   0.024   1.878  13.739
 7113SOL     OW22018   3.729   3.189  13.222
 7113SOL    HW122019   3.643   3.202  13.183
 7113SOL    HW222020   3.723   3.104  13.267
 7114SOL     OW22021   0.319   3.405   0.021
 7114SOL    HW122022   0.271   3.487   0.033
 7114SOL    HW222023   0.261   3.351  13.867
 7115SOL     OW22024   3.801   2.200  13.074
 7115SOL    HW122025   3.716   2.166  13.046
 7115SOL    HW222026   3.821   2.270  13.013
 7116SOL     OW22027   3.768   2.021  13.347
 7116SOL    HW122028   3.759   2.090  13.281
 7116SOL    HW222029   3.861   2.021  13.369
 7117SOL     OW22030   3.807   3.097  13.696
 7117SOL    HW122031   3.796   3.033  13.767
 7117SOL    HW222032   3.885   3.069  13.649
 7118SOL     OW22033   3.753   2.942  13.342
 7118SOL    HW122034   3.843   2.943  13.311
 7118SOL    HW222035   3.735   2.850  13.362
 7119SOL     OW22036   3.961   3.976   0.990
 7119SOL    HW122037   3.967   3.972   1.085
 7119SOL    HW222038   3.871   3.953   0.970
 7120SOL     OW22039   3.750   0.067   0.688
 7120SOL    HW122040   3.671   0.121   0.692
 7120SOL    HW222041   3.726   3.992   0.634
 7121SOL     OW22042   3.919   0.007   1.506
 7121SOL    HW122043   3.830   0.041   1.493
 7121SOL    HW222044   3.909   3.940   1.573
 7122SOL     OW22045   3.985   3.764   0.182
 7122SOL    HW122046   0.024   3.830   0.125
 7122SOL    HW222047   0.054   3.698   0.193
 7123SOL     OW22048   0.003   3.936   1.254
 7123SOL    HW122049   3.974   3.945   1.345
 7123SOL    HW222050   0.023   3.843   1.245
 7124SOL     OW22051   0.024   3.777   0.647
 7124SOL    HW122052   0.042   3.871   0.653
 7124SOL    HW222053   0.035   3.746   0.737
 7125SOL     OW22054   3.790   3.869   0.342
 7125SOL    HW122055   3.786   3.961   0.314
 7125SOL    HW222056   3.870   3.836   0.302
 7126SOL     OW22057   3.962   3.975   2.851
 7126SOL    HW122058   3.968   3.972   2.946
 7126SOL    HW222059   3.870   3.953   2.832
 7127SOL     OW22060   3.749   0.065   2.553
 7127SOL    HW122061   3.672   0.122   2.556
 7127SOL    HW222062   3.722   3.992   2.497
 7128SOL     OW22063   3.919   0.007   3.368
 7128SOL    HW122064   3.830   0.041   3.355
 7128SOL    HW222065   3.909   3.940   3.435
 7129SOL     OW22066   3.993   3.750   2.026
 7129SOL    HW122067   0.029   3.831   1.988
 7129SOL    HW222068   0.064   3.716   2.080
 7130SOL     OW22069   0.003   3.936   3.116
 7130SOL    HW122070   3.974   3.945   3.207
 7130SOL    HW222071   0.023   3.843   3.107
 7131SOL     OW22072   0.020   3.778   2.512
 7131SOL    HW122073   0.045   3.871   2.519
 7131SOL    HW222074   0.033   3.744   2.600
 7132SOL     OW22075   3.804   0.053   1.896
 7132SOL    HW122076   3.734   0.022   1.838
 7132SOL    HW222077   3.809   0.147   1.878
 7133SOL     OW22078   3.784   3.871   2.184
 7133SOL    HW122079   3.779   3.962   2.156
 7133SOL    HW222080   3.874   3.845   2.165
 7134SOL     OW22081   3.962   3.975   4.713
 7134SOL    HW122082   3.968   3.972   4.808
 7134SOL    HW222083   3.870   3.953   4.694
 7135SOL     OW22084   3.749   0.065   4.415
 7135SOL    HW122085   3.672   0.122   4.418
 7135SOL    HW222086   3.722   3.992   4.359
 7136SOL     OW22087   3.919   0.007   5.230
 7136SOL    HW122088   3.830   0.041   5.217
 7136SOL    HW222089   3.909   3.940   5.297
 7137SOL     OW22090   3.993   3.750   3.888
 7137SOL    HW122091   0.029   3.831   3.850
 7137SOL    HW222092   0.064   3.716   3.942
 7138SOL     OW22093   0.003   3.936   4.978
 7138SOL    HW122094   3.974   3.945   5.069
 7138SOL    HW222095   0.023   3.843   4.969
 7139SOL     OW22096   0.020   3.778   4.374
 7139SOL    HW122097   0.045   3.871   4.381
 7139SOL    HW222098   0.033   3.744   4.462
 7140SOL     OW22099   3.804   0.053   3.758
 7140SOL    HW122100   3.734   0.022   3.701
 7140SOL    HW222101   3.809   0.147   3.740
 7141SOL     OW22102   3.784   3.871   4.046
 7141SOL    HW122103   3.779   3.962   4.018
 7141SOL    HW222104   3.874   3.845   4.027
 7142SOL     OW22105   3.961   3.975   6.575
 7142SOL    HW122106   3.968   3.972   6.670
 7142SOL    HW222107   3.870   3.952   6.556
 7143SOL     OW22108   3.749   0.065   6.277
 7143SOL    HW122109   3.672   0.122   6.280
 7143SOL    HW222110   3.722   3.992   6.221
 7144SOL     OW22111   3.919   0.007   7.092
 7144SOL    HW122112   3.830   0.041   7.079
 7144SOL    HW222113   3.909   3.939   7.158
 7145SOL     OW22114   3.993   3.750   5.750
 7145SOL    HW122115   0.029   3.831   5.712
 7145SOL    HW222116   0.064   3.716   5.804
 7146SOL     OW22117   0.003   3.936   6.840
 7146SOL    HW122118   3.974   3.945   6.931
 7146SOL    HW222119   0.023   3.843   6.830
 7147SOL     OW22120   0.020   3.778   6.236
 7147SOL    HW122121   0.045   3.871   6.242
 7147SOL    HW222122   0.033   3.744   6.324
 7148SOL     OW22123   3.804   0.053   5.620
 7148SOL    HW122124   3.734   0.022   5.562
 7148SOL    HW222125   3.809   0.147   5.602
 7149SOL     OW22126   3.784   3.871   5.909
 7149SOL    HW122127   3.779   3.962   5.879
 7149SOL    HW222128   3.874   3.845   5.889
 7150SOL     OW22129   3.961   3.976   8.437
 7150SOL    HW122130   3.967   3.972   8.532
 7150SOL    HW222131   3.870   3.952   8.418
 7151SOL     OW22132   3.749   0.065   8.139
 7151SOL    HW122133   3.672   0.122   8.142
 7151SOL    HW222134   3.723   3.992   8.083
 7152SOL     OW22135   3.919   0.007   8.954
 7152SOL    HW122136   3.830   0.041   8.941
 7152SOL    HW222137   3.909   3.939   9.020
 7153SOL     OW22138   3.993   3.751   7.613
 7153SOL    HW122139   0.029   3.831   7.574
 7153SOL    HW222140   0.064   3.715   7.666
 7154SOL     OW22141   0.003   3.936   8.702
 7154SOL    HW122142   3.974   3.945   8.793
 7154SOL    HW222143   0.024   3.843   8.693
 7155SOL     OW22144   0.020   3.778   8.098
 7155SOL    HW122145   0.045   3.870   8.104
 7155SOL    HW222146   0.033   3.744   8.186
 7156SOL     OW22147   3.803   0.053   7.483
 7156SOL    HW122148   3.735   0.022   7.423
 7156SOL    HW222149   3.809   0.147   7.464
 7157SOL     OW22150   3.784   3.872   7.770
 7157SOL    HW122151   3.779   3.962   7.740
 7157SOL    HW222152   3.874   3.845   7.750
 7158SOL     OW22153   3.961   3.975  10.299
 7158SOL    HW122154   3.968   3.972  10.394
 7158SOL    HW222155   3.870   3.953  10.280
 7159SOL     OW22156   3.749   0.065  10.001
 7159SOL    HW122157   3.672   0.122  10.004
 7159SOL    HW222158   3.722   3.992   9.945
 7160SOL     OW22159   3.919   0.007  10.816
 7160SOL    HW122160   3.830   0.041  10.803
 7160SOL    HW222161   3.909   3.940  10.883
 7161SOL     OW22162   3.993   3.751   9.474
 7161SOL    HW122163   0.029   3.831   9.436
 7161SOL    HW222164   0.064   3.716   9.528
 7162SOL     OW22165   0.003   3.936  10.564
 7162SOL    HW122166   3.974   3.945  10.655
 7162SOL    HW222167   0.023   3.843  10.555
 7163SOL     OW22168   0.020   3.778   9.960
 7163SOL    HW122169   0.045   3.871   9.966
 7163SOL    HW222170   0.033   3.744  10.048
 7164SOL     OW22171   3.804   0.053   9.344
 7164SOL    HW122172   3.734   0.022   9.286
 7164SOL    HW222173   3.809   0.147   9.326
 7165SOL     OW22174   3.784   3.871   9.632
 7165SOL    HW122175   3.779   3.962   9.603
 7165SOL    HW222176   3.874   3.845   9.612
 7166SOL     OW22177   3.962   3.975  12.161
 7166SOL    HW122178   3.968   3.972  12.256
 7166SOL    HW222179   3.870   3.953  12.142
 7167SOL     OW22180   3.749   0.065  11.863
 7167SOL    HW122181   3.672   0.122  11.866
 7167SOL    HW222182   3.722   3.992  11.807
 7168SOL     OW22183   3.919   0.007  12.678
 7168SOL    HW122184   3.830   0.041  12.665
 7168SOL    HW222185   3.909   3.939  12.744
 7169SOL     OW22186   3.993   3.750  11.336
 7169SOL    HW122187   0.029   3.831  11.298
 7169SOL    HW222188   0.064   3.716  11.390
 7170SOL     OW22189   0.003   3.936  12.426
 7170SOL    HW122190   3.974   3.945  12.517
 7170SOL    HW222191   0.023   3.843  12.416
 7171SOL     OW22192   0.020   3.778  11.822
 7171SOL    HW122193   0.045   3.871  11.829
 7171SOL    HW222194   0.033   3.744  11.910
 7172SOL     OW22195   3.804   0.053  11.206
 7172SOL    HW122196   3.734   0.022  11.148
 7172SOL    HW222197   3.809   0.147  11.188
 7173SOL     OW22198   3.784   3.871  11.494
 7173SOL    HW122199   3.779   3.962  11.466
 7173SOL    HW222200   3.874   3.845  11.475
 7174SOL     OW22201   3.743   0.085  13.686
 7174SOL    HW122202   3.671   0.110  13.744
 7174SOL    HW222203   3.722   3.995  13.660
 7175SOL     OW22204   3.994   3.754  13.201
 7175SOL    HW122205   0.034   3.830  13.159
 7175SOL    HW222206   0.064   3.716  13.255
 7176SOL     OW22207   3.988   3.794  13.664
 7176SOL    HW122208   0.029   3.879  13.682
 7176SOL    HW222209   0.029   3.735  13.727
 7177SOL     OW22210   3.805   0.054  13.068
 7177SOL    HW122211   3.734   0.021  13.011
 7177SOL    HW222212   3.809   0.147  13.049
 7178SOL     OW22213   3.782   3.872  13.355
 7178SOL    HW122214   3.778   3.964  13.330
 7178SOL    HW222215   3.871   3.844  13.334
   4.00000   4.00000  13.90000
