Built with Packmol
21957
    1LIG      O    1   2.227   2.220   0.053
    1LIG      C    2   2.292   2.270   0.173
    1LIG     C1    3   2.221   2.217   0.301
    1LIG     O1    4   2.285   2.267   0.423
    1LIG     C2    5   2.220   2.218   0.544
    1LIG     C3    6   2.291   2.273   0.670
    1LIG     O2    7   2.227   2.225   0.791
    1LIG     C4    8   2.290   2.275   0.912
    1LIG     C5    9   2.218   2.220   1.038
    1LIG     O3   10   2.281   2.270   1.160
    1LIG     C6   11   2.216   2.221   1.280
    1LIG     C7   12   2.288   2.277   1.406
    1LIG     O4   13   2.224   2.229   1.528
    1LIG     C8   14   2.288   2.279   1.649
    1LIG     C9   15   2.215   2.223   1.774
    1LIG     O5   16   2.279   2.273   1.895
    1LIG    C10   17   2.215   2.224   2.016
    1LIG    C11   18   2.287   2.280   2.142
    1LIG     O6   19   2.223   2.231   2.263
    1LIG    C12   20   2.286   2.280   2.384
    1LIG    C13   21   2.213   2.225   2.509
    1LIG     O7   22   2.277   2.274   2.631
    1LIG    C14   23   2.213   2.225   2.752
    1LIG    C15   24   2.285   2.280   2.878
    1LIG     O8   25   2.221   2.231   3.000
    1LIG    C16   26   2.285   2.281   3.121
    1LIG    C17   27   2.214   2.226   3.247
    1LIG     O9   28   2.277   2.275   3.369
    1LIG    C18   29   2.212   2.226   3.489
    1LIG    C19   30   2.284   2.281   3.614
    1LIG    O10   31   2.221   2.232   3.736
    1LIG    C20   32   2.285   2.282   3.857
    1LIG    C21   33   2.212   2.226   3.982
    1LIG    O11   34   2.276   2.275   4.103
    1LIG    C22   35   2.212   2.226   4.224
    1LIG    C23   36   2.284   2.282   4.350
    1LIG    O12   37   2.220   2.233   4.471
    1LIG    C24   38   2.284   2.282   4.593
    1LIG    C25   39   2.212   2.227   4.719
    1LIG    O13   40   2.275   2.276   4.841
    1LIG    C26   41   2.211   2.227   4.961
    1LIG    C27   42   2.283   2.282   5.086
    1LIG    O14   43   2.219   2.233   5.208
    1LIG    C28   44   2.284   2.282   5.329
    1LIG    C29   45   2.212   2.226   5.455
    1LIG    O15   46   2.276   2.275   5.577
    1LIG    C30   47   2.212   2.226   5.697
    1LIG    C31   48   2.284   2.281   5.822
    1LIG    O16   49   2.220   2.232   5.943
    1LIG    C32   50   2.284   2.281   6.065
    1LIG    C33   51   2.212   2.226   6.191
    1LIG    O17   52   2.276   2.275   6.312
    1LIG    C34   53   2.212   2.225   6.433
    1LIG    C35   54   2.284   2.280   6.559
    1LIG    O18   55   2.220   2.231   6.680
    1LIG    C36   56   2.284   2.280   6.801
    1LIG    C37   57   2.213   2.225   6.927
    1LIG    O19   58   2.277   2.274   7.049
    1LIG    C38   59   2.213   2.224   7.169
    1LIG    C39   60   2.284   2.279   7.295
    1LIG    O20   61   2.221   2.230   7.417
    1LIG    C40   62   2.285   2.279   7.538
    1LIG    C41   63   2.214   2.224   7.664
    1LIG    O21   64   2.277   2.273   7.786
    1LIG    C42   65   2.213   2.223   7.906
    1LIG    C43   66   2.285   2.278   8.031
    1LIG    O22   67   2.222   2.229   8.153
    1LIG    C44   68   2.286   2.278   8.274
    1LIG    C45   69   2.214   2.222   8.399
    1LIG    O23   70   2.278   2.271   8.521
    1LIG    C46   71   2.214   2.222   8.642
    1LIG    C47   72   2.287   2.278   8.767
    1LIG    O24   73   2.223   2.228   8.888
    1LIG    C48   74   2.286   2.277   9.010
    1LIG    C49   75   2.214   2.221   9.135
    1LIG    O25   76   2.278   2.270   9.256
    1LIG    C50   77   2.215   2.221   9.378
    1LIG    C51   78   2.287   2.277   9.503
    1LIG    O26   79   2.224   2.227   9.624
    1LIG    C52   80   2.287   2.276   9.746
    1LIG    C53   81   2.215   2.219   9.871
    1LIG    O27   82   2.279   2.269   9.991
    1LIG    C54   83   2.216   2.219  10.113
    1LIG    C55   84   2.288   2.275  10.240
    1LIG    O28   85   2.224   2.225  10.361
    1LIG    C56   86   2.288   2.274  10.482
    1LIG    C57   87   2.217   2.218  10.609
    1LIG    O29   88   2.281   2.267  10.731
    1LIG    C58   89   2.217   2.217  10.852
    1LIG    C59   90   2.288   2.272  10.978
    1LIG      H   91   2.289   2.380   0.171
    1LIG     H1   92   2.397   2.239   0.172
    1LIG     H2   93   2.224   2.108   0.301
    1LIG     H3   94   2.116   2.248   0.300
    1LIG     H4   95   2.223   2.108   0.546
    1LIG     H5   96   2.115   2.249   0.545
    1LIG     H6   97   2.289   2.383   0.668
    1LIG     H7   98   2.397   2.242   0.669
    1LIG     H8   99   2.288   2.384   0.913
    1LIG     H9  100   2.395   2.244   0.914
    1LIG    H10  101   2.221   2.111   1.037
    1LIG    H11  102   2.113   2.251   1.036
    1LIG    H12  103   2.219   2.112   1.282
    1LIG    H13  104   2.111   2.252   1.281
    1LIG    H14  105   2.285   2.387   1.404
    1LIG    H15  106   2.393   2.246   1.405
    1LIG    H16  107   2.285   2.388   1.650
    1LIG    H17  108   2.393   2.248   1.651
    1LIG    H18  109   2.218   2.114   1.772
    1LIG    H19  110   2.110   2.254   1.772
    1LIG    H20  111   2.217   2.114   2.018
    1LIG    H21  112   2.109   2.255   2.018
    1LIG    H22  113   2.284   2.389   2.140
    1LIG    H23  114   2.392   2.249   2.140
    1LIG    H24  115   2.283   2.389   2.386
    1LIG    H25  116   2.391   2.249   2.386
    1LIG    H26  117   2.216   2.115   2.508
    1LIG    H27  118   2.108   2.256   2.508
    1LIG    H28  119   2.216   2.115   2.754
    1LIG    H29  120   2.108   2.256   2.753
    1LIG    H30  121   2.282   2.390   2.877
    1LIG    H31  122   2.390   2.249   2.877
    1LIG    H32  123   2.282   2.391   3.122
    1LIG    H33  124   2.390   2.250   3.122
    1LIG    H34  125   2.216   2.117   3.245
    1LIG    H35  126   2.108   2.257   3.245
    1LIG    H36  127   2.215   2.116   3.490
    1LIG    H37  128   2.107   2.257   3.490
    1LIG    H38  129   2.281   2.391   3.613
    1LIG    H39  130   2.389   2.250   3.613
    1LIG    H40  131   2.282   2.391   3.858
    1LIG    H41  132   2.390   2.251   3.858
    1LIG    H42  133   2.215   2.117   3.981
    1LIG    H43  134   2.107   2.257   3.980
    1LIG    H44  135   2.215   2.117   4.226
    1LIG    H45  136   2.107   2.257   4.226
    1LIG    H46  137   2.281   2.392   4.348
    1LIG    H47  138   2.390   2.251   4.349
    1LIG    H48  139   2.281   2.391   4.594
    1LIG    H49  140   2.389   2.251   4.594
    1LIG    H50  141   2.215   2.117   4.718
    1LIG    H51  142   2.107   2.258   4.717
    1LIG    H52  143   2.214   2.117   4.963
    1LIG    H53  144   2.106   2.258   4.963
    1LIG    H54  145   2.280   2.392   5.085
    1LIG    H55  146   2.388   2.251   5.085
    1LIG    H56  147   2.281   2.391   5.331
    1LIG    H57  148   2.389   2.251   5.330
    1LIG    H58  149   2.215   2.117   5.453
    1LIG    H59  150   2.107   2.257   5.454
    1LIG    H60  151   2.215   2.116   5.699
    1LIG    H61  152   2.107   2.257   5.699
    1LIG    H62  153   2.281   2.391   5.821
    1LIG    H63  154   2.389   2.250   5.821
    1LIG    H64  155   2.281   2.390   6.066
    1LIG    H65  156   2.389   2.250   6.066
    1LIG    H66  157   2.215   2.116   6.189
    1LIG    H67  158   2.107   2.257   6.189
    1LIG    H68  159   2.215   2.116   6.434
    1LIG    H69  160   2.107   2.256   6.434
    1LIG    H70  161   2.281   2.390   6.558
    1LIG    H71  162   2.389   2.250   6.557
    1LIG    H72  163   2.281   2.390   6.802
    1LIG    H73  164   2.390   2.250   6.802
    1LIG    H74  165   2.216   2.116   6.926
    1LIG    H75  166   2.108   2.256   6.926
    1LIG    H76  167   2.216   2.115   7.170
    1LIG    H77  168   2.108   2.255   7.171
    1LIG    H78  169   2.281   2.388   7.294
    1LIG    H79  170   2.390   2.248   7.294
    1LIG    H80  171   2.282   2.389   7.539
    1LIG    H81  172   2.390   2.249   7.539
    1LIG    H82  173   2.217   2.114   7.662
    1LIG    H83  174   2.108   2.254   7.663
    1LIG    H84  175   2.217   2.113   7.907
    1LIG    H85  176   2.108   2.253   7.907
    1LIG    H86  177   2.282   2.388   8.030
    1LIG    H87  178   2.391   2.248   8.029
    1LIG    H88  179   2.283   2.388   8.276
    1LIG    H89  180   2.391   2.248   8.275
    1LIG    H90  181   2.217   2.113   8.398
    1LIG    H91  182   2.109   2.253   8.398
    1LIG    H92  183   2.218   2.112   8.644
    1LIG    H93  184   2.109   2.252   8.644
    1LIG    H94  185   2.283   2.387   8.766
    1LIG    H95  186   2.392   2.247   8.766
    1LIG    H96  187   2.283   2.386   9.012
    1LIG    H97  188   2.391   2.246   9.011
    1LIG    H98  189   2.218   2.111   9.133
    1LIG    H99  190   2.109   2.251   9.134
    1LIG   H100  191   2.218   2.111   9.379
    1LIG   H101  192   2.110   2.251   9.380
    1LIG   H102  193   2.284   2.386   9.502
    1LIG   H103  194   2.392   2.246   9.501
    1LIG   H104  195   2.284   2.385   9.747
    1LIG   H105  196   2.392   2.245   9.747
    1LIG   H106  197   2.219   2.110   9.869
    1LIG   H107  198   2.110   2.250   9.870
    1LIG   H108  199   2.220   2.110  10.114
    1LIG   H109  200   2.111   2.250  10.115
    1LIG   H110  201   2.284   2.384  10.239
    1LIG   H111  202   2.393   2.244  10.238
    1LIG   H112  203   2.285   2.384  10.484
    1LIG   H113  204   2.394   2.244  10.483
    1LIG   H114  205   2.221   2.109  10.607
    1LIG   H115  206   2.112   2.249  10.608
    1LIG   H116  207   2.221   2.107  10.852
    1LIG   H117  208   2.112   2.249  10.853
    1LIG   H118  209   2.393   2.242  10.978
    1LIG   H119  210   2.241   2.235  11.073
    1MOL     C1  211   2.771   1.797   5.154
    1MOL     H1  212   2.793   1.690   5.164
    1MOL     O1  213   2.817   1.830   5.024
    1MOL     C2  214   2.797   1.968   4.988
    1MOL     H2  215   2.691   1.995   5.002
    1MOL     C3  216   2.829   1.981   4.840
    1MOL     H3  217   2.795   2.080   4.805
    1MOL     H4  218   2.772   1.904   4.785
    1MOL     O2  219   2.968   1.966   4.818
    1MOL     C4  220   3.003   1.983   4.682
    1MOL     C5  221   2.853   1.878   5.257
    1MOL     H5  222   2.957   1.842   5.249
    1MOL     O3  223   2.807   1.863   5.390
    1MOL     C6  224   2.837   1.739   5.450
    1MOL     C7  225   2.854   2.029   5.227
    1MOL     H6  226   2.756   2.071   5.251
    1MOL     O4  227   2.956   2.089   5.305
    1MOL     C8  228   2.909   2.180   5.403
    1MOL     C9  229   2.884   2.057   5.079
    1MOL     H7  230   2.989   2.033   5.060
    1MOL     O5  231   2.859   2.196   5.057
    1MOL    C10  232   2.945   2.265   4.968
    1MOL     H8  233   3.023   2.198   4.933
    1MOL     O6  234   2.876   2.305   4.851
    1MOL    C11  235   2.765   2.393   4.875
    1MOL     H9  236   2.695   2.345   4.945
    1MOL    C12  237   2.693   2.412   4.743
    1MOL    H10  238   2.596   2.460   4.762
    1MOL    H11  239   2.674   2.313   4.698
    1MOL     O7  240   2.771   2.492   4.656
    1MOL    C13  241   2.704   2.520   4.535
    1MOL    C14  242   3.005   2.389   5.037
    1MOL    H12  243   3.080   2.430   4.968
    1MOL     O8  244   3.065   2.361   5.162
    1MOL    C15  245   3.190   2.294   5.155
    1MOL    C16  246   2.901   2.499   5.062
    1MOL    H13  247   2.835   2.466   5.143
    1MOL     O9  248   2.968   2.619   5.096
    1MOL    C17  249   2.953   2.659   5.231
    1MOL    C18  250   2.815   2.525   4.938
    1MOL    H14  251   2.876   2.577   4.864
    1MOL    O10  252   2.706   2.607   4.979
    1MOL    C19  253   2.665   2.712   4.894
    1MOL    H15  254   2.732   2.719   4.808
    1MOL    O11  255   2.538   2.686   4.837
    1MOL    C20  256   2.432   2.672   4.932
    1MOL    H16  257   2.458   2.593   5.005
    1MOL    C21  258   2.309   2.623   4.857
    1MOL    H17  259   2.233   2.591   4.930
    1MOL    H18  260   2.338   2.536   4.797
    1MOL    O12  261   2.259   2.726   4.773
    1MOL    C22  262   2.158   2.680   4.686
    1MOL    C23  263   2.659   2.845   4.972
    1MOL    H19  264   2.637   2.924   4.898
    1MOL    O13  265   2.779   2.875   5.041
    1MOL    C24  266   2.886   2.916   4.958
    1MOL    C25  267   2.545   2.845   5.074
    1MOL    H20  268   2.568   2.773   5.154
    1MOL    O14  269   2.531   2.976   5.129
    1MOL    C26  270   2.587   2.992   5.259
    1MOL    C27  271   2.412   2.804   5.009
    1MOL    H21  272   2.378   2.881   4.939
    1MOL    O15  273   2.312   2.780   5.109
    1MOL    C28  274   2.240   2.894   5.152
    1MOL    H22  275   2.306   2.980   5.156
    1MOL    O16  276   2.137   2.931   5.062
    1MOL    C29  277   2.037   2.831   5.039
    1MOL    H23  278   2.083   2.741   4.996
    1MOL    C30  279   1.943   2.889   4.934
    1MOL    H24  280   1.879   2.809   4.893
    1MOL    H25  281   2.005   2.930   4.853
    1MOL    O17  282   1.862   2.990   4.992
    1MOL    C31  283   1.778   3.052   4.897
    1MOL    C32  284   2.180   2.864   5.290
    1MOL    H26  285   2.131   2.956   5.324
    1MOL    O18  286   2.284   2.827   5.379
    1MOL    C33  287   2.270   2.879   5.510
    1MOL    C34  288   2.072   2.755   5.279
    1MOL    H27  289   2.121   2.661   5.251
    1MOL    O19  290   2.009   2.742   5.406
    1MOL    C35  291   1.995   2.608   5.452
    1MOL    C36  292   1.969   2.792   5.172
    1MOL    H28  293   1.911   2.878   5.209
    1MOL    O20  294   1.881   2.679   5.156
    1MOL    C37  295   1.747   2.705   5.121
    1MOL    H29  296   1.729   2.813   5.119
    1MOL    O21  297   1.718   2.662   4.989
    1MOL    C38  298   1.736   2.521   4.968
    1MOL    H30  299   1.837   2.493   4.997
    1MOL    C39  300   1.722   2.496   4.818
    1MOL    H31  301   1.755   2.394   4.796
    1MOL    H32  302   1.787   2.567   4.764
    1MOL    O22  303   1.587   2.513   4.779
    1MOL    C40  304   1.566   2.480   4.643
    1MOL    C41  305   1.650   2.635   5.219
    1MOL    H33  306   1.549   2.673   5.196
    1MOL    O23  307   1.681   2.660   5.355
    1MOL    C42  308   1.649   2.790   5.402
    1MOL    C43  309   1.646   2.483   5.201
    1MOL    H34  310   1.739   2.440   5.241
    1MOL    O24  311   1.534   2.432   5.271
    1MOL    C44  312   1.565   2.352   5.384
    1MOL    C45  313   1.634   2.444   5.054
    1MOL    H35  314   1.533   2.469   5.019
    1MOL    O25  315   1.655   2.302   5.046
    1MOL    C46  316   1.573   2.229   4.956
    1MOL    H36  317   1.498   2.295   4.912
    1MOL    O26  318   1.647   2.180   4.846
    1MOL    C47  319   1.754   2.090   4.879
    1MOL    H37  320   1.822   2.138   4.950
    1MOL    C48  321   1.831   2.061   4.751
    1MOL    H38  322   1.926   2.013   4.776
    1MOL    H39  323   1.853   2.158   4.702
    1MOL    O27  324   1.754   1.979   4.666
    1MOL    C49  325   1.827   1.939   4.551
    1MOL    C50  326   1.507   2.110   5.029
    1MOL    H40  327   1.434   2.067   4.959
    1MOL    O28  328   1.441   2.147   5.149
    1MOL    C51  329   1.319   2.217   5.131
    1MOL    C52  330   1.607   2.000   5.065
    1MOL    H41  331   1.672   2.036   5.146
    1MOL    O29  332   1.536   1.884   5.106
    1MOL    C53  333   1.541   1.858   5.245
    1MOL    C54  334   1.694   1.964   4.945
    1MOL    H42  335   1.632   1.913   4.870
    1MOL    O30  336   1.797   1.875   4.990
    1MOL    C55  337   1.821   1.758   4.916
    1MOL    H43  338   1.742   1.743   4.843
    1MOL    O31  339   1.939   1.765   4.839
    1MOL    C56  340   2.061   1.784   4.913
    1MOL    H44  341   2.057   1.879   4.968
    1MOL    C57  342   2.172   1.789   4.810
    1MOL    H45  343   2.157   1.707   4.737
    1MOL    H46  344   2.269   1.773   4.858
    1MOL    O32  345   2.169   1.915   4.744
    1MOL    C58  346   2.270   1.926   4.646
    1MOL    C59  347   1.831   1.636   5.011
    1MOL    H47  348   1.842   1.547   4.946
    1MOL    O33  349   1.719   1.619   5.095
    1MOL    C60  350   1.602   1.572   5.030
    1MOL    C61  351   1.956   1.644   5.099
    1MOL    H48  352   1.945   1.728   5.169
    1MOL    O34  353   1.977   1.522   5.169
    1MOL    C62  354   1.924   1.519   5.301
    1MOL    C63  355   2.082   1.669   5.014
    1MOL    H49  356   2.105   1.577   4.959
    1MOL    O35  357   2.192   1.704   5.099
    1MOL    C64  358   2.275   1.597   5.138
    1MOL    H50  359   2.218   1.504   5.137
    1MOL    O36  360   2.381   1.576   5.046
    1MOL    C65  361   2.477   1.682   5.034
    1MOL    H51  362   2.426   1.775   5.005
    1MOL    C66  363   2.571   1.641   4.922
    1MOL    H52  364   2.596   1.534   4.935
    1MOL    H53  365   2.663   1.699   4.925
    1MOL    O37  366   2.504   1.661   4.798
    1MOL    C67  367   2.577   1.609   4.689
    1MOL    C68  368   2.333   1.621   5.278
    1MOL    H54  369   2.383   1.528   5.306
    1MOL    O38  370   2.229   1.650   5.370
    1MOL    C69  371   2.240   1.582   5.494
    1MOL    C70  372   2.438   1.733   5.277
    1MOL    H55  373   2.388   1.828   5.254
    1MOL    O39  374   2.498   1.739   5.406
    1MOL    C71  375   2.491   1.866   5.468
    1MOL    C72  376   2.545   1.706   5.170
    1MOL    H56  377   2.602   1.617   5.199
    1MOL    O40  378   2.633   1.820   5.169
    1MOL    H57  379   3.112   1.969   4.676
    1MOL    H58  380   2.954   1.908   4.618
    1MOL    H59  381   2.977   2.083   4.646
    1MOL    H60  382   2.519   1.630   4.599
    1MOL    H61  383   2.676   1.657   4.679
    1MOL    H62  384   2.592   1.501   4.697
    1MOL    H63  385   2.265   2.028   4.606
    1MOL    H64  386   2.370   1.908   4.689
    1MOL    H65  387   2.255   1.855   4.564
    1MOL    H66  388   1.762   1.872   4.494
    1MOL    H67  389   1.853   2.025   4.488
    1MOL    H68  390   1.919   1.885   4.579
    1MOL    H69  391   1.460   2.496   4.621
    1MOL    H70  392   1.626   2.544   4.576
    1MOL    H71  393   1.592   2.375   4.623
    1MOL    H72  394   1.720   3.128   4.950
    1MOL    H73  395   1.837   3.101   4.817
    1MOL    H74  396   1.709   2.980   4.850
    1MOL    H75  397   2.126   2.766   4.626
    1MOL    H76  398   2.196   2.601   4.619
    1MOL    H77  399   2.071   2.640   4.740
    1MOL    H78  400   2.771   2.582   4.475
    1MOL    H79  401   2.681   2.428   4.479
    1MOL    H80  402   2.610   2.575   4.552
    1MOL    H81  403   3.011   2.751   5.243
    1MOL    H82  404   2.848   2.681   5.255
    1MOL    H83  405   2.992   2.583   5.300
    1MOL    H84  406   3.230   2.293   5.256
    1MOL    H85  407   3.179   2.190   5.121
    1MOL    H86  408   3.260   2.346   5.089
    1MOL    H87  409   2.998   2.218   5.456
    1MOL    H88  410   2.858   2.266   5.357
    1MOL    H89  411   2.843   2.131   5.476
    1MOL    H90  412   2.816   1.749   5.556
    1MOL    H91  413   2.775   1.657   5.410
    1MOL    H92  414   2.944   1.713   5.437
    1MOL    H93  415   2.538   1.856   5.567
    1MOL    H94  416   2.547   1.942   5.411
    1MOL    H95  417   2.387   1.898   5.482
    1MOL    H96  418   2.155   1.615   5.555
    1MOL    H97  419   2.234   1.473   5.481
    1MOL    H98  420   2.333   1.607   5.545
    1MOL    H99  421   1.953   1.423   5.343
    1MOL   H100  422   1.968   1.599   5.362
    1MOL   H101  423   1.815   1.528   5.301
    1MOL   H102  424   1.532   1.544   5.108
    1MOL   H103  425   1.555   1.650   4.968
    1MOL   H104  426   1.624   1.484   4.968
    1MOL   H105  427   1.479   1.769   5.262
    1MOL   H106  428   1.643   1.835   5.278
    1MOL   H107  429   1.501   1.942   5.303
    1MOL   H108  430   1.272   2.223   5.229
    1MOL   H109  431   1.334   2.319   5.093
    1MOL   H110  432   1.252   2.162   5.062
    1MOL   H111  433   1.470   2.322   5.428
    1MOL   H112  434   1.620   2.262   5.355
    1MOL   H113  435   1.623   2.409   5.458
    1MOL   H114  436   1.665   2.789   5.510
    1MOL   H115  437   1.715   2.866   5.359
    1MOL   H116  438   1.545   2.815   5.380
    1MOL   H117  439   1.947   2.614   5.550
    1MOL   H118  440   1.931   2.549   5.385
    1MOL   H119  441   2.092   2.559   5.463
    1MOL   H120  442   2.356   2.843   5.567
    1MOL   H121  443   2.271   2.990   5.510
    1MOL   H122  444   2.177   2.845   5.558
    1MOL   H123  445   2.571   3.097   5.287
    1MOL   H124  446   2.537   2.927   5.332
    1MOL   H125  447   2.695   2.971   5.258
    1MOL   H126  448   2.965   2.952   5.025
    1MOL   H127  449   2.928   2.833   4.899
    1MOL   H128  450   2.856   2.998   4.891
    1MOL     C1  451   1.729   1.797   5.946
    1MOL     H1  452   1.707   1.690   5.936
    1MOL     O1  453   1.683   1.830   6.076
    1MOL     C2  454   1.703   1.968   6.112
    1MOL     H2  455   1.809   1.995   6.098
    1MOL     C3  456   1.672   1.981   6.260
    1MOL     H3  457   1.705   2.080   6.295
    1MOL     H4  458   1.728   1.904   6.315
    1MOL     O2  459   1.532   1.966   6.282
    1MOL     C4  460   1.497   1.983   6.418
    1MOL     C5  461   1.647   1.878   5.843
    1MOL     H5  462   1.544   1.842   5.852
    1MOL     O3  463   1.693   1.863   5.710
    1MOL     C6  464   1.663   1.739   5.650
    1MOL     C7  465   1.646   2.029   5.873
    1MOL     H6  466   1.744   2.071   5.849
    1MOL     O4  467   1.544   2.089   5.795
    1MOL     C8  468   1.591   2.180   5.697
    1MOL     C9  469   1.616   2.057   6.021
    1MOL     H7  470   1.511   2.033   6.040
    1MOL     O5  471   1.641   2.196   6.043
    1MOL    C10  472   1.555   2.265   6.132
    1MOL     H8  473   1.477   2.198   6.167
    1MOL     O6  474   1.624   2.305   6.249
    1MOL    C11  475   1.735   2.393   6.225
    1MOL     H9  476   1.805   2.345   6.155
    1MOL    C12  477   1.808   2.412   6.357
    1MOL    H10  478   1.904   2.460   6.338
    1MOL    H11  479   1.826   2.313   6.402
    1MOL     O7  480   1.730   2.492   6.444
    1MOL    C13  481   1.796   2.520   6.565
    1MOL    C14  482   1.495   2.389   6.063
    1MOL    H12  483   1.420   2.430   6.132
    1MOL     O8  484   1.435   2.361   5.938
    1MOL    C15  485   1.311   2.294   5.945
    1MOL    C16  486   1.599   2.499   6.038
    1MOL    H13  487   1.665   2.466   5.957
    1MOL     O9  488   1.533   2.619   6.004
    1MOL    C17  489   1.547   2.659   5.869
    1MOL    C18  490   1.685   2.525   6.162
    1MOL    H14  491   1.624   2.577   6.236
    1MOL    O10  492   1.794   2.607   6.121
    1MOL    C19  493   1.835   2.712   6.206
    1MOL    H15  494   1.768   2.719   6.292
    1MOL    O11  495   1.963   2.686   6.264
    1MOL    C20  496   2.068   2.672   6.168
    1MOL    H16  497   2.042   2.593   6.095
    1MOL    C21  498   2.191   2.623   6.243
    1MOL    H17  499   2.267   2.591   6.171
    1MOL    H18  500   2.162   2.536   6.303
    1MOL    O12  501   2.241   2.726   6.327
    1MOL    C22  502   2.342   2.680   6.414
    1MOL    C23  503   1.841   2.845   6.128
    1MOL    H19  504   1.863   2.924   6.202
    1MOL    O13  505   1.722   2.875   6.059
    1MOL    C24  506   1.614   2.916   6.142
    1MOL    C25  507   1.955   2.845   6.026
    1MOL    H20  508   1.932   2.773   5.946
    1MOL    O14  509   1.969   2.976   5.971
    1MOL    C26  510   1.913   2.992   5.841
    1MOL    C27  511   2.088   2.804   6.091
    1MOL    H21  512   2.122   2.881   6.161
    1MOL    O15  513   2.188   2.780   5.991
    1MOL    C28  514   2.260   2.894   5.948
    1MOL    H22  515   2.194   2.980   5.944
    1MOL    O16  516   2.363   2.931   6.038
    1MOL    C29  517   2.463   2.831   6.061
    1MOL    H23  518   2.417   2.741   6.104
    1MOL    C30  519   2.557   2.889   6.166
    1MOL    H24  520   2.621   2.809   6.207
    1MOL    H25  521   2.495   2.930   6.247
    1MOL    O17  522   2.638   2.990   6.108
    1MOL    C31  523   2.722   3.052   6.203
    1MOL    C32  524   2.320   2.864   5.811
    1MOL    H26  525   2.369   2.956   5.776
    1MOL    O18  526   2.216   2.827   5.721
    1MOL    C33  527   2.230   2.879   5.590
    1MOL    C34  528   2.428   2.755   5.821
    1MOL    H27  529   2.379   2.661   5.849
    1MOL    O19  530   2.491   2.742   5.694
    1MOL    C35  531   2.506   2.608   5.648
    1MOL    C36  532   2.532   2.792   5.928
    1MOL    H28  533   2.589   2.878   5.891
    1MOL    O20  534   2.619   2.679   5.944
    1MOL    C37  535   2.753   2.705   5.979
    1MOL    H29  536   2.771   2.813   5.981
    1MOL    O21  537   2.782   2.662   6.111
    1MOL    C38  538   2.765   2.521   6.132
    1MOL    H30  539   2.663   2.493   6.103
    1MOL    C39  540   2.778   2.496   6.282
    1MOL    H31  541   2.745   2.394   6.304
    1MOL    H32  542   2.713   2.567   6.336
    1MOL    O22  543   2.913   2.513   6.322
    1MOL    C40  544   2.934   2.480   6.457
    1MOL    C41  545   2.850   2.635   5.881
    1MOL    H33  546   2.951   2.673   5.904
    1MOL    O23  547   2.819   2.660   5.745
    1MOL    C42  548   2.851   2.790   5.698
    1MOL    C43  549   2.854   2.483   5.899
    1MOL    H34  550   2.761   2.440   5.859
    1MOL    O24  551   2.966   2.432   5.829
    1MOL    C44  552   2.935   2.352   5.716
    1MOL    C45  553   2.866   2.444   6.046
    1MOL    H35  554   2.967   2.469   6.081
    1MOL    O25  555   2.845   2.302   6.055
    1MOL    C46  556   2.927   2.229   6.144
    1MOL    H36  557   3.002   2.295   6.188
    1MOL    O26  558   2.853   2.180   6.254
    1MOL    C47  559   2.747   2.090   6.221
    1MOL    H37  560   2.678   2.138   6.150
    1MOL    C48  561   2.669   2.061   6.349
    1MOL    H38  562   2.574   2.013   6.324
    1MOL    H39  563   2.647   2.158   6.398
    1MOL    O27  564   2.746   1.979   6.434
    1MOL    C49  565   2.673   1.939   6.549
    1MOL    C50  566   2.993   2.110   6.071
    1MOL    H40  567   3.066   2.067   6.141
    1MOL    O28  568   3.059   2.147   5.951
    1MOL    C51  569   3.181   2.217   5.969
    1MOL    C52  570   2.893   2.000   6.035
    1MOL    H41  571   2.828   2.036   5.954
    1MOL    O29  572   2.964   1.884   5.994
    1MOL    C53  573   2.959   1.858   5.855
    1MOL    C54  574   2.806   1.964   6.156
    1MOL    H42  575   2.868   1.913   6.230
    1MOL    O30  576   2.703   1.875   6.110
    1MOL    C55  577   2.679   1.758   6.184
    1MOL    H43  578   2.759   1.743   6.258
    1MOL    O31  579   2.561   1.765   6.261
    1MOL    C56  580   2.439   1.784   6.187
    1MOL    H44  581   2.443   1.879   6.132
    1MOL    C57  582   2.328   1.789   6.290
    1MOL    H45  583   2.343   1.707   6.363
    1MOL    H46  584   2.231   1.773   6.242
    1MOL    O32  585   2.331   1.915   6.356
    1MOL    C58  586   2.230   1.926   6.454
    1MOL    C59  587   2.669   1.636   6.090
    1MOL    H47  588   2.658   1.547   6.154
    1MOL    O33  589   2.781   1.619   6.005
    1MOL    C60  590   2.898   1.572   6.070
    1MOL    C61  591   2.544   1.644   6.001
    1MOL    H48  592   2.555   1.728   5.931
    1MOL    O34  593   2.524   1.522   5.931
    1MOL    C62  594   2.576   1.519   5.799
    1MOL    C63  595   2.418   1.669   6.086
    1MOL    H49  596   2.395   1.577   6.141
    1MOL    O35  597   2.308   1.704   6.001
    1MOL    C64  598   2.225   1.597   5.963
    1MOL    H50  599   2.282   1.504   5.963
    1MOL    O36  600   2.119   1.576   6.054
    1MOL    C65  601   2.024   1.682   6.066
    1MOL    H51  602   2.074   1.775   6.095
    1MOL    C66  603   1.929   1.641   6.178
    1MOL    H52  604   1.904   1.534   6.165
    1MOL    H53  605   1.837   1.699   6.175
    1MOL    O37  606   1.996   1.661   6.302
    1MOL    C67  607   1.923   1.609   6.411
    1MOL    C68  608   2.167   1.621   5.822
    1MOL    H54  609   2.117   1.528   5.794
    1MOL    O38  610   2.272   1.650   5.731
    1MOL    C69  611   2.260   1.582   5.606
    1MOL    C70  612   2.062   1.733   5.823
    1MOL    H55  613   2.112   1.828   5.846
    1MOL    O39  614   2.002   1.739   5.694
    1MOL    C71  615   2.009   1.866   5.632
    1MOL    C72  616   1.955   1.706   5.930
    1MOL    H56  617   1.898   1.617   5.901
    1MOL    O40  618   1.867   1.820   5.931
    1MOL    H57  619   1.388   1.969   6.424
    1MOL    H58  620   1.546   1.908   6.482
    1MOL    H59  621   1.523   2.083   6.454
    1MOL    H60  622   1.981   1.630   6.502
    1MOL    H61  623   1.824   1.657   6.421
    1MOL    H62  624   1.908   1.501   6.403
    1MOL    H63  625   2.235   2.028   6.494
    1MOL    H64  626   2.130   1.908   6.411
    1MOL    H65  627   2.246   1.855   6.536
    1MOL    H66  628   2.738   1.872   6.606
    1MOL    H67  629   2.647   2.025   6.612
    1MOL    H68  630   2.582   1.885   6.521
    1MOL    H69  631   3.040   2.496   6.479
    1MOL    H70  632   2.874   2.544   6.524
    1MOL    H71  633   2.908   2.375   6.477
    1MOL    H72  634   2.780   3.128   6.150
    1MOL    H73  635   2.664   3.101   6.283
    1MOL    H74  636   2.791   2.980   6.250
    1MOL    H75  637   2.374   2.766   6.474
    1MOL    H76  638   2.304   2.601   6.482
    1MOL    H77  639   2.429   2.640   6.360
    1MOL    H78  640   1.729   2.582   6.625
    1MOL    H79  641   1.819   2.428   6.621
    1MOL    H80  642   1.890   2.575   6.548
    1MOL    H81  643   1.489   2.751   5.857
    1MOL    H82  644   1.652   2.681   5.845
    1MOL    H83  645   1.508   2.583   5.800
    1MOL    H84  646   1.270   2.293   5.844
    1MOL    H85  647   1.321   2.190   5.979
    1MOL    H86  648   1.240   2.346   6.011
    1MOL    H87  649   1.502   2.218   5.644
    1MOL    H88  650   1.642   2.266   5.743
    1MOL    H89  651   1.657   2.131   5.625
    1MOL    H90  652   1.684   1.749   5.544
    1MOL    H91  653   1.725   1.657   5.690
    1MOL    H92  654   1.557   1.713   5.663
    1MOL    H93  655   1.962   1.856   5.533
    1MOL    H94  656   1.953   1.942   5.689
    1MOL    H95  657   2.113   1.898   5.618
    1MOL    H96  658   2.345   1.615   5.545
    1MOL    H97  659   2.266   1.473   5.619
    1MOL    H98  660   2.167   1.607   5.555
    1MOL    H99  661   2.547   1.423   5.757
    1MOL   H100  662   2.533   1.599   5.738
    1MOL   H101  663   2.685   1.528   5.799
    1MOL   H102  664   2.968   1.544   5.992
    1MOL   H103  665   2.945   1.650   6.132
    1MOL   H104  666   2.876   1.484   6.132
    1MOL   H105  667   3.022   1.769   5.838
    1MOL   H106  668   2.857   1.835   5.822
    1MOL   H107  669   3.000   1.942   5.797
    1MOL   H108  670   3.229   2.223   5.871
    1MOL   H109  671   3.166   2.319   6.007
    1MOL   H110  672   3.248   2.162   6.038
    1MOL   H111  673   3.030   2.322   5.672
    1MOL   H112  674   2.880   2.262   5.745
    1MOL   H113  675   2.877   2.409   5.642
    1MOL   H114  676   2.836   2.789   5.590
    1MOL   H115  677   2.785   2.866   5.742
    1MOL   H116  678   2.956   2.815   5.720
    1MOL   H117  679   2.553   2.614   5.550
    1MOL   H118  680   2.569   2.549   5.715
    1MOL   H119  681   2.408   2.559   5.638
    1MOL   H120  682   2.144   2.843   5.533
    1MOL   H121  683   2.229   2.990   5.590
    1MOL   H122  684   2.323   2.845   5.542
    1MOL   H123  685   1.929   3.097   5.814
    1MOL   H124  686   1.963   2.927   5.768
    1MOL   H125  687   1.805   2.971   5.842
    1MOL   H126  688   1.536   2.952   6.075
    1MOL   H127  689   1.573   2.833   6.201
    1MOL   H128  690   1.644   2.998   6.209
    2SOL     OW  691   0.230   0.628   0.113
    2SOL    HW1  692   0.137   0.626   0.150
    2SOL    HW2  693   0.231   0.589   0.021
    3SOL     OW  694   0.225   0.275   0.996
    3SOL    HW1  695   0.260   0.258   1.088
    3SOL    HW2  696   0.137   0.230   0.984
    4SOL     OW  697   0.019   0.368   0.647
    4SOL    HW1  698  -0.063   0.411   0.686
    4SOL    HW2  699  -0.009   0.295   0.584
    5SOL     OW  700   0.569   1.275   1.165
    5SOL    HW1  701   0.476   1.268   1.128
    5SOL    HW2  702   0.580   1.364   1.209
    6SOL     OW  703   1.555   1.511   0.703
    6SOL    HW1  704   1.498   1.495   0.784
    6SOL    HW2  705   1.496   1.521   0.623
    7SOL     OW  706   1.135   0.703   0.717
    7SOL    HW1  707   1.192   0.781   0.692
    7SOL    HW2  708   1.075   0.729   0.793
    8SOL     OW  709   1.755   0.607   0.231
    8SOL    HW1  710   1.743   0.594   0.132
    8SOL    HW2  711   1.725   0.526   0.280
    9SOL     OW  712   0.768   1.144   1.023
    9SOL    HW1  713   0.690   1.161   1.083
    9SOL    HW2  714   0.802   1.231   0.987
   10SOL     OW  715   0.850   0.798   1.823
   10SOL    HW1  716   0.846   0.874   1.888
   10SOL    HW2  717   0.872   0.834   1.732
   11SOL     OW  718   0.685   1.012   0.665
   11SOL    HW1  719   0.754   0.996   0.735
   11SOL    HW2  720   0.612   1.069   0.703
   12SOL     OW  721   0.686   1.161   1.803
   12SOL    HW1  722   0.746   1.240   1.817
   12SOL    HW2  723   0.600   1.192   1.762
   13SOL     OW  724   0.335   1.435   1.061
   13SOL    HW1  725   0.257   1.404   1.008
   13SOL    HW2  726   0.393   1.493   1.004
   14SOL     OW  727   1.460   1.505   1.339
   14SOL    HW1  728   1.484   1.599   1.365
   14SOL    HW2  729   1.444   1.451   1.421
   15SOL     OW  730   0.438   0.392   1.499
   15SOL    HW1  731   0.520   0.336   1.508
   15SOL    HW2  732   0.357   0.334   1.503
   16SOL     OW  733   1.603   0.447   0.737
   16SOL    HW1  734   1.529   0.493   0.687
   16SOL    HW2  735   1.654   0.515   0.790
   17SOL     OW  736   0.231   1.713   0.483
   17SOL    HW1  737   0.265   1.790   0.537
   17SOL    HW2  738   0.275   1.713   0.393
   18SOL     OW  739   1.127   1.341   1.690
   18SOL    HW1  740   1.174   1.341   1.778
   18SOL    HW2  741   1.079   1.254   1.679
   19SOL     OW  742   0.230   1.434   0.538
   19SOL    HW1  743   0.204   1.530   0.538
   19SOL    HW2  744   0.159   1.380   0.583
   20SOL     OW  745   0.240   1.091   0.886
   20SOL    HW1  746   0.254   1.007   0.938
   20SOL    HW2  747   0.185   1.155   0.941
   21SOL     OW  748   0.620   1.786   1.439
   21SOL    HW1  749   0.528   1.769   1.474
   21SOL    HW2  750   0.648   1.878   1.465
   22SOL     OW  751   0.606   0.964   0.123
   22SOL    HW1  752   0.613   1.048   0.069
   22SOL    HW2  753   0.652   0.977   0.211
   23SOL     OW  754   1.594   0.114   1.480
   23SOL    HW1  755   1.576   0.181   1.408
   23SOL    HW2  756   1.591   0.160   1.569
   24SOL     OW  757   0.122   0.643   0.563
   24SOL    HW1  758   0.077   0.555   0.580
   24SOL    HW2  759   0.121   0.697   0.647
   25SOL     OW  760   1.842   1.767   0.359
   25SOL    HW1  761   1.896   1.738   0.439
   25SOL    HW2  762   1.872   1.857   0.330
   26SOL     OW  763   0.027   1.596   0.117
   26SOL    HW1  764   0.008   1.500   0.138
   26SOL    HW2  765  -0.006   1.654   0.192
   27SOL     OW  766   1.689   0.922   0.612
   27SOL    HW1  767   1.784   0.893   0.620
   27SOL    HW2  768   1.681   0.987   0.537
   28SOL     OW  769   1.641   1.108   0.432
   28SOL    HW1  770   1.727   1.110   0.380
   28SOL    HW2  771   1.655   1.155   0.520
   29SOL     OW  772   0.113   0.737   1.597
   29SOL    HW1  773   0.201   0.724   1.642
   29SOL    HW2  774   0.100   0.834   1.575
   30SOL     OW  775   0.613   1.365   0.726
   30SOL    HW1  776   0.564   1.278   0.735
   30SOL    HW2  777   0.590   1.408   0.639
   31SOL     OW  778   1.293   1.228   1.423
   31SOL    HW1  779   1.330   1.155   1.365
   31SOL    HW2  780   1.345   1.233   1.508
   32SOL     OW  781   0.809   0.004   0.502
   32SOL    HW1  782   0.849   0.095   0.493
   32SOL    HW2  783   0.709   0.012   0.508
   33SOL     OW  784   0.197   0.976   1.264
   33SOL    HW1  785   0.286   0.931   1.250
   33SOL    HW2  786   0.124   0.911   1.245
   34SOL     OW  787   1.525   0.999   0.190
   34SOL    HW1  788   1.462   0.923   0.203
   34SOL    HW2  789   1.573   1.017   0.276
   35SOL     OW  790   1.187   1.792   1.616
   35SOL    HW1  791   1.211   1.852   1.540
   35SOL    HW2  792   1.194   1.697   1.586
   36SOL     OW  793   0.317   0.251   1.801
   36SOL    HW1  794   0.388   0.322   1.807
   36SOL    HW2  795   0.229   0.290   1.829
   37SOL     OW  796   1.466   1.417   0.953
   37SOL    HW1  797   1.407   1.423   1.033
   37SOL    HW2  798   1.451   1.329   0.907
   38SOL     OW  799   1.667   1.714   0.572
   38SOL    HW1  800   1.626   1.691   0.484
   38SOL    HW2  801   1.649   1.640   0.637
   39SOL     OW  802   0.598   0.729   0.270
   39SOL    HW1  803   0.622   0.798   0.202
   39SOL    HW2  804   0.520   0.762   0.324
   40SOL     OW  805   1.281   0.345   0.944
   40SOL    HW1  806   1.195   0.295   0.931
   40SOL    HW2  807   1.343   0.291   1.000
   41SOL     OW  808   1.576   1.662   0.307
   41SOL    HW1  809   1.665   1.708   0.310
   41SOL    HW2  810   1.555   1.638   0.212
   42SOL     OW  811   0.807   0.605   1.465
   42SOL    HW1  812   0.760   0.602   1.554
   42SOL    HW2  813   0.756   0.550   1.399
   43SOL     OW  814   1.394   0.469   1.674
   43SOL    HW1  815   1.374   0.512   1.762
   43SOL    HW2  816   1.472   0.407   1.683
   44SOL     OW  817   0.973   0.890   1.572
   44SOL    HW1  818   1.019   0.806   1.543
   44SOL    HW2  819   0.917   0.924   1.497
   45SOL     OW  820   0.991   0.410   1.242
   45SOL    HW1  821   0.914   0.444   1.296
   45SOL    HW2  822   0.957   0.359   1.163
   46SOL     OW  823   1.041   0.701   0.429
   46SOL    HW1  824   1.067   0.697   0.525
   46SOL    HW2  825   0.956   0.650   0.415
   47SOL     OW  826   0.076   0.811   0.789
   47SOL    HW1  827   0.175   0.799   0.798
   47SOL    HW2  828   0.052   0.906   0.810
   48SOL     OW  829   0.130   1.821   1.571
   48SOL    HW1  830   0.120   1.806   1.670
   48SOL    HW2  831   0.044   1.857   1.535
   49SOL     OW  832   0.865   0.348   0.195
   49SOL    HW1  833   0.924   0.411   0.146
   49SOL    HW2  834   0.884   0.254   0.166
   50SOL     OW  835   1.719   0.585   1.831
   50SOL    HW1  836   1.693   0.674   1.795
   50SOL    HW2  837   1.717   0.517   1.758
   51SOL     OW  838   1.362   1.144   0.545
   51SOL    HW1  839   1.445   1.115   0.497
   51SOL    HW2  840   1.313   1.211   0.489
   52SOL     OW  841   0.550   0.196   0.885
   52SOL    HW1  842   0.545   0.191   0.985
   52SOL    HW2  843   0.552   0.292   0.856
   53SOL     OW  844   1.008   1.456   0.477
   53SOL    HW1  845   0.962   1.528   0.425
   53SOL    HW2  846   1.004   1.476   0.575
   54SOL     OW  847   0.351   1.801   0.853
   54SOL    HW1  848   0.401   1.715   0.859
   54SOL    HW2  849   0.416   1.878   0.850
   55SOL     OW  850   1.795   1.066   0.873
   55SOL    HW1  851   1.733   1.051   0.797
   55SOL    HW2  852   1.743   1.077   0.958
   56SOL     OW  853   1.227   1.550   1.506
   56SOL    HW1  854   1.233   1.473   1.570
   56SOL    HW2  855   1.175   1.524   1.426
   57SOL     OW  856   0.321   0.943   0.242
   57SOL    HW1  857   0.403   0.982   0.200
   57SOL    HW2  858   0.294   0.861   0.193
   58SOL     OW  859   1.458   0.735   0.728
   58SOL    HW1  860   1.453   0.670   0.803
   58SOL    HW2  861   1.538   0.794   0.741
   59SOL     OW  862   0.461   1.266   1.727
   59SOL    HW1  863   0.411   1.267   1.641
   59SOL    HW2  864   0.398   1.248   1.803
   60SOL     OW  865   1.111   1.776   0.237
   60SOL    HW1  866   1.051   1.714   0.287
   60SOL    HW2  867   1.142   1.732   0.152
   61SOL     OW  868   0.202   0.285   1.498
   61SOL    HW1  869   0.122   0.345   1.485
   61SOL    HW2  870   0.192   0.236   1.584
   62SOL     OW  871   1.632   1.377   0.081
   62SOL    HW1  872   1.600   1.471   0.071
   62SOL    HW2  873   1.556   1.314   0.069
   63SOL     OW  874   0.464   1.743   0.323
   63SOL    HW1  875   0.497   1.782   0.409
   63SOL    HW2  876   0.540   1.736   0.258
   64SOL     OW  877   1.400   0.107   0.426
   64SOL    HW1  878   1.376   0.070   0.336
   64SOL    HW2  879   1.499   0.123   0.430
   65SOL     OW  880   0.249   1.785   1.241
   65SOL    HW1  881   0.306   1.720   1.291
   65SOL    HW2  882   0.233   1.752   1.148
   66SOL     OW  883   0.940   1.698   0.904
   66SOL    HW1  884   1.020   1.641   0.925
   66SOL    HW2  885   0.891   1.658   0.827
   67SOL     OW  886   0.382   0.700   0.480
   67SOL    HW1  887   0.427   0.610   0.477
   67SOL    HW2  888   0.288   0.689   0.513
   68SOL     OW  889   1.547   0.222   1.729
   68SOL    HW1  890   1.542   0.259   1.821
   68SOL    HW2  891   1.475   0.153   1.717
   69SOL     OW  892   0.614   0.122   0.117
   69SOL    HW1  893   0.712   0.100   0.124
   69SOL    HW2  894   0.583   0.105   0.024
   70SOL     OW  895   0.781   0.264   1.749
   70SOL    HW1  896   0.848   0.203   1.792
   70SOL    HW2  897   0.708   0.283   1.814
   71SOL     OW  898   0.888   1.514   1.195
   71SOL    HW1  899   0.865   1.489   1.101
   71SOL    HW2  900   0.949   1.445   1.234
   72SOL     OW  901   1.351   0.590   1.433
   72SOL    HW1  902   1.379   0.547   1.518
   72SOL    HW2  903   1.376   0.686   1.434
   73SOL     OW  904   0.803   1.402   0.924
   73SOL    HW1  905   0.893   1.416   0.882
   73SOL    HW2  906   0.732   1.404   0.853
   74SOL     OW  907   0.922   0.503   0.899
   74SOL    HW1  908   0.897   0.494   0.803
   74SOL    HW2  909   0.970   0.421   0.930
   75SOL     OW  910   0.539   0.064   0.512
   75SOL    HW1  911   0.458   0.065   0.570
   75SOL    HW2  912   0.542   0.147   0.457
   76SOL     OW  913   1.434   1.188   0.041
   76SOL    HW1  914   1.466   1.112   0.098
   76SOL    HW2  915   1.342   1.215   0.071
   77SOL     OW  916   0.297   0.035   0.171
   77SOL    HW1  917   0.346   0.119   0.150
   77SOL    HW2  918   0.359  -0.030   0.216
   78SOL     OW  919   0.935   0.236   0.480
   78SOL    HW1  920   0.887   0.277   0.402
   78SOL    HW2  921   1.034   0.234   0.461
   79SOL     OW  922   1.076   0.683   1.464
   79SOL    HW1  923   0.996   0.622   1.467
   79SOL    HW2  924   1.157   0.630   1.440
   80SOL     OW  925   1.227   1.570   0.793
   80SOL    HW1  926   1.248   1.644   0.728
   80SOL    HW2  927   1.295   1.570   0.866
   81SOL     OW  928   0.459   1.152   0.741
   81SOL    HW1  929   0.388   1.125   0.806
   81SOL    HW2  930   0.433   1.124   0.648
   82SOL     OW  931   1.271   1.797   0.591
   82SOL    HW1  932   1.315   1.861   0.527
   82SOL    HW2  933   1.221   1.849   0.661
   83SOL     OW  934   1.032   0.549   0.016
   83SOL    HW1  935   0.991   0.631  -0.023
   83SOL    HW2  936   1.096   0.575   0.089
   84SOL     OW  937   0.078   0.556   1.386
   84SOL    HW1  938   0.170   0.555   1.345
   84SOL    HW2  939   0.072   0.630   1.453
   85SOL     OW  940   0.561   0.222   1.147
   85SOL    HW1  941   0.599   0.138   1.184
   85SOL    HW2  942   0.473   0.241   1.191
   86SOL     OW  943   0.866   0.454   0.642
   86SOL    HW1  944   0.834   0.526   0.580
   86SOL    HW2  945   0.890   0.373   0.589
   87SOL     OW  946   1.017   0.039   0.753
   87SOL    HW1  947   0.945   0.044   0.684
   87SOL    HW2  948   0.993  -0.030   0.822
   88SOL     OW  949   1.429   1.173   0.867
   88SOL    HW1  950   1.374   1.089   0.860
   88SOL    HW2  951   1.455   1.202   0.775
   89SOL     OW  952   1.466   0.590   0.992
   89SOL    HW1  953   1.436   0.495   0.999
   89SOL    HW2  954   1.539   0.606   1.058
   90SOL     OW  955   1.857   0.833   0.377
   90SOL    HW1  956   1.899   0.769   0.441
   90SOL    HW2  957   1.819   0.782   0.299
   91SOL     OW  958   0.488   1.385   0.174
   91SOL    HW1  959   0.401   1.370   0.221
   91SOL    HW2  960   0.471   1.411   0.079
   92SOL     OW  961   1.664   1.280   0.657
   92SOL    HW1  962   1.763   1.288   0.671
   92SOL    HW2  963   1.619   1.364   0.688
   93SOL     OW  964   1.390   0.575   0.078
   93SOL    HW1  965   1.336   0.554   0.159
   93SOL    HW2  966   1.481   0.534   0.087
   94SOL     OW  967   0.527   0.256   0.328
   94SOL    HW1  968   0.554   0.197   0.253
   94SOL    HW2  969   0.527   0.351   0.297
   95SOL     OW  970   1.754   1.223   1.588
   95SOL    HW1  971   1.845   1.184   1.575
   95SOL    HW2  972   1.762   1.319   1.612
   96SOL     OW  973   1.064   1.347   1.340
   96SOL    HW1  974   0.984   1.324   1.395
   96SOL    HW2  975   1.147   1.321   1.389
   97SOL     OW  976   1.592   1.629   1.625
   97SOL    HW1  977   1.619   1.663   1.535
   97SOL    HW2  978   1.671   1.591   1.671
   98SOL     OW  979   1.111   1.195   1.100
   98SOL    HW1  980   1.071   1.239   1.181
   98SOL    HW2  981   1.070   1.232   1.017
   99SOL     OW  982   1.638   1.099   1.079
   99SOL    HW1  983   1.643   1.180   1.138
   99SOL    HW2  984   1.552   1.101   1.028
  100SOL     OW  985   0.915   0.089   1.402
  100SOL    HW1  986   0.940   0.069   1.307
  100SOL    HW2  987   0.987   0.145   1.444
  101SOL     OW  988   0.980   1.116   1.719
  101SOL    HW1  989   0.881   1.122   1.729
  101SOL    HW2  990   1.003   1.036   1.663
  102SOL     OW  991   0.705   1.050   0.368
  102SOL    HW1  992   0.691   1.057   0.467
  102SOL    HW2  993   0.789   0.999   0.350
  103SOL     OW  994   0.410   0.813   1.251
  103SOL    HW1  995   0.496   0.825   1.301
  103SOL    HW2  996   0.368   0.726   1.278
  104SOL     OW  997   1.274   0.386   1.262
  104SOL    HW1  998   1.295   0.460   1.326
  104SOL    HW2  999   1.185   0.403   1.219
  105SOL     OW 1000   0.064   1.564   1.331
  105SOL    HW1 1001   0.018   1.646   1.297
  105SOL    HW2 1002   0.162   1.583   1.340
  106SOL     OW 1003   0.367   1.100   0.501
  106SOL    HW1 1004   0.360   1.183   0.445
  106SOL    HW2 1005   0.371   1.020   0.441
  107SOL     OW 1006   0.566   0.537   0.865
  107SOL    HW1 1007   0.578   0.603   0.791
  107SOL    HW2 1008   0.612   0.571   0.948
  108SOL     OW 1009   1.252   1.348   0.388
  108SOL    HW1 1010   1.302   1.425   0.428
  108SOL    HW2 1011   1.157   1.350   0.420
  109SOL     OW 1012   1.272   1.445   1.142
  109SOL    HW1 1013   1.319   1.458   1.229
  109SOL    HW2 1014   1.206   1.371   1.151
  110SOL     OW 1015   1.582   0.639   0.472
  110SOL    HW1 1016   1.551   0.700   0.545
  110SOL    HW2 1017   1.632   0.691   0.403
  111SOL     OW 1018   0.354   1.510   1.329
  111SOL    HW1 1019   0.333   1.466   1.242
  111SOL    HW2 1020   0.451   1.536   1.332
  112SOL     OW 1021   0.402   0.751   1.598
  112SOL    HW1 1022   0.470   0.806   1.551
  112SOL    HW2 1023   0.442   0.663   1.625
  113SOL     OW 1024   1.587   0.779   1.670
  113SOL    HW1 1025   1.495   0.817   1.665
  113SOL    HW2 1026   1.647   0.826   1.605
  114SOL     OW 1027   1.013   0.105   1.770
  114SOL    HW1 1028   1.019   0.190   1.718
  114SOL    HW2 1029   1.045   0.029   1.713
  115SOL     OW 1030   0.504   0.050   1.740
  115SOL    HW1 1031   0.462  -0.007   1.670
  115SOL    HW2 1032   0.438   0.119   1.772
  116SOL     OW 1033   0.573   0.870   1.029
  116SOL    HW1 1034   0.617   0.959   1.020
  116SOL    HW2 1035   0.510   0.870   1.106
  117SOL     OW 1036   1.360   0.862   1.045
  117SOL    HW1 1037   1.285   0.862   0.979
  117SOL    HW2 1038   1.397   0.770   1.054
  118SOL     OW 1039   1.209   0.525   0.275
  118SOL    HW1 1040   1.222   0.441   0.329
  118SOL    HW2 1041   1.180   0.599   0.335
  119SOL     OW 1042   0.307   0.213   1.231
  119SOL    HW1 1043   0.284   0.250   1.321
  119SOL    HW2 1044   0.277   0.118   1.225
  120SOL     OW 1045   0.037   1.310   1.282
  120SOL    HW1 1046   0.090   1.261   1.350
  120SOL    HW2 1047   0.059   1.408   1.287
  121SOL     OW 1048   0.732   0.634   1.064
  121SOL    HW1 1049   0.791   0.608   0.988
  121SOL    HW2 1050   0.704   0.730   1.053
  122SOL     OW 1051   1.728   0.935   1.854
  122SOL    HW1 1052   1.682   0.928   1.765
  122SOL    HW2 1053   1.666   0.979   1.920
  123SOL     OW 1054   0.307   0.063   0.618
  123SOL    HW1 1055   0.296   0.157   0.651
  123SOL    HW2 1056   0.302   0.000   0.695
  124SOL     OW 1057   1.622   0.367   0.374
  124SOL    HW1 1058   1.624   0.291   0.438
  124SOL    HW2 1059   1.574   0.444   0.414
  125SOL     OW 1060   1.023   0.766   0.966
  125SOL    HW1 1061   1.038   0.787   1.062
  125SOL    HW2 1062   0.993   0.671   0.957
  126SOL     OW 1063   0.980   1.573   1.700
  126SOL    HW1 1064   0.960   1.617   1.612
  126SOL    HW2 1065   1.019   1.482   1.684
  127SOL     OW 1066   1.859   1.518   1.605
  127SOL    HW1 1067   1.873   1.545   1.510
  127SOL    HW2 1068   1.942   1.540   1.658
  128SOL     OW 1069   0.350   0.898   1.804
  128SOL    HW1 1070   0.426   0.942   1.852
  128SOL    HW2 1071   0.385   0.851   1.722
  129SOL     OW 1072   1.540   0.274   0.125
  129SOL    HW1 1073   1.479   0.199   0.148
  129SOL    HW2 1074   1.562   0.326   0.208
  130SOL     OW 1075   1.303   0.838   0.042
  130SOL    HW1 1076   1.337   0.745   0.057
  130SOL    HW2 1077   1.321   0.865  -0.053
  131SOL     OW 1078   1.068   1.333   0.849
  131SOL    HW1 1079   1.075   1.249   0.794
  131SOL    HW2 1080   1.130   1.402   0.813
  132SOL     OW 1081   0.319   0.810   0.949
  132SOL    HW1 1082   0.412   0.846   0.954
  132SOL    HW2 1083   0.313   0.725   1.001
  133SOL     OW 1084   0.339   0.509   1.006
  133SOL    HW1 1085   0.287   0.426   0.989
  133SOL    HW2 1086   0.416   0.514   0.942
  134SOL     OW 1087   1.138   0.380   1.678
  134SOL    HW1 1088   1.093   0.443   1.742
  134SOL    HW2 1089   1.231   0.411   1.661
  135SOL     OW 1090   1.160   0.207   1.477
  135SOL    HW1 1091   1.160   0.271   1.554
  135SOL    HW2 1092   1.188   0.255   1.394
  136SOL     OW 1093   0.008   1.326   0.200
  136SOL    HW1 1094  -0.085   1.347   0.169
  136SOL    HW2 1095   0.018   1.227   0.213
  137SOL     OW 1096   0.088   1.801   0.927
  137SOL    HW1 1097   0.046   1.715   0.900
  137SOL    HW2 1098   0.182   1.804   0.893
  138SOL     OW 1099   0.504   1.568   0.910
  138SOL    HW1 1100   0.570   1.642   0.919
  138SOL    HW2 1101   0.548   1.489   0.868
  139SOL     OW 1102   1.002   0.796   1.238
  139SOL    HW1 1103   1.043   0.764   1.324
  139SOL    HW2 1104   0.906   0.769   1.235
  140SOL     OW 1105   0.040   0.544   1.114
  140SOL    HW1 1106   0.125   0.511   1.073
  140SOL    HW2 1107   0.053   0.559   1.212
  141SOL     OW 1108   0.189   0.520   1.722
  141SOL    HW1 1109   0.248   0.480   1.652
  141SOL    HW2 1110   0.131   0.591   1.681
  142SOL     OW 1111   1.369   0.950   1.660
  142SOL    HW1 1112   1.408   1.039   1.680
  142SOL    HW2 1113   1.379   0.930   1.563
  143SOL     OW 1114   0.815   0.572   0.325
  143SOL    HW1 1115   0.822   0.483   0.279
  143SOL    HW2 1116   0.721   0.606   0.317
  144SOL     OW 1117   1.657   0.604   1.206
  144SOL    HW1 1118   1.619   0.535   1.268
  144SOL    HW2 1119   1.739   0.568   1.162
  145SOL     OW 1120   0.252   1.564   1.744
  145SOL    HW1 1121   0.222   1.621   1.820
  145SOL    HW2 1122   0.245   1.467   1.770
  146SOL     OW 1123   0.671   0.464   1.269
  146SOL    HW1 1124   0.637   0.375   1.239
  146SOL    HW2 1125   0.697   0.518   1.189
  147SOL     OW 1126   0.930   1.678   1.465
  147SOL    HW1 1127   0.906   1.660   1.370
  147SOL    HW2 1128   0.960   1.772   1.475
  148SOL     OW 1129   0.473   0.500   0.191
  148SOL    HW1 1130   0.534   0.580   0.195
  148SOL    HW2 1131   0.378   0.531   0.198
  149SOL     OW 1132   0.159   1.137   1.466
  149SOL    HW1 1133   0.181   1.076   1.542
  149SOL    HW2 1134   0.169   1.088   1.380
  150SOL     OW 1135   1.347   1.059   1.234
  150SOL    HW1 1136   1.371   0.996   1.160
  150SOL    HW2 1137   1.257   1.099   1.216
  151SOL     OW 1138   1.302   0.855   0.309
  151SOL    HW1 1139   1.216   0.824   0.351
  151SOL    HW2 1140   1.298   0.841   0.210
  152SOL     OW 1141   1.759   1.747   1.154
  152SOL    HW1 1142   1.820   1.777   1.081
  152SOL    HW2 1143   1.721   1.658   1.132
  153SOL     OW 1144   1.252   1.731   1.128
  153SOL    HW1 1145   1.336   1.736   1.074
  153SOL    HW2 1146   1.229   1.635   1.146
  154SOL     OW 1147   0.083   1.258   1.022
  154SOL    HW1 1148   0.078   1.257   1.122
  154SOL    HW2 1149   0.000   1.217   0.984
  155SOL     OW 1150   0.688   1.662   1.716
  155SOL    HW1 1151   0.632   1.743   1.725
  155SOL    HW2 1152   0.740   1.666   1.630
  156SOL     OW 1153   0.903   0.086   0.133
  156SOL    HW1 1154   0.954   0.087   0.047
  156SOL    HW2 1155   0.959   0.044   0.204
  157SOL     OW 1156   1.726   0.135   0.523
  157SOL    HW1 1157   1.799   0.118   0.456
  157SOL    HW2 1158   1.695   0.048   0.561
  158SOL     OW 1159   1.388   1.573   0.477
  158SOL    HW1 1160   1.455   1.585   0.403
  158SOL    HW2 1161   1.348   1.662   0.500
  159SOL     OW 1162   0.130   1.794   1.851
  159SOL    HW1 1163   0.089   1.720   1.904
  159SOL    HW2 1164   0.194   1.845   1.909
  160SOL     OW 1165   1.280   0.927   0.672
  160SOL    HW1 1166   1.340   0.846   0.674
  160SOL    HW2 1167   1.320   0.996   0.612
  161SOL     OW 1168   0.830   1.273   1.422
  161SOL    HW1 1169   0.825   1.306   1.517
  161SOL    HW2 1170   0.744   1.292   1.376
  162SOL     OW 1171   0.672   1.616   0.154
  162SOL    HW1 1172   0.681   1.626   0.055
  162SOL    HW2 1173   0.632   1.527   0.175
  163SOL     OW 1174   1.650   1.720   1.394
  163SOL    HW1 1175   1.703   1.730   1.310
  163SOL    HW2 1176   1.623   1.810   1.428
  164SOL     OW 1177   1.841   0.175   0.963
  164SOL    HW1 1178   1.880   0.090   0.927
  164SOL    HW2 1179   1.743   0.177   0.944
  165SOL     OW 1180   0.263   0.326   0.720
  165SOL    HW1 1181   0.184   0.377   0.686
  165SOL    HW2 1182   0.254   0.311   0.818
  166SOL     OW 1183   1.194   1.612   0.031
  166SOL    HW1 1184   1.200   1.519   0.068
  166SOL    HW2 1185   1.135   1.612  -0.049
  167SOL     OW 1186   0.822   1.002   1.372
  167SOL    HW1 1187   0.862   1.001   1.280
  167SOL    HW2 1188   0.832   1.094   1.412
  168SOL     OW 1189   0.916   0.910   0.291
  168SOL    HW1 1190   0.979   0.948   0.223
  168SOL    HW2 1191   0.956   0.827   0.330
  169SOL     OW 1192   1.504   1.607   0.044
  169SOL    HW1 1193   1.412   1.644   0.051
  169SOL    HW2 1194   1.542   1.627  -0.046
  170SOL     OW 1195   0.372   1.288   1.490
  170SOL    HW1 1196   0.359   1.381   1.456
  170SOL    HW2 1197   0.288   1.236   1.477
  171SOL     OW 1198   1.614   1.292   1.289
  171SOL    HW1 1199   1.674   1.295   1.369
  171SOL    HW2 1200   1.539   1.356   1.302
  172SOL     OW 1201   1.039   1.098   0.696
  172SOL    HW1 1202   0.969   1.051   0.750
  172SOL    HW2 1203   1.098   1.030   0.653
  173SOL     OW 1204   1.014   0.236   0.971
  173SOL    HW1 1205   1.006   0.200   0.878
  173SOL    HW2 1206   1.012   0.160   1.036
  174SOL     OW 1207   0.590   1.487   0.491
  174SOL    HW1 1208   0.632   1.429   0.421
  174SOL    HW2 1209   0.546   1.566   0.447
  175SOL     OW 1210   1.709   0.385   1.381
  175SOL    HW1 1211   1.782   0.454   1.385
  175SOL    HW2 1212   1.737   0.310   1.322
  176SOL     OW 1213   0.255   1.348   0.290
  176SOL    HW1 1214   0.159   1.349   0.263
  176SOL    HW2 1215   0.267   1.401   0.374
  177SOL     OW 1216   0.105   1.013   1.726
  177SOL    HW1 1217   0.028   0.980   1.780
  177SOL    HW2 1218   0.190   0.983   1.768
  178SOL     OW 1219   0.672   0.203   1.489
  178SOL    HW1 1220   0.762   0.187   1.449
  178SOL    HW2 1221   0.680   0.208   1.588
  179SOL     OW 1222   0.075   0.345   0.033
  179SOL    HW1 1223  -0.017   0.317   0.004
  179SOL    HW2 1224   0.106   0.422  -0.023
  180SOL     OW 1225   1.440   0.856   1.398
  180SOL    HW1 1226   1.383   0.908   1.335
  180SOL    HW2 1227   1.536   0.868   1.374
  181SOL     OW 1228   0.072   0.166   0.318
  181SOL    HW1 1229   0.055   0.249   0.264
  181SOL    HW2 1230   0.162   0.129   0.296
  182SOL     OW 1231   1.183   1.335   0.119
  182SOL    HW1 1232   1.084   1.324   0.121
  182SOL    HW2 1233   1.217   1.350   0.212
  183SOL     OW 1234   0.613   0.842   1.431
  183SOL    HW1 1235   0.669   0.923   1.414
  183SOL    HW2 1236   0.672   0.762   1.434
  184SOL     OW 1237   1.493   1.767   0.959
  184SOL    HW1 1238   1.526   1.831   0.890
  184SOL    HW2 1239   1.559   1.761   1.034
  185SOL     OW 1240   0.716   0.565   1.708
  185SOL    HW1 1241   0.735   0.630   1.782
  185SOL    HW2 1242   0.776   0.485   1.717
  186SOL     OW 1243   1.450   1.220   1.633
  186SOL    HW1 1244   1.441   1.210   1.732
  186SOL    HW2 1245   1.546   1.213   1.607
  187SOL     OW 1246   0.390   1.741   1.560
  187SOL    HW1 1247   0.299   1.782   1.558
  187SOL    HW2 1248   0.383   1.647   1.592
  188SOL     OW 1249   1.674   0.883   1.254
  188SOL    HW1 1250   1.647   0.794   1.217
  188SOL    HW2 1251   1.675   0.951   1.181
  189SOL     OW 1252   1.225   0.325   0.449
  189SOL    HW1 1253   1.290   0.251   0.438
  189SOL    HW2 1254   1.245   0.375   0.533
  190SOL     OW 1255   0.594   0.745   0.652
  190SOL    HW1 1256   0.644   0.830   0.633
  190SOL    HW2 1257   0.506   0.747   0.604
  191SOL     OW 1258   1.777   0.342   1.642
  191SOL    HW1 1259   1.760   0.373   1.548
  191SOL    HW2 1260   1.693   0.305   1.680
  192SOL     OW 1261   1.730   0.934   1.517
  192SOL    HW1 1262   1.768   1.025   1.532
  192SOL    HW2 1263   1.722   0.917   1.418
  193SOL     OW 1264   0.859   1.374   0.016
  193SOL    HW1 1265   0.813   1.389   0.104
  193SOL    HW2 1266   0.903   1.459  -0.014
  194SOL     OW 1267   0.661   1.790   0.953
  194SOL    HW1 1268   0.615   1.878   0.940
  194SOL    HW2 1269   0.760   1.802   0.946
  195SOL     OW 1270   0.859   0.956   0.861
  195SOL    HW1 1271   0.913   0.887   0.909
  195SOL    HW2 1272   0.827   1.025   0.927
  196SOL     OW 1273   1.083   0.984   0.087
  196SOL    HW1 1274   1.060   1.037   0.005
  196SOL    HW2 1275   1.164   0.928   0.068
  197SOL     OW 1276   1.861   1.569   0.851
  197SOL    HW1 1277   1.790   1.557   0.781
  197SOL    HW2 1278   1.862   1.490   0.911
  198SOL     OW 1279   0.221   1.314   1.844
  198SOL    HW1 1280   0.156   1.241   1.823
  198SOL    HW2 1281   0.225   1.328   1.942
  199SOL     OW 1282   0.079   1.240   0.653
  199SOL    HW1 1283   0.078   1.193   0.741
  199SOL    HW2 1284   0.161   1.212   0.602
  200SOL     OW 1285   0.672   1.391   1.624
  200SOL    HW1 1286   0.594   1.341   1.662
  200SOL    HW2 1287   0.669   1.486   1.655
  201SOL     OW 1288   1.824   0.192   1.227
  201SOL    HW1 1289   1.820   0.102   1.271
  201SOL    HW2 1290   1.827   0.181   1.128
  202SOL     OW 1291   0.428   0.424   0.520
  202SOL    HW1 1292   0.458   0.352   0.458
  202SOL    HW2 1293   0.389   0.384   0.603
  203SOL     OW 1294   1.705   1.487   1.104
  203SOL    HW1 1295   1.612   1.462   1.077
  203SOL    HW2 1296   1.731   1.437   1.186
  204SOL     OW 1297   0.317   0.547   1.280
  204SOL    HW1 1298   0.355   0.488   1.352
  204SOL    HW2 1299   0.357   0.521   1.192
  205SOL     OW 1300   0.812   1.586   0.687
  205SOL    HW1 1301   0.844   1.596   0.593
  205SOL    HW2 1302   0.733   1.524   0.689
  206SOL     OW 1303   1.424   0.214   1.112
  206SOL    HW1 1304   1.476   0.149   1.167
  206SOL    HW2 1305   1.375   0.277   1.173
  207SOL     OW 1306   1.001   0.034   1.154
  207SOL    HW1 1307   0.938  -0.038   1.123
  207SOL    HW2 1308   1.094  -0.002   1.154
  208SOL     OW 1309   0.770   1.330   0.301
  208SOL    HW1 1310   0.724   1.243   0.318
  208SOL    HW2 1311   0.861   1.327   0.342
  209SOL     OW 1312   0.618   1.567   1.284
  209SOL    HW1 1313   0.613   1.649   1.341
  209SOL    HW2 1314   0.707   1.564   1.239
  210SOL     OW 1315   1.352   0.052   0.168
  210SOL    HW1 1316   1.387   0.011   0.084
  210SOL    HW2 1317   1.262   0.014   0.188
  211SOL     OW 1318   1.300   0.453   0.691
  211SOL    HW1 1319   1.241   0.533   0.695
  211SOL    HW2 1320   1.315   0.418   0.784
  212SOL     OW 1321   1.593   0.221   0.882
  212SOL    HW1 1322   1.509   0.220   0.936
  212SOL    HW2 1323   1.595   0.304   0.826
  213SOL     OW 1324   0.039   1.077   0.300
  213SOL    HW1 1325   0.138   1.066   0.291
  213SOL    HW2 1326  -0.001   0.991   0.332
  214SOL     OW 1327   0.875   1.646   0.337
  214SOL    HW1 1328   0.798   1.611   0.283
  214SOL    HW2 1329   0.843   1.717   0.399
  215SOL     OW 1330   0.230   0.628   1.975
  215SOL    HW1 1331   0.137   0.626   2.012
  215SOL    HW2 1332   0.231   0.589   1.883
  216SOL     OW 1333   0.225   0.275   2.858
  216SOL    HW1 1334   0.260   0.258   2.950
  216SOL    HW2 1335   0.137   0.230   2.846
  217SOL     OW 1336   0.019   0.368   2.509
  217SOL    HW1 1337  -0.063   0.411   2.548
  217SOL    HW2 1338  -0.009   0.295   2.446
  218SOL     OW 1339   0.569   1.275   3.027
  218SOL    HW1 1340   0.476   1.268   2.990
  218SOL    HW2 1341   0.580   1.364   3.071
  219SOL     OW 1342   1.555   1.511   2.565
  219SOL    HW1 1343   1.498   1.495   2.646
  219SOL    HW2 1344   1.496   1.521   2.485
  220SOL     OW 1345   1.135   0.703   2.579
  220SOL    HW1 1346   1.192   0.781   2.554
  220SOL    HW2 1347   1.075   0.729   2.655
  221SOL     OW 1348   1.755   0.607   2.093
  221SOL    HW1 1349   1.743   0.594   1.994
  221SOL    HW2 1350   1.725   0.526   2.142
  222SOL     OW 1351   0.768   1.144   2.885
  222SOL    HW1 1352   0.690   1.161   2.945
  222SOL    HW2 1353   0.802   1.231   2.849
  223SOL     OW 1354   0.850   0.798   3.685
  223SOL    HW1 1355   0.846   0.874   3.750
  223SOL    HW2 1356   0.872   0.834   3.594
  224SOL     OW 1357   0.685   1.012   2.527
  224SOL    HW1 1358   0.754   0.996   2.597
  224SOL    HW2 1359   0.612   1.069   2.565
  225SOL     OW 1360   0.686   1.161   3.665
  225SOL    HW1 1361   0.746   1.240   3.679
  225SOL    HW2 1362   0.600   1.192   3.624
  226SOL     OW 1363   0.335   1.435   2.923
  226SOL    HW1 1364   0.257   1.404   2.870
  226SOL    HW2 1365   0.393   1.493   2.866
  227SOL     OW 1366   1.460   1.505   3.201
  227SOL    HW1 1367   1.484   1.599   3.227
  227SOL    HW2 1368   1.444   1.451   3.283
  228SOL     OW 1369   0.438   0.392   3.361
  228SOL    HW1 1370   0.520   0.336   3.370
  228SOL    HW2 1371   0.357   0.334   3.365
  229SOL     OW 1372   1.603   0.447   2.599
  229SOL    HW1 1373   1.529   0.493   2.549
  229SOL    HW2 1374   1.654   0.515   2.652
  230SOL     OW 1375   0.231   1.713   2.345
  230SOL    HW1 1376   0.265   1.790   2.399
  230SOL    HW2 1377   0.275   1.713   2.255
  231SOL     OW 1378   1.127   1.341   3.552
  231SOL    HW1 1379   1.174   1.341   3.640
  231SOL    HW2 1380   1.079   1.254   3.541
  232SOL     OW 1381   0.230   1.434   2.400
  232SOL    HW1 1382   0.204   1.530   2.400
  232SOL    HW2 1383   0.159   1.380   2.445
  233SOL     OW 1384   0.240   1.091   2.748
  233SOL    HW1 1385   0.254   1.007   2.800
  233SOL    HW2 1386   0.185   1.155   2.803
  234SOL     OW 1387   0.620   1.786   3.301
  234SOL    HW1 1388   0.528   1.769   3.336
  234SOL    HW2 1389   0.648   1.878   3.327
  235SOL     OW 1390   0.606   0.964   1.985
  235SOL    HW1 1391   0.613   1.048   1.931
  235SOL    HW2 1392   0.652   0.977   2.073
  236SOL     OW 1393   1.594   0.114   3.342
  236SOL    HW1 1394   1.576   0.181   3.270
  236SOL    HW2 1395   1.591   0.160   3.431
  237SOL     OW 1396   0.122   0.643   2.425
  237SOL    HW1 1397   0.077   0.555   2.442
  237SOL    HW2 1398   0.121   0.697   2.509
  238SOL     OW 1399   1.842   1.767   2.221
  238SOL    HW1 1400   1.896   1.738   2.301
  238SOL    HW2 1401   1.872   1.857   2.192
  239SOL     OW 1402   0.027   1.596   1.979
  239SOL    HW1 1403   0.008   1.500   2.000
  239SOL    HW2 1404  -0.006   1.654   2.054
  240SOL     OW 1405   1.689   0.922   2.474
  240SOL    HW1 1406   1.784   0.893   2.482
  240SOL    HW2 1407   1.681   0.987   2.399
  241SOL     OW 1408   1.641   1.108   2.294
  241SOL    HW1 1409   1.727   1.110   2.242
  241SOL    HW2 1410   1.655   1.155   2.382
  242SOL     OW 1411   0.113   0.737   3.459
  242SOL    HW1 1412   0.201   0.724   3.504
  242SOL    HW2 1413   0.100   0.834   3.437
  243SOL     OW 1414   0.613   1.365   2.588
  243SOL    HW1 1415   0.564   1.278   2.597
  243SOL    HW2 1416   0.590   1.408   2.501
  244SOL     OW 1417   1.293   1.228   3.285
  244SOL    HW1 1418   1.330   1.155   3.227
  244SOL    HW2 1419   1.345   1.233   3.370
  245SOL     OW 1420   0.809   0.004   2.364
  245SOL    HW1 1421   0.849   0.095   2.355
  245SOL    HW2 1422   0.709   0.012   2.370
  246SOL     OW 1423   0.197   0.976   3.126
  246SOL    HW1 1424   0.286   0.931   3.112
  246SOL    HW2 1425   0.124   0.911   3.107
  247SOL     OW 1426   1.525   0.999   2.052
  247SOL    HW1 1427   1.462   0.923   2.065
  247SOL    HW2 1428   1.573   1.017   2.138
  248SOL     OW 1429   1.187   1.792   3.478
  248SOL    HW1 1430   1.211   1.852   3.402
  248SOL    HW2 1431   1.194   1.697   3.448
  249SOL     OW 1432   0.317   0.251   3.663
  249SOL    HW1 1433   0.388   0.322   3.669
  249SOL    HW2 1434   0.229   0.290   3.691
  250SOL     OW 1435   1.466   1.417   2.815
  250SOL    HW1 1436   1.407   1.423   2.895
  250SOL    HW2 1437   1.451   1.329   2.769
  251SOL     OW 1438   1.667   1.714   2.434
  251SOL    HW1 1439   1.626   1.691   2.346
  251SOL    HW2 1440   1.649   1.640   2.499
  252SOL     OW 1441   0.598   0.729   2.132
  252SOL    HW1 1442   0.622   0.798   2.064
  252SOL    HW2 1443   0.520   0.762   2.186
  253SOL     OW 1444   1.281   0.345   2.806
  253SOL    HW1 1445   1.195   0.295   2.793
  253SOL    HW2 1446   1.343   0.291   2.862
  254SOL     OW 1447   1.576   1.662   2.169
  254SOL    HW1 1448   1.665   1.708   2.172
  254SOL    HW2 1449   1.555   1.638   2.074
  255SOL     OW 1450   0.807   0.605   3.327
  255SOL    HW1 1451   0.760   0.602   3.416
  255SOL    HW2 1452   0.756   0.550   3.261
  256SOL     OW 1453   1.394   0.469   3.536
  256SOL    HW1 1454   1.374   0.512   3.624
  256SOL    HW2 1455   1.472   0.407   3.545
  257SOL     OW 1456   0.973   0.890   3.434
  257SOL    HW1 1457   1.019   0.806   3.405
  257SOL    HW2 1458   0.917   0.924   3.359
  258SOL     OW 1459   0.991   0.410   3.104
  258SOL    HW1 1460   0.914   0.444   3.158
  258SOL    HW2 1461   0.957   0.359   3.025
  259SOL     OW 1462   1.041   0.701   2.291
  259SOL    HW1 1463   1.067   0.697   2.387
  259SOL    HW2 1464   0.956   0.650   2.277
  260SOL     OW 1465   0.076   0.811   2.651
  260SOL    HW1 1466   0.175   0.799   2.660
  260SOL    HW2 1467   0.052   0.906   2.672
  261SOL     OW 1468   0.130   1.821   3.433
  261SOL    HW1 1469   0.120   1.806   3.532
  261SOL    HW2 1470   0.044   1.857   3.397
  262SOL     OW 1471   0.865   0.348   2.057
  262SOL    HW1 1472   0.924   0.411   2.008
  262SOL    HW2 1473   0.884   0.254   2.028
  263SOL     OW 1474   1.719   0.585   3.693
  263SOL    HW1 1475   1.693   0.674   3.657
  263SOL    HW2 1476   1.717   0.517   3.620
  264SOL     OW 1477   1.362   1.144   2.407
  264SOL    HW1 1478   1.445   1.115   2.359
  264SOL    HW2 1479   1.313   1.211   2.351
  265SOL     OW 1480   0.550   0.196   2.747
  265SOL    HW1 1481   0.545   0.191   2.847
  265SOL    HW2 1482   0.552   0.292   2.718
  266SOL     OW 1483   1.008   1.456   2.339
  266SOL    HW1 1484   0.962   1.528   2.287
  266SOL    HW2 1485   1.004   1.476   2.437
  267SOL     OW 1486   0.351   1.801   2.715
  267SOL    HW1 1487   0.401   1.715   2.721
  267SOL    HW2 1488   0.416   1.878   2.712
  268SOL     OW 1489   1.795   1.066   2.735
  268SOL    HW1 1490   1.733   1.051   2.659
  268SOL    HW2 1491   1.743   1.077   2.820
  269SOL     OW 1492   1.227   1.550   3.368
  269SOL    HW1 1493   1.233   1.473   3.432
  269SOL    HW2 1494   1.175   1.524   3.288
  270SOL     OW 1495   0.321   0.943   2.104
  270SOL    HW1 1496   0.403   0.982   2.062
  270SOL    HW2 1497   0.294   0.861   2.055
  271SOL     OW 1498   1.458   0.735   2.590
  271SOL    HW1 1499   1.453   0.670   2.665
  271SOL    HW2 1500   1.538   0.794   2.603
  272SOL     OW 1501   0.461   1.266   3.589
  272SOL    HW1 1502   0.411   1.267   3.503
  272SOL    HW2 1503   0.398   1.248   3.665
  273SOL     OW 1504   1.111   1.776   2.099
  273SOL    HW1 1505   1.051   1.714   2.149
  273SOL    HW2 1506   1.142   1.732   2.014
  274SOL     OW 1507   0.202   0.285   3.360
  274SOL    HW1 1508   0.122   0.345   3.347
  274SOL    HW2 1509   0.192   0.236   3.446
  275SOL     OW 1510   1.632   1.377   1.943
  275SOL    HW1 1511   1.600   1.471   1.933
  275SOL    HW2 1512   1.556   1.314   1.931
  276SOL     OW 1513   0.464   1.743   2.185
  276SOL    HW1 1514   0.497   1.782   2.271
  276SOL    HW2 1515   0.540   1.736   2.120
  277SOL     OW 1516   1.400   0.107   2.288
  277SOL    HW1 1517   1.376   0.070   2.198
  277SOL    HW2 1518   1.499   0.123   2.292
  278SOL     OW 1519   0.249   1.785   3.103
  278SOL    HW1 1520   0.306   1.720   3.153
  278SOL    HW2 1521   0.233   1.752   3.010
  279SOL     OW 1522   0.940   1.698   2.766
  279SOL    HW1 1523   1.020   1.641   2.787
  279SOL    HW2 1524   0.891   1.658   2.689
  280SOL     OW 1525   0.382   0.700   2.342
  280SOL    HW1 1526   0.427   0.610   2.339
  280SOL    HW2 1527   0.288   0.689   2.375
  281SOL     OW 1528   1.547   0.222   3.591
  281SOL    HW1 1529   1.542   0.259   3.683
  281SOL    HW2 1530   1.475   0.153   3.579
  282SOL     OW 1531   0.614   0.122   1.979
  282SOL    HW1 1532   0.712   0.100   1.986
  282SOL    HW2 1533   0.583   0.105   1.886
  283SOL     OW 1534   0.781   0.264   3.611
  283SOL    HW1 1535   0.848   0.203   3.654
  283SOL    HW2 1536   0.708   0.283   3.676
  284SOL     OW 1537   0.888   1.514   3.057
  284SOL    HW1 1538   0.865   1.489   2.963
  284SOL    HW2 1539   0.949   1.445   3.096
  285SOL     OW 1540   1.351   0.590   3.295
  285SOL    HW1 1541   1.379   0.547   3.380
  285SOL    HW2 1542   1.376   0.686   3.296
  286SOL     OW 1543   0.803   1.402   2.786
  286SOL    HW1 1544   0.893   1.416   2.744
  286SOL    HW2 1545   0.732   1.404   2.715
  287SOL     OW 1546   0.922   0.503   2.761
  287SOL    HW1 1547   0.897   0.494   2.665
  287SOL    HW2 1548   0.970   0.421   2.792
  288SOL     OW 1549   0.539   0.064   2.374
  288SOL    HW1 1550   0.458   0.065   2.432
  288SOL    HW2 1551   0.542   0.147   2.319
  289SOL     OW 1552   1.434   1.188   1.903
  289SOL    HW1 1553   1.466   1.112   1.960
  289SOL    HW2 1554   1.342   1.215   1.933
  290SOL     OW 1555   0.297   0.035   2.033
  290SOL    HW1 1556   0.346   0.119   2.012
  290SOL    HW2 1557   0.359  -0.030   2.078
  291SOL     OW 1558   0.935   0.236   2.342
  291SOL    HW1 1559   0.887   0.277   2.264
  291SOL    HW2 1560   1.034   0.234   2.323
  292SOL     OW 1561   1.076   0.683   3.326
  292SOL    HW1 1562   0.996   0.622   3.329
  292SOL    HW2 1563   1.157   0.630   3.302
  293SOL     OW 1564   1.227   1.570   2.655
  293SOL    HW1 1565   1.248   1.644   2.590
  293SOL    HW2 1566   1.295   1.570   2.728
  294SOL     OW 1567   0.459   1.152   2.603
  294SOL    HW1 1568   0.388   1.125   2.668
  294SOL    HW2 1569   0.433   1.124   2.510
  295SOL     OW 1570   1.271   1.797   2.453
  295SOL    HW1 1571   1.315   1.861   2.389
  295SOL    HW2 1572   1.221   1.849   2.523
  296SOL     OW 1573   1.032   0.549   1.878
  296SOL    HW1 1574   0.991   0.631   1.839
  296SOL    HW2 1575   1.096   0.575   1.951
  297SOL     OW 1576   0.078   0.556   3.248
  297SOL    HW1 1577   0.170   0.555   3.207
  297SOL    HW2 1578   0.072   0.630   3.315
  298SOL     OW 1579   0.561   0.222   3.009
  298SOL    HW1 1580   0.599   0.138   3.046
  298SOL    HW2 1581   0.473   0.241   3.053
  299SOL     OW 1582   0.866   0.454   2.504
  299SOL    HW1 1583   0.834   0.526   2.442
  299SOL    HW2 1584   0.890   0.373   2.451
  300SOL     OW 1585   1.017   0.039   2.615
  300SOL    HW1 1586   0.945   0.044   2.546
  300SOL    HW2 1587   0.993  -0.030   2.684
  301SOL     OW 1588   1.429   1.173   2.729
  301SOL    HW1 1589   1.374   1.089   2.722
  301SOL    HW2 1590   1.455   1.202   2.637
  302SOL     OW 1591   1.466   0.590   2.854
  302SOL    HW1 1592   1.436   0.495   2.861
  302SOL    HW2 1593   1.539   0.606   2.920
  303SOL     OW 1594   1.857   0.833   2.239
  303SOL    HW1 1595   1.899   0.769   2.303
  303SOL    HW2 1596   1.819   0.782   2.161
  304SOL     OW 1597   0.488   1.385   2.036
  304SOL    HW1 1598   0.401   1.370   2.083
  304SOL    HW2 1599   0.471   1.411   1.941
  305SOL     OW 1600   1.664   1.280   2.519
  305SOL    HW1 1601   1.763   1.288   2.533
  305SOL    HW2 1602   1.619   1.364   2.550
  306SOL     OW 1603   1.390   0.575   1.940
  306SOL    HW1 1604   1.336   0.554   2.021
  306SOL    HW2 1605   1.481   0.534   1.949
  307SOL     OW 1606   0.527   0.256   2.190
  307SOL    HW1 1607   0.554   0.197   2.115
  307SOL    HW2 1608   0.527   0.351   2.159
  308SOL     OW 1609   1.754   1.223   3.450
  308SOL    HW1 1610   1.845   1.184   3.437
  308SOL    HW2 1611   1.762   1.319   3.474
  309SOL     OW 1612   1.064   1.347   3.202
  309SOL    HW1 1613   0.984   1.324   3.257
  309SOL    HW2 1614   1.147   1.321   3.251
  310SOL     OW 1615   1.592   1.629   3.487
  310SOL    HW1 1616   1.619   1.663   3.397
  310SOL    HW2 1617   1.671   1.591   3.533
  311SOL     OW 1618   1.111   1.195   2.962
  311SOL    HW1 1619   1.071   1.239   3.043
  311SOL    HW2 1620   1.070   1.232   2.879
  312SOL     OW 1621   1.638   1.099   2.941
  312SOL    HW1 1622   1.643   1.180   3.000
  312SOL    HW2 1623   1.552   1.101   2.890
  313SOL     OW 1624   0.915   0.089   3.264
  313SOL    HW1 1625   0.940   0.069   3.169
  313SOL    HW2 1626   0.987   0.145   3.306
  314SOL     OW 1627   0.980   1.116   3.581
  314SOL    HW1 1628   0.881   1.122   3.591
  314SOL    HW2 1629   1.003   1.036   3.525
  315SOL     OW 1630   0.705   1.050   2.230
  315SOL    HW1 1631   0.691   1.057   2.329
  315SOL    HW2 1632   0.789   0.999   2.212
  316SOL     OW 1633   0.410   0.813   3.113
  316SOL    HW1 1634   0.496   0.825   3.163
  316SOL    HW2 1635   0.368   0.726   3.140
  317SOL     OW 1636   1.274   0.386   3.124
  317SOL    HW1 1637   1.295   0.460   3.188
  317SOL    HW2 1638   1.185   0.403   3.081
  318SOL     OW 1639   0.064   1.564   3.193
  318SOL    HW1 1640   0.018   1.646   3.159
  318SOL    HW2 1641   0.162   1.583   3.202
  319SOL     OW 1642   0.367   1.100   2.363
  319SOL    HW1 1643   0.360   1.183   2.307
  319SOL    HW2 1644   0.371   1.020   2.303
  320SOL     OW 1645   0.566   0.537   2.727
  320SOL    HW1 1646   0.578   0.603   2.653
  320SOL    HW2 1647   0.612   0.571   2.810
  321SOL     OW 1648   1.252   1.348   2.250
  321SOL    HW1 1649   1.302   1.425   2.290
  321SOL    HW2 1650   1.157   1.350   2.282
  322SOL     OW 1651   1.272   1.445   3.004
  322SOL    HW1 1652   1.319   1.458   3.091
  322SOL    HW2 1653   1.206   1.371   3.013
  323SOL     OW 1654   1.582   0.639   2.334
  323SOL    HW1 1655   1.551   0.700   2.407
  323SOL    HW2 1656   1.632   0.691   2.265
  324SOL     OW 1657   0.354   1.510   3.191
  324SOL    HW1 1658   0.333   1.466   3.104
  324SOL    HW2 1659   0.451   1.536   3.194
  325SOL     OW 1660   0.402   0.751   3.460
  325SOL    HW1 1661   0.470   0.806   3.413
  325SOL    HW2 1662   0.442   0.663   3.487
  326SOL     OW 1663   1.587   0.779   3.532
  326SOL    HW1 1664   1.495   0.817   3.527
  326SOL    HW2 1665   1.647   0.826   3.467
  327SOL     OW 1666   1.013   0.105   3.632
  327SOL    HW1 1667   1.019   0.190   3.580
  327SOL    HW2 1668   1.045   0.029   3.575
  328SOL     OW 1669   0.504   0.050   3.602
  328SOL    HW1 1670   0.462  -0.007   3.532
  328SOL    HW2 1671   0.438   0.119   3.634
  329SOL     OW 1672   0.573   0.870   2.891
  329SOL    HW1 1673   0.617   0.959   2.882
  329SOL    HW2 1674   0.510   0.870   2.968
  330SOL     OW 1675   1.360   0.862   2.907
  330SOL    HW1 1676   1.285   0.862   2.841
  330SOL    HW2 1677   1.397   0.770   2.916
  331SOL     OW 1678   1.209   0.525   2.137
  331SOL    HW1 1679   1.222   0.441   2.191
  331SOL    HW2 1680   1.180   0.599   2.197
  332SOL     OW 1681   0.307   0.213   3.093
  332SOL    HW1 1682   0.284   0.250   3.183
  332SOL    HW2 1683   0.277   0.118   3.087
  333SOL     OW 1684   0.037   1.310   3.144
  333SOL    HW1 1685   0.090   1.261   3.212
  333SOL    HW2 1686   0.059   1.408   3.149
  334SOL     OW 1687   0.732   0.634   2.926
  334SOL    HW1 1688   0.791   0.608   2.850
  334SOL    HW2 1689   0.704   0.730   2.915
  335SOL     OW 1690   1.728   0.935   3.716
  335SOL    HW1 1691   1.682   0.928   3.627
  335SOL    HW2 1692   1.666   0.979   3.782
  336SOL     OW 1693   0.307   0.063   2.480
  336SOL    HW1 1694   0.296   0.157   2.513
  336SOL    HW2 1695   0.302   0.000   2.557
  337SOL     OW 1696   1.622   0.367   2.236
  337SOL    HW1 1697   1.624   0.291   2.300
  337SOL    HW2 1698   1.574   0.444   2.276
  338SOL     OW 1699   1.023   0.766   2.828
  338SOL    HW1 1700   1.038   0.787   2.924
  338SOL    HW2 1701   0.993   0.671   2.819
  339SOL     OW 1702   0.980   1.573   3.562
  339SOL    HW1 1703   0.960   1.617   3.474
  339SOL    HW2 1704   1.019   1.482   3.546
  340SOL     OW 1705   1.859   1.518   3.467
  340SOL    HW1 1706   1.873   1.545   3.372
  340SOL    HW2 1707   1.942   1.540   3.520
  341SOL     OW 1708   0.350   0.898   3.666
  341SOL    HW1 1709   0.426   0.942   3.714
  341SOL    HW2 1710   0.385   0.851   3.584
  342SOL     OW 1711   1.540   0.274   1.987
  342SOL    HW1 1712   1.479   0.199   2.010
  342SOL    HW2 1713   1.562   0.326   2.070
  343SOL     OW 1714   1.303   0.838   1.904
  343SOL    HW1 1715   1.337   0.745   1.919
  343SOL    HW2 1716   1.321   0.865   1.809
  344SOL     OW 1717   1.068   1.333   2.711
  344SOL    HW1 1718   1.075   1.249   2.656
  344SOL    HW2 1719   1.130   1.402   2.675
  345SOL     OW 1720   0.319   0.810   2.811
  345SOL    HW1 1721   0.412   0.846   2.816
  345SOL    HW2 1722   0.313   0.725   2.863
  346SOL     OW 1723   0.339   0.509   2.868
  346SOL    HW1 1724   0.287   0.426   2.851
  346SOL    HW2 1725   0.416   0.514   2.804
  347SOL     OW 1726   1.138   0.380   3.540
  347SOL    HW1 1727   1.093   0.443   3.604
  347SOL    HW2 1728   1.231   0.411   3.523
  348SOL     OW 1729   1.160   0.207   3.339
  348SOL    HW1 1730   1.160   0.271   3.416
  348SOL    HW2 1731   1.188   0.255   3.256
  349SOL     OW 1732   0.008   1.326   2.062
  349SOL    HW1 1733  -0.085   1.347   2.031
  349SOL    HW2 1734   0.018   1.227   2.075
  350SOL     OW 1735   0.088   1.801   2.789
  350SOL    HW1 1736   0.046   1.715   2.762
  350SOL    HW2 1737   0.182   1.804   2.755
  351SOL     OW 1738   0.504   1.568   2.772
  351SOL    HW1 1739   0.570   1.642   2.781
  351SOL    HW2 1740   0.548   1.489   2.730
  352SOL     OW 1741   1.002   0.796   3.100
  352SOL    HW1 1742   1.043   0.764   3.186
  352SOL    HW2 1743   0.906   0.769   3.097
  353SOL     OW 1744   0.040   0.544   2.976
  353SOL    HW1 1745   0.125   0.511   2.935
  353SOL    HW2 1746   0.053   0.559   3.074
  354SOL     OW 1747   0.189   0.520   3.584
  354SOL    HW1 1748   0.248   0.480   3.514
  354SOL    HW2 1749   0.131   0.591   3.543
  355SOL     OW 1750   1.369   0.950   3.522
  355SOL    HW1 1751   1.408   1.039   3.542
  355SOL    HW2 1752   1.379   0.930   3.425
  356SOL     OW 1753   0.815   0.572   2.187
  356SOL    HW1 1754   0.822   0.483   2.141
  356SOL    HW2 1755   0.721   0.606   2.179
  357SOL     OW 1756   1.657   0.604   3.068
  357SOL    HW1 1757   1.619   0.535   3.130
  357SOL    HW2 1758   1.739   0.568   3.024
  358SOL     OW 1759   0.252   1.564   3.606
  358SOL    HW1 1760   0.222   1.621   3.682
  358SOL    HW2 1761   0.245   1.467   3.632
  359SOL     OW 1762   0.671   0.464   3.131
  359SOL    HW1 1763   0.637   0.375   3.101
  359SOL    HW2 1764   0.697   0.518   3.051
  360SOL     OW 1765   0.930   1.678   3.327
  360SOL    HW1 1766   0.906   1.660   3.232
  360SOL    HW2 1767   0.960   1.772   3.337
  361SOL     OW 1768   0.473   0.500   2.053
  361SOL    HW1 1769   0.534   0.580   2.057
  361SOL    HW2 1770   0.378   0.531   2.060
  362SOL     OW 1771   0.159   1.137   3.328
  362SOL    HW1 1772   0.181   1.076   3.404
  362SOL    HW2 1773   0.169   1.088   3.242
  363SOL     OW 1774   1.347   1.059   3.096
  363SOL    HW1 1775   1.371   0.996   3.022
  363SOL    HW2 1776   1.257   1.099   3.078
  364SOL     OW 1777   1.302   0.855   2.171
  364SOL    HW1 1778   1.216   0.824   2.213
  364SOL    HW2 1779   1.298   0.841   2.072
  365SOL     OW 1780   1.759   1.747   3.016
  365SOL    HW1 1781   1.820   1.777   2.943
  365SOL    HW2 1782   1.721   1.658   2.994
  366SOL     OW 1783   1.252   1.731   2.990
  366SOL    HW1 1784   1.336   1.736   2.936
  366SOL    HW2 1785   1.229   1.635   3.008
  367SOL     OW 1786   0.083   1.258   2.884
  367SOL    HW1 1787   0.078   1.257   2.984
  367SOL    HW2 1788   0.000   1.217   2.846
  368SOL     OW 1789   0.688   1.662   3.578
  368SOL    HW1 1790   0.632   1.743   3.587
  368SOL    HW2 1791   0.740   1.666   3.492
  369SOL     OW 1792   1.726   0.135   2.385
  369SOL    HW1 1793   1.799   0.118   2.318
  369SOL    HW2 1794   1.695   0.048   2.423
  370SOL     OW 1795   1.388   1.573   2.339
  370SOL    HW1 1796   1.455   1.585   2.265
  370SOL    HW2 1797   1.348   1.662   2.362
  371SOL     OW 1798   0.130   1.794   3.713
  371SOL    HW1 1799   0.089   1.720   3.766
  371SOL    HW2 1800   0.194   1.845   3.771
  372SOL     OW 1801   1.280   0.927   2.534
  372SOL    HW1 1802   1.340   0.846   2.536
  372SOL    HW2 1803   1.320   0.996   2.474
  373SOL     OW 1804   0.830   1.273   3.284
  373SOL    HW1 1805   0.825   1.306   3.379
  373SOL    HW2 1806   0.744   1.292   3.238
  374SOL     OW 1807   0.672   1.616   2.016
  374SOL    HW1 1808   0.681   1.626   1.917
  374SOL    HW2 1809   0.632   1.527   2.037
  375SOL     OW 1810   1.650   1.720   3.256
  375SOL    HW1 1811   1.703   1.730   3.172
  375SOL    HW2 1812   1.623   1.810   3.290
  376SOL     OW 1813   1.841   0.175   2.825
  376SOL    HW1 1814   1.880   0.090   2.789
  376SOL    HW2 1815   1.743   0.177   2.806
  377SOL     OW 1816   0.263   0.326   2.582
  377SOL    HW1 1817   0.184   0.377   2.548
  377SOL    HW2 1818   0.254   0.311   2.680
  378SOL     OW 1819   1.194   1.612   1.893
  378SOL    HW1 1820   1.200   1.519   1.930
  378SOL    HW2 1821   1.135   1.612   1.813
  379SOL     OW 1822   0.822   1.002   3.234
  379SOL    HW1 1823   0.862   1.001   3.142
  379SOL    HW2 1824   0.832   1.094   3.274
  380SOL     OW 1825   0.916   0.910   2.153
  380SOL    HW1 1826   0.979   0.948   2.085
  380SOL    HW2 1827   0.956   0.827   2.192
  381SOL     OW 1828   1.504   1.607   1.906
  381SOL    HW1 1829   1.412   1.644   1.913
  381SOL    HW2 1830   1.542   1.627   1.816
  382SOL     OW 1831   0.372   1.288   3.352
  382SOL    HW1 1832   0.359   1.381   3.318
  382SOL    HW2 1833   0.288   1.236   3.339
  383SOL     OW 1834   1.614   1.292   3.151
  383SOL    HW1 1835   1.674   1.295   3.231
  383SOL    HW2 1836   1.539   1.356   3.164
  384SOL     OW 1837   1.039   1.098   2.558
  384SOL    HW1 1838   0.969   1.051   2.612
  384SOL    HW2 1839   1.098   1.030   2.515
  385SOL     OW 1840   1.014   0.236   2.833
  385SOL    HW1 1841   1.006   0.200   2.740
  385SOL    HW2 1842   1.012   0.160   2.898
  386SOL     OW 1843   0.590   1.487   2.353
  386SOL    HW1 1844   0.632   1.429   2.283
  386SOL    HW2 1845   0.546   1.566   2.309
  387SOL     OW 1846   1.709   0.385   3.243
  387SOL    HW1 1847   1.782   0.454   3.247
  387SOL    HW2 1848   1.737   0.310   3.184
  388SOL     OW 1849   0.255   1.348   2.152
  388SOL    HW1 1850   0.159   1.349   2.125
  388SOL    HW2 1851   0.267   1.401   2.236
  389SOL     OW 1852   0.105   1.013   3.588
  389SOL    HW1 1853   0.028   0.980   3.642
  389SOL    HW2 1854   0.190   0.983   3.630
  390SOL     OW 1855   0.672   0.203   3.351
  390SOL    HW1 1856   0.762   0.187   3.311
  390SOL    HW2 1857   0.680   0.208   3.450
  391SOL     OW 1858   0.075   0.345   1.895
  391SOL    HW1 1859  -0.017   0.317   1.866
  391SOL    HW2 1860   0.106   0.422   1.839
  392SOL     OW 1861   1.440   0.856   3.260
  392SOL    HW1 1862   1.383   0.908   3.197
  392SOL    HW2 1863   1.536   0.868   3.236
  393SOL     OW 1864   0.072   0.166   2.180
  393SOL    HW1 1865   0.055   0.249   2.126
  393SOL    HW2 1866   0.162   0.129   2.158
  394SOL     OW 1867   1.183   1.335   1.981
  394SOL    HW1 1868   1.084   1.324   1.983
  394SOL    HW2 1869   1.217   1.350   2.074
  395SOL     OW 1870   0.613   0.842   3.293
  395SOL    HW1 1871   0.669   0.923   3.276
  395SOL    HW2 1872   0.672   0.762   3.296
  396SOL     OW 1873   1.493   1.767   2.821
  396SOL    HW1 1874   1.526   1.831   2.752
  396SOL    HW2 1875   1.559   1.761   2.896
  397SOL     OW 1876   0.716   0.565   3.570
  397SOL    HW1 1877   0.735   0.630   3.644
  397SOL    HW2 1878   0.776   0.485   3.579
  398SOL     OW 1879   1.450   1.220   3.495
  398SOL    HW1 1880   1.441   1.210   3.594
  398SOL    HW2 1881   1.546   1.213   3.469
  399SOL     OW 1882   0.390   1.741   3.422
  399SOL    HW1 1883   0.299   1.782   3.420
  399SOL    HW2 1884   0.383   1.647   3.454
  400SOL     OW 1885   1.674   0.883   3.116
  400SOL    HW1 1886   1.647   0.794   3.079
  400SOL    HW2 1887   1.675   0.951   3.043
  401SOL     OW 1888   1.225   0.325   2.311
  401SOL    HW1 1889   1.290   0.251   2.300
  401SOL    HW2 1890   1.245   0.375   2.395
  402SOL     OW 1891   0.594   0.745   2.514
  402SOL    HW1 1892   0.644   0.830   2.495
  402SOL    HW2 1893   0.506   0.747   2.466
  403SOL     OW 1894   1.777   0.342   3.504
  403SOL    HW1 1895   1.760   0.373   3.410
  403SOL    HW2 1896   1.693   0.305   3.542
  404SOL     OW 1897   1.730   0.934   3.379
  404SOL    HW1 1898   1.768   1.025   3.394
  404SOL    HW2 1899   1.722   0.917   3.280
  405SOL     OW 1900   0.859   1.374   1.878
  405SOL    HW1 1901   0.813   1.389   1.966
  405SOL    HW2 1902   0.903   1.459   1.848
  406SOL     OW 1903   0.661   1.790   2.815
  406SOL    HW1 1904   0.615   1.878   2.802
  406SOL    HW2 1905   0.760   1.802   2.808
  407SOL     OW 1906   0.859   0.956   2.723
  407SOL    HW1 1907   0.913   0.887   2.771
  407SOL    HW2 1908   0.827   1.025   2.789
  408SOL     OW 1909   1.083   0.984   1.949
  408SOL    HW1 1910   1.060   1.037   1.867
  408SOL    HW2 1911   1.164   0.928   1.930
  409SOL     OW 1912   1.861   1.569   2.713
  409SOL    HW1 1913   1.790   1.557   2.643
  409SOL    HW2 1914   1.862   1.490   2.773
  410SOL     OW 1915   0.221   1.314   3.706
  410SOL    HW1 1916   0.156   1.241   3.685
  410SOL    HW2 1917   0.225   1.328   3.804
  411SOL     OW 1918   0.079   1.240   2.515
  411SOL    HW1 1919   0.078   1.193   2.603
  411SOL    HW2 1920   0.161   1.212   2.464
  412SOL     OW 1921   0.672   1.391   3.486
  412SOL    HW1 1922   0.594   1.341   3.524
  412SOL    HW2 1923   0.669   1.486   3.517
  413SOL     OW 1924   1.824   0.192   3.089
  413SOL    HW1 1925   1.820   0.102   3.133
  413SOL    HW2 1926   1.827   0.181   2.990
  414SOL     OW 1927   0.428   0.424   2.382
  414SOL    HW1 1928   0.458   0.352   2.320
  414SOL    HW2 1929   0.389   0.384   2.465
  415SOL     OW 1930   1.705   1.487   2.966
  415SOL    HW1 1931   1.612   1.462   2.939
  415SOL    HW2 1932   1.731   1.437   3.048
  416SOL     OW 1933   0.317   0.547   3.142
  416SOL    HW1 1934   0.355   0.488   3.214
  416SOL    HW2 1935   0.357   0.521   3.054
  417SOL     OW 1936   0.812   1.586   2.549
  417SOL    HW1 1937   0.844   1.596   2.455
  417SOL    HW2 1938   0.733   1.524   2.551
  418SOL     OW 1939   1.424   0.214   2.974
  418SOL    HW1 1940   1.476   0.149   3.029
  418SOL    HW2 1941   1.375   0.277   3.035
  419SOL     OW 1942   1.001   0.034   3.016
  419SOL    HW1 1943   0.938  -0.038   2.985
  419SOL    HW2 1944   1.094  -0.002   3.016
  420SOL     OW 1945   0.770   1.330   2.163
  420SOL    HW1 1946   0.724   1.243   2.180
  420SOL    HW2 1947   0.861   1.327   2.204
  421SOL     OW 1948   0.618   1.567   3.146
  421SOL    HW1 1949   0.613   1.649   3.203
  421SOL    HW2 1950   0.707   1.564   3.101
  422SOL     OW 1951   1.352   0.052   2.030
  422SOL    HW1 1952   1.387   0.011   1.946
  422SOL    HW2 1953   1.262   0.014   2.050
  423SOL     OW 1954   1.300   0.453   2.553
  423SOL    HW1 1955   1.241   0.533   2.557
  423SOL    HW2 1956   1.315   0.418   2.646
  424SOL     OW 1957   1.593   0.221   2.744
  424SOL    HW1 1958   1.509   0.220   2.798
  424SOL    HW2 1959   1.595   0.304   2.688
  425SOL     OW 1960   0.039   1.077   2.162
  425SOL    HW1 1961   0.138   1.066   2.153
  425SOL    HW2 1962  -0.001   0.991   2.194
  426SOL     OW 1963   0.875   1.646   2.199
  426SOL    HW1 1964   0.798   1.611   2.145
  426SOL    HW2 1965   0.843   1.717   2.261
  427SOL     OW 1966   0.230   0.628   3.837
  427SOL    HW1 1967   0.137   0.626   3.874
  427SOL    HW2 1968   0.231   0.589   3.745
  428SOL     OW 1969   0.225   0.275   4.720
  428SOL    HW1 1970   0.260   0.258   4.812
  428SOL    HW2 1971   0.137   0.230   4.708
  429SOL     OW 1972   0.019   0.368   4.371
  429SOL    HW1 1973  -0.063   0.411   4.410
  429SOL    HW2 1974  -0.009   0.295   4.308
  430SOL     OW 1975   0.569   1.275   4.889
  430SOL    HW1 1976   0.476   1.268   4.852
  430SOL    HW2 1977   0.580   1.364   4.933
  431SOL     OW 1978   1.555   1.511   4.427
  431SOL    HW1 1979   1.498   1.495   4.508
  431SOL    HW2 1980   1.496   1.521   4.347
  432SOL     OW 1981   1.135   0.703   4.441
  432SOL    HW1 1982   1.192   0.781   4.416
  432SOL    HW2 1983   1.075   0.729   4.517
  433SOL     OW 1984   1.755   0.607   3.955
  433SOL    HW1 1985   1.743   0.594   3.856
  433SOL    HW2 1986   1.725   0.526   4.004
  434SOL     OW 1987   0.768   1.144   4.747
  434SOL    HW1 1988   0.690   1.161   4.807
  434SOL    HW2 1989   0.802   1.231   4.711
  435SOL     OW 1990   0.850   0.798   5.547
  435SOL    HW1 1991   0.846   0.874   5.612
  435SOL    HW2 1992   0.872   0.834   5.456
  436SOL     OW 1993   0.685   1.012   4.389
  436SOL    HW1 1994   0.754   0.996   4.459
  436SOL    HW2 1995   0.612   1.069   4.427
  437SOL     OW 1996   0.686   1.161   5.527
  437SOL    HW1 1997   0.746   1.240   5.541
  437SOL    HW2 1998   0.600   1.192   5.486
  438SOL     OW 1999   0.335   1.435   4.785
  438SOL    HW1 2000   0.257   1.404   4.732
  438SOL    HW2 2001   0.393   1.493   4.728
  439SOL     OW 2002   0.438   0.392   5.223
  439SOL    HW1 2003   0.520   0.336   5.232
  439SOL    HW2 2004   0.357   0.334   5.227
  440SOL     OW 2005   1.603   0.447   4.461
  440SOL    HW1 2006   1.529   0.493   4.411
  440SOL    HW2 2007   1.654   0.515   4.514
  441SOL     OW 2008   0.231   1.713   4.207
  441SOL    HW1 2009   0.265   1.790   4.261
  441SOL    HW2 2010   0.275   1.713   4.117
  442SOL     OW 2011   1.127   1.341   5.414
  442SOL    HW1 2012   1.174   1.341   5.502
  442SOL    HW2 2013   1.079   1.254   5.403
  443SOL     OW 2014   0.230   1.434   4.262
  443SOL    HW1 2015   0.204   1.530   4.262
  443SOL    HW2 2016   0.159   1.380   4.307
  444SOL     OW 2017   0.240   1.091   4.610
  444SOL    HW1 2018   0.254   1.007   4.662
  444SOL    HW2 2019   0.185   1.155   4.665
  445SOL     OW 2020   0.620   1.786   5.163
  445SOL    HW1 2021   0.528   1.769   5.198
  445SOL    HW2 2022   0.648   1.878   5.189
  446SOL     OW 2023   0.606   0.964   3.847
  446SOL    HW1 2024   0.613   1.048   3.793
  446SOL    HW2 2025   0.652   0.977   3.935
  447SOL     OW 2026   1.594   0.114   5.204
  447SOL    HW1 2027   1.576   0.181   5.132
  447SOL    HW2 2028   1.591   0.160   5.293
  448SOL     OW 2029   0.122   0.643   4.287
  448SOL    HW1 2030   0.077   0.555   4.304
  448SOL    HW2 2031   0.121   0.697   4.371
  449SOL     OW 2032   1.842   1.767   4.083
  449SOL    HW1 2033   1.896   1.738   4.163
  449SOL    HW2 2034   1.872   1.857   4.054
  450SOL     OW 2035   0.027   1.596   3.841
  450SOL    HW1 2036   0.008   1.500   3.862
  450SOL    HW2 2037  -0.006   1.654   3.916
  451SOL     OW 2038   1.689   0.922   4.336
  451SOL    HW1 2039   1.784   0.893   4.344
  451SOL    HW2 2040   1.681   0.987   4.261
  452SOL     OW 2041   1.641   1.108   4.156
  452SOL    HW1 2042   1.727   1.110   4.104
  452SOL    HW2 2043   1.655   1.155   4.244
  453SOL     OW 2044   0.113   0.737   5.321
  453SOL    HW1 2045   0.201   0.724   5.366
  453SOL    HW2 2046   0.100   0.834   5.299
  454SOL     OW 2047   0.613   1.365   4.450
  454SOL    HW1 2048   0.564   1.278   4.459
  454SOL    HW2 2049   0.590   1.408   4.363
  455SOL     OW 2050   1.293   1.228   5.147
  455SOL    HW1 2051   1.330   1.155   5.089
  455SOL    HW2 2052   1.345   1.233   5.232
  456SOL     OW 2053   0.809   0.004   4.226
  456SOL    HW1 2054   0.849   0.095   4.217
  456SOL    HW2 2055   0.709   0.012   4.232
  457SOL     OW 2056   0.197   0.976   4.988
  457SOL    HW1 2057   0.286   0.931   4.974
  457SOL    HW2 2058   0.124   0.911   4.969
  458SOL     OW 2059   1.525   0.999   3.914
  458SOL    HW1 2060   1.462   0.923   3.927
  458SOL    HW2 2061   1.573   1.017   4.000
  459SOL     OW 2062   1.187   1.792   5.340
  459SOL    HW1 2063   1.211   1.852   5.264
  459SOL    HW2 2064   1.194   1.697   5.310
  460SOL     OW 2065   0.317   0.251   5.525
  460SOL    HW1 2066   0.388   0.322   5.531
  460SOL    HW2 2067   0.229   0.290   5.553
  461SOL     OW 2068   1.466   1.417   4.677
  461SOL    HW1 2069   1.407   1.423   4.757
  461SOL    HW2 2070   1.451   1.329   4.631
  462SOL     OW 2071   1.667   1.714   4.296
  462SOL    HW1 2072   1.626   1.691   4.208
  462SOL    HW2 2073   1.649   1.640   4.361
  463SOL     OW 2074   0.598   0.729   3.994
  463SOL    HW1 2075   0.622   0.798   3.926
  463SOL    HW2 2076   0.520   0.762   4.048
  464SOL     OW 2077   1.281   0.345   4.668
  464SOL    HW1 2078   1.195   0.295   4.655
  464SOL    HW2 2079   1.343   0.291   4.724
  465SOL     OW 2080   1.576   1.662   4.031
  465SOL    HW1 2081   1.665   1.708   4.034
  465SOL    HW2 2082   1.555   1.638   3.936
  466SOL     OW 2083   0.807   0.605   5.189
  466SOL    HW1 2084   0.760   0.602   5.278
  466SOL    HW2 2085   0.756   0.550   5.123
  467SOL     OW 2086   1.394   0.469   5.398
  467SOL    HW1 2087   1.374   0.512   5.486
  467SOL    HW2 2088   1.472   0.407   5.407
  468SOL     OW 2089   0.973   0.890   5.296
  468SOL    HW1 2090   1.019   0.806   5.267
  468SOL    HW2 2091   0.917   0.924   5.221
  469SOL     OW 2092   0.991   0.410   4.966
  469SOL    HW1 2093   0.914   0.444   5.020
  469SOL    HW2 2094   0.957   0.359   4.887
  470SOL     OW 2095   1.041   0.701   4.153
  470SOL    HW1 2096   1.067   0.697   4.249
  470SOL    HW2 2097   0.956   0.650   4.139
  471SOL     OW 2098   0.076   0.811   4.513
  471SOL    HW1 2099   0.175   0.799   4.522
  471SOL    HW2 2100   0.052   0.906   4.534
  472SOL     OW 2101   0.130   1.821   5.295
  472SOL    HW1 2102   0.120   1.806   5.394
  472SOL    HW2 2103   0.044   1.857   5.259
  473SOL     OW 2104   0.865   0.348   3.919
  473SOL    HW1 2105   0.924   0.411   3.870
  473SOL    HW2 2106   0.884   0.254   3.890
  474SOL     OW 2107   1.719   0.585   5.555
  474SOL    HW1 2108   1.693   0.674   5.519
  474SOL    HW2 2109   1.717   0.517   5.482
  475SOL     OW 2110   1.362   1.144   4.269
  475SOL    HW1 2111   1.445   1.115   4.221
  475SOL    HW2 2112   1.313   1.211   4.213
  476SOL     OW 2113   0.550   0.196   4.609
  476SOL    HW1 2114   0.545   0.191   4.709
  476SOL    HW2 2115   0.552   0.292   4.580
  477SOL     OW 2116   1.008   1.456   4.201
  477SOL    HW1 2117   0.962   1.528   4.149
  477SOL    HW2 2118   1.004   1.476   4.299
  478SOL     OW 2119   0.351   1.801   4.577
  478SOL    HW1 2120   0.401   1.715   4.583
  478SOL    HW2 2121   0.416   1.878   4.574
  479SOL     OW 2122   1.795   1.066   4.597
  479SOL    HW1 2123   1.733   1.051   4.521
  479SOL    HW2 2124   1.743   1.077   4.682
  480SOL     OW 2125   1.227   1.550   5.230
  480SOL    HW1 2126   1.233   1.473   5.294
  480SOL    HW2 2127   1.175   1.524   5.150
  481SOL     OW 2128   0.321   0.943   3.966
  481SOL    HW1 2129   0.403   0.982   3.924
  481SOL    HW2 2130   0.294   0.861   3.917
  482SOL     OW 2131   1.458   0.735   4.452
  482SOL    HW1 2132   1.453   0.670   4.527
  482SOL    HW2 2133   1.538   0.794   4.465
  483SOL     OW 2134   0.461   1.266   5.451
  483SOL    HW1 2135   0.411   1.267   5.365
  483SOL    HW2 2136   0.398   1.248   5.527
  484SOL     OW 2137   1.111   1.776   3.961
  484SOL    HW1 2138   1.051   1.714   4.011
  484SOL    HW2 2139   1.142   1.732   3.876
  485SOL     OW 2140   0.202   0.285   5.222
  485SOL    HW1 2141   0.122   0.345   5.209
  485SOL    HW2 2142   0.192   0.236   5.308
  486SOL     OW 2143   1.632   1.377   3.805
  486SOL    HW1 2144   1.600   1.471   3.795
  486SOL    HW2 2145   1.556   1.314   3.793
  487SOL     OW 2146   0.464   1.743   4.047
  487SOL    HW1 2147   0.497   1.782   4.133
  487SOL    HW2 2148   0.540   1.736   3.982
  488SOL     OW 2149   1.400   0.107   4.150
  488SOL    HW1 2150   1.376   0.070   4.060
  488SOL    HW2 2151   1.499   0.123   4.154
  489SOL     OW 2152   0.249   1.785   4.965
  489SOL    HW1 2153   0.306   1.720   5.015
  489SOL    HW2 2154   0.233   1.752   4.872
  490SOL     OW 2155   0.940   1.698   4.628
  490SOL    HW1 2156   1.020   1.641   4.649
  490SOL    HW2 2157   0.891   1.658   4.551
  491SOL     OW 2158   0.382   0.700   4.204
  491SOL    HW1 2159   0.427   0.610   4.201
  491SOL    HW2 2160   0.288   0.689   4.237
  492SOL     OW 2161   1.547   0.222   5.453
  492SOL    HW1 2162   1.542   0.259   5.545
  492SOL    HW2 2163   1.475   0.153   5.441
  493SOL     OW 2164   0.614   0.122   3.841
  493SOL    HW1 2165   0.712   0.100   3.848
  493SOL    HW2 2166   0.583   0.105   3.748
  494SOL     OW 2167   0.781   0.264   5.473
  494SOL    HW1 2168   0.848   0.203   5.516
  494SOL    HW2 2169   0.708   0.283   5.538
  495SOL     OW 2170   0.888   1.514   4.919
  495SOL    HW1 2171   0.865   1.489   4.825
  495SOL    HW2 2172   0.949   1.445   4.958
  496SOL     OW 2173   1.351   0.590   5.157
  496SOL    HW1 2174   1.379   0.547   5.242
  496SOL    HW2 2175   1.376   0.686   5.158
  497SOL     OW 2176   0.803   1.402   4.648
  497SOL    HW1 2177   0.893   1.416   4.606
  497SOL    HW2 2178   0.732   1.404   4.577
  498SOL     OW 2179   0.922   0.503   4.623
  498SOL    HW1 2180   0.897   0.494   4.527
  498SOL    HW2 2181   0.970   0.421   4.654
  499SOL     OW 2182   0.539   0.064   4.236
  499SOL    HW1 2183   0.458   0.065   4.294
  499SOL    HW2 2184   0.542   0.147   4.181
  500SOL     OW 2185   1.434   1.188   3.765
  500SOL    HW1 2186   1.466   1.112   3.822
  500SOL    HW2 2187   1.342   1.215   3.795
  501SOL     OW 2188   0.297   0.035   3.895
  501SOL    HW1 2189   0.346   0.119   3.874
  501SOL    HW2 2190   0.359  -0.030   3.940
  502SOL     OW 2191   0.935   0.236   4.204
  502SOL    HW1 2192   0.887   0.277   4.126
  502SOL    HW2 2193   1.034   0.234   4.185
  503SOL     OW 2194   1.076   0.683   5.188
  503SOL    HW1 2195   0.996   0.622   5.191
  503SOL    HW2 2196   1.157   0.630   5.164
  504SOL     OW 2197   1.227   1.570   4.517
  504SOL    HW1 2198   1.248   1.644   4.452
  504SOL    HW2 2199   1.295   1.570   4.590
  505SOL     OW 2200   0.459   1.152   4.465
  505SOL    HW1 2201   0.388   1.125   4.530
  505SOL    HW2 2202   0.433   1.124   4.372
  506SOL     OW 2203   1.271   1.797   4.315
  506SOL    HW1 2204   1.315   1.861   4.251
  506SOL    HW2 2205   1.221   1.849   4.385
  507SOL     OW 2206   1.032   0.549   3.740
  507SOL    HW1 2207   0.991   0.631   3.701
  507SOL    HW2 2208   1.096   0.575   3.813
  508SOL     OW 2209   0.078   0.556   5.110
  508SOL    HW1 2210   0.170   0.555   5.069
  508SOL    HW2 2211   0.072   0.630   5.177
  509SOL     OW 2212   0.561   0.222   4.871
  509SOL    HW1 2213   0.599   0.138   4.908
  509SOL    HW2 2214   0.473   0.241   4.915
  510SOL     OW 2215   0.866   0.454   4.366
  510SOL    HW1 2216   0.834   0.526   4.304
  510SOL    HW2 2217   0.890   0.373   4.313
  511SOL     OW 2218   1.017   0.039   4.477
  511SOL    HW1 2219   0.945   0.044   4.408
  511SOL    HW2 2220   0.993  -0.030   4.546
  512SOL     OW 2221   1.429   1.173   4.591
  512SOL    HW1 2222   1.374   1.089   4.584
  512SOL    HW2 2223   1.455   1.202   4.499
  513SOL     OW 2224   1.466   0.590   4.716
  513SOL    HW1 2225   1.436   0.495   4.723
  513SOL    HW2 2226   1.539   0.606   4.782
  514SOL     OW 2227   1.857   0.833   4.101
  514SOL    HW1 2228   1.899   0.769   4.165
  514SOL    HW2 2229   1.819   0.782   4.023
  515SOL     OW 2230   0.488   1.385   3.898
  515SOL    HW1 2231   0.401   1.370   3.945
  515SOL    HW2 2232   0.471   1.411   3.803
  516SOL     OW 2233   1.664   1.280   4.381
  516SOL    HW1 2234   1.763   1.288   4.395
  516SOL    HW2 2235   1.619   1.364   4.412
  517SOL     OW 2236   1.390   0.575   3.802
  517SOL    HW1 2237   1.336   0.554   3.883
  517SOL    HW2 2238   1.481   0.534   3.811
  518SOL     OW 2239   0.527   0.256   4.052
  518SOL    HW1 2240   0.554   0.197   3.977
  518SOL    HW2 2241   0.527   0.351   4.021
  519SOL     OW 2242   1.754   1.223   5.312
  519SOL    HW1 2243   1.845   1.184   5.299
  519SOL    HW2 2244   1.762   1.319   5.336
  520SOL     OW 2245   1.064   1.347   5.064
  520SOL    HW1 2246   0.984   1.324   5.119
  520SOL    HW2 2247   1.147   1.321   5.113
  521SOL     OW 2248   1.592   1.629   5.349
  521SOL    HW1 2249   1.619   1.663   5.259
  521SOL    HW2 2250   1.671   1.591   5.395
  522SOL     OW 2251   1.111   1.195   4.824
  522SOL    HW1 2252   1.071   1.239   4.905
  522SOL    HW2 2253   1.070   1.232   4.741
  523SOL     OW 2254   1.638   1.099   4.803
  523SOL    HW1 2255   1.643   1.180   4.862
  523SOL    HW2 2256   1.552   1.101   4.752
  524SOL     OW 2257   0.915   0.089   5.126
  524SOL    HW1 2258   0.940   0.069   5.031
  524SOL    HW2 2259   0.987   0.145   5.168
  525SOL     OW 2260   0.980   1.116   5.443
  525SOL    HW1 2261   0.881   1.122   5.453
  525SOL    HW2 2262   1.003   1.036   5.387
  526SOL     OW 2263   0.705   1.050   4.092
  526SOL    HW1 2264   0.691   1.057   4.191
  526SOL    HW2 2265   0.789   0.999   4.074
  527SOL     OW 2266   0.410   0.813   4.975
  527SOL    HW1 2267   0.496   0.825   5.025
  527SOL    HW2 2268   0.368   0.726   5.002
  528SOL     OW 2269   1.274   0.386   4.986
  528SOL    HW1 2270   1.295   0.460   5.050
  528SOL    HW2 2271   1.185   0.403   4.943
  529SOL     OW 2272   0.064   1.564   5.055
  529SOL    HW1 2273   0.018   1.646   5.021
  529SOL    HW2 2274   0.162   1.583   5.064
  530SOL     OW 2275   0.367   1.100   4.225
  530SOL    HW1 2276   0.360   1.183   4.169
  530SOL    HW2 2277   0.371   1.020   4.165
  531SOL     OW 2278   0.566   0.537   4.589
  531SOL    HW1 2279   0.578   0.603   4.515
  531SOL    HW2 2280   0.612   0.571   4.672
  532SOL     OW 2281   1.252   1.348   4.112
  532SOL    HW1 2282   1.302   1.425   4.152
  532SOL    HW2 2283   1.157   1.350   4.144
  533SOL     OW 2284   1.272   1.445   4.866
  533SOL    HW1 2285   1.319   1.458   4.953
  533SOL    HW2 2286   1.206   1.371   4.875
  534SOL     OW 2287   1.582   0.639   4.196
  534SOL    HW1 2288   1.551   0.700   4.269
  534SOL    HW2 2289   1.632   0.691   4.127
  535SOL     OW 2290   0.354   1.510   5.053
  535SOL    HW1 2291   0.333   1.466   4.966
  535SOL    HW2 2292   0.451   1.536   5.056
  536SOL     OW 2293   0.402   0.751   5.322
  536SOL    HW1 2294   0.470   0.806   5.275
  536SOL    HW2 2295   0.442   0.663   5.349
  537SOL     OW 2296   1.587   0.779   5.394
  537SOL    HW1 2297   1.495   0.817   5.389
  537SOL    HW2 2298   1.647   0.826   5.329
  538SOL     OW 2299   1.013   0.105   5.494
  538SOL    HW1 2300   1.019   0.190   5.442
  538SOL    HW2 2301   1.045   0.029   5.437
  539SOL     OW 2302   0.504   0.050   5.464
  539SOL    HW1 2303   0.462  -0.007   5.394
  539SOL    HW2 2304   0.438   0.119   5.496
  540SOL     OW 2305   0.573   0.870   4.753
  540SOL    HW1 2306   0.617   0.959   4.744
  540SOL    HW2 2307   0.510   0.870   4.830
  541SOL     OW 2308   1.360   0.862   4.769
  541SOL    HW1 2309   1.285   0.862   4.703
  541SOL    HW2 2310   1.397   0.770   4.778
  542SOL     OW 2311   1.209   0.525   3.999
  542SOL    HW1 2312   1.222   0.441   4.053
  542SOL    HW2 2313   1.180   0.599   4.059
  543SOL     OW 2314   0.307   0.213   4.955
  543SOL    HW1 2315   0.284   0.250   5.045
  543SOL    HW2 2316   0.277   0.118   4.949
  544SOL     OW 2317   0.037   1.310   5.006
  544SOL    HW1 2318   0.090   1.261   5.074
  544SOL    HW2 2319   0.059   1.408   5.011
  545SOL     OW 2320   0.732   0.634   4.788
  545SOL    HW1 2321   0.791   0.608   4.712
  545SOL    HW2 2322   0.704   0.730   4.777
  546SOL     OW 2323   1.728   0.935   5.578
  546SOL    HW1 2324   1.682   0.928   5.489
  546SOL    HW2 2325   1.666   0.979   5.644
  547SOL     OW 2326   0.307   0.063   4.342
  547SOL    HW1 2327   0.296   0.157   4.375
  547SOL    HW2 2328   0.302   0.000   4.419
  548SOL     OW 2329   1.622   0.367   4.098
  548SOL    HW1 2330   1.624   0.291   4.162
  548SOL    HW2 2331   1.574   0.444   4.138
  549SOL     OW 2332   1.023   0.766   4.690
  549SOL    HW1 2333   1.038   0.787   4.786
  549SOL    HW2 2334   0.993   0.671   4.681
  550SOL     OW 2335   0.980   1.573   5.424
  550SOL    HW1 2336   0.960   1.617   5.336
  550SOL    HW2 2337   1.019   1.482   5.408
  551SOL     OW 2338   0.350   0.898   5.528
  551SOL    HW1 2339   0.426   0.942   5.576
  551SOL    HW2 2340   0.385   0.851   5.446
  552SOL     OW 2341   1.540   0.274   3.849
  552SOL    HW1 2342   1.479   0.199   3.872
  552SOL    HW2 2343   1.562   0.326   3.932
  553SOL     OW 2344   1.303   0.838   3.766
  553SOL    HW1 2345   1.337   0.745   3.781
  553SOL    HW2 2346   1.321   0.865   3.671
  554SOL     OW 2347   1.068   1.333   4.573
  554SOL    HW1 2348   1.075   1.249   4.518
  554SOL    HW2 2349   1.130   1.402   4.537
  555SOL     OW 2350   0.319   0.810   4.673
  555SOL    HW1 2351   0.412   0.846   4.678
  555SOL    HW2 2352   0.313   0.725   4.725
  556SOL     OW 2353   0.339   0.509   4.730
  556SOL    HW1 2354   0.287   0.426   4.713
  556SOL    HW2 2355   0.416   0.514   4.666
  557SOL     OW 2356   1.138   0.380   5.402
  557SOL    HW1 2357   1.093   0.443   5.466
  557SOL    HW2 2358   1.231   0.411   5.385
  558SOL     OW 2359   1.160   0.207   5.201
  558SOL    HW1 2360   1.160   0.271   5.278
  558SOL    HW2 2361   1.188   0.255   5.118
  559SOL     OW 2362   0.008   1.326   3.924
  559SOL    HW1 2363  -0.085   1.347   3.893
  559SOL    HW2 2364   0.018   1.227   3.937
  560SOL     OW 2365   0.088   1.801   4.651
  560SOL    HW1 2366   0.046   1.715   4.624
  560SOL    HW2 2367   0.182   1.804   4.617
  561SOL     OW 2368   0.504   1.568   4.634
  561SOL    HW1 2369   0.570   1.642   4.643
  561SOL    HW2 2370   0.548   1.489   4.592
  562SOL     OW 2371   1.002   0.796   4.962
  562SOL    HW1 2372   1.043   0.764   5.048
  562SOL    HW2 2373   0.906   0.769   4.959
  563SOL     OW 2374   0.040   0.544   4.838
  563SOL    HW1 2375   0.125   0.511   4.797
  563SOL    HW2 2376   0.053   0.559   4.936
  564SOL     OW 2377   0.189   0.520   5.446
  564SOL    HW1 2378   0.248   0.480   5.376
  564SOL    HW2 2379   0.131   0.591   5.405
  565SOL     OW 2380   1.369   0.950   5.384
  565SOL    HW1 2381   1.408   1.039   5.404
  565SOL    HW2 2382   1.379   0.930   5.287
  566SOL     OW 2383   0.815   0.572   4.049
  566SOL    HW1 2384   0.822   0.483   4.003
  566SOL    HW2 2385   0.721   0.606   4.041
  567SOL     OW 2386   1.657   0.604   4.930
  567SOL    HW1 2387   1.619   0.535   4.992
  567SOL    HW2 2388   1.739   0.568   4.886
  568SOL     OW 2389   0.252   1.564   5.468
  568SOL    HW1 2390   0.222   1.621   5.544
  568SOL    HW2 2391   0.245   1.467   5.494
  569SOL     OW 2392   0.671   0.464   4.993
  569SOL    HW1 2393   0.637   0.375   4.963
  569SOL    HW2 2394   0.697   0.518   4.913
  570SOL     OW 2395   0.930   1.678   5.189
  570SOL    HW1 2396   0.906   1.660   5.094
  570SOL    HW2 2397   0.960   1.772   5.199
  571SOL     OW 2398   0.473   0.500   3.915
  571SOL    HW1 2399   0.534   0.580   3.919
  571SOL    HW2 2400   0.378   0.531   3.922
  572SOL     OW 2401   0.159   1.137   5.190
  572SOL    HW1 2402   0.181   1.076   5.266
  572SOL    HW2 2403   0.169   1.088   5.104
  573SOL     OW 2404   1.347   1.059   4.958
  573SOL    HW1 2405   1.371   0.996   4.884
  573SOL    HW2 2406   1.257   1.099   4.940
  574SOL     OW 2407   1.302   0.855   4.033
  574SOL    HW1 2408   1.216   0.824   4.075
  574SOL    HW2 2409   1.298   0.841   3.934
  575SOL     OW 2410   1.252   1.731   4.852
  575SOL    HW1 2411   1.336   1.736   4.798
  575SOL    HW2 2412   1.229   1.635   4.870
  576SOL     OW 2413   0.083   1.258   4.746
  576SOL    HW1 2414   0.078   1.257   4.846
  576SOL    HW2 2415   0.000   1.217   4.708
  577SOL     OW 2416   0.688   1.662   5.440
  577SOL    HW1 2417   0.632   1.743   5.449
  577SOL    HW2 2418   0.740   1.666   5.354
  578SOL     OW 2419   1.726   0.135   4.247
  578SOL    HW1 2420   1.799   0.118   4.180
  578SOL    HW2 2421   1.695   0.048   4.285
  579SOL     OW 2422   1.388   1.573   4.201
  579SOL    HW1 2423   1.455   1.585   4.127
  579SOL    HW2 2424   1.348   1.662   4.224
  580SOL     OW 2425   0.130   1.794   5.575
  580SOL    HW1 2426   0.089   1.720   5.628
  580SOL    HW2 2427   0.194   1.845   5.633
  581SOL     OW 2428   1.280   0.927   4.396
  581SOL    HW1 2429   1.340   0.846   4.398
  581SOL    HW2 2430   1.320   0.996   4.336
  582SOL     OW 2431   0.830   1.273   5.146
  582SOL    HW1 2432   0.825   1.306   5.241
  582SOL    HW2 2433   0.744   1.292   5.100
  583SOL     OW 2434   0.672   1.616   3.878
  583SOL    HW1 2435   0.681   1.626   3.779
  583SOL    HW2 2436   0.632   1.527   3.899
  584SOL     OW 2437   1.841   0.175   4.687
  584SOL    HW1 2438   1.880   0.090   4.651
  584SOL    HW2 2439   1.743   0.177   4.668
  585SOL     OW 2440   0.263   0.326   4.444
  585SOL    HW1 2441   0.184   0.377   4.410
  585SOL    HW2 2442   0.254   0.311   4.542
  586SOL     OW 2443   1.194   1.612   3.755
  586SOL    HW1 2444   1.200   1.519   3.792
  586SOL    HW2 2445   1.135   1.612   3.675
  587SOL     OW 2446   0.822   1.002   5.096
  587SOL    HW1 2447   0.862   1.001   5.004
  587SOL    HW2 2448   0.832   1.094   5.136
  588SOL     OW 2449   0.916   0.910   4.015
  588SOL    HW1 2450   0.979   0.948   3.947
  588SOL    HW2 2451   0.956   0.827   4.054
  589SOL     OW 2452   1.504   1.607   3.768
  589SOL    HW1 2453   1.412   1.644   3.775
  589SOL    HW2 2454   1.542   1.627   3.678
  590SOL     OW 2455   0.372   1.288   5.214
  590SOL    HW1 2456   0.359   1.381   5.180
  590SOL    HW2 2457   0.288   1.236   5.201
  591SOL     OW 2458   1.614   1.292   5.013
  591SOL    HW1 2459   1.674   1.295   5.093
  591SOL    HW2 2460   1.539   1.356   5.026
  592SOL     OW 2461   1.039   1.098   4.420
  592SOL    HW1 2462   0.969   1.051   4.474
  592SOL    HW2 2463   1.098   1.030   4.377
  593SOL     OW 2464   1.014   0.236   4.695
  593SOL    HW1 2465   1.006   0.200   4.602
  593SOL    HW2 2466   1.012   0.160   4.760
  594SOL     OW 2467   0.590   1.487   4.215
  594SOL    HW1 2468   0.632   1.429   4.145
  594SOL    HW2 2469   0.546   1.566   4.171
  595SOL     OW 2470   1.709   0.385   5.105
  595SOL    HW1 2471   1.782   0.454   5.109
  595SOL    HW2 2472   1.737   0.310   5.046
  596SOL     OW 2473   0.255   1.348   4.014
  596SOL    HW1 2474   0.159   1.349   3.987
  596SOL    HW2 2475   0.267   1.401   4.098
  597SOL     OW 2476   0.105   1.013   5.450
  597SOL    HW1 2477   0.028   0.980   5.504
  597SOL    HW2 2478   0.190   0.983   5.492
  598SOL     OW 2479   0.672   0.203   5.213
  598SOL    HW1 2480   0.762   0.187   5.173
  598SOL    HW2 2481   0.680   0.208   5.312
  599SOL     OW 2482   0.075   0.345   3.757
  599SOL    HW1 2483  -0.017   0.317   3.728
  599SOL    HW2 2484   0.106   0.422   3.701
  600SOL     OW 2485   1.440   0.856   5.122
  600SOL    HW1 2486   1.383   0.908   5.059
  600SOL    HW2 2487   1.536   0.868   5.098
  601SOL     OW 2488   0.072   0.166   4.042
  601SOL    HW1 2489   0.055   0.249   3.988
  601SOL    HW2 2490   0.162   0.129   4.020
  602SOL     OW 2491   1.183   1.335   3.843
  602SOL    HW1 2492   1.084   1.324   3.845
  602SOL    HW2 2493   1.217   1.350   3.936
  603SOL     OW 2494   0.613   0.842   5.155
  603SOL    HW1 2495   0.669   0.923   5.138
  603SOL    HW2 2496   0.672   0.762   5.158
  604SOL     OW 2497   1.493   1.767   4.683
  604SOL    HW1 2498   1.526   1.831   4.614
  604SOL    HW2 2499   1.559   1.761   4.758
  605SOL     OW 2500   0.716   0.565   5.432
  605SOL    HW1 2501   0.735   0.630   5.506
  605SOL    HW2 2502   0.776   0.485   5.441
  606SOL     OW 2503   1.450   1.220   5.357
  606SOL    HW1 2504   1.441   1.210   5.456
  606SOL    HW2 2505   1.546   1.213   5.331
  607SOL     OW 2506   0.390   1.741   5.284
  607SOL    HW1 2507   0.299   1.782   5.282
  607SOL    HW2 2508   0.383   1.647   5.316
  608SOL     OW 2509   1.674   0.883   4.978
  608SOL    HW1 2510   1.647   0.794   4.941
  608SOL    HW2 2511   1.675   0.951   4.905
  609SOL     OW 2512   1.225   0.325   4.173
  609SOL    HW1 2513   1.290   0.251   4.162
  609SOL    HW2 2514   1.245   0.375   4.257
  610SOL     OW 2515   0.594   0.745   4.376
  610SOL    HW1 2516   0.644   0.830   4.357
  610SOL    HW2 2517   0.506   0.747   4.328
  611SOL     OW 2518   1.777   0.342   5.366
  611SOL    HW1 2519   1.760   0.373   5.272
  611SOL    HW2 2520   1.693   0.305   5.404
  612SOL     OW 2521   1.730   0.934   5.241
  612SOL    HW1 2522   1.768   1.025   5.256
  612SOL    HW2 2523   1.722   0.917   5.142
  613SOL     OW 2524   0.859   1.374   3.740
  613SOL    HW1 2525   0.813   1.389   3.828
  613SOL    HW2 2526   0.903   1.459   3.710
  614SOL     OW 2527   0.661   1.790   4.677
  614SOL    HW1 2528   0.615   1.878   4.664
  614SOL    HW2 2529   0.760   1.802   4.670
  615SOL     OW 2530   0.859   0.956   4.585
  615SOL    HW1 2531   0.913   0.887   4.633
  615SOL    HW2 2532   0.827   1.025   4.651
  616SOL     OW 2533   1.083   0.984   3.811
  616SOL    HW1 2534   1.060   1.037   3.729
  616SOL    HW2 2535   1.164   0.928   3.792
  617SOL     OW 2536   1.861   1.569   4.575
  617SOL    HW1 2537   1.790   1.557   4.505
  617SOL    HW2 2538   1.862   1.490   4.635
  618SOL     OW 2539   0.221   1.314   5.568
  618SOL    HW1 2540   0.156   1.241   5.547
  618SOL    HW2 2541   0.225   1.328   5.666
  619SOL     OW 2542   0.079   1.240   4.377
  619SOL    HW1 2543   0.078   1.193   4.465
  619SOL    HW2 2544   0.161   1.212   4.326
  620SOL     OW 2545   0.672   1.391   5.348
  620SOL    HW1 2546   0.594   1.341   5.386
  620SOL    HW2 2547   0.669   1.486   5.379
  621SOL     OW 2548   1.824   0.192   4.951
  621SOL    HW1 2549   1.820   0.102   4.995
  621SOL    HW2 2550   1.827   0.181   4.852
  622SOL     OW 2551   0.428   0.424   4.244
  622SOL    HW1 2552   0.458   0.352   4.182
  622SOL    HW2 2553   0.389   0.384   4.327
  623SOL     OW 2554   0.317   0.547   5.004
  623SOL    HW1 2555   0.355   0.488   5.076
  623SOL    HW2 2556   0.357   0.521   4.916
  624SOL     OW 2557   0.812   1.586   4.411
  624SOL    HW1 2558   0.844   1.596   4.317
  624SOL    HW2 2559   0.733   1.524   4.413
  625SOL     OW 2560   1.424   0.214   4.836
  625SOL    HW1 2561   1.476   0.149   4.891
  625SOL    HW2 2562   1.375   0.277   4.897
  626SOL     OW 2563   1.001   0.034   4.878
  626SOL    HW1 2564   0.938  -0.038   4.847
  626SOL    HW2 2565   1.094  -0.002   4.878
  627SOL     OW 2566   0.770   1.330   4.025
  627SOL    HW1 2567   0.724   1.243   4.042
  627SOL    HW2 2568   0.861   1.327   4.066
  628SOL     OW 2569   0.618   1.567   5.008
  628SOL    HW1 2570   0.613   1.649   5.065
  628SOL    HW2 2571   0.707   1.564   4.963
  629SOL     OW 2572   1.352   0.052   3.892
  629SOL    HW1 2573   1.387   0.011   3.808
  629SOL    HW2 2574   1.262   0.014   3.912
  630SOL     OW 2575   1.300   0.453   4.415
  630SOL    HW1 2576   1.241   0.533   4.419
  630SOL    HW2 2577   1.315   0.418   4.508
  631SOL     OW 2578   1.593   0.221   4.606
  631SOL    HW1 2579   1.509   0.220   4.660
  631SOL    HW2 2580   1.595   0.304   4.550
  632SOL     OW 2581   0.039   1.077   4.024
  632SOL    HW1 2582   0.138   1.066   4.015
  632SOL    HW2 2583  -0.001   0.991   4.056
  633SOL     OW 2584   0.875   1.646   4.061
  633SOL    HW1 2585   0.798   1.611   4.007
  633SOL    HW2 2586   0.843   1.717   4.123
  634SOL     OW 2587   0.230   0.628   5.699
  634SOL    HW1 2588   0.137   0.626   5.736
  634SOL    HW2 2589   0.231   0.589   5.607
  635SOL     OW 2590   0.225   0.275   6.582
  635SOL    HW1 2591   0.260   0.258   6.674
  635SOL    HW2 2592   0.137   0.230   6.570
  636SOL     OW 2593   0.019   0.368   6.233
  636SOL    HW1 2594  -0.063   0.411   6.272
  636SOL    HW2 2595  -0.009   0.295   6.170
  637SOL     OW 2596   0.569   1.275   6.751
  637SOL    HW1 2597   0.476   1.268   6.714
  637SOL    HW2 2598   0.580   1.364   6.795
  638SOL     OW 2599   1.555   1.511   6.289
  638SOL    HW1 2600   1.498   1.495   6.370
  638SOL    HW2 2601   1.496   1.521   6.209
  639SOL     OW 2602   1.135   0.703   6.303
  639SOL    HW1 2603   1.192   0.781   6.278
  639SOL    HW2 2604   1.075   0.729   6.379
  640SOL     OW 2605   1.755   0.607   5.817
  640SOL    HW1 2606   1.743   0.594   5.718
  640SOL    HW2 2607   1.725   0.526   5.866
  641SOL     OW 2608   0.768   1.144   6.609
  641SOL    HW1 2609   0.690   1.161   6.669
  641SOL    HW2 2610   0.802   1.231   6.573
  642SOL     OW 2611   0.850   0.798   7.409
  642SOL    HW1 2612   0.846   0.874   7.474
  642SOL    HW2 2613   0.872   0.834   7.318
  643SOL     OW 2614   0.685   1.012   6.251
  643SOL    HW1 2615   0.754   0.996   6.321
  643SOL    HW2 2616   0.612   1.069   6.289
  644SOL     OW 2617   0.686   1.161   7.389
  644SOL    HW1 2618   0.746   1.240   7.403
  644SOL    HW2 2619   0.600   1.192   7.348
  645SOL     OW 2620   0.335   1.435   6.647
  645SOL    HW1 2621   0.257   1.404   6.594
  645SOL    HW2 2622   0.393   1.493   6.590
  646SOL     OW 2623   1.460   1.505   6.925
  646SOL    HW1 2624   1.484   1.599   6.951
  646SOL    HW2 2625   1.444   1.451   7.007
  647SOL     OW 2626   0.438   0.392   7.085
  647SOL    HW1 2627   0.520   0.336   7.094
  647SOL    HW2 2628   0.357   0.334   7.089
  648SOL     OW 2629   1.603   0.447   6.323
  648SOL    HW1 2630   1.529   0.493   6.273
  648SOL    HW2 2631   1.654   0.515   6.376
  649SOL     OW 2632   0.231   1.713   6.069
  649SOL    HW1 2633   0.265   1.790   6.123
  649SOL    HW2 2634   0.275   1.713   5.979
  650SOL     OW 2635   1.127   1.341   7.276
  650SOL    HW1 2636   1.174   1.341   7.364
  650SOL    HW2 2637   1.079   1.254   7.265
  651SOL     OW 2638   0.230   1.434   6.124
  651SOL    HW1 2639   0.204   1.530   6.124
  651SOL    HW2 2640   0.159   1.380   6.169
  652SOL     OW 2641   0.240   1.091   6.472
  652SOL    HW1 2642   0.254   1.007   6.524
  652SOL    HW2 2643   0.185   1.155   6.527
  653SOL     OW 2644   0.620   1.786   7.025
  653SOL    HW1 2645   0.528   1.769   7.060
  653SOL    HW2 2646   0.648   1.878   7.051
  654SOL     OW 2647   0.606   0.964   5.709
  654SOL    HW1 2648   0.613   1.048   5.655
  654SOL    HW2 2649   0.652   0.977   5.797
  655SOL     OW 2650   1.594   0.114   7.066
  655SOL    HW1 2651   1.576   0.181   6.994
  655SOL    HW2 2652   1.591   0.160   7.155
  656SOL     OW 2653   0.122   0.643   6.149
  656SOL    HW1 2654   0.077   0.555   6.166
  656SOL    HW2 2655   0.121   0.697   6.233
  657SOL     OW 2656   0.027   1.596   5.703
  657SOL    HW1 2657   0.008   1.500   5.724
  657SOL    HW2 2658  -0.006   1.654   5.778
  658SOL     OW 2659   1.689   0.922   6.198
  658SOL    HW1 2660   1.784   0.893   6.206
  658SOL    HW2 2661   1.681   0.987   6.123
  659SOL     OW 2662   1.641   1.108   6.018
  659SOL    HW1 2663   1.727   1.110   5.966
  659SOL    HW2 2664   1.655   1.155   6.106
  660SOL     OW 2665   0.113   0.737   7.183
  660SOL    HW1 2666   0.201   0.724   7.228
  660SOL    HW2 2667   0.100   0.834   7.161
  661SOL     OW 2668   0.613   1.365   6.312
  661SOL    HW1 2669   0.564   1.278   6.321
  661SOL    HW2 2670   0.590   1.408   6.225
  662SOL     OW 2671   1.293   1.228   7.009
  662SOL    HW1 2672   1.330   1.155   6.951
  662SOL    HW2 2673   1.345   1.233   7.094
  663SOL     OW 2674   0.809   0.004   6.088
  663SOL    HW1 2675   0.849   0.095   6.079
  663SOL    HW2 2676   0.709   0.012   6.094
  664SOL     OW 2677   0.197   0.976   6.850
  664SOL    HW1 2678   0.286   0.931   6.836
  664SOL    HW2 2679   0.124   0.911   6.831
  665SOL     OW 2680   1.525   0.999   5.776
  665SOL    HW1 2681   1.462   0.923   5.789
  665SOL    HW2 2682   1.573   1.017   5.862
  666SOL     OW 2683   1.187   1.792   7.202
  666SOL    HW1 2684   1.211   1.852   7.126
  666SOL    HW2 2685   1.194   1.697   7.172
  667SOL     OW 2686   0.317   0.251   7.387
  667SOL    HW1 2687   0.388   0.322   7.393
  667SOL    HW2 2688   0.229   0.290   7.415
  668SOL     OW 2689   1.466   1.417   6.539
  668SOL    HW1 2690   1.407   1.423   6.619
  668SOL    HW2 2691   1.451   1.329   6.493
  669SOL     OW 2692   0.598   0.729   5.856
  669SOL    HW1 2693   0.622   0.798   5.788
  669SOL    HW2 2694   0.520   0.762   5.910
  670SOL     OW 2695   1.281   0.345   6.530
  670SOL    HW1 2696   1.195   0.295   6.517
  670SOL    HW2 2697   1.343   0.291   6.586
  671SOL     OW 2698   0.807   0.605   7.051
  671SOL    HW1 2699   0.760   0.602   7.140
  671SOL    HW2 2700   0.756   0.550   6.985
  672SOL     OW 2701   1.394   0.469   7.260
  672SOL    HW1 2702   1.374   0.512   7.348
  672SOL    HW2 2703   1.472   0.407   7.269
  673SOL     OW 2704   0.973   0.890   7.158
  673SOL    HW1 2705   1.019   0.806   7.129
  673SOL    HW2 2706   0.917   0.924   7.083
  674SOL     OW 2707   0.991   0.410   6.828
  674SOL    HW1 2708   0.914   0.444   6.882
  674SOL    HW2 2709   0.957   0.359   6.749
  675SOL     OW 2710   1.041   0.701   6.015
  675SOL    HW1 2711   1.067   0.697   6.111
  675SOL    HW2 2712   0.956   0.650   6.001
  676SOL     OW 2713   0.076   0.811   6.375
  676SOL    HW1 2714   0.175   0.799   6.384
  676SOL    HW2 2715   0.052   0.906   6.396
  677SOL     OW 2716   0.130   1.821   7.157
  677SOL    HW1 2717   0.120   1.806   7.256
  677SOL    HW2 2718   0.044   1.857   7.121
  678SOL     OW 2719   0.865   0.348   5.781
  678SOL    HW1 2720   0.924   0.411   5.732
  678SOL    HW2 2721   0.884   0.254   5.752
  679SOL     OW 2722   1.719   0.585   7.417
  679SOL    HW1 2723   1.693   0.674   7.381
  679SOL    HW2 2724   1.717   0.517   7.344
  680SOL     OW 2725   1.362   1.144   6.131
  680SOL    HW1 2726   1.445   1.115   6.083
  680SOL    HW2 2727   1.313   1.211   6.075
  681SOL     OW 2728   0.550   0.196   6.471
  681SOL    HW1 2729   0.545   0.191   6.571
  681SOL    HW2 2730   0.552   0.292   6.442
  682SOL     OW 2731   1.008   1.456   6.063
  682SOL    HW1 2732   0.962   1.528   6.011
  682SOL    HW2 2733   1.004   1.476   6.161
  683SOL     OW 2734   0.351   1.801   6.439
  683SOL    HW1 2735   0.401   1.715   6.445
  683SOL    HW2 2736   0.416   1.878   6.436
  684SOL     OW 2737   1.795   1.066   6.459
  684SOL    HW1 2738   1.733   1.051   6.383
  684SOL    HW2 2739   1.743   1.077   6.544
  685SOL     OW 2740   1.227   1.550   7.092
  685SOL    HW1 2741   1.233   1.473   7.156
  685SOL    HW2 2742   1.175   1.524   7.012
  686SOL     OW 2743   0.321   0.943   5.828
  686SOL    HW1 2744   0.403   0.982   5.786
  686SOL    HW2 2745   0.294   0.861   5.779
  687SOL     OW 2746   1.458   0.735   6.314
  687SOL    HW1 2747   1.453   0.670   6.389
  687SOL    HW2 2748   1.538   0.794   6.327
  688SOL     OW 2749   0.461   1.266   7.313
  688SOL    HW1 2750   0.411   1.267   7.227
  688SOL    HW2 2751   0.398   1.248   7.389
  689SOL     OW 2752   1.111   1.776   5.823
  689SOL    HW1 2753   1.051   1.714   5.873
  689SOL    HW2 2754   1.142   1.732   5.738
  690SOL     OW 2755   0.202   0.285   7.084
  690SOL    HW1 2756   0.122   0.345   7.071
  690SOL    HW2 2757   0.192   0.236   7.170
  691SOL     OW 2758   1.632   1.377   5.667
  691SOL    HW1 2759   1.600   1.471   5.657
  691SOL    HW2 2760   1.556   1.314   5.655
  692SOL     OW 2761   0.464   1.743   5.909
  692SOL    HW1 2762   0.497   1.782   5.995
  692SOL    HW2 2763   0.540   1.736   5.844
  693SOL     OW 2764   1.400   0.107   6.012
  693SOL    HW1 2765   1.376   0.070   5.922
  693SOL    HW2 2766   1.499   0.123   6.016
  694SOL     OW 2767   0.249   1.785   6.827
  694SOL    HW1 2768   0.306   1.720   6.877
  694SOL    HW2 2769   0.233   1.752   6.734
  695SOL     OW 2770   0.940   1.698   6.490
  695SOL    HW1 2771   1.020   1.641   6.511
  695SOL    HW2 2772   0.891   1.658   6.413
  696SOL     OW 2773   0.382   0.700   6.066
  696SOL    HW1 2774   0.427   0.610   6.063
  696SOL    HW2 2775   0.288   0.689   6.099
  697SOL     OW 2776   1.547   0.222   7.315
  697SOL    HW1 2777   1.542   0.259   7.407
  697SOL    HW2 2778   1.475   0.153   7.303
  698SOL     OW 2779   0.614   0.122   5.703
  698SOL    HW1 2780   0.712   0.100   5.710
  698SOL    HW2 2781   0.583   0.105   5.610
  699SOL     OW 2782   0.781   0.264   7.335
  699SOL    HW1 2783   0.848   0.203   7.378
  699SOL    HW2 2784   0.708   0.283   7.400
  700SOL     OW 2785   0.888   1.514   6.781
  700SOL    HW1 2786   0.865   1.489   6.687
  700SOL    HW2 2787   0.949   1.445   6.820
  701SOL     OW 2788   1.351   0.590   7.019
  701SOL    HW1 2789   1.379   0.547   7.104
  701SOL    HW2 2790   1.376   0.686   7.020
  702SOL     OW 2791   0.803   1.402   6.510
  702SOL    HW1 2792   0.893   1.416   6.468
  702SOL    HW2 2793   0.732   1.404   6.439
  703SOL     OW 2794   0.922   0.503   6.485
  703SOL    HW1 2795   0.897   0.494   6.389
  703SOL    HW2 2796   0.970   0.421   6.516
  704SOL     OW 2797   0.539   0.064   6.098
  704SOL    HW1 2798   0.458   0.065   6.156
  704SOL    HW2 2799   0.542   0.147   6.043
  705SOL     OW 2800   1.434   1.188   5.627
  705SOL    HW1 2801   1.466   1.112   5.684
  705SOL    HW2 2802   1.342   1.215   5.657
  706SOL     OW 2803   0.297   0.035   5.757
  706SOL    HW1 2804   0.346   0.119   5.736
  706SOL    HW2 2805   0.359  -0.030   5.802
  707SOL     OW 2806   0.935   0.236   6.066
  707SOL    HW1 2807   0.887   0.277   5.988
  707SOL    HW2 2808   1.034   0.234   6.047
  708SOL     OW 2809   1.076   0.683   7.050
  708SOL    HW1 2810   0.996   0.622   7.053
  708SOL    HW2 2811   1.157   0.630   7.026
  709SOL     OW 2812   1.227   1.570   6.379
  709SOL    HW1 2813   1.248   1.644   6.314
  709SOL    HW2 2814   1.295   1.570   6.452
  710SOL     OW 2815   0.459   1.152   6.327
  710SOL    HW1 2816   0.388   1.125   6.392
  710SOL    HW2 2817   0.433   1.124   6.234
  711SOL     OW 2818   1.271   1.797   6.177
  711SOL    HW1 2819   1.315   1.861   6.113
  711SOL    HW2 2820   1.221   1.849   6.247
  712SOL     OW 2821   1.032   0.549   5.602
  712SOL    HW1 2822   0.991   0.631   5.563
  712SOL    HW2 2823   1.096   0.575   5.675
  713SOL     OW 2824   0.078   0.556   6.972
  713SOL    HW1 2825   0.170   0.555   6.931
  713SOL    HW2 2826   0.072   0.630   7.039
  714SOL     OW 2827   0.561   0.222   6.733
  714SOL    HW1 2828   0.599   0.138   6.770
  714SOL    HW2 2829   0.473   0.241   6.777
  715SOL     OW 2830   0.866   0.454   6.228
  715SOL    HW1 2831   0.834   0.526   6.166
  715SOL    HW2 2832   0.890   0.373   6.175
  716SOL     OW 2833   1.017   0.039   6.339
  716SOL    HW1 2834   0.945   0.044   6.270
  716SOL    HW2 2835   0.993  -0.030   6.408
  717SOL     OW 2836   1.429   1.173   6.453
  717SOL    HW1 2837   1.374   1.089   6.446
  717SOL    HW2 2838   1.455   1.202   6.361
  718SOL     OW 2839   1.466   0.590   6.578
  718SOL    HW1 2840   1.436   0.495   6.585
  718SOL    HW2 2841   1.539   0.606   6.644
  719SOL     OW 2842   1.857   0.833   5.963
  719SOL    HW1 2843   1.899   0.769   6.027
  719SOL    HW2 2844   1.819   0.782   5.885
  720SOL     OW 2845   0.488   1.385   5.760
  720SOL    HW1 2846   0.401   1.370   5.807
  720SOL    HW2 2847   0.471   1.411   5.665
  721SOL     OW 2848   1.664   1.280   6.243
  721SOL    HW1 2849   1.763   1.288   6.257
  721SOL    HW2 2850   1.619   1.364   6.274
  722SOL     OW 2851   1.390   0.575   5.664
  722SOL    HW1 2852   1.336   0.554   5.745
  722SOL    HW2 2853   1.481   0.534   5.673
  723SOL     OW 2854   0.527   0.256   5.914
  723SOL    HW1 2855   0.554   0.197   5.839
  723SOL    HW2 2856   0.527   0.351   5.883
  724SOL     OW 2857   1.754   1.223   7.174
  724SOL    HW1 2858   1.845   1.184   7.161
  724SOL    HW2 2859   1.762   1.319   7.198
  725SOL     OW 2860   1.064   1.347   6.926
  725SOL    HW1 2861   0.984   1.324   6.981
  725SOL    HW2 2862   1.147   1.321   6.975
  726SOL     OW 2863   1.592   1.629   7.211
  726SOL    HW1 2864   1.619   1.663   7.121
  726SOL    HW2 2865   1.671   1.591   7.257
  727SOL     OW 2866   1.111   1.195   6.686
  727SOL    HW1 2867   1.071   1.239   6.767
  727SOL    HW2 2868   1.070   1.232   6.603
  728SOL     OW 2869   1.638   1.099   6.665
  728SOL    HW1 2870   1.643   1.180   6.724
  728SOL    HW2 2871   1.552   1.101   6.614
  729SOL     OW 2872   0.915   0.089   6.988
  729SOL    HW1 2873   0.940   0.069   6.893
  729SOL    HW2 2874   0.987   0.145   7.030
  730SOL     OW 2875   0.980   1.116   7.305
  730SOL    HW1 2876   0.881   1.122   7.315
  730SOL    HW2 2877   1.003   1.036   7.249
  731SOL     OW 2878   0.705   1.050   5.954
  731SOL    HW1 2879   0.691   1.057   6.053
  731SOL    HW2 2880   0.789   0.999   5.936
  732SOL     OW 2881   0.410   0.813   6.837
  732SOL    HW1 2882   0.496   0.825   6.887
  732SOL    HW2 2883   0.368   0.726   6.864
  733SOL     OW 2884   1.274   0.386   6.848
  733SOL    HW1 2885   1.295   0.460   6.912
  733SOL    HW2 2886   1.185   0.403   6.805
  734SOL     OW 2887   0.064   1.564   6.917
  734SOL    HW1 2888   0.018   1.646   6.883
  734SOL    HW2 2889   0.162   1.583   6.926
  735SOL     OW 2890   0.367   1.100   6.087
  735SOL    HW1 2891   0.360   1.183   6.031
  735SOL    HW2 2892   0.371   1.020   6.027
  736SOL     OW 2893   0.566   0.537   6.451
  736SOL    HW1 2894   0.578   0.603   6.377
  736SOL    HW2 2895   0.612   0.571   6.534
  737SOL     OW 2896   1.252   1.348   5.974
  737SOL    HW1 2897   1.302   1.425   6.014
  737SOL    HW2 2898   1.157   1.350   6.006
  738SOL     OW 2899   1.272   1.445   6.728
  738SOL    HW1 2900   1.319   1.458   6.815
  738SOL    HW2 2901   1.206   1.371   6.737
  739SOL     OW 2902   1.582   0.639   6.058
  739SOL    HW1 2903   1.551   0.700   6.131
  739SOL    HW2 2904   1.632   0.691   5.989
  740SOL     OW 2905   0.354   1.510   6.915
  740SOL    HW1 2906   0.333   1.466   6.828
  740SOL    HW2 2907   0.451   1.536   6.918
  741SOL     OW 2908   0.402   0.751   7.184
  741SOL    HW1 2909   0.470   0.806   7.137
  741SOL    HW2 2910   0.442   0.663   7.211
  742SOL     OW 2911   1.587   0.779   7.256
  742SOL    HW1 2912   1.495   0.817   7.251
  742SOL    HW2 2913   1.647   0.826   7.191
  743SOL     OW 2914   1.013   0.105   7.356
  743SOL    HW1 2915   1.019   0.190   7.304
  743SOL    HW2 2916   1.045   0.029   7.299
  744SOL     OW 2917   0.504   0.050   7.326
  744SOL    HW1 2918   0.462  -0.007   7.256
  744SOL    HW2 2919   0.438   0.119   7.358
  745SOL     OW 2920   0.573   0.870   6.615
  745SOL    HW1 2921   0.617   0.959   6.606
  745SOL    HW2 2922   0.510   0.870   6.692
  746SOL     OW 2923   1.360   0.862   6.631
  746SOL    HW1 2924   1.285   0.862   6.565
  746SOL    HW2 2925   1.397   0.770   6.640
  747SOL     OW 2926   1.209   0.525   5.861
  747SOL    HW1 2927   1.222   0.441   5.915
  747SOL    HW2 2928   1.180   0.599   5.921
  748SOL     OW 2929   0.307   0.213   6.817
  748SOL    HW1 2930   0.284   0.250   6.907
  748SOL    HW2 2931   0.277   0.118   6.811
  749SOL     OW 2932   0.037   1.310   6.868
  749SOL    HW1 2933   0.090   1.261   6.936
  749SOL    HW2 2934   0.059   1.408   6.873
  750SOL     OW 2935   0.732   0.634   6.650
  750SOL    HW1 2936   0.791   0.608   6.574
  750SOL    HW2 2937   0.704   0.730   6.639
  751SOL     OW 2938   1.728   0.935   7.440
  751SOL    HW1 2939   1.682   0.928   7.351
  751SOL    HW2 2940   1.666   0.979   7.506
  752SOL     OW 2941   0.307   0.063   6.204
  752SOL    HW1 2942   0.296   0.157   6.237
  752SOL    HW2 2943   0.302   0.000   6.281
  753SOL     OW 2944   1.622   0.367   5.960
  753SOL    HW1 2945   1.624   0.291   6.024
  753SOL    HW2 2946   1.574   0.444   6.000
  754SOL     OW 2947   1.023   0.766   6.552
  754SOL    HW1 2948   1.038   0.787   6.648
  754SOL    HW2 2949   0.993   0.671   6.543
  755SOL     OW 2950   0.980   1.573   7.286
  755SOL    HW1 2951   0.960   1.617   7.198
  755SOL    HW2 2952   1.019   1.482   7.270
  756SOL     OW 2953   1.859   1.518   7.191
  756SOL    HW1 2954   1.873   1.545   7.096
  756SOL    HW2 2955   1.942   1.540   7.244
  757SOL     OW 2956   0.350   0.898   7.390
  757SOL    HW1 2957   0.426   0.942   7.438
  757SOL    HW2 2958   0.385   0.851   7.308
  758SOL     OW 2959   1.540   0.274   5.711
  758SOL    HW1 2960   1.479   0.199   5.734
  758SOL    HW2 2961   1.562   0.326   5.794
  759SOL     OW 2962   1.303   0.838   5.628
  759SOL    HW1 2963   1.337   0.745   5.643
  759SOL    HW2 2964   1.321   0.865   5.533
  760SOL     OW 2965   1.068   1.333   6.435
  760SOL    HW1 2966   1.075   1.249   6.380
  760SOL    HW2 2967   1.130   1.402   6.399
  761SOL     OW 2968   0.319   0.810   6.535
  761SOL    HW1 2969   0.412   0.846   6.540
  761SOL    HW2 2970   0.313   0.725   6.587
  762SOL     OW 2971   0.339   0.509   6.592
  762SOL    HW1 2972   0.287   0.426   6.575
  762SOL    HW2 2973   0.416   0.514   6.528
  763SOL     OW 2974   1.138   0.380   7.264
  763SOL    HW1 2975   1.093   0.443   7.328
  763SOL    HW2 2976   1.231   0.411   7.247
  764SOL     OW 2977   1.160   0.207   7.063
  764SOL    HW1 2978   1.160   0.271   7.140
  764SOL    HW2 2979   1.188   0.255   6.980
  765SOL     OW 2980   0.008   1.326   5.786
  765SOL    HW1 2981  -0.085   1.347   5.755
  765SOL    HW2 2982   0.018   1.227   5.799
  766SOL     OW 2983   0.088   1.801   6.513
  766SOL    HW1 2984   0.046   1.715   6.486
  766SOL    HW2 2985   0.182   1.804   6.479
  767SOL     OW 2986   0.504   1.568   6.496
  767SOL    HW1 2987   0.570   1.642   6.505
  767SOL    HW2 2988   0.548   1.489   6.454
  768SOL     OW 2989   1.002   0.796   6.824
  768SOL    HW1 2990   1.043   0.764   6.910
  768SOL    HW2 2991   0.906   0.769   6.821
  769SOL     OW 2992   0.040   0.544   6.700
  769SOL    HW1 2993   0.125   0.511   6.659
  769SOL    HW2 2994   0.053   0.559   6.798
  770SOL     OW 2995   0.189   0.520   7.308
  770SOL    HW1 2996   0.248   0.480   7.238
  770SOL    HW2 2997   0.131   0.591   7.267
  771SOL     OW 2998   1.369   0.950   7.246
  771SOL    HW1 2999   1.408   1.039   7.266
  771SOL    HW2 3000   1.379   0.930   7.149
  772SOL     OW 3001   0.815   0.572   5.911
  772SOL    HW1 3002   0.822   0.483   5.865
  772SOL    HW2 3003   0.721   0.606   5.903
  773SOL     OW 3004   1.657   0.604   6.792
  773SOL    HW1 3005   1.619   0.535   6.854
  773SOL    HW2 3006   1.739   0.568   6.748
  774SOL     OW 3007   0.252   1.564   7.330
  774SOL    HW1 3008   0.222   1.621   7.406
  774SOL    HW2 3009   0.245   1.467   7.356
  775SOL     OW 3010   0.671   0.464   6.855
  775SOL    HW1 3011   0.637   0.375   6.825
  775SOL    HW2 3012   0.697   0.518   6.775
  776SOL     OW 3013   0.930   1.678   7.051
  776SOL    HW1 3014   0.906   1.660   6.956
  776SOL    HW2 3015   0.960   1.772   7.061
  777SOL     OW 3016   0.473   0.500   5.777
  777SOL    HW1 3017   0.534   0.580   5.781
  777SOL    HW2 3018   0.378   0.531   5.784
  778SOL     OW 3019   0.159   1.137   7.052
  778SOL    HW1 3020   0.181   1.076   7.128
  778SOL    HW2 3021   0.169   1.088   6.966
  779SOL     OW 3022   1.347   1.059   6.820
  779SOL    HW1 3023   1.371   0.996   6.746
  779SOL    HW2 3024   1.257   1.099   6.802
  780SOL     OW 3025   1.302   0.855   5.895
  780SOL    HW1 3026   1.216   0.824   5.937
  780SOL    HW2 3027   1.298   0.841   5.796
  781SOL     OW 3028   1.759   1.747   6.740
  781SOL    HW1 3029   1.820   1.777   6.667
  781SOL    HW2 3030   1.721   1.658   6.718
  782SOL     OW 3031   1.252   1.731   6.714
  782SOL    HW1 3032   1.336   1.736   6.660
  782SOL    HW2 3033   1.229   1.635   6.732
  783SOL     OW 3034   0.083   1.258   6.608
  783SOL    HW1 3035   0.078   1.257   6.708
  783SOL    HW2 3036   0.000   1.217   6.570
  784SOL     OW 3037   0.688   1.662   7.302
  784SOL    HW1 3038   0.632   1.743   7.311
  784SOL    HW2 3039   0.740   1.666   7.216
  785SOL     OW 3040   1.726   0.135   6.109
  785SOL    HW1 3041   1.799   0.118   6.042
  785SOL    HW2 3042   1.695   0.048   6.147
  786SOL     OW 3043   1.388   1.573   6.063
  786SOL    HW1 3044   1.455   1.585   5.989
  786SOL    HW2 3045   1.348   1.662   6.086
  787SOL     OW 3046   0.130   1.794   7.437
  787SOL    HW1 3047   0.089   1.720   7.490
  787SOL    HW2 3048   0.194   1.845   7.495
  788SOL     OW 3049   1.280   0.927   6.258
  788SOL    HW1 3050   1.340   0.846   6.260
  788SOL    HW2 3051   1.320   0.996   6.198
  789SOL     OW 3052   0.830   1.273   7.008
  789SOL    HW1 3053   0.825   1.306   7.103
  789SOL    HW2 3054   0.744   1.292   6.962
  790SOL     OW 3055   0.672   1.616   5.740
  790SOL    HW1 3056   0.681   1.626   5.641
  790SOL    HW2 3057   0.632   1.527   5.761
  791SOL     OW 3058   1.650   1.720   6.980
  791SOL    HW1 3059   1.703   1.730   6.896
  791SOL    HW2 3060   1.623   1.810   7.014
  792SOL     OW 3061   1.841   0.175   6.549
  792SOL    HW1 3062   1.880   0.090   6.513
  792SOL    HW2 3063   1.743   0.177   6.530
  793SOL     OW 3064   0.263   0.326   6.306
  793SOL    HW1 3065   0.184   0.377   6.272
  793SOL    HW2 3066   0.254   0.311   6.404
  794SOL     OW 3067   1.194   1.612   5.617
  794SOL    HW1 3068   1.200   1.519   5.654
  794SOL    HW2 3069   1.135   1.612   5.537
  795SOL     OW 3070   0.822   1.002   6.958
  795SOL    HW1 3071   0.862   1.001   6.866
  795SOL    HW2 3072   0.832   1.094   6.998
  796SOL     OW 3073   0.916   0.910   5.877
  796SOL    HW1 3074   0.979   0.948   5.809
  796SOL    HW2 3075   0.956   0.827   5.916
  797SOL     OW 3076   0.372   1.288   7.076
  797SOL    HW1 3077   0.359   1.381   7.042
  797SOL    HW2 3078   0.288   1.236   7.063
  798SOL     OW 3079   1.614   1.292   6.875
  798SOL    HW1 3080   1.674   1.295   6.955
  798SOL    HW2 3081   1.539   1.356   6.888
  799SOL     OW 3082   1.039   1.098   6.282
  799SOL    HW1 3083   0.969   1.051   6.336
  799SOL    HW2 3084   1.098   1.030   6.239
  800SOL     OW 3085   1.014   0.236   6.557
  800SOL    HW1 3086   1.006   0.200   6.464
  800SOL    HW2 3087   1.012   0.160   6.622
  801SOL     OW 3088   0.590   1.487   6.077
  801SOL    HW1 3089   0.632   1.429   6.007
  801SOL    HW2 3090   0.546   1.566   6.033
  802SOL     OW 3091   1.709   0.385   6.967
  802SOL    HW1 3092   1.782   0.454   6.971
  802SOL    HW2 3093   1.737   0.310   6.908
  803SOL     OW 3094   0.255   1.348   5.876
  803SOL    HW1 3095   0.159   1.349   5.849
  803SOL    HW2 3096   0.267   1.401   5.960
  804SOL     OW 3097   0.105   1.013   7.312
  804SOL    HW1 3098   0.028   0.980   7.366
  804SOL    HW2 3099   0.190   0.983   7.354
  805SOL     OW 3100   0.672   0.203   7.075
  805SOL    HW1 3101   0.762   0.187   7.035
  805SOL    HW2 3102   0.680   0.208   7.174
  806SOL     OW 3103   0.075   0.345   5.619
  806SOL    HW1 3104  -0.017   0.317   5.590
  806SOL    HW2 3105   0.106   0.422   5.563
  807SOL     OW 3106   1.440   0.856   6.984
  807SOL    HW1 3107   1.383   0.908   6.921
  807SOL    HW2 3108   1.536   0.868   6.960
  808SOL     OW 3109   0.072   0.166   5.904
  808SOL    HW1 3110   0.055   0.249   5.850
  808SOL    HW2 3111   0.162   0.129   5.882
  809SOL     OW 3112   1.183   1.335   5.705
  809SOL    HW1 3113   1.084   1.324   5.707
  809SOL    HW2 3114   1.217   1.350   5.798
  810SOL     OW 3115   0.613   0.842   7.017
  810SOL    HW1 3116   0.669   0.923   7.000
  810SOL    HW2 3117   0.672   0.762   7.020
  811SOL     OW 3118   0.716   0.565   7.294
  811SOL    HW1 3119   0.735   0.630   7.368
  811SOL    HW2 3120   0.776   0.485   7.303
  812SOL     OW 3121   1.450   1.220   7.219
  812SOL    HW1 3122   1.441   1.210   7.318
  812SOL    HW2 3123   1.546   1.213   7.193
  813SOL     OW 3124   0.390   1.741   7.146
  813SOL    HW1 3125   0.299   1.782   7.144
  813SOL    HW2 3126   0.383   1.647   7.178
  814SOL     OW 3127   1.674   0.883   6.840
  814SOL    HW1 3128   1.647   0.794   6.803
  814SOL    HW2 3129   1.675   0.951   6.767
  815SOL     OW 3130   1.225   0.325   6.035
  815SOL    HW1 3131   1.290   0.251   6.024
  815SOL    HW2 3132   1.245   0.375   6.119
  816SOL     OW 3133   0.594   0.745   6.238
  816SOL    HW1 3134   0.644   0.830   6.219
  816SOL    HW2 3135   0.506   0.747   6.190
  817SOL     OW 3136   1.777   0.342   7.228
  817SOL    HW1 3137   1.760   0.373   7.134
  817SOL    HW2 3138   1.693   0.305   7.266
  818SOL     OW 3139   1.730   0.934   7.103
  818SOL    HW1 3140   1.768   1.025   7.118
  818SOL    HW2 3141   1.722   0.917   7.004
  819SOL     OW 3142   0.859   1.374   5.602
  819SOL    HW1 3143   0.813   1.389   5.690
  819SOL    HW2 3144   0.903   1.459   5.572
  820SOL     OW 3145   0.661   1.790   6.539
  820SOL    HW1 3146   0.615   1.878   6.526
  820SOL    HW2 3147   0.760   1.802   6.532
  821SOL     OW 3148   0.859   0.956   6.447
  821SOL    HW1 3149   0.913   0.887   6.495
  821SOL    HW2 3150   0.827   1.025   6.513
  822SOL     OW 3151   1.083   0.984   5.673
  822SOL    HW1 3152   1.060   1.037   5.591
  822SOL    HW2 3153   1.164   0.928   5.654
  823SOL     OW 3154   0.221   1.314   7.430
  823SOL    HW1 3155   0.156   1.241   7.409
  823SOL    HW2 3156   0.225   1.328   7.528
  824SOL     OW 3157   0.079   1.240   6.239
  824SOL    HW1 3158   0.078   1.193   6.327
  824SOL    HW2 3159   0.161   1.212   6.188
  825SOL     OW 3160   0.672   1.391   7.210
  825SOL    HW1 3161   0.594   1.341   7.248
  825SOL    HW2 3162   0.669   1.486   7.241
  826SOL     OW 3163   1.824   0.192   6.813
  826SOL    HW1 3164   1.820   0.102   6.857
  826SOL    HW2 3165   1.827   0.181   6.714
  827SOL     OW 3166   0.428   0.424   6.106
  827SOL    HW1 3167   0.458   0.352   6.044
  827SOL    HW2 3168   0.389   0.384   6.189
  828SOL     OW 3169   1.705   1.487   6.690
  828SOL    HW1 3170   1.612   1.462   6.663
  828SOL    HW2 3171   1.731   1.437   6.772
  829SOL     OW 3172   0.317   0.547   6.866
  829SOL    HW1 3173   0.355   0.488   6.938
  829SOL    HW2 3174   0.357   0.521   6.778
  830SOL     OW 3175   0.812   1.586   6.273
  830SOL    HW1 3176   0.844   1.596   6.179
  830SOL    HW2 3177   0.733   1.524   6.275
  831SOL     OW 3178   1.424   0.214   6.698
  831SOL    HW1 3179   1.476   0.149   6.753
  831SOL    HW2 3180   1.375   0.277   6.759
  832SOL     OW 3181   1.001   0.034   6.740
  832SOL    HW1 3182   0.938  -0.038   6.709
  832SOL    HW2 3183   1.094  -0.002   6.740
  833SOL     OW 3184   0.770   1.330   5.887
  833SOL    HW1 3185   0.724   1.243   5.904
  833SOL    HW2 3186   0.861   1.327   5.928
  834SOL     OW 3187   0.618   1.567   6.870
  834SOL    HW1 3188   0.613   1.649   6.927
  834SOL    HW2 3189   0.707   1.564   6.825
  835SOL     OW 3190   1.352   0.052   5.754
  835SOL    HW1 3191   1.387   0.011   5.670
  835SOL    HW2 3192   1.262   0.014   5.774
  836SOL     OW 3193   1.300   0.453   6.277
  836SOL    HW1 3194   1.241   0.533   6.281
  836SOL    HW2 3195   1.315   0.418   6.370
  837SOL     OW 3196   1.593   0.221   6.468
  837SOL    HW1 3197   1.509   0.220   6.522
  837SOL    HW2 3198   1.595   0.304   6.412
  838SOL     OW 3199   0.039   1.077   5.886
  838SOL    HW1 3200   0.138   1.066   5.877
  838SOL    HW2 3201  -0.001   0.991   5.918
  839SOL     OW 3202   0.875   1.646   5.923
  839SOL    HW1 3203   0.798   1.611   5.869
  839SOL    HW2 3204   0.843   1.717   5.985
  840SOL     OW 3205   0.230   0.628   7.561
  840SOL    HW1 3206   0.137   0.626   7.598
  840SOL    HW2 3207   0.231   0.589   7.469
  841SOL     OW 3208   0.225   0.275   8.444
  841SOL    HW1 3209   0.260   0.258   8.536
  841SOL    HW2 3210   0.137   0.230   8.432
  842SOL     OW 3211   0.019   0.368   8.095
  842SOL    HW1 3212  -0.063   0.411   8.134
  842SOL    HW2 3213  -0.009   0.295   8.032
  843SOL     OW 3214   0.569   1.275   8.613
  843SOL    HW1 3215   0.476   1.268   8.576
  843SOL    HW2 3216   0.580   1.364   8.657
  844SOL     OW 3217   1.555   1.511   8.151
  844SOL    HW1 3218   1.498   1.495   8.232
  844SOL    HW2 3219   1.496   1.521   8.071
  845SOL     OW 3220   1.135   0.703   8.165
  845SOL    HW1 3221   1.192   0.781   8.140
  845SOL    HW2 3222   1.075   0.729   8.241
  846SOL     OW 3223   1.755   0.607   7.679
  846SOL    HW1 3224   1.743   0.594   7.580
  846SOL    HW2 3225   1.725   0.526   7.728
  847SOL     OW 3226   0.768   1.144   8.471
  847SOL    HW1 3227   0.690   1.161   8.531
  847SOL    HW2 3228   0.802   1.231   8.435
  848SOL     OW 3229   0.850   0.798   9.271
  848SOL    HW1 3230   0.846   0.874   9.336
  848SOL    HW2 3231   0.872   0.834   9.180
  849SOL     OW 3232   0.685   1.012   8.113
  849SOL    HW1 3233   0.754   0.996   8.183
  849SOL    HW2 3234   0.612   1.069   8.151
  850SOL     OW 3235   0.686   1.161   9.251
  850SOL    HW1 3236   0.746   1.240   9.265
  850SOL    HW2 3237   0.600   1.192   9.210
  851SOL     OW 3238   0.335   1.435   8.509
  851SOL    HW1 3239   0.257   1.404   8.456
  851SOL    HW2 3240   0.393   1.493   8.452
  852SOL     OW 3241   1.460   1.505   8.787
  852SOL    HW1 3242   1.484   1.599   8.813
  852SOL    HW2 3243   1.444   1.451   8.869
  853SOL     OW 3244   0.438   0.392   8.947
  853SOL    HW1 3245   0.520   0.336   8.956
  853SOL    HW2 3246   0.357   0.334   8.951
  854SOL     OW 3247   1.603   0.447   8.185
  854SOL    HW1 3248   1.529   0.493   8.135
  854SOL    HW2 3249   1.654   0.515   8.238
  855SOL     OW 3250   0.231   1.713   7.931
  855SOL    HW1 3251   0.265   1.790   7.985
  855SOL    HW2 3252   0.275   1.713   7.841
  856SOL     OW 3253   1.127   1.341   9.138
  856SOL    HW1 3254   1.174   1.341   9.226
  856SOL    HW2 3255   1.079   1.254   9.127
  857SOL     OW 3256   0.230   1.434   7.986
  857SOL    HW1 3257   0.204   1.530   7.986
  857SOL    HW2 3258   0.159   1.380   8.031
  858SOL     OW 3259   0.240   1.091   8.334
  858SOL    HW1 3260   0.254   1.007   8.386
  858SOL    HW2 3261   0.185   1.155   8.389
  859SOL     OW 3262   0.620   1.786   8.887
  859SOL    HW1 3263   0.528   1.769   8.922
  859SOL    HW2 3264   0.648   1.878   8.913
  860SOL     OW 3265   0.606   0.964   7.571
  860SOL    HW1 3266   0.613   1.048   7.517
  860SOL    HW2 3267   0.652   0.977   7.659
  861SOL     OW 3268   1.594   0.114   8.928
  861SOL    HW1 3269   1.576   0.181   8.856
  861SOL    HW2 3270   1.591   0.160   9.017
  862SOL     OW 3271   0.122   0.643   8.011
  862SOL    HW1 3272   0.077   0.555   8.028
  862SOL    HW2 3273   0.121   0.697   8.095
  863SOL     OW 3274   1.842   1.767   7.807
  863SOL    HW1 3275   1.896   1.738   7.887
  863SOL    HW2 3276   1.872   1.857   7.778
  864SOL     OW 3277   0.027   1.596   7.565
  864SOL    HW1 3278   0.008   1.500   7.586
  864SOL    HW2 3279  -0.006   1.654   7.640
  865SOL     OW 3280   1.689   0.922   8.060
  865SOL    HW1 3281   1.784   0.893   8.068
  865SOL    HW2 3282   1.681   0.987   7.985
  866SOL     OW 3283   1.641   1.108   7.880
  866SOL    HW1 3284   1.727   1.110   7.828
  866SOL    HW2 3285   1.655   1.155   7.968
  867SOL     OW 3286   0.113   0.737   9.045
  867SOL    HW1 3287   0.201   0.724   9.090
  867SOL    HW2 3288   0.100   0.834   9.023
  868SOL     OW 3289   0.613   1.365   8.174
  868SOL    HW1 3290   0.564   1.278   8.183
  868SOL    HW2 3291   0.590   1.408   8.087
  869SOL     OW 3292   1.293   1.228   8.871
  869SOL    HW1 3293   1.330   1.155   8.813
  869SOL    HW2 3294   1.345   1.233   8.956
  870SOL     OW 3295   0.809   0.004   7.950
  870SOL    HW1 3296   0.849   0.095   7.941
  870SOL    HW2 3297   0.709   0.012   7.956
  871SOL     OW 3298   0.197   0.976   8.712
  871SOL    HW1 3299   0.286   0.931   8.698
  871SOL    HW2 3300   0.124   0.911   8.693
  872SOL     OW 3301   1.525   0.999   7.638
  872SOL    HW1 3302   1.462   0.923   7.651
  872SOL    HW2 3303   1.573   1.017   7.724
  873SOL     OW 3304   1.187   1.792   9.064
  873SOL    HW1 3305   1.211   1.852   8.988
  873SOL    HW2 3306   1.194   1.697   9.034
  874SOL     OW 3307   0.317   0.251   9.249
  874SOL    HW1 3308   0.388   0.322   9.255
  874SOL    HW2 3309   0.229   0.290   9.277
  875SOL     OW 3310   1.466   1.417   8.401
  875SOL    HW1 3311   1.407   1.423   8.481
  875SOL    HW2 3312   1.451   1.329   8.355
  876SOL     OW 3313   1.667   1.714   8.020
  876SOL    HW1 3314   1.626   1.691   7.932
  876SOL    HW2 3315   1.649   1.640   8.085
  877SOL     OW 3316   0.598   0.729   7.718
  877SOL    HW1 3317   0.622   0.798   7.650
  877SOL    HW2 3318   0.520   0.762   7.772
  878SOL     OW 3319   1.281   0.345   8.392
  878SOL    HW1 3320   1.195   0.295   8.379
  878SOL    HW2 3321   1.343   0.291   8.448
  879SOL     OW 3322   1.576   1.662   7.755
  879SOL    HW1 3323   1.665   1.708   7.758
  879SOL    HW2 3324   1.555   1.638   7.660
  880SOL     OW 3325   0.807   0.605   8.913
  880SOL    HW1 3326   0.760   0.602   9.002
  880SOL    HW2 3327   0.756   0.550   8.847
  881SOL     OW 3328   1.394   0.469   9.122
  881SOL    HW1 3329   1.374   0.512   9.210
  881SOL    HW2 3330   1.472   0.407   9.131
  882SOL     OW 3331   0.973   0.890   9.020
  882SOL    HW1 3332   1.019   0.806   8.991
  882SOL    HW2 3333   0.917   0.924   8.945
  883SOL     OW 3334   0.991   0.410   8.690
  883SOL    HW1 3335   0.914   0.444   8.744
  883SOL    HW2 3336   0.957   0.359   8.611
  884SOL     OW 3337   1.041   0.701   7.877
  884SOL    HW1 3338   1.067   0.697   7.973
  884SOL    HW2 3339   0.956   0.650   7.863
  885SOL     OW 3340   0.076   0.811   8.237
  885SOL    HW1 3341   0.175   0.799   8.246
  885SOL    HW2 3342   0.052   0.906   8.258
  886SOL     OW 3343   0.130   1.821   9.019
  886SOL    HW1 3344   0.120   1.806   9.118
  886SOL    HW2 3345   0.044   1.857   8.983
  887SOL     OW 3346   0.865   0.348   7.643
  887SOL    HW1 3347   0.924   0.411   7.594
  887SOL    HW2 3348   0.884   0.254   7.614
  888SOL     OW 3349   1.719   0.585   9.279
  888SOL    HW1 3350   1.693   0.674   9.243
  888SOL    HW2 3351   1.717   0.517   9.206
  889SOL     OW 3352   1.362   1.144   7.993
  889SOL    HW1 3353   1.445   1.115   7.945
  889SOL    HW2 3354   1.313   1.211   7.937
  890SOL     OW 3355   0.550   0.196   8.333
  890SOL    HW1 3356   0.545   0.191   8.433
  890SOL    HW2 3357   0.552   0.292   8.304
  891SOL     OW 3358   1.008   1.456   7.925
  891SOL    HW1 3359   0.962   1.528   7.873
  891SOL    HW2 3360   1.004   1.476   8.023
  892SOL     OW 3361   0.351   1.801   8.301
  892SOL    HW1 3362   0.401   1.715   8.307
  892SOL    HW2 3363   0.416   1.878   8.298
  893SOL     OW 3364   1.795   1.066   8.321
  893SOL    HW1 3365   1.733   1.051   8.245
  893SOL    HW2 3366   1.743   1.077   8.406
  894SOL     OW 3367   1.227   1.550   8.954
  894SOL    HW1 3368   1.233   1.473   9.018
  894SOL    HW2 3369   1.175   1.524   8.874
  895SOL     OW 3370   0.321   0.943   7.690
  895SOL    HW1 3371   0.403   0.982   7.648
  895SOL    HW2 3372   0.294   0.861   7.641
  896SOL     OW 3373   1.458   0.735   8.176
  896SOL    HW1 3374   1.453   0.670   8.251
  896SOL    HW2 3375   1.538   0.794   8.189
  897SOL     OW 3376   0.461   1.266   9.175
  897SOL    HW1 3377   0.411   1.267   9.089
  897SOL    HW2 3378   0.398   1.248   9.251
  898SOL     OW 3379   1.111   1.776   7.685
  898SOL    HW1 3380   1.051   1.714   7.735
  898SOL    HW2 3381   1.142   1.732   7.600
  899SOL     OW 3382   0.202   0.285   8.946
  899SOL    HW1 3383   0.122   0.345   8.933
  899SOL    HW2 3384   0.192   0.236   9.032
  900SOL     OW 3385   1.632   1.377   7.529
  900SOL    HW1 3386   1.600   1.471   7.519
  900SOL    HW2 3387   1.556   1.314   7.517
  901SOL     OW 3388   0.464   1.743   7.771
  901SOL    HW1 3389   0.497   1.782   7.857
  901SOL    HW2 3390   0.540   1.736   7.706
  902SOL     OW 3391   1.400   0.107   7.874
  902SOL    HW1 3392   1.376   0.070   7.784
  902SOL    HW2 3393   1.499   0.123   7.878
  903SOL     OW 3394   0.249   1.785   8.689
  903SOL    HW1 3395   0.306   1.720   8.739
  903SOL    HW2 3396   0.233   1.752   8.596
  904SOL     OW 3397   0.940   1.698   8.352
  904SOL    HW1 3398   1.020   1.641   8.373
  904SOL    HW2 3399   0.891   1.658   8.275
  905SOL     OW 3400   0.382   0.700   7.928
  905SOL    HW1 3401   0.427   0.610   7.925
  905SOL    HW2 3402   0.288   0.689   7.961
  906SOL     OW 3403   1.547   0.222   9.177
  906SOL    HW1 3404   1.542   0.259   9.269
  906SOL    HW2 3405   1.475   0.153   9.165
  907SOL     OW 3406   0.614   0.122   7.565
  907SOL    HW1 3407   0.712   0.100   7.572
  907SOL    HW2 3408   0.583   0.105   7.472
  908SOL     OW 3409   0.781   0.264   9.197
  908SOL    HW1 3410   0.848   0.203   9.240
  908SOL    HW2 3411   0.708   0.283   9.262
  909SOL     OW 3412   0.888   1.514   8.643
  909SOL    HW1 3413   0.865   1.489   8.549
  909SOL    HW2 3414   0.949   1.445   8.682
  910SOL     OW 3415   1.351   0.590   8.881
  910SOL    HW1 3416   1.379   0.547   8.966
  910SOL    HW2 3417   1.376   0.686   8.882
  911SOL     OW 3418   0.803   1.402   8.372
  911SOL    HW1 3419   0.893   1.416   8.330
  911SOL    HW2 3420   0.732   1.404   8.301
  912SOL     OW 3421   0.922   0.503   8.347
  912SOL    HW1 3422   0.897   0.494   8.251
  912SOL    HW2 3423   0.970   0.421   8.378
  913SOL     OW 3424   0.539   0.064   7.960
  913SOL    HW1 3425   0.458   0.065   8.018
  913SOL    HW2 3426   0.542   0.147   7.905
  914SOL     OW 3427   1.434   1.188   7.489
  914SOL    HW1 3428   1.466   1.112   7.546
  914SOL    HW2 3429   1.342   1.215   7.519
  915SOL     OW 3430   0.297   0.035   7.619
  915SOL    HW1 3431   0.346   0.119   7.598
  915SOL    HW2 3432   0.359  -0.030   7.664
  916SOL     OW 3433   0.935   0.236   7.928
  916SOL    HW1 3434   0.887   0.277   7.850
  916SOL    HW2 3435   1.034   0.234   7.909
  917SOL     OW 3436   1.076   0.683   8.912
  917SOL    HW1 3437   0.996   0.622   8.915
  917SOL    HW2 3438   1.157   0.630   8.888
  918SOL     OW 3439   1.227   1.570   8.241
  918SOL    HW1 3440   1.248   1.644   8.176
  918SOL    HW2 3441   1.295   1.570   8.314
  919SOL     OW 3442   0.459   1.152   8.189
  919SOL    HW1 3443   0.388   1.125   8.254
  919SOL    HW2 3444   0.433   1.124   8.096
  920SOL     OW 3445   1.271   1.797   8.039
  920SOL    HW1 3446   1.315   1.861   7.975
  920SOL    HW2 3447   1.221   1.849   8.109
  921SOL     OW 3448   1.032   0.549   7.464
  921SOL    HW1 3449   0.991   0.631   7.425
  921SOL    HW2 3450   1.096   0.575   7.537
  922SOL     OW 3451   0.078   0.556   8.834
  922SOL    HW1 3452   0.170   0.555   8.793
  922SOL    HW2 3453   0.072   0.630   8.901
  923SOL     OW 3454   0.561   0.222   8.595
  923SOL    HW1 3455   0.599   0.138   8.632
  923SOL    HW2 3456   0.473   0.241   8.639
  924SOL     OW 3457   0.866   0.454   8.090
  924SOL    HW1 3458   0.834   0.526   8.028
  924SOL    HW2 3459   0.890   0.373   8.037
  925SOL     OW 3460   1.017   0.039   8.201
  925SOL    HW1 3461   0.945   0.044   8.132
  925SOL    HW2 3462   0.993  -0.030   8.270
  926SOL     OW 3463   1.429   1.173   8.315
  926SOL    HW1 3464   1.374   1.089   8.308
  926SOL    HW2 3465   1.455   1.202   8.223
  927SOL     OW 3466   1.466   0.590   8.440
  927SOL    HW1 3467   1.436   0.495   8.447
  927SOL    HW2 3468   1.539   0.606   8.506
  928SOL     OW 3469   1.857   0.833   7.825
  928SOL    HW1 3470   1.899   0.769   7.889
  928SOL    HW2 3471   1.819   0.782   7.747
  929SOL     OW 3472   0.488   1.385   7.622
  929SOL    HW1 3473   0.401   1.370   7.669
  929SOL    HW2 3474   0.471   1.411   7.527
  930SOL     OW 3475   1.664   1.280   8.105
  930SOL    HW1 3476   1.763   1.288   8.119
  930SOL    HW2 3477   1.619   1.364   8.136
  931SOL     OW 3478   1.390   0.575   7.526
  931SOL    HW1 3479   1.336   0.554   7.607
  931SOL    HW2 3480   1.481   0.534   7.535
  932SOL     OW 3481   0.527   0.256   7.776
  932SOL    HW1 3482   0.554   0.197   7.701
  932SOL    HW2 3483   0.527   0.351   7.745
  933SOL     OW 3484   1.754   1.223   9.036
  933SOL    HW1 3485   1.845   1.184   9.023
  933SOL    HW2 3486   1.762   1.319   9.060
  934SOL     OW 3487   1.064   1.347   8.788
  934SOL    HW1 3488   0.984   1.324   8.843
  934SOL    HW2 3489   1.147   1.321   8.837
  935SOL     OW 3490   1.592   1.629   9.073
  935SOL    HW1 3491   1.619   1.663   8.983
  935SOL    HW2 3492   1.671   1.591   9.119
  936SOL     OW 3493   1.111   1.195   8.548
  936SOL    HW1 3494   1.071   1.239   8.629
  936SOL    HW2 3495   1.070   1.232   8.465
  937SOL     OW 3496   1.638   1.099   8.527
  937SOL    HW1 3497   1.643   1.180   8.586
  937SOL    HW2 3498   1.552   1.101   8.476
  938SOL     OW 3499   0.915   0.089   8.850
  938SOL    HW1 3500   0.940   0.069   8.755
  938SOL    HW2 3501   0.987   0.145   8.892
  939SOL     OW 3502   0.980   1.116   9.167
  939SOL    HW1 3503   0.881   1.122   9.177
  939SOL    HW2 3504   1.003   1.036   9.111
  940SOL     OW 3505   0.705   1.050   7.816
  940SOL    HW1 3506   0.691   1.057   7.915
  940SOL    HW2 3507   0.789   0.999   7.798
  941SOL     OW 3508   0.410   0.813   8.699
  941SOL    HW1 3509   0.496   0.825   8.749
  941SOL    HW2 3510   0.368   0.726   8.726
  942SOL     OW 3511   1.274   0.386   8.710
  942SOL    HW1 3512   1.295   0.460   8.774
  942SOL    HW2 3513   1.185   0.403   8.667
  943SOL     OW 3514   0.064   1.564   8.779
  943SOL    HW1 3515   0.018   1.646   8.745
  943SOL    HW2 3516   0.162   1.583   8.788
  944SOL     OW 3517   0.367   1.100   7.949
  944SOL    HW1 3518   0.360   1.183   7.893
  944SOL    HW2 3519   0.371   1.020   7.889
  945SOL     OW 3520   0.566   0.537   8.313
  945SOL    HW1 3521   0.578   0.603   8.239
  945SOL    HW2 3522   0.612   0.571   8.396
  946SOL     OW 3523   1.252   1.348   7.836
  946SOL    HW1 3524   1.302   1.425   7.876
  946SOL    HW2 3525   1.157   1.350   7.868
  947SOL     OW 3526   1.272   1.445   8.590
  947SOL    HW1 3527   1.319   1.458   8.677
  947SOL    HW2 3528   1.206   1.371   8.599
  948SOL     OW 3529   1.582   0.639   7.920
  948SOL    HW1 3530   1.551   0.700   7.993
  948SOL    HW2 3531   1.632   0.691   7.851
  949SOL     OW 3532   0.354   1.510   8.777
  949SOL    HW1 3533   0.333   1.466   8.690
  949SOL    HW2 3534   0.451   1.536   8.780
  950SOL     OW 3535   0.402   0.751   9.046
  950SOL    HW1 3536   0.470   0.806   8.999
  950SOL    HW2 3537   0.442   0.663   9.073
  951SOL     OW 3538   1.587   0.779   9.118
  951SOL    HW1 3539   1.495   0.817   9.113
  951SOL    HW2 3540   1.647   0.826   9.053
  952SOL     OW 3541   1.013   0.105   9.218
  952SOL    HW1 3542   1.019   0.190   9.166
  952SOL    HW2 3543   1.045   0.029   9.161
  953SOL     OW 3544   0.504   0.050   9.188
  953SOL    HW1 3545   0.462  -0.007   9.118
  953SOL    HW2 3546   0.438   0.119   9.220
  954SOL     OW 3547   0.573   0.870   8.477
  954SOL    HW1 3548   0.617   0.959   8.468
  954SOL    HW2 3549   0.510   0.870   8.554
  955SOL     OW 3550   1.360   0.862   8.493
  955SOL    HW1 3551   1.285   0.862   8.427
  955SOL    HW2 3552   1.397   0.770   8.502
  956SOL     OW 3553   1.209   0.525   7.723
  956SOL    HW1 3554   1.222   0.441   7.777
  956SOL    HW2 3555   1.180   0.599   7.783
  957SOL     OW 3556   0.307   0.213   8.679
  957SOL    HW1 3557   0.284   0.250   8.769
  957SOL    HW2 3558   0.277   0.118   8.673
  958SOL     OW 3559   0.037   1.310   8.730
  958SOL    HW1 3560   0.090   1.261   8.798
  958SOL    HW2 3561   0.059   1.408   8.735
  959SOL     OW 3562   0.732   0.634   8.512
  959SOL    HW1 3563   0.791   0.608   8.436
  959SOL    HW2 3564   0.704   0.730   8.501
  960SOL     OW 3565   1.728   0.935   9.302
  960SOL    HW1 3566   1.682   0.928   9.213
  960SOL    HW2 3567   1.666   0.979   9.368
  961SOL     OW 3568   0.307   0.063   8.066
  961SOL    HW1 3569   0.296   0.157   8.099
  961SOL    HW2 3570   0.302   0.000   8.143
  962SOL     OW 3571   1.622   0.367   7.822
  962SOL    HW1 3572   1.624   0.291   7.886
  962SOL    HW2 3573   1.574   0.444   7.862
  963SOL     OW 3574   1.023   0.766   8.414
  963SOL    HW1 3575   1.038   0.787   8.510
  963SOL    HW2 3576   0.993   0.671   8.405
  964SOL     OW 3577   0.980   1.573   9.148
  964SOL    HW1 3578   0.960   1.617   9.060
  964SOL    HW2 3579   1.019   1.482   9.132
  965SOL     OW 3580   1.859   1.518   9.053
  965SOL    HW1 3581   1.873   1.545   8.958
  965SOL    HW2 3582   1.942   1.540   9.106
  966SOL     OW 3583   0.350   0.898   9.252
  966SOL    HW1 3584   0.426   0.942   9.300
  966SOL    HW2 3585   0.385   0.851   9.170
  967SOL     OW 3586   1.540   0.274   7.573
  967SOL    HW1 3587   1.479   0.199   7.596
  967SOL    HW2 3588   1.562   0.326   7.656
  968SOL     OW 3589   1.303   0.838   7.490
  968SOL    HW1 3590   1.337   0.745   7.505
  968SOL    HW2 3591   1.321   0.865   7.395
  969SOL     OW 3592   1.068   1.333   8.297
  969SOL    HW1 3593   1.075   1.249   8.242
  969SOL    HW2 3594   1.130   1.402   8.261
  970SOL     OW 3595   0.319   0.810   8.397
  970SOL    HW1 3596   0.412   0.846   8.402
  970SOL    HW2 3597   0.313   0.725   8.449
  971SOL     OW 3598   0.339   0.509   8.454
  971SOL    HW1 3599   0.287   0.426   8.437
  971SOL    HW2 3600   0.416   0.514   8.390
  972SOL     OW 3601   1.138   0.380   9.126
  972SOL    HW1 3602   1.093   0.443   9.190
  972SOL    HW2 3603   1.231   0.411   9.109
  973SOL     OW 3604   1.160   0.207   8.925
  973SOL    HW1 3605   1.160   0.271   9.002
  973SOL    HW2 3606   1.188   0.255   8.842
  974SOL     OW 3607   0.008   1.326   7.648
  974SOL    HW1 3608  -0.085   1.347   7.617
  974SOL    HW2 3609   0.018   1.227   7.661
  975SOL     OW 3610   0.088   1.801   8.375
  975SOL    HW1 3611   0.046   1.715   8.348
  975SOL    HW2 3612   0.182   1.804   8.341
  976SOL     OW 3613   0.504   1.568   8.358
  976SOL    HW1 3614   0.570   1.642   8.367
  976SOL    HW2 3615   0.548   1.489   8.316
  977SOL     OW 3616   1.002   0.796   8.686
  977SOL    HW1 3617   1.043   0.764   8.772
  977SOL    HW2 3618   0.906   0.769   8.683
  978SOL     OW 3619   0.040   0.544   8.562
  978SOL    HW1 3620   0.125   0.511   8.521
  978SOL    HW2 3621   0.053   0.559   8.660
  979SOL     OW 3622   0.189   0.520   9.170
  979SOL    HW1 3623   0.248   0.480   9.100
  979SOL    HW2 3624   0.131   0.591   9.129
  980SOL     OW 3625   1.369   0.950   9.108
  980SOL    HW1 3626   1.408   1.039   9.128
  980SOL    HW2 3627   1.379   0.930   9.011
  981SOL     OW 3628   0.815   0.572   7.773
  981SOL    HW1 3629   0.822   0.483   7.727
  981SOL    HW2 3630   0.721   0.606   7.765
  982SOL     OW 3631   1.657   0.604   8.654
  982SOL    HW1 3632   1.619   0.535   8.716
  982SOL    HW2 3633   1.739   0.568   8.610
  983SOL     OW 3634   0.252   1.564   9.192
  983SOL    HW1 3635   0.222   1.621   9.268
  983SOL    HW2 3636   0.245   1.467   9.218
  984SOL     OW 3637   0.671   0.464   8.717
  984SOL    HW1 3638   0.637   0.375   8.687
  984SOL    HW2 3639   0.697   0.518   8.637
  985SOL     OW 3640   0.930   1.678   8.913
  985SOL    HW1 3641   0.906   1.660   8.818
  985SOL    HW2 3642   0.960   1.772   8.923
  986SOL     OW 3643   0.473   0.500   7.639
  986SOL    HW1 3644   0.534   0.580   7.643
  986SOL    HW2 3645   0.378   0.531   7.646
  987SOL     OW 3646   0.159   1.137   8.914
  987SOL    HW1 3647   0.181   1.076   8.990
  987SOL    HW2 3648   0.169   1.088   8.828
  988SOL     OW 3649   1.347   1.059   8.682
  988SOL    HW1 3650   1.371   0.996   8.608
  988SOL    HW2 3651   1.257   1.099   8.664
  989SOL     OW 3652   1.302   0.855   7.757
  989SOL    HW1 3653   1.216   0.824   7.799
  989SOL    HW2 3654   1.298   0.841   7.658
  990SOL     OW 3655   1.759   1.747   8.602
  990SOL    HW1 3656   1.820   1.777   8.529
  990SOL    HW2 3657   1.721   1.658   8.580
  991SOL     OW 3658   1.252   1.731   8.576
  991SOL    HW1 3659   1.336   1.736   8.522
  991SOL    HW2 3660   1.229   1.635   8.594
  992SOL     OW 3661   0.083   1.258   8.470
  992SOL    HW1 3662   0.078   1.257   8.570
  992SOL    HW2 3663   0.000   1.217   8.432
  993SOL     OW 3664   0.688   1.662   9.164
  993SOL    HW1 3665   0.632   1.743   9.173
  993SOL    HW2 3666   0.740   1.666   9.078
  994SOL     OW 3667   1.726   0.135   7.971
  994SOL    HW1 3668   1.799   0.118   7.904
  994SOL    HW2 3669   1.695   0.048   8.009
  995SOL     OW 3670   1.388   1.573   7.925
  995SOL    HW1 3671   1.455   1.585   7.851
  995SOL    HW2 3672   1.348   1.662   7.948
  996SOL     OW 3673   0.130   1.794   9.299
  996SOL    HW1 3674   0.089   1.720   9.352
  996SOL    HW2 3675   0.194   1.845   9.357
  997SOL     OW 3676   1.280   0.927   8.120
  997SOL    HW1 3677   1.340   0.846   8.122
  997SOL    HW2 3678   1.320   0.996   8.060
  998SOL     OW 3679   0.830   1.273   8.870
  998SOL    HW1 3680   0.825   1.306   8.965
  998SOL    HW2 3681   0.744   1.292   8.824
  999SOL     OW 3682   0.672   1.616   7.602
  999SOL    HW1 3683   0.681   1.626   7.503
  999SOL    HW2 3684   0.632   1.527   7.623
 1000SOL     OW 3685   1.650   1.720   8.842
 1000SOL    HW1 3686   1.703   1.730   8.758
 1000SOL    HW2 3687   1.623   1.810   8.876
 1001SOL     OW 3688   1.841   0.175   8.411
 1001SOL    HW1 3689   1.880   0.090   8.375
 1001SOL    HW2 3690   1.743   0.177   8.392
 1002SOL     OW 3691   0.263   0.326   8.168
 1002SOL    HW1 3692   0.184   0.377   8.134
 1002SOL    HW2 3693   0.254   0.311   8.266
 1003SOL     OW 3694   1.194   1.612   7.479
 1003SOL    HW1 3695   1.200   1.519   7.516
 1003SOL    HW2 3696   1.135   1.612   7.399
 1004SOL     OW 3697   0.822   1.002   8.820
 1004SOL    HW1 3698   0.862   1.001   8.728
 1004SOL    HW2 3699   0.832   1.094   8.860
 1005SOL     OW 3700   0.916   0.910   7.739
 1005SOL    HW1 3701   0.979   0.948   7.671
 1005SOL    HW2 3702   0.956   0.827   7.778
 1006SOL     OW 3703   1.504   1.607   7.492
 1006SOL    HW1 3704   1.412   1.644   7.499
 1006SOL    HW2 3705   1.542   1.627   7.402
 1007SOL     OW 3706   0.372   1.288   8.938
 1007SOL    HW1 3707   0.359   1.381   8.904
 1007SOL    HW2 3708   0.288   1.236   8.925
 1008SOL     OW 3709   1.614   1.292   8.737
 1008SOL    HW1 3710   1.674   1.295   8.817
 1008SOL    HW2 3711   1.539   1.356   8.750
 1009SOL     OW 3712   1.039   1.098   8.144
 1009SOL    HW1 3713   0.969   1.051   8.198
 1009SOL    HW2 3714   1.098   1.030   8.101
 1010SOL     OW 3715   1.014   0.236   8.419
 1010SOL    HW1 3716   1.006   0.200   8.326
 1010SOL    HW2 3717   1.012   0.160   8.484
 1011SOL     OW 3718   0.590   1.487   7.939
 1011SOL    HW1 3719   0.632   1.429   7.869
 1011SOL    HW2 3720   0.546   1.566   7.895
 1012SOL     OW 3721   1.709   0.385   8.829
 1012SOL    HW1 3722   1.782   0.454   8.833
 1012SOL    HW2 3723   1.737   0.310   8.770
 1013SOL     OW 3724   0.255   1.348   7.738
 1013SOL    HW1 3725   0.159   1.349   7.711
 1013SOL    HW2 3726   0.267   1.401   7.822
 1014SOL     OW 3727   0.105   1.013   9.174
 1014SOL    HW1 3728   0.028   0.980   9.228
 1014SOL    HW2 3729   0.190   0.983   9.216
 1015SOL     OW 3730   0.672   0.203   8.937
 1015SOL    HW1 3731   0.762   0.187   8.897
 1015SOL    HW2 3732   0.680   0.208   9.036
 1016SOL     OW 3733   0.075   0.345   7.481
 1016SOL    HW1 3734  -0.017   0.317   7.452
 1016SOL    HW2 3735   0.106   0.422   7.425
 1017SOL     OW 3736   1.440   0.856   8.846
 1017SOL    HW1 3737   1.383   0.908   8.783
 1017SOL    HW2 3738   1.536   0.868   8.822
 1018SOL     OW 3739   0.072   0.166   7.766
 1018SOL    HW1 3740   0.055   0.249   7.712
 1018SOL    HW2 3741   0.162   0.129   7.744
 1019SOL     OW 3742   1.183   1.335   7.567
 1019SOL    HW1 3743   1.084   1.324   7.569
 1019SOL    HW2 3744   1.217   1.350   7.660
 1020SOL     OW 3745   0.613   0.842   8.879
 1020SOL    HW1 3746   0.669   0.923   8.862
 1020SOL    HW2 3747   0.672   0.762   8.882
 1021SOL     OW 3748   1.493   1.767   8.407
 1021SOL    HW1 3749   1.526   1.831   8.338
 1021SOL    HW2 3750   1.559   1.761   8.482
 1022SOL     OW 3751   0.716   0.565   9.156
 1022SOL    HW1 3752   0.735   0.630   9.230
 1022SOL    HW2 3753   0.776   0.485   9.165
 1023SOL     OW 3754   1.450   1.220   9.081
 1023SOL    HW1 3755   1.441   1.210   9.180
 1023SOL    HW2 3756   1.546   1.213   9.055
 1024SOL     OW 3757   0.390   1.741   9.008
 1024SOL    HW1 3758   0.299   1.782   9.006
 1024SOL    HW2 3759   0.383   1.647   9.040
 1025SOL     OW 3760   1.674   0.883   8.702
 1025SOL    HW1 3761   1.647   0.794   8.665
 1025SOL    HW2 3762   1.675   0.951   8.629
 1026SOL     OW 3763   1.225   0.325   7.897
 1026SOL    HW1 3764   1.290   0.251   7.886
 1026SOL    HW2 3765   1.245   0.375   7.981
 1027SOL     OW 3766   0.594   0.745   8.100
 1027SOL    HW1 3767   0.644   0.830   8.081
 1027SOL    HW2 3768   0.506   0.747   8.052
 1028SOL     OW 3769   1.777   0.342   9.090
 1028SOL    HW1 3770   1.760   0.373   8.996
 1028SOL    HW2 3771   1.693   0.305   9.128
 1029SOL     OW 3772   1.730   0.934   8.965
 1029SOL    HW1 3773   1.768   1.025   8.980
 1029SOL    HW2 3774   1.722   0.917   8.866
 1030SOL     OW 3775   0.859   1.374   7.464
 1030SOL    HW1 3776   0.813   1.389   7.552
 1030SOL    HW2 3777   0.903   1.459   7.434
 1031SOL     OW 3778   0.661   1.790   8.401
 1031SOL    HW1 3779   0.615   1.878   8.388
 1031SOL    HW2 3780   0.760   1.802   8.394
 1032SOL     OW 3781   0.859   0.956   8.309
 1032SOL    HW1 3782   0.913   0.887   8.357
 1032SOL    HW2 3783   0.827   1.025   8.375
 1033SOL     OW 3784   1.083   0.984   7.535
 1033SOL    HW1 3785   1.060   1.037   7.453
 1033SOL    HW2 3786   1.164   0.928   7.516
 1034SOL     OW 3787   1.861   1.569   8.299
 1034SOL    HW1 3788   1.790   1.557   8.229
 1034SOL    HW2 3789   1.862   1.490   8.359
 1035SOL     OW 3790   0.221   1.314   9.292
 1035SOL    HW1 3791   0.156   1.241   9.271
 1035SOL    HW2 3792   0.225   1.328   9.390
 1036SOL     OW 3793   0.079   1.240   8.101
 1036SOL    HW1 3794   0.078   1.193   8.189
 1036SOL    HW2 3795   0.161   1.212   8.050
 1037SOL     OW 3796   0.672   1.391   9.072
 1037SOL    HW1 3797   0.594   1.341   9.110
 1037SOL    HW2 3798   0.669   1.486   9.103
 1038SOL     OW 3799   1.824   0.192   8.675
 1038SOL    HW1 3800   1.820   0.102   8.719
 1038SOL    HW2 3801   1.827   0.181   8.576
 1039SOL     OW 3802   0.428   0.424   7.968
 1039SOL    HW1 3803   0.458   0.352   7.906
 1039SOL    HW2 3804   0.389   0.384   8.051
 1040SOL     OW 3805   1.705   1.487   8.552
 1040SOL    HW1 3806   1.612   1.462   8.525
 1040SOL    HW2 3807   1.731   1.437   8.634
 1041SOL     OW 3808   0.317   0.547   8.728
 1041SOL    HW1 3809   0.355   0.488   8.800
 1041SOL    HW2 3810   0.357   0.521   8.640
 1042SOL     OW 3811   0.812   1.586   8.135
 1042SOL    HW1 3812   0.844   1.596   8.041
 1042SOL    HW2 3813   0.733   1.524   8.137
 1043SOL     OW 3814   1.424   0.214   8.560
 1043SOL    HW1 3815   1.476   0.149   8.615
 1043SOL    HW2 3816   1.375   0.277   8.621
 1044SOL     OW 3817   1.001   0.034   8.602
 1044SOL    HW1 3818   0.938  -0.038   8.571
 1044SOL    HW2 3819   1.094  -0.002   8.602
 1045SOL     OW 3820   0.770   1.330   7.749
 1045SOL    HW1 3821   0.724   1.243   7.766
 1045SOL    HW2 3822   0.861   1.327   7.790
 1046SOL     OW 3823   0.618   1.567   8.732
 1046SOL    HW1 3824   0.613   1.649   8.789
 1046SOL    HW2 3825   0.707   1.564   8.687
 1047SOL     OW 3826   1.352   0.052   7.616
 1047SOL    HW1 3827   1.387   0.011   7.532
 1047SOL    HW2 3828   1.262   0.014   7.636
 1048SOL     OW 3829   1.300   0.453   8.139
 1048SOL    HW1 3830   1.241   0.533   8.143
 1048SOL    HW2 3831   1.315   0.418   8.232
 1049SOL     OW 3832   1.593   0.221   8.330
 1049SOL    HW1 3833   1.509   0.220   8.384
 1049SOL    HW2 3834   1.595   0.304   8.274
 1050SOL     OW 3835   0.039   1.077   7.748
 1050SOL    HW1 3836   0.138   1.066   7.739
 1050SOL    HW2 3837  -0.001   0.991   7.780
 1051SOL     OW 3838   0.875   1.646   7.785
 1051SOL    HW1 3839   0.798   1.611   7.731
 1051SOL    HW2 3840   0.843   1.717   7.847
 1052SOL     OW 3841   0.230   0.628   9.423
 1052SOL    HW1 3842   0.137   0.626   9.460
 1052SOL    HW2 3843   0.231   0.589   9.331
 1053SOL     OW 3844   0.225   0.275  10.306
 1053SOL    HW1 3845   0.260   0.258  10.398
 1053SOL    HW2 3846   0.137   0.230  10.294
 1054SOL     OW 3847   0.019   0.368   9.957
 1054SOL    HW1 3848  -0.063   0.411   9.996
 1054SOL    HW2 3849  -0.009   0.295   9.894
 1055SOL     OW 3850   0.569   1.275  10.475
 1055SOL    HW1 3851   0.476   1.268  10.438
 1055SOL    HW2 3852   0.580   1.364  10.519
 1056SOL     OW 3853   1.555   1.511  10.013
 1056SOL    HW1 3854   1.498   1.495  10.094
 1056SOL    HW2 3855   1.496   1.521   9.933
 1057SOL     OW 3856   1.135   0.703  10.027
 1057SOL    HW1 3857   1.192   0.781  10.002
 1057SOL    HW2 3858   1.075   0.729  10.103
 1058SOL     OW 3859   1.755   0.607   9.541
 1058SOL    HW1 3860   1.743   0.594   9.442
 1058SOL    HW2 3861   1.725   0.526   9.590
 1059SOL     OW 3862   0.768   1.144  10.333
 1059SOL    HW1 3863   0.690   1.161  10.393
 1059SOL    HW2 3864   0.802   1.231  10.297
 1060SOL     OW 3865   0.850   0.798  11.133
 1060SOL    HW1 3866   0.846   0.874  11.198
 1060SOL    HW2 3867   0.872   0.834  11.042
 1061SOL     OW 3868   0.685   1.012   9.975
 1061SOL    HW1 3869   0.754   0.996  10.045
 1061SOL    HW2 3870   0.612   1.069  10.013
 1062SOL     OW 3871   0.335   1.435  10.371
 1062SOL    HW1 3872   0.257   1.404  10.318
 1062SOL    HW2 3873   0.393   1.493  10.314
 1063SOL     OW 3874   1.460   1.505  10.649
 1063SOL    HW1 3875   1.484   1.599  10.675
 1063SOL    HW2 3876   1.444   1.451  10.731
 1064SOL     OW 3877   0.438   0.392  10.809
 1064SOL    HW1 3878   0.520   0.336  10.818
 1064SOL    HW2 3879   0.357   0.334  10.813
 1065SOL     OW 3880   1.603   0.447  10.047
 1065SOL    HW1 3881   1.529   0.493   9.997
 1065SOL    HW2 3882   1.654   0.515  10.100
 1066SOL     OW 3883   0.231   1.713   9.793
 1066SOL    HW1 3884   0.265   1.790   9.847
 1066SOL    HW2 3885   0.275   1.713   9.703
 1067SOL     OW 3886   0.230   1.434   9.848
 1067SOL    HW1 3887   0.204   1.530   9.848
 1067SOL    HW2 3888   0.159   1.380   9.893
 1068SOL     OW 3889   0.240   1.091  10.196
 1068SOL    HW1 3890   0.254   1.007  10.248
 1068SOL    HW2 3891   0.185   1.155  10.251
 1069SOL     OW 3892   0.620   1.786  10.749
 1069SOL    HW1 3893   0.528   1.769  10.784
 1069SOL    HW2 3894   0.648   1.878  10.775
 1070SOL     OW 3895   0.606   0.964   9.433
 1070SOL    HW1 3896   0.613   1.048   9.379
 1070SOL    HW2 3897   0.652   0.977   9.521
 1071SOL     OW 3898   1.594   0.114  10.790
 1071SOL    HW1 3899   1.576   0.181  10.718
 1071SOL    HW2 3900   1.591   0.160  10.879
 1072SOL     OW 3901   0.122   0.643   9.873
 1072SOL    HW1 3902   0.077   0.555   9.890
 1072SOL    HW2 3903   0.121   0.697   9.957
 1073SOL     OW 3904   1.842   1.767   9.669
 1073SOL    HW1 3905   1.896   1.738   9.749
 1073SOL    HW2 3906   1.872   1.857   9.640
 1074SOL     OW 3907   0.027   1.596   9.427
 1074SOL    HW1 3908   0.008   1.500   9.448
 1074SOL    HW2 3909  -0.006   1.654   9.502
 1075SOL     OW 3910   1.689   0.922   9.922
 1075SOL    HW1 3911   1.784   0.893   9.930
 1075SOL    HW2 3912   1.681   0.987   9.847
 1076SOL     OW 3913   1.641   1.108   9.742
 1076SOL    HW1 3914   1.727   1.110   9.690
 1076SOL    HW2 3915   1.655   1.155   9.830
 1077SOL     OW 3916   0.113   0.737  10.907
 1077SOL    HW1 3917   0.201   0.724  10.952
 1077SOL    HW2 3918   0.100   0.834  10.885
 1078SOL     OW 3919   0.613   1.365  10.036
 1078SOL    HW1 3920   0.564   1.278  10.045
 1078SOL    HW2 3921   0.590   1.408   9.949
 1079SOL     OW 3922   1.293   1.228  10.733
 1079SOL    HW1 3923   1.330   1.155  10.675
 1079SOL    HW2 3924   1.345   1.233  10.818
 1080SOL     OW 3925   0.809   0.004   9.812
 1080SOL    HW1 3926   0.849   0.095   9.803
 1080SOL    HW2 3927   0.709   0.012   9.818
 1081SOL     OW 3928   0.197   0.976  10.574
 1081SOL    HW1 3929   0.286   0.931  10.560
 1081SOL    HW2 3930   0.124   0.911  10.555
 1082SOL     OW 3931   1.525   0.999   9.500
 1082SOL    HW1 3932   1.462   0.923   9.513
 1082SOL    HW2 3933   1.573   1.017   9.586
 1083SOL     OW 3934   1.187   1.792  10.926
 1083SOL    HW1 3935   1.211   1.852  10.850
 1083SOL    HW2 3936   1.194   1.697  10.896
 1084SOL     OW 3937   0.317   0.251  11.111
 1084SOL    HW1 3938   0.388   0.322  11.117
 1084SOL    HW2 3939   0.229   0.290  11.139
 1085SOL     OW 3940   1.466   1.417  10.263
 1085SOL    HW1 3941   1.407   1.423  10.343
 1085SOL    HW2 3942   1.451   1.329  10.217
 1086SOL     OW 3943   1.667   1.714   9.882
 1086SOL    HW1 3944   1.626   1.691   9.794
 1086SOL    HW2 3945   1.649   1.640   9.947
 1087SOL     OW 3946   0.598   0.729   9.580
 1087SOL    HW1 3947   0.622   0.798   9.512
 1087SOL    HW2 3948   0.520   0.762   9.634
 1088SOL     OW 3949   1.281   0.345  10.254
 1088SOL    HW1 3950   1.195   0.295  10.241
 1088SOL    HW2 3951   1.343   0.291  10.310
 1089SOL     OW 3952   1.576   1.662   9.617
 1089SOL    HW1 3953   1.665   1.708   9.620
 1089SOL    HW2 3954   1.555   1.638   9.522
 1090SOL     OW 3955   0.807   0.605  10.775
 1090SOL    HW1 3956   0.760   0.602  10.864
 1090SOL    HW2 3957   0.756   0.550  10.709
 1091SOL     OW 3958   0.973   0.890  10.882
 1091SOL    HW1 3959   1.019   0.806  10.853
 1091SOL    HW2 3960   0.917   0.924  10.807
 1092SOL     OW 3961   0.991   0.410  10.552
 1092SOL    HW1 3962   0.914   0.444  10.606
 1092SOL    HW2 3963   0.957   0.359  10.473
 1093SOL     OW 3964   1.041   0.701   9.739
 1093SOL    HW1 3965   1.067   0.697   9.835
 1093SOL    HW2 3966   0.956   0.650   9.725
 1094SOL     OW 3967   0.076   0.811  10.099
 1094SOL    HW1 3968   0.175   0.799  10.108
 1094SOL    HW2 3969   0.052   0.906  10.120
 1095SOL     OW 3970   0.130   1.821  10.881
 1095SOL    HW1 3971   0.120   1.806  10.980
 1095SOL    HW2 3972   0.044   1.857  10.845
 1096SOL     OW 3973   0.865   0.348   9.505
 1096SOL    HW1 3974   0.924   0.411   9.456
 1096SOL    HW2 3975   0.884   0.254   9.476
 1097SOL     OW 3976   1.362   1.144   9.855
 1097SOL    HW1 3977   1.445   1.115   9.807
 1097SOL    HW2 3978   1.313   1.211   9.799
 1098SOL     OW 3979   0.550   0.196  10.195
 1098SOL    HW1 3980   0.545   0.191  10.295
 1098SOL    HW2 3981   0.552   0.292  10.166
 1099SOL     OW 3982   1.008   1.456   9.787
 1099SOL    HW1 3983   0.962   1.528   9.735
 1099SOL    HW2 3984   1.004   1.476   9.885
 1100SOL     OW 3985   0.351   1.801  10.163
 1100SOL    HW1 3986   0.401   1.715  10.169
 1100SOL    HW2 3987   0.416   1.878  10.160
 1101SOL     OW 3988   1.795   1.066  10.183
 1101SOL    HW1 3989   1.733   1.051  10.107
 1101SOL    HW2 3990   1.743   1.077  10.268
 1102SOL     OW 3991   1.227   1.550  10.816
 1102SOL    HW1 3992   1.233   1.473  10.880
 1102SOL    HW2 3993   1.175   1.524  10.736
 1103SOL     OW 3994   0.321   0.943   9.552
 1103SOL    HW1 3995   0.403   0.982   9.510
 1103SOL    HW2 3996   0.294   0.861   9.503
 1104SOL     OW 3997   1.458   0.735  10.038
 1104SOL    HW1 3998   1.453   0.670  10.113
 1104SOL    HW2 3999   1.538   0.794  10.051
 1105SOL     OW 4000   0.461   1.266  11.037
 1105SOL    HW1 4001   0.411   1.267  10.951
 1105SOL    HW2 4002   0.398   1.248  11.113
 1106SOL     OW 4003   1.111   1.776   9.547
 1106SOL    HW1 4004   1.051   1.714   9.597
 1106SOL    HW2 4005   1.142   1.732   9.462
 1107SOL     OW 4006   0.202   0.285  10.808
 1107SOL    HW1 4007   0.122   0.345  10.795
 1107SOL    HW2 4008   0.192   0.236  10.894
 1108SOL     OW 4009   1.632   1.377   9.391
 1108SOL    HW1 4010   1.600   1.471   9.381
 1108SOL    HW2 4011   1.556   1.314   9.379
 1109SOL     OW 4012   0.464   1.743   9.633
 1109SOL    HW1 4013   0.497   1.782   9.719
 1109SOL    HW2 4014   0.540   1.736   9.568
 1110SOL     OW 4015   1.400   0.107   9.736
 1110SOL    HW1 4016   1.376   0.070   9.646
 1110SOL    HW2 4017   1.499   0.123   9.740
 1111SOL     OW 4018   0.249   1.785  10.551
 1111SOL    HW1 4019   0.306   1.720  10.601
 1111SOL    HW2 4020   0.233   1.752  10.458
 1112SOL     OW 4021   0.940   1.698  10.214
 1112SOL    HW1 4022   1.020   1.641  10.235
 1112SOL    HW2 4023   0.891   1.658  10.137
 1113SOL     OW 4024   0.382   0.700   9.790
 1113SOL    HW1 4025   0.427   0.610   9.787
 1113SOL    HW2 4026   0.288   0.689   9.823
 1114SOL     OW 4027   0.614   0.122   9.427
 1114SOL    HW1 4028   0.712   0.100   9.434
 1114SOL    HW2 4029   0.583   0.105   9.334
 1115SOL     OW 4030   0.781   0.264  11.059
 1115SOL    HW1 4031   0.848   0.203  11.102
 1115SOL    HW2 4032   0.708   0.283  11.124
 1116SOL     OW 4033   0.888   1.514  10.505
 1116SOL    HW1 4034   0.865   1.489  10.411
 1116SOL    HW2 4035   0.949   1.445  10.544
 1117SOL     OW 4036   1.351   0.590  10.743
 1117SOL    HW1 4037   1.379   0.547  10.828
 1117SOL    HW2 4038   1.376   0.686  10.744
 1118SOL     OW 4039   0.803   1.402  10.234
 1118SOL    HW1 4040   0.893   1.416  10.192
 1118SOL    HW2 4041   0.732   1.404  10.163
 1119SOL     OW 4042   0.922   0.503  10.209
 1119SOL    HW1 4043   0.897   0.494  10.113
 1119SOL    HW2 4044   0.970   0.421  10.240
 1120SOL     OW 4045   0.539   0.064   9.822
 1120SOL    HW1 4046   0.458   0.065   9.880
 1120SOL    HW2 4047   0.542   0.147   9.767
 1121SOL     OW 4048   1.434   1.188   9.351
 1121SOL    HW1 4049   1.466   1.112   9.408
 1121SOL    HW2 4050   1.342   1.215   9.381
 1122SOL     OW 4051   0.297   0.035   9.481
 1122SOL    HW1 4052   0.346   0.119   9.460
 1122SOL    HW2 4053   0.359  -0.030   9.526
 1123SOL     OW 4054   0.935   0.236   9.790
 1123SOL    HW1 4055   0.887   0.277   9.712
 1123SOL    HW2 4056   1.034   0.234   9.771
 1124SOL     OW 4057   1.076   0.683  10.774
 1124SOL    HW1 4058   0.996   0.622  10.777
 1124SOL    HW2 4059   1.157   0.630  10.750
 1125SOL     OW 4060   1.227   1.570  10.103
 1125SOL    HW1 4061   1.248   1.644  10.038
 1125SOL    HW2 4062   1.295   1.570  10.176
 1126SOL     OW 4063   0.459   1.152  10.051
 1126SOL    HW1 4064   0.388   1.125  10.116
 1126SOL    HW2 4065   0.433   1.124   9.958
 1127SOL     OW 4066   1.271   1.797   9.901
 1127SOL    HW1 4067   1.315   1.861   9.837
 1127SOL    HW2 4068   1.221   1.849   9.971
 1128SOL     OW 4069   1.032   0.549   9.326
 1128SOL    HW1 4070   0.991   0.631   9.287
 1128SOL    HW2 4071   1.096   0.575   9.399
 1129SOL     OW 4072   0.078   0.556  10.696
 1129SOL    HW1 4073   0.170   0.555  10.655
 1129SOL    HW2 4074   0.072   0.630  10.763
 1130SOL     OW 4075   0.561   0.222  10.457
 1130SOL    HW1 4076   0.599   0.138  10.494
 1130SOL    HW2 4077   0.473   0.241  10.501
 1131SOL     OW 4078   0.866   0.454   9.952
 1131SOL    HW1 4079   0.834   0.526   9.890
 1131SOL    HW2 4080   0.890   0.373   9.899
 1132SOL     OW 4081   1.017   0.039  10.063
 1132SOL    HW1 4082   0.945   0.044   9.994
 1132SOL    HW2 4083   0.993  -0.030  10.132
 1133SOL     OW 4084   1.429   1.173  10.177
 1133SOL    HW1 4085   1.374   1.089  10.170
 1133SOL    HW2 4086   1.455   1.202  10.085
 1134SOL     OW 4087   1.466   0.590  10.302
 1134SOL    HW1 4088   1.436   0.495  10.309
 1134SOL    HW2 4089   1.539   0.606  10.368
 1135SOL     OW 4090   1.857   0.833   9.687
 1135SOL    HW1 4091   1.899   0.769   9.751
 1135SOL    HW2 4092   1.819   0.782   9.609
 1136SOL     OW 4093   0.488   1.385   9.484
 1136SOL    HW1 4094   0.401   1.370   9.531
 1136SOL    HW2 4095   0.471   1.411   9.389
 1137SOL     OW 4096   1.664   1.280   9.967
 1137SOL    HW1 4097   1.763   1.288   9.981
 1137SOL    HW2 4098   1.619   1.364   9.998
 1138SOL     OW 4099   1.390   0.575   9.388
 1138SOL    HW1 4100   1.336   0.554   9.469
 1138SOL    HW2 4101   1.481   0.534   9.397
 1139SOL     OW 4102   0.527   0.256   9.638
 1139SOL    HW1 4103   0.554   0.197   9.563
 1139SOL    HW2 4104   0.527   0.351   9.607
 1140SOL     OW 4105   1.754   1.223  10.898
 1140SOL    HW1 4106   1.845   1.184  10.885
 1140SOL    HW2 4107   1.762   1.319  10.922
 1141SOL     OW 4108   1.064   1.347  10.650
 1141SOL    HW1 4109   0.984   1.324  10.705
 1141SOL    HW2 4110   1.147   1.321  10.699
 1142SOL     OW 4111   1.111   1.195  10.410
 1142SOL    HW1 4112   1.071   1.239  10.491
 1142SOL    HW2 4113   1.070   1.232  10.327
 1143SOL     OW 4114   1.638   1.099  10.389
 1143SOL    HW1 4115   1.643   1.180  10.448
 1143SOL    HW2 4116   1.552   1.101  10.338
 1144SOL     OW 4117   0.915   0.089  10.712
 1144SOL    HW1 4118   0.940   0.069  10.617
 1144SOL    HW2 4119   0.987   0.145  10.754
 1145SOL     OW 4120   0.705   1.050   9.678
 1145SOL    HW1 4121   0.691   1.057   9.777
 1145SOL    HW2 4122   0.789   0.999   9.660
 1146SOL     OW 4123   0.410   0.813  10.561
 1146SOL    HW1 4124   0.496   0.825  10.611
 1146SOL    HW2 4125   0.368   0.726  10.588
 1147SOL     OW 4126   1.274   0.386  10.572
 1147SOL    HW1 4127   1.295   0.460  10.636
 1147SOL    HW2 4128   1.185   0.403  10.529
 1148SOL     OW 4129   0.064   1.564  10.641
 1148SOL    HW1 4130   0.018   1.646  10.607
 1148SOL    HW2 4131   0.162   1.583  10.650
 1149SOL     OW 4132   0.367   1.100   9.811
 1149SOL    HW1 4133   0.360   1.183   9.755
 1149SOL    HW2 4134   0.371   1.020   9.751
 1150SOL     OW 4135   0.566   0.537  10.175
 1150SOL    HW1 4136   0.578   0.603  10.101
 1150SOL    HW2 4137   0.612   0.571  10.258
 1151SOL     OW 4138   1.252   1.348   9.698
 1151SOL    HW1 4139   1.302   1.425   9.738
 1151SOL    HW2 4140   1.157   1.350   9.730
 1152SOL     OW 4141   1.272   1.445  10.452
 1152SOL    HW1 4142   1.319   1.458  10.539
 1152SOL    HW2 4143   1.206   1.371  10.461
 1153SOL     OW 4144   1.582   0.639   9.782
 1153SOL    HW1 4145   1.551   0.700   9.855
 1153SOL    HW2 4146   1.632   0.691   9.713
 1154SOL     OW 4147   0.354   1.510  10.639
 1154SOL    HW1 4148   0.333   1.466  10.552
 1154SOL    HW2 4149   0.451   1.536  10.642
 1155SOL     OW 4150   0.402   0.751  10.908
 1155SOL    HW1 4151   0.470   0.806  10.861
 1155SOL    HW2 4152   0.442   0.663  10.935
 1156SOL     OW 4153   1.587   0.779  10.980
 1156SOL    HW1 4154   1.495   0.817  10.975
 1156SOL    HW2 4155   1.647   0.826  10.915
 1157SOL     OW 4156   0.573   0.870  10.339
 1157SOL    HW1 4157   0.617   0.959  10.330
 1157SOL    HW2 4158   0.510   0.870  10.416
 1158SOL     OW 4159   1.360   0.862  10.355
 1158SOL    HW1 4160   1.285   0.862  10.289
 1158SOL    HW2 4161   1.397   0.770  10.364
 1159SOL     OW 4162   1.209   0.525   9.585
 1159SOL    HW1 4163   1.222   0.441   9.639
 1159SOL    HW2 4164   1.180   0.599   9.645
 1160SOL     OW 4165   0.307   0.213  10.541
 1160SOL    HW1 4166   0.284   0.250  10.631
 1160SOL    HW2 4167   0.277   0.118  10.535
 1161SOL     OW 4168   0.037   1.310  10.592
 1161SOL    HW1 4169   0.090   1.261  10.660
 1161SOL    HW2 4170   0.059   1.408  10.597
 1162SOL     OW 4171   0.732   0.634  10.374
 1162SOL    HW1 4172   0.791   0.608  10.298
 1162SOL    HW2 4173   0.704   0.730  10.363
 1163SOL     OW 4174   0.307   0.063   9.928
 1163SOL    HW1 4175   0.296   0.157   9.961
 1163SOL    HW2 4176   0.302   0.000  10.005
 1164SOL     OW 4177   1.622   0.367   9.684
 1164SOL    HW1 4178   1.624   0.291   9.748
 1164SOL    HW2 4179   1.574   0.444   9.724
 1165SOL     OW 4180   1.023   0.766  10.276
 1165SOL    HW1 4181   1.038   0.787  10.372
 1165SOL    HW2 4182   0.993   0.671  10.267
 1166SOL     OW 4183   0.980   1.573  11.010
 1166SOL    HW1 4184   0.960   1.617  10.922
 1166SOL    HW2 4185   1.019   1.482  10.994
 1167SOL     OW 4186   1.859   1.518  10.915
 1167SOL    HW1 4187   1.873   1.545  10.820
 1167SOL    HW2 4188   1.942   1.540  10.968
 1168SOL     OW 4189   0.350   0.898  11.114
 1168SOL    HW1 4190   0.426   0.942  11.162
 1168SOL    HW2 4191   0.385   0.851  11.032
 1169SOL     OW 4192   1.540   0.274   9.435
 1169SOL    HW1 4193   1.479   0.199   9.458
 1169SOL    HW2 4194   1.562   0.326   9.518
 1170SOL     OW 4195   1.303   0.838   9.352
 1170SOL    HW1 4196   1.337   0.745   9.367
 1170SOL    HW2 4197   1.321   0.865   9.257
 1171SOL     OW 4198   1.068   1.333  10.159
 1171SOL    HW1 4199   1.075   1.249  10.104
 1171SOL    HW2 4200   1.130   1.402  10.123
 1172SOL     OW 4201   0.319   0.810  10.259
 1172SOL    HW1 4202   0.412   0.846  10.264
 1172SOL    HW2 4203   0.313   0.725  10.311
 1173SOL     OW 4204   0.339   0.509  10.316
 1173SOL    HW1 4205   0.287   0.426  10.299
 1173SOL    HW2 4206   0.416   0.514  10.252
 1174SOL     OW 4207   1.160   0.207  10.787
 1174SOL    HW1 4208   1.160   0.271  10.864
 1174SOL    HW2 4209   1.188   0.255  10.704
 1175SOL     OW 4210   0.008   1.326   9.510
 1175SOL    HW1 4211  -0.085   1.347   9.479
 1175SOL    HW2 4212   0.018   1.227   9.523
 1176SOL     OW 4213   0.088   1.801  10.237
 1176SOL    HW1 4214   0.046   1.715  10.210
 1176SOL    HW2 4215   0.182   1.804  10.203
 1177SOL     OW 4216   0.504   1.568  10.220
 1177SOL    HW1 4217   0.570   1.642  10.229
 1177SOL    HW2 4218   0.548   1.489  10.178
 1178SOL     OW 4219   1.002   0.796  10.548
 1178SOL    HW1 4220   1.043   0.764  10.634
 1178SOL    HW2 4221   0.906   0.769  10.545
 1179SOL     OW 4222   0.040   0.544  10.424
 1179SOL    HW1 4223   0.125   0.511  10.383
 1179SOL    HW2 4224   0.053   0.559  10.522
 1180SOL     OW 4225   0.815   0.572   9.635
 1180SOL    HW1 4226   0.822   0.483   9.589
 1180SOL    HW2 4227   0.721   0.606   9.627
 1181SOL     OW 4228   1.657   0.604  10.516
 1181SOL    HW1 4229   1.619   0.535  10.578
 1181SOL    HW2 4230   1.739   0.568  10.472
 1182SOL     OW 4231   0.252   1.564  11.054
 1182SOL    HW1 4232   0.222   1.621  11.130
 1182SOL    HW2 4233   0.245   1.467  11.080
 1183SOL     OW 4234   0.671   0.464  10.579
 1183SOL    HW1 4235   0.637   0.375  10.549
 1183SOL    HW2 4236   0.697   0.518  10.499
 1184SOL     OW 4237   0.930   1.678  10.775
 1184SOL    HW1 4238   0.906   1.660  10.680
 1184SOL    HW2 4239   0.960   1.772  10.785
 1185SOL     OW 4240   0.473   0.500   9.501
 1185SOL    HW1 4241   0.534   0.580   9.505
 1185SOL    HW2 4242   0.378   0.531   9.508
 1186SOL     OW 4243   0.159   1.137  10.776
 1186SOL    HW1 4244   0.181   1.076  10.852
 1186SOL    HW2 4245   0.169   1.088  10.690
 1187SOL     OW 4246   1.347   1.059  10.544
 1187SOL    HW1 4247   1.371   0.996  10.470
 1187SOL    HW2 4248   1.257   1.099  10.526
 1188SOL     OW 4249   1.302   0.855   9.619
 1188SOL    HW1 4250   1.216   0.824   9.661
 1188SOL    HW2 4251   1.298   0.841   9.520
 1189SOL     OW 4252   1.759   1.747  10.464
 1189SOL    HW1 4253   1.820   1.777  10.391
 1189SOL    HW2 4254   1.721   1.658  10.442
 1190SOL     OW 4255   1.252   1.731  10.438
 1190SOL    HW1 4256   1.336   1.736  10.384
 1190SOL    HW2 4257   1.229   1.635  10.456
 1191SOL     OW 4258   0.083   1.258  10.332
 1191SOL    HW1 4259   0.078   1.257  10.432
 1191SOL    HW2 4260   0.000   1.217  10.294
 1192SOL     OW 4261   1.726   0.135   9.833
 1192SOL    HW1 4262   1.799   0.118   9.766
 1192SOL    HW2 4263   1.695   0.048   9.871
 1193SOL     OW 4264   1.388   1.573   9.787
 1193SOL    HW1 4265   1.455   1.585   9.713
 1193SOL    HW2 4266   1.348   1.662   9.810
 1194SOL     OW 4267   1.280   0.927   9.982
 1194SOL    HW1 4268   1.340   0.846   9.984
 1194SOL    HW2 4269   1.320   0.996   9.922
 1195SOL     OW 4270   0.830   1.273  10.732
 1195SOL    HW1 4271   0.825   1.306  10.827
 1195SOL    HW2 4272   0.744   1.292  10.686
 1196SOL     OW 4273   0.672   1.616   9.464
 1196SOL    HW1 4274   0.681   1.626   9.365
 1196SOL    HW2 4275   0.632   1.527   9.485
 1197SOL     OW 4276   1.650   1.720  10.704
 1197SOL    HW1 4277   1.703   1.730  10.620
 1197SOL    HW2 4278   1.623   1.810  10.738
 1198SOL     OW 4279   1.841   0.175  10.273
 1198SOL    HW1 4280   1.880   0.090  10.237
 1198SOL    HW2 4281   1.743   0.177  10.254
 1199SOL     OW 4282   0.263   0.326  10.030
 1199SOL    HW1 4283   0.184   0.377   9.996
 1199SOL    HW2 4284   0.254   0.311  10.128
 1200SOL     OW 4285   1.194   1.612   9.341
 1200SOL    HW1 4286   1.200   1.519   9.378
 1200SOL    HW2 4287   1.135   1.612   9.261
 1201SOL     OW 4288   0.822   1.002  10.682
 1201SOL    HW1 4289   0.862   1.001  10.590
 1201SOL    HW2 4290   0.832   1.094  10.722
 1202SOL     OW 4291   0.916   0.910   9.601
 1202SOL    HW1 4292   0.979   0.948   9.533
 1202SOL    HW2 4293   0.956   0.827   9.640
 1203SOL     OW 4294   1.504   1.607   9.354
 1203SOL    HW1 4295   1.412   1.644   9.361
 1203SOL    HW2 4296   1.542   1.627   9.264
 1204SOL     OW 4297   0.372   1.288  10.800
 1204SOL    HW1 4298   0.359   1.381  10.766
 1204SOL    HW2 4299   0.288   1.236  10.787
 1205SOL     OW 4300   1.614   1.292  10.599
 1205SOL    HW1 4301   1.674   1.295  10.679
 1205SOL    HW2 4302   1.539   1.356  10.612
 1206SOL     OW 4303   1.039   1.098  10.006
 1206SOL    HW1 4304   0.969   1.051  10.060
 1206SOL    HW2 4305   1.098   1.030   9.963
 1207SOL     OW 4306   1.014   0.236  10.281
 1207SOL    HW1 4307   1.006   0.200  10.188
 1207SOL    HW2 4308   1.012   0.160  10.346
 1208SOL     OW 4309   0.590   1.487   9.801
 1208SOL    HW1 4310   0.632   1.429   9.731
 1208SOL    HW2 4311   0.546   1.566   9.757
 1209SOL     OW 4312   1.709   0.385  10.691
 1209SOL    HW1 4313   1.782   0.454  10.695
 1209SOL    HW2 4314   1.737   0.310  10.632
 1210SOL     OW 4315   0.255   1.348   9.600
 1210SOL    HW1 4316   0.159   1.349   9.573
 1210SOL    HW2 4317   0.267   1.401   9.684
 1211SOL     OW 4318   0.105   1.013  11.036
 1211SOL    HW1 4319   0.028   0.980  11.090
 1211SOL    HW2 4320   0.190   0.983  11.078
 1212SOL     OW 4321   0.672   0.203  10.799
 1212SOL    HW1 4322   0.762   0.187  10.759
 1212SOL    HW2 4323   0.680   0.208  10.898
 1213SOL     OW 4324   0.075   0.345   9.343
 1213SOL    HW1 4325  -0.017   0.317   9.314
 1213SOL    HW2 4326   0.106   0.422   9.287
 1214SOL     OW 4327   1.440   0.856  10.708
 1214SOL    HW1 4328   1.383   0.908  10.645
 1214SOL    HW2 4329   1.536   0.868  10.684
 1215SOL     OW 4330   0.072   0.166   9.628
 1215SOL    HW1 4331   0.055   0.249   9.574
 1215SOL    HW2 4332   0.162   0.129   9.606
 1216SOL     OW 4333   1.183   1.335   9.429
 1216SOL    HW1 4334   1.084   1.324   9.431
 1216SOL    HW2 4335   1.217   1.350   9.522
 1217SOL     OW 4336   0.613   0.842  10.741
 1217SOL    HW1 4337   0.669   0.923  10.724
 1217SOL    HW2 4338   0.672   0.762  10.744
 1218SOL     OW 4339   1.493   1.767  10.269
 1218SOL    HW1 4340   1.526   1.831  10.200
 1218SOL    HW2 4341   1.559   1.761  10.344
 1219SOL     OW 4342   0.716   0.565  11.018
 1219SOL    HW1 4343   0.735   0.630  11.092
 1219SOL    HW2 4344   0.776   0.485  11.027
 1220SOL     OW 4345   0.390   1.741  10.870
 1220SOL    HW1 4346   0.299   1.782  10.868
 1220SOL    HW2 4347   0.383   1.647  10.902
 1221SOL     OW 4348   1.674   0.883  10.564
 1221SOL    HW1 4349   1.647   0.794  10.527
 1221SOL    HW2 4350   1.675   0.951  10.491
 1222SOL     OW 4351   1.225   0.325   9.759
 1222SOL    HW1 4352   1.290   0.251   9.748
 1222SOL    HW2 4353   1.245   0.375   9.843
 1223SOL     OW 4354   0.594   0.745   9.962
 1223SOL    HW1 4355   0.644   0.830   9.943
 1223SOL    HW2 4356   0.506   0.747   9.914
 1224SOL     OW 4357   1.777   0.342  10.952
 1224SOL    HW1 4358   1.760   0.373  10.858
 1224SOL    HW2 4359   1.693   0.305  10.990
 1225SOL     OW 4360   1.730   0.934  10.827
 1225SOL    HW1 4361   1.768   1.025  10.842
 1225SOL    HW2 4362   1.722   0.917  10.728
 1226SOL     OW 4363   0.859   1.374   9.326
 1226SOL    HW1 4364   0.813   1.389   9.414
 1226SOL    HW2 4365   0.903   1.459   9.296
 1227SOL     OW 4366   0.661   1.790  10.263
 1227SOL    HW1 4367   0.615   1.878  10.250
 1227SOL    HW2 4368   0.760   1.802  10.256
 1228SOL     OW 4369   0.859   0.956  10.171
 1228SOL    HW1 4370   0.913   0.887  10.219
 1228SOL    HW2 4371   0.827   1.025  10.237
 1229SOL     OW 4372   1.083   0.984   9.397
 1229SOL    HW1 4373   1.060   1.037   9.315
 1229SOL    HW2 4374   1.164   0.928   9.378
 1230SOL     OW 4375   1.861   1.569  10.161
 1230SOL    HW1 4376   1.790   1.557  10.091
 1230SOL    HW2 4377   1.862   1.490  10.221
 1231SOL     OW 4378   0.079   1.240   9.963
 1231SOL    HW1 4379   0.078   1.193  10.051
 1231SOL    HW2 4380   0.161   1.212   9.912
 1232SOL     OW 4381   0.672   1.391  10.934
 1232SOL    HW1 4382   0.594   1.341  10.972
 1232SOL    HW2 4383   0.669   1.486  10.965
 1233SOL     OW 4384   1.824   0.192  10.537
 1233SOL    HW1 4385   1.820   0.102  10.581
 1233SOL    HW2 4386   1.827   0.181  10.438
 1234SOL     OW 4387   0.428   0.424   9.830
 1234SOL    HW1 4388   0.458   0.352   9.768
 1234SOL    HW2 4389   0.389   0.384   9.913
 1235SOL     OW 4390   1.705   1.487  10.414
 1235SOL    HW1 4391   1.612   1.462  10.387
 1235SOL    HW2 4392   1.731   1.437  10.496
 1236SOL     OW 4393   0.317   0.547  10.590
 1236SOL    HW1 4394   0.355   0.488  10.662
 1236SOL    HW2 4395   0.357   0.521  10.502
 1237SOL     OW 4396   0.812   1.586   9.997
 1237SOL    HW1 4397   0.844   1.596   9.903
 1237SOL    HW2 4398   0.733   1.524   9.999
 1238SOL     OW 4399   1.424   0.214  10.422
 1238SOL    HW1 4400   1.476   0.149  10.477
 1238SOL    HW2 4401   1.375   0.277  10.483
 1239SOL     OW 4402   1.001   0.034  10.464
 1239SOL    HW1 4403   0.938  -0.038  10.433
 1239SOL    HW2 4404   1.094  -0.002  10.464
 1240SOL     OW 4405   0.770   1.330   9.611
 1240SOL    HW1 4406   0.724   1.243   9.628
 1240SOL    HW2 4407   0.861   1.327   9.652
 1241SOL     OW 4408   0.618   1.567  10.594
 1241SOL    HW1 4409   0.613   1.649  10.651
 1241SOL    HW2 4410   0.707   1.564  10.549
 1242SOL     OW 4411   1.352   0.052   9.478
 1242SOL    HW1 4412   1.387   0.011   9.394
 1242SOL    HW2 4413   1.262   0.014   9.498
 1243SOL     OW 4414   1.300   0.453  10.001
 1243SOL    HW1 4415   1.241   0.533  10.005
 1243SOL    HW2 4416   1.315   0.418  10.094
 1244SOL     OW 4417   1.593   0.221  10.192
 1244SOL    HW1 4418   1.509   0.220  10.246
 1244SOL    HW2 4419   1.595   0.304  10.136
 1245SOL     OW 4420   0.039   1.077   9.610
 1245SOL    HW1 4421   0.138   1.066   9.601
 1245SOL    HW2 4422  -0.001   0.991   9.642
 1246SOL     OW 4423   0.875   1.646   9.647
 1246SOL    HW1 4424   0.798   1.611   9.593
 1246SOL    HW2 4425   0.843   1.717   9.709
 1247SOL     OW 4426   0.230   2.490   0.113
 1247SOL    HW1 4427   0.137   2.488   0.150
 1247SOL    HW2 4428   0.231   2.451   0.021
 1248SOL     OW 4429   0.225   2.137   0.996
 1248SOL    HW1 4430   0.260   2.120   1.088
 1248SOL    HW2 4431   0.137   2.092   0.984
 1249SOL     OW 4432   0.019   2.230   0.647
 1249SOL    HW1 4433  -0.063   2.273   0.686
 1249SOL    HW2 4434  -0.009   2.157   0.584
 1250SOL     OW 4435   0.569   3.137   1.165
 1250SOL    HW1 4436   0.476   3.130   1.128
 1250SOL    HW2 4437   0.580   3.226   1.209
 1251SOL     OW 4438   1.555   3.373   0.703
 1251SOL    HW1 4439   1.498   3.357   0.784
 1251SOL    HW2 4440   1.496   3.383   0.623
 1252SOL     OW 4441   1.135   2.565   0.717
 1252SOL    HW1 4442   1.192   2.643   0.692
 1252SOL    HW2 4443   1.075   2.591   0.793
 1253SOL     OW 4444   1.755   2.469   0.231
 1253SOL    HW1 4445   1.743   2.456   0.132
 1253SOL    HW2 4446   1.725   2.388   0.280
 1254SOL     OW 4447   0.768   3.006   1.023
 1254SOL    HW1 4448   0.690   3.023   1.083
 1254SOL    HW2 4449   0.802   3.093   0.987
 1255SOL     OW 4450   0.850   2.660   1.823
 1255SOL    HW1 4451   0.846   2.736   1.888
 1255SOL    HW2 4452   0.872   2.696   1.732
 1256SOL     OW 4453   0.685   2.874   0.665
 1256SOL    HW1 4454   0.754   2.858   0.735
 1256SOL    HW2 4455   0.612   2.931   0.703
 1257SOL     OW 4456   0.686   3.023   1.803
 1257SOL    HW1 4457   0.746   3.102   1.817
 1257SOL    HW2 4458   0.600   3.054   1.762
 1258SOL     OW 4459   0.335   3.297   1.061
 1258SOL    HW1 4460   0.257   3.266   1.008
 1258SOL    HW2 4461   0.393   3.355   1.004
 1259SOL     OW 4462   1.460   3.367   1.339
 1259SOL    HW1 4463   1.484   3.461   1.365
 1259SOL    HW2 4464   1.444   3.313   1.421
 1260SOL     OW 4465   0.438   2.254   1.499
 1260SOL    HW1 4466   0.520   2.198   1.508
 1260SOL    HW2 4467   0.357   2.196   1.503
 1261SOL     OW 4468   1.603   2.309   0.737
 1261SOL    HW1 4469   1.529   2.355   0.687
 1261SOL    HW2 4470   1.654   2.377   0.790
 1262SOL     OW 4471   0.231   3.575   0.483
 1262SOL    HW1 4472   0.265   3.652   0.537
 1262SOL    HW2 4473   0.275   3.575   0.393
 1263SOL     OW 4474   1.127   3.203   1.690
 1263SOL    HW1 4475   1.174   3.203   1.778
 1263SOL    HW2 4476   1.079   3.116   1.679
 1264SOL     OW 4477   0.230   3.296   0.538
 1264SOL    HW1 4478   0.204   3.392   0.538
 1264SOL    HW2 4479   0.159   3.242   0.583
 1265SOL     OW 4480   0.240   2.953   0.886
 1265SOL    HW1 4481   0.254   2.869   0.938
 1265SOL    HW2 4482   0.185   3.017   0.941
 1266SOL     OW 4483   0.620   3.648   1.439
 1266SOL    HW1 4484   0.528   3.631   1.474
 1266SOL    HW2 4485   0.648   3.740   1.465
 1267SOL     OW 4486   0.606   2.826   0.123
 1267SOL    HW1 4487   0.613   2.910   0.069
 1267SOL    HW2 4488   0.652   2.839   0.211
 1268SOL     OW 4489   1.594   1.976   1.480
 1268SOL    HW1 4490   1.576   2.043   1.408
 1268SOL    HW2 4491   1.591   2.022   1.569
 1269SOL     OW 4492   0.122   2.505   0.563
 1269SOL    HW1 4493   0.077   2.417   0.580
 1269SOL    HW2 4494   0.121   2.559   0.647
 1270SOL     OW 4495   1.842   3.629   0.359
 1270SOL    HW1 4496   1.896   3.600   0.439
 1270SOL    HW2 4497   1.872   3.719   0.330
 1271SOL     OW 4498   0.027   3.458   0.117
 1271SOL    HW1 4499   0.008   3.362   0.138
 1271SOL    HW2 4500  -0.006   3.516   0.192
 1272SOL     OW 4501   1.689   2.784   0.612
 1272SOL    HW1 4502   1.784   2.755   0.620
 1272SOL    HW2 4503   1.681   2.849   0.537
 1273SOL     OW 4504   1.641   2.970   0.432
 1273SOL    HW1 4505   1.727   2.972   0.380
 1273SOL    HW2 4506   1.655   3.017   0.520
 1274SOL     OW 4507   0.113   2.599   1.597
 1274SOL    HW1 4508   0.201   2.586   1.642
 1274SOL    HW2 4509   0.100   2.696   1.575
 1275SOL     OW 4510   0.613   3.227   0.726
 1275SOL    HW1 4511   0.564   3.140   0.735
 1275SOL    HW2 4512   0.590   3.270   0.639
 1276SOL     OW 4513   1.293   3.090   1.423
 1276SOL    HW1 4514   1.330   3.017   1.365
 1276SOL    HW2 4515   1.345   3.095   1.508
 1277SOL     OW 4516   0.809   1.866   0.502
 1277SOL    HW1 4517   0.849   1.957   0.493
 1277SOL    HW2 4518   0.709   1.874   0.508
 1278SOL     OW 4519   0.197   2.838   1.264
 1278SOL    HW1 4520   0.286   2.793   1.250
 1278SOL    HW2 4521   0.124   2.773   1.245
 1279SOL     OW 4522   1.525   2.861   0.190
 1279SOL    HW1 4523   1.462   2.785   0.203
 1279SOL    HW2 4524   1.573   2.879   0.276
 1280SOL     OW 4525   1.187   3.654   1.616
 1280SOL    HW1 4526   1.211   3.714   1.540
 1280SOL    HW2 4527   1.194   3.559   1.586
 1281SOL     OW 4528   0.317   2.113   1.801
 1281SOL    HW1 4529   0.388   2.184   1.807
 1281SOL    HW2 4530   0.229   2.152   1.829
 1282SOL     OW 4531   1.466   3.279   0.953
 1282SOL    HW1 4532   1.407   3.285   1.033
 1282SOL    HW2 4533   1.451   3.191   0.907
 1283SOL     OW 4534   1.667   3.576   0.572
 1283SOL    HW1 4535   1.626   3.553   0.484
 1283SOL    HW2 4536   1.649   3.502   0.637
 1284SOL     OW 4537   0.598   2.591   0.270
 1284SOL    HW1 4538   0.622   2.660   0.202
 1284SOL    HW2 4539   0.520   2.624   0.324
 1285SOL     OW 4540   1.281   2.207   0.944
 1285SOL    HW1 4541   1.195   2.157   0.931
 1285SOL    HW2 4542   1.343   2.153   1.000
 1286SOL     OW 4543   1.576   3.524   0.307
 1286SOL    HW1 4544   1.665   3.570   0.310
 1286SOL    HW2 4545   1.555   3.500   0.212
 1287SOL     OW 4546   0.807   2.467   1.465
 1287SOL    HW1 4547   0.760   2.464   1.554
 1287SOL    HW2 4548   0.756   2.412   1.399
 1288SOL     OW 4549   1.394   2.331   1.674
 1288SOL    HW1 4550   1.374   2.374   1.762
 1288SOL    HW2 4551   1.472   2.269   1.683
 1289SOL     OW 4552   0.973   2.752   1.572
 1289SOL    HW1 4553   1.019   2.668   1.543
 1289SOL    HW2 4554   0.917   2.786   1.497
 1290SOL     OW 4555   0.991   2.272   1.242
 1290SOL    HW1 4556   0.914   2.306   1.296
 1290SOL    HW2 4557   0.957   2.221   1.163
 1291SOL     OW 4558   1.041   2.563   0.429
 1291SOL    HW1 4559   1.067   2.559   0.525
 1291SOL    HW2 4560   0.956   2.512   0.415
 1292SOL     OW 4561   0.076   2.673   0.789
 1292SOL    HW1 4562   0.175   2.661   0.798
 1292SOL    HW2 4563   0.052   2.768   0.810
 1293SOL     OW 4564   0.130   3.683   1.571
 1293SOL    HW1 4565   0.120   3.668   1.670
 1293SOL    HW2 4566   0.044   3.719   1.535
 1294SOL     OW 4567   0.865   2.210   0.195
 1294SOL    HW1 4568   0.924   2.273   0.146
 1294SOL    HW2 4569   0.884   2.116   0.166
 1295SOL     OW 4570   1.719   2.447   1.831
 1295SOL    HW1 4571   1.693   2.536   1.795
 1295SOL    HW2 4572   1.717   2.379   1.758
 1296SOL     OW 4573   1.362   3.006   0.545
 1296SOL    HW1 4574   1.445   2.977   0.497
 1296SOL    HW2 4575   1.313   3.073   0.489
 1297SOL     OW 4576   0.550   2.058   0.885
 1297SOL    HW1 4577   0.545   2.053   0.985
 1297SOL    HW2 4578   0.552   2.154   0.856
 1298SOL     OW 4579   1.008   3.318   0.477
 1298SOL    HW1 4580   0.962   3.390   0.425
 1298SOL    HW2 4581   1.004   3.338   0.575
 1299SOL     OW 4582   0.351   3.663   0.853
 1299SOL    HW1 4583   0.401   3.577   0.859
 1299SOL    HW2 4584   0.416   3.740   0.850
 1300SOL     OW 4585   1.795   2.928   0.873
 1300SOL    HW1 4586   1.733   2.913   0.797
 1300SOL    HW2 4587   1.743   2.939   0.958
 1301SOL     OW 4588   1.227   3.412   1.506
 1301SOL    HW1 4589   1.233   3.335   1.570
 1301SOL    HW2 4590   1.175   3.386   1.426
 1302SOL     OW 4591   0.321   2.805   0.242
 1302SOL    HW1 4592   0.403   2.844   0.200
 1302SOL    HW2 4593   0.294   2.723   0.193
 1303SOL     OW 4594   1.458   2.597   0.728
 1303SOL    HW1 4595   1.453   2.532   0.803
 1303SOL    HW2 4596   1.538   2.656   0.741
 1304SOL     OW 4597   0.461   3.128   1.727
 1304SOL    HW1 4598   0.411   3.129   1.641
 1304SOL    HW2 4599   0.398   3.110   1.803
 1305SOL     OW 4600   1.111   3.638   0.237
 1305SOL    HW1 4601   1.051   3.576   0.287
 1305SOL    HW2 4602   1.142   3.594   0.152
 1306SOL     OW 4603   0.202   2.147   1.498
 1306SOL    HW1 4604   0.122   2.207   1.485
 1306SOL    HW2 4605   0.192   2.098   1.584
 1307SOL     OW 4606   1.632   3.239   0.081
 1307SOL    HW1 4607   1.600   3.333   0.071
 1307SOL    HW2 4608   1.556   3.176   0.069
 1308SOL     OW 4609   0.464   3.605   0.323
 1308SOL    HW1 4610   0.497   3.644   0.409
 1308SOL    HW2 4611   0.540   3.598   0.258
 1309SOL     OW 4612   1.400   1.969   0.426
 1309SOL    HW1 4613   1.376   1.932   0.336
 1309SOL    HW2 4614   1.499   1.985   0.430
 1310SOL     OW 4615   0.249   3.647   1.241
 1310SOL    HW1 4616   0.306   3.582   1.291
 1310SOL    HW2 4617   0.233   3.614   1.148
 1311SOL     OW 4618   0.940   3.560   0.904
 1311SOL    HW1 4619   1.020   3.503   0.925
 1311SOL    HW2 4620   0.891   3.520   0.827
 1312SOL     OW 4621   0.382   2.562   0.480
 1312SOL    HW1 4622   0.427   2.472   0.477
 1312SOL    HW2 4623   0.288   2.551   0.513
 1313SOL     OW 4624   1.547   2.084   1.729
 1313SOL    HW1 4625   1.542   2.121   1.821
 1313SOL    HW2 4626   1.475   2.015   1.717
 1314SOL     OW 4627   0.614   1.984   0.117
 1314SOL    HW1 4628   0.712   1.962   0.124
 1314SOL    HW2 4629   0.583   1.967   0.024
 1315SOL     OW 4630   0.781   2.126   1.749
 1315SOL    HW1 4631   0.848   2.065   1.792
 1315SOL    HW2 4632   0.708   2.145   1.814
 1316SOL     OW 4633   0.888   3.376   1.195
 1316SOL    HW1 4634   0.865   3.351   1.101
 1316SOL    HW2 4635   0.949   3.307   1.234
 1317SOL     OW 4636   1.351   2.452   1.433
 1317SOL    HW1 4637   1.379   2.409   1.518
 1317SOL    HW2 4638   1.376   2.548   1.434
 1318SOL     OW 4639   0.803   3.264   0.924
 1318SOL    HW1 4640   0.893   3.278   0.882
 1318SOL    HW2 4641   0.732   3.266   0.853
 1319SOL     OW 4642   0.922   2.365   0.899
 1319SOL    HW1 4643   0.897   2.356   0.803
 1319SOL    HW2 4644   0.970   2.283   0.930
 1320SOL     OW 4645   0.539   1.926   0.512
 1320SOL    HW1 4646   0.458   1.927   0.570
 1320SOL    HW2 4647   0.542   2.009   0.457
 1321SOL     OW 4648   1.434   3.050   0.041
 1321SOL    HW1 4649   1.466   2.974   0.098
 1321SOL    HW2 4650   1.342   3.077   0.071
 1322SOL     OW 4651   0.297   1.897   0.171
 1322SOL    HW1 4652   0.346   1.981   0.150
 1322SOL    HW2 4653   0.359   1.832   0.216
 1323SOL     OW 4654   0.935   2.098   0.480
 1323SOL    HW1 4655   0.887   2.139   0.402
 1323SOL    HW2 4656   1.034   2.096   0.461
 1324SOL     OW 4657   1.076   2.545   1.464
 1324SOL    HW1 4658   0.996   2.484   1.467
 1324SOL    HW2 4659   1.157   2.492   1.440
 1325SOL     OW 4660   1.227   3.432   0.793
 1325SOL    HW1 4661   1.248   3.506   0.728
 1325SOL    HW2 4662   1.295   3.432   0.866
 1326SOL     OW 4663   0.459   3.014   0.741
 1326SOL    HW1 4664   0.388   2.987   0.806
 1326SOL    HW2 4665   0.433   2.986   0.648
 1327SOL     OW 4666   1.271   3.659   0.591
 1327SOL    HW1 4667   1.315   3.723   0.527
 1327SOL    HW2 4668   1.221   3.711   0.661
 1328SOL     OW 4669   1.032   2.411   0.016
 1328SOL    HW1 4670   0.991   2.493  -0.023
 1328SOL    HW2 4671   1.096   2.437   0.089
 1329SOL     OW 4672   0.078   2.418   1.386
 1329SOL    HW1 4673   0.170   2.417   1.345
 1329SOL    HW2 4674   0.072   2.492   1.453
 1330SOL     OW 4675   0.561   2.084   1.147
 1330SOL    HW1 4676   0.599   2.000   1.184
 1330SOL    HW2 4677   0.473   2.103   1.191
 1331SOL     OW 4678   0.866   2.316   0.642
 1331SOL    HW1 4679   0.834   2.388   0.580
 1331SOL    HW2 4680   0.890   2.235   0.589
 1332SOL     OW 4681   1.017   1.901   0.753
 1332SOL    HW1 4682   0.945   1.906   0.684
 1332SOL    HW2 4683   0.993   1.832   0.822
 1333SOL     OW 4684   1.429   3.035   0.867
 1333SOL    HW1 4685   1.374   2.951   0.860
 1333SOL    HW2 4686   1.455   3.064   0.775
 1334SOL     OW 4687   1.466   2.452   0.992
 1334SOL    HW1 4688   1.436   2.357   0.999
 1334SOL    HW2 4689   1.539   2.468   1.058
 1335SOL     OW 4690   1.857   2.695   0.377
 1335SOL    HW1 4691   1.899   2.631   0.441
 1335SOL    HW2 4692   1.819   2.644   0.299
 1336SOL     OW 4693   0.488   3.247   0.174
 1336SOL    HW1 4694   0.401   3.232   0.221
 1336SOL    HW2 4695   0.471   3.273   0.079
 1337SOL     OW 4696   1.664   3.142   0.657
 1337SOL    HW1 4697   1.763   3.150   0.671
 1337SOL    HW2 4698   1.619   3.226   0.688
 1338SOL     OW 4699   1.390   2.437   0.078
 1338SOL    HW1 4700   1.336   2.416   0.159
 1338SOL    HW2 4701   1.481   2.396   0.087
 1339SOL     OW 4702   0.527   2.118   0.328
 1339SOL    HW1 4703   0.554   2.059   0.253
 1339SOL    HW2 4704   0.527   2.213   0.297
 1340SOL     OW 4705   1.754   3.085   1.588
 1340SOL    HW1 4706   1.845   3.046   1.575
 1340SOL    HW2 4707   1.762   3.181   1.612
 1341SOL     OW 4708   1.064   3.209   1.340
 1341SOL    HW1 4709   0.984   3.186   1.395
 1341SOL    HW2 4710   1.147   3.183   1.389
 1342SOL     OW 4711   1.592   3.491   1.625
 1342SOL    HW1 4712   1.619   3.525   1.535
 1342SOL    HW2 4713   1.671   3.453   1.671
 1343SOL     OW 4714   1.111   3.057   1.100
 1343SOL    HW1 4715   1.071   3.101   1.181
 1343SOL    HW2 4716   1.070   3.094   1.017
 1344SOL     OW 4717   1.638   2.961   1.079
 1344SOL    HW1 4718   1.643   3.042   1.138
 1344SOL    HW2 4719   1.552   2.963   1.028
 1345SOL     OW 4720   0.915   1.951   1.402
 1345SOL    HW1 4721   0.940   1.931   1.307
 1345SOL    HW2 4722   0.987   2.007   1.444
 1346SOL     OW 4723   0.980   2.978   1.719
 1346SOL    HW1 4724   0.881   2.984   1.729
 1346SOL    HW2 4725   1.003   2.898   1.663
 1347SOL     OW 4726   0.705   2.912   0.368
 1347SOL    HW1 4727   0.691   2.919   0.467
 1347SOL    HW2 4728   0.789   2.861   0.350
 1348SOL     OW 4729   0.410   2.675   1.251
 1348SOL    HW1 4730   0.496   2.687   1.301
 1348SOL    HW2 4731   0.368   2.588   1.278
 1349SOL     OW 4732   1.274   2.248   1.262
 1349SOL    HW1 4733   1.295   2.322   1.326
 1349SOL    HW2 4734   1.185   2.265   1.219
 1350SOL     OW 4735   0.064   3.426   1.331
 1350SOL    HW1 4736   0.018   3.508   1.297
 1350SOL    HW2 4737   0.162   3.445   1.340
 1351SOL     OW 4738   0.367   2.962   0.501
 1351SOL    HW1 4739   0.360   3.045   0.445
 1351SOL    HW2 4740   0.371   2.882   0.441
 1352SOL     OW 4741   0.566   2.399   0.865
 1352SOL    HW1 4742   0.578   2.465   0.791
 1352SOL    HW2 4743   0.612   2.433   0.948
 1353SOL     OW 4744   1.252   3.210   0.388
 1353SOL    HW1 4745   1.302   3.287   0.428
 1353SOL    HW2 4746   1.157   3.212   0.420
 1354SOL     OW 4747   1.272   3.307   1.142
 1354SOL    HW1 4748   1.319   3.320   1.229
 1354SOL    HW2 4749   1.206   3.233   1.151
 1355SOL     OW 4750   1.582   2.501   0.472
 1355SOL    HW1 4751   1.551   2.562   0.545
 1355SOL    HW2 4752   1.632   2.553   0.403
 1356SOL     OW 4753   0.354   3.372   1.329
 1356SOL    HW1 4754   0.333   3.328   1.242
 1356SOL    HW2 4755   0.451   3.398   1.332
 1357SOL     OW 4756   0.402   2.613   1.598
 1357SOL    HW1 4757   0.470   2.668   1.551
 1357SOL    HW2 4758   0.442   2.525   1.625
 1358SOL     OW 4759   1.587   2.641   1.670
 1358SOL    HW1 4760   1.495   2.679   1.665
 1358SOL    HW2 4761   1.647   2.688   1.605
 1359SOL     OW 4762   1.013   1.967   1.770
 1359SOL    HW1 4763   1.019   2.052   1.718
 1359SOL    HW2 4764   1.045   1.891   1.713
 1360SOL     OW 4765   0.504   1.912   1.740
 1360SOL    HW1 4766   0.462   1.855   1.670
 1360SOL    HW2 4767   0.438   1.981   1.772
 1361SOL     OW 4768   0.573   2.732   1.029
 1361SOL    HW1 4769   0.617   2.821   1.020
 1361SOL    HW2 4770   0.510   2.732   1.106
 1362SOL     OW 4771   1.360   2.724   1.045
 1362SOL    HW1 4772   1.285   2.724   0.979
 1362SOL    HW2 4773   1.397   2.632   1.054
 1363SOL     OW 4774   1.209   2.387   0.275
 1363SOL    HW1 4775   1.222   2.303   0.329
 1363SOL    HW2 4776   1.180   2.461   0.335
 1364SOL     OW 4777   0.307   2.075   1.231
 1364SOL    HW1 4778   0.284   2.112   1.321
 1364SOL    HW2 4779   0.277   1.980   1.225
 1365SOL     OW 4780   0.037   3.172   1.282
 1365SOL    HW1 4781   0.090   3.123   1.350
 1365SOL    HW2 4782   0.059   3.270   1.287
 1366SOL     OW 4783   0.732   2.496   1.064
 1366SOL    HW1 4784   0.791   2.470   0.988
 1366SOL    HW2 4785   0.704   2.592   1.053
 1367SOL     OW 4786   1.728   2.797   1.854
 1367SOL    HW1 4787   1.682   2.790   1.765
 1367SOL    HW2 4788   1.666   2.841   1.920
 1368SOL     OW 4789   0.307   1.925   0.618
 1368SOL    HW1 4790   0.296   2.019   0.651
 1368SOL    HW2 4791   0.302   1.862   0.695
 1369SOL     OW 4792   1.622   2.229   0.374
 1369SOL    HW1 4793   1.624   2.153   0.438
 1369SOL    HW2 4794   1.574   2.306   0.414
 1370SOL     OW 4795   1.023   2.628   0.966
 1370SOL    HW1 4796   1.038   2.649   1.062
 1370SOL    HW2 4797   0.993   2.533   0.957
 1371SOL     OW 4798   0.980   3.435   1.700
 1371SOL    HW1 4799   0.960   3.479   1.612
 1371SOL    HW2 4800   1.019   3.344   1.684
 1372SOL     OW 4801   1.859   3.380   1.605
 1372SOL    HW1 4802   1.873   3.407   1.510
 1372SOL    HW2 4803   1.942   3.402   1.658
 1373SOL     OW 4804   0.350   2.760   1.804
 1373SOL    HW1 4805   0.426   2.804   1.852
 1373SOL    HW2 4806   0.385   2.713   1.722
 1374SOL     OW 4807   1.540   2.136   0.125
 1374SOL    HW1 4808   1.479   2.061   0.148
 1374SOL    HW2 4809   1.562   2.188   0.208
 1375SOL     OW 4810   1.303   2.700   0.042
 1375SOL    HW1 4811   1.337   2.607   0.057
 1375SOL    HW2 4812   1.321   2.727  -0.053
 1376SOL     OW 4813   1.068   3.195   0.849
 1376SOL    HW1 4814   1.075   3.111   0.794
 1376SOL    HW2 4815   1.130   3.264   0.813
 1377SOL     OW 4816   0.319   2.672   0.949
 1377SOL    HW1 4817   0.412   2.708   0.954
 1377SOL    HW2 4818   0.313   2.587   1.001
 1378SOL     OW 4819   0.339   2.371   1.006
 1378SOL    HW1 4820   0.287   2.288   0.989
 1378SOL    HW2 4821   0.416   2.376   0.942
 1379SOL     OW 4822   1.138   2.242   1.678
 1379SOL    HW1 4823   1.093   2.305   1.742
 1379SOL    HW2 4824   1.231   2.273   1.661
 1380SOL     OW 4825   1.160   2.069   1.477
 1380SOL    HW1 4826   1.160   2.133   1.554
 1380SOL    HW2 4827   1.188   2.117   1.394
 1381SOL     OW 4828   0.008   3.188   0.200
 1381SOL    HW1 4829  -0.085   3.209   0.169
 1381SOL    HW2 4830   0.018   3.089   0.213
 1382SOL     OW 4831   0.088   3.663   0.927
 1382SOL    HW1 4832   0.046   3.577   0.900
 1382SOL    HW2 4833   0.182   3.666   0.893
 1383SOL     OW 4834   0.504   3.430   0.910
 1383SOL    HW1 4835   0.570   3.504   0.919
 1383SOL    HW2 4836   0.548   3.351   0.868
 1384SOL     OW 4837   1.002   2.658   1.238
 1384SOL    HW1 4838   1.043   2.626   1.324
 1384SOL    HW2 4839   0.906   2.631   1.235
 1385SOL     OW 4840   0.040   2.406   1.114
 1385SOL    HW1 4841   0.125   2.373   1.073
 1385SOL    HW2 4842   0.053   2.421   1.212
 1386SOL     OW 4843   0.189   2.382   1.722
 1386SOL    HW1 4844   0.248   2.342   1.652
 1386SOL    HW2 4845   0.131   2.453   1.681
 1387SOL     OW 4846   1.369   2.812   1.660
 1387SOL    HW1 4847   1.408   2.901   1.680
 1387SOL    HW2 4848   1.379   2.792   1.563
 1388SOL     OW 4849   0.815   2.434   0.325
 1388SOL    HW1 4850   0.822   2.345   0.279
 1388SOL    HW2 4851   0.721   2.468   0.317
 1389SOL     OW 4852   1.657   2.466   1.206
 1389SOL    HW1 4853   1.619   2.397   1.268
 1389SOL    HW2 4854   1.739   2.430   1.162
 1390SOL     OW 4855   0.252   3.426   1.744
 1390SOL    HW1 4856   0.222   3.483   1.820
 1390SOL    HW2 4857   0.245   3.329   1.770
 1391SOL     OW 4858   0.671   2.326   1.269
 1391SOL    HW1 4859   0.637   2.237   1.239
 1391SOL    HW2 4860   0.697   2.380   1.189
 1392SOL     OW 4861   0.930   3.540   1.465
 1392SOL    HW1 4862   0.906   3.522   1.370
 1392SOL    HW2 4863   0.960   3.634   1.475
 1393SOL     OW 4864   0.473   2.362   0.191
 1393SOL    HW1 4865   0.534   2.442   0.195
 1393SOL    HW2 4866   0.378   2.393   0.198
 1394SOL     OW 4867   0.159   2.999   1.466
 1394SOL    HW1 4868   0.181   2.938   1.542
 1394SOL    HW2 4869   0.169   2.950   1.380
 1395SOL     OW 4870   1.347   2.921   1.234
 1395SOL    HW1 4871   1.371   2.858   1.160
 1395SOL    HW2 4872   1.257   2.961   1.216
 1396SOL     OW 4873   1.302   2.717   0.309
 1396SOL    HW1 4874   1.216   2.686   0.351
 1396SOL    HW2 4875   1.298   2.703   0.210
 1397SOL     OW 4876   1.759   3.609   1.154
 1397SOL    HW1 4877   1.820   3.639   1.081
 1397SOL    HW2 4878   1.721   3.520   1.132
 1398SOL     OW 4879   1.252   3.593   1.128
 1398SOL    HW1 4880   1.336   3.598   1.074
 1398SOL    HW2 4881   1.229   3.497   1.146
 1399SOL     OW 4882   0.083   3.120   1.022
 1399SOL    HW1 4883   0.078   3.119   1.122
 1399SOL    HW2 4884   0.000   3.079   0.984
 1400SOL     OW 4885   0.688   3.524   1.716
 1400SOL    HW1 4886   0.632   3.605   1.725
 1400SOL    HW2 4887   0.740   3.528   1.630
 1401SOL     OW 4888   0.903   1.948   0.133
 1401SOL    HW1 4889   0.954   1.949   0.047
 1401SOL    HW2 4890   0.959   1.906   0.204
 1402SOL     OW 4891   1.726   1.997   0.523
 1402SOL    HW1 4892   1.799   1.980   0.456
 1402SOL    HW2 4893   1.695   1.910   0.561
 1403SOL     OW 4894   1.388   3.435   0.477
 1403SOL    HW1 4895   1.455   3.447   0.403
 1403SOL    HW2 4896   1.348   3.524   0.500
 1404SOL     OW 4897   0.130   3.656   1.851
 1404SOL    HW1 4898   0.089   3.582   1.904
 1404SOL    HW2 4899   0.194   3.707   1.909
 1405SOL     OW 4900   1.280   2.789   0.672
 1405SOL    HW1 4901   1.340   2.708   0.674
 1405SOL    HW2 4902   1.320   2.858   0.612
 1406SOL     OW 4903   0.830   3.135   1.422
 1406SOL    HW1 4904   0.825   3.168   1.517
 1406SOL    HW2 4905   0.744   3.154   1.376
 1407SOL     OW 4906   0.672   3.478   0.154
 1407SOL    HW1 4907   0.681   3.488   0.055
 1407SOL    HW2 4908   0.632   3.389   0.175
 1408SOL     OW 4909   1.650   3.582   1.394
 1408SOL    HW1 4910   1.703   3.592   1.310
 1408SOL    HW2 4911   1.623   3.672   1.428
 1409SOL     OW 4912   1.841   2.037   0.963
 1409SOL    HW1 4913   1.880   1.952   0.927
 1409SOL    HW2 4914   1.743   2.039   0.944
 1410SOL     OW 4915   0.263   2.188   0.720
 1410SOL    HW1 4916   0.184   2.239   0.686
 1410SOL    HW2 4917   0.254   2.173   0.818
 1411SOL     OW 4918   1.194   3.474   0.031
 1411SOL    HW1 4919   1.200   3.381   0.068
 1411SOL    HW2 4920   1.135   3.474  -0.049
 1412SOL     OW 4921   0.822   2.864   1.372
 1412SOL    HW1 4922   0.862   2.863   1.280
 1412SOL    HW2 4923   0.832   2.956   1.412
 1413SOL     OW 4924   0.916   2.772   0.291
 1413SOL    HW1 4925   0.979   2.810   0.223
 1413SOL    HW2 4926   0.956   2.689   0.330
 1414SOL     OW 4927   1.504   3.469   0.044
 1414SOL    HW1 4928   1.412   3.506   0.051
 1414SOL    HW2 4929   1.542   3.489  -0.046
 1415SOL     OW 4930   0.372   3.150   1.490
 1415SOL    HW1 4931   0.359   3.243   1.456
 1415SOL    HW2 4932   0.288   3.098   1.477
 1416SOL     OW 4933   1.614   3.154   1.289
 1416SOL    HW1 4934   1.674   3.157   1.369
 1416SOL    HW2 4935   1.539   3.218   1.302
 1417SOL     OW 4936   1.039   2.960   0.696
 1417SOL    HW1 4937   0.969   2.913   0.750
 1417SOL    HW2 4938   1.098   2.892   0.653
 1418SOL     OW 4939   1.014   2.098   0.971
 1418SOL    HW1 4940   1.006   2.062   0.878
 1418SOL    HW2 4941   1.012   2.022   1.036
 1419SOL     OW 4942   0.590   3.349   0.491
 1419SOL    HW1 4943   0.632   3.291   0.421
 1419SOL    HW2 4944   0.546   3.428   0.447
 1420SOL     OW 4945   1.709   2.247   1.381
 1420SOL    HW1 4946   1.782   2.316   1.385
 1420SOL    HW2 4947   1.737   2.172   1.322
 1421SOL     OW 4948   0.255   3.210   0.290
 1421SOL    HW1 4949   0.159   3.211   0.263
 1421SOL    HW2 4950   0.267   3.263   0.374
 1422SOL     OW 4951   0.105   2.875   1.726
 1422SOL    HW1 4952   0.028   2.842   1.780
 1422SOL    HW2 4953   0.190   2.845   1.768
 1423SOL     OW 4954   0.672   2.065   1.489
 1423SOL    HW1 4955   0.762   2.049   1.449
 1423SOL    HW2 4956   0.680   2.070   1.588
 1424SOL     OW 4957   0.075   2.207   0.033
 1424SOL    HW1 4958  -0.017   2.179   0.004
 1424SOL    HW2 4959   0.106   2.284  -0.023
 1425SOL     OW 4960   1.440   2.718   1.398
 1425SOL    HW1 4961   1.383   2.770   1.335
 1425SOL    HW2 4962   1.536   2.730   1.374
 1426SOL     OW 4963   0.072   2.028   0.318
 1426SOL    HW1 4964   0.055   2.111   0.264
 1426SOL    HW2 4965   0.162   1.991   0.296
 1427SOL     OW 4966   1.183   3.197   0.119
 1427SOL    HW1 4967   1.084   3.186   0.121
 1427SOL    HW2 4968   1.217   3.212   0.212
 1428SOL     OW 4969   0.613   2.704   1.431
 1428SOL    HW1 4970   0.669   2.785   1.414
 1428SOL    HW2 4971   0.672   2.624   1.434
 1429SOL     OW 4972   1.493   3.629   0.959
 1429SOL    HW1 4973   1.526   3.693   0.890
 1429SOL    HW2 4974   1.559   3.623   1.034
 1430SOL     OW 4975   0.716   2.427   1.708
 1430SOL    HW1 4976   0.735   2.492   1.782
 1430SOL    HW2 4977   0.776   2.347   1.717
 1431SOL     OW 4978   1.450   3.082   1.633
 1431SOL    HW1 4979   1.441   3.072   1.732
 1431SOL    HW2 4980   1.546   3.075   1.607
 1432SOL     OW 4981   0.390   3.603   1.560
 1432SOL    HW1 4982   0.299   3.644   1.558
 1432SOL    HW2 4983   0.383   3.509   1.592
 1433SOL     OW 4984   1.674   2.745   1.254
 1433SOL    HW1 4985   1.647   2.656   1.217
 1433SOL    HW2 4986   1.675   2.813   1.181
 1434SOL     OW 4987   1.225   2.187   0.449
 1434SOL    HW1 4988   1.290   2.113   0.438
 1434SOL    HW2 4989   1.245   2.237   0.533
 1435SOL     OW 4990   0.594   2.607   0.652
 1435SOL    HW1 4991   0.644   2.692   0.633
 1435SOL    HW2 4992   0.506   2.609   0.604
 1436SOL     OW 4993   1.777   2.204   1.642
 1436SOL    HW1 4994   1.760   2.235   1.548
 1436SOL    HW2 4995   1.693   2.167   1.680
 1437SOL     OW 4996   1.730   2.796   1.517
 1437SOL    HW1 4997   1.768   2.887   1.532
 1437SOL    HW2 4998   1.722   2.779   1.418
 1438SOL     OW 4999   0.859   3.236   0.016
 1438SOL    HW1 5000   0.813   3.251   0.104
 1438SOL    HW2 5001   0.903   3.321  -0.014
 1439SOL     OW 5002   0.661   3.652   0.953
 1439SOL    HW1 5003   0.615   3.740   0.940
 1439SOL    HW2 5004   0.760   3.664   0.946
 1440SOL     OW 5005   0.859   2.818   0.861
 1440SOL    HW1 5006   0.913   2.749   0.909
 1440SOL    HW2 5007   0.827   2.887   0.927
 1441SOL     OW 5008   1.083   2.846   0.087
 1441SOL    HW1 5009   1.060   2.899   0.005
 1441SOL    HW2 5010   1.164   2.790   0.068
 1442SOL     OW 5011   1.861   3.431   0.851
 1442SOL    HW1 5012   1.790   3.419   0.781
 1442SOL    HW2 5013   1.862   3.352   0.911
 1443SOL     OW 5014   0.221   3.176   1.844
 1443SOL    HW1 5015   0.156   3.103   1.823
 1443SOL    HW2 5016   0.225   3.190   1.942
 1444SOL     OW 5017   0.079   3.102   0.653
 1444SOL    HW1 5018   0.078   3.055   0.741
 1444SOL    HW2 5019   0.161   3.074   0.602
 1445SOL     OW 5020   0.672   3.253   1.624
 1445SOL    HW1 5021   0.594   3.203   1.662
 1445SOL    HW2 5022   0.669   3.348   1.655
 1446SOL     OW 5023   1.824   2.054   1.227
 1446SOL    HW1 5024   1.820   1.964   1.271
 1446SOL    HW2 5025   1.827   2.043   1.128
 1447SOL     OW 5026   0.428   2.286   0.520
 1447SOL    HW1 5027   0.458   2.214   0.458
 1447SOL    HW2 5028   0.389   2.246   0.603
 1448SOL     OW 5029   1.705   3.349   1.104
 1448SOL    HW1 5030   1.612   3.324   1.077
 1448SOL    HW2 5031   1.731   3.299   1.186
 1449SOL     OW 5032   0.317   2.409   1.280
 1449SOL    HW1 5033   0.355   2.350   1.352
 1449SOL    HW2 5034   0.357   2.383   1.192
 1450SOL     OW 5035   0.812   3.448   0.687
 1450SOL    HW1 5036   0.844   3.458   0.593
 1450SOL    HW2 5037   0.733   3.386   0.689
 1451SOL     OW 5038   1.424   2.076   1.112
 1451SOL    HW1 5039   1.476   2.011   1.167
 1451SOL    HW2 5040   1.375   2.139   1.173
 1452SOL     OW 5041   1.001   1.896   1.154
 1452SOL    HW1 5042   0.938   1.824   1.123
 1452SOL    HW2 5043   1.094   1.860   1.154
 1453SOL     OW 5044   0.770   3.192   0.301
 1453SOL    HW1 5045   0.724   3.105   0.318
 1453SOL    HW2 5046   0.861   3.189   0.342
 1454SOL     OW 5047   0.618   3.429   1.284
 1454SOL    HW1 5048   0.613   3.511   1.341
 1454SOL    HW2 5049   0.707   3.426   1.239
 1455SOL     OW 5050   1.352   1.914   0.168
 1455SOL    HW1 5051   1.387   1.873   0.084
 1455SOL    HW2 5052   1.262   1.876   0.188
 1456SOL     OW 5053   1.300   2.315   0.691
 1456SOL    HW1 5054   1.241   2.395   0.695
 1456SOL    HW2 5055   1.315   2.280   0.784
 1457SOL     OW 5056   1.593   2.083   0.882
 1457SOL    HW1 5057   1.509   2.082   0.936
 1457SOL    HW2 5058   1.595   2.166   0.826
 1458SOL     OW 5059   0.039   2.939   0.300
 1458SOL    HW1 5060   0.138   2.928   0.291
 1458SOL    HW2 5061  -0.001   2.853   0.332
 1459SOL     OW 5062   0.875   3.508   0.337
 1459SOL    HW1 5063   0.798   3.473   0.283
 1459SOL    HW2 5064   0.843   3.579   0.399
 1460SOL     OW 5065   0.230   2.490   1.975
 1460SOL    HW1 5066   0.137   2.488   2.012
 1460SOL    HW2 5067   0.231   2.451   1.883
 1461SOL     OW 5068   0.225   2.137   2.858
 1461SOL    HW1 5069   0.260   2.120   2.950
 1461SOL    HW2 5070   0.137   2.092   2.846
 1462SOL     OW 5071   0.019   2.230   2.509
 1462SOL    HW1 5072  -0.063   2.273   2.548
 1462SOL    HW2 5073  -0.009   2.157   2.446
 1463SOL     OW 5074   0.569   3.137   3.027
 1463SOL    HW1 5075   0.476   3.130   2.990
 1463SOL    HW2 5076   0.580   3.226   3.071
 1464SOL     OW 5077   1.555   3.373   2.565
 1464SOL    HW1 5078   1.498   3.357   2.646
 1464SOL    HW2 5079   1.496   3.383   2.485
 1465SOL     OW 5080   1.135   2.565   2.579
 1465SOL    HW1 5081   1.192   2.643   2.554
 1465SOL    HW2 5082   1.075   2.591   2.655
 1466SOL     OW 5083   1.755   2.469   2.093
 1466SOL    HW1 5084   1.743   2.456   1.994
 1466SOL    HW2 5085   1.725   2.388   2.142
 1467SOL     OW 5086   0.768   3.006   2.885
 1467SOL    HW1 5087   0.690   3.023   2.945
 1467SOL    HW2 5088   0.802   3.093   2.849
 1468SOL     OW 5089   0.850   2.660   3.685
 1468SOL    HW1 5090   0.846   2.736   3.750
 1468SOL    HW2 5091   0.872   2.696   3.594
 1469SOL     OW 5092   0.685   2.874   2.527
 1469SOL    HW1 5093   0.754   2.858   2.597
 1469SOL    HW2 5094   0.612   2.931   2.565
 1470SOL     OW 5095   0.686   3.023   3.665
 1470SOL    HW1 5096   0.746   3.102   3.679
 1470SOL    HW2 5097   0.600   3.054   3.624
 1471SOL     OW 5098   0.335   3.297   2.923
 1471SOL    HW1 5099   0.257   3.266   2.870
 1471SOL    HW2 5100   0.393   3.355   2.866
 1472SOL     OW 5101   1.460   3.367   3.201
 1472SOL    HW1 5102   1.484   3.461   3.227
 1472SOL    HW2 5103   1.444   3.313   3.283
 1473SOL     OW 5104   0.438   2.254   3.361
 1473SOL    HW1 5105   0.520   2.198   3.370
 1473SOL    HW2 5106   0.357   2.196   3.365
 1474SOL     OW 5107   1.603   2.309   2.599
 1474SOL    HW1 5108   1.529   2.355   2.549
 1474SOL    HW2 5109   1.654   2.377   2.652
 1475SOL     OW 5110   0.231   3.575   2.345
 1475SOL    HW1 5111   0.265   3.652   2.399
 1475SOL    HW2 5112   0.275   3.575   2.255
 1476SOL     OW 5113   1.127   3.203   3.552
 1476SOL    HW1 5114   1.174   3.203   3.640
 1476SOL    HW2 5115   1.079   3.116   3.541
 1477SOL     OW 5116   0.230   3.296   2.400
 1477SOL    HW1 5117   0.204   3.392   2.400
 1477SOL    HW2 5118   0.159   3.242   2.445
 1478SOL     OW 5119   0.240   2.953   2.748
 1478SOL    HW1 5120   0.254   2.869   2.800
 1478SOL    HW2 5121   0.185   3.017   2.803
 1479SOL     OW 5122   0.620   3.648   3.301
 1479SOL    HW1 5123   0.528   3.631   3.336
 1479SOL    HW2 5124   0.648   3.740   3.327
 1480SOL     OW 5125   0.606   2.826   1.985
 1480SOL    HW1 5126   0.613   2.910   1.931
 1480SOL    HW2 5127   0.652   2.839   2.073
 1481SOL     OW 5128   1.594   1.976   3.342
 1481SOL    HW1 5129   1.576   2.043   3.270
 1481SOL    HW2 5130   1.591   2.022   3.431
 1482SOL     OW 5131   0.122   2.505   2.425
 1482SOL    HW1 5132   0.077   2.417   2.442
 1482SOL    HW2 5133   0.121   2.559   2.509
 1483SOL     OW 5134   1.842   3.629   2.221
 1483SOL    HW1 5135   1.896   3.600   2.301
 1483SOL    HW2 5136   1.872   3.719   2.192
 1484SOL     OW 5137   0.027   3.458   1.979
 1484SOL    HW1 5138   0.008   3.362   2.000
 1484SOL    HW2 5139  -0.006   3.516   2.054
 1485SOL     OW 5140   1.689   2.784   2.474
 1485SOL    HW1 5141   1.784   2.755   2.482
 1485SOL    HW2 5142   1.681   2.849   2.399
 1486SOL     OW 5143   1.641   2.970   2.294
 1486SOL    HW1 5144   1.727   2.972   2.242
 1486SOL    HW2 5145   1.655   3.017   2.382
 1487SOL     OW 5146   0.113   2.599   3.459
 1487SOL    HW1 5147   0.201   2.586   3.504
 1487SOL    HW2 5148   0.100   2.696   3.437
 1488SOL     OW 5149   0.613   3.227   2.588
 1488SOL    HW1 5150   0.564   3.140   2.597
 1488SOL    HW2 5151   0.590   3.270   2.501
 1489SOL     OW 5152   1.293   3.090   3.285
 1489SOL    HW1 5153   1.330   3.017   3.227
 1489SOL    HW2 5154   1.345   3.095   3.370
 1490SOL     OW 5155   0.809   1.866   2.364
 1490SOL    HW1 5156   0.849   1.957   2.355
 1490SOL    HW2 5157   0.709   1.874   2.370
 1491SOL     OW 5158   0.197   2.838   3.126
 1491SOL    HW1 5159   0.286   2.793   3.112
 1491SOL    HW2 5160   0.124   2.773   3.107
 1492SOL     OW 5161   1.525   2.861   2.052
 1492SOL    HW1 5162   1.462   2.785   2.065
 1492SOL    HW2 5163   1.573   2.879   2.138
 1493SOL     OW 5164   1.187   3.654   3.478
 1493SOL    HW1 5165   1.211   3.714   3.402
 1493SOL    HW2 5166   1.194   3.559   3.448
 1494SOL     OW 5167   0.317   2.113   3.663
 1494SOL    HW1 5168   0.388   2.184   3.669
 1494SOL    HW2 5169   0.229   2.152   3.691
 1495SOL     OW 5170   1.466   3.279   2.815
 1495SOL    HW1 5171   1.407   3.285   2.895
 1495SOL    HW2 5172   1.451   3.191   2.769
 1496SOL     OW 5173   1.667   3.576   2.434
 1496SOL    HW1 5174   1.626   3.553   2.346
 1496SOL    HW2 5175   1.649   3.502   2.499
 1497SOL     OW 5176   0.598   2.591   2.132
 1497SOL    HW1 5177   0.622   2.660   2.064
 1497SOL    HW2 5178   0.520   2.624   2.186
 1498SOL     OW 5179   1.281   2.207   2.806
 1498SOL    HW1 5180   1.195   2.157   2.793
 1498SOL    HW2 5181   1.343   2.153   2.862
 1499SOL     OW 5182   1.576   3.524   2.169
 1499SOL    HW1 5183   1.665   3.570   2.172
 1499SOL    HW2 5184   1.555   3.500   2.074
 1500SOL     OW 5185   0.807   2.467   3.327
 1500SOL    HW1 5186   0.760   2.464   3.416
 1500SOL    HW2 5187   0.756   2.412   3.261
 1501SOL     OW 5188   1.394   2.331   3.536
 1501SOL    HW1 5189   1.374   2.374   3.624
 1501SOL    HW2 5190   1.472   2.269   3.545
 1502SOL     OW 5191   0.973   2.752   3.434
 1502SOL    HW1 5192   1.019   2.668   3.405
 1502SOL    HW2 5193   0.917   2.786   3.359
 1503SOL     OW 5194   0.991   2.272   3.104
 1503SOL    HW1 5195   0.914   2.306   3.158
 1503SOL    HW2 5196   0.957   2.221   3.025
 1504SOL     OW 5197   1.041   2.563   2.291
 1504SOL    HW1 5198   1.067   2.559   2.387
 1504SOL    HW2 5199   0.956   2.512   2.277
 1505SOL     OW 5200   0.076   2.673   2.651
 1505SOL    HW1 5201   0.175   2.661   2.660
 1505SOL    HW2 5202   0.052   2.768   2.672
 1506SOL     OW 5203   0.130   3.683   3.433
 1506SOL    HW1 5204   0.120   3.668   3.532
 1506SOL    HW2 5205   0.044   3.719   3.397
 1507SOL     OW 5206   0.865   2.210   2.057
 1507SOL    HW1 5207   0.924   2.273   2.008
 1507SOL    HW2 5208   0.884   2.116   2.028
 1508SOL     OW 5209   1.719   2.447   3.693
 1508SOL    HW1 5210   1.693   2.536   3.657
 1508SOL    HW2 5211   1.717   2.379   3.620
 1509SOL     OW 5212   1.362   3.006   2.407
 1509SOL    HW1 5213   1.445   2.977   2.359
 1509SOL    HW2 5214   1.313   3.073   2.351
 1510SOL     OW 5215   0.550   2.058   2.747
 1510SOL    HW1 5216   0.545   2.053   2.847
 1510SOL    HW2 5217   0.552   2.154   2.718
 1511SOL     OW 5218   1.008   3.318   2.339
 1511SOL    HW1 5219   0.962   3.390   2.287
 1511SOL    HW2 5220   1.004   3.338   2.437
 1512SOL     OW 5221   0.351   3.663   2.715
 1512SOL    HW1 5222   0.401   3.577   2.721
 1512SOL    HW2 5223   0.416   3.740   2.712
 1513SOL     OW 5224   1.795   2.928   2.735
 1513SOL    HW1 5225   1.733   2.913   2.659
 1513SOL    HW2 5226   1.743   2.939   2.820
 1514SOL     OW 5227   1.227   3.412   3.368
 1514SOL    HW1 5228   1.233   3.335   3.432
 1514SOL    HW2 5229   1.175   3.386   3.288
 1515SOL     OW 5230   0.321   2.805   2.104
 1515SOL    HW1 5231   0.403   2.844   2.062
 1515SOL    HW2 5232   0.294   2.723   2.055
 1516SOL     OW 5233   1.458   2.597   2.590
 1516SOL    HW1 5234   1.453   2.532   2.665
 1516SOL    HW2 5235   1.538   2.656   2.603
 1517SOL     OW 5236   0.461   3.128   3.589
 1517SOL    HW1 5237   0.411   3.129   3.503
 1517SOL    HW2 5238   0.398   3.110   3.665
 1518SOL     OW 5239   1.111   3.638   2.099
 1518SOL    HW1 5240   1.051   3.576   2.149
 1518SOL    HW2 5241   1.142   3.594   2.014
 1519SOL     OW 5242   0.202   2.147   3.360
 1519SOL    HW1 5243   0.122   2.207   3.347
 1519SOL    HW2 5244   0.192   2.098   3.446
 1520SOL     OW 5245   1.632   3.239   1.943
 1520SOL    HW1 5246   1.600   3.333   1.933
 1520SOL    HW2 5247   1.556   3.176   1.931
 1521SOL     OW 5248   0.464   3.605   2.185
 1521SOL    HW1 5249   0.497   3.644   2.271
 1521SOL    HW2 5250   0.540   3.598   2.120
 1522SOL     OW 5251   1.400   1.969   2.288
 1522SOL    HW1 5252   1.376   1.932   2.198
 1522SOL    HW2 5253   1.499   1.985   2.292
 1523SOL     OW 5254   0.249   3.647   3.103
 1523SOL    HW1 5255   0.306   3.582   3.153
 1523SOL    HW2 5256   0.233   3.614   3.010
 1524SOL     OW 5257   0.940   3.560   2.766
 1524SOL    HW1 5258   1.020   3.503   2.787
 1524SOL    HW2 5259   0.891   3.520   2.689
 1525SOL     OW 5260   0.382   2.562   2.342
 1525SOL    HW1 5261   0.427   2.472   2.339
 1525SOL    HW2 5262   0.288   2.551   2.375
 1526SOL     OW 5263   1.547   2.084   3.591
 1526SOL    HW1 5264   1.542   2.121   3.683
 1526SOL    HW2 5265   1.475   2.015   3.579
 1527SOL     OW 5266   0.614   1.984   1.979
 1527SOL    HW1 5267   0.712   1.962   1.986
 1527SOL    HW2 5268   0.583   1.967   1.886
 1528SOL     OW 5269   0.781   2.126   3.611
 1528SOL    HW1 5270   0.848   2.065   3.654
 1528SOL    HW2 5271   0.708   2.145   3.676
 1529SOL     OW 5272   0.888   3.376   3.057
 1529SOL    HW1 5273   0.865   3.351   2.963
 1529SOL    HW2 5274   0.949   3.307   3.096
 1530SOL     OW 5275   1.351   2.452   3.295
 1530SOL    HW1 5276   1.379   2.409   3.380
 1530SOL    HW2 5277   1.376   2.548   3.296
 1531SOL     OW 5278   0.803   3.264   2.786
 1531SOL    HW1 5279   0.893   3.278   2.744
 1531SOL    HW2 5280   0.732   3.266   2.715
 1532SOL     OW 5281   0.922   2.365   2.761
 1532SOL    HW1 5282   0.897   2.356   2.665
 1532SOL    HW2 5283   0.970   2.283   2.792
 1533SOL     OW 5284   0.539   1.926   2.374
 1533SOL    HW1 5285   0.458   1.927   2.432
 1533SOL    HW2 5286   0.542   2.009   2.319
 1534SOL     OW 5287   1.434   3.050   1.903
 1534SOL    HW1 5288   1.466   2.974   1.960
 1534SOL    HW2 5289   1.342   3.077   1.933
 1535SOL     OW 5290   0.297   1.897   2.033
 1535SOL    HW1 5291   0.346   1.981   2.012
 1535SOL    HW2 5292   0.359   1.832   2.078
 1536SOL     OW 5293   0.935   2.098   2.342
 1536SOL    HW1 5294   0.887   2.139   2.264
 1536SOL    HW2 5295   1.034   2.096   2.323
 1537SOL     OW 5296   1.076   2.545   3.326
 1537SOL    HW1 5297   0.996   2.484   3.329
 1537SOL    HW2 5298   1.157   2.492   3.302
 1538SOL     OW 5299   1.227   3.432   2.655
 1538SOL    HW1 5300   1.248   3.506   2.590
 1538SOL    HW2 5301   1.295   3.432   2.728
 1539SOL     OW 5302   0.459   3.014   2.603
 1539SOL    HW1 5303   0.388   2.987   2.668
 1539SOL    HW2 5304   0.433   2.986   2.510
 1540SOL     OW 5305   1.271   3.659   2.453
 1540SOL    HW1 5306   1.315   3.723   2.389
 1540SOL    HW2 5307   1.221   3.711   2.523
 1541SOL     OW 5308   1.032   2.411   1.878
 1541SOL    HW1 5309   0.991   2.493   1.839
 1541SOL    HW2 5310   1.096   2.437   1.951
 1542SOL     OW 5311   0.078   2.418   3.248
 1542SOL    HW1 5312   0.170   2.417   3.207
 1542SOL    HW2 5313   0.072   2.492   3.315
 1543SOL     OW 5314   0.561   2.084   3.009
 1543SOL    HW1 5315   0.599   2.000   3.046
 1543SOL    HW2 5316   0.473   2.103   3.053
 1544SOL     OW 5317   0.866   2.316   2.504
 1544SOL    HW1 5318   0.834   2.388   2.442
 1544SOL    HW2 5319   0.890   2.235   2.451
 1545SOL     OW 5320   1.017   1.901   2.615
 1545SOL    HW1 5321   0.945   1.906   2.546
 1545SOL    HW2 5322   0.993   1.832   2.684
 1546SOL     OW 5323   1.429   3.035   2.729
 1546SOL    HW1 5324   1.374   2.951   2.722
 1546SOL    HW2 5325   1.455   3.064   2.637
 1547SOL     OW 5326   1.466   2.452   2.854
 1547SOL    HW1 5327   1.436   2.357   2.861
 1547SOL    HW2 5328   1.539   2.468   2.920
 1548SOL     OW 5329   1.857   2.695   2.239
 1548SOL    HW1 5330   1.899   2.631   2.303
 1548SOL    HW2 5331   1.819   2.644   2.161
 1549SOL     OW 5332   0.488   3.247   2.036
 1549SOL    HW1 5333   0.401   3.232   2.083
 1549SOL    HW2 5334   0.471   3.273   1.941
 1550SOL     OW 5335   1.664   3.142   2.519
 1550SOL    HW1 5336   1.763   3.150   2.533
 1550SOL    HW2 5337   1.619   3.226   2.550
 1551SOL     OW 5338   1.390   2.437   1.940
 1551SOL    HW1 5339   1.336   2.416   2.021
 1551SOL    HW2 5340   1.481   2.396   1.949
 1552SOL     OW 5341   0.527   2.118   2.190
 1552SOL    HW1 5342   0.554   2.059   2.115
 1552SOL    HW2 5343   0.527   2.213   2.159
 1553SOL     OW 5344   1.754   3.085   3.450
 1553SOL    HW1 5345   1.845   3.046   3.437
 1553SOL    HW2 5346   1.762   3.181   3.474
 1554SOL     OW 5347   1.064   3.209   3.202
 1554SOL    HW1 5348   0.984   3.186   3.257
 1554SOL    HW2 5349   1.147   3.183   3.251
 1555SOL     OW 5350   1.592   3.491   3.487
 1555SOL    HW1 5351   1.619   3.525   3.397
 1555SOL    HW2 5352   1.671   3.453   3.533
 1556SOL     OW 5353   1.111   3.057   2.962
 1556SOL    HW1 5354   1.071   3.101   3.043
 1556SOL    HW2 5355   1.070   3.094   2.879
 1557SOL     OW 5356   1.638   2.961   2.941
 1557SOL    HW1 5357   1.643   3.042   3.000
 1557SOL    HW2 5358   1.552   2.963   2.890
 1558SOL     OW 5359   0.915   1.951   3.264
 1558SOL    HW1 5360   0.940   1.931   3.169
 1558SOL    HW2 5361   0.987   2.007   3.306
 1559SOL     OW 5362   0.980   2.978   3.581
 1559SOL    HW1 5363   0.881   2.984   3.591
 1559SOL    HW2 5364   1.003   2.898   3.525
 1560SOL     OW 5365   0.705   2.912   2.230
 1560SOL    HW1 5366   0.691   2.919   2.329
 1560SOL    HW2 5367   0.789   2.861   2.212
 1561SOL     OW 5368   0.410   2.675   3.113
 1561SOL    HW1 5369   0.496   2.687   3.163
 1561SOL    HW2 5370   0.368   2.588   3.140
 1562SOL     OW 5371   1.274   2.248   3.124
 1562SOL    HW1 5372   1.295   2.322   3.188
 1562SOL    HW2 5373   1.185   2.265   3.081
 1563SOL     OW 5374   0.064   3.426   3.193
 1563SOL    HW1 5375   0.018   3.508   3.159
 1563SOL    HW2 5376   0.162   3.445   3.202
 1564SOL     OW 5377   0.367   2.962   2.363
 1564SOL    HW1 5378   0.360   3.045   2.307
 1564SOL    HW2 5379   0.371   2.882   2.303
 1565SOL     OW 5380   0.566   2.399   2.727
 1565SOL    HW1 5381   0.578   2.465   2.653
 1565SOL    HW2 5382   0.612   2.433   2.810
 1566SOL     OW 5383   1.252   3.210   2.250
 1566SOL    HW1 5384   1.302   3.287   2.290
 1566SOL    HW2 5385   1.157   3.212   2.282
 1567SOL     OW 5386   1.272   3.307   3.004
 1567SOL    HW1 5387   1.319   3.320   3.091
 1567SOL    HW2 5388   1.206   3.233   3.013
 1568SOL     OW 5389   1.582   2.501   2.334
 1568SOL    HW1 5390   1.551   2.562   2.407
 1568SOL    HW2 5391   1.632   2.553   2.265
 1569SOL     OW 5392   0.354   3.372   3.191
 1569SOL    HW1 5393   0.333   3.328   3.104
 1569SOL    HW2 5394   0.451   3.398   3.194
 1570SOL     OW 5395   0.402   2.613   3.460
 1570SOL    HW1 5396   0.470   2.668   3.413
 1570SOL    HW2 5397   0.442   2.525   3.487
 1571SOL     OW 5398   1.587   2.641   3.532
 1571SOL    HW1 5399   1.495   2.679   3.527
 1571SOL    HW2 5400   1.647   2.688   3.467
 1572SOL     OW 5401   1.013   1.967   3.632
 1572SOL    HW1 5402   1.019   2.052   3.580
 1572SOL    HW2 5403   1.045   1.891   3.575
 1573SOL     OW 5404   0.504   1.912   3.602
 1573SOL    HW1 5405   0.462   1.855   3.532
 1573SOL    HW2 5406   0.438   1.981   3.634
 1574SOL     OW 5407   0.573   2.732   2.891
 1574SOL    HW1 5408   0.617   2.821   2.882
 1574SOL    HW2 5409   0.510   2.732   2.968
 1575SOL     OW 5410   1.360   2.724   2.907
 1575SOL    HW1 5411   1.285   2.724   2.841
 1575SOL    HW2 5412   1.397   2.632   2.916
 1576SOL     OW 5413   1.209   2.387   2.137
 1576SOL    HW1 5414   1.222   2.303   2.191
 1576SOL    HW2 5415   1.180   2.461   2.197
 1577SOL     OW 5416   0.307   2.075   3.093
 1577SOL    HW1 5417   0.284   2.112   3.183
 1577SOL    HW2 5418   0.277   1.980   3.087
 1578SOL     OW 5419   0.037   3.172   3.144
 1578SOL    HW1 5420   0.090   3.123   3.212
 1578SOL    HW2 5421   0.059   3.270   3.149
 1579SOL     OW 5422   0.732   2.496   2.926
 1579SOL    HW1 5423   0.791   2.470   2.850
 1579SOL    HW2 5424   0.704   2.592   2.915
 1580SOL     OW 5425   1.728   2.797   3.716
 1580SOL    HW1 5426   1.682   2.790   3.627
 1580SOL    HW2 5427   1.666   2.841   3.782
 1581SOL     OW 5428   0.307   1.925   2.480
 1581SOL    HW1 5429   0.296   2.019   2.513
 1581SOL    HW2 5430   0.302   1.862   2.557
 1582SOL     OW 5431   1.622   2.229   2.236
 1582SOL    HW1 5432   1.624   2.153   2.300
 1582SOL    HW2 5433   1.574   2.306   2.276
 1583SOL     OW 5434   1.023   2.628   2.828
 1583SOL    HW1 5435   1.038   2.649   2.924
 1583SOL    HW2 5436   0.993   2.533   2.819
 1584SOL     OW 5437   0.980   3.435   3.562
 1584SOL    HW1 5438   0.960   3.479   3.474
 1584SOL    HW2 5439   1.019   3.344   3.546
 1585SOL     OW 5440   1.859   3.380   3.467
 1585SOL    HW1 5441   1.873   3.407   3.372
 1585SOL    HW2 5442   1.942   3.402   3.520
 1586SOL     OW 5443   0.350   2.760   3.666
 1586SOL    HW1 5444   0.426   2.804   3.714
 1586SOL    HW2 5445   0.385   2.713   3.584
 1587SOL     OW 5446   1.540   2.136   1.987
 1587SOL    HW1 5447   1.479   2.061   2.010
 1587SOL    HW2 5448   1.562   2.188   2.070
 1588SOL     OW 5449   1.303   2.700   1.904
 1588SOL    HW1 5450   1.337   2.607   1.919
 1588SOL    HW2 5451   1.321   2.727   1.809
 1589SOL     OW 5452   1.068   3.195   2.711
 1589SOL    HW1 5453   1.075   3.111   2.656
 1589SOL    HW2 5454   1.130   3.264   2.675
 1590SOL     OW 5455   0.319   2.672   2.811
 1590SOL    HW1 5456   0.412   2.708   2.816
 1590SOL    HW2 5457   0.313   2.587   2.863
 1591SOL     OW 5458   0.339   2.371   2.868
 1591SOL    HW1 5459   0.287   2.288   2.851
 1591SOL    HW2 5460   0.416   2.376   2.804
 1592SOL     OW 5461   1.138   2.242   3.540
 1592SOL    HW1 5462   1.093   2.305   3.604
 1592SOL    HW2 5463   1.231   2.273   3.523
 1593SOL     OW 5464   1.160   2.069   3.339
 1593SOL    HW1 5465   1.160   2.133   3.416
 1593SOL    HW2 5466   1.188   2.117   3.256
 1594SOL     OW 5467   0.008   3.188   2.062
 1594SOL    HW1 5468  -0.085   3.209   2.031
 1594SOL    HW2 5469   0.018   3.089   2.075
 1595SOL     OW 5470   0.088   3.663   2.789
 1595SOL    HW1 5471   0.046   3.577   2.762
 1595SOL    HW2 5472   0.182   3.666   2.755
 1596SOL     OW 5473   0.504   3.430   2.772
 1596SOL    HW1 5474   0.570   3.504   2.781
 1596SOL    HW2 5475   0.548   3.351   2.730
 1597SOL     OW 5476   1.002   2.658   3.100
 1597SOL    HW1 5477   1.043   2.626   3.186
 1597SOL    HW2 5478   0.906   2.631   3.097
 1598SOL     OW 5479   0.040   2.406   2.976
 1598SOL    HW1 5480   0.125   2.373   2.935
 1598SOL    HW2 5481   0.053   2.421   3.074
 1599SOL     OW 5482   0.189   2.382   3.584
 1599SOL    HW1 5483   0.248   2.342   3.514
 1599SOL    HW2 5484   0.131   2.453   3.543
 1600SOL     OW 5485   1.369   2.812   3.522
 1600SOL    HW1 5486   1.408   2.901   3.542
 1600SOL    HW2 5487   1.379   2.792   3.425
 1601SOL     OW 5488   0.815   2.434   2.187
 1601SOL    HW1 5489   0.822   2.345   2.141
 1601SOL    HW2 5490   0.721   2.468   2.179
 1602SOL     OW 5491   1.657   2.466   3.068
 1602SOL    HW1 5492   1.619   2.397   3.130
 1602SOL    HW2 5493   1.739   2.430   3.024
 1603SOL     OW 5494   0.252   3.426   3.606
 1603SOL    HW1 5495   0.222   3.483   3.682
 1603SOL    HW2 5496   0.245   3.329   3.632
 1604SOL     OW 5497   0.671   2.326   3.131
 1604SOL    HW1 5498   0.637   2.237   3.101
 1604SOL    HW2 5499   0.697   2.380   3.051
 1605SOL     OW 5500   0.930   3.540   3.327
 1605SOL    HW1 5501   0.906   3.522   3.232
 1605SOL    HW2 5502   0.960   3.634   3.337
 1606SOL     OW 5503   0.473   2.362   2.053
 1606SOL    HW1 5504   0.534   2.442   2.057
 1606SOL    HW2 5505   0.378   2.393   2.060
 1607SOL     OW 5506   0.159   2.999   3.328
 1607SOL    HW1 5507   0.181   2.938   3.404
 1607SOL    HW2 5508   0.169   2.950   3.242
 1608SOL     OW 5509   1.347   2.921   3.096
 1608SOL    HW1 5510   1.371   2.858   3.022
 1608SOL    HW2 5511   1.257   2.961   3.078
 1609SOL     OW 5512   1.302   2.717   2.171
 1609SOL    HW1 5513   1.216   2.686   2.213
 1609SOL    HW2 5514   1.298   2.703   2.072
 1610SOL     OW 5515   1.759   3.609   3.016
 1610SOL    HW1 5516   1.820   3.639   2.943
 1610SOL    HW2 5517   1.721   3.520   2.994
 1611SOL     OW 5518   1.252   3.593   2.990
 1611SOL    HW1 5519   1.336   3.598   2.936
 1611SOL    HW2 5520   1.229   3.497   3.008
 1612SOL     OW 5521   0.083   3.120   2.884
 1612SOL    HW1 5522   0.078   3.119   2.984
 1612SOL    HW2 5523   0.000   3.079   2.846
 1613SOL     OW 5524   0.688   3.524   3.578
 1613SOL    HW1 5525   0.632   3.605   3.587
 1613SOL    HW2 5526   0.740   3.528   3.492
 1614SOL     OW 5527   1.726   1.997   2.385
 1614SOL    HW1 5528   1.799   1.980   2.318
 1614SOL    HW2 5529   1.695   1.910   2.423
 1615SOL     OW 5530   1.388   3.435   2.339
 1615SOL    HW1 5531   1.455   3.447   2.265
 1615SOL    HW2 5532   1.348   3.524   2.362
 1616SOL     OW 5533   0.130   3.656   3.713
 1616SOL    HW1 5534   0.089   3.582   3.766
 1616SOL    HW2 5535   0.194   3.707   3.771
 1617SOL     OW 5536   1.280   2.789   2.534
 1617SOL    HW1 5537   1.340   2.708   2.536
 1617SOL    HW2 5538   1.320   2.858   2.474
 1618SOL     OW 5539   0.830   3.135   3.284
 1618SOL    HW1 5540   0.825   3.168   3.379
 1618SOL    HW2 5541   0.744   3.154   3.238
 1619SOL     OW 5542   0.672   3.478   2.016
 1619SOL    HW1 5543   0.681   3.488   1.917
 1619SOL    HW2 5544   0.632   3.389   2.037
 1620SOL     OW 5545   1.650   3.582   3.256
 1620SOL    HW1 5546   1.703   3.592   3.172
 1620SOL    HW2 5547   1.623   3.672   3.290
 1621SOL     OW 5548   1.841   2.037   2.825
 1621SOL    HW1 5549   1.880   1.952   2.789
 1621SOL    HW2 5550   1.743   2.039   2.806
 1622SOL     OW 5551   0.263   2.188   2.582
 1622SOL    HW1 5552   0.184   2.239   2.548
 1622SOL    HW2 5553   0.254   2.173   2.680
 1623SOL     OW 5554   1.194   3.474   1.893
 1623SOL    HW1 5555   1.200   3.381   1.930
 1623SOL    HW2 5556   1.135   3.474   1.813
 1624SOL     OW 5557   0.822   2.864   3.234
 1624SOL    HW1 5558   0.862   2.863   3.142
 1624SOL    HW2 5559   0.832   2.956   3.274
 1625SOL     OW 5560   0.916   2.772   2.153
 1625SOL    HW1 5561   0.979   2.810   2.085
 1625SOL    HW2 5562   0.956   2.689   2.192
 1626SOL     OW 5563   1.504   3.469   1.906
 1626SOL    HW1 5564   1.412   3.506   1.913
 1626SOL    HW2 5565   1.542   3.489   1.816
 1627SOL     OW 5566   0.372   3.150   3.352
 1627SOL    HW1 5567   0.359   3.243   3.318
 1627SOL    HW2 5568   0.288   3.098   3.339
 1628SOL     OW 5569   1.614   3.154   3.151
 1628SOL    HW1 5570   1.674   3.157   3.231
 1628SOL    HW2 5571   1.539   3.218   3.164
 1629SOL     OW 5572   1.039   2.960   2.558
 1629SOL    HW1 5573   0.969   2.913   2.612
 1629SOL    HW2 5574   1.098   2.892   2.515
 1630SOL     OW 5575   1.014   2.098   2.833
 1630SOL    HW1 5576   1.006   2.062   2.740
 1630SOL    HW2 5577   1.012   2.022   2.898
 1631SOL     OW 5578   0.590   3.349   2.353
 1631SOL    HW1 5579   0.632   3.291   2.283
 1631SOL    HW2 5580   0.546   3.428   2.309
 1632SOL     OW 5581   1.709   2.247   3.243
 1632SOL    HW1 5582   1.782   2.316   3.247
 1632SOL    HW2 5583   1.737   2.172   3.184
 1633SOL     OW 5584   0.255   3.210   2.152
 1633SOL    HW1 5585   0.159   3.211   2.125
 1633SOL    HW2 5586   0.267   3.263   2.236
 1634SOL     OW 5587   0.105   2.875   3.588
 1634SOL    HW1 5588   0.028   2.842   3.642
 1634SOL    HW2 5589   0.190   2.845   3.630
 1635SOL     OW 5590   0.672   2.065   3.351
 1635SOL    HW1 5591   0.762   2.049   3.311
 1635SOL    HW2 5592   0.680   2.070   3.450
 1636SOL     OW 5593   0.075   2.207   1.895
 1636SOL    HW1 5594  -0.017   2.179   1.866
 1636SOL    HW2 5595   0.106   2.284   1.839
 1637SOL     OW 5596   1.440   2.718   3.260
 1637SOL    HW1 5597   1.383   2.770   3.197
 1637SOL    HW2 5598   1.536   2.730   3.236
 1638SOL     OW 5599   0.072   2.028   2.180
 1638SOL    HW1 5600   0.055   2.111   2.126
 1638SOL    HW2 5601   0.162   1.991   2.158
 1639SOL     OW 5602   1.183   3.197   1.981
 1639SOL    HW1 5603   1.084   3.186   1.983
 1639SOL    HW2 5604   1.217   3.212   2.074
 1640SOL     OW 5605   0.613   2.704   3.293
 1640SOL    HW1 5606   0.669   2.785   3.276
 1640SOL    HW2 5607   0.672   2.624   3.296
 1641SOL     OW 5608   1.493   3.629   2.821
 1641SOL    HW1 5609   1.526   3.693   2.752
 1641SOL    HW2 5610   1.559   3.623   2.896
 1642SOL     OW 5611   0.716   2.427   3.570
 1642SOL    HW1 5612   0.735   2.492   3.644
 1642SOL    HW2 5613   0.776   2.347   3.579
 1643SOL     OW 5614   1.450   3.082   3.495
 1643SOL    HW1 5615   1.441   3.072   3.594
 1643SOL    HW2 5616   1.546   3.075   3.469
 1644SOL     OW 5617   0.390   3.603   3.422
 1644SOL    HW1 5618   0.299   3.644   3.420
 1644SOL    HW2 5619   0.383   3.509   3.454
 1645SOL     OW 5620   1.674   2.745   3.116
 1645SOL    HW1 5621   1.647   2.656   3.079
 1645SOL    HW2 5622   1.675   2.813   3.043
 1646SOL     OW 5623   1.225   2.187   2.311
 1646SOL    HW1 5624   1.290   2.113   2.300
 1646SOL    HW2 5625   1.245   2.237   2.395
 1647SOL     OW 5626   0.594   2.607   2.514
 1647SOL    HW1 5627   0.644   2.692   2.495
 1647SOL    HW2 5628   0.506   2.609   2.466
 1648SOL     OW 5629   1.777   2.204   3.504
 1648SOL    HW1 5630   1.760   2.235   3.410
 1648SOL    HW2 5631   1.693   2.167   3.542
 1649SOL     OW 5632   1.730   2.796   3.379
 1649SOL    HW1 5633   1.768   2.887   3.394
 1649SOL    HW2 5634   1.722   2.779   3.280
 1650SOL     OW 5635   0.859   3.236   1.878
 1650SOL    HW1 5636   0.813   3.251   1.966
 1650SOL    HW2 5637   0.903   3.321   1.848
 1651SOL     OW 5638   0.661   3.652   2.815
 1651SOL    HW1 5639   0.615   3.740   2.802
 1651SOL    HW2 5640   0.760   3.664   2.808
 1652SOL     OW 5641   0.859   2.818   2.723
 1652SOL    HW1 5642   0.913   2.749   2.771
 1652SOL    HW2 5643   0.827   2.887   2.789
 1653SOL     OW 5644   1.083   2.846   1.949
 1653SOL    HW1 5645   1.060   2.899   1.867
 1653SOL    HW2 5646   1.164   2.790   1.930
 1654SOL     OW 5647   1.861   3.431   2.713
 1654SOL    HW1 5648   1.790   3.419   2.643
 1654SOL    HW2 5649   1.862   3.352   2.773
 1655SOL     OW 5650   0.221   3.176   3.706
 1655SOL    HW1 5651   0.156   3.103   3.685
 1655SOL    HW2 5652   0.225   3.190   3.804
 1656SOL     OW 5653   0.079   3.102   2.515
 1656SOL    HW1 5654   0.078   3.055   2.603
 1656SOL    HW2 5655   0.161   3.074   2.464
 1657SOL     OW 5656   0.672   3.253   3.486
 1657SOL    HW1 5657   0.594   3.203   3.524
 1657SOL    HW2 5658   0.669   3.348   3.517
 1658SOL     OW 5659   1.824   2.054   3.089
 1658SOL    HW1 5660   1.820   1.964   3.133
 1658SOL    HW2 5661   1.827   2.043   2.990
 1659SOL     OW 5662   0.428   2.286   2.382
 1659SOL    HW1 5663   0.458   2.214   2.320
 1659SOL    HW2 5664   0.389   2.246   2.465
 1660SOL     OW 5665   1.705   3.349   2.966
 1660SOL    HW1 5666   1.612   3.324   2.939
 1660SOL    HW2 5667   1.731   3.299   3.048
 1661SOL     OW 5668   0.317   2.409   3.142
 1661SOL    HW1 5669   0.355   2.350   3.214
 1661SOL    HW2 5670   0.357   2.383   3.054
 1662SOL     OW 5671   0.812   3.448   2.549
 1662SOL    HW1 5672   0.844   3.458   2.455
 1662SOL    HW2 5673   0.733   3.386   2.551
 1663SOL     OW 5674   1.424   2.076   2.974
 1663SOL    HW1 5675   1.476   2.011   3.029
 1663SOL    HW2 5676   1.375   2.139   3.035
 1664SOL     OW 5677   1.001   1.896   3.016
 1664SOL    HW1 5678   0.938   1.824   2.985
 1664SOL    HW2 5679   1.094   1.860   3.016
 1665SOL     OW 5680   0.770   3.192   2.163
 1665SOL    HW1 5681   0.724   3.105   2.180
 1665SOL    HW2 5682   0.861   3.189   2.204
 1666SOL     OW 5683   0.618   3.429   3.146
 1666SOL    HW1 5684   0.613   3.511   3.203
 1666SOL    HW2 5685   0.707   3.426   3.101
 1667SOL     OW 5686   1.352   1.914   2.030
 1667SOL    HW1 5687   1.387   1.873   1.946
 1667SOL    HW2 5688   1.262   1.876   2.050
 1668SOL     OW 5689   1.300   2.315   2.553
 1668SOL    HW1 5690   1.241   2.395   2.557
 1668SOL    HW2 5691   1.315   2.280   2.646
 1669SOL     OW 5692   1.593   2.083   2.744
 1669SOL    HW1 5693   1.509   2.082   2.798
 1669SOL    HW2 5694   1.595   2.166   2.688
 1670SOL     OW 5695   0.039   2.939   2.162
 1670SOL    HW1 5696   0.138   2.928   2.153
 1670SOL    HW2 5697  -0.001   2.853   2.194
 1671SOL     OW 5698   0.875   3.508   2.199
 1671SOL    HW1 5699   0.798   3.473   2.145
 1671SOL    HW2 5700   0.843   3.579   2.261
 1672SOL     OW 5701   0.230   2.490   3.837
 1672SOL    HW1 5702   0.137   2.488   3.874
 1672SOL    HW2 5703   0.231   2.451   3.745
 1673SOL     OW 5704   0.225   2.137   4.720
 1673SOL    HW1 5705   0.260   2.120   4.812
 1673SOL    HW2 5706   0.137   2.092   4.708
 1674SOL     OW 5707   0.019   2.230   4.371
 1674SOL    HW1 5708  -0.063   2.273   4.410
 1674SOL    HW2 5709  -0.009   2.157   4.308
 1675SOL     OW 5710   0.569   3.137   4.889
 1675SOL    HW1 5711   0.476   3.130   4.852
 1675SOL    HW2 5712   0.580   3.226   4.933
 1676SOL     OW 5713   1.555   3.373   4.427
 1676SOL    HW1 5714   1.498   3.357   4.508
 1676SOL    HW2 5715   1.496   3.383   4.347
 1677SOL     OW 5716   1.135   2.565   4.441
 1677SOL    HW1 5717   1.192   2.643   4.416
 1677SOL    HW2 5718   1.075   2.591   4.517
 1678SOL     OW 5719   1.755   2.469   3.955
 1678SOL    HW1 5720   1.743   2.456   3.856
 1678SOL    HW2 5721   1.725   2.388   4.004
 1679SOL     OW 5722   0.768   3.006   4.747
 1679SOL    HW1 5723   0.690   3.023   4.807
 1679SOL    HW2 5724   0.802   3.093   4.711
 1680SOL     OW 5725   0.850   2.660   5.547
 1680SOL    HW1 5726   0.846   2.736   5.612
 1680SOL    HW2 5727   0.872   2.696   5.456
 1681SOL     OW 5728   0.685   2.874   4.389
 1681SOL    HW1 5729   0.754   2.858   4.459
 1681SOL    HW2 5730   0.612   2.931   4.427
 1682SOL     OW 5731   0.686   3.023   5.527
 1682SOL    HW1 5732   0.746   3.102   5.541
 1682SOL    HW2 5733   0.600   3.054   5.486
 1683SOL     OW 5734   0.335   3.297   4.785
 1683SOL    HW1 5735   0.257   3.266   4.732
 1683SOL    HW2 5736   0.393   3.355   4.728
 1684SOL     OW 5737   1.460   3.367   5.063
 1684SOL    HW1 5738   1.484   3.461   5.089
 1684SOL    HW2 5739   1.444   3.313   5.145
 1685SOL     OW 5740   0.438   2.254   5.223
 1685SOL    HW1 5741   0.520   2.198   5.232
 1685SOL    HW2 5742   0.357   2.196   5.227
 1686SOL     OW 5743   0.231   3.575   4.207
 1686SOL    HW1 5744   0.265   3.652   4.261
 1686SOL    HW2 5745   0.275   3.575   4.117
 1687SOL     OW 5746   1.127   3.203   5.414
 1687SOL    HW1 5747   1.174   3.203   5.502
 1687SOL    HW2 5748   1.079   3.116   5.403
 1688SOL     OW 5749   0.230   3.296   4.262
 1688SOL    HW1 5750   0.204   3.392   4.262
 1688SOL    HW2 5751   0.159   3.242   4.307
 1689SOL     OW 5752   0.240   2.953   4.610
 1689SOL    HW1 5753   0.254   2.869   4.662
 1689SOL    HW2 5754   0.185   3.017   4.665
 1690SOL     OW 5755   0.620   3.648   5.163
 1690SOL    HW1 5756   0.528   3.631   5.198
 1690SOL    HW2 5757   0.648   3.740   5.189
 1691SOL     OW 5758   0.606   2.826   3.847
 1691SOL    HW1 5759   0.613   2.910   3.793
 1691SOL    HW2 5760   0.652   2.839   3.935
 1692SOL     OW 5761   0.122   2.505   4.287
 1692SOL    HW1 5762   0.077   2.417   4.304
 1692SOL    HW2 5763   0.121   2.559   4.371
 1693SOL     OW 5764   1.842   3.629   4.083
 1693SOL    HW1 5765   1.896   3.600   4.163
 1693SOL    HW2 5766   1.872   3.719   4.054
 1694SOL     OW 5767   0.027   3.458   3.841
 1694SOL    HW1 5768   0.008   3.362   3.862
 1694SOL    HW2 5769  -0.006   3.516   3.916
 1695SOL     OW 5770   1.689   2.784   4.336
 1695SOL    HW1 5771   1.784   2.755   4.344
 1695SOL    HW2 5772   1.681   2.849   4.261
 1696SOL     OW 5773   1.641   2.970   4.156
 1696SOL    HW1 5774   1.727   2.972   4.104
 1696SOL    HW2 5775   1.655   3.017   4.244
 1697SOL     OW 5776   0.113   2.599   5.321
 1697SOL    HW1 5777   0.201   2.586   5.366
 1697SOL    HW2 5778   0.100   2.696   5.299
 1698SOL     OW 5779   0.613   3.227   4.450
 1698SOL    HW1 5780   0.564   3.140   4.459
 1698SOL    HW2 5781   0.590   3.270   4.363
 1699SOL     OW 5782   1.293   3.090   5.147
 1699SOL    HW1 5783   1.330   3.017   5.089
 1699SOL    HW2 5784   1.345   3.095   5.232
 1700SOL     OW 5785   0.809   1.866   4.226
 1700SOL    HW1 5786   0.849   1.957   4.217
 1700SOL    HW2 5787   0.709   1.874   4.232
 1701SOL     OW 5788   0.197   2.838   4.988
 1701SOL    HW1 5789   0.286   2.793   4.974
 1701SOL    HW2 5790   0.124   2.773   4.969
 1702SOL     OW 5791   1.525   2.861   3.914
 1702SOL    HW1 5792   1.462   2.785   3.927
 1702SOL    HW2 5793   1.573   2.879   4.000
 1703SOL     OW 5794   1.187   3.654   5.340
 1703SOL    HW1 5795   1.211   3.714   5.264
 1703SOL    HW2 5796   1.194   3.559   5.310
 1704SOL     OW 5797   0.317   2.113   5.525
 1704SOL    HW1 5798   0.388   2.184   5.531
 1704SOL    HW2 5799   0.229   2.152   5.553
 1705SOL     OW 5800   1.466   3.279   4.677
 1705SOL    HW1 5801   1.407   3.285   4.757
 1705SOL    HW2 5802   1.451   3.191   4.631
 1706SOL     OW 5803   1.667   3.576   4.296
 1706SOL    HW1 5804   1.626   3.553   4.208
 1706SOL    HW2 5805   1.649   3.502   4.361
 1707SOL     OW 5806   0.598   2.591   3.994
 1707SOL    HW1 5807   0.622   2.660   3.926
 1707SOL    HW2 5808   0.520   2.624   4.048
 1708SOL     OW 5809   1.281   2.207   4.668
 1708SOL    HW1 5810   1.195   2.157   4.655
 1708SOL    HW2 5811   1.343   2.153   4.724
 1709SOL     OW 5812   1.576   3.524   4.031
 1709SOL    HW1 5813   1.665   3.570   4.034
 1709SOL    HW2 5814   1.555   3.500   3.936
 1710SOL     OW 5815   0.807   2.467   5.189
 1710SOL    HW1 5816   0.760   2.464   5.278
 1710SOL    HW2 5817   0.756   2.412   5.123
 1711SOL     OW 5818   0.973   2.752   5.296
 1711SOL    HW1 5819   1.019   2.668   5.267
 1711SOL    HW2 5820   0.917   2.786   5.221
 1712SOL     OW 5821   0.991   2.272   4.966
 1712SOL    HW1 5822   0.914   2.306   5.020
 1712SOL    HW2 5823   0.957   2.221   4.887
 1713SOL     OW 5824   1.041   2.563   4.153
 1713SOL    HW1 5825   1.067   2.559   4.249
 1713SOL    HW2 5826   0.956   2.512   4.139
 1714SOL     OW 5827   0.076   2.673   4.513
 1714SOL    HW1 5828   0.175   2.661   4.522
 1714SOL    HW2 5829   0.052   2.768   4.534
 1715SOL     OW 5830   0.130   3.683   5.295
 1715SOL    HW1 5831   0.120   3.668   5.394
 1715SOL    HW2 5832   0.044   3.719   5.259
 1716SOL     OW 5833   0.865   2.210   3.919
 1716SOL    HW1 5834   0.924   2.273   3.870
 1716SOL    HW2 5835   0.884   2.116   3.890
 1717SOL     OW 5836   1.362   3.006   4.269
 1717SOL    HW1 5837   1.445   2.977   4.221
 1717SOL    HW2 5838   1.313   3.073   4.213
 1718SOL     OW 5839   0.550   2.058   4.609
 1718SOL    HW1 5840   0.545   2.053   4.709
 1718SOL    HW2 5841   0.552   2.154   4.580
 1719SOL     OW 5842   1.008   3.318   4.201
 1719SOL    HW1 5843   0.962   3.390   4.149
 1719SOL    HW2 5844   1.004   3.338   4.299
 1720SOL     OW 5845   0.351   3.663   4.577
 1720SOL    HW1 5846   0.401   3.577   4.583
 1720SOL    HW2 5847   0.416   3.740   4.574
 1721SOL     OW 5848   1.795   2.928   4.597
 1721SOL    HW1 5849   1.733   2.913   4.521
 1721SOL    HW2 5850   1.743   2.939   4.682
 1722SOL     OW 5851   1.227   3.412   5.230
 1722SOL    HW1 5852   1.233   3.335   5.294
 1722SOL    HW2 5853   1.175   3.386   5.150
 1723SOL     OW 5854   0.321   2.805   3.966
 1723SOL    HW1 5855   0.403   2.844   3.924
 1723SOL    HW2 5856   0.294   2.723   3.917
 1724SOL     OW 5857   0.461   3.128   5.451
 1724SOL    HW1 5858   0.411   3.129   5.365
 1724SOL    HW2 5859   0.398   3.110   5.527
 1725SOL     OW 5860   1.111   3.638   3.961
 1725SOL    HW1 5861   1.051   3.576   4.011
 1725SOL    HW2 5862   1.142   3.594   3.876
 1726SOL     OW 5863   0.202   2.147   5.222
 1726SOL    HW1 5864   0.122   2.207   5.209
 1726SOL    HW2 5865   0.192   2.098   5.308
 1727SOL     OW 5866   1.632   3.239   3.805
 1727SOL    HW1 5867   1.600   3.333   3.795
 1727SOL    HW2 5868   1.556   3.176   3.793
 1728SOL     OW 5869   0.464   3.605   4.047
 1728SOL    HW1 5870   0.497   3.644   4.133
 1728SOL    HW2 5871   0.540   3.598   3.982
 1729SOL     OW 5872   1.400   1.969   4.150
 1729SOL    HW1 5873   1.376   1.932   4.060
 1729SOL    HW2 5874   1.499   1.985   4.154
 1730SOL     OW 5875   0.249   3.647   4.965
 1730SOL    HW1 5876   0.306   3.582   5.015
 1730SOL    HW2 5877   0.233   3.614   4.872
 1731SOL     OW 5878   0.940   3.560   4.628
 1731SOL    HW1 5879   1.020   3.503   4.649
 1731SOL    HW2 5880   0.891   3.520   4.551
 1732SOL     OW 5881   0.382   2.562   4.204
 1732SOL    HW1 5882   0.427   2.472   4.201
 1732SOL    HW2 5883   0.288   2.551   4.237
 1733SOL     OW 5884   1.547   2.084   5.453
 1733SOL    HW1 5885   1.542   2.121   5.545
 1733SOL    HW2 5886   1.475   2.015   5.441
 1734SOL     OW 5887   0.614   1.984   3.841
 1734SOL    HW1 5888   0.712   1.962   3.848
 1734SOL    HW2 5889   0.583   1.967   3.748
 1735SOL     OW 5890   0.781   2.126   5.473
 1735SOL    HW1 5891   0.848   2.065   5.516
 1735SOL    HW2 5892   0.708   2.145   5.538
 1736SOL     OW 5893   0.888   3.376   4.919
 1736SOL    HW1 5894   0.865   3.351   4.825
 1736SOL    HW2 5895   0.949   3.307   4.958
 1737SOL     OW 5896   0.803   3.264   4.648
 1737SOL    HW1 5897   0.893   3.278   4.606
 1737SOL    HW2 5898   0.732   3.266   4.577
 1738SOL     OW 5899   0.922   2.365   4.623
 1738SOL    HW1 5900   0.897   2.356   4.527
 1738SOL    HW2 5901   0.970   2.283   4.654
 1739SOL     OW 5902   0.539   1.926   4.236
 1739SOL    HW1 5903   0.458   1.927   4.294
 1739SOL    HW2 5904   0.542   2.009   4.181
 1740SOL     OW 5905   1.434   3.050   3.765
 1740SOL    HW1 5906   1.466   2.974   3.822
 1740SOL    HW2 5907   1.342   3.077   3.795
 1741SOL     OW 5908   0.297   1.897   3.895
 1741SOL    HW1 5909   0.346   1.981   3.874
 1741SOL    HW2 5910   0.359   1.832   3.940
 1742SOL     OW 5911   0.935   2.098   4.204
 1742SOL    HW1 5912   0.887   2.139   4.126
 1742SOL    HW2 5913   1.034   2.096   4.185
 1743SOL     OW 5914   1.076   2.545   5.188
 1743SOL    HW1 5915   0.996   2.484   5.191
 1743SOL    HW2 5916   1.157   2.492   5.164
 1744SOL     OW 5917   1.227   3.432   4.517
 1744SOL    HW1 5918   1.248   3.506   4.452
 1744SOL    HW2 5919   1.295   3.432   4.590
 1745SOL     OW 5920   0.459   3.014   4.465
 1745SOL    HW1 5921   0.388   2.987   4.530
 1745SOL    HW2 5922   0.433   2.986   4.372
 1746SOL     OW 5923   1.271   3.659   4.315
 1746SOL    HW1 5924   1.315   3.723   4.251
 1746SOL    HW2 5925   1.221   3.711   4.385
 1747SOL     OW 5926   1.032   2.411   3.740
 1747SOL    HW1 5927   0.991   2.493   3.701
 1747SOL    HW2 5928   1.096   2.437   3.813
 1748SOL     OW 5929   0.078   2.418   5.110
 1748SOL    HW1 5930   0.170   2.417   5.069
 1748SOL    HW2 5931   0.072   2.492   5.177
 1749SOL     OW 5932   0.561   2.084   4.871
 1749SOL    HW1 5933   0.599   2.000   4.908
 1749SOL    HW2 5934   0.473   2.103   4.915
 1750SOL     OW 5935   0.866   2.316   4.366
 1750SOL    HW1 5936   0.834   2.388   4.304
 1750SOL    HW2 5937   0.890   2.235   4.313
 1751SOL     OW 5938   1.017   1.901   4.477
 1751SOL    HW1 5939   0.945   1.906   4.408
 1751SOL    HW2 5940   0.993   1.832   4.546
 1752SOL     OW 5941   1.429   3.035   4.591
 1752SOL    HW1 5942   1.374   2.951   4.584
 1752SOL    HW2 5943   1.455   3.064   4.499
 1753SOL     OW 5944   1.857   2.695   4.101
 1753SOL    HW1 5945   1.899   2.631   4.165
 1753SOL    HW2 5946   1.819   2.644   4.023
 1754SOL     OW 5947   0.488   3.247   3.898
 1754SOL    HW1 5948   0.401   3.232   3.945
 1754SOL    HW2 5949   0.471   3.273   3.803
 1755SOL     OW 5950   1.664   3.142   4.381
 1755SOL    HW1 5951   1.763   3.150   4.395
 1755SOL    HW2 5952   1.619   3.226   4.412
 1756SOL     OW 5953   1.390   2.437   3.802
 1756SOL    HW1 5954   1.336   2.416   3.883
 1756SOL    HW2 5955   1.481   2.396   3.811
 1757SOL     OW 5956   0.527   2.118   4.052
 1757SOL    HW1 5957   0.554   2.059   3.977
 1757SOL    HW2 5958   0.527   2.213   4.021
 1758SOL     OW 5959   1.754   3.085   5.312
 1758SOL    HW1 5960   1.845   3.046   5.299
 1758SOL    HW2 5961   1.762   3.181   5.336
 1759SOL     OW 5962   1.064   3.209   5.064
 1759SOL    HW1 5963   0.984   3.186   5.119
 1759SOL    HW2 5964   1.147   3.183   5.113
 1760SOL     OW 5965   1.592   3.491   5.349
 1760SOL    HW1 5966   1.619   3.525   5.259
 1760SOL    HW2 5967   1.671   3.453   5.395
 1761SOL     OW 5968   1.111   3.057   4.824
 1761SOL    HW1 5969   1.071   3.101   4.905
 1761SOL    HW2 5970   1.070   3.094   4.741
 1762SOL     OW 5971   0.915   1.951   5.126
 1762SOL    HW1 5972   0.940   1.931   5.031
 1762SOL    HW2 5973   0.987   2.007   5.168
 1763SOL     OW 5974   0.980   2.978   5.443
 1763SOL    HW1 5975   0.881   2.984   5.453
 1763SOL    HW2 5976   1.003   2.898   5.387
 1764SOL     OW 5977   0.705   2.912   4.092
 1764SOL    HW1 5978   0.691   2.919   4.191
 1764SOL    HW2 5979   0.789   2.861   4.074
 1765SOL     OW 5980   0.410   2.675   4.975
 1765SOL    HW1 5981   0.496   2.687   5.025
 1765SOL    HW2 5982   0.368   2.588   5.002
 1766SOL     OW 5983   0.064   3.426   5.055
 1766SOL    HW1 5984   0.018   3.508   5.021
 1766SOL    HW2 5985   0.162   3.445   5.064
 1767SOL     OW 5986   0.367   2.962   4.225
 1767SOL    HW1 5987   0.360   3.045   4.169
 1767SOL    HW2 5988   0.371   2.882   4.165
 1768SOL     OW 5989   0.566   2.399   4.589
 1768SOL    HW1 5990   0.578   2.465   4.515
 1768SOL    HW2 5991   0.612   2.433   4.672
 1769SOL     OW 5992   1.252   3.210   4.112
 1769SOL    HW1 5993   1.302   3.287   4.152
 1769SOL    HW2 5994   1.157   3.212   4.144
 1770SOL     OW 5995   1.272   3.307   4.866
 1770SOL    HW1 5996   1.319   3.320   4.953
 1770SOL    HW2 5997   1.206   3.233   4.875
 1771SOL     OW 5998   1.582   2.501   4.196
 1771SOL    HW1 5999   1.551   2.562   4.269
 1771SOL    HW2 6000   1.632   2.553   4.127
 1772SOL     OW 6001   0.354   3.372   5.053
 1772SOL    HW1 6002   0.333   3.328   4.966
 1772SOL    HW2 6003   0.451   3.398   5.056
 1773SOL     OW 6004   0.402   2.613   5.322
 1773SOL    HW1 6005   0.470   2.668   5.275
 1773SOL    HW2 6006   0.442   2.525   5.349
 1774SOL     OW 6007   1.013   1.967   5.494
 1774SOL    HW1 6008   1.019   2.052   5.442
 1774SOL    HW2 6009   1.045   1.891   5.437
 1775SOL     OW 6010   0.504   1.912   5.464
 1775SOL    HW1 6011   0.462   1.855   5.394
 1775SOL    HW2 6012   0.438   1.981   5.496
 1776SOL     OW 6013   0.573   2.732   4.753
 1776SOL    HW1 6014   0.617   2.821   4.744
 1776SOL    HW2 6015   0.510   2.732   4.830
 1777SOL     OW 6016   1.360   2.724   4.769
 1777SOL    HW1 6017   1.285   2.724   4.703
 1777SOL    HW2 6018   1.397   2.632   4.778
 1778SOL     OW 6019   1.209   2.387   3.999
 1778SOL    HW1 6020   1.222   2.303   4.053
 1778SOL    HW2 6021   1.180   2.461   4.059
 1779SOL     OW 6022   0.307   2.075   4.955
 1779SOL    HW1 6023   0.284   2.112   5.045
 1779SOL    HW2 6024   0.277   1.980   4.949
 1780SOL     OW 6025   0.037   3.172   5.006
 1780SOL    HW1 6026   0.090   3.123   5.074
 1780SOL    HW2 6027   0.059   3.270   5.011
 1781SOL     OW 6028   0.732   2.496   4.788
 1781SOL    HW1 6029   0.791   2.470   4.712
 1781SOL    HW2 6030   0.704   2.592   4.777
 1782SOL     OW 6031   0.307   1.925   4.342
 1782SOL    HW1 6032   0.296   2.019   4.375
 1782SOL    HW2 6033   0.302   1.862   4.419
 1783SOL     OW 6034   1.622   2.229   4.098
 1783SOL    HW1 6035   1.624   2.153   4.162
 1783SOL    HW2 6036   1.574   2.306   4.138
 1784SOL     OW 6037   1.023   2.628   4.690
 1784SOL    HW1 6038   1.038   2.649   4.786
 1784SOL    HW2 6039   0.993   2.533   4.681
 1785SOL     OW 6040   0.980   3.435   5.424
 1785SOL    HW1 6041   0.960   3.479   5.336
 1785SOL    HW2 6042   1.019   3.344   5.408
 1786SOL     OW 6043   1.859   3.380   5.329
 1786SOL    HW1 6044   1.873   3.407   5.234
 1786SOL    HW2 6045   1.942   3.402   5.382
 1787SOL     OW 6046   0.350   2.760   5.528
 1787SOL    HW1 6047   0.426   2.804   5.576
 1787SOL    HW2 6048   0.385   2.713   5.446
 1788SOL     OW 6049   1.540   2.136   3.849
 1788SOL    HW1 6050   1.479   2.061   3.872
 1788SOL    HW2 6051   1.562   2.188   3.932
 1789SOL     OW 6052   1.303   2.700   3.766
 1789SOL    HW1 6053   1.337   2.607   3.781
 1789SOL    HW2 6054   1.321   2.727   3.671
 1790SOL     OW 6055   1.068   3.195   4.573
 1790SOL    HW1 6056   1.075   3.111   4.518
 1790SOL    HW2 6057   1.130   3.264   4.537
 1791SOL     OW 6058   0.319   2.672   4.673
 1791SOL    HW1 6059   0.412   2.708   4.678
 1791SOL    HW2 6060   0.313   2.587   4.725
 1792SOL     OW 6061   0.339   2.371   4.730
 1792SOL    HW1 6062   0.287   2.288   4.713
 1792SOL    HW2 6063   0.416   2.376   4.666
 1793SOL     OW 6064   1.138   2.242   5.402
 1793SOL    HW1 6065   1.093   2.305   5.466
 1793SOL    HW2 6066   1.231   2.273   5.385
 1794SOL     OW 6067   0.008   3.188   3.924
 1794SOL    HW1 6068  -0.085   3.209   3.893
 1794SOL    HW2 6069   0.018   3.089   3.937
 1795SOL     OW 6070   0.088   3.663   4.651
 1795SOL    HW1 6071   0.046   3.577   4.624
 1795SOL    HW2 6072   0.182   3.666   4.617
 1796SOL     OW 6073   0.504   3.430   4.634
 1796SOL    HW1 6074   0.570   3.504   4.643
 1796SOL    HW2 6075   0.548   3.351   4.592
 1797SOL     OW 6076   1.002   2.658   4.962
 1797SOL    HW1 6077   1.043   2.626   5.048
 1797SOL    HW2 6078   0.906   2.631   4.959
 1798SOL     OW 6079   0.040   2.406   4.838
 1798SOL    HW1 6080   0.125   2.373   4.797
 1798SOL    HW2 6081   0.053   2.421   4.936
 1799SOL     OW 6082   0.189   2.382   5.446
 1799SOL    HW1 6083   0.248   2.342   5.376
 1799SOL    HW2 6084   0.131   2.453   5.405
 1800SOL     OW 6085   1.369   2.812   5.384
 1800SOL    HW1 6086   1.408   2.901   5.404
 1800SOL    HW2 6087   1.379   2.792   5.287
 1801SOL     OW 6088   0.815   2.434   4.049
 1801SOL    HW1 6089   0.822   2.345   4.003
 1801SOL    HW2 6090   0.721   2.468   4.041
 1802SOL     OW 6091   0.252   3.426   5.468
 1802SOL    HW1 6092   0.222   3.483   5.544
 1802SOL    HW2 6093   0.245   3.329   5.494
 1803SOL     OW 6094   0.671   2.326   4.993
 1803SOL    HW1 6095   0.637   2.237   4.963
 1803SOL    HW2 6096   0.697   2.380   4.913
 1804SOL     OW 6097   0.930   3.540   5.189
 1804SOL    HW1 6098   0.906   3.522   5.094
 1804SOL    HW2 6099   0.960   3.634   5.199
 1805SOL     OW 6100   0.473   2.362   3.915
 1805SOL    HW1 6101   0.534   2.442   3.919
 1805SOL    HW2 6102   0.378   2.393   3.922
 1806SOL     OW 6103   0.159   2.999   5.190
 1806SOL    HW1 6104   0.181   2.938   5.266
 1806SOL    HW2 6105   0.169   2.950   5.104
 1807SOL     OW 6106   1.347   2.921   4.958
 1807SOL    HW1 6107   1.371   2.858   4.884
 1807SOL    HW2 6108   1.257   2.961   4.940
 1808SOL     OW 6109   1.302   2.717   4.033
 1808SOL    HW1 6110   1.216   2.686   4.075
 1808SOL    HW2 6111   1.298   2.703   3.934
 1809SOL     OW 6112   1.759   3.609   4.878
 1809SOL    HW1 6113   1.820   3.639   4.805
 1809SOL    HW2 6114   1.721   3.520   4.856
 1810SOL     OW 6115   1.252   3.593   4.852
 1810SOL    HW1 6116   1.336   3.598   4.798
 1810SOL    HW2 6117   1.229   3.497   4.870
 1811SOL     OW 6118   0.083   3.120   4.746
 1811SOL    HW1 6119   0.078   3.119   4.846
 1811SOL    HW2 6120   0.000   3.079   4.708
 1812SOL     OW 6121   0.688   3.524   5.440
 1812SOL    HW1 6122   0.632   3.605   5.449
 1812SOL    HW2 6123   0.740   3.528   5.354
 1813SOL     OW 6124   1.726   1.997   4.247
 1813SOL    HW1 6125   1.799   1.980   4.180
 1813SOL    HW2 6126   1.695   1.910   4.285
 1814SOL     OW 6127   1.388   3.435   4.201
 1814SOL    HW1 6128   1.455   3.447   4.127
 1814SOL    HW2 6129   1.348   3.524   4.224
 1815SOL     OW 6130   0.130   3.656   5.575
 1815SOL    HW1 6131   0.089   3.582   5.628
 1815SOL    HW2 6132   0.194   3.707   5.633
 1816SOL     OW 6133   1.280   2.789   4.396
 1816SOL    HW1 6134   1.340   2.708   4.398
 1816SOL    HW2 6135   1.320   2.858   4.336
 1817SOL     OW 6136   0.830   3.135   5.146
 1817SOL    HW1 6137   0.825   3.168   5.241
 1817SOL    HW2 6138   0.744   3.154   5.100
 1818SOL     OW 6139   0.672   3.478   3.878
 1818SOL    HW1 6140   0.681   3.488   3.779
 1818SOL    HW2 6141   0.632   3.389   3.899
 1819SOL     OW 6142   1.650   3.582   5.118
 1819SOL    HW1 6143   1.703   3.592   5.034
 1819SOL    HW2 6144   1.623   3.672   5.152
 1820SOL     OW 6145   0.263   2.188   4.444
 1820SOL    HW1 6146   0.184   2.239   4.410
 1820SOL    HW2 6147   0.254   2.173   4.542
 1821SOL     OW 6148   1.194   3.474   3.755
 1821SOL    HW1 6149   1.200   3.381   3.792
 1821SOL    HW2 6150   1.135   3.474   3.675
 1822SOL     OW 6151   0.822   2.864   5.096
 1822SOL    HW1 6152   0.862   2.863   5.004
 1822SOL    HW2 6153   0.832   2.956   5.136
 1823SOL     OW 6154   0.916   2.772   4.015
 1823SOL    HW1 6155   0.979   2.810   3.947
 1823SOL    HW2 6156   0.956   2.689   4.054
 1824SOL     OW 6157   1.504   3.469   3.768
 1824SOL    HW1 6158   1.412   3.506   3.775
 1824SOL    HW2 6159   1.542   3.489   3.678
 1825SOL     OW 6160   0.372   3.150   5.214
 1825SOL    HW1 6161   0.359   3.243   5.180
 1825SOL    HW2 6162   0.288   3.098   5.201
 1826SOL     OW 6163   1.039   2.960   4.420
 1826SOL    HW1 6164   0.969   2.913   4.474
 1826SOL    HW2 6165   1.098   2.892   4.377
 1827SOL     OW 6166   1.014   2.098   4.695
 1827SOL    HW1 6167   1.006   2.062   4.602
 1827SOL    HW2 6168   1.012   2.022   4.760
 1828SOL     OW 6169   0.590   3.349   4.215
 1828SOL    HW1 6170   0.632   3.291   4.145
 1828SOL    HW2 6171   0.546   3.428   4.171
 1829SOL     OW 6172   0.255   3.210   4.014
 1829SOL    HW1 6173   0.159   3.211   3.987
 1829SOL    HW2 6174   0.267   3.263   4.098
 1830SOL     OW 6175   0.105   2.875   5.450
 1830SOL    HW1 6176   0.028   2.842   5.504
 1830SOL    HW2 6177   0.190   2.845   5.492
 1831SOL     OW 6178   0.672   2.065   5.213
 1831SOL    HW1 6179   0.762   2.049   5.173
 1831SOL    HW2 6180   0.680   2.070   5.312
 1832SOL     OW 6181   0.075   2.207   3.757
 1832SOL    HW1 6182  -0.017   2.179   3.728
 1832SOL    HW2 6183   0.106   2.284   3.701
 1833SOL     OW 6184   0.072   2.028   4.042
 1833SOL    HW1 6185   0.055   2.111   3.988
 1833SOL    HW2 6186   0.162   1.991   4.020
 1834SOL     OW 6187   1.183   3.197   3.843
 1834SOL    HW1 6188   1.084   3.186   3.845
 1834SOL    HW2 6189   1.217   3.212   3.936
 1835SOL     OW 6190   0.613   2.704   5.155
 1835SOL    HW1 6191   0.669   2.785   5.138
 1835SOL    HW2 6192   0.672   2.624   5.158
 1836SOL     OW 6193   1.493   3.629   4.683
 1836SOL    HW1 6194   1.526   3.693   4.614
 1836SOL    HW2 6195   1.559   3.623   4.758
 1837SOL     OW 6196   0.716   2.427   5.432
 1837SOL    HW1 6197   0.735   2.492   5.506
 1837SOL    HW2 6198   0.776   2.347   5.441
 1838SOL     OW 6199   1.450   3.082   5.357
 1838SOL    HW1 6200   1.441   3.072   5.456
 1838SOL    HW2 6201   1.546   3.075   5.331
 1839SOL     OW 6202   0.390   3.603   5.284
 1839SOL    HW1 6203   0.299   3.644   5.282
 1839SOL    HW2 6204   0.383   3.509   5.316
 1840SOL     OW 6205   1.225   2.187   4.173
 1840SOL    HW1 6206   1.290   2.113   4.162
 1840SOL    HW2 6207   1.245   2.237   4.257
 1841SOL     OW 6208   0.594   2.607   4.376
 1841SOL    HW1 6209   0.644   2.692   4.357
 1841SOL    HW2 6210   0.506   2.609   4.328
 1842SOL     OW 6211   0.859   3.236   3.740
 1842SOL    HW1 6212   0.813   3.251   3.828
 1842SOL    HW2 6213   0.903   3.321   3.710
 1843SOL     OW 6214   0.661   3.652   4.677
 1843SOL    HW1 6215   0.615   3.740   4.664
 1843SOL    HW2 6216   0.760   3.664   4.670
 1844SOL     OW 6217   0.859   2.818   4.585
 1844SOL    HW1 6218   0.913   2.749   4.633
 1844SOL    HW2 6219   0.827   2.887   4.651
 1845SOL     OW 6220   1.083   2.846   3.811
 1845SOL    HW1 6221   1.060   2.899   3.729
 1845SOL    HW2 6222   1.164   2.790   3.792
 1846SOL     OW 6223   1.861   3.431   4.575
 1846SOL    HW1 6224   1.790   3.419   4.505
 1846SOL    HW2 6225   1.862   3.352   4.635
 1847SOL     OW 6226   0.221   3.176   5.568
 1847SOL    HW1 6227   0.156   3.103   5.547
 1847SOL    HW2 6228   0.225   3.190   5.666
 1848SOL     OW 6229   0.079   3.102   4.377
 1848SOL    HW1 6230   0.078   3.055   4.465
 1848SOL    HW2 6231   0.161   3.074   4.326
 1849SOL     OW 6232   0.672   3.253   5.348
 1849SOL    HW1 6233   0.594   3.203   5.386
 1849SOL    HW2 6234   0.669   3.348   5.379
 1850SOL     OW 6235   0.428   2.286   4.244
 1850SOL    HW1 6236   0.458   2.214   4.182
 1850SOL    HW2 6237   0.389   2.246   4.327
 1851SOL     OW 6238   1.705   3.349   4.828
 1851SOL    HW1 6239   1.612   3.324   4.801
 1851SOL    HW2 6240   1.731   3.299   4.910
 1852SOL     OW 6241   0.317   2.409   5.004
 1852SOL    HW1 6242   0.355   2.350   5.076
 1852SOL    HW2 6243   0.357   2.383   4.916
 1853SOL     OW 6244   0.812   3.448   4.411
 1853SOL    HW1 6245   0.844   3.458   4.317
 1853SOL    HW2 6246   0.733   3.386   4.413
 1854SOL     OW 6247   1.001   1.896   4.878
 1854SOL    HW1 6248   0.938   1.824   4.847
 1854SOL    HW2 6249   1.094   1.860   4.878
 1855SOL     OW 6250   0.770   3.192   4.025
 1855SOL    HW1 6251   0.724   3.105   4.042
 1855SOL    HW2 6252   0.861   3.189   4.066
 1856SOL     OW 6253   0.618   3.429   5.008
 1856SOL    HW1 6254   0.613   3.511   5.065
 1856SOL    HW2 6255   0.707   3.426   4.963
 1857SOL     OW 6256   1.352   1.914   3.892
 1857SOL    HW1 6257   1.387   1.873   3.808
 1857SOL    HW2 6258   1.262   1.876   3.912
 1858SOL     OW 6259   1.300   2.315   4.415
 1858SOL    HW1 6260   1.241   2.395   4.419
 1858SOL    HW2 6261   1.315   2.280   4.508
 1859SOL     OW 6262   1.593   2.083   4.606
 1859SOL    HW1 6263   1.509   2.082   4.660
 1859SOL    HW2 6264   1.595   2.166   4.550
 1860SOL     OW 6265   0.039   2.939   4.024
 1860SOL    HW1 6266   0.138   2.928   4.015
 1860SOL    HW2 6267  -0.001   2.853   4.056
 1861SOL     OW 6268   0.875   3.508   4.061
 1861SOL    HW1 6269   0.798   3.473   4.007
 1861SOL    HW2 6270   0.843   3.579   4.123
 1862SOL     OW 6271   0.230   2.490   5.699
 1862SOL    HW1 6272   0.137   2.488   5.736
 1862SOL    HW2 6273   0.231   2.451   5.607
 1863SOL     OW 6274   0.225   2.137   6.582
 1863SOL    HW1 6275   0.260   2.120   6.674
 1863SOL    HW2 6276   0.137   2.092   6.570
 1864SOL     OW 6277   0.019   2.230   6.233
 1864SOL    HW1 6278  -0.063   2.273   6.272
 1864SOL    HW2 6279  -0.009   2.157   6.170
 1865SOL     OW 6280   0.569   3.137   6.751
 1865SOL    HW1 6281   0.476   3.130   6.714
 1865SOL    HW2 6282   0.580   3.226   6.795
 1866SOL     OW 6283   1.555   3.373   6.289
 1866SOL    HW1 6284   1.498   3.357   6.370
 1866SOL    HW2 6285   1.496   3.383   6.209
 1867SOL     OW 6286   1.135   2.565   6.303
 1867SOL    HW1 6287   1.192   2.643   6.278
 1867SOL    HW2 6288   1.075   2.591   6.379
 1868SOL     OW 6289   0.768   3.006   6.609
 1868SOL    HW1 6290   0.690   3.023   6.669
 1868SOL    HW2 6291   0.802   3.093   6.573
 1869SOL     OW 6292   0.850   2.660   7.409
 1869SOL    HW1 6293   0.846   2.736   7.474
 1869SOL    HW2 6294   0.872   2.696   7.318
 1870SOL     OW 6295   0.685   2.874   6.251
 1870SOL    HW1 6296   0.754   2.858   6.321
 1870SOL    HW2 6297   0.612   2.931   6.289
 1871SOL     OW 6298   0.686   3.023   7.389
 1871SOL    HW1 6299   0.746   3.102   7.403
 1871SOL    HW2 6300   0.600   3.054   7.348
 1872SOL     OW 6301   0.335   3.297   6.647
 1872SOL    HW1 6302   0.257   3.266   6.594
 1872SOL    HW2 6303   0.393   3.355   6.590
 1873SOL     OW 6304   1.460   3.367   6.925
 1873SOL    HW1 6305   1.484   3.461   6.951
 1873SOL    HW2 6306   1.444   3.313   7.007
 1874SOL     OW 6307   0.438   2.254   7.085
 1874SOL    HW1 6308   0.520   2.198   7.094
 1874SOL    HW2 6309   0.357   2.196   7.089
 1875SOL     OW 6310   0.231   3.575   6.069
 1875SOL    HW1 6311   0.265   3.652   6.123
 1875SOL    HW2 6312   0.275   3.575   5.979
 1876SOL     OW 6313   1.127   3.203   7.276
 1876SOL    HW1 6314   1.174   3.203   7.364
 1876SOL    HW2 6315   1.079   3.116   7.265
 1877SOL     OW 6316   0.230   3.296   6.124
 1877SOL    HW1 6317   0.204   3.392   6.124
 1877SOL    HW2 6318   0.159   3.242   6.169
 1878SOL     OW 6319   0.240   2.953   6.472
 1878SOL    HW1 6320   0.254   2.869   6.524
 1878SOL    HW2 6321   0.185   3.017   6.527
 1879SOL     OW 6322   0.620   3.648   7.025
 1879SOL    HW1 6323   0.528   3.631   7.060
 1879SOL    HW2 6324   0.648   3.740   7.051
 1880SOL     OW 6325   0.606   2.826   5.709
 1880SOL    HW1 6326   0.613   2.910   5.655
 1880SOL    HW2 6327   0.652   2.839   5.797
 1881SOL     OW 6328   1.594   1.976   7.066
 1881SOL    HW1 6329   1.576   2.043   6.994
 1881SOL    HW2 6330   1.591   2.022   7.155
 1882SOL     OW 6331   0.122   2.505   6.149
 1882SOL    HW1 6332   0.077   2.417   6.166
 1882SOL    HW2 6333   0.121   2.559   6.233
 1883SOL     OW 6334   1.842   3.629   5.945
 1883SOL    HW1 6335   1.896   3.600   6.025
 1883SOL    HW2 6336   1.872   3.719   5.916
 1884SOL     OW 6337   0.027   3.458   5.703
 1884SOL    HW1 6338   0.008   3.362   5.724
 1884SOL    HW2 6339  -0.006   3.516   5.778
 1885SOL     OW 6340   0.113   2.599   7.183
 1885SOL    HW1 6341   0.201   2.586   7.228
 1885SOL    HW2 6342   0.100   2.696   7.161
 1886SOL     OW 6343   0.613   3.227   6.312
 1886SOL    HW1 6344   0.564   3.140   6.321
 1886SOL    HW2 6345   0.590   3.270   6.225
 1887SOL     OW 6346   1.293   3.090   7.009
 1887SOL    HW1 6347   1.330   3.017   6.951
 1887SOL    HW2 6348   1.345   3.095   7.094
 1888SOL     OW 6349   0.809   1.866   6.088
 1888SOL    HW1 6350   0.849   1.957   6.079
 1888SOL    HW2 6351   0.709   1.874   6.094
 1889SOL     OW 6352   0.197   2.838   6.850
 1889SOL    HW1 6353   0.286   2.793   6.836
 1889SOL    HW2 6354   0.124   2.773   6.831
 1890SOL     OW 6355   1.187   3.654   7.202
 1890SOL    HW1 6356   1.211   3.714   7.126
 1890SOL    HW2 6357   1.194   3.559   7.172
 1891SOL     OW 6358   0.317   2.113   7.387
 1891SOL    HW1 6359   0.388   2.184   7.393
 1891SOL    HW2 6360   0.229   2.152   7.415
 1892SOL     OW 6361   1.466   3.279   6.539
 1892SOL    HW1 6362   1.407   3.285   6.619
 1892SOL    HW2 6363   1.451   3.191   6.493
 1893SOL     OW 6364   1.667   3.576   6.158
 1893SOL    HW1 6365   1.626   3.553   6.070
 1893SOL    HW2 6366   1.649   3.502   6.223
 1894SOL     OW 6367   0.598   2.591   5.856
 1894SOL    HW1 6368   0.622   2.660   5.788
 1894SOL    HW2 6369   0.520   2.624   5.910
 1895SOL     OW 6370   1.281   2.207   6.530
 1895SOL    HW1 6371   1.195   2.157   6.517
 1895SOL    HW2 6372   1.343   2.153   6.586
 1896SOL     OW 6373   1.576   3.524   5.893
 1896SOL    HW1 6374   1.665   3.570   5.896
 1896SOL    HW2 6375   1.555   3.500   5.798
 1897SOL     OW 6376   0.807   2.467   7.051
 1897SOL    HW1 6377   0.760   2.464   7.140
 1897SOL    HW2 6378   0.756   2.412   6.985
 1898SOL     OW 6379   1.394   2.331   7.260
 1898SOL    HW1 6380   1.374   2.374   7.348
 1898SOL    HW2 6381   1.472   2.269   7.269
 1899SOL     OW 6382   0.973   2.752   7.158
 1899SOL    HW1 6383   1.019   2.668   7.129
 1899SOL    HW2 6384   0.917   2.786   7.083
 1900SOL     OW 6385   0.991   2.272   6.828
 1900SOL    HW1 6386   0.914   2.306   6.882
 1900SOL    HW2 6387   0.957   2.221   6.749
 1901SOL     OW 6388   1.041   2.563   6.015
 1901SOL    HW1 6389   1.067   2.559   6.111
 1901SOL    HW2 6390   0.956   2.512   6.001
 1902SOL     OW 6391   0.076   2.673   6.375
 1902SOL    HW1 6392   0.175   2.661   6.384
 1902SOL    HW2 6393   0.052   2.768   6.396
 1903SOL     OW 6394   0.130   3.683   7.157
 1903SOL    HW1 6395   0.120   3.668   7.256
 1903SOL    HW2 6396   0.044   3.719   7.121
 1904SOL     OW 6397   0.865   2.210   5.781
 1904SOL    HW1 6398   0.924   2.273   5.732
 1904SOL    HW2 6399   0.884   2.116   5.752
 1905SOL     OW 6400   1.719   2.447   7.417
 1905SOL    HW1 6401   1.693   2.536   7.381
 1905SOL    HW2 6402   1.717   2.379   7.344
 1906SOL     OW 6403   0.550   2.058   6.471
 1906SOL    HW1 6404   0.545   2.053   6.571
 1906SOL    HW2 6405   0.552   2.154   6.442
 1907SOL     OW 6406   1.008   3.318   6.063
 1907SOL    HW1 6407   0.962   3.390   6.011
 1907SOL    HW2 6408   1.004   3.338   6.161
 1908SOL     OW 6409   0.351   3.663   6.439
 1908SOL    HW1 6410   0.401   3.577   6.445
 1908SOL    HW2 6411   0.416   3.740   6.436
 1909SOL     OW 6412   1.795   2.928   6.459
 1909SOL    HW1 6413   1.733   2.913   6.383
 1909SOL    HW2 6414   1.743   2.939   6.544
 1910SOL     OW 6415   1.227   3.412   7.092
 1910SOL    HW1 6416   1.233   3.335   7.156
 1910SOL    HW2 6417   1.175   3.386   7.012
 1911SOL     OW 6418   0.321   2.805   5.828
 1911SOL    HW1 6419   0.403   2.844   5.786
 1911SOL    HW2 6420   0.294   2.723   5.779
 1912SOL     OW 6421   1.458   2.597   6.314
 1912SOL    HW1 6422   1.453   2.532   6.389
 1912SOL    HW2 6423   1.538   2.656   6.327
 1913SOL     OW 6424   0.461   3.128   7.313
 1913SOL    HW1 6425   0.411   3.129   7.227
 1913SOL    HW2 6426   0.398   3.110   7.389
 1914SOL     OW 6427   1.111   3.638   5.823
 1914SOL    HW1 6428   1.051   3.576   5.873
 1914SOL    HW2 6429   1.142   3.594   5.738
 1915SOL     OW 6430   0.202   2.147   7.084
 1915SOL    HW1 6431   0.122   2.207   7.071
 1915SOL    HW2 6432   0.192   2.098   7.170
 1916SOL     OW 6433   1.632   3.239   5.667
 1916SOL    HW1 6434   1.600   3.333   5.657
 1916SOL    HW2 6435   1.556   3.176   5.655
 1917SOL     OW 6436   0.464   3.605   5.909
 1917SOL    HW1 6437   0.497   3.644   5.995
 1917SOL    HW2 6438   0.540   3.598   5.844
 1918SOL     OW 6439   0.249   3.647   6.827
 1918SOL    HW1 6440   0.306   3.582   6.877
 1918SOL    HW2 6441   0.233   3.614   6.734
 1919SOL     OW 6442   0.940   3.560   6.490
 1919SOL    HW1 6443   1.020   3.503   6.511
 1919SOL    HW2 6444   0.891   3.520   6.413
 1920SOL     OW 6445   0.382   2.562   6.066
 1920SOL    HW1 6446   0.427   2.472   6.063
 1920SOL    HW2 6447   0.288   2.551   6.099
 1921SOL     OW 6448   1.547   2.084   7.315
 1921SOL    HW1 6449   1.542   2.121   7.407
 1921SOL    HW2 6450   1.475   2.015   7.303
 1922SOL     OW 6451   0.614   1.984   5.703
 1922SOL    HW1 6452   0.712   1.962   5.710
 1922SOL    HW2 6453   0.583   1.967   5.610
 1923SOL     OW 6454   0.781   2.126   7.335
 1923SOL    HW1 6455   0.848   2.065   7.378
 1923SOL    HW2 6456   0.708   2.145   7.400
 1924SOL     OW 6457   0.888   3.376   6.781
 1924SOL    HW1 6458   0.865   3.351   6.687
 1924SOL    HW2 6459   0.949   3.307   6.820
 1925SOL     OW 6460   1.351   2.452   7.019
 1925SOL    HW1 6461   1.379   2.409   7.104
 1925SOL    HW2 6462   1.376   2.548   7.020
 1926SOL     OW 6463   0.803   3.264   6.510
 1926SOL    HW1 6464   0.893   3.278   6.468
 1926SOL    HW2 6465   0.732   3.266   6.439
 1927SOL     OW 6466   0.922   2.365   6.485
 1927SOL    HW1 6467   0.897   2.356   6.389
 1927SOL    HW2 6468   0.970   2.283   6.516
 1928SOL     OW 6469   0.539   1.926   6.098
 1928SOL    HW1 6470   0.458   1.927   6.156
 1928SOL    HW2 6471   0.542   2.009   6.043
 1929SOL     OW 6472   1.434   3.050   5.627
 1929SOL    HW1 6473   1.466   2.974   5.684
 1929SOL    HW2 6474   1.342   3.077   5.657
 1930SOL     OW 6475   0.297   1.897   5.757
 1930SOL    HW1 6476   0.346   1.981   5.736
 1930SOL    HW2 6477   0.359   1.832   5.802
 1931SOL     OW 6478   0.935   2.098   6.066
 1931SOL    HW1 6479   0.887   2.139   5.988
 1931SOL    HW2 6480   1.034   2.096   6.047
 1932SOL     OW 6481   1.076   2.545   7.050
 1932SOL    HW1 6482   0.996   2.484   7.053
 1932SOL    HW2 6483   1.157   2.492   7.026
 1933SOL     OW 6484   1.227   3.432   6.379
 1933SOL    HW1 6485   1.248   3.506   6.314
 1933SOL    HW2 6486   1.295   3.432   6.452
 1934SOL     OW 6487   0.459   3.014   6.327
 1934SOL    HW1 6488   0.388   2.987   6.392
 1934SOL    HW2 6489   0.433   2.986   6.234
 1935SOL     OW 6490   1.271   3.659   6.177
 1935SOL    HW1 6491   1.315   3.723   6.113
 1935SOL    HW2 6492   1.221   3.711   6.247
 1936SOL     OW 6493   1.032   2.411   5.602
 1936SOL    HW1 6494   0.991   2.493   5.563
 1936SOL    HW2 6495   1.096   2.437   5.675
 1937SOL     OW 6496   0.078   2.418   6.972
 1937SOL    HW1 6497   0.170   2.417   6.931
 1937SOL    HW2 6498   0.072   2.492   7.039
 1938SOL     OW 6499   0.561   2.084   6.733
 1938SOL    HW1 6500   0.599   2.000   6.770
 1938SOL    HW2 6501   0.473   2.103   6.777
 1939SOL     OW 6502   0.866   2.316   6.228
 1939SOL    HW1 6503   0.834   2.388   6.166
 1939SOL    HW2 6504   0.890   2.235   6.175
 1940SOL     OW 6505   1.017   1.901   6.339
 1940SOL    HW1 6506   0.945   1.906   6.270
 1940SOL    HW2 6507   0.993   1.832   6.408
 1941SOL     OW 6508   1.429   3.035   6.453
 1941SOL    HW1 6509   1.374   2.951   6.446
 1941SOL    HW2 6510   1.455   3.064   6.361
 1942SOL     OW 6511   1.466   2.452   6.578
 1942SOL    HW1 6512   1.436   2.357   6.585
 1942SOL    HW2 6513   1.539   2.468   6.644
 1943SOL     OW 6514   0.488   3.247   5.760
 1943SOL    HW1 6515   0.401   3.232   5.807
 1943SOL    HW2 6516   0.471   3.273   5.665
 1944SOL     OW 6517   1.390   2.437   5.664
 1944SOL    HW1 6518   1.336   2.416   5.745
 1944SOL    HW2 6519   1.481   2.396   5.673
 1945SOL     OW 6520   0.527   2.118   5.914
 1945SOL    HW1 6521   0.554   2.059   5.839
 1945SOL    HW2 6522   0.527   2.213   5.883
 1946SOL     OW 6523   1.754   3.085   7.174
 1946SOL    HW1 6524   1.845   3.046   7.161
 1946SOL    HW2 6525   1.762   3.181   7.198
 1947SOL     OW 6526   1.064   3.209   6.926
 1947SOL    HW1 6527   0.984   3.186   6.981
 1947SOL    HW2 6528   1.147   3.183   6.975
 1948SOL     OW 6529   1.592   3.491   7.211
 1948SOL    HW1 6530   1.619   3.525   7.121
 1948SOL    HW2 6531   1.671   3.453   7.257
 1949SOL     OW 6532   1.111   3.057   6.686
 1949SOL    HW1 6533   1.071   3.101   6.767
 1949SOL    HW2 6534   1.070   3.094   6.603
 1950SOL     OW 6535   1.638   2.961   6.665
 1950SOL    HW1 6536   1.643   3.042   6.724
 1950SOL    HW2 6537   1.552   2.963   6.614
 1951SOL     OW 6538   0.915   1.951   6.988
 1951SOL    HW1 6539   0.940   1.931   6.893
 1951SOL    HW2 6540   0.987   2.007   7.030
 1952SOL     OW 6541   0.980   2.978   7.305
 1952SOL    HW1 6542   0.881   2.984   7.315
 1952SOL    HW2 6543   1.003   2.898   7.249
 1953SOL     OW 6544   0.705   2.912   5.954
 1953SOL    HW1 6545   0.691   2.919   6.053
 1953SOL    HW2 6546   0.789   2.861   5.936
 1954SOL     OW 6547   0.410   2.675   6.837
 1954SOL    HW1 6548   0.496   2.687   6.887
 1954SOL    HW2 6549   0.368   2.588   6.864
 1955SOL     OW 6550   1.274   2.248   6.848
 1955SOL    HW1 6551   1.295   2.322   6.912
 1955SOL    HW2 6552   1.185   2.265   6.805
 1956SOL     OW 6553   0.064   3.426   6.917
 1956SOL    HW1 6554   0.018   3.508   6.883
 1956SOL    HW2 6555   0.162   3.445   6.926
 1957SOL     OW 6556   0.367   2.962   6.087
 1957SOL    HW1 6557   0.360   3.045   6.031
 1957SOL    HW2 6558   0.371   2.882   6.027
 1958SOL     OW 6559   0.566   2.399   6.451
 1958SOL    HW1 6560   0.578   2.465   6.377
 1958SOL    HW2 6561   0.612   2.433   6.534
 1959SOL     OW 6562   1.252   3.210   5.974
 1959SOL    HW1 6563   1.302   3.287   6.014
 1959SOL    HW2 6564   1.157   3.212   6.006
 1960SOL     OW 6565   1.272   3.307   6.728
 1960SOL    HW1 6566   1.319   3.320   6.815
 1960SOL    HW2 6567   1.206   3.233   6.737
 1961SOL     OW 6568   0.354   3.372   6.915
 1961SOL    HW1 6569   0.333   3.328   6.828
 1961SOL    HW2 6570   0.451   3.398   6.918
 1962SOL     OW 6571   0.402   2.613   7.184
 1962SOL    HW1 6572   0.470   2.668   7.137
 1962SOL    HW2 6573   0.442   2.525   7.211
 1963SOL     OW 6574   1.587   2.641   7.256
 1963SOL    HW1 6575   1.495   2.679   7.251
 1963SOL    HW2 6576   1.647   2.688   7.191
 1964SOL     OW 6577   1.013   1.967   7.356
 1964SOL    HW1 6578   1.019   2.052   7.304
 1964SOL    HW2 6579   1.045   1.891   7.299
 1965SOL     OW 6580   0.504   1.912   7.326
 1965SOL    HW1 6581   0.462   1.855   7.256
 1965SOL    HW2 6582   0.438   1.981   7.358
 1966SOL     OW 6583   0.573   2.732   6.615
 1966SOL    HW1 6584   0.617   2.821   6.606
 1966SOL    HW2 6585   0.510   2.732   6.692
 1967SOL     OW 6586   1.360   2.724   6.631
 1967SOL    HW1 6587   1.285   2.724   6.565
 1967SOL    HW2 6588   1.397   2.632   6.640
 1968SOL     OW 6589   0.307   2.075   6.817
 1968SOL    HW1 6590   0.284   2.112   6.907
 1968SOL    HW2 6591   0.277   1.980   6.811
 1969SOL     OW 6592   0.037   3.172   6.868
 1969SOL    HW1 6593   0.090   3.123   6.936
 1969SOL    HW2 6594   0.059   3.270   6.873
 1970SOL     OW 6595   0.732   2.496   6.650
 1970SOL    HW1 6596   0.791   2.470   6.574
 1970SOL    HW2 6597   0.704   2.592   6.639
 1971SOL     OW 6598   1.728   2.797   7.440
 1971SOL    HW1 6599   1.682   2.790   7.351
 1971SOL    HW2 6600   1.666   2.841   7.506
 1972SOL     OW 6601   0.307   1.925   6.204
 1972SOL    HW1 6602   0.296   2.019   6.237
 1972SOL    HW2 6603   0.302   1.862   6.281
 1973SOL     OW 6604   1.023   2.628   6.552
 1973SOL    HW1 6605   1.038   2.649   6.648
 1973SOL    HW2 6606   0.993   2.533   6.543
 1974SOL     OW 6607   0.980   3.435   7.286
 1974SOL    HW1 6608   0.960   3.479   7.198
 1974SOL    HW2 6609   1.019   3.344   7.270
 1975SOL     OW 6610   1.859   3.380   7.191
 1975SOL    HW1 6611   1.873   3.407   7.096
 1975SOL    HW2 6612   1.942   3.402   7.244
 1976SOL     OW 6613   0.350   2.760   7.390
 1976SOL    HW1 6614   0.426   2.804   7.438
 1976SOL    HW2 6615   0.385   2.713   7.308
 1977SOL     OW 6616   1.303   2.700   5.628
 1977SOL    HW1 6617   1.337   2.607   5.643
 1977SOL    HW2 6618   1.321   2.727   5.533
 1978SOL     OW 6619   1.068   3.195   6.435
 1978SOL    HW1 6620   1.075   3.111   6.380
 1978SOL    HW2 6621   1.130   3.264   6.399
 1979SOL     OW 6622   0.319   2.672   6.535
 1979SOL    HW1 6623   0.412   2.708   6.540
 1979SOL    HW2 6624   0.313   2.587   6.587
 1980SOL     OW 6625   0.339   2.371   6.592
 1980SOL    HW1 6626   0.287   2.288   6.575
 1980SOL    HW2 6627   0.416   2.376   6.528
 1981SOL     OW 6628   1.138   2.242   7.264
 1981SOL    HW1 6629   1.093   2.305   7.328
 1981SOL    HW2 6630   1.231   2.273   7.247
 1982SOL     OW 6631   1.160   2.069   7.063
 1982SOL    HW1 6632   1.160   2.133   7.140
 1982SOL    HW2 6633   1.188   2.117   6.980
 1983SOL     OW 6634   0.008   3.188   5.786
 1983SOL    HW1 6635  -0.085   3.209   5.755
 1983SOL    HW2 6636   0.018   3.089   5.799
 1984SOL     OW 6637   0.088   3.663   6.513
 1984SOL    HW1 6638   0.046   3.577   6.486
 1984SOL    HW2 6639   0.182   3.666   6.479
 1985SOL     OW 6640   0.504   3.430   6.496
 1985SOL    HW1 6641   0.570   3.504   6.505
 1985SOL    HW2 6642   0.548   3.351   6.454
 1986SOL     OW 6643   1.002   2.658   6.824
 1986SOL    HW1 6644   1.043   2.626   6.910
 1986SOL    HW2 6645   0.906   2.631   6.821
 1987SOL     OW 6646   0.040   2.406   6.700
 1987SOL    HW1 6647   0.125   2.373   6.659
 1987SOL    HW2 6648   0.053   2.421   6.798
 1988SOL     OW 6649   0.189   2.382   7.308
 1988SOL    HW1 6650   0.248   2.342   7.238
 1988SOL    HW2 6651   0.131   2.453   7.267
 1989SOL     OW 6652   1.369   2.812   7.246
 1989SOL    HW1 6653   1.408   2.901   7.266
 1989SOL    HW2 6654   1.379   2.792   7.149
 1990SOL     OW 6655   0.815   2.434   5.911
 1990SOL    HW1 6656   0.822   2.345   5.865
 1990SOL    HW2 6657   0.721   2.468   5.903
 1991SOL     OW 6658   1.657   2.466   6.792
 1991SOL    HW1 6659   1.619   2.397   6.854
 1991SOL    HW2 6660   1.739   2.430   6.748
 1992SOL     OW 6661   0.252   3.426   7.330
 1992SOL    HW1 6662   0.222   3.483   7.406
 1992SOL    HW2 6663   0.245   3.329   7.356
 1993SOL     OW 6664   0.671   2.326   6.855
 1993SOL    HW1 6665   0.637   2.237   6.825
 1993SOL    HW2 6666   0.697   2.380   6.775
 1994SOL     OW 6667   0.930   3.540   7.051
 1994SOL    HW1 6668   0.906   3.522   6.956
 1994SOL    HW2 6669   0.960   3.634   7.061
 1995SOL     OW 6670   0.473   2.362   5.777
 1995SOL    HW1 6671   0.534   2.442   5.781
 1995SOL    HW2 6672   0.378   2.393   5.784
 1996SOL     OW 6673   0.159   2.999   7.052
 1996SOL    HW1 6674   0.181   2.938   7.128
 1996SOL    HW2 6675   0.169   2.950   6.966
 1997SOL     OW 6676   1.347   2.921   6.820
 1997SOL    HW1 6677   1.371   2.858   6.746
 1997SOL    HW2 6678   1.257   2.961   6.802
 1998SOL     OW 6679   1.302   2.717   5.895
 1998SOL    HW1 6680   1.216   2.686   5.937
 1998SOL    HW2 6681   1.298   2.703   5.796
 1999SOL     OW 6682   1.759   3.609   6.740
 1999SOL    HW1 6683   1.820   3.639   6.667
 1999SOL    HW2 6684   1.721   3.520   6.718
 2000SOL     OW 6685   1.252   3.593   6.714
 2000SOL    HW1 6686   1.336   3.598   6.660
 2000SOL    HW2 6687   1.229   3.497   6.732
 2001SOL     OW 6688   0.083   3.120   6.608
 2001SOL    HW1 6689   0.078   3.119   6.708
 2001SOL    HW2 6690   0.000   3.079   6.570
 2002SOL     OW 6691   0.688   3.524   7.302
 2002SOL    HW1 6692   0.632   3.605   7.311
 2002SOL    HW2 6693   0.740   3.528   7.216
 2003SOL     OW 6694   1.388   3.435   6.063
 2003SOL    HW1 6695   1.455   3.447   5.989
 2003SOL    HW2 6696   1.348   3.524   6.086
 2004SOL     OW 6697   0.130   3.656   7.437
 2004SOL    HW1 6698   0.089   3.582   7.490
 2004SOL    HW2 6699   0.194   3.707   7.495
 2005SOL     OW 6700   1.280   2.789   6.258
 2005SOL    HW1 6701   1.340   2.708   6.260
 2005SOL    HW2 6702   1.320   2.858   6.198
 2006SOL     OW 6703   0.830   3.135   7.008
 2006SOL    HW1 6704   0.825   3.168   7.103
 2006SOL    HW2 6705   0.744   3.154   6.962
 2007SOL     OW 6706   0.672   3.478   5.740
 2007SOL    HW1 6707   0.681   3.488   5.641
 2007SOL    HW2 6708   0.632   3.389   5.761
 2008SOL     OW 6709   1.650   3.582   6.980
 2008SOL    HW1 6710   1.703   3.592   6.896
 2008SOL    HW2 6711   1.623   3.672   7.014
 2009SOL     OW 6712   1.841   2.037   6.549
 2009SOL    HW1 6713   1.880   1.952   6.513
 2009SOL    HW2 6714   1.743   2.039   6.530
 2010SOL     OW 6715   0.263   2.188   6.306
 2010SOL    HW1 6716   0.184   2.239   6.272
 2010SOL    HW2 6717   0.254   2.173   6.404
 2011SOL     OW 6718   1.194   3.474   5.617
 2011SOL    HW1 6719   1.200   3.381   5.654
 2011SOL    HW2 6720   1.135   3.474   5.537
 2012SOL     OW 6721   0.822   2.864   6.958
 2012SOL    HW1 6722   0.862   2.863   6.866
 2012SOL    HW2 6723   0.832   2.956   6.998
 2013SOL     OW 6724   0.916   2.772   5.877
 2013SOL    HW1 6725   0.979   2.810   5.809
 2013SOL    HW2 6726   0.956   2.689   5.916
 2014SOL     OW 6727   1.504   3.469   5.630
 2014SOL    HW1 6728   1.412   3.506   5.637
 2014SOL    HW2 6729   1.542   3.489   5.540
 2015SOL     OW 6730   0.372   3.150   7.076
 2015SOL    HW1 6731   0.359   3.243   7.042
 2015SOL    HW2 6732   0.288   3.098   7.063
 2016SOL     OW 6733   1.614   3.154   6.875
 2016SOL    HW1 6734   1.674   3.157   6.955
 2016SOL    HW2 6735   1.539   3.218   6.888
 2017SOL     OW 6736   1.039   2.960   6.282
 2017SOL    HW1 6737   0.969   2.913   6.336
 2017SOL    HW2 6738   1.098   2.892   6.239
 2018SOL     OW 6739   1.014   2.098   6.557
 2018SOL    HW1 6740   1.006   2.062   6.464
 2018SOL    HW2 6741   1.012   2.022   6.622
 2019SOL     OW 6742   0.590   3.349   6.077
 2019SOL    HW1 6743   0.632   3.291   6.007
 2019SOL    HW2 6744   0.546   3.428   6.033
 2020SOL     OW 6745   1.709   2.247   6.967
 2020SOL    HW1 6746   1.782   2.316   6.971
 2020SOL    HW2 6747   1.737   2.172   6.908
 2021SOL     OW 6748   0.255   3.210   5.876
 2021SOL    HW1 6749   0.159   3.211   5.849
 2021SOL    HW2 6750   0.267   3.263   5.960
 2022SOL     OW 6751   0.105   2.875   7.312
 2022SOL    HW1 6752   0.028   2.842   7.366
 2022SOL    HW2 6753   0.190   2.845   7.354
 2023SOL     OW 6754   0.672   2.065   7.075
 2023SOL    HW1 6755   0.762   2.049   7.035
 2023SOL    HW2 6756   0.680   2.070   7.174
 2024SOL     OW 6757   0.075   2.207   5.619
 2024SOL    HW1 6758  -0.017   2.179   5.590
 2024SOL    HW2 6759   0.106   2.284   5.563
 2025SOL     OW 6760   1.440   2.718   6.984
 2025SOL    HW1 6761   1.383   2.770   6.921
 2025SOL    HW2 6762   1.536   2.730   6.960
 2026SOL     OW 6763   0.072   2.028   5.904
 2026SOL    HW1 6764   0.055   2.111   5.850
 2026SOL    HW2 6765   0.162   1.991   5.882
 2027SOL     OW 6766   1.183   3.197   5.705
 2027SOL    HW1 6767   1.084   3.186   5.707
 2027SOL    HW2 6768   1.217   3.212   5.798
 2028SOL     OW 6769   0.613   2.704   7.017
 2028SOL    HW1 6770   0.669   2.785   7.000
 2028SOL    HW2 6771   0.672   2.624   7.020
 2029SOL     OW 6772   1.493   3.629   6.545
 2029SOL    HW1 6773   1.526   3.693   6.476
 2029SOL    HW2 6774   1.559   3.623   6.620
 2030SOL     OW 6775   0.716   2.427   7.294
 2030SOL    HW1 6776   0.735   2.492   7.368
 2030SOL    HW2 6777   0.776   2.347   7.303
 2031SOL     OW 6778   1.450   3.082   7.219
 2031SOL    HW1 6779   1.441   3.072   7.318
 2031SOL    HW2 6780   1.546   3.075   7.193
 2032SOL     OW 6781   0.390   3.603   7.146
 2032SOL    HW1 6782   0.299   3.644   7.144
 2032SOL    HW2 6783   0.383   3.509   7.178
 2033SOL     OW 6784   1.674   2.745   6.840
 2033SOL    HW1 6785   1.647   2.656   6.803
 2033SOL    HW2 6786   1.675   2.813   6.767
 2034SOL     OW 6787   0.594   2.607   6.238
 2034SOL    HW1 6788   0.644   2.692   6.219
 2034SOL    HW2 6789   0.506   2.609   6.190
 2035SOL     OW 6790   1.777   2.204   7.228
 2035SOL    HW1 6791   1.760   2.235   7.134
 2035SOL    HW2 6792   1.693   2.167   7.266
 2036SOL     OW 6793   1.730   2.796   7.103
 2036SOL    HW1 6794   1.768   2.887   7.118
 2036SOL    HW2 6795   1.722   2.779   7.004
 2037SOL     OW 6796   0.859   3.236   5.602
 2037SOL    HW1 6797   0.813   3.251   5.690
 2037SOL    HW2 6798   0.903   3.321   5.572
 2038SOL     OW 6799   0.661   3.652   6.539
 2038SOL    HW1 6800   0.615   3.740   6.526
 2038SOL    HW2 6801   0.760   3.664   6.532
 2039SOL     OW 6802   0.859   2.818   6.447
 2039SOL    HW1 6803   0.913   2.749   6.495
 2039SOL    HW2 6804   0.827   2.887   6.513
 2040SOL     OW 6805   1.083   2.846   5.673
 2040SOL    HW1 6806   1.060   2.899   5.591
 2040SOL    HW2 6807   1.164   2.790   5.654
 2041SOL     OW 6808   1.861   3.431   6.437
 2041SOL    HW1 6809   1.790   3.419   6.367
 2041SOL    HW2 6810   1.862   3.352   6.497
 2042SOL     OW 6811   0.221   3.176   7.430
 2042SOL    HW1 6812   0.156   3.103   7.409
 2042SOL    HW2 6813   0.225   3.190   7.528
 2043SOL     OW 6814   0.079   3.102   6.239
 2043SOL    HW1 6815   0.078   3.055   6.327
 2043SOL    HW2 6816   0.161   3.074   6.188
 2044SOL     OW 6817   0.672   3.253   7.210
 2044SOL    HW1 6818   0.594   3.203   7.248
 2044SOL    HW2 6819   0.669   3.348   7.241
 2045SOL     OW 6820   1.824   2.054   6.813
 2045SOL    HW1 6821   1.820   1.964   6.857
 2045SOL    HW2 6822   1.827   2.043   6.714
 2046SOL     OW 6823   0.428   2.286   6.106
 2046SOL    HW1 6824   0.458   2.214   6.044
 2046SOL    HW2 6825   0.389   2.246   6.189
 2047SOL     OW 6826   1.705   3.349   6.690
 2047SOL    HW1 6827   1.612   3.324   6.663
 2047SOL    HW2 6828   1.731   3.299   6.772
 2048SOL     OW 6829   0.317   2.409   6.866
 2048SOL    HW1 6830   0.355   2.350   6.938
 2048SOL    HW2 6831   0.357   2.383   6.778
 2049SOL     OW 6832   0.812   3.448   6.273
 2049SOL    HW1 6833   0.844   3.458   6.179
 2049SOL    HW2 6834   0.733   3.386   6.275
 2050SOL     OW 6835   1.424   2.076   6.698
 2050SOL    HW1 6836   1.476   2.011   6.753
 2050SOL    HW2 6837   1.375   2.139   6.759
 2051SOL     OW 6838   1.001   1.896   6.740
 2051SOL    HW1 6839   0.938   1.824   6.709
 2051SOL    HW2 6840   1.094   1.860   6.740
 2052SOL     OW 6841   0.770   3.192   5.887
 2052SOL    HW1 6842   0.724   3.105   5.904
 2052SOL    HW2 6843   0.861   3.189   5.928
 2053SOL     OW 6844   0.618   3.429   6.870
 2053SOL    HW1 6845   0.613   3.511   6.927
 2053SOL    HW2 6846   0.707   3.426   6.825
 2054SOL     OW 6847   1.352   1.914   5.754
 2054SOL    HW1 6848   1.387   1.873   5.670
 2054SOL    HW2 6849   1.262   1.876   5.774
 2055SOL     OW 6850   1.300   2.315   6.277
 2055SOL    HW1 6851   1.241   2.395   6.281
 2055SOL    HW2 6852   1.315   2.280   6.370
 2056SOL     OW 6853   0.039   2.939   5.886
 2056SOL    HW1 6854   0.138   2.928   5.877
 2056SOL    HW2 6855  -0.001   2.853   5.918
 2057SOL     OW 6856   0.875   3.508   5.923
 2057SOL    HW1 6857   0.798   3.473   5.869
 2057SOL    HW2 6858   0.843   3.579   5.985
 2058SOL     OW 6859   0.230   2.490   7.561
 2058SOL    HW1 6860   0.137   2.488   7.598
 2058SOL    HW2 6861   0.231   2.451   7.469
 2059SOL     OW 6862   0.225   2.137   8.444
 2059SOL    HW1 6863   0.260   2.120   8.536
 2059SOL    HW2 6864   0.137   2.092   8.432
 2060SOL     OW 6865   0.019   2.230   8.095
 2060SOL    HW1 6866  -0.063   2.273   8.134
 2060SOL    HW2 6867  -0.009   2.157   8.032
 2061SOL     OW 6868   0.569   3.137   8.613
 2061SOL    HW1 6869   0.476   3.130   8.576
 2061SOL    HW2 6870   0.580   3.226   8.657
 2062SOL     OW 6871   1.555   3.373   8.151
 2062SOL    HW1 6872   1.498   3.357   8.232
 2062SOL    HW2 6873   1.496   3.383   8.071
 2063SOL     OW 6874   1.135   2.565   8.165
 2063SOL    HW1 6875   1.192   2.643   8.140
 2063SOL    HW2 6876   1.075   2.591   8.241
 2064SOL     OW 6877   1.755   2.469   7.679
 2064SOL    HW1 6878   1.743   2.456   7.580
 2064SOL    HW2 6879   1.725   2.388   7.728
 2065SOL     OW 6880   0.768   3.006   8.471
 2065SOL    HW1 6881   0.690   3.023   8.531
 2065SOL    HW2 6882   0.802   3.093   8.435
 2066SOL     OW 6883   0.850   2.660   9.271
 2066SOL    HW1 6884   0.846   2.736   9.336
 2066SOL    HW2 6885   0.872   2.696   9.180
 2067SOL     OW 6886   0.685   2.874   8.113
 2067SOL    HW1 6887   0.754   2.858   8.183
 2067SOL    HW2 6888   0.612   2.931   8.151
 2068SOL     OW 6889   0.686   3.023   9.251
 2068SOL    HW1 6890   0.746   3.102   9.265
 2068SOL    HW2 6891   0.600   3.054   9.210
 2069SOL     OW 6892   0.335   3.297   8.509
 2069SOL    HW1 6893   0.257   3.266   8.456
 2069SOL    HW2 6894   0.393   3.355   8.452
 2070SOL     OW 6895   1.460   3.367   8.787
 2070SOL    HW1 6896   1.484   3.461   8.813
 2070SOL    HW2 6897   1.444   3.313   8.869
 2071SOL     OW 6898   0.438   2.254   8.947
 2071SOL    HW1 6899   0.520   2.198   8.956
 2071SOL    HW2 6900   0.357   2.196   8.951
 2072SOL     OW 6901   1.603   2.309   8.185
 2072SOL    HW1 6902   1.529   2.355   8.135
 2072SOL    HW2 6903   1.654   2.377   8.238
 2073SOL     OW 6904   0.231   3.575   7.931
 2073SOL    HW1 6905   0.265   3.652   7.985
 2073SOL    HW2 6906   0.275   3.575   7.841
 2074SOL     OW 6907   1.127   3.203   9.138
 2074SOL    HW1 6908   1.174   3.203   9.226
 2074SOL    HW2 6909   1.079   3.116   9.127
 2075SOL     OW 6910   0.230   3.296   7.986
 2075SOL    HW1 6911   0.204   3.392   7.986
 2075SOL    HW2 6912   0.159   3.242   8.031
 2076SOL     OW 6913   0.240   2.953   8.334
 2076SOL    HW1 6914   0.254   2.869   8.386
 2076SOL    HW2 6915   0.185   3.017   8.389
 2077SOL     OW 6916   0.620   3.648   8.887
 2077SOL    HW1 6917   0.528   3.631   8.922
 2077SOL    HW2 6918   0.648   3.740   8.913
 2078SOL     OW 6919   0.606   2.826   7.571
 2078SOL    HW1 6920   0.613   2.910   7.517
 2078SOL    HW2 6921   0.652   2.839   7.659
 2079SOL     OW 6922   1.594   1.976   8.928
 2079SOL    HW1 6923   1.576   2.043   8.856
 2079SOL    HW2 6924   1.591   2.022   9.017
 2080SOL     OW 6925   0.122   2.505   8.011
 2080SOL    HW1 6926   0.077   2.417   8.028
 2080SOL    HW2 6927   0.121   2.559   8.095
 2081SOL     OW 6928   1.842   3.629   7.807
 2081SOL    HW1 6929   1.896   3.600   7.887
 2081SOL    HW2 6930   1.872   3.719   7.778
 2082SOL     OW 6931   0.027   3.458   7.565
 2082SOL    HW1 6932   0.008   3.362   7.586
 2082SOL    HW2 6933  -0.006   3.516   7.640
 2083SOL     OW 6934   1.689   2.784   8.060
 2083SOL    HW1 6935   1.784   2.755   8.068
 2083SOL    HW2 6936   1.681   2.849   7.985
 2084SOL     OW 6937   1.641   2.970   7.880
 2084SOL    HW1 6938   1.727   2.972   7.828
 2084SOL    HW2 6939   1.655   3.017   7.968
 2085SOL     OW 6940   0.113   2.599   9.045
 2085SOL    HW1 6941   0.201   2.586   9.090
 2085SOL    HW2 6942   0.100   2.696   9.023
 2086SOL     OW 6943   0.613   3.227   8.174
 2086SOL    HW1 6944   0.564   3.140   8.183
 2086SOL    HW2 6945   0.590   3.270   8.087
 2087SOL     OW 6946   1.293   3.090   8.871
 2087SOL    HW1 6947   1.330   3.017   8.813
 2087SOL    HW2 6948   1.345   3.095   8.956
 2088SOL     OW 6949   0.809   1.866   7.950
 2088SOL    HW1 6950   0.849   1.957   7.941
 2088SOL    HW2 6951   0.709   1.874   7.956
 2089SOL     OW 6952   0.197   2.838   8.712
 2089SOL    HW1 6953   0.286   2.793   8.698
 2089SOL    HW2 6954   0.124   2.773   8.693
 2090SOL     OW 6955   1.525   2.861   7.638
 2090SOL    HW1 6956   1.462   2.785   7.651
 2090SOL    HW2 6957   1.573   2.879   7.724
 2091SOL     OW 6958   1.187   3.654   9.064
 2091SOL    HW1 6959   1.211   3.714   8.988
 2091SOL    HW2 6960   1.194   3.559   9.034
 2092SOL     OW 6961   0.317   2.113   9.249
 2092SOL    HW1 6962   0.388   2.184   9.255
 2092SOL    HW2 6963   0.229   2.152   9.277
 2093SOL     OW 6964   1.466   3.279   8.401
 2093SOL    HW1 6965   1.407   3.285   8.481
 2093SOL    HW2 6966   1.451   3.191   8.355
 2094SOL     OW 6967   1.667   3.576   8.020
 2094SOL    HW1 6968   1.626   3.553   7.932
 2094SOL    HW2 6969   1.649   3.502   8.085
 2095SOL     OW 6970   0.598   2.591   7.718
 2095SOL    HW1 6971   0.622   2.660   7.650
 2095SOL    HW2 6972   0.520   2.624   7.772
 2096SOL     OW 6973   1.281   2.207   8.392
 2096SOL    HW1 6974   1.195   2.157   8.379
 2096SOL    HW2 6975   1.343   2.153   8.448
 2097SOL     OW 6976   1.576   3.524   7.755
 2097SOL    HW1 6977   1.665   3.570   7.758
 2097SOL    HW2 6978   1.555   3.500   7.660
 2098SOL     OW 6979   0.807   2.467   8.913
 2098SOL    HW1 6980   0.760   2.464   9.002
 2098SOL    HW2 6981   0.756   2.412   8.847
 2099SOL     OW 6982   1.394   2.331   9.122
 2099SOL    HW1 6983   1.374   2.374   9.210
 2099SOL    HW2 6984   1.472   2.269   9.131
 2100SOL     OW 6985   0.973   2.752   9.020
 2100SOL    HW1 6986   1.019   2.668   8.991
 2100SOL    HW2 6987   0.917   2.786   8.945
 2101SOL     OW 6988   0.991   2.272   8.690
 2101SOL    HW1 6989   0.914   2.306   8.744
 2101SOL    HW2 6990   0.957   2.221   8.611
 2102SOL     OW 6991   1.041   2.563   7.877
 2102SOL    HW1 6992   1.067   2.559   7.973
 2102SOL    HW2 6993   0.956   2.512   7.863
 2103SOL     OW 6994   0.076   2.673   8.237
 2103SOL    HW1 6995   0.175   2.661   8.246
 2103SOL    HW2 6996   0.052   2.768   8.258
 2104SOL     OW 6997   0.130   3.683   9.019
 2104SOL    HW1 6998   0.120   3.668   9.118
 2104SOL    HW2 6999   0.044   3.719   8.983
 2105SOL     OW 7000   0.865   2.210   7.643
 2105SOL    HW1 7001   0.924   2.273   7.594
 2105SOL    HW2 7002   0.884   2.116   7.614
 2106SOL     OW 7003   1.719   2.447   9.279
 2106SOL    HW1 7004   1.693   2.536   9.243
 2106SOL    HW2 7005   1.717   2.379   9.206
 2107SOL     OW 7006   1.362   3.006   7.993
 2107SOL    HW1 7007   1.445   2.977   7.945
 2107SOL    HW2 7008   1.313   3.073   7.937
 2108SOL     OW 7009   0.550   2.058   8.333
 2108SOL    HW1 7010   0.545   2.053   8.433
 2108SOL    HW2 7011   0.552   2.154   8.304
 2109SOL     OW 7012   1.008   3.318   7.925
 2109SOL    HW1 7013   0.962   3.390   7.873
 2109SOL    HW2 7014   1.004   3.338   8.023
 2110SOL     OW 7015   0.351   3.663   8.301
 2110SOL    HW1 7016   0.401   3.577   8.307
 2110SOL    HW2 7017   0.416   3.740   8.298
 2111SOL     OW 7018   1.795   2.928   8.321
 2111SOL    HW1 7019   1.733   2.913   8.245
 2111SOL    HW2 7020   1.743   2.939   8.406
 2112SOL     OW 7021   1.227   3.412   8.954
 2112SOL    HW1 7022   1.233   3.335   9.018
 2112SOL    HW2 7023   1.175   3.386   8.874
 2113SOL     OW 7024   0.321   2.805   7.690
 2113SOL    HW1 7025   0.403   2.844   7.648
 2113SOL    HW2 7026   0.294   2.723   7.641
 2114SOL     OW 7027   1.458   2.597   8.176
 2114SOL    HW1 7028   1.453   2.532   8.251
 2114SOL    HW2 7029   1.538   2.656   8.189
 2115SOL     OW 7030   0.461   3.128   9.175
 2115SOL    HW1 7031   0.411   3.129   9.089
 2115SOL    HW2 7032   0.398   3.110   9.251
 2116SOL     OW 7033   1.111   3.638   7.685
 2116SOL    HW1 7034   1.051   3.576   7.735
 2116SOL    HW2 7035   1.142   3.594   7.600
 2117SOL     OW 7036   0.202   2.147   8.946
 2117SOL    HW1 7037   0.122   2.207   8.933
 2117SOL    HW2 7038   0.192   2.098   9.032
 2118SOL     OW 7039   1.632   3.239   7.529
 2118SOL    HW1 7040   1.600   3.333   7.519
 2118SOL    HW2 7041   1.556   3.176   7.517
 2119SOL     OW 7042   0.464   3.605   7.771
 2119SOL    HW1 7043   0.497   3.644   7.857
 2119SOL    HW2 7044   0.540   3.598   7.706
 2120SOL     OW 7045   1.400   1.969   7.874
 2120SOL    HW1 7046   1.376   1.932   7.784
 2120SOL    HW2 7047   1.499   1.985   7.878
 2121SOL     OW 7048   0.249   3.647   8.689
 2121SOL    HW1 7049   0.306   3.582   8.739
 2121SOL    HW2 7050   0.233   3.614   8.596
 2122SOL     OW 7051   0.940   3.560   8.352
 2122SOL    HW1 7052   1.020   3.503   8.373
 2122SOL    HW2 7053   0.891   3.520   8.275
 2123SOL     OW 7054   0.382   2.562   7.928
 2123SOL    HW1 7055   0.427   2.472   7.925
 2123SOL    HW2 7056   0.288   2.551   7.961
 2124SOL     OW 7057   1.547   2.084   9.177
 2124SOL    HW1 7058   1.542   2.121   9.269
 2124SOL    HW2 7059   1.475   2.015   9.165
 2125SOL     OW 7060   0.614   1.984   7.565
 2125SOL    HW1 7061   0.712   1.962   7.572
 2125SOL    HW2 7062   0.583   1.967   7.472
 2126SOL     OW 7063   0.781   2.126   9.197
 2126SOL    HW1 7064   0.848   2.065   9.240
 2126SOL    HW2 7065   0.708   2.145   9.262
 2127SOL     OW 7066   0.888   3.376   8.643
 2127SOL    HW1 7067   0.865   3.351   8.549
 2127SOL    HW2 7068   0.949   3.307   8.682
 2128SOL     OW 7069   1.351   2.452   8.881
 2128SOL    HW1 7070   1.379   2.409   8.966
 2128SOL    HW2 7071   1.376   2.548   8.882
 2129SOL     OW 7072   0.803   3.264   8.372
 2129SOL    HW1 7073   0.893   3.278   8.330
 2129SOL    HW2 7074   0.732   3.266   8.301
 2130SOL     OW 7075   0.922   2.365   8.347
 2130SOL    HW1 7076   0.897   2.356   8.251
 2130SOL    HW2 7077   0.970   2.283   8.378
 2131SOL     OW 7078   0.539   1.926   7.960
 2131SOL    HW1 7079   0.458   1.927   8.018
 2131SOL    HW2 7080   0.542   2.009   7.905
 2132SOL     OW 7081   1.434   3.050   7.489
 2132SOL    HW1 7082   1.466   2.974   7.546
 2132SOL    HW2 7083   1.342   3.077   7.519
 2133SOL     OW 7084   0.297   1.897   7.619
 2133SOL    HW1 7085   0.346   1.981   7.598
 2133SOL    HW2 7086   0.359   1.832   7.664
 2134SOL     OW 7087   0.935   2.098   7.928
 2134SOL    HW1 7088   0.887   2.139   7.850
 2134SOL    HW2 7089   1.034   2.096   7.909
 2135SOL     OW 7090   1.076   2.545   8.912
 2135SOL    HW1 7091   0.996   2.484   8.915
 2135SOL    HW2 7092   1.157   2.492   8.888
 2136SOL     OW 7093   1.227   3.432   8.241
 2136SOL    HW1 7094   1.248   3.506   8.176
 2136SOL    HW2 7095   1.295   3.432   8.314
 2137SOL     OW 7096   0.459   3.014   8.189
 2137SOL    HW1 7097   0.388   2.987   8.254
 2137SOL    HW2 7098   0.433   2.986   8.096
 2138SOL     OW 7099   1.271   3.659   8.039
 2138SOL    HW1 7100   1.315   3.723   7.975
 2138SOL    HW2 7101   1.221   3.711   8.109
 2139SOL     OW 7102   1.032   2.411   7.464
 2139SOL    HW1 7103   0.991   2.493   7.425
 2139SOL    HW2 7104   1.096   2.437   7.537
 2140SOL     OW 7105   0.078   2.418   8.834
 2140SOL    HW1 7106   0.170   2.417   8.793
 2140SOL    HW2 7107   0.072   2.492   8.901
 2141SOL     OW 7108   0.561   2.084   8.595
 2141SOL    HW1 7109   0.599   2.000   8.632
 2141SOL    HW2 7110   0.473   2.103   8.639
 2142SOL     OW 7111   0.866   2.316   8.090
 2142SOL    HW1 7112   0.834   2.388   8.028
 2142SOL    HW2 7113   0.890   2.235   8.037
 2143SOL     OW 7114   1.017   1.901   8.201
 2143SOL    HW1 7115   0.945   1.906   8.132
 2143SOL    HW2 7116   0.993   1.832   8.270
 2144SOL     OW 7117   1.429   3.035   8.315
 2144SOL    HW1 7118   1.374   2.951   8.308
 2144SOL    HW2 7119   1.455   3.064   8.223
 2145SOL     OW 7120   1.466   2.452   8.440
 2145SOL    HW1 7121   1.436   2.357   8.447
 2145SOL    HW2 7122   1.539   2.468   8.506
 2146SOL     OW 7123   1.857   2.695   7.825
 2146SOL    HW1 7124   1.899   2.631   7.889
 2146SOL    HW2 7125   1.819   2.644   7.747
 2147SOL     OW 7126   0.488   3.247   7.622
 2147SOL    HW1 7127   0.401   3.232   7.669
 2147SOL    HW2 7128   0.471   3.273   7.527
 2148SOL     OW 7129   1.664   3.142   8.105
 2148SOL    HW1 7130   1.763   3.150   8.119
 2148SOL    HW2 7131   1.619   3.226   8.136
 2149SOL     OW 7132   1.390   2.437   7.526
 2149SOL    HW1 7133   1.336   2.416   7.607
 2149SOL    HW2 7134   1.481   2.396   7.535
 2150SOL     OW 7135   0.527   2.118   7.776
 2150SOL    HW1 7136   0.554   2.059   7.701
 2150SOL    HW2 7137   0.527   2.213   7.745
 2151SOL     OW 7138   1.754   3.085   9.036
 2151SOL    HW1 7139   1.845   3.046   9.023
 2151SOL    HW2 7140   1.762   3.181   9.060
 2152SOL     OW 7141   1.064   3.209   8.788
 2152SOL    HW1 7142   0.984   3.186   8.843
 2152SOL    HW2 7143   1.147   3.183   8.837
 2153SOL     OW 7144   1.592   3.491   9.073
 2153SOL    HW1 7145   1.619   3.525   8.983
 2153SOL    HW2 7146   1.671   3.453   9.119
 2154SOL     OW 7147   1.111   3.057   8.548
 2154SOL    HW1 7148   1.071   3.101   8.629
 2154SOL    HW2 7149   1.070   3.094   8.465
 2155SOL     OW 7150   1.638   2.961   8.527
 2155SOL    HW1 7151   1.643   3.042   8.586
 2155SOL    HW2 7152   1.552   2.963   8.476
 2156SOL     OW 7153   0.915   1.951   8.850
 2156SOL    HW1 7154   0.940   1.931   8.755
 2156SOL    HW2 7155   0.987   2.007   8.892
 2157SOL     OW 7156   0.980   2.978   9.167
 2157SOL    HW1 7157   0.881   2.984   9.177
 2157SOL    HW2 7158   1.003   2.898   9.111
 2158SOL     OW 7159   0.705   2.912   7.816
 2158SOL    HW1 7160   0.691   2.919   7.915
 2158SOL    HW2 7161   0.789   2.861   7.798
 2159SOL     OW 7162   0.410   2.675   8.699
 2159SOL    HW1 7163   0.496   2.687   8.749
 2159SOL    HW2 7164   0.368   2.588   8.726
 2160SOL     OW 7165   1.274   2.248   8.710
 2160SOL    HW1 7166   1.295   2.322   8.774
 2160SOL    HW2 7167   1.185   2.265   8.667
 2161SOL     OW 7168   0.064   3.426   8.779
 2161SOL    HW1 7169   0.018   3.508   8.745
 2161SOL    HW2 7170   0.162   3.445   8.788
 2162SOL     OW 7171   0.367   2.962   7.949
 2162SOL    HW1 7172   0.360   3.045   7.893
 2162SOL    HW2 7173   0.371   2.882   7.889
 2163SOL     OW 7174   0.566   2.399   8.313
 2163SOL    HW1 7175   0.578   2.465   8.239
 2163SOL    HW2 7176   0.612   2.433   8.396
 2164SOL     OW 7177   1.252   3.210   7.836
 2164SOL    HW1 7178   1.302   3.287   7.876
 2164SOL    HW2 7179   1.157   3.212   7.868
 2165SOL     OW 7180   1.272   3.307   8.590
 2165SOL    HW1 7181   1.319   3.320   8.677
 2165SOL    HW2 7182   1.206   3.233   8.599
 2166SOL     OW 7183   1.582   2.501   7.920
 2166SOL    HW1 7184   1.551   2.562   7.993
 2166SOL    HW2 7185   1.632   2.553   7.851
 2167SOL     OW 7186   0.354   3.372   8.777
 2167SOL    HW1 7187   0.333   3.328   8.690
 2167SOL    HW2 7188   0.451   3.398   8.780
 2168SOL     OW 7189   0.402   2.613   9.046
 2168SOL    HW1 7190   0.470   2.668   8.999
 2168SOL    HW2 7191   0.442   2.525   9.073
 2169SOL     OW 7192   1.587   2.641   9.118
 2169SOL    HW1 7193   1.495   2.679   9.113
 2169SOL    HW2 7194   1.647   2.688   9.053
 2170SOL     OW 7195   1.013   1.967   9.218
 2170SOL    HW1 7196   1.019   2.052   9.166
 2170SOL    HW2 7197   1.045   1.891   9.161
 2171SOL     OW 7198   0.504   1.912   9.188
 2171SOL    HW1 7199   0.462   1.855   9.118
 2171SOL    HW2 7200   0.438   1.981   9.220
 2172SOL     OW 7201   0.573   2.732   8.477
 2172SOL    HW1 7202   0.617   2.821   8.468
 2172SOL    HW2 7203   0.510   2.732   8.554
 2173SOL     OW 7204   1.360   2.724   8.493
 2173SOL    HW1 7205   1.285   2.724   8.427
 2173SOL    HW2 7206   1.397   2.632   8.502
 2174SOL     OW 7207   1.209   2.387   7.723
 2174SOL    HW1 7208   1.222   2.303   7.777
 2174SOL    HW2 7209   1.180   2.461   7.783
 2175SOL     OW 7210   0.307   2.075   8.679
 2175SOL    HW1 7211   0.284   2.112   8.769
 2175SOL    HW2 7212   0.277   1.980   8.673
 2176SOL     OW 7213   0.037   3.172   8.730
 2176SOL    HW1 7214   0.090   3.123   8.798
 2176SOL    HW2 7215   0.059   3.270   8.735
 2177SOL     OW 7216   0.732   2.496   8.512
 2177SOL    HW1 7217   0.791   2.470   8.436
 2177SOL    HW2 7218   0.704   2.592   8.501
 2178SOL     OW 7219   1.728   2.797   9.302
 2178SOL    HW1 7220   1.682   2.790   9.213
 2178SOL    HW2 7221   1.666   2.841   9.368
 2179SOL     OW 7222   0.307   1.925   8.066
 2179SOL    HW1 7223   0.296   2.019   8.099
 2179SOL    HW2 7224   0.302   1.862   8.143
 2180SOL     OW 7225   1.622   2.229   7.822
 2180SOL    HW1 7226   1.624   2.153   7.886
 2180SOL    HW2 7227   1.574   2.306   7.862
 2181SOL     OW 7228   1.023   2.628   8.414
 2181SOL    HW1 7229   1.038   2.649   8.510
 2181SOL    HW2 7230   0.993   2.533   8.405
 2182SOL     OW 7231   0.980   3.435   9.148
 2182SOL    HW1 7232   0.960   3.479   9.060
 2182SOL    HW2 7233   1.019   3.344   9.132
 2183SOL     OW 7234   1.859   3.380   9.053
 2183SOL    HW1 7235   1.873   3.407   8.958
 2183SOL    HW2 7236   1.942   3.402   9.106
 2184SOL     OW 7237   0.350   2.760   9.252
 2184SOL    HW1 7238   0.426   2.804   9.300
 2184SOL    HW2 7239   0.385   2.713   9.170
 2185SOL     OW 7240   1.540   2.136   7.573
 2185SOL    HW1 7241   1.479   2.061   7.596
 2185SOL    HW2 7242   1.562   2.188   7.656
 2186SOL     OW 7243   1.303   2.700   7.490
 2186SOL    HW1 7244   1.337   2.607   7.505
 2186SOL    HW2 7245   1.321   2.727   7.395
 2187SOL     OW 7246   1.068   3.195   8.297
 2187SOL    HW1 7247   1.075   3.111   8.242
 2187SOL    HW2 7248   1.130   3.264   8.261
 2188SOL     OW 7249   0.319   2.672   8.397
 2188SOL    HW1 7250   0.412   2.708   8.402
 2188SOL    HW2 7251   0.313   2.587   8.449
 2189SOL     OW 7252   0.339   2.371   8.454
 2189SOL    HW1 7253   0.287   2.288   8.437
 2189SOL    HW2 7254   0.416   2.376   8.390
 2190SOL     OW 7255   1.138   2.242   9.126
 2190SOL    HW1 7256   1.093   2.305   9.190
 2190SOL    HW2 7257   1.231   2.273   9.109
 2191SOL     OW 7258   1.160   2.069   8.925
 2191SOL    HW1 7259   1.160   2.133   9.002
 2191SOL    HW2 7260   1.188   2.117   8.842
 2192SOL     OW 7261   0.008   3.188   7.648
 2192SOL    HW1 7262  -0.085   3.209   7.617
 2192SOL    HW2 7263   0.018   3.089   7.661
 2193SOL     OW 7264   0.088   3.663   8.375
 2193SOL    HW1 7265   0.046   3.577   8.348
 2193SOL    HW2 7266   0.182   3.666   8.341
 2194SOL     OW 7267   0.504   3.430   8.358
 2194SOL    HW1 7268   0.570   3.504   8.367
 2194SOL    HW2 7269   0.548   3.351   8.316
 2195SOL     OW 7270   1.002   2.658   8.686
 2195SOL    HW1 7271   1.043   2.626   8.772
 2195SOL    HW2 7272   0.906   2.631   8.683
 2196SOL     OW 7273   0.040   2.406   8.562
 2196SOL    HW1 7274   0.125   2.373   8.521
 2196SOL    HW2 7275   0.053   2.421   8.660
 2197SOL     OW 7276   0.189   2.382   9.170
 2197SOL    HW1 7277   0.248   2.342   9.100
 2197SOL    HW2 7278   0.131   2.453   9.129
 2198SOL     OW 7279   1.369   2.812   9.108
 2198SOL    HW1 7280   1.408   2.901   9.128
 2198SOL    HW2 7281   1.379   2.792   9.011
 2199SOL     OW 7282   0.815   2.434   7.773
 2199SOL    HW1 7283   0.822   2.345   7.727
 2199SOL    HW2 7284   0.721   2.468   7.765
 2200SOL     OW 7285   1.657   2.466   8.654
 2200SOL    HW1 7286   1.619   2.397   8.716
 2200SOL    HW2 7287   1.739   2.430   8.610
 2201SOL     OW 7288   0.252   3.426   9.192
 2201SOL    HW1 7289   0.222   3.483   9.268
 2201SOL    HW2 7290   0.245   3.329   9.218
 2202SOL     OW 7291   0.671   2.326   8.717
 2202SOL    HW1 7292   0.637   2.237   8.687
 2202SOL    HW2 7293   0.697   2.380   8.637
 2203SOL     OW 7294   0.930   3.540   8.913
 2203SOL    HW1 7295   0.906   3.522   8.818
 2203SOL    HW2 7296   0.960   3.634   8.923
 2204SOL     OW 7297   0.473   2.362   7.639
 2204SOL    HW1 7298   0.534   2.442   7.643
 2204SOL    HW2 7299   0.378   2.393   7.646
 2205SOL     OW 7300   0.159   2.999   8.914
 2205SOL    HW1 7301   0.181   2.938   8.990
 2205SOL    HW2 7302   0.169   2.950   8.828
 2206SOL     OW 7303   1.347   2.921   8.682
 2206SOL    HW1 7304   1.371   2.858   8.608
 2206SOL    HW2 7305   1.257   2.961   8.664
 2207SOL     OW 7306   1.302   2.717   7.757
 2207SOL    HW1 7307   1.216   2.686   7.799
 2207SOL    HW2 7308   1.298   2.703   7.658
 2208SOL     OW 7309   1.759   3.609   8.602
 2208SOL    HW1 7310   1.820   3.639   8.529
 2208SOL    HW2 7311   1.721   3.520   8.580
 2209SOL     OW 7312   1.252   3.593   8.576
 2209SOL    HW1 7313   1.336   3.598   8.522
 2209SOL    HW2 7314   1.229   3.497   8.594
 2210SOL     OW 7315   0.083   3.120   8.470
 2210SOL    HW1 7316   0.078   3.119   8.570
 2210SOL    HW2 7317   0.000   3.079   8.432
 2211SOL     OW 7318   0.688   3.524   9.164
 2211SOL    HW1 7319   0.632   3.605   9.173
 2211SOL    HW2 7320   0.740   3.528   9.078
 2212SOL     OW 7321   1.726   1.997   7.971
 2212SOL    HW1 7322   1.799   1.980   7.904
 2212SOL    HW2 7323   1.695   1.910   8.009
 2213SOL     OW 7324   1.388   3.435   7.925
 2213SOL    HW1 7325   1.455   3.447   7.851
 2213SOL    HW2 7326   1.348   3.524   7.948
 2214SOL     OW 7327   0.130   3.656   9.299
 2214SOL    HW1 7328   0.089   3.582   9.352
 2214SOL    HW2 7329   0.194   3.707   9.357
 2215SOL     OW 7330   1.280   2.789   8.120
 2215SOL    HW1 7331   1.340   2.708   8.122
 2215SOL    HW2 7332   1.320   2.858   8.060
 2216SOL     OW 7333   0.830   3.135   8.870
 2216SOL    HW1 7334   0.825   3.168   8.965
 2216SOL    HW2 7335   0.744   3.154   8.824
 2217SOL     OW 7336   0.672   3.478   7.602
 2217SOL    HW1 7337   0.681   3.488   7.503
 2217SOL    HW2 7338   0.632   3.389   7.623
 2218SOL     OW 7339   1.650   3.582   8.842
 2218SOL    HW1 7340   1.703   3.592   8.758
 2218SOL    HW2 7341   1.623   3.672   8.876
 2219SOL     OW 7342   1.841   2.037   8.411
 2219SOL    HW1 7343   1.880   1.952   8.375
 2219SOL    HW2 7344   1.743   2.039   8.392
 2220SOL     OW 7345   0.263   2.188   8.168
 2220SOL    HW1 7346   0.184   2.239   8.134
 2220SOL    HW2 7347   0.254   2.173   8.266
 2221SOL     OW 7348   1.194   3.474   7.479
 2221SOL    HW1 7349   1.200   3.381   7.516
 2221SOL    HW2 7350   1.135   3.474   7.399
 2222SOL     OW 7351   0.822   2.864   8.820
 2222SOL    HW1 7352   0.862   2.863   8.728
 2222SOL    HW2 7353   0.832   2.956   8.860
 2223SOL     OW 7354   0.916   2.772   7.739
 2223SOL    HW1 7355   0.979   2.810   7.671
 2223SOL    HW2 7356   0.956   2.689   7.778
 2224SOL     OW 7357   1.504   3.469   7.492
 2224SOL    HW1 7358   1.412   3.506   7.499
 2224SOL    HW2 7359   1.542   3.489   7.402
 2225SOL     OW 7360   0.372   3.150   8.938
 2225SOL    HW1 7361   0.359   3.243   8.904
 2225SOL    HW2 7362   0.288   3.098   8.925
 2226SOL     OW 7363   1.614   3.154   8.737
 2226SOL    HW1 7364   1.674   3.157   8.817
 2226SOL    HW2 7365   1.539   3.218   8.750
 2227SOL     OW 7366   1.039   2.960   8.144
 2227SOL    HW1 7367   0.969   2.913   8.198
 2227SOL    HW2 7368   1.098   2.892   8.101
 2228SOL     OW 7369   1.014   2.098   8.419
 2228SOL    HW1 7370   1.006   2.062   8.326
 2228SOL    HW2 7371   1.012   2.022   8.484
 2229SOL     OW 7372   0.590   3.349   7.939
 2229SOL    HW1 7373   0.632   3.291   7.869
 2229SOL    HW2 7374   0.546   3.428   7.895
 2230SOL     OW 7375   1.709   2.247   8.829
 2230SOL    HW1 7376   1.782   2.316   8.833
 2230SOL    HW2 7377   1.737   2.172   8.770
 2231SOL     OW 7378   0.255   3.210   7.738
 2231SOL    HW1 7379   0.159   3.211   7.711
 2231SOL    HW2 7380   0.267   3.263   7.822
 2232SOL     OW 7381   0.105   2.875   9.174
 2232SOL    HW1 7382   0.028   2.842   9.228
 2232SOL    HW2 7383   0.190   2.845   9.216
 2233SOL     OW 7384   0.672   2.065   8.937
 2233SOL    HW1 7385   0.762   2.049   8.897
 2233SOL    HW2 7386   0.680   2.070   9.036
 2234SOL     OW 7387   0.075   2.207   7.481
 2234SOL    HW1 7388  -0.017   2.179   7.452
 2234SOL    HW2 7389   0.106   2.284   7.425
 2235SOL     OW 7390   1.440   2.718   8.846
 2235SOL    HW1 7391   1.383   2.770   8.783
 2235SOL    HW2 7392   1.536   2.730   8.822
 2236SOL     OW 7393   0.072   2.028   7.766
 2236SOL    HW1 7394   0.055   2.111   7.712
 2236SOL    HW2 7395   0.162   1.991   7.744
 2237SOL     OW 7396   1.183   3.197   7.567
 2237SOL    HW1 7397   1.084   3.186   7.569
 2237SOL    HW2 7398   1.217   3.212   7.660
 2238SOL     OW 7399   0.613   2.704   8.879
 2238SOL    HW1 7400   0.669   2.785   8.862
 2238SOL    HW2 7401   0.672   2.624   8.882
 2239SOL     OW 7402   1.493   3.629   8.407
 2239SOL    HW1 7403   1.526   3.693   8.338
 2239SOL    HW2 7404   1.559   3.623   8.482
 2240SOL     OW 7405   0.716   2.427   9.156
 2240SOL    HW1 7406   0.735   2.492   9.230
 2240SOL    HW2 7407   0.776   2.347   9.165
 2241SOL     OW 7408   1.450   3.082   9.081
 2241SOL    HW1 7409   1.441   3.072   9.180
 2241SOL    HW2 7410   1.546   3.075   9.055
 2242SOL     OW 7411   0.390   3.603   9.008
 2242SOL    HW1 7412   0.299   3.644   9.006
 2242SOL    HW2 7413   0.383   3.509   9.040
 2243SOL     OW 7414   1.674   2.745   8.702
 2243SOL    HW1 7415   1.647   2.656   8.665
 2243SOL    HW2 7416   1.675   2.813   8.629
 2244SOL     OW 7417   1.225   2.187   7.897
 2244SOL    HW1 7418   1.290   2.113   7.886
 2244SOL    HW2 7419   1.245   2.237   7.981
 2245SOL     OW 7420   0.594   2.607   8.100
 2245SOL    HW1 7421   0.644   2.692   8.081
 2245SOL    HW2 7422   0.506   2.609   8.052
 2246SOL     OW 7423   1.777   2.204   9.090
 2246SOL    HW1 7424   1.760   2.235   8.996
 2246SOL    HW2 7425   1.693   2.167   9.128
 2247SOL     OW 7426   1.730   2.796   8.965
 2247SOL    HW1 7427   1.768   2.887   8.980
 2247SOL    HW2 7428   1.722   2.779   8.866
 2248SOL     OW 7429   0.859   3.236   7.464
 2248SOL    HW1 7430   0.813   3.251   7.552
 2248SOL    HW2 7431   0.903   3.321   7.434
 2249SOL     OW 7432   0.661   3.652   8.401
 2249SOL    HW1 7433   0.615   3.740   8.388
 2249SOL    HW2 7434   0.760   3.664   8.394
 2250SOL     OW 7435   0.859   2.818   8.309
 2250SOL    HW1 7436   0.913   2.749   8.357
 2250SOL    HW2 7437   0.827   2.887   8.375
 2251SOL     OW 7438   1.083   2.846   7.535
 2251SOL    HW1 7439   1.060   2.899   7.453
 2251SOL    HW2 7440   1.164   2.790   7.516
 2252SOL     OW 7441   1.861   3.431   8.299
 2252SOL    HW1 7442   1.790   3.419   8.229
 2252SOL    HW2 7443   1.862   3.352   8.359
 2253SOL     OW 7444   0.221   3.176   9.292
 2253SOL    HW1 7445   0.156   3.103   9.271
 2253SOL    HW2 7446   0.225   3.190   9.390
 2254SOL     OW 7447   0.079   3.102   8.101
 2254SOL    HW1 7448   0.078   3.055   8.189
 2254SOL    HW2 7449   0.161   3.074   8.050
 2255SOL     OW 7450   0.672   3.253   9.072
 2255SOL    HW1 7451   0.594   3.203   9.110
 2255SOL    HW2 7452   0.669   3.348   9.103
 2256SOL     OW 7453   1.824   2.054   8.675
 2256SOL    HW1 7454   1.820   1.964   8.719
 2256SOL    HW2 7455   1.827   2.043   8.576
 2257SOL     OW 7456   0.428   2.286   7.968
 2257SOL    HW1 7457   0.458   2.214   7.906
 2257SOL    HW2 7458   0.389   2.246   8.051
 2258SOL     OW 7459   1.705   3.349   8.552
 2258SOL    HW1 7460   1.612   3.324   8.525
 2258SOL    HW2 7461   1.731   3.299   8.634
 2259SOL     OW 7462   0.317   2.409   8.728
 2259SOL    HW1 7463   0.355   2.350   8.800
 2259SOL    HW2 7464   0.357   2.383   8.640
 2260SOL     OW 7465   0.812   3.448   8.135
 2260SOL    HW1 7466   0.844   3.458   8.041
 2260SOL    HW2 7467   0.733   3.386   8.137
 2261SOL     OW 7468   1.424   2.076   8.560
 2261SOL    HW1 7469   1.476   2.011   8.615
 2261SOL    HW2 7470   1.375   2.139   8.621
 2262SOL     OW 7471   1.001   1.896   8.602
 2262SOL    HW1 7472   0.938   1.824   8.571
 2262SOL    HW2 7473   1.094   1.860   8.602
 2263SOL     OW 7474   0.770   3.192   7.749
 2263SOL    HW1 7475   0.724   3.105   7.766
 2263SOL    HW2 7476   0.861   3.189   7.790
 2264SOL     OW 7477   0.618   3.429   8.732
 2264SOL    HW1 7478   0.613   3.511   8.789
 2264SOL    HW2 7479   0.707   3.426   8.687
 2265SOL     OW 7480   1.352   1.914   7.616
 2265SOL    HW1 7481   1.387   1.873   7.532
 2265SOL    HW2 7482   1.262   1.876   7.636
 2266SOL     OW 7483   1.300   2.315   8.139
 2266SOL    HW1 7484   1.241   2.395   8.143
 2266SOL    HW2 7485   1.315   2.280   8.232
 2267SOL     OW 7486   1.593   2.083   8.330
 2267SOL    HW1 7487   1.509   2.082   8.384
 2267SOL    HW2 7488   1.595   2.166   8.274
 2268SOL     OW 7489   0.039   2.939   7.748
 2268SOL    HW1 7490   0.138   2.928   7.739
 2268SOL    HW2 7491  -0.001   2.853   7.780
 2269SOL     OW 7492   0.875   3.508   7.785
 2269SOL    HW1 7493   0.798   3.473   7.731
 2269SOL    HW2 7494   0.843   3.579   7.847
 2270SOL     OW 7495   0.230   2.490   9.423
 2270SOL    HW1 7496   0.137   2.488   9.460
 2270SOL    HW2 7497   0.231   2.451   9.331
 2271SOL     OW 7498   0.225   2.137  10.306
 2271SOL    HW1 7499   0.260   2.120  10.398
 2271SOL    HW2 7500   0.137   2.092  10.294
 2272SOL     OW 7501   0.019   2.230   9.957
 2272SOL    HW1 7502  -0.063   2.273   9.996
 2272SOL    HW2 7503  -0.009   2.157   9.894
 2273SOL     OW 7504   0.569   3.137  10.475
 2273SOL    HW1 7505   0.476   3.130  10.438
 2273SOL    HW2 7506   0.580   3.226  10.519
 2274SOL     OW 7507   1.555   3.373  10.013
 2274SOL    HW1 7508   1.498   3.357  10.094
 2274SOL    HW2 7509   1.496   3.383   9.933
 2275SOL     OW 7510   1.135   2.565  10.027
 2275SOL    HW1 7511   1.192   2.643  10.002
 2275SOL    HW2 7512   1.075   2.591  10.103
 2276SOL     OW 7513   1.755   2.469   9.541
 2276SOL    HW1 7514   1.743   2.456   9.442
 2276SOL    HW2 7515   1.725   2.388   9.590
 2277SOL     OW 7516   0.768   3.006  10.333
 2277SOL    HW1 7517   0.690   3.023  10.393
 2277SOL    HW2 7518   0.802   3.093  10.297
 2278SOL     OW 7519   0.850   2.660  11.133
 2278SOL    HW1 7520   0.846   2.736  11.198
 2278SOL    HW2 7521   0.872   2.696  11.042
 2279SOL     OW 7522   0.685   2.874   9.975
 2279SOL    HW1 7523   0.754   2.858  10.045
 2279SOL    HW2 7524   0.612   2.931  10.013
 2280SOL     OW 7525   0.335   3.297  10.371
 2280SOL    HW1 7526   0.257   3.266  10.318
 2280SOL    HW2 7527   0.393   3.355  10.314
 2281SOL     OW 7528   1.460   3.367  10.649
 2281SOL    HW1 7529   1.484   3.461  10.675
 2281SOL    HW2 7530   1.444   3.313  10.731
 2282SOL     OW 7531   0.438   2.254  10.809
 2282SOL    HW1 7532   0.520   2.198  10.818
 2282SOL    HW2 7533   0.357   2.196  10.813
 2283SOL     OW 7534   1.603   2.309  10.047
 2283SOL    HW1 7535   1.529   2.355   9.997
 2283SOL    HW2 7536   1.654   2.377  10.100
 2284SOL     OW 7537   0.231   3.575   9.793
 2284SOL    HW1 7538   0.265   3.652   9.847
 2284SOL    HW2 7539   0.275   3.575   9.703
 2285SOL     OW 7540   0.230   3.296   9.848
 2285SOL    HW1 7541   0.204   3.392   9.848
 2285SOL    HW2 7542   0.159   3.242   9.893
 2286SOL     OW 7543   0.240   2.953  10.196
 2286SOL    HW1 7544   0.254   2.869  10.248
 2286SOL    HW2 7545   0.185   3.017  10.251
 2287SOL     OW 7546   0.620   3.648  10.749
 2287SOL    HW1 7547   0.528   3.631  10.784
 2287SOL    HW2 7548   0.648   3.740  10.775
 2288SOL     OW 7549   0.606   2.826   9.433
 2288SOL    HW1 7550   0.613   2.910   9.379
 2288SOL    HW2 7551   0.652   2.839   9.521
 2289SOL     OW 7552   1.594   1.976  10.790
 2289SOL    HW1 7553   1.576   2.043  10.718
 2289SOL    HW2 7554   1.591   2.022  10.879
 2290SOL     OW 7555   0.122   2.505   9.873
 2290SOL    HW1 7556   0.077   2.417   9.890
 2290SOL    HW2 7557   0.121   2.559   9.957
 2291SOL     OW 7558   1.842   3.629   9.669
 2291SOL    HW1 7559   1.896   3.600   9.749
 2291SOL    HW2 7560   1.872   3.719   9.640
 2292SOL     OW 7561   0.027   3.458   9.427
 2292SOL    HW1 7562   0.008   3.362   9.448
 2292SOL    HW2 7563  -0.006   3.516   9.502
 2293SOL     OW 7564   1.689   2.784   9.922
 2293SOL    HW1 7565   1.784   2.755   9.930
 2293SOL    HW2 7566   1.681   2.849   9.847
 2294SOL     OW 7567   1.641   2.970   9.742
 2294SOL    HW1 7568   1.727   2.972   9.690
 2294SOL    HW2 7569   1.655   3.017   9.830
 2295SOL     OW 7570   0.113   2.599  10.907
 2295SOL    HW1 7571   0.201   2.586  10.952
 2295SOL    HW2 7572   0.100   2.696  10.885
 2296SOL     OW 7573   0.613   3.227  10.036
 2296SOL    HW1 7574   0.564   3.140  10.045
 2296SOL    HW2 7575   0.590   3.270   9.949
 2297SOL     OW 7576   1.293   3.090  10.733
 2297SOL    HW1 7577   1.330   3.017  10.675
 2297SOL    HW2 7578   1.345   3.095  10.818
 2298SOL     OW 7579   0.809   1.866   9.812
 2298SOL    HW1 7580   0.849   1.957   9.803
 2298SOL    HW2 7581   0.709   1.874   9.818
 2299SOL     OW 7582   0.197   2.838  10.574
 2299SOL    HW1 7583   0.286   2.793  10.560
 2299SOL    HW2 7584   0.124   2.773  10.555
 2300SOL     OW 7585   1.525   2.861   9.500
 2300SOL    HW1 7586   1.462   2.785   9.513
 2300SOL    HW2 7587   1.573   2.879   9.586
 2301SOL     OW 7588   1.187   3.654  10.926
 2301SOL    HW1 7589   1.211   3.714  10.850
 2301SOL    HW2 7590   1.194   3.559  10.896
 2302SOL     OW 7591   0.317   2.113  11.111
 2302SOL    HW1 7592   0.388   2.184  11.117
 2302SOL    HW2 7593   0.229   2.152  11.139
 2303SOL     OW 7594   1.466   3.279  10.263
 2303SOL    HW1 7595   1.407   3.285  10.343
 2303SOL    HW2 7596   1.451   3.191  10.217
 2304SOL     OW 7597   1.667   3.576   9.882
 2304SOL    HW1 7598   1.626   3.553   9.794
 2304SOL    HW2 7599   1.649   3.502   9.947
 2305SOL     OW 7600   0.598   2.591   9.580
 2305SOL    HW1 7601   0.622   2.660   9.512
 2305SOL    HW2 7602   0.520   2.624   9.634
 2306SOL     OW 7603   1.281   2.207  10.254
 2306SOL    HW1 7604   1.195   2.157  10.241
 2306SOL    HW2 7605   1.343   2.153  10.310
 2307SOL     OW 7606   1.576   3.524   9.617
 2307SOL    HW1 7607   1.665   3.570   9.620
 2307SOL    HW2 7608   1.555   3.500   9.522
 2308SOL     OW 7609   0.807   2.467  10.775
 2308SOL    HW1 7610   0.760   2.464  10.864
 2308SOL    HW2 7611   0.756   2.412  10.709
 2309SOL     OW 7612   0.973   2.752  10.882
 2309SOL    HW1 7613   1.019   2.668  10.853
 2309SOL    HW2 7614   0.917   2.786  10.807
 2310SOL     OW 7615   0.991   2.272  10.552
 2310SOL    HW1 7616   0.914   2.306  10.606
 2310SOL    HW2 7617   0.957   2.221  10.473
 2311SOL     OW 7618   1.041   2.563   9.739
 2311SOL    HW1 7619   1.067   2.559   9.835
 2311SOL    HW2 7620   0.956   2.512   9.725
 2312SOL     OW 7621   0.076   2.673  10.099
 2312SOL    HW1 7622   0.175   2.661  10.108
 2312SOL    HW2 7623   0.052   2.768  10.120
 2313SOL     OW 7624   0.130   3.683  10.881
 2313SOL    HW1 7625   0.120   3.668  10.980
 2313SOL    HW2 7626   0.044   3.719  10.845
 2314SOL     OW 7627   0.865   2.210   9.505
 2314SOL    HW1 7628   0.924   2.273   9.456
 2314SOL    HW2 7629   0.884   2.116   9.476
 2315SOL     OW 7630   1.362   3.006   9.855
 2315SOL    HW1 7631   1.445   2.977   9.807
 2315SOL    HW2 7632   1.313   3.073   9.799
 2316SOL     OW 7633   0.550   2.058  10.195
 2316SOL    HW1 7634   0.545   2.053  10.295
 2316SOL    HW2 7635   0.552   2.154  10.166
 2317SOL     OW 7636   1.008   3.318   9.787
 2317SOL    HW1 7637   0.962   3.390   9.735
 2317SOL    HW2 7638   1.004   3.338   9.885
 2318SOL     OW 7639   0.351   3.663  10.163
 2318SOL    HW1 7640   0.401   3.577  10.169
 2318SOL    HW2 7641   0.416   3.740  10.160
 2319SOL     OW 7642   1.795   2.928  10.183
 2319SOL    HW1 7643   1.733   2.913  10.107
 2319SOL    HW2 7644   1.743   2.939  10.268
 2320SOL     OW 7645   1.227   3.412  10.816
 2320SOL    HW1 7646   1.233   3.335  10.880
 2320SOL    HW2 7647   1.175   3.386  10.736
 2321SOL     OW 7648   0.321   2.805   9.552
 2321SOL    HW1 7649   0.403   2.844   9.510
 2321SOL    HW2 7650   0.294   2.723   9.503
 2322SOL     OW 7651   1.458   2.597  10.038
 2322SOL    HW1 7652   1.453   2.532  10.113
 2322SOL    HW2 7653   1.538   2.656  10.051
 2323SOL     OW 7654   0.461   3.128  11.037
 2323SOL    HW1 7655   0.411   3.129  10.951
 2323SOL    HW2 7656   0.398   3.110  11.113
 2324SOL     OW 7657   1.111   3.638   9.547
 2324SOL    HW1 7658   1.051   3.576   9.597
 2324SOL    HW2 7659   1.142   3.594   9.462
 2325SOL     OW 7660   0.202   2.147  10.808
 2325SOL    HW1 7661   0.122   2.207  10.795
 2325SOL    HW2 7662   0.192   2.098  10.894
 2326SOL     OW 7663   1.632   3.239   9.391
 2326SOL    HW1 7664   1.600   3.333   9.381
 2326SOL    HW2 7665   1.556   3.176   9.379
 2327SOL     OW 7666   0.464   3.605   9.633
 2327SOL    HW1 7667   0.497   3.644   9.719
 2327SOL    HW2 7668   0.540   3.598   9.568
 2328SOL     OW 7669   1.400   1.969   9.736
 2328SOL    HW1 7670   1.376   1.932   9.646
 2328SOL    HW2 7671   1.499   1.985   9.740
 2329SOL     OW 7672   0.249   3.647  10.551
 2329SOL    HW1 7673   0.306   3.582  10.601
 2329SOL    HW2 7674   0.233   3.614  10.458
 2330SOL     OW 7675   0.940   3.560  10.214
 2330SOL    HW1 7676   1.020   3.503  10.235
 2330SOL    HW2 7677   0.891   3.520  10.137
 2331SOL     OW 7678   0.382   2.562   9.790
 2331SOL    HW1 7679   0.427   2.472   9.787
 2331SOL    HW2 7680   0.288   2.551   9.823
 2332SOL     OW 7681   0.614   1.984   9.427
 2332SOL    HW1 7682   0.712   1.962   9.434
 2332SOL    HW2 7683   0.583   1.967   9.334
 2333SOL     OW 7684   0.781   2.126  11.059
 2333SOL    HW1 7685   0.848   2.065  11.102
 2333SOL    HW2 7686   0.708   2.145  11.124
 2334SOL     OW 7687   0.888   3.376  10.505
 2334SOL    HW1 7688   0.865   3.351  10.411
 2334SOL    HW2 7689   0.949   3.307  10.544
 2335SOL     OW 7690   1.351   2.452  10.743
 2335SOL    HW1 7691   1.379   2.409  10.828
 2335SOL    HW2 7692   1.376   2.548  10.744
 2336SOL     OW 7693   0.803   3.264  10.234
 2336SOL    HW1 7694   0.893   3.278  10.192
 2336SOL    HW2 7695   0.732   3.266  10.163
 2337SOL     OW 7696   0.922   2.365  10.209
 2337SOL    HW1 7697   0.897   2.356  10.113
 2337SOL    HW2 7698   0.970   2.283  10.240
 2338SOL     OW 7699   0.539   1.926   9.822
 2338SOL    HW1 7700   0.458   1.927   9.880
 2338SOL    HW2 7701   0.542   2.009   9.767
 2339SOL     OW 7702   1.434   3.050   9.351
 2339SOL    HW1 7703   1.466   2.974   9.408
 2339SOL    HW2 7704   1.342   3.077   9.381
 2340SOL     OW 7705   0.297   1.897   9.481
 2340SOL    HW1 7706   0.346   1.981   9.460
 2340SOL    HW2 7707   0.359   1.832   9.526
 2341SOL     OW 7708   0.935   2.098   9.790
 2341SOL    HW1 7709   0.887   2.139   9.712
 2341SOL    HW2 7710   1.034   2.096   9.771
 2342SOL     OW 7711   1.076   2.545  10.774
 2342SOL    HW1 7712   0.996   2.484  10.777
 2342SOL    HW2 7713   1.157   2.492  10.750
 2343SOL     OW 7714   1.227   3.432  10.103
 2343SOL    HW1 7715   1.248   3.506  10.038
 2343SOL    HW2 7716   1.295   3.432  10.176
 2344SOL     OW 7717   0.459   3.014  10.051
 2344SOL    HW1 7718   0.388   2.987  10.116
 2344SOL    HW2 7719   0.433   2.986   9.958
 2345SOL     OW 7720   1.271   3.659   9.901
 2345SOL    HW1 7721   1.315   3.723   9.837
 2345SOL    HW2 7722   1.221   3.711   9.971
 2346SOL     OW 7723   1.032   2.411   9.326
 2346SOL    HW1 7724   0.991   2.493   9.287
 2346SOL    HW2 7725   1.096   2.437   9.399
 2347SOL     OW 7726   0.078   2.418  10.696
 2347SOL    HW1 7727   0.170   2.417  10.655
 2347SOL    HW2 7728   0.072   2.492  10.763
 2348SOL     OW 7729   0.561   2.084  10.457
 2348SOL    HW1 7730   0.599   2.000  10.494
 2348SOL    HW2 7731   0.473   2.103  10.501
 2349SOL     OW 7732   0.866   2.316   9.952
 2349SOL    HW1 7733   0.834   2.388   9.890
 2349SOL    HW2 7734   0.890   2.235   9.899
 2350SOL     OW 7735   1.017   1.901  10.063
 2350SOL    HW1 7736   0.945   1.906   9.994
 2350SOL    HW2 7737   0.993   1.832  10.132
 2351SOL     OW 7738   1.429   3.035  10.177
 2351SOL    HW1 7739   1.374   2.951  10.170
 2351SOL    HW2 7740   1.455   3.064  10.085
 2352SOL     OW 7741   1.466   2.452  10.302
 2352SOL    HW1 7742   1.436   2.357  10.309
 2352SOL    HW2 7743   1.539   2.468  10.368
 2353SOL     OW 7744   1.857   2.695   9.687
 2353SOL    HW1 7745   1.899   2.631   9.751
 2353SOL    HW2 7746   1.819   2.644   9.609
 2354SOL     OW 7747   0.488   3.247   9.484
 2354SOL    HW1 7748   0.401   3.232   9.531
 2354SOL    HW2 7749   0.471   3.273   9.389
 2355SOL     OW 7750   1.664   3.142   9.967
 2355SOL    HW1 7751   1.763   3.150   9.981
 2355SOL    HW2 7752   1.619   3.226   9.998
 2356SOL     OW 7753   1.390   2.437   9.388
 2356SOL    HW1 7754   1.336   2.416   9.469
 2356SOL    HW2 7755   1.481   2.396   9.397
 2357SOL     OW 7756   0.527   2.118   9.638
 2357SOL    HW1 7757   0.554   2.059   9.563
 2357SOL    HW2 7758   0.527   2.213   9.607
 2358SOL     OW 7759   1.754   3.085  10.898
 2358SOL    HW1 7760   1.845   3.046  10.885
 2358SOL    HW2 7761   1.762   3.181  10.922
 2359SOL     OW 7762   1.064   3.209  10.650
 2359SOL    HW1 7763   0.984   3.186  10.705
 2359SOL    HW2 7764   1.147   3.183  10.699
 2360SOL     OW 7765   1.111   3.057  10.410
 2360SOL    HW1 7766   1.071   3.101  10.491
 2360SOL    HW2 7767   1.070   3.094  10.327
 2361SOL     OW 7768   1.638   2.961  10.389
 2361SOL    HW1 7769   1.643   3.042  10.448
 2361SOL    HW2 7770   1.552   2.963  10.338
 2362SOL     OW 7771   0.915   1.951  10.712
 2362SOL    HW1 7772   0.940   1.931  10.617
 2362SOL    HW2 7773   0.987   2.007  10.754
 2363SOL     OW 7774   0.705   2.912   9.678
 2363SOL    HW1 7775   0.691   2.919   9.777
 2363SOL    HW2 7776   0.789   2.861   9.660
 2364SOL     OW 7777   0.410   2.675  10.561
 2364SOL    HW1 7778   0.496   2.687  10.611
 2364SOL    HW2 7779   0.368   2.588  10.588
 2365SOL     OW 7780   1.274   2.248  10.572
 2365SOL    HW1 7781   1.295   2.322  10.636
 2365SOL    HW2 7782   1.185   2.265  10.529
 2366SOL     OW 7783   0.064   3.426  10.641
 2366SOL    HW1 7784   0.018   3.508  10.607
 2366SOL    HW2 7785   0.162   3.445  10.650
 2367SOL     OW 7786   0.367   2.962   9.811
 2367SOL    HW1 7787   0.360   3.045   9.755
 2367SOL    HW2 7788   0.371   2.882   9.751
 2368SOL     OW 7789   0.566   2.399  10.175
 2368SOL    HW1 7790   0.578   2.465  10.101
 2368SOL    HW2 7791   0.612   2.433  10.258
 2369SOL     OW 7792   1.252   3.210   9.698
 2369SOL    HW1 7793   1.302   3.287   9.738
 2369SOL    HW2 7794   1.157   3.212   9.730
 2370SOL     OW 7795   1.272   3.307  10.452
 2370SOL    HW1 7796   1.319   3.320  10.539
 2370SOL    HW2 7797   1.206   3.233  10.461
 2371SOL     OW 7798   1.582   2.501   9.782
 2371SOL    HW1 7799   1.551   2.562   9.855
 2371SOL    HW2 7800   1.632   2.553   9.713
 2372SOL     OW 7801   0.354   3.372  10.639
 2372SOL    HW1 7802   0.333   3.328  10.552
 2372SOL    HW2 7803   0.451   3.398  10.642
 2373SOL     OW 7804   0.402   2.613  10.908
 2373SOL    HW1 7805   0.470   2.668  10.861
 2373SOL    HW2 7806   0.442   2.525  10.935
 2374SOL     OW 7807   1.587   2.641  10.980
 2374SOL    HW1 7808   1.495   2.679  10.975
 2374SOL    HW2 7809   1.647   2.688  10.915
 2375SOL     OW 7810   0.573   2.732  10.339
 2375SOL    HW1 7811   0.617   2.821  10.330
 2375SOL    HW2 7812   0.510   2.732  10.416
 2376SOL     OW 7813   1.360   2.724  10.355
 2376SOL    HW1 7814   1.285   2.724  10.289
 2376SOL    HW2 7815   1.397   2.632  10.364
 2377SOL     OW 7816   1.209   2.387   9.585
 2377SOL    HW1 7817   1.222   2.303   9.639
 2377SOL    HW2 7818   1.180   2.461   9.645
 2378SOL     OW 7819   0.307   2.075  10.541
 2378SOL    HW1 7820   0.284   2.112  10.631
 2378SOL    HW2 7821   0.277   1.980  10.535
 2379SOL     OW 7822   0.037   3.172  10.592
 2379SOL    HW1 7823   0.090   3.123  10.660
 2379SOL    HW2 7824   0.059   3.270  10.597
 2380SOL     OW 7825   0.732   2.496  10.374
 2380SOL    HW1 7826   0.791   2.470  10.298
 2380SOL    HW2 7827   0.704   2.592  10.363
 2381SOL     OW 7828   0.307   1.925   9.928
 2381SOL    HW1 7829   0.296   2.019   9.961
 2381SOL    HW2 7830   0.302   1.862  10.005
 2382SOL     OW 7831   1.622   2.229   9.684
 2382SOL    HW1 7832   1.624   2.153   9.748
 2382SOL    HW2 7833   1.574   2.306   9.724
 2383SOL     OW 7834   1.023   2.628  10.276
 2383SOL    HW1 7835   1.038   2.649  10.372
 2383SOL    HW2 7836   0.993   2.533  10.267
 2384SOL     OW 7837   0.980   3.435  11.010
 2384SOL    HW1 7838   0.960   3.479  10.922
 2384SOL    HW2 7839   1.019   3.344  10.994
 2385SOL     OW 7840   1.859   3.380  10.915
 2385SOL    HW1 7841   1.873   3.407  10.820
 2385SOL    HW2 7842   1.942   3.402  10.968
 2386SOL     OW 7843   0.350   2.760  11.114
 2386SOL    HW1 7844   0.426   2.804  11.162
 2386SOL    HW2 7845   0.385   2.713  11.032
 2387SOL     OW 7846   1.540   2.136   9.435
 2387SOL    HW1 7847   1.479   2.061   9.458
 2387SOL    HW2 7848   1.562   2.188   9.518
 2388SOL     OW 7849   1.303   2.700   9.352
 2388SOL    HW1 7850   1.337   2.607   9.367
 2388SOL    HW2 7851   1.321   2.727   9.257
 2389SOL     OW 7852   1.068   3.195  10.159
 2389SOL    HW1 7853   1.075   3.111  10.104
 2389SOL    HW2 7854   1.130   3.264  10.123
 2390SOL     OW 7855   0.319   2.672  10.259
 2390SOL    HW1 7856   0.412   2.708  10.264
 2390SOL    HW2 7857   0.313   2.587  10.311
 2391SOL     OW 7858   0.339   2.371  10.316
 2391SOL    HW1 7859   0.287   2.288  10.299
 2391SOL    HW2 7860   0.416   2.376  10.252
 2392SOL     OW 7861   1.160   2.069  10.787
 2392SOL    HW1 7862   1.160   2.133  10.864
 2392SOL    HW2 7863   1.188   2.117  10.704
 2393SOL     OW 7864   0.008   3.188   9.510
 2393SOL    HW1 7865  -0.085   3.209   9.479
 2393SOL    HW2 7866   0.018   3.089   9.523
 2394SOL     OW 7867   0.088   3.663  10.237
 2394SOL    HW1 7868   0.046   3.577  10.210
 2394SOL    HW2 7869   0.182   3.666  10.203
 2395SOL     OW 7870   0.504   3.430  10.220
 2395SOL    HW1 7871   0.570   3.504  10.229
 2395SOL    HW2 7872   0.548   3.351  10.178
 2396SOL     OW 7873   1.002   2.658  10.548
 2396SOL    HW1 7874   1.043   2.626  10.634
 2396SOL    HW2 7875   0.906   2.631  10.545
 2397SOL     OW 7876   0.040   2.406  10.424
 2397SOL    HW1 7877   0.125   2.373  10.383
 2397SOL    HW2 7878   0.053   2.421  10.522
 2398SOL     OW 7879   0.815   2.434   9.635
 2398SOL    HW1 7880   0.822   2.345   9.589
 2398SOL    HW2 7881   0.721   2.468   9.627
 2399SOL     OW 7882   1.657   2.466  10.516
 2399SOL    HW1 7883   1.619   2.397  10.578
 2399SOL    HW2 7884   1.739   2.430  10.472
 2400SOL     OW 7885   0.252   3.426  11.054
 2400SOL    HW1 7886   0.222   3.483  11.130
 2400SOL    HW2 7887   0.245   3.329  11.080
 2401SOL     OW 7888   0.671   2.326  10.579
 2401SOL    HW1 7889   0.637   2.237  10.549
 2401SOL    HW2 7890   0.697   2.380  10.499
 2402SOL     OW 7891   0.930   3.540  10.775
 2402SOL    HW1 7892   0.906   3.522  10.680
 2402SOL    HW2 7893   0.960   3.634  10.785
 2403SOL     OW 7894   0.473   2.362   9.501
 2403SOL    HW1 7895   0.534   2.442   9.505
 2403SOL    HW2 7896   0.378   2.393   9.508
 2404SOL     OW 7897   0.159   2.999  10.776
 2404SOL    HW1 7898   0.181   2.938  10.852
 2404SOL    HW2 7899   0.169   2.950  10.690
 2405SOL     OW 7900   1.347   2.921  10.544
 2405SOL    HW1 7901   1.371   2.858  10.470
 2405SOL    HW2 7902   1.257   2.961  10.526
 2406SOL     OW 7903   1.302   2.717   9.619
 2406SOL    HW1 7904   1.216   2.686   9.661
 2406SOL    HW2 7905   1.298   2.703   9.520
 2407SOL     OW 7906   1.759   3.609  10.464
 2407SOL    HW1 7907   1.820   3.639  10.391
 2407SOL    HW2 7908   1.721   3.520  10.442
 2408SOL     OW 7909   1.252   3.593  10.438
 2408SOL    HW1 7910   1.336   3.598  10.384
 2408SOL    HW2 7911   1.229   3.497  10.456
 2409SOL     OW 7912   0.083   3.120  10.332
 2409SOL    HW1 7913   0.078   3.119  10.432
 2409SOL    HW2 7914   0.000   3.079  10.294
 2410SOL     OW 7915   1.726   1.997   9.833
 2410SOL    HW1 7916   1.799   1.980   9.766
 2410SOL    HW2 7917   1.695   1.910   9.871
 2411SOL     OW 7918   1.388   3.435   9.787
 2411SOL    HW1 7919   1.455   3.447   9.713
 2411SOL    HW2 7920   1.348   3.524   9.810
 2412SOL     OW 7921   1.280   2.789   9.982
 2412SOL    HW1 7922   1.340   2.708   9.984
 2412SOL    HW2 7923   1.320   2.858   9.922
 2413SOL     OW 7924   0.830   3.135  10.732
 2413SOL    HW1 7925   0.825   3.168  10.827
 2413SOL    HW2 7926   0.744   3.154  10.686
 2414SOL     OW 7927   0.672   3.478   9.464
 2414SOL    HW1 7928   0.681   3.488   9.365
 2414SOL    HW2 7929   0.632   3.389   9.485
 2415SOL     OW 7930   1.650   3.582  10.704
 2415SOL    HW1 7931   1.703   3.592  10.620
 2415SOL    HW2 7932   1.623   3.672  10.738
 2416SOL     OW 7933   1.841   2.037  10.273
 2416SOL    HW1 7934   1.880   1.952  10.237
 2416SOL    HW2 7935   1.743   2.039  10.254
 2417SOL     OW 7936   0.263   2.188  10.030
 2417SOL    HW1 7937   0.184   2.239   9.996
 2417SOL    HW2 7938   0.254   2.173  10.128
 2418SOL     OW 7939   1.194   3.474   9.341
 2418SOL    HW1 7940   1.200   3.381   9.378
 2418SOL    HW2 7941   1.135   3.474   9.261
 2419SOL     OW 7942   0.822   2.864  10.682
 2419SOL    HW1 7943   0.862   2.863  10.590
 2419SOL    HW2 7944   0.832   2.956  10.722
 2420SOL     OW 7945   0.916   2.772   9.601
 2420SOL    HW1 7946   0.979   2.810   9.533
 2420SOL    HW2 7947   0.956   2.689   9.640
 2421SOL     OW 7948   1.504   3.469   9.354
 2421SOL    HW1 7949   1.412   3.506   9.361
 2421SOL    HW2 7950   1.542   3.489   9.264
 2422SOL     OW 7951   0.372   3.150  10.800
 2422SOL    HW1 7952   0.359   3.243  10.766
 2422SOL    HW2 7953   0.288   3.098  10.787
 2423SOL     OW 7954   1.614   3.154  10.599
 2423SOL    HW1 7955   1.674   3.157  10.679
 2423SOL    HW2 7956   1.539   3.218  10.612
 2424SOL     OW 7957   1.039   2.960  10.006
 2424SOL    HW1 7958   0.969   2.913  10.060
 2424SOL    HW2 7959   1.098   2.892   9.963
 2425SOL     OW 7960   1.014   2.098  10.281
 2425SOL    HW1 7961   1.006   2.062  10.188
 2425SOL    HW2 7962   1.012   2.022  10.346
 2426SOL     OW 7963   0.590   3.349   9.801
 2426SOL    HW1 7964   0.632   3.291   9.731
 2426SOL    HW2 7965   0.546   3.428   9.757
 2427SOL     OW 7966   1.709   2.247  10.691
 2427SOL    HW1 7967   1.782   2.316  10.695
 2427SOL    HW2 7968   1.737   2.172  10.632
 2428SOL     OW 7969   0.255   3.210   9.600
 2428SOL    HW1 7970   0.159   3.211   9.573
 2428SOL    HW2 7971   0.267   3.263   9.684
 2429SOL     OW 7972   0.105   2.875  11.036
 2429SOL    HW1 7973   0.028   2.842  11.090
 2429SOL    HW2 7974   0.190   2.845  11.078
 2430SOL     OW 7975   0.672   2.065  10.799
 2430SOL    HW1 7976   0.762   2.049  10.759
 2430SOL    HW2 7977   0.680   2.070  10.898
 2431SOL     OW 7978   0.075   2.207   9.343
 2431SOL    HW1 7979  -0.017   2.179   9.314
 2431SOL    HW2 7980   0.106   2.284   9.287
 2432SOL     OW 7981   1.440   2.718  10.708
 2432SOL    HW1 7982   1.383   2.770  10.645
 2432SOL    HW2 7983   1.536   2.730  10.684
 2433SOL     OW 7984   0.072   2.028   9.628
 2433SOL    HW1 7985   0.055   2.111   9.574
 2433SOL    HW2 7986   0.162   1.991   9.606
 2434SOL     OW 7987   1.183   3.197   9.429
 2434SOL    HW1 7988   1.084   3.186   9.431
 2434SOL    HW2 7989   1.217   3.212   9.522
 2435SOL     OW 7990   0.613   2.704  10.741
 2435SOL    HW1 7991   0.669   2.785  10.724
 2435SOL    HW2 7992   0.672   2.624  10.744
 2436SOL     OW 7993   1.493   3.629  10.269
 2436SOL    HW1 7994   1.526   3.693  10.200
 2436SOL    HW2 7995   1.559   3.623  10.344
 2437SOL     OW 7996   0.716   2.427  11.018
 2437SOL    HW1 7997   0.735   2.492  11.092
 2437SOL    HW2 7998   0.776   2.347  11.027
 2438SOL     OW 7999   0.390   3.603  10.870
 2438SOL    HW1 8000   0.299   3.644  10.868
 2438SOL    HW2 8001   0.383   3.509  10.902
 2439SOL     OW 8002   1.674   2.745  10.564
 2439SOL    HW1 8003   1.647   2.656  10.527
 2439SOL    HW2 8004   1.675   2.813  10.491
 2440SOL     OW 8005   1.225   2.187   9.759
 2440SOL    HW1 8006   1.290   2.113   9.748
 2440SOL    HW2 8007   1.245   2.237   9.843
 2441SOL     OW 8008   0.594   2.607   9.962
 2441SOL    HW1 8009   0.644   2.692   9.943
 2441SOL    HW2 8010   0.506   2.609   9.914
 2442SOL     OW 8011   1.777   2.204  10.952
 2442SOL    HW1 8012   1.760   2.235  10.858
 2442SOL    HW2 8013   1.693   2.167  10.990
 2443SOL     OW 8014   1.730   2.796  10.827
 2443SOL    HW1 8015   1.768   2.887  10.842
 2443SOL    HW2 8016   1.722   2.779  10.728
 2444SOL     OW 8017   0.859   3.236   9.326
 2444SOL    HW1 8018   0.813   3.251   9.414
 2444SOL    HW2 8019   0.903   3.321   9.296
 2445SOL     OW 8020   0.661   3.652  10.263
 2445SOL    HW1 8021   0.615   3.740  10.250
 2445SOL    HW2 8022   0.760   3.664  10.256
 2446SOL     OW 8023   0.859   2.818  10.171
 2446SOL    HW1 8024   0.913   2.749  10.219
 2446SOL    HW2 8025   0.827   2.887  10.237
 2447SOL     OW 8026   1.083   2.846   9.397
 2447SOL    HW1 8027   1.060   2.899   9.315
 2447SOL    HW2 8028   1.164   2.790   9.378
 2448SOL     OW 8029   1.861   3.431  10.161
 2448SOL    HW1 8030   1.790   3.419  10.091
 2448SOL    HW2 8031   1.862   3.352  10.221
 2449SOL     OW 8032   0.079   3.102   9.963
 2449SOL    HW1 8033   0.078   3.055  10.051
 2449SOL    HW2 8034   0.161   3.074   9.912
 2450SOL     OW 8035   0.672   3.253  10.934
 2450SOL    HW1 8036   0.594   3.203  10.972
 2450SOL    HW2 8037   0.669   3.348  10.965
 2451SOL     OW 8038   1.824   2.054  10.537
 2451SOL    HW1 8039   1.820   1.964  10.581
 2451SOL    HW2 8040   1.827   2.043  10.438
 2452SOL     OW 8041   0.428   2.286   9.830
 2452SOL    HW1 8042   0.458   2.214   9.768
 2452SOL    HW2 8043   0.389   2.246   9.913
 2453SOL     OW 8044   1.705   3.349  10.414
 2453SOL    HW1 8045   1.612   3.324  10.387
 2453SOL    HW2 8046   1.731   3.299  10.496
 2454SOL     OW 8047   0.317   2.409  10.590
 2454SOL    HW1 8048   0.355   2.350  10.662
 2454SOL    HW2 8049   0.357   2.383  10.502
 2455SOL     OW 8050   0.812   3.448   9.997
 2455SOL    HW1 8051   0.844   3.458   9.903
 2455SOL    HW2 8052   0.733   3.386   9.999
 2456SOL     OW 8053   1.424   2.076  10.422
 2456SOL    HW1 8054   1.476   2.011  10.477
 2456SOL    HW2 8055   1.375   2.139  10.483
 2457SOL     OW 8056   1.001   1.896  10.464
 2457SOL    HW1 8057   0.938   1.824  10.433
 2457SOL    HW2 8058   1.094   1.860  10.464
 2458SOL     OW 8059   0.770   3.192   9.611
 2458SOL    HW1 8060   0.724   3.105   9.628
 2458SOL    HW2 8061   0.861   3.189   9.652
 2459SOL     OW 8062   0.618   3.429  10.594
 2459SOL    HW1 8063   0.613   3.511  10.651
 2459SOL    HW2 8064   0.707   3.426  10.549
 2460SOL     OW 8065   1.352   1.914   9.478
 2460SOL    HW1 8066   1.387   1.873   9.394
 2460SOL    HW2 8067   1.262   1.876   9.498
 2461SOL     OW 8068   1.300   2.315  10.001
 2461SOL    HW1 8069   1.241   2.395  10.005
 2461SOL    HW2 8070   1.315   2.280  10.094
 2462SOL     OW 8071   1.593   2.083  10.192
 2462SOL    HW1 8072   1.509   2.082  10.246
 2462SOL    HW2 8073   1.595   2.166  10.136
 2463SOL     OW 8074   0.039   2.939   9.610
 2463SOL    HW1 8075   0.138   2.928   9.601
 2463SOL    HW2 8076  -0.001   2.853   9.642
 2464SOL     OW 8077   0.875   3.508   9.647
 2464SOL    HW1 8078   0.798   3.473   9.593
 2464SOL    HW2 8079   0.843   3.579   9.709
 2465SOL     OW 8080   0.230   4.352   0.113
 2465SOL    HW1 8081   0.137   4.350   0.150
 2465SOL    HW2 8082   0.231   4.313   0.021
 2466SOL     OW 8083   0.225   3.999   0.996
 2466SOL    HW1 8084   0.260   3.982   1.088
 2466SOL    HW2 8085   0.137   3.954   0.984
 2467SOL     OW 8086   0.019   4.092   0.647
 2467SOL    HW1 8087  -0.063   4.135   0.686
 2467SOL    HW2 8088  -0.009   4.019   0.584
 2468SOL     OW 8089   1.755   4.331   0.231
 2468SOL    HW1 8090   1.743   4.318   0.132
 2468SOL    HW2 8091   1.725   4.250   0.280
 2469SOL     OW 8092   0.685   4.736   0.665
 2469SOL    HW1 8093   0.754   4.720   0.735
 2469SOL    HW2 8094   0.612   4.793   0.703
 2470SOL     OW 8095   0.438   4.116   1.499
 2470SOL    HW1 8096   0.520   4.060   1.508
 2470SOL    HW2 8097   0.357   4.058   1.503
 2471SOL     OW 8098   1.603   4.171   0.737
 2471SOL    HW1 8099   1.529   4.217   0.687
 2471SOL    HW2 8100   1.654   4.239   0.790
 2472SOL     OW 8101   1.594   3.838   1.480
 2472SOL    HW1 8102   1.576   3.905   1.408
 2472SOL    HW2 8103   1.591   3.884   1.569
 2473SOL     OW 8104   0.122   4.367   0.563
 2473SOL    HW1 8105   0.077   4.279   0.580
 2473SOL    HW2 8106   0.121   4.421   0.647
 2474SOL     OW 8107   0.113   4.461   1.597
 2474SOL    HW1 8108   0.201   4.448   1.642
 2474SOL    HW2 8109   0.100   4.558   1.575
 2475SOL     OW 8110   0.809   3.728   0.502
 2475SOL    HW1 8111   0.849   3.819   0.493
 2475SOL    HW2 8112   0.709   3.736   0.508
 2476SOL     OW 8113   0.317   3.975   1.801
 2476SOL    HW1 8114   0.388   4.046   1.807
 2476SOL    HW2 8115   0.229   4.014   1.829
 2477SOL     OW 8116   1.281   4.069   0.944
 2477SOL    HW1 8117   1.195   4.019   0.931
 2477SOL    HW2 8118   1.343   4.015   1.000
 2478SOL     OW 8119   0.807   4.329   1.465
 2478SOL    HW1 8120   0.760   4.326   1.554
 2478SOL    HW2 8121   0.756   4.274   1.399
 2479SOL     OW 8122   1.394   4.193   1.674
 2479SOL    HW1 8123   1.374   4.236   1.762
 2479SOL    HW2 8124   1.472   4.131   1.683
 2480SOL     OW 8125   0.991   4.134   1.242
 2480SOL    HW1 8126   0.914   4.168   1.296
 2480SOL    HW2 8127   0.957   4.083   1.163
 2481SOL     OW 8128   1.041   4.425   0.429
 2481SOL    HW1 8129   1.067   4.421   0.525
 2481SOL    HW2 8130   0.956   4.374   0.415
 2482SOL     OW 8131   0.076   4.535   0.789
 2482SOL    HW1 8132   0.175   4.523   0.798
 2482SOL    HW2 8133   0.052   4.630   0.810
 2483SOL     OW 8134   0.865   4.072   0.195
 2483SOL    HW1 8135   0.924   4.135   0.146
 2483SOL    HW2 8136   0.884   3.978   0.166
 2484SOL     OW 8137   1.719   4.309   1.831
 2484SOL    HW1 8138   1.693   4.398   1.795
 2484SOL    HW2 8139   1.717   4.241   1.758
 2485SOL     OW 8140   0.550   3.920   0.885
 2485SOL    HW1 8141   0.545   3.915   0.985
 2485SOL    HW2 8142   0.552   4.016   0.856
 2486SOL     OW 8143   1.458   4.459   0.728
 2486SOL    HW1 8144   1.453   4.394   0.803
 2486SOL    HW2 8145   1.538   4.518   0.741
 2487SOL     OW 8146   0.202   4.009   1.498
 2487SOL    HW1 8147   0.122   4.069   1.485
 2487SOL    HW2 8148   0.192   3.960   1.584
 2488SOL     OW 8149   1.400   3.831   0.426
 2488SOL    HW1 8150   1.376   3.794   0.336
 2488SOL    HW2 8151   1.499   3.847   0.430
 2489SOL     OW 8152   0.382   4.424   0.480
 2489SOL    HW1 8153   0.427   4.334   0.477
 2489SOL    HW2 8154   0.288   4.413   0.513
 2490SOL     OW 8155   1.547   3.946   1.729
 2490SOL    HW1 8156   1.542   3.983   1.821
 2490SOL    HW2 8157   1.475   3.877   1.717
 2491SOL     OW 8158   0.614   3.846   0.117
 2491SOL    HW1 8159   0.712   3.824   0.124
 2491SOL    HW2 8160   0.583   3.829   0.024
 2492SOL     OW 8161   0.781   3.988   1.749
 2492SOL    HW1 8162   0.848   3.927   1.792
 2492SOL    HW2 8163   0.708   4.007   1.814
 2493SOL     OW 8164   1.351   4.314   1.433
 2493SOL    HW1 8165   1.379   4.271   1.518
 2493SOL    HW2 8166   1.376   4.410   1.434
 2494SOL     OW 8167   0.922   4.227   0.899
 2494SOL    HW1 8168   0.897   4.218   0.803
 2494SOL    HW2 8169   0.970   4.145   0.930
 2495SOL     OW 8170   0.539   3.788   0.512
 2495SOL    HW1 8171   0.458   3.789   0.570
 2495SOL    HW2 8172   0.542   3.871   0.457
 2496SOL     OW 8173   0.297   3.759   0.171
 2496SOL    HW1 8174   0.346   3.843   0.150
 2496SOL    HW2 8175   0.359   3.694   0.216
 2497SOL     OW 8176   0.935   3.960   0.480
 2497SOL    HW1 8177   0.887   4.001   0.402
 2497SOL    HW2 8178   1.034   3.958   0.461
 2498SOL     OW 8179   1.076   4.407   1.464
 2498SOL    HW1 8180   0.996   4.346   1.467
 2498SOL    HW2 8181   1.157   4.354   1.440
 2499SOL     OW 8182   1.032   4.273   0.016
 2499SOL    HW1 8183   0.991   4.355  -0.023
 2499SOL    HW2 8184   1.096   4.299   0.089
 2500SOL     OW 8185   0.078   4.280   1.386
 2500SOL    HW1 8186   0.170   4.279   1.345
 2500SOL    HW2 8187   0.072   4.354   1.453
 2501SOL     OW 8188   0.561   3.946   1.147
 2501SOL    HW1 8189   0.599   3.862   1.184
 2501SOL    HW2 8190   0.473   3.965   1.191
 2502SOL     OW 8191   0.866   4.178   0.642
 2502SOL    HW1 8192   0.834   4.250   0.580
 2502SOL    HW2 8193   0.890   4.097   0.589
 2503SOL     OW 8194   1.017   3.763   0.753
 2503SOL    HW1 8195   0.945   3.768   0.684
 2503SOL    HW2 8196   0.993   3.694   0.822
 2504SOL     OW 8197   1.466   4.314   0.992
 2504SOL    HW1 8198   1.436   4.219   0.999
 2504SOL    HW2 8199   1.539   4.330   1.058
 2505SOL     OW 8200   1.390   4.299   0.078
 2505SOL    HW1 8201   1.336   4.278   0.159
 2505SOL    HW2 8202   1.481   4.258   0.087
 2506SOL     OW 8203   0.527   3.980   0.328
 2506SOL    HW1 8204   0.554   3.921   0.253
 2506SOL    HW2 8205   0.527   4.075   0.297
 2507SOL     OW 8206   0.915   3.813   1.402
 2507SOL    HW1 8207   0.940   3.793   1.307
 2507SOL    HW2 8208   0.987   3.869   1.444
 2508SOL     OW 8209   0.410   4.537   1.251
 2508SOL    HW1 8210   0.496   4.549   1.301
 2508SOL    HW2 8211   0.368   4.450   1.278
 2509SOL     OW 8212   1.274   4.110   1.262
 2509SOL    HW1 8213   1.295   4.184   1.326
 2509SOL    HW2 8214   1.185   4.127   1.219
 2510SOL     OW 8215   0.566   4.261   0.865
 2510SOL    HW1 8216   0.578   4.327   0.791
 2510SOL    HW2 8217   0.612   4.295   0.948
 2511SOL     OW 8218   1.582   4.363   0.472
 2511SOL    HW1 8219   1.551   4.424   0.545
 2511SOL    HW2 8220   1.632   4.415   0.403
 2512SOL     OW 8221   1.013   3.829   1.770
 2512SOL    HW1 8222   1.019   3.914   1.718
 2512SOL    HW2 8223   1.045   3.753   1.713
 2513SOL     OW 8224   0.504   3.774   1.740
 2513SOL    HW1 8225   0.462   3.717   1.670
 2513SOL    HW2 8226   0.438   3.843   1.772
 2514SOL     OW 8227   1.209   4.249   0.275
 2514SOL    HW1 8228   1.222   4.165   0.329
 2514SOL    HW2 8229   1.180   4.323   0.335
 2515SOL     OW 8230   0.307   3.937   1.231
 2515SOL    HW1 8231   0.284   3.974   1.321
 2515SOL    HW2 8232   0.277   3.842   1.225
 2516SOL     OW 8233   0.732   4.358   1.064
 2516SOL    HW1 8234   0.791   4.332   0.988
 2516SOL    HW2 8235   0.704   4.454   1.053
 2517SOL     OW 8236   1.728   4.659   1.854
 2517SOL    HW1 8237   1.682   4.652   1.765
 2517SOL    HW2 8238   1.666   4.703   1.920
 2518SOL     OW 8239   0.307   3.787   0.618
 2518SOL    HW1 8240   0.296   3.881   0.651
 2518SOL    HW2 8241   0.302   3.724   0.695
 2519SOL     OW 8242   1.622   4.091   0.374
 2519SOL    HW1 8243   1.624   4.015   0.438
 2519SOL    HW2 8244   1.574   4.168   0.414
 2520SOL     OW 8245   1.540   3.998   0.125
 2520SOL    HW1 8246   1.479   3.923   0.148
 2520SOL    HW2 8247   1.562   4.050   0.208
 2521SOL     OW 8248   0.319   4.534   0.949
 2521SOL    HW1 8249   0.412   4.570   0.954
 2521SOL    HW2 8250   0.313   4.449   1.001
 2522SOL     OW 8251   0.339   4.233   1.006
 2522SOL    HW1 8252   0.287   4.150   0.989
 2522SOL    HW2 8253   0.416   4.238   0.942
 2523SOL     OW 8254   1.138   4.104   1.678
 2523SOL    HW1 8255   1.093   4.167   1.742
 2523SOL    HW2 8256   1.231   4.135   1.661
 2524SOL     OW 8257   1.160   3.931   1.477
 2524SOL    HW1 8258   1.160   3.995   1.554
 2524SOL    HW2 8259   1.188   3.979   1.394
 2525SOL     OW 8260   0.040   4.268   1.114
 2525SOL    HW1 8261   0.125   4.235   1.073
 2525SOL    HW2 8262   0.053   4.283   1.212
 2526SOL     OW 8263   0.189   4.244   1.722
 2526SOL    HW1 8264   0.248   4.204   1.652
 2526SOL    HW2 8265   0.131   4.315   1.681
 2527SOL     OW 8266   0.815   4.296   0.325
 2527SOL    HW1 8267   0.822   4.207   0.279
 2527SOL    HW2 8268   0.721   4.330   0.317
 2528SOL     OW 8269   1.657   4.328   1.206
 2528SOL    HW1 8270   1.619   4.259   1.268
 2528SOL    HW2 8271   1.739   4.292   1.162
 2529SOL     OW 8272   0.671   4.188   1.269
 2529SOL    HW1 8273   0.637   4.099   1.239
 2529SOL    HW2 8274   0.697   4.242   1.189
 2530SOL     OW 8275   0.473   4.224   0.191
 2530SOL    HW1 8276   0.534   4.304   0.195
 2530SOL    HW2 8277   0.378   4.255   0.198
 2531SOL     OW 8278   0.903   3.810   0.133
 2531SOL    HW1 8279   0.954   3.811   0.047
 2531SOL    HW2 8280   0.959   3.768   0.204
 2532SOL     OW 8281   1.726   3.859   0.523
 2532SOL    HW1 8282   1.799   3.842   0.456
 2532SOL    HW2 8283   1.695   3.772   0.561
 2533SOL     OW 8284   1.280   4.651   0.672
 2533SOL    HW1 8285   1.340   4.570   0.674
 2533SOL    HW2 8286   1.320   4.720   0.612
 2534SOL     OW 8287   1.841   3.899   0.963
 2534SOL    HW1 8288   1.880   3.814   0.927
 2534SOL    HW2 8289   1.743   3.901   0.944
 2535SOL     OW 8290   0.263   4.050   0.720
 2535SOL    HW1 8291   0.184   4.101   0.686
 2535SOL    HW2 8292   0.254   4.035   0.818
 2536SOL     OW 8293   1.039   4.822   0.696
 2536SOL    HW1 8294   0.969   4.775   0.750
 2536SOL    HW2 8295   1.098   4.754   0.653
 2537SOL     OW 8296   1.014   3.960   0.971
 2537SOL    HW1 8297   1.006   3.924   0.878
 2537SOL    HW2 8298   1.012   3.884   1.036
 2538SOL     OW 8299   1.709   4.109   1.381
 2538SOL    HW1 8300   1.782   4.178   1.385
 2538SOL    HW2 8301   1.737   4.034   1.322
 2539SOL     OW 8302   0.672   3.927   1.489
 2539SOL    HW1 8303   0.762   3.911   1.449
 2539SOL    HW2 8304   0.680   3.932   1.588
 2540SOL     OW 8305   0.075   4.069   0.033
 2540SOL    HW1 8306  -0.017   4.041   0.004
 2540SOL    HW2 8307   0.106   4.146  -0.023
 2541SOL     OW 8308   0.072   3.890   0.318
 2541SOL    HW1 8309   0.055   3.973   0.264
 2541SOL    HW2 8310   0.162   3.853   0.296
 2542SOL     OW 8311   0.716   4.289   1.708
 2542SOL    HW1 8312   0.735   4.354   1.782
 2542SOL    HW2 8313   0.776   4.209   1.717
 2543SOL     OW 8314   1.225   4.049   0.449
 2543SOL    HW1 8315   1.290   3.975   0.438
 2543SOL    HW2 8316   1.245   4.099   0.533
 2544SOL     OW 8317   1.777   4.066   1.642
 2544SOL    HW1 8318   1.760   4.097   1.548
 2544SOL    HW2 8319   1.693   4.029   1.680
 2545SOL     OW 8320   1.083   4.708   0.087
 2545SOL    HW1 8321   1.060   4.761   0.005
 2545SOL    HW2 8322   1.164   4.652   0.068
 2546SOL     OW 8323   1.824   3.916   1.227
 2546SOL    HW1 8324   1.820   3.826   1.271
 2546SOL    HW2 8325   1.827   3.905   1.128
 2547SOL     OW 8326   0.428   4.148   0.520
 2547SOL    HW1 8327   0.458   4.076   0.458
 2547SOL    HW2 8328   0.389   4.108   0.603
 2548SOL     OW 8329   0.317   4.271   1.280
 2548SOL    HW1 8330   0.355   4.212   1.352
 2548SOL    HW2 8331   0.357   4.245   1.192
 2549SOL     OW 8332   1.424   3.938   1.112
 2549SOL    HW1 8333   1.476   3.873   1.167
 2549SOL    HW2 8334   1.375   4.001   1.173
 2550SOL     OW 8335   1.001   3.758   1.154
 2550SOL    HW1 8336   0.938   3.686   1.123
 2550SOL    HW2 8337   1.094   3.722   1.154
 2551SOL     OW 8338   1.352   3.776   0.168
 2551SOL    HW1 8339   1.387   3.735   0.084
 2551SOL    HW2 8340   1.262   3.738   0.188
 2552SOL     OW 8341   1.300   4.177   0.691
 2552SOL    HW1 8342   1.241   4.257   0.695
 2552SOL    HW2 8343   1.315   4.142   0.784
 2553SOL     OW 8344   1.593   3.945   0.882
 2553SOL    HW1 8345   1.509   3.944   0.936
 2553SOL    HW2 8346   1.595   4.028   0.826
 2554SOL     OW 8347   0.230   4.352   1.975
 2554SOL    HW1 8348   0.137   4.350   2.012
 2554SOL    HW2 8349   0.231   4.313   1.883
 2555SOL     OW 8350   0.225   3.999   2.858
 2555SOL    HW1 8351   0.260   3.982   2.950
 2555SOL    HW2 8352   0.137   3.954   2.846
 2556SOL     OW 8353   0.019   4.092   2.509
 2556SOL    HW1 8354  -0.063   4.135   2.548
 2556SOL    HW2 8355  -0.009   4.019   2.446
 2557SOL     OW 8356   1.755   4.331   2.093
 2557SOL    HW1 8357   1.743   4.318   1.994
 2557SOL    HW2 8358   1.725   4.250   2.142
 2558SOL     OW 8359   0.685   4.736   2.527
 2558SOL    HW1 8360   0.754   4.720   2.597
 2558SOL    HW2 8361   0.612   4.793   2.565
 2559SOL     OW 8362   0.438   4.116   3.361
 2559SOL    HW1 8363   0.520   4.060   3.370
 2559SOL    HW2 8364   0.357   4.058   3.365
 2560SOL     OW 8365   1.603   4.171   2.599
 2560SOL    HW1 8366   1.529   4.217   2.549
 2560SOL    HW2 8367   1.654   4.239   2.652
 2561SOL     OW 8368   1.594   3.838   3.342
 2561SOL    HW1 8369   1.576   3.905   3.270
 2561SOL    HW2 8370   1.591   3.884   3.431
 2562SOL     OW 8371   0.122   4.367   2.425
 2562SOL    HW1 8372   0.077   4.279   2.442
 2562SOL    HW2 8373   0.121   4.421   2.509
 2563SOL     OW 8374   0.113   4.461   3.459
 2563SOL    HW1 8375   0.201   4.448   3.504
 2563SOL    HW2 8376   0.100   4.558   3.437
 2564SOL     OW 8377   0.809   3.728   2.364
 2564SOL    HW1 8378   0.849   3.819   2.355
 2564SOL    HW2 8379   0.709   3.736   2.370
 2565SOL     OW 8380   0.317   3.975   3.663
 2565SOL    HW1 8381   0.388   4.046   3.669
 2565SOL    HW2 8382   0.229   4.014   3.691
 2566SOL     OW 8383   1.281   4.069   2.806
 2566SOL    HW1 8384   1.195   4.019   2.793
 2566SOL    HW2 8385   1.343   4.015   2.862
 2567SOL     OW 8386   0.807   4.329   3.327
 2567SOL    HW1 8387   0.760   4.326   3.416
 2567SOL    HW2 8388   0.756   4.274   3.261
 2568SOL     OW 8389   1.394   4.193   3.536
 2568SOL    HW1 8390   1.374   4.236   3.624
 2568SOL    HW2 8391   1.472   4.131   3.545
 2569SOL     OW 8392   0.991   4.134   3.104
 2569SOL    HW1 8393   0.914   4.168   3.158
 2569SOL    HW2 8394   0.957   4.083   3.025
 2570SOL     OW 8395   1.041   4.425   2.291
 2570SOL    HW1 8396   1.067   4.421   2.387
 2570SOL    HW2 8397   0.956   4.374   2.277
 2571SOL     OW 8398   0.076   4.535   2.651
 2571SOL    HW1 8399   0.175   4.523   2.660
 2571SOL    HW2 8400   0.052   4.630   2.672
 2572SOL     OW 8401   0.865   4.072   2.057
 2572SOL    HW1 8402   0.924   4.135   2.008
 2572SOL    HW2 8403   0.884   3.978   2.028
 2573SOL     OW 8404   1.719   4.309   3.693
 2573SOL    HW1 8405   1.693   4.398   3.657
 2573SOL    HW2 8406   1.717   4.241   3.620
 2574SOL     OW 8407   0.550   3.920   2.747
 2574SOL    HW1 8408   0.545   3.915   2.847
 2574SOL    HW2 8409   0.552   4.016   2.718
 2575SOL     OW 8410   1.458   4.459   2.590
 2575SOL    HW1 8411   1.453   4.394   2.665
 2575SOL    HW2 8412   1.538   4.518   2.603
 2576SOL     OW 8413   0.202   4.009   3.360
 2576SOL    HW1 8414   0.122   4.069   3.347
 2576SOL    HW2 8415   0.192   3.960   3.446
 2577SOL     OW 8416   1.400   3.831   2.288
 2577SOL    HW1 8417   1.376   3.794   2.198
 2577SOL    HW2 8418   1.499   3.847   2.292
 2578SOL     OW 8419   0.382   4.424   2.342
 2578SOL    HW1 8420   0.427   4.334   2.339
 2578SOL    HW2 8421   0.288   4.413   2.375
 2579SOL     OW 8422   1.547   3.946   3.591
 2579SOL    HW1 8423   1.542   3.983   3.683
 2579SOL    HW2 8424   1.475   3.877   3.579
 2580SOL     OW 8425   0.614   3.846   1.979
 2580SOL    HW1 8426   0.712   3.824   1.986
 2580SOL    HW2 8427   0.583   3.829   1.886
 2581SOL     OW 8428   0.781   3.988   3.611
 2581SOL    HW1 8429   0.848   3.927   3.654
 2581SOL    HW2 8430   0.708   4.007   3.676
 2582SOL     OW 8431   1.351   4.314   3.295
 2582SOL    HW1 8432   1.379   4.271   3.380
 2582SOL    HW2 8433   1.376   4.410   3.296
 2583SOL     OW 8434   0.922   4.227   2.761
 2583SOL    HW1 8435   0.897   4.218   2.665
 2583SOL    HW2 8436   0.970   4.145   2.792
 2584SOL     OW 8437   0.539   3.788   2.374
 2584SOL    HW1 8438   0.458   3.789   2.432
 2584SOL    HW2 8439   0.542   3.871   2.319
 2585SOL     OW 8440   0.297   3.759   2.033
 2585SOL    HW1 8441   0.346   3.843   2.012
 2585SOL    HW2 8442   0.359   3.694   2.078
 2586SOL     OW 8443   0.935   3.960   2.342
 2586SOL    HW1 8444   0.887   4.001   2.264
 2586SOL    HW2 8445   1.034   3.958   2.323
 2587SOL     OW 8446   1.076   4.407   3.326
 2587SOL    HW1 8447   0.996   4.346   3.329
 2587SOL    HW2 8448   1.157   4.354   3.302
 2588SOL     OW 8449   1.032   4.273   1.878
 2588SOL    HW1 8450   0.991   4.355   1.839
 2588SOL    HW2 8451   1.096   4.299   1.951
 2589SOL     OW 8452   0.078   4.280   3.248
 2589SOL    HW1 8453   0.170   4.279   3.207
 2589SOL    HW2 8454   0.072   4.354   3.315
 2590SOL     OW 8455   0.561   3.946   3.009
 2590SOL    HW1 8456   0.599   3.862   3.046
 2590SOL    HW2 8457   0.473   3.965   3.053
 2591SOL     OW 8458   0.866   4.178   2.504
 2591SOL    HW1 8459   0.834   4.250   2.442
 2591SOL    HW2 8460   0.890   4.097   2.451
 2592SOL     OW 8461   1.017   3.763   2.615
 2592SOL    HW1 8462   0.945   3.768   2.546
 2592SOL    HW2 8463   0.993   3.694   2.684
 2593SOL     OW 8464   1.466   4.314   2.854
 2593SOL    HW1 8465   1.436   4.219   2.861
 2593SOL    HW2 8466   1.539   4.330   2.920
 2594SOL     OW 8467   1.390   4.299   1.940
 2594SOL    HW1 8468   1.336   4.278   2.021
 2594SOL    HW2 8469   1.481   4.258   1.949
 2595SOL     OW 8470   0.527   3.980   2.190
 2595SOL    HW1 8471   0.554   3.921   2.115
 2595SOL    HW2 8472   0.527   4.075   2.159
 2596SOL     OW 8473   0.915   3.813   3.264
 2596SOL    HW1 8474   0.940   3.793   3.169
 2596SOL    HW2 8475   0.987   3.869   3.306
 2597SOL     OW 8476   0.410   4.537   3.113
 2597SOL    HW1 8477   0.496   4.549   3.163
 2597SOL    HW2 8478   0.368   4.450   3.140
 2598SOL     OW 8479   1.274   4.110   3.124
 2598SOL    HW1 8480   1.295   4.184   3.188
 2598SOL    HW2 8481   1.185   4.127   3.081
 2599SOL     OW 8482   0.566   4.261   2.727
 2599SOL    HW1 8483   0.578   4.327   2.653
 2599SOL    HW2 8484   0.612   4.295   2.810
 2600SOL     OW 8485   1.582   4.363   2.334
 2600SOL    HW1 8486   1.551   4.424   2.407
 2600SOL    HW2 8487   1.632   4.415   2.265
 2601SOL     OW 8488   1.013   3.829   3.632
 2601SOL    HW1 8489   1.019   3.914   3.580
 2601SOL    HW2 8490   1.045   3.753   3.575
 2602SOL     OW 8491   0.504   3.774   3.602
 2602SOL    HW1 8492   0.462   3.717   3.532
 2602SOL    HW2 8493   0.438   3.843   3.634
 2603SOL     OW 8494   1.209   4.249   2.137
 2603SOL    HW1 8495   1.222   4.165   2.191
 2603SOL    HW2 8496   1.180   4.323   2.197
 2604SOL     OW 8497   0.307   3.937   3.093
 2604SOL    HW1 8498   0.284   3.974   3.183
 2604SOL    HW2 8499   0.277   3.842   3.087
 2605SOL     OW 8500   0.732   4.358   2.926
 2605SOL    HW1 8501   0.791   4.332   2.850
 2605SOL    HW2 8502   0.704   4.454   2.915
 2606SOL     OW 8503   1.728   4.659   3.716
 2606SOL    HW1 8504   1.682   4.652   3.627
 2606SOL    HW2 8505   1.666   4.703   3.782
 2607SOL     OW 8506   0.307   3.787   2.480
 2607SOL    HW1 8507   0.296   3.881   2.513
 2607SOL    HW2 8508   0.302   3.724   2.557
 2608SOL     OW 8509   1.622   4.091   2.236
 2608SOL    HW1 8510   1.624   4.015   2.300
 2608SOL    HW2 8511   1.574   4.168   2.276
 2609SOL     OW 8512   1.540   3.998   1.987
 2609SOL    HW1 8513   1.479   3.923   2.010
 2609SOL    HW2 8514   1.562   4.050   2.070
 2610SOL     OW 8515   0.319   4.534   2.811
 2610SOL    HW1 8516   0.412   4.570   2.816
 2610SOL    HW2 8517   0.313   4.449   2.863
 2611SOL     OW 8518   0.339   4.233   2.868
 2611SOL    HW1 8519   0.287   4.150   2.851
 2611SOL    HW2 8520   0.416   4.238   2.804
 2612SOL     OW 8521   1.138   4.104   3.540
 2612SOL    HW1 8522   1.093   4.167   3.604
 2612SOL    HW2 8523   1.231   4.135   3.523
 2613SOL     OW 8524   1.160   3.931   3.339
 2613SOL    HW1 8525   1.160   3.995   3.416
 2613SOL    HW2 8526   1.188   3.979   3.256
 2614SOL     OW 8527   0.040   4.268   2.976
 2614SOL    HW1 8528   0.125   4.235   2.935
 2614SOL    HW2 8529   0.053   4.283   3.074
 2615SOL     OW 8530   0.189   4.244   3.584
 2615SOL    HW1 8531   0.248   4.204   3.514
 2615SOL    HW2 8532   0.131   4.315   3.543
 2616SOL     OW 8533   0.815   4.296   2.187
 2616SOL    HW1 8534   0.822   4.207   2.141
 2616SOL    HW2 8535   0.721   4.330   2.179
 2617SOL     OW 8536   1.657   4.328   3.068
 2617SOL    HW1 8537   1.619   4.259   3.130
 2617SOL    HW2 8538   1.739   4.292   3.024
 2618SOL     OW 8539   0.671   4.188   3.131
 2618SOL    HW1 8540   0.637   4.099   3.101
 2618SOL    HW2 8541   0.697   4.242   3.051
 2619SOL     OW 8542   0.473   4.224   2.053
 2619SOL    HW1 8543   0.534   4.304   2.057
 2619SOL    HW2 8544   0.378   4.255   2.060
 2620SOL     OW 8545   1.726   3.859   2.385
 2620SOL    HW1 8546   1.799   3.842   2.318
 2620SOL    HW2 8547   1.695   3.772   2.423
 2621SOL     OW 8548   1.280   4.651   2.534
 2621SOL    HW1 8549   1.340   4.570   2.536
 2621SOL    HW2 8550   1.320   4.720   2.474
 2622SOL     OW 8551   1.841   3.899   2.825
 2622SOL    HW1 8552   1.880   3.814   2.789
 2622SOL    HW2 8553   1.743   3.901   2.806
 2623SOL     OW 8554   0.263   4.050   2.582
 2623SOL    HW1 8555   0.184   4.101   2.548
 2623SOL    HW2 8556   0.254   4.035   2.680
 2624SOL     OW 8557   0.916   4.634   2.153
 2624SOL    HW1 8558   0.979   4.672   2.085
 2624SOL    HW2 8559   0.956   4.551   2.192
 2625SOL     OW 8560   1.039   4.822   2.558
 2625SOL    HW1 8561   0.969   4.775   2.612
 2625SOL    HW2 8562   1.098   4.754   2.515
 2626SOL     OW 8563   1.014   3.960   2.833
 2626SOL    HW1 8564   1.006   3.924   2.740
 2626SOL    HW2 8565   1.012   3.884   2.898
 2627SOL     OW 8566   1.709   4.109   3.243
 2627SOL    HW1 8567   1.782   4.178   3.247
 2627SOL    HW2 8568   1.737   4.034   3.184
 2628SOL     OW 8569   0.672   3.927   3.351
 2628SOL    HW1 8570   0.762   3.911   3.311
 2628SOL    HW2 8571   0.680   3.932   3.450
 2629SOL     OW 8572   0.075   4.069   1.895
 2629SOL    HW1 8573  -0.017   4.041   1.866
 2629SOL    HW2 8574   0.106   4.146   1.839
 2630SOL     OW 8575   0.072   3.890   2.180
 2630SOL    HW1 8576   0.055   3.973   2.126
 2630SOL    HW2 8577   0.162   3.853   2.158
 2631SOL     OW 8578   0.716   4.289   3.570
 2631SOL    HW1 8579   0.735   4.354   3.644
 2631SOL    HW2 8580   0.776   4.209   3.579
 2632SOL     OW 8581   1.225   4.049   2.311
 2632SOL    HW1 8582   1.290   3.975   2.300
 2632SOL    HW2 8583   1.245   4.099   2.395
 2633SOL     OW 8584   1.777   4.066   3.504
 2633SOL    HW1 8585   1.760   4.097   3.410
 2633SOL    HW2 8586   1.693   4.029   3.542
 2634SOL     OW 8587   1.083   4.708   1.949
 2634SOL    HW1 8588   1.060   4.761   1.867
 2634SOL    HW2 8589   1.164   4.652   1.930
 2635SOL     OW 8590   1.824   3.916   3.089
 2635SOL    HW1 8591   1.820   3.826   3.133
 2635SOL    HW2 8592   1.827   3.905   2.990
 2636SOL     OW 8593   0.428   4.148   2.382
 2636SOL    HW1 8594   0.458   4.076   2.320
 2636SOL    HW2 8595   0.389   4.108   2.465
 2637SOL     OW 8596   0.317   4.271   3.142
 2637SOL    HW1 8597   0.355   4.212   3.214
 2637SOL    HW2 8598   0.357   4.245   3.054
 2638SOL     OW 8599   1.424   3.938   2.974
 2638SOL    HW1 8600   1.476   3.873   3.029
 2638SOL    HW2 8601   1.375   4.001   3.035
 2639SOL     OW 8602   1.001   3.758   3.016
 2639SOL    HW1 8603   0.938   3.686   2.985
 2639SOL    HW2 8604   1.094   3.722   3.016
 2640SOL     OW 8605   1.352   3.776   2.030
 2640SOL    HW1 8606   1.387   3.735   1.946
 2640SOL    HW2 8607   1.262   3.738   2.050
 2641SOL     OW 8608   1.300   4.177   2.553
 2641SOL    HW1 8609   1.241   4.257   2.557
 2641SOL    HW2 8610   1.315   4.142   2.646
 2642SOL     OW 8611   1.593   3.945   2.744
 2642SOL    HW1 8612   1.509   3.944   2.798
 2642SOL    HW2 8613   1.595   4.028   2.688
 2643SOL     OW 8614   0.230   4.352   3.837
 2643SOL    HW1 8615   0.137   4.350   3.874
 2643SOL    HW2 8616   0.231   4.313   3.745
 2644SOL     OW 8617   0.225   3.999   4.720
 2644SOL    HW1 8618   0.260   3.982   4.812
 2644SOL    HW2 8619   0.137   3.954   4.708
 2645SOL     OW 8620   0.019   4.092   4.371
 2645SOL    HW1 8621  -0.063   4.135   4.410
 2645SOL    HW2 8622  -0.009   4.019   4.308
 2646SOL     OW 8623   1.755   4.331   3.955
 2646SOL    HW1 8624   1.743   4.318   3.856
 2646SOL    HW2 8625   1.725   4.250   4.004
 2647SOL     OW 8626   0.685   4.736   4.389
 2647SOL    HW1 8627   0.754   4.720   4.459
 2647SOL    HW2 8628   0.612   4.793   4.427
 2648SOL     OW 8629   0.438   4.116   5.223
 2648SOL    HW1 8630   0.520   4.060   5.232
 2648SOL    HW2 8631   0.357   4.058   5.227
 2649SOL     OW 8632   1.603   4.171   4.461
 2649SOL    HW1 8633   1.529   4.217   4.411
 2649SOL    HW2 8634   1.654   4.239   4.514
 2650SOL     OW 8635   1.594   3.838   5.204
 2650SOL    HW1 8636   1.576   3.905   5.132
 2650SOL    HW2 8637   1.591   3.884   5.293
 2651SOL     OW 8638   0.122   4.367   4.287
 2651SOL    HW1 8639   0.077   4.279   4.304
 2651SOL    HW2 8640   0.121   4.421   4.371
 2652SOL     OW 8641   0.113   4.461   5.321
 2652SOL    HW1 8642   0.201   4.448   5.366
 2652SOL    HW2 8643   0.100   4.558   5.299
 2653SOL     OW 8644   0.809   3.728   4.226
 2653SOL    HW1 8645   0.849   3.819   4.217
 2653SOL    HW2 8646   0.709   3.736   4.232
 2654SOL     OW 8647   0.317   3.975   5.525
 2654SOL    HW1 8648   0.388   4.046   5.531
 2654SOL    HW2 8649   0.229   4.014   5.553
 2655SOL     OW 8650   1.281   4.069   4.668
 2655SOL    HW1 8651   1.195   4.019   4.655
 2655SOL    HW2 8652   1.343   4.015   4.724
 2656SOL     OW 8653   0.807   4.329   5.189
 2656SOL    HW1 8654   0.760   4.326   5.278
 2656SOL    HW2 8655   0.756   4.274   5.123
 2657SOL     OW 8656   1.394   4.193   5.398
 2657SOL    HW1 8657   1.374   4.236   5.486
 2657SOL    HW2 8658   1.472   4.131   5.407
 2658SOL     OW 8659   0.991   4.134   4.966
 2658SOL    HW1 8660   0.914   4.168   5.020
 2658SOL    HW2 8661   0.957   4.083   4.887
 2659SOL     OW 8662   1.041   4.425   4.153
 2659SOL    HW1 8663   1.067   4.421   4.249
 2659SOL    HW2 8664   0.956   4.374   4.139
 2660SOL     OW 8665   0.076   4.535   4.513
 2660SOL    HW1 8666   0.175   4.523   4.522
 2660SOL    HW2 8667   0.052   4.630   4.534
 2661SOL     OW 8668   0.865   4.072   3.919
 2661SOL    HW1 8669   0.924   4.135   3.870
 2661SOL    HW2 8670   0.884   3.978   3.890
 2662SOL     OW 8671   1.719   4.309   5.555
 2662SOL    HW1 8672   1.693   4.398   5.519
 2662SOL    HW2 8673   1.717   4.241   5.482
 2663SOL     OW 8674   0.550   3.920   4.609
 2663SOL    HW1 8675   0.545   3.915   4.709
 2663SOL    HW2 8676   0.552   4.016   4.580
 2664SOL     OW 8677   1.458   4.459   4.452
 2664SOL    HW1 8678   1.453   4.394   4.527
 2664SOL    HW2 8679   1.538   4.518   4.465
 2665SOL     OW 8680   0.202   4.009   5.222
 2665SOL    HW1 8681   0.122   4.069   5.209
 2665SOL    HW2 8682   0.192   3.960   5.308
 2666SOL     OW 8683   1.400   3.831   4.150
 2666SOL    HW1 8684   1.376   3.794   4.060
 2666SOL    HW2 8685   1.499   3.847   4.154
 2667SOL     OW 8686   0.382   4.424   4.204
 2667SOL    HW1 8687   0.427   4.334   4.201
 2667SOL    HW2 8688   0.288   4.413   4.237
 2668SOL     OW 8689   1.547   3.946   5.453
 2668SOL    HW1 8690   1.542   3.983   5.545
 2668SOL    HW2 8691   1.475   3.877   5.441
 2669SOL     OW 8692   0.614   3.846   3.841
 2669SOL    HW1 8693   0.712   3.824   3.848
 2669SOL    HW2 8694   0.583   3.829   3.748
 2670SOL     OW 8695   0.781   3.988   5.473
 2670SOL    HW1 8696   0.848   3.927   5.516
 2670SOL    HW2 8697   0.708   4.007   5.538
 2671SOL     OW 8698   1.351   4.314   5.157
 2671SOL    HW1 8699   1.379   4.271   5.242
 2671SOL    HW2 8700   1.376   4.410   5.158
 2672SOL     OW 8701   0.922   4.227   4.623
 2672SOL    HW1 8702   0.897   4.218   4.527
 2672SOL    HW2 8703   0.970   4.145   4.654
 2673SOL     OW 8704   0.539   3.788   4.236
 2673SOL    HW1 8705   0.458   3.789   4.294
 2673SOL    HW2 8706   0.542   3.871   4.181
 2674SOL     OW 8707   0.297   3.759   3.895
 2674SOL    HW1 8708   0.346   3.843   3.874
 2674SOL    HW2 8709   0.359   3.694   3.940
 2675SOL     OW 8710   0.935   3.960   4.204
 2675SOL    HW1 8711   0.887   4.001   4.126
 2675SOL    HW2 8712   1.034   3.958   4.185
 2676SOL     OW 8713   1.076   4.407   5.188
 2676SOL    HW1 8714   0.996   4.346   5.191
 2676SOL    HW2 8715   1.157   4.354   5.164
 2677SOL     OW 8716   1.032   4.273   3.740
 2677SOL    HW1 8717   0.991   4.355   3.701
 2677SOL    HW2 8718   1.096   4.299   3.813
 2678SOL     OW 8719   0.078   4.280   5.110
 2678SOL    HW1 8720   0.170   4.279   5.069
 2678SOL    HW2 8721   0.072   4.354   5.177
 2679SOL     OW 8722   0.561   3.946   4.871
 2679SOL    HW1 8723   0.599   3.862   4.908
 2679SOL    HW2 8724   0.473   3.965   4.915
 2680SOL     OW 8725   0.866   4.178   4.366
 2680SOL    HW1 8726   0.834   4.250   4.304
 2680SOL    HW2 8727   0.890   4.097   4.313
 2681SOL     OW 8728   1.017   3.763   4.477
 2681SOL    HW1 8729   0.945   3.768   4.408
 2681SOL    HW2 8730   0.993   3.694   4.546
 2682SOL     OW 8731   1.466   4.314   4.716
 2682SOL    HW1 8732   1.436   4.219   4.723
 2682SOL    HW2 8733   1.539   4.330   4.782
 2683SOL     OW 8734   1.390   4.299   3.802
 2683SOL    HW1 8735   1.336   4.278   3.883
 2683SOL    HW2 8736   1.481   4.258   3.811
 2684SOL     OW 8737   0.527   3.980   4.052
 2684SOL    HW1 8738   0.554   3.921   3.977
 2684SOL    HW2 8739   0.527   4.075   4.021
 2685SOL     OW 8740   0.915   3.813   5.126
 2685SOL    HW1 8741   0.940   3.793   5.031
 2685SOL    HW2 8742   0.987   3.869   5.168
 2686SOL     OW 8743   0.410   4.537   4.975
 2686SOL    HW1 8744   0.496   4.549   5.025
 2686SOL    HW2 8745   0.368   4.450   5.002
 2687SOL     OW 8746   1.274   4.110   4.986
 2687SOL    HW1 8747   1.295   4.184   5.050
 2687SOL    HW2 8748   1.185   4.127   4.943
 2688SOL     OW 8749   0.566   4.261   4.589
 2688SOL    HW1 8750   0.578   4.327   4.515
 2688SOL    HW2 8751   0.612   4.295   4.672
 2689SOL     OW 8752   1.582   4.363   4.196
 2689SOL    HW1 8753   1.551   4.424   4.269
 2689SOL    HW2 8754   1.632   4.415   4.127
 2690SOL     OW 8755   1.013   3.829   5.494
 2690SOL    HW1 8756   1.019   3.914   5.442
 2690SOL    HW2 8757   1.045   3.753   5.437
 2691SOL     OW 8758   0.504   3.774   5.464
 2691SOL    HW1 8759   0.462   3.717   5.394
 2691SOL    HW2 8760   0.438   3.843   5.496
 2692SOL     OW 8761   1.209   4.249   3.999
 2692SOL    HW1 8762   1.222   4.165   4.053
 2692SOL    HW2 8763   1.180   4.323   4.059
 2693SOL     OW 8764   0.307   3.937   4.955
 2693SOL    HW1 8765   0.284   3.974   5.045
 2693SOL    HW2 8766   0.277   3.842   4.949
 2694SOL     OW 8767   0.732   4.358   4.788
 2694SOL    HW1 8768   0.791   4.332   4.712
 2694SOL    HW2 8769   0.704   4.454   4.777
 2695SOL     OW 8770   1.728   4.659   5.578
 2695SOL    HW1 8771   1.682   4.652   5.489
 2695SOL    HW2 8772   1.666   4.703   5.644
 2696SOL     OW 8773   0.307   3.787   4.342
 2696SOL    HW1 8774   0.296   3.881   4.375
 2696SOL    HW2 8775   0.302   3.724   4.419
 2697SOL     OW 8776   1.622   4.091   4.098
 2697SOL    HW1 8777   1.624   4.015   4.162
 2697SOL    HW2 8778   1.574   4.168   4.138
 2698SOL     OW 8779   1.540   3.998   3.849
 2698SOL    HW1 8780   1.479   3.923   3.872
 2698SOL    HW2 8781   1.562   4.050   3.932
 2699SOL     OW 8782   0.319   4.534   4.673
 2699SOL    HW1 8783   0.412   4.570   4.678
 2699SOL    HW2 8784   0.313   4.449   4.725
 2700SOL     OW 8785   0.339   4.233   4.730
 2700SOL    HW1 8786   0.287   4.150   4.713
 2700SOL    HW2 8787   0.416   4.238   4.666
 2701SOL     OW 8788   1.138   4.104   5.402
 2701SOL    HW1 8789   1.093   4.167   5.466
 2701SOL    HW2 8790   1.231   4.135   5.385
 2702SOL     OW 8791   1.160   3.931   5.201
 2702SOL    HW1 8792   1.160   3.995   5.278
 2702SOL    HW2 8793   1.188   3.979   5.118
 2703SOL     OW 8794   0.040   4.268   4.838
 2703SOL    HW1 8795   0.125   4.235   4.797
 2703SOL    HW2 8796   0.053   4.283   4.936
 2704SOL     OW 8797   0.189   4.244   5.446
 2704SOL    HW1 8798   0.248   4.204   5.376
 2704SOL    HW2 8799   0.131   4.315   5.405
 2705SOL     OW 8800   0.815   4.296   4.049
 2705SOL    HW1 8801   0.822   4.207   4.003
 2705SOL    HW2 8802   0.721   4.330   4.041
 2706SOL     OW 8803   1.657   4.328   4.930
 2706SOL    HW1 8804   1.619   4.259   4.992
 2706SOL    HW2 8805   1.739   4.292   4.886
 2707SOL     OW 8806   0.671   4.188   4.993
 2707SOL    HW1 8807   0.637   4.099   4.963
 2707SOL    HW2 8808   0.697   4.242   4.913
 2708SOL     OW 8809   0.473   4.224   3.915
 2708SOL    HW1 8810   0.534   4.304   3.919
 2708SOL    HW2 8811   0.378   4.255   3.922
 2709SOL     OW 8812   1.726   3.859   4.247
 2709SOL    HW1 8813   1.799   3.842   4.180
 2709SOL    HW2 8814   1.695   3.772   4.285
 2710SOL     OW 8815   1.280   4.651   4.396
 2710SOL    HW1 8816   1.340   4.570   4.398
 2710SOL    HW2 8817   1.320   4.720   4.336
 2711SOL     OW 8818   1.841   3.899   4.687
 2711SOL    HW1 8819   1.880   3.814   4.651
 2711SOL    HW2 8820   1.743   3.901   4.668
 2712SOL     OW 8821   0.263   4.050   4.444
 2712SOL    HW1 8822   0.184   4.101   4.410
 2712SOL    HW2 8823   0.254   4.035   4.542
 2713SOL     OW 8824   0.916   4.634   4.015
 2713SOL    HW1 8825   0.979   4.672   3.947
 2713SOL    HW2 8826   0.956   4.551   4.054
 2714SOL     OW 8827   1.039   4.822   4.420
 2714SOL    HW1 8828   0.969   4.775   4.474
 2714SOL    HW2 8829   1.098   4.754   4.377
 2715SOL     OW 8830   1.014   3.960   4.695
 2715SOL    HW1 8831   1.006   3.924   4.602
 2715SOL    HW2 8832   1.012   3.884   4.760
 2716SOL     OW 8833   1.709   4.109   5.105
 2716SOL    HW1 8834   1.782   4.178   5.109
 2716SOL    HW2 8835   1.737   4.034   5.046
 2717SOL     OW 8836   0.672   3.927   5.213
 2717SOL    HW1 8837   0.762   3.911   5.173
 2717SOL    HW2 8838   0.680   3.932   5.312
 2718SOL     OW 8839   0.075   4.069   3.757
 2718SOL    HW1 8840  -0.017   4.041   3.728
 2718SOL    HW2 8841   0.106   4.146   3.701
 2719SOL     OW 8842   0.072   3.890   4.042
 2719SOL    HW1 8843   0.055   3.973   3.988
 2719SOL    HW2 8844   0.162   3.853   4.020
 2720SOL     OW 8845   0.716   4.289   5.432
 2720SOL    HW1 8846   0.735   4.354   5.506
 2720SOL    HW2 8847   0.776   4.209   5.441
 2721SOL     OW 8848   1.225   4.049   4.173
 2721SOL    HW1 8849   1.290   3.975   4.162
 2721SOL    HW2 8850   1.245   4.099   4.257
 2722SOL     OW 8851   1.777   4.066   5.366
 2722SOL    HW1 8852   1.760   4.097   5.272
 2722SOL    HW2 8853   1.693   4.029   5.404
 2723SOL     OW 8854   1.083   4.708   3.811
 2723SOL    HW1 8855   1.060   4.761   3.729
 2723SOL    HW2 8856   1.164   4.652   3.792
 2724SOL     OW 8857   1.824   3.916   4.951
 2724SOL    HW1 8858   1.820   3.826   4.995
 2724SOL    HW2 8859   1.827   3.905   4.852
 2725SOL     OW 8860   0.428   4.148   4.244
 2725SOL    HW1 8861   0.458   4.076   4.182
 2725SOL    HW2 8862   0.389   4.108   4.327
 2726SOL     OW 8863   0.317   4.271   5.004
 2726SOL    HW1 8864   0.355   4.212   5.076
 2726SOL    HW2 8865   0.357   4.245   4.916
 2727SOL     OW 8866   1.424   3.938   4.836
 2727SOL    HW1 8867   1.476   3.873   4.891
 2727SOL    HW2 8868   1.375   4.001   4.897
 2728SOL     OW 8869   1.001   3.758   4.878
 2728SOL    HW1 8870   0.938   3.686   4.847
 2728SOL    HW2 8871   1.094   3.722   4.878
 2729SOL     OW 8872   1.352   3.776   3.892
 2729SOL    HW1 8873   1.387   3.735   3.808
 2729SOL    HW2 8874   1.262   3.738   3.912
 2730SOL     OW 8875   1.300   4.177   4.415
 2730SOL    HW1 8876   1.241   4.257   4.419
 2730SOL    HW2 8877   1.315   4.142   4.508
 2731SOL     OW 8878   1.593   3.945   4.606
 2731SOL    HW1 8879   1.509   3.944   4.660
 2731SOL    HW2 8880   1.595   4.028   4.550
 2732SOL     OW 8881   0.230   4.352   5.699
 2732SOL    HW1 8882   0.137   4.350   5.736
 2732SOL    HW2 8883   0.231   4.313   5.607
 2733SOL     OW 8884   0.225   3.999   6.582
 2733SOL    HW1 8885   0.260   3.982   6.674
 2733SOL    HW2 8886   0.137   3.954   6.570
 2734SOL     OW 8887   0.019   4.092   6.233
 2734SOL    HW1 8888  -0.063   4.135   6.272
 2734SOL    HW2 8889  -0.009   4.019   6.170
 2735SOL     OW 8890   1.755   4.331   5.817
 2735SOL    HW1 8891   1.743   4.318   5.718
 2735SOL    HW2 8892   1.725   4.250   5.866
 2736SOL     OW 8893   0.685   4.736   6.251
 2736SOL    HW1 8894   0.754   4.720   6.321
 2736SOL    HW2 8895   0.612   4.793   6.289
 2737SOL     OW 8896   0.438   4.116   7.085
 2737SOL    HW1 8897   0.520   4.060   7.094
 2737SOL    HW2 8898   0.357   4.058   7.089
 2738SOL     OW 8899   1.603   4.171   6.323
 2738SOL    HW1 8900   1.529   4.217   6.273
 2738SOL    HW2 8901   1.654   4.239   6.376
 2739SOL     OW 8902   1.594   3.838   7.066
 2739SOL    HW1 8903   1.576   3.905   6.994
 2739SOL    HW2 8904   1.591   3.884   7.155
 2740SOL     OW 8905   0.122   4.367   6.149
 2740SOL    HW1 8906   0.077   4.279   6.166
 2740SOL    HW2 8907   0.121   4.421   6.233
 2741SOL     OW 8908   0.113   4.461   7.183
 2741SOL    HW1 8909   0.201   4.448   7.228
 2741SOL    HW2 8910   0.100   4.558   7.161
 2742SOL     OW 8911   0.809   3.728   6.088
 2742SOL    HW1 8912   0.849   3.819   6.079
 2742SOL    HW2 8913   0.709   3.736   6.094
 2743SOL     OW 8914   0.317   3.975   7.387
 2743SOL    HW1 8915   0.388   4.046   7.393
 2743SOL    HW2 8916   0.229   4.014   7.415
 2744SOL     OW 8917   1.281   4.069   6.530
 2744SOL    HW1 8918   1.195   4.019   6.517
 2744SOL    HW2 8919   1.343   4.015   6.586
 2745SOL     OW 8920   0.807   4.329   7.051
 2745SOL    HW1 8921   0.760   4.326   7.140
 2745SOL    HW2 8922   0.756   4.274   6.985
 2746SOL     OW 8923   1.394   4.193   7.260
 2746SOL    HW1 8924   1.374   4.236   7.348
 2746SOL    HW2 8925   1.472   4.131   7.269
 2747SOL     OW 8926   0.991   4.134   6.828
 2747SOL    HW1 8927   0.914   4.168   6.882
 2747SOL    HW2 8928   0.957   4.083   6.749
 2748SOL     OW 8929   1.041   4.425   6.015
 2748SOL    HW1 8930   1.067   4.421   6.111
 2748SOL    HW2 8931   0.956   4.374   6.001
 2749SOL     OW 8932   0.076   4.535   6.375
 2749SOL    HW1 8933   0.175   4.523   6.384
 2749SOL    HW2 8934   0.052   4.630   6.396
 2750SOL     OW 8935   0.865   4.072   5.781
 2750SOL    HW1 8936   0.924   4.135   5.732
 2750SOL    HW2 8937   0.884   3.978   5.752
 2751SOL     OW 8938   1.719   4.309   7.417
 2751SOL    HW1 8939   1.693   4.398   7.381
 2751SOL    HW2 8940   1.717   4.241   7.344
 2752SOL     OW 8941   0.550   3.920   6.471
 2752SOL    HW1 8942   0.545   3.915   6.571
 2752SOL    HW2 8943   0.552   4.016   6.442
 2753SOL     OW 8944   1.458   4.459   6.314
 2753SOL    HW1 8945   1.453   4.394   6.389
 2753SOL    HW2 8946   1.538   4.518   6.327
 2754SOL     OW 8947   0.202   4.009   7.084
 2754SOL    HW1 8948   0.122   4.069   7.071
 2754SOL    HW2 8949   0.192   3.960   7.170
 2755SOL     OW 8950   1.400   3.831   6.012
 2755SOL    HW1 8951   1.376   3.794   5.922
 2755SOL    HW2 8952   1.499   3.847   6.016
 2756SOL     OW 8953   0.382   4.424   6.066
 2756SOL    HW1 8954   0.427   4.334   6.063
 2756SOL    HW2 8955   0.288   4.413   6.099
 2757SOL     OW 8956   1.547   3.946   7.315
 2757SOL    HW1 8957   1.542   3.983   7.407
 2757SOL    HW2 8958   1.475   3.877   7.303
 2758SOL     OW 8959   0.614   3.846   5.703
 2758SOL    HW1 8960   0.712   3.824   5.710
 2758SOL    HW2 8961   0.583   3.829   5.610
 2759SOL     OW 8962   0.781   3.988   7.335
 2759SOL    HW1 8963   0.848   3.927   7.378
 2759SOL    HW2 8964   0.708   4.007   7.400
 2760SOL     OW 8965   1.351   4.314   7.019
 2760SOL    HW1 8966   1.379   4.271   7.104
 2760SOL    HW2 8967   1.376   4.410   7.020
 2761SOL     OW 8968   0.922   4.227   6.485
 2761SOL    HW1 8969   0.897   4.218   6.389
 2761SOL    HW2 8970   0.970   4.145   6.516
 2762SOL     OW 8971   0.539   3.788   6.098
 2762SOL    HW1 8972   0.458   3.789   6.156
 2762SOL    HW2 8973   0.542   3.871   6.043
 2763SOL     OW 8974   0.297   3.759   5.757
 2763SOL    HW1 8975   0.346   3.843   5.736
 2763SOL    HW2 8976   0.359   3.694   5.802
 2764SOL     OW 8977   0.935   3.960   6.066
 2764SOL    HW1 8978   0.887   4.001   5.988
 2764SOL    HW2 8979   1.034   3.958   6.047
 2765SOL     OW 8980   1.076   4.407   7.050
 2765SOL    HW1 8981   0.996   4.346   7.053
 2765SOL    HW2 8982   1.157   4.354   7.026
 2766SOL     OW 8983   1.032   4.273   5.602
 2766SOL    HW1 8984   0.991   4.355   5.563
 2766SOL    HW2 8985   1.096   4.299   5.675
 2767SOL     OW 8986   0.078   4.280   6.972
 2767SOL    HW1 8987   0.170   4.279   6.931
 2767SOL    HW2 8988   0.072   4.354   7.039
 2768SOL     OW 8989   0.561   3.946   6.733
 2768SOL    HW1 8990   0.599   3.862   6.770
 2768SOL    HW2 8991   0.473   3.965   6.777
 2769SOL     OW 8992   0.866   4.178   6.228
 2769SOL    HW1 8993   0.834   4.250   6.166
 2769SOL    HW2 8994   0.890   4.097   6.175
 2770SOL     OW 8995   1.017   3.763   6.339
 2770SOL    HW1 8996   0.945   3.768   6.270
 2770SOL    HW2 8997   0.993   3.694   6.408
 2771SOL     OW 8998   1.466   4.314   6.578
 2771SOL    HW1 8999   1.436   4.219   6.585
 2771SOL    HW2 9000   1.539   4.330   6.644
 2772SOL     OW 9001   1.390   4.299   5.664
 2772SOL    HW1 9002   1.336   4.278   5.745
 2772SOL    HW2 9003   1.481   4.258   5.673
 2773SOL     OW 9004   0.527   3.980   5.914
 2773SOL    HW1 9005   0.554   3.921   5.839
 2773SOL    HW2 9006   0.527   4.075   5.883
 2774SOL     OW 9007   0.915   3.813   6.988
 2774SOL    HW1 9008   0.940   3.793   6.893
 2774SOL    HW2 9009   0.987   3.869   7.030
 2775SOL     OW 9010   0.410   4.537   6.837
 2775SOL    HW1 9011   0.496   4.549   6.887
 2775SOL    HW2 9012   0.368   4.450   6.864
 2776SOL     OW 9013   1.274   4.110   6.848
 2776SOL    HW1 9014   1.295   4.184   6.912
 2776SOL    HW2 9015   1.185   4.127   6.805
 2777SOL     OW 9016   0.566   4.261   6.451
 2777SOL    HW1 9017   0.578   4.327   6.377
 2777SOL    HW2 9018   0.612   4.295   6.534
 2778SOL     OW 9019   1.582   4.363   6.058
 2778SOL    HW1 9020   1.551   4.424   6.131
 2778SOL    HW2 9021   1.632   4.415   5.989
 2779SOL     OW 9022   1.013   3.829   7.356
 2779SOL    HW1 9023   1.019   3.914   7.304
 2779SOL    HW2 9024   1.045   3.753   7.299
 2780SOL     OW 9025   0.504   3.774   7.326
 2780SOL    HW1 9026   0.462   3.717   7.256
 2780SOL    HW2 9027   0.438   3.843   7.358
 2781SOL     OW 9028   1.209   4.249   5.861
 2781SOL    HW1 9029   1.222   4.165   5.915
 2781SOL    HW2 9030   1.180   4.323   5.921
 2782SOL     OW 9031   0.307   3.937   6.817
 2782SOL    HW1 9032   0.284   3.974   6.907
 2782SOL    HW2 9033   0.277   3.842   6.811
 2783SOL     OW 9034   0.732   4.358   6.650
 2783SOL    HW1 9035   0.791   4.332   6.574
 2783SOL    HW2 9036   0.704   4.454   6.639
 2784SOL     OW 9037   1.728   4.659   7.440
 2784SOL    HW1 9038   1.682   4.652   7.351
 2784SOL    HW2 9039   1.666   4.703   7.506
 2785SOL     OW 9040   0.307   3.787   6.204
 2785SOL    HW1 9041   0.296   3.881   6.237
 2785SOL    HW2 9042   0.302   3.724   6.281
 2786SOL     OW 9043   1.622   4.091   5.960
 2786SOL    HW1 9044   1.624   4.015   6.024
 2786SOL    HW2 9045   1.574   4.168   6.000
 2787SOL     OW 9046   1.540   3.998   5.711
 2787SOL    HW1 9047   1.479   3.923   5.734
 2787SOL    HW2 9048   1.562   4.050   5.794
 2788SOL     OW 9049   0.319   4.534   6.535
 2788SOL    HW1 9050   0.412   4.570   6.540
 2788SOL    HW2 9051   0.313   4.449   6.587
 2789SOL     OW 9052   0.339   4.233   6.592
 2789SOL    HW1 9053   0.287   4.150   6.575
 2789SOL    HW2 9054   0.416   4.238   6.528
 2790SOL     OW 9055   1.138   4.104   7.264
 2790SOL    HW1 9056   1.093   4.167   7.328
 2790SOL    HW2 9057   1.231   4.135   7.247
 2791SOL     OW 9058   1.160   3.931   7.063
 2791SOL    HW1 9059   1.160   3.995   7.140
 2791SOL    HW2 9060   1.188   3.979   6.980
 2792SOL     OW 9061   0.040   4.268   6.700
 2792SOL    HW1 9062   0.125   4.235   6.659
 2792SOL    HW2 9063   0.053   4.283   6.798
 2793SOL     OW 9064   0.189   4.244   7.308
 2793SOL    HW1 9065   0.248   4.204   7.238
 2793SOL    HW2 9066   0.131   4.315   7.267
 2794SOL     OW 9067   0.815   4.296   5.911
 2794SOL    HW1 9068   0.822   4.207   5.865
 2794SOL    HW2 9069   0.721   4.330   5.903
 2795SOL     OW 9070   1.657   4.328   6.792
 2795SOL    HW1 9071   1.619   4.259   6.854
 2795SOL    HW2 9072   1.739   4.292   6.748
 2796SOL     OW 9073   0.671   4.188   6.855
 2796SOL    HW1 9074   0.637   4.099   6.825
 2796SOL    HW2 9075   0.697   4.242   6.775
 2797SOL     OW 9076   0.473   4.224   5.777
 2797SOL    HW1 9077   0.534   4.304   5.781
 2797SOL    HW2 9078   0.378   4.255   5.784
 2798SOL     OW 9079   1.726   3.859   6.109
 2798SOL    HW1 9080   1.799   3.842   6.042
 2798SOL    HW2 9081   1.695   3.772   6.147
 2799SOL     OW 9082   1.280   4.651   6.258
 2799SOL    HW1 9083   1.340   4.570   6.260
 2799SOL    HW2 9084   1.320   4.720   6.198
 2800SOL     OW 9085   1.841   3.899   6.549
 2800SOL    HW1 9086   1.880   3.814   6.513
 2800SOL    HW2 9087   1.743   3.901   6.530
 2801SOL     OW 9088   0.263   4.050   6.306
 2801SOL    HW1 9089   0.184   4.101   6.272
 2801SOL    HW2 9090   0.254   4.035   6.404
 2802SOL     OW 9091   0.916   4.634   5.877
 2802SOL    HW1 9092   0.979   4.672   5.809
 2802SOL    HW2 9093   0.956   4.551   5.916
 2803SOL     OW 9094   1.039   4.822   6.282
 2803SOL    HW1 9095   0.969   4.775   6.336
 2803SOL    HW2 9096   1.098   4.754   6.239
 2804SOL     OW 9097   1.014   3.960   6.557
 2804SOL    HW1 9098   1.006   3.924   6.464
 2804SOL    HW2 9099   1.012   3.884   6.622
 2805SOL     OW 9100   1.709   4.109   6.967
 2805SOL    HW1 9101   1.782   4.178   6.971
 2805SOL    HW2 9102   1.737   4.034   6.908
 2806SOL     OW 9103   0.672   3.927   7.075
 2806SOL    HW1 9104   0.762   3.911   7.035
 2806SOL    HW2 9105   0.680   3.932   7.174
 2807SOL     OW 9106   0.075   4.069   5.619
 2807SOL    HW1 9107  -0.017   4.041   5.590
 2807SOL    HW2 9108   0.106   4.146   5.563
 2808SOL     OW 9109   0.072   3.890   5.904
 2808SOL    HW1 9110   0.055   3.973   5.850
 2808SOL    HW2 9111   0.162   3.853   5.882
 2809SOL     OW 9112   0.716   4.289   7.294
 2809SOL    HW1 9113   0.735   4.354   7.368
 2809SOL    HW2 9114   0.776   4.209   7.303
 2810SOL     OW 9115   1.225   4.049   6.035
 2810SOL    HW1 9116   1.290   3.975   6.024
 2810SOL    HW2 9117   1.245   4.099   6.119
 2811SOL     OW 9118   1.777   4.066   7.228
 2811SOL    HW1 9119   1.760   4.097   7.134
 2811SOL    HW2 9120   1.693   4.029   7.266
 2812SOL     OW 9121   1.083   4.708   5.673
 2812SOL    HW1 9122   1.060   4.761   5.591
 2812SOL    HW2 9123   1.164   4.652   5.654
 2813SOL     OW 9124   1.824   3.916   6.813
 2813SOL    HW1 9125   1.820   3.826   6.857
 2813SOL    HW2 9126   1.827   3.905   6.714
 2814SOL     OW 9127   0.428   4.148   6.106
 2814SOL    HW1 9128   0.458   4.076   6.044
 2814SOL    HW2 9129   0.389   4.108   6.189
 2815SOL     OW 9130   0.317   4.271   6.866
 2815SOL    HW1 9131   0.355   4.212   6.938
 2815SOL    HW2 9132   0.357   4.245   6.778
 2816SOL     OW 9133   1.424   3.938   6.698
 2816SOL    HW1 9134   1.476   3.873   6.753
 2816SOL    HW2 9135   1.375   4.001   6.759
 2817SOL     OW 9136   1.001   3.758   6.740
 2817SOL    HW1 9137   0.938   3.686   6.709
 2817SOL    HW2 9138   1.094   3.722   6.740
 2818SOL     OW 9139   1.352   3.776   5.754
 2818SOL    HW1 9140   1.387   3.735   5.670
 2818SOL    HW2 9141   1.262   3.738   5.774
 2819SOL     OW 9142   1.300   4.177   6.277
 2819SOL    HW1 9143   1.241   4.257   6.281
 2819SOL    HW2 9144   1.315   4.142   6.370
 2820SOL     OW 9145   1.593   3.945   6.468
 2820SOL    HW1 9146   1.509   3.944   6.522
 2820SOL    HW2 9147   1.595   4.028   6.412
 2821SOL     OW 9148   0.230   4.352   7.561
 2821SOL    HW1 9149   0.137   4.350   7.598
 2821SOL    HW2 9150   0.231   4.313   7.469
 2822SOL     OW 9151   0.225   3.999   8.444
 2822SOL    HW1 9152   0.260   3.982   8.536
 2822SOL    HW2 9153   0.137   3.954   8.432
 2823SOL     OW 9154   0.019   4.092   8.095
 2823SOL    HW1 9155  -0.063   4.135   8.134
 2823SOL    HW2 9156  -0.009   4.019   8.032
 2824SOL     OW 9157   1.755   4.331   7.679
 2824SOL    HW1 9158   1.743   4.318   7.580
 2824SOL    HW2 9159   1.725   4.250   7.728
 2825SOL     OW 9160   0.685   4.736   8.113
 2825SOL    HW1 9161   0.754   4.720   8.183
 2825SOL    HW2 9162   0.612   4.793   8.151
 2826SOL     OW 9163   0.438   4.116   8.947
 2826SOL    HW1 9164   0.520   4.060   8.956
 2826SOL    HW2 9165   0.357   4.058   8.951
 2827SOL     OW 9166   1.603   4.171   8.185
 2827SOL    HW1 9167   1.529   4.217   8.135
 2827SOL    HW2 9168   1.654   4.239   8.238
 2828SOL     OW 9169   1.594   3.838   8.928
 2828SOL    HW1 9170   1.576   3.905   8.856
 2828SOL    HW2 9171   1.591   3.884   9.017
 2829SOL     OW 9172   0.122   4.367   8.011
 2829SOL    HW1 9173   0.077   4.279   8.028
 2829SOL    HW2 9174   0.121   4.421   8.095
 2830SOL     OW 9175   0.113   4.461   9.045
 2830SOL    HW1 9176   0.201   4.448   9.090
 2830SOL    HW2 9177   0.100   4.558   9.023
 2831SOL     OW 9178   0.809   3.728   7.950
 2831SOL    HW1 9179   0.849   3.819   7.941
 2831SOL    HW2 9180   0.709   3.736   7.956
 2832SOL     OW 9181   0.317   3.975   9.249
 2832SOL    HW1 9182   0.388   4.046   9.255
 2832SOL    HW2 9183   0.229   4.014   9.277
 2833SOL     OW 9184   1.281   4.069   8.392
 2833SOL    HW1 9185   1.195   4.019   8.379
 2833SOL    HW2 9186   1.343   4.015   8.448
 2834SOL     OW 9187   0.807   4.329   8.913
 2834SOL    HW1 9188   0.760   4.326   9.002
 2834SOL    HW2 9189   0.756   4.274   8.847
 2835SOL     OW 9190   1.394   4.193   9.122
 2835SOL    HW1 9191   1.374   4.236   9.210
 2835SOL    HW2 9192   1.472   4.131   9.131
 2836SOL     OW 9193   0.991   4.134   8.690
 2836SOL    HW1 9194   0.914   4.168   8.744
 2836SOL    HW2 9195   0.957   4.083   8.611
 2837SOL     OW 9196   1.041   4.425   7.877
 2837SOL    HW1 9197   1.067   4.421   7.973
 2837SOL    HW2 9198   0.956   4.374   7.863
 2838SOL     OW 9199   0.076   4.535   8.237
 2838SOL    HW1 9200   0.175   4.523   8.246
 2838SOL    HW2 9201   0.052   4.630   8.258
 2839SOL     OW 9202   0.865   4.072   7.643
 2839SOL    HW1 9203   0.924   4.135   7.594
 2839SOL    HW2 9204   0.884   3.978   7.614
 2840SOL     OW 9205   1.719   4.309   9.279
 2840SOL    HW1 9206   1.693   4.398   9.243
 2840SOL    HW2 9207   1.717   4.241   9.206
 2841SOL     OW 9208   0.550   3.920   8.333
 2841SOL    HW1 9209   0.545   3.915   8.433
 2841SOL    HW2 9210   0.552   4.016   8.304
 2842SOL     OW 9211   1.458   4.459   8.176
 2842SOL    HW1 9212   1.453   4.394   8.251
 2842SOL    HW2 9213   1.538   4.518   8.189
 2843SOL     OW 9214   0.202   4.009   8.946
 2843SOL    HW1 9215   0.122   4.069   8.933
 2843SOL    HW2 9216   0.192   3.960   9.032
 2844SOL     OW 9217   1.400   3.831   7.874
 2844SOL    HW1 9218   1.376   3.794   7.784
 2844SOL    HW2 9219   1.499   3.847   7.878
 2845SOL     OW 9220   0.382   4.424   7.928
 2845SOL    HW1 9221   0.427   4.334   7.925
 2845SOL    HW2 9222   0.288   4.413   7.961
 2846SOL     OW 9223   1.547   3.946   9.177
 2846SOL    HW1 9224   1.542   3.983   9.269
 2846SOL    HW2 9225   1.475   3.877   9.165
 2847SOL     OW 9226   0.614   3.846   7.565
 2847SOL    HW1 9227   0.712   3.824   7.572
 2847SOL    HW2 9228   0.583   3.829   7.472
 2848SOL     OW 9229   0.781   3.988   9.197
 2848SOL    HW1 9230   0.848   3.927   9.240
 2848SOL    HW2 9231   0.708   4.007   9.262
 2849SOL     OW 9232   1.351   4.314   8.881
 2849SOL    HW1 9233   1.379   4.271   8.966
 2849SOL    HW2 9234   1.376   4.410   8.882
 2850SOL     OW 9235   0.922   4.227   8.347
 2850SOL    HW1 9236   0.897   4.218   8.251
 2850SOL    HW2 9237   0.970   4.145   8.378
 2851SOL     OW 9238   0.539   3.788   7.960
 2851SOL    HW1 9239   0.458   3.789   8.018
 2851SOL    HW2 9240   0.542   3.871   7.905
 2852SOL     OW 9241   0.297   3.759   7.619
 2852SOL    HW1 9242   0.346   3.843   7.598
 2852SOL    HW2 9243   0.359   3.694   7.664
 2853SOL     OW 9244   0.935   3.960   7.928
 2853SOL    HW1 9245   0.887   4.001   7.850
 2853SOL    HW2 9246   1.034   3.958   7.909
 2854SOL     OW 9247   1.076   4.407   8.912
 2854SOL    HW1 9248   0.996   4.346   8.915
 2854SOL    HW2 9249   1.157   4.354   8.888
 2855SOL     OW 9250   1.032   4.273   7.464
 2855SOL    HW1 9251   0.991   4.355   7.425
 2855SOL    HW2 9252   1.096   4.299   7.537
 2856SOL     OW 9253   0.078   4.280   8.834
 2856SOL    HW1 9254   0.170   4.279   8.793
 2856SOL    HW2 9255   0.072   4.354   8.901
 2857SOL     OW 9256   0.561   3.946   8.595
 2857SOL    HW1 9257   0.599   3.862   8.632
 2857SOL    HW2 9258   0.473   3.965   8.639
 2858SOL     OW 9259   0.866   4.178   8.090
 2858SOL    HW1 9260   0.834   4.250   8.028
 2858SOL    HW2 9261   0.890   4.097   8.037
 2859SOL     OW 9262   1.017   3.763   8.201
 2859SOL    HW1 9263   0.945   3.768   8.132
 2859SOL    HW2 9264   0.993   3.694   8.270
 2860SOL     OW 9265   1.466   4.314   8.440
 2860SOL    HW1 9266   1.436   4.219   8.447
 2860SOL    HW2 9267   1.539   4.330   8.506
 2861SOL     OW 9268   1.390   4.299   7.526
 2861SOL    HW1 9269   1.336   4.278   7.607
 2861SOL    HW2 9270   1.481   4.258   7.535
 2862SOL     OW 9271   0.527   3.980   7.776
 2862SOL    HW1 9272   0.554   3.921   7.701
 2862SOL    HW2 9273   0.527   4.075   7.745
 2863SOL     OW 9274   0.915   3.813   8.850
 2863SOL    HW1 9275   0.940   3.793   8.755
 2863SOL    HW2 9276   0.987   3.869   8.892
 2864SOL     OW 9277   0.410   4.537   8.699
 2864SOL    HW1 9278   0.496   4.549   8.749
 2864SOL    HW2 9279   0.368   4.450   8.726
 2865SOL     OW 9280   1.274   4.110   8.710
 2865SOL    HW1 9281   1.295   4.184   8.774
 2865SOL    HW2 9282   1.185   4.127   8.667
 2866SOL     OW 9283   0.566   4.261   8.313
 2866SOL    HW1 9284   0.578   4.327   8.239
 2866SOL    HW2 9285   0.612   4.295   8.396
 2867SOL     OW 9286   1.582   4.363   7.920
 2867SOL    HW1 9287   1.551   4.424   7.993
 2867SOL    HW2 9288   1.632   4.415   7.851
 2868SOL     OW 9289   1.013   3.829   9.218
 2868SOL    HW1 9290   1.019   3.914   9.166
 2868SOL    HW2 9291   1.045   3.753   9.161
 2869SOL     OW 9292   0.504   3.774   9.188
 2869SOL    HW1 9293   0.462   3.717   9.118
 2869SOL    HW2 9294   0.438   3.843   9.220
 2870SOL     OW 9295   1.209   4.249   7.723
 2870SOL    HW1 9296   1.222   4.165   7.777
 2870SOL    HW2 9297   1.180   4.323   7.783
 2871SOL     OW 9298   0.307   3.937   8.679
 2871SOL    HW1 9299   0.284   3.974   8.769
 2871SOL    HW2 9300   0.277   3.842   8.673
 2872SOL     OW 9301   0.732   4.358   8.512
 2872SOL    HW1 9302   0.791   4.332   8.436
 2872SOL    HW2 9303   0.704   4.454   8.501
 2873SOL     OW 9304   1.728   4.659   9.302
 2873SOL    HW1 9305   1.682   4.652   9.213
 2873SOL    HW2 9306   1.666   4.703   9.368
 2874SOL     OW 9307   0.307   3.787   8.066
 2874SOL    HW1 9308   0.296   3.881   8.099
 2874SOL    HW2 9309   0.302   3.724   8.143
 2875SOL     OW 9310   1.622   4.091   7.822
 2875SOL    HW1 9311   1.624   4.015   7.886
 2875SOL    HW2 9312   1.574   4.168   7.862
 2876SOL     OW 9313   1.540   3.998   7.573
 2876SOL    HW1 9314   1.479   3.923   7.596
 2876SOL    HW2 9315   1.562   4.050   7.656
 2877SOL     OW 9316   0.319   4.534   8.397
 2877SOL    HW1 9317   0.412   4.570   8.402
 2877SOL    HW2 9318   0.313   4.449   8.449
 2878SOL     OW 9319   0.339   4.233   8.454
 2878SOL    HW1 9320   0.287   4.150   8.437
 2878SOL    HW2 9321   0.416   4.238   8.390
 2879SOL     OW 9322   1.138   4.104   9.126
 2879SOL    HW1 9323   1.093   4.167   9.190
 2879SOL    HW2 9324   1.231   4.135   9.109
 2880SOL     OW 9325   1.160   3.931   8.925
 2880SOL    HW1 9326   1.160   3.995   9.002
 2880SOL    HW2 9327   1.188   3.979   8.842
 2881SOL     OW 9328   0.040   4.268   8.562
 2881SOL    HW1 9329   0.125   4.235   8.521
 2881SOL    HW2 9330   0.053   4.283   8.660
 2882SOL     OW 9331   0.189   4.244   9.170
 2882SOL    HW1 9332   0.248   4.204   9.100
 2882SOL    HW2 9333   0.131   4.315   9.129
 2883SOL     OW 9334   0.815   4.296   7.773
 2883SOL    HW1 9335   0.822   4.207   7.727
 2883SOL    HW2 9336   0.721   4.330   7.765
 2884SOL     OW 9337   1.657   4.328   8.654
 2884SOL    HW1 9338   1.619   4.259   8.716
 2884SOL    HW2 9339   1.739   4.292   8.610
 2885SOL     OW 9340   0.671   4.188   8.717
 2885SOL    HW1 9341   0.637   4.099   8.687
 2885SOL    HW2 9342   0.697   4.242   8.637
 2886SOL     OW 9343   0.473   4.224   7.639
 2886SOL    HW1 9344   0.534   4.304   7.643
 2886SOL    HW2 9345   0.378   4.255   7.646
 2887SOL     OW 9346   1.726   3.859   7.971
 2887SOL    HW1 9347   1.799   3.842   7.904
 2887SOL    HW2 9348   1.695   3.772   8.009
 2888SOL     OW 9349   1.280   4.651   8.120
 2888SOL    HW1 9350   1.340   4.570   8.122
 2888SOL    HW2 9351   1.320   4.720   8.060
 2889SOL     OW 9352   1.841   3.899   8.411
 2889SOL    HW1 9353   1.880   3.814   8.375
 2889SOL    HW2 9354   1.743   3.901   8.392
 2890SOL     OW 9355   0.263   4.050   8.168
 2890SOL    HW1 9356   0.184   4.101   8.134
 2890SOL    HW2 9357   0.254   4.035   8.266
 2891SOL     OW 9358   0.916   4.634   7.739
 2891SOL    HW1 9359   0.979   4.672   7.671
 2891SOL    HW2 9360   0.956   4.551   7.778
 2892SOL     OW 9361   1.039   4.822   8.144
 2892SOL    HW1 9362   0.969   4.775   8.198
 2892SOL    HW2 9363   1.098   4.754   8.101
 2893SOL     OW 9364   1.014   3.960   8.419
 2893SOL    HW1 9365   1.006   3.924   8.326
 2893SOL    HW2 9366   1.012   3.884   8.484
 2894SOL     OW 9367   1.709   4.109   8.829
 2894SOL    HW1 9368   1.782   4.178   8.833
 2894SOL    HW2 9369   1.737   4.034   8.770
 2895SOL     OW 9370   0.672   3.927   8.937
 2895SOL    HW1 9371   0.762   3.911   8.897
 2895SOL    HW2 9372   0.680   3.932   9.036
 2896SOL     OW 9373   0.075   4.069   7.481
 2896SOL    HW1 9374  -0.017   4.041   7.452
 2896SOL    HW2 9375   0.106   4.146   7.425
 2897SOL     OW 9376   0.072   3.890   7.766
 2897SOL    HW1 9377   0.055   3.973   7.712
 2897SOL    HW2 9378   0.162   3.853   7.744
 2898SOL     OW 9379   0.716   4.289   9.156
 2898SOL    HW1 9380   0.735   4.354   9.230
 2898SOL    HW2 9381   0.776   4.209   9.165
 2899SOL     OW 9382   1.225   4.049   7.897
 2899SOL    HW1 9383   1.290   3.975   7.886
 2899SOL    HW2 9384   1.245   4.099   7.981
 2900SOL     OW 9385   1.777   4.066   9.090
 2900SOL    HW1 9386   1.760   4.097   8.996
 2900SOL    HW2 9387   1.693   4.029   9.128
 2901SOL     OW 9388   1.083   4.708   7.535
 2901SOL    HW1 9389   1.060   4.761   7.453
 2901SOL    HW2 9390   1.164   4.652   7.516
 2902SOL     OW 9391   1.824   3.916   8.675
 2902SOL    HW1 9392   1.820   3.826   8.719
 2902SOL    HW2 9393   1.827   3.905   8.576
 2903SOL     OW 9394   0.428   4.148   7.968
 2903SOL    HW1 9395   0.458   4.076   7.906
 2903SOL    HW2 9396   0.389   4.108   8.051
 2904SOL     OW 9397   0.317   4.271   8.728
 2904SOL    HW1 9398   0.355   4.212   8.800
 2904SOL    HW2 9399   0.357   4.245   8.640
 2905SOL     OW 9400   1.424   3.938   8.560
 2905SOL    HW1 9401   1.476   3.873   8.615
 2905SOL    HW2 9402   1.375   4.001   8.621
 2906SOL     OW 9403   1.001   3.758   8.602
 2906SOL    HW1 9404   0.938   3.686   8.571
 2906SOL    HW2 9405   1.094   3.722   8.602
 2907SOL     OW 9406   1.352   3.776   7.616
 2907SOL    HW1 9407   1.387   3.735   7.532
 2907SOL    HW2 9408   1.262   3.738   7.636
 2908SOL     OW 9409   1.300   4.177   8.139
 2908SOL    HW1 9410   1.241   4.257   8.143
 2908SOL    HW2 9411   1.315   4.142   8.232
 2909SOL     OW 9412   1.593   3.945   8.330
 2909SOL    HW1 9413   1.509   3.944   8.384
 2909SOL    HW2 9414   1.595   4.028   8.274
 2910SOL     OW 9415   0.230   4.352   9.423
 2910SOL    HW1 9416   0.137   4.350   9.460
 2910SOL    HW2 9417   0.231   4.313   9.331
 2911SOL     OW 9418   0.225   3.999  10.306
 2911SOL    HW1 9419   0.260   3.982  10.398
 2911SOL    HW2 9420   0.137   3.954  10.294
 2912SOL     OW 9421   0.019   4.092   9.957
 2912SOL    HW1 9422  -0.063   4.135   9.996
 2912SOL    HW2 9423  -0.009   4.019   9.894
 2913SOL     OW 9424   1.755   4.331   9.541
 2913SOL    HW1 9425   1.743   4.318   9.442
 2913SOL    HW2 9426   1.725   4.250   9.590
 2914SOL     OW 9427   0.685   4.736   9.975
 2914SOL    HW1 9428   0.754   4.720  10.045
 2914SOL    HW2 9429   0.612   4.793  10.013
 2915SOL     OW 9430   0.438   4.116  10.809
 2915SOL    HW1 9431   0.520   4.060  10.818
 2915SOL    HW2 9432   0.357   4.058  10.813
 2916SOL     OW 9433   1.603   4.171  10.047
 2916SOL    HW1 9434   1.529   4.217   9.997
 2916SOL    HW2 9435   1.654   4.239  10.100
 2917SOL     OW 9436   1.594   3.838  10.790
 2917SOL    HW1 9437   1.576   3.905  10.718
 2917SOL    HW2 9438   1.591   3.884  10.879
 2918SOL     OW 9439   0.122   4.367   9.873
 2918SOL    HW1 9440   0.077   4.279   9.890
 2918SOL    HW2 9441   0.121   4.421   9.957
 2919SOL     OW 9442   0.113   4.461  10.907
 2919SOL    HW1 9443   0.201   4.448  10.952
 2919SOL    HW2 9444   0.100   4.558  10.885
 2920SOL     OW 9445   0.809   3.728   9.812
 2920SOL    HW1 9446   0.849   3.819   9.803
 2920SOL    HW2 9447   0.709   3.736   9.818
 2921SOL     OW 9448   0.317   3.975  11.111
 2921SOL    HW1 9449   0.388   4.046  11.117
 2921SOL    HW2 9450   0.229   4.014  11.139
 2922SOL     OW 9451   1.281   4.069  10.254
 2922SOL    HW1 9452   1.195   4.019  10.241
 2922SOL    HW2 9453   1.343   4.015  10.310
 2923SOL     OW 9454   0.807   4.329  10.775
 2923SOL    HW1 9455   0.760   4.326  10.864
 2923SOL    HW2 9456   0.756   4.274  10.709
 2924SOL     OW 9457   0.991   4.134  10.552
 2924SOL    HW1 9458   0.914   4.168  10.606
 2924SOL    HW2 9459   0.957   4.083  10.473
 2925SOL     OW 9460   1.041   4.425   9.739
 2925SOL    HW1 9461   1.067   4.421   9.835
 2925SOL    HW2 9462   0.956   4.374   9.725
 2926SOL     OW 9463   0.076   4.535  10.099
 2926SOL    HW1 9464   0.175   4.523  10.108
 2926SOL    HW2 9465   0.052   4.630  10.120
 2927SOL     OW 9466   0.865   4.072   9.505
 2927SOL    HW1 9467   0.924   4.135   9.456
 2927SOL    HW2 9468   0.884   3.978   9.476
 2928SOL     OW 9469   0.550   3.920  10.195
 2928SOL    HW1 9470   0.545   3.915  10.295
 2928SOL    HW2 9471   0.552   4.016  10.166
 2929SOL     OW 9472   1.458   4.459  10.038
 2929SOL    HW1 9473   1.453   4.394  10.113
 2929SOL    HW2 9474   1.538   4.518  10.051
 2930SOL     OW 9475   0.202   4.009  10.808
 2930SOL    HW1 9476   0.122   4.069  10.795
 2930SOL    HW2 9477   0.192   3.960  10.894
 2931SOL     OW 9478   1.400   3.831   9.736
 2931SOL    HW1 9479   1.376   3.794   9.646
 2931SOL    HW2 9480   1.499   3.847   9.740
 2932SOL     OW 9481   0.382   4.424   9.790
 2932SOL    HW1 9482   0.427   4.334   9.787
 2932SOL    HW2 9483   0.288   4.413   9.823
 2933SOL     OW 9484   0.614   3.846   9.427
 2933SOL    HW1 9485   0.712   3.824   9.434
 2933SOL    HW2 9486   0.583   3.829   9.334
 2934SOL     OW 9487   0.781   3.988  11.059
 2934SOL    HW1 9488   0.848   3.927  11.102
 2934SOL    HW2 9489   0.708   4.007  11.124
 2935SOL     OW 9490   1.351   4.314  10.743
 2935SOL    HW1 9491   1.379   4.271  10.828
 2935SOL    HW2 9492   1.376   4.410  10.744
 2936SOL     OW 9493   0.922   4.227  10.209
 2936SOL    HW1 9494   0.897   4.218  10.113
 2936SOL    HW2 9495   0.970   4.145  10.240
 2937SOL     OW 9496   0.539   3.788   9.822
 2937SOL    HW1 9497   0.458   3.789   9.880
 2937SOL    HW2 9498   0.542   3.871   9.767
 2938SOL     OW 9499   0.297   3.759   9.481
 2938SOL    HW1 9500   0.346   3.843   9.460
 2938SOL    HW2 9501   0.359   3.694   9.526
 2939SOL     OW 9502   0.935   3.960   9.790
 2939SOL    HW1 9503   0.887   4.001   9.712
 2939SOL    HW2 9504   1.034   3.958   9.771
 2940SOL     OW 9505   1.076   4.407  10.774
 2940SOL    HW1 9506   0.996   4.346  10.777
 2940SOL    HW2 9507   1.157   4.354  10.750
 2941SOL     OW 9508   1.032   4.273   9.326
 2941SOL    HW1 9509   0.991   4.355   9.287
 2941SOL    HW2 9510   1.096   4.299   9.399
 2942SOL     OW 9511   0.078   4.280  10.696
 2942SOL    HW1 9512   0.170   4.279  10.655
 2942SOL    HW2 9513   0.072   4.354  10.763
 2943SOL     OW 9514   0.561   3.946  10.457
 2943SOL    HW1 9515   0.599   3.862  10.494
 2943SOL    HW2 9516   0.473   3.965  10.501
 2944SOL     OW 9517   0.866   4.178   9.952
 2944SOL    HW1 9518   0.834   4.250   9.890
 2944SOL    HW2 9519   0.890   4.097   9.899
 2945SOL     OW 9520   1.017   3.763  10.063
 2945SOL    HW1 9521   0.945   3.768   9.994
 2945SOL    HW2 9522   0.993   3.694  10.132
 2946SOL     OW 9523   1.466   4.314  10.302
 2946SOL    HW1 9524   1.436   4.219  10.309
 2946SOL    HW2 9525   1.539   4.330  10.368
 2947SOL     OW 9526   1.390   4.299   9.388
 2947SOL    HW1 9527   1.336   4.278   9.469
 2947SOL    HW2 9528   1.481   4.258   9.397
 2948SOL     OW 9529   0.527   3.980   9.638
 2948SOL    HW1 9530   0.554   3.921   9.563
 2948SOL    HW2 9531   0.527   4.075   9.607
 2949SOL     OW 9532   0.915   3.813  10.712
 2949SOL    HW1 9533   0.940   3.793  10.617
 2949SOL    HW2 9534   0.987   3.869  10.754
 2950SOL     OW 9535   0.410   4.537  10.561
 2950SOL    HW1 9536   0.496   4.549  10.611
 2950SOL    HW2 9537   0.368   4.450  10.588
 2951SOL     OW 9538   1.274   4.110  10.572
 2951SOL    HW1 9539   1.295   4.184  10.636
 2951SOL    HW2 9540   1.185   4.127  10.529
 2952SOL     OW 9541   0.566   4.261  10.175
 2952SOL    HW1 9542   0.578   4.327  10.101
 2952SOL    HW2 9543   0.612   4.295  10.258
 2953SOL     OW 9544   1.582   4.363   9.782
 2953SOL    HW1 9545   1.551   4.424   9.855
 2953SOL    HW2 9546   1.632   4.415   9.713
 2954SOL     OW 9547   0.402   4.475  10.908
 2954SOL    HW1 9548   0.470   4.530  10.861
 2954SOL    HW2 9549   0.442   4.387  10.935
 2955SOL     OW 9550   1.209   4.249   9.585
 2955SOL    HW1 9551   1.222   4.165   9.639
 2955SOL    HW2 9552   1.180   4.323   9.645
 2956SOL     OW 9553   0.307   3.937  10.541
 2956SOL    HW1 9554   0.284   3.974  10.631
 2956SOL    HW2 9555   0.277   3.842  10.535
 2957SOL     OW 9556   0.732   4.358  10.374
 2957SOL    HW1 9557   0.791   4.332  10.298
 2957SOL    HW2 9558   0.704   4.454  10.363
 2958SOL     OW 9559   0.307   3.787   9.928
 2958SOL    HW1 9560   0.296   3.881   9.961
 2958SOL    HW2 9561   0.302   3.724  10.005
 2959SOL     OW 9562   1.622   4.091   9.684
 2959SOL    HW1 9563   1.624   4.015   9.748
 2959SOL    HW2 9564   1.574   4.168   9.724
 2960SOL     OW 9565   1.540   3.998   9.435
 2960SOL    HW1 9566   1.479   3.923   9.458
 2960SOL    HW2 9567   1.562   4.050   9.518
 2961SOL     OW 9568   0.319   4.534  10.259
 2961SOL    HW1 9569   0.412   4.570  10.264
 2961SOL    HW2 9570   0.313   4.449  10.311
 2962SOL     OW 9571   0.339   4.233  10.316
 2962SOL    HW1 9572   0.287   4.150  10.299
 2962SOL    HW2 9573   0.416   4.238  10.252
 2963SOL     OW 9574   1.160   3.931  10.787
 2963SOL    HW1 9575   1.160   3.995  10.864
 2963SOL    HW2 9576   1.188   3.979  10.704
 2964SOL     OW 9577   0.040   4.268  10.424
 2964SOL    HW1 9578   0.125   4.235  10.383
 2964SOL    HW2 9579   0.053   4.283  10.522
 2965SOL     OW 9580   1.369   4.674  10.970
 2965SOL    HW1 9581   1.408   4.763  10.990
 2965SOL    HW2 9582   1.379   4.654  10.873
 2966SOL     OW 9583   0.815   4.296   9.635
 2966SOL    HW1 9584   0.822   4.207   9.589
 2966SOL    HW2 9585   0.721   4.330   9.627
 2967SOL     OW 9586   1.657   4.328  10.516
 2967SOL    HW1 9587   1.619   4.259  10.578
 2967SOL    HW2 9588   1.739   4.292  10.472
 2968SOL     OW 9589   0.671   4.188  10.579
 2968SOL    HW1 9590   0.637   4.099  10.549
 2968SOL    HW2 9591   0.697   4.242  10.499
 2969SOL     OW 9592   0.473   4.224   9.501
 2969SOL    HW1 9593   0.534   4.304   9.505
 2969SOL    HW2 9594   0.378   4.255   9.508
 2970SOL     OW 9595   1.726   3.859   9.833
 2970SOL    HW1 9596   1.799   3.842   9.766
 2970SOL    HW2 9597   1.695   3.772   9.871
 2971SOL     OW 9598   1.280   4.651   9.982
 2971SOL    HW1 9599   1.340   4.570   9.984
 2971SOL    HW2 9600   1.320   4.720   9.922
 2972SOL     OW 9601   1.841   3.899  10.273
 2972SOL    HW1 9602   1.880   3.814  10.237
 2972SOL    HW2 9603   1.743   3.901  10.254
 2973SOL     OW 9604   0.263   4.050  10.030
 2973SOL    HW1 9605   0.184   4.101   9.996
 2973SOL    HW2 9606   0.254   4.035  10.128
 2974SOL     OW 9607   0.916   4.634   9.601
 2974SOL    HW1 9608   0.979   4.672   9.533
 2974SOL    HW2 9609   0.956   4.551   9.640
 2975SOL     OW 9610   1.039   4.822  10.006
 2975SOL    HW1 9611   0.969   4.775  10.060
 2975SOL    HW2 9612   1.098   4.754   9.963
 2976SOL     OW 9613   1.014   3.960  10.281
 2976SOL    HW1 9614   1.006   3.924  10.188
 2976SOL    HW2 9615   1.012   3.884  10.346
 2977SOL     OW 9616   1.709   4.109  10.691
 2977SOL    HW1 9617   1.782   4.178  10.695
 2977SOL    HW2 9618   1.737   4.034  10.632
 2978SOL     OW 9619   0.672   3.927  10.799
 2978SOL    HW1 9620   0.762   3.911  10.759
 2978SOL    HW2 9621   0.680   3.932  10.898
 2979SOL     OW 9622   0.075   4.069   9.343
 2979SOL    HW1 9623  -0.017   4.041   9.314
 2979SOL    HW2 9624   0.106   4.146   9.287
 2980SOL     OW 9625   0.072   3.890   9.628
 2980SOL    HW1 9626   0.055   3.973   9.574
 2980SOL    HW2 9627   0.162   3.853   9.606
 2981SOL     OW 9628   0.716   4.289  11.018
 2981SOL    HW1 9629   0.735   4.354  11.092
 2981SOL    HW2 9630   0.776   4.209  11.027
 2982SOL     OW 9631   1.225   4.049   9.759
 2982SOL    HW1 9632   1.290   3.975   9.748
 2982SOL    HW2 9633   1.245   4.099   9.843
 2983SOL     OW 9634   1.777   4.066  10.952
 2983SOL    HW1 9635   1.760   4.097  10.858
 2983SOL    HW2 9636   1.693   4.029  10.990
 2984SOL     OW 9637   1.083   4.708   9.397
 2984SOL    HW1 9638   1.060   4.761   9.315
 2984SOL    HW2 9639   1.164   4.652   9.378
 2985SOL     OW 9640   1.824   3.916  10.537
 2985SOL    HW1 9641   1.820   3.826  10.581
 2985SOL    HW2 9642   1.827   3.905  10.438
 2986SOL     OW 9643   0.428   4.148   9.830
 2986SOL    HW1 9644   0.458   4.076   9.768
 2986SOL    HW2 9645   0.389   4.108   9.913
 2987SOL     OW 9646   0.317   4.271  10.590
 2987SOL    HW1 9647   0.355   4.212  10.662
 2987SOL    HW2 9648   0.357   4.245  10.502
 2988SOL     OW 9649   1.424   3.938  10.422
 2988SOL    HW1 9650   1.476   3.873  10.477
 2988SOL    HW2 9651   1.375   4.001  10.483
 2989SOL     OW 9652   1.001   3.758  10.464
 2989SOL    HW1 9653   0.938   3.686  10.433
 2989SOL    HW2 9654   1.094   3.722  10.464
 2990SOL     OW 9655   1.352   3.776   9.478
 2990SOL    HW1 9656   1.387   3.735   9.394
 2990SOL    HW2 9657   1.262   3.738   9.498
 2991SOL     OW 9658   1.300   4.177  10.001
 2991SOL    HW1 9659   1.241   4.257  10.005
 2991SOL    HW2 9660   1.315   4.142  10.094
 2992SOL     OW 9661   1.593   3.945  10.192
 2992SOL    HW1 9662   1.509   3.944  10.246
 2992SOL    HW2 9663   1.595   4.028  10.136
 2993SOL     OW 9664   2.092   0.628   0.113
 2993SOL    HW1 9665   1.999   0.626   0.150
 2993SOL    HW2 9666   2.093   0.589   0.021
 2994SOL     OW 9667   2.087   0.275   0.996
 2994SOL    HW1 9668   2.122   0.258   1.088
 2994SOL    HW2 9669   1.999   0.230   0.984
 2995SOL     OW 9670   1.881   0.368   0.647
 2995SOL    HW1 9671   1.799   0.411   0.686
 2995SOL    HW2 9672   1.853   0.295   0.584
 2996SOL     OW 9673   2.431   1.275   1.165
 2996SOL    HW1 9674   2.338   1.268   1.128
 2996SOL    HW2 9675   2.442   1.364   1.209
 2997SOL     OW 9676   3.417   1.511   0.703
 2997SOL    HW1 9677   3.360   1.495   0.784
 2997SOL    HW2 9678   3.358   1.521   0.623
 2998SOL     OW 9679   2.997   0.703   0.717
 2998SOL    HW1 9680   3.054   0.781   0.692
 2998SOL    HW2 9681   2.937   0.729   0.793
 2999SOL     OW 9682   3.617   0.607   0.231
 2999SOL    HW1 9683   3.605   0.594   0.132
 2999SOL    HW2 9684   3.587   0.526   0.280
 3000SOL     OW 9685   2.630   1.144   1.023
 3000SOL    HW1 9686   2.552   1.161   1.083
 3000SOL    HW2 9687   2.664   1.231   0.987
 3001SOL     OW 9688   2.712   0.798   1.823
 3001SOL    HW1 9689   2.708   0.874   1.888
 3001SOL    HW2 9690   2.734   0.834   1.732
 3002SOL     OW 9691   2.547   1.012   0.665
 3002SOL    HW1 9692   2.616   0.996   0.735
 3002SOL    HW2 9693   2.474   1.069   0.703
 3003SOL     OW 9694   2.548   1.161   1.803
 3003SOL    HW1 9695   2.608   1.240   1.817
 3003SOL    HW2 9696   2.462   1.192   1.762
 3004SOL     OW 9697   2.197   1.435   1.061
 3004SOL    HW1 9698   2.119   1.404   1.008
 3004SOL    HW2 9699   2.255   1.493   1.004
 3005SOL     OW 9700   3.322   1.505   1.339
 3005SOL    HW1 9701   3.346   1.599   1.365
 3005SOL    HW2 9702   3.306   1.451   1.421
 3006SOL     OW 9703   2.300   0.392   1.499
 3006SOL    HW1 9704   2.382   0.336   1.508
 3006SOL    HW2 9705   2.219   0.334   1.503
 3007SOL     OW 9706   3.465   0.447   0.737
 3007SOL    HW1 9707   3.391   0.493   0.687
 3007SOL    HW2 9708   3.516   0.515   0.790
 3008SOL     OW 9709   2.093   1.713   0.483
 3008SOL    HW1 9710   2.127   1.790   0.537
 3008SOL    HW2 9711   2.137   1.713   0.393
 3009SOL     OW 9712   2.989   1.341   1.690
 3009SOL    HW1 9713   3.036   1.341   1.778
 3009SOL    HW2 9714   2.941   1.254   1.679
 3010SOL     OW 9715   2.092   1.434   0.538
 3010SOL    HW1 9716   2.066   1.530   0.538
 3010SOL    HW2 9717   2.021   1.380   0.583
 3011SOL     OW 9718   2.102   1.091   0.886
 3011SOL    HW1 9719   2.116   1.007   0.938
 3011SOL    HW2 9720   2.047   1.155   0.941
 3012SOL     OW 9721   2.482   1.786   1.439
 3012SOL    HW1 9722   2.390   1.769   1.474
 3012SOL    HW2 9723   2.510   1.878   1.465
 3013SOL     OW 9724   2.468   0.964   0.123
 3013SOL    HW1 9725   2.475   1.048   0.069
 3013SOL    HW2 9726   2.514   0.977   0.211
 3014SOL     OW 9727   3.456   0.114   1.480
 3014SOL    HW1 9728   3.438   0.181   1.408
 3014SOL    HW2 9729   3.453   0.160   1.569
 3015SOL     OW 9730   1.984   0.643   0.563
 3015SOL    HW1 9731   1.939   0.555   0.580
 3015SOL    HW2 9732   1.983   0.697   0.647
 3016SOL     OW 9733   3.704   1.767   0.359
 3016SOL    HW1 9734   3.758   1.738   0.439
 3016SOL    HW2 9735   3.734   1.857   0.330
 3017SOL     OW 9736   1.889   1.596   0.117
 3017SOL    HW1 9737   1.870   1.500   0.138
 3017SOL    HW2 9738   1.856   1.654   0.192
 3018SOL     OW 9739   3.551   0.922   0.612
 3018SOL    HW1 9740   3.646   0.893   0.620
 3018SOL    HW2 9741   3.543   0.987   0.537
 3019SOL     OW 9742   3.503   1.108   0.432
 3019SOL    HW1 9743   3.589   1.110   0.380
 3019SOL    HW2 9744   3.517   1.155   0.520
 3020SOL     OW 9745   1.975   0.737   1.597
 3020SOL    HW1 9746   2.063   0.724   1.642
 3020SOL    HW2 9747   1.962   0.834   1.575
 3021SOL     OW 9748   2.475   1.365   0.726
 3021SOL    HW1 9749   2.426   1.278   0.735
 3021SOL    HW2 9750   2.452   1.408   0.639
 3022SOL     OW 9751   3.155   1.228   1.423
 3022SOL    HW1 9752   3.192   1.155   1.365
 3022SOL    HW2 9753   3.207   1.233   1.508
 3023SOL     OW 9754   2.671   0.004   0.502
 3023SOL    HW1 9755   2.711   0.095   0.493
 3023SOL    HW2 9756   2.571   0.012   0.508
 3024SOL     OW 9757   2.059   0.976   1.264
 3024SOL    HW1 9758   2.148   0.931   1.250
 3024SOL    HW2 9759   1.986   0.911   1.245
 3025SOL     OW 9760   3.387   0.999   0.190
 3025SOL    HW1 9761   3.324   0.923   0.203
 3025SOL    HW2 9762   3.435   1.017   0.276
 3026SOL     OW 9763   3.049   1.792   1.616
 3026SOL    HW1 9764   3.073   1.852   1.540
 3026SOL    HW2 9765   3.056   1.697   1.586
 3027SOL     OW 9766   2.179   0.251   1.801
 3027SOL    HW1 9767   2.250   0.322   1.807
 3027SOL    HW2 9768   2.091   0.290   1.829
 3028SOL     OW 9769   3.328   1.417   0.953
 3028SOL    HW1 9770   3.269   1.423   1.033
 3028SOL    HW2 9771   3.313   1.329   0.907
 3029SOL     OW 9772   3.529   1.714   0.572
 3029SOL    HW1 9773   3.488   1.691   0.484
 3029SOL    HW2 9774   3.511   1.640   0.637
 3030SOL     OW 9775   2.460   0.729   0.270
 3030SOL    HW1 9776   2.484   0.798   0.202
 3030SOL    HW2 9777   2.382   0.762   0.324
 3031SOL     OW 9778   3.143   0.345   0.944
 3031SOL    HW1 9779   3.057   0.295   0.931
 3031SOL    HW2 9780   3.205   0.291   1.000
 3032SOL     OW 9781   3.438   1.662   0.307
 3032SOL    HW1 9782   3.527   1.708   0.310
 3032SOL    HW2 9783   3.417   1.638   0.212
 3033SOL     OW 9784   2.669   0.605   1.465
 3033SOL    HW1 9785   2.622   0.602   1.554
 3033SOL    HW2 9786   2.618   0.550   1.399
 3034SOL     OW 9787   3.256   0.469   1.674
 3034SOL    HW1 9788   3.236   0.512   1.762
 3034SOL    HW2 9789   3.334   0.407   1.683
 3035SOL     OW 9790   2.835   0.890   1.572
 3035SOL    HW1 9791   2.881   0.806   1.543
 3035SOL    HW2 9792   2.779   0.924   1.497
 3036SOL     OW 9793   2.853   0.410   1.242
 3036SOL    HW1 9794   2.776   0.444   1.296
 3036SOL    HW2 9795   2.819   0.359   1.163
 3037SOL     OW 9796   2.903   0.701   0.429
 3037SOL    HW1 9797   2.929   0.697   0.525
 3037SOL    HW2 9798   2.818   0.650   0.415
 3038SOL     OW 9799   1.938   0.811   0.789
 3038SOL    HW1 9800   2.037   0.799   0.798
 3038SOL    HW2 9801   1.914   0.906   0.810
 3039SOL     OW 9802   1.992   1.821   1.571
 3039SOL    HW1 9803   1.982   1.806   1.670
 3039SOL    HW2 9804   1.906   1.857   1.535
 3040SOL     OW 9805   2.727   0.348   0.195
 3040SOL    HW1 9806   2.786   0.411   0.146
 3040SOL    HW2 9807   2.746   0.254   0.166
 3041SOL     OW 9808   3.581   0.585   1.831
 3041SOL    HW1 9809   3.555   0.674   1.795
 3041SOL    HW2 9810   3.579   0.517   1.758
 3042SOL     OW 9811   3.224   1.144   0.545
 3042SOL    HW1 9812   3.307   1.115   0.497
 3042SOL    HW2 9813   3.175   1.211   0.489
 3043SOL     OW 9814   2.412   0.196   0.885
 3043SOL    HW1 9815   2.407   0.191   0.985
 3043SOL    HW2 9816   2.414   0.292   0.856
 3044SOL     OW 9817   2.870   1.456   0.477
 3044SOL    HW1 9818   2.824   1.528   0.425
 3044SOL    HW2 9819   2.866   1.476   0.575
 3045SOL     OW 9820   2.213   1.801   0.853
 3045SOL    HW1 9821   2.263   1.715   0.859
 3045SOL    HW2 9822   2.278   1.878   0.850
 3046SOL     OW 9823   3.657   1.066   0.873
 3046SOL    HW1 9824   3.595   1.051   0.797
 3046SOL    HW2 9825   3.605   1.077   0.958
 3047SOL     OW 9826   3.089   1.550   1.506
 3047SOL    HW1 9827   3.095   1.473   1.570
 3047SOL    HW2 9828   3.037   1.524   1.426
 3048SOL     OW 9829   2.183   0.943   0.242
 3048SOL    HW1 9830   2.265   0.982   0.200
 3048SOL    HW2 9831   2.156   0.861   0.193
 3049SOL     OW 9832   3.320   0.735   0.728
 3049SOL    HW1 9833   3.315   0.670   0.803
 3049SOL    HW2 9834   3.400   0.794   0.741
 3050SOL     OW 9835   2.323   1.266   1.727
 3050SOL    HW1 9836   2.273   1.267   1.641
 3050SOL    HW2 9837   2.260   1.248   1.803
 3051SOL     OW 9838   2.973   1.776   0.237
 3051SOL    HW1 9839   2.913   1.714   0.287
 3051SOL    HW2 9840   3.004   1.732   0.152
 3052SOL     OW 9841   2.064   0.285   1.498
 3052SOL    HW1 9842   1.984   0.345   1.485
 3052SOL    HW2 9843   2.054   0.236   1.584
 3053SOL     OW 9844   3.494   1.377   0.081
 3053SOL    HW1 9845   3.462   1.471   0.071
 3053SOL    HW2 9846   3.418   1.314   0.069
 3054SOL     OW 9847   2.326   1.743   0.323
 3054SOL    HW1 9848   2.359   1.782   0.409
 3054SOL    HW2 9849   2.402   1.736   0.258
 3055SOL     OW 9850   3.262   0.107   0.426
 3055SOL    HW1 9851   3.238   0.070   0.336
 3055SOL    HW2 9852   3.361   0.123   0.430
 3056SOL     OW 9853   2.111   1.785   1.241
 3056SOL    HW1 9854   2.168   1.720   1.291
 3056SOL    HW2 9855   2.095   1.752   1.148
 3057SOL     OW 9856   2.802   1.698   0.904
 3057SOL    HW1 9857   2.882   1.641   0.925
 3057SOL    HW2 9858   2.753   1.658   0.827
 3058SOL     OW 9859   2.244   0.700   0.480
 3058SOL    HW1 9860   2.289   0.610   0.477
 3058SOL    HW2 9861   2.150   0.689   0.513
 3059SOL     OW 9862   3.409   0.222   1.729
 3059SOL    HW1 9863   3.404   0.259   1.821
 3059SOL    HW2 9864   3.337   0.153   1.717
 3060SOL     OW 9865   2.476   0.122   0.117
 3060SOL    HW1 9866   2.574   0.100   0.124
 3060SOL    HW2 9867   2.445   0.105   0.024
 3061SOL     OW 9868   2.643   0.264   1.749
 3061SOL    HW1 9869   2.710   0.203   1.792
 3061SOL    HW2 9870   2.570   0.283   1.814
 3062SOL     OW 9871   2.750   1.514   1.195
 3062SOL    HW1 9872   2.727   1.489   1.101
 3062SOL    HW2 9873   2.811   1.445   1.234
 3063SOL     OW 9874   3.213   0.590   1.433
 3063SOL    HW1 9875   3.241   0.547   1.518
 3063SOL    HW2 9876   3.238   0.686   1.434
 3064SOL     OW 9877   2.665   1.402   0.924
 3064SOL    HW1 9878   2.755   1.416   0.882
 3064SOL    HW2 9879   2.594   1.404   0.853
 3065SOL     OW 9880   2.784   0.503   0.899
 3065SOL    HW1 9881   2.759   0.494   0.803
 3065SOL    HW2 9882   2.832   0.421   0.930
 3066SOL     OW 9883   2.401   0.064   0.512
 3066SOL    HW1 9884   2.320   0.065   0.570
 3066SOL    HW2 9885   2.404   0.147   0.457
 3067SOL     OW 9886   3.296   1.188   0.041
 3067SOL    HW1 9887   3.328   1.112   0.098
 3067SOL    HW2 9888   3.204   1.215   0.071
 3068SOL     OW 9889   2.159   0.035   0.171
 3068SOL    HW1 9890   2.208   0.119   0.150
 3068SOL    HW2 9891   2.221  -0.030   0.216
 3069SOL     OW 9892   2.797   0.236   0.480
 3069SOL    HW1 9893   2.749   0.277   0.402
 3069SOL    HW2 9894   2.896   0.234   0.461
 3070SOL     OW 9895   2.938   0.683   1.464
 3070SOL    HW1 9896   2.858   0.622   1.467
 3070SOL    HW2 9897   3.019   0.630   1.440
 3071SOL     OW 9898   3.089   1.570   0.793
 3071SOL    HW1 9899   3.110   1.644   0.728
 3071SOL    HW2 9900   3.157   1.570   0.866
 3072SOL     OW 9901   2.321   1.152   0.741
 3072SOL    HW1 9902   2.250   1.125   0.806
 3072SOL    HW2 9903   2.295   1.124   0.648
 3073SOL     OW 9904   3.133   1.797   0.591
 3073SOL    HW1 9905   3.177   1.861   0.527
 3073SOL    HW2 9906   3.083   1.849   0.661
 3074SOL     OW 9907   2.894   0.549   0.016
 3074SOL    HW1 9908   2.853   0.631  -0.023
 3074SOL    HW2 9909   2.958   0.575   0.089
 3075SOL     OW 9910   1.940   0.556   1.386
 3075SOL    HW1 9911   2.032   0.555   1.345
 3075SOL    HW2 9912   1.934   0.630   1.453
 3076SOL     OW 9913   2.423   0.222   1.147
 3076SOL    HW1 9914   2.461   0.138   1.184
 3076SOL    HW2 9915   2.335   0.241   1.191
 3077SOL     OW 9916   2.728   0.454   0.642
 3077SOL    HW1 9917   2.696   0.526   0.580
 3077SOL    HW2 9918   2.752   0.373   0.589
 3078SOL     OW 9919   2.879   0.039   0.753
 3078SOL    HW1 9920   2.807   0.044   0.684
 3078SOL    HW2 9921   2.855  -0.030   0.822
 3079SOL     OW 9922   3.291   1.173   0.867
 3079SOL    HW1 9923   3.236   1.089   0.860
 3079SOL    HW2 9924   3.317   1.202   0.775
 3080SOL     OW 9925   3.328   0.590   0.992
 3080SOL    HW1 9926   3.298   0.495   0.999
 3080SOL    HW2 9927   3.401   0.606   1.058
 3081SOL     OW 9928   3.719   0.833   0.377
 3081SOL    HW1 9929   3.761   0.769   0.441
 3081SOL    HW2 9930   3.681   0.782   0.299
 3082SOL     OW 9931   2.350   1.385   0.174
 3082SOL    HW1 9932   2.263   1.370   0.221
 3082SOL    HW2 9933   2.333   1.411   0.079
 3083SOL     OW 9934   3.526   1.280   0.657
 3083SOL    HW1 9935   3.625   1.288   0.671
 3083SOL    HW2 9936   3.481   1.364   0.688
 3084SOL     OW 9937   3.252   0.575   0.078
 3084SOL    HW1 9938   3.198   0.554   0.159
 3084SOL    HW2 9939   3.343   0.534   0.087
 3085SOL     OW 9940   2.389   0.256   0.328
 3085SOL    HW1 9941   2.416   0.197   0.253
 3085SOL    HW2 9942   2.389   0.351   0.297
 3086SOL     OW 9943   3.616   1.223   1.588
 3086SOL    HW1 9944   3.707   1.184   1.575
 3086SOL    HW2 9945   3.624   1.319   1.612
 3087SOL     OW 9946   2.926   1.347   1.340
 3087SOL    HW1 9947   2.846   1.324   1.395
 3087SOL    HW2 9948   3.009   1.321   1.389
 3088SOL     OW 9949   3.454   1.629   1.625
 3088SOL    HW1 9950   3.481   1.663   1.535
 3088SOL    HW2 9951   3.533   1.591   1.671
 3089SOL     OW 9952   2.973   1.195   1.100
 3089SOL    HW1 9953   2.933   1.239   1.181
 3089SOL    HW2 9954   2.932   1.232   1.017
 3090SOL     OW 9955   3.500   1.099   1.079
 3090SOL    HW1 9956   3.505   1.180   1.138
 3090SOL    HW2 9957   3.414   1.101   1.028
 3091SOL     OW 9958   2.777   0.089   1.402
 3091SOL    HW1 9959   2.802   0.069   1.307
 3091SOL    HW2 9960   2.849   0.145   1.444
 3092SOL     OW 9961   2.842   1.116   1.719
 3092SOL    HW1 9962   2.743   1.122   1.729
 3092SOL    HW2 9963   2.865   1.036   1.663
 3093SOL     OW 9964   2.567   1.050   0.368
 3093SOL    HW1 9965   2.553   1.057   0.467
 3093SOL    HW2 9966   2.651   0.999   0.350
 3094SOL     OW 9967   2.272   0.813   1.251
 3094SOL    HW1 9968   2.358   0.825   1.301
 3094SOL    HW2 9969   2.230   0.726   1.278
 3095SOL     OW 9970   3.136   0.386   1.262
 3095SOL    HW1 9971   3.157   0.460   1.326
 3095SOL    HW2 9972   3.047   0.403   1.219
 3096SOL     OW 9973   1.926   1.564   1.331
 3096SOL    HW1 9974   1.880   1.646   1.297
 3096SOL    HW2 9975   2.024   1.583   1.340
 3097SOL     OW 9976   2.229   1.100   0.501
 3097SOL    HW1 9977   2.222   1.183   0.445
 3097SOL    HW2 9978   2.233   1.020   0.441
 3098SOL     OW 9979   2.428   0.537   0.865
 3098SOL    HW1 9980   2.440   0.603   0.791
 3098SOL    HW2 9981   2.474   0.571   0.948
 3099SOL     OW 9982   3.114   1.348   0.388
 3099SOL    HW1 9983   3.164   1.425   0.428
 3099SOL    HW2 9984   3.019   1.350   0.420
 3100SOL     OW 9985   3.134   1.445   1.142
 3100SOL    HW1 9986   3.181   1.458   1.229
 3100SOL    HW2 9987   3.068   1.371   1.151
 3101SOL     OW 9988   3.444   0.639   0.472
 3101SOL    HW1 9989   3.413   0.700   0.545
 3101SOL    HW2 9990   3.494   0.691   0.403
 3102SOL     OW 9991   2.216   1.510   1.329
 3102SOL    HW1 9992   2.195   1.466   1.242
 3102SOL    HW2 9993   2.313   1.536   1.332
 3103SOL     OW 9994   2.264   0.751   1.598
 3103SOL    HW1 9995   2.332   0.806   1.551
 3103SOL    HW2 9996   2.304   0.663   1.625
 3104SOL     OW 9997   3.449   0.779   1.670
 3104SOL    HW1 9998   3.357   0.817   1.665
 3104SOL    HW2 9999   3.509   0.826   1.605
 3105SOL     OW10000   2.875   0.105   1.770
 3105SOL    HW110001   2.881   0.190   1.718
 3105SOL    HW210002   2.907   0.029   1.713
 3106SOL     OW10003   2.366   0.050   1.740
 3106SOL    HW110004   2.324  -0.007   1.670
 3106SOL    HW210005   2.300   0.119   1.772
 3107SOL     OW10006   2.435   0.870   1.029
 3107SOL    HW110007   2.479   0.959   1.020
 3107SOL    HW210008   2.372   0.870   1.106
 3108SOL     OW10009   3.222   0.862   1.045
 3108SOL    HW110010   3.147   0.862   0.979
 3108SOL    HW210011   3.259   0.770   1.054
 3109SOL     OW10012   3.071   0.525   0.275
 3109SOL    HW110013   3.084   0.441   0.329
 3109SOL    HW210014   3.042   0.599   0.335
 3110SOL     OW10015   2.169   0.213   1.231
 3110SOL    HW110016   2.146   0.250   1.321
 3110SOL    HW210017   2.139   0.118   1.225
 3111SOL     OW10018   1.899   1.310   1.282
 3111SOL    HW110019   1.952   1.261   1.350
 3111SOL    HW210020   1.921   1.408   1.287
 3112SOL     OW10021   2.594   0.634   1.064
 3112SOL    HW110022   2.653   0.608   0.988
 3112SOL    HW210023   2.566   0.730   1.053
 3113SOL     OW10024   3.590   0.935   1.854
 3113SOL    HW110025   3.544   0.928   1.765
 3113SOL    HW210026   3.528   0.979   1.920
 3114SOL     OW10027   2.169   0.063   0.618
 3114SOL    HW110028   2.158   0.157   0.651
 3114SOL    HW210029   2.164   0.000   0.695
 3115SOL     OW10030   3.484   0.367   0.374
 3115SOL    HW110031   3.486   0.291   0.438
 3115SOL    HW210032   3.436   0.444   0.414
 3116SOL     OW10033   2.885   0.766   0.966
 3116SOL    HW110034   2.900   0.787   1.062
 3116SOL    HW210035   2.855   0.671   0.957
 3117SOL     OW10036   2.842   1.573   1.700
 3117SOL    HW110037   2.822   1.617   1.612
 3117SOL    HW210038   2.881   1.482   1.684
 3118SOL     OW10039   3.721   1.518   1.605
 3118SOL    HW110040   3.735   1.545   1.510
 3118SOL    HW210041   3.804   1.540   1.658
 3119SOL     OW10042   2.212   0.898   1.804
 3119SOL    HW110043   2.288   0.942   1.852
 3119SOL    HW210044   2.247   0.851   1.722
 3120SOL     OW10045   3.402   0.274   0.125
 3120SOL    HW110046   3.341   0.199   0.148
 3120SOL    HW210047   3.424   0.326   0.208
 3121SOL     OW10048   3.165   0.838   0.042
 3121SOL    HW110049   3.199   0.745   0.057
 3121SOL    HW210050   3.183   0.865  -0.053
 3122SOL     OW10051   2.930   1.333   0.849
 3122SOL    HW110052   2.937   1.249   0.794
 3122SOL    HW210053   2.992   1.402   0.813
 3123SOL     OW10054   2.181   0.810   0.949
 3123SOL    HW110055   2.274   0.846   0.954
 3123SOL    HW210056   2.175   0.725   1.001
 3124SOL     OW10057   2.201   0.509   1.006
 3124SOL    HW110058   2.149   0.426   0.989
 3124SOL    HW210059   2.278   0.514   0.942
 3125SOL     OW10060   3.000   0.380   1.678
 3125SOL    HW110061   2.955   0.443   1.742
 3125SOL    HW210062   3.093   0.411   1.661
 3126SOL     OW10063   3.022   0.207   1.477
 3126SOL    HW110064   3.022   0.271   1.554
 3126SOL    HW210065   3.050   0.255   1.394
 3127SOL     OW10066   1.870   1.326   0.200
 3127SOL    HW110067   1.777   1.347   0.169
 3127SOL    HW210068   1.880   1.227   0.213
 3128SOL     OW10069   1.950   1.801   0.927
 3128SOL    HW110070   1.908   1.715   0.900
 3128SOL    HW210071   2.044   1.804   0.893
 3129SOL     OW10072   2.366   1.568   0.910
 3129SOL    HW110073   2.432   1.642   0.919
 3129SOL    HW210074   2.410   1.489   0.868
 3130SOL     OW10075   2.864   0.796   1.238
 3130SOL    HW110076   2.905   0.764   1.324
 3130SOL    HW210077   2.768   0.769   1.235
 3131SOL     OW10078   1.902   0.544   1.114
 3131SOL    HW110079   1.987   0.511   1.073
 3131SOL    HW210080   1.915   0.559   1.212
 3132SOL     OW10081   2.051   0.520   1.722
 3132SOL    HW110082   2.110   0.480   1.652
 3132SOL    HW210083   1.993   0.591   1.681
 3133SOL     OW10084   3.231   0.950   1.660
 3133SOL    HW110085   3.270   1.039   1.680
 3133SOL    HW210086   3.241   0.930   1.563
 3134SOL     OW10087   2.677   0.572   0.325
 3134SOL    HW110088   2.684   0.483   0.279
 3134SOL    HW210089   2.583   0.606   0.317
 3135SOL     OW10090   3.519   0.604   1.206
 3135SOL    HW110091   3.481   0.535   1.268
 3135SOL    HW210092   3.601   0.568   1.162
 3136SOL     OW10093   2.114   1.564   1.744
 3136SOL    HW110094   2.084   1.621   1.820
 3136SOL    HW210095   2.107   1.467   1.770
 3137SOL     OW10096   2.533   0.464   1.269
 3137SOL    HW110097   2.499   0.375   1.239
 3137SOL    HW210098   2.559   0.518   1.189
 3138SOL     OW10099   2.792   1.678   1.465
 3138SOL    HW110100   2.768   1.660   1.370
 3138SOL    HW210101   2.822   1.772   1.475
 3139SOL     OW10102   2.335   0.500   0.191
 3139SOL    HW110103   2.396   0.580   0.195
 3139SOL    HW210104   2.240   0.531   0.198
 3140SOL     OW10105   2.021   1.137   1.466
 3140SOL    HW110106   2.043   1.076   1.542
 3140SOL    HW210107   2.031   1.088   1.380
 3141SOL     OW10108   3.209   1.059   1.234
 3141SOL    HW110109   3.233   0.996   1.160
 3141SOL    HW210110   3.119   1.099   1.216
 3142SOL     OW10111   3.164   0.855   0.309
 3142SOL    HW110112   3.078   0.824   0.351
 3142SOL    HW210113   3.160   0.841   0.210
 3143SOL     OW10114   3.621   1.747   1.154
 3143SOL    HW110115   3.682   1.777   1.081
 3143SOL    HW210116   3.583   1.658   1.132
 3144SOL     OW10117   3.114   1.731   1.128
 3144SOL    HW110118   3.198   1.736   1.074
 3144SOL    HW210119   3.091   1.635   1.146
 3145SOL     OW10120   1.945   1.258   1.022
 3145SOL    HW110121   1.940   1.257   1.122
 3145SOL    HW210122   1.862   1.217   0.984
 3146SOL     OW10123   2.550   1.662   1.716
 3146SOL    HW110124   2.494   1.743   1.725
 3146SOL    HW210125   2.602   1.666   1.630
 3147SOL     OW10126   2.765   0.086   0.133
 3147SOL    HW110127   2.816   0.087   0.047
 3147SOL    HW210128   2.821   0.044   0.204
 3148SOL     OW10129   3.588   0.135   0.523
 3148SOL    HW110130   3.661   0.118   0.456
 3148SOL    HW210131   3.557   0.048   0.561
 3149SOL     OW10132   3.250   1.573   0.477
 3149SOL    HW110133   3.317   1.585   0.403
 3149SOL    HW210134   3.210   1.662   0.500
 3150SOL     OW10135   1.992   1.794   1.851
 3150SOL    HW110136   1.951   1.720   1.904
 3150SOL    HW210137   2.056   1.845   1.909
 3151SOL     OW10138   3.142   0.927   0.672
 3151SOL    HW110139   3.202   0.846   0.674
 3151SOL    HW210140   3.182   0.996   0.612
 3152SOL     OW10141   2.692   1.273   1.422
 3152SOL    HW110142   2.687   1.306   1.517
 3152SOL    HW210143   2.606   1.292   1.376
 3153SOL     OW10144   2.534   1.616   0.154
 3153SOL    HW110145   2.543   1.626   0.055
 3153SOL    HW210146   2.494   1.527   0.175
 3154SOL     OW10147   3.512   1.720   1.394
 3154SOL    HW110148   3.565   1.730   1.310
 3154SOL    HW210149   3.485   1.810   1.428
 3155SOL     OW10150   3.703   0.175   0.963
 3155SOL    HW110151   3.742   0.090   0.927
 3155SOL    HW210152   3.605   0.177   0.944
 3156SOL     OW10153   2.125   0.326   0.720
 3156SOL    HW110154   2.046   0.377   0.686
 3156SOL    HW210155   2.116   0.311   0.818
 3157SOL     OW10156   3.056   1.612   0.031
 3157SOL    HW110157   3.062   1.519   0.068
 3157SOL    HW210158   2.997   1.612  -0.049
 3158SOL     OW10159   2.684   1.002   1.372
 3158SOL    HW110160   2.724   1.001   1.280
 3158SOL    HW210161   2.694   1.094   1.412
 3159SOL     OW10162   2.778   0.910   0.291
 3159SOL    HW110163   2.841   0.948   0.223
 3159SOL    HW210164   2.818   0.827   0.330
 3160SOL     OW10165   3.366   1.607   0.044
 3160SOL    HW110166   3.274   1.644   0.051
 3160SOL    HW210167   3.404   1.627  -0.046
 3161SOL     OW10168   2.234   1.288   1.490
 3161SOL    HW110169   2.221   1.381   1.456
 3161SOL    HW210170   2.150   1.236   1.477
 3162SOL     OW10171   3.476   1.292   1.289
 3162SOL    HW110172   3.536   1.295   1.369
 3162SOL    HW210173   3.401   1.356   1.302
 3163SOL     OW10174   2.901   1.098   0.696
 3163SOL    HW110175   2.831   1.051   0.750
 3163SOL    HW210176   2.960   1.030   0.653
 3164SOL     OW10177   2.876   0.236   0.971
 3164SOL    HW110178   2.868   0.200   0.878
 3164SOL    HW210179   2.874   0.160   1.036
 3165SOL     OW10180   2.452   1.487   0.491
 3165SOL    HW110181   2.494   1.429   0.421
 3165SOL    HW210182   2.408   1.566   0.447
 3166SOL     OW10183   3.571   0.385   1.381
 3166SOL    HW110184   3.644   0.454   1.385
 3166SOL    HW210185   3.599   0.310   1.322
 3167SOL     OW10186   2.117   1.348   0.290
 3167SOL    HW110187   2.021   1.349   0.263
 3167SOL    HW210188   2.129   1.401   0.374
 3168SOL     OW10189   1.967   1.013   1.726
 3168SOL    HW110190   1.890   0.980   1.780
 3168SOL    HW210191   2.052   0.983   1.768
 3169SOL     OW10192   2.534   0.203   1.489
 3169SOL    HW110193   2.624   0.187   1.449
 3169SOL    HW210194   2.542   0.208   1.588
 3170SOL     OW10195   1.937   0.345   0.033
 3170SOL    HW110196   1.845   0.317   0.004
 3170SOL    HW210197   1.968   0.422  -0.023
 3171SOL     OW10198   3.302   0.856   1.398
 3171SOL    HW110199   3.245   0.908   1.335
 3171SOL    HW210200   3.398   0.868   1.374
 3172SOL     OW10201   1.934   0.166   0.318
 3172SOL    HW110202   1.917   0.249   0.264
 3172SOL    HW210203   2.024   0.129   0.296
 3173SOL     OW10204   3.045   1.335   0.119
 3173SOL    HW110205   2.946   1.324   0.121
 3173SOL    HW210206   3.079   1.350   0.212
 3174SOL     OW10207   2.475   0.842   1.431
 3174SOL    HW110208   2.531   0.923   1.414
 3174SOL    HW210209   2.534   0.762   1.434
 3175SOL     OW10210   3.355   1.767   0.959
 3175SOL    HW110211   3.388   1.831   0.890
 3175SOL    HW210212   3.421   1.761   1.034
 3176SOL     OW10213   2.578   0.565   1.708
 3176SOL    HW110214   2.597   0.630   1.782
 3176SOL    HW210215   2.638   0.485   1.717
 3177SOL     OW10216   3.312   1.220   1.633
 3177SOL    HW110217   3.303   1.210   1.732
 3177SOL    HW210218   3.408   1.213   1.607
 3178SOL     OW10219   2.252   1.741   1.560
 3178SOL    HW110220   2.161   1.782   1.558
 3178SOL    HW210221   2.245   1.647   1.592
 3179SOL     OW10222   3.536   0.883   1.254
 3179SOL    HW110223   3.509   0.794   1.217
 3179SOL    HW210224   3.537   0.951   1.181
 3180SOL     OW10225   3.087   0.325   0.449
 3180SOL    HW110226   3.152   0.251   0.438
 3180SOL    HW210227   3.107   0.375   0.533
 3181SOL     OW10228   2.456   0.745   0.652
 3181SOL    HW110229   2.506   0.830   0.633
 3181SOL    HW210230   2.368   0.747   0.604
 3182SOL     OW10231   3.639   0.342   1.642
 3182SOL    HW110232   3.622   0.373   1.548
 3182SOL    HW210233   3.555   0.305   1.680
 3183SOL     OW10234   3.592   0.934   1.517
 3183SOL    HW110235   3.630   1.025   1.532
 3183SOL    HW210236   3.584   0.917   1.418
 3184SOL     OW10237   2.721   1.374   0.016
 3184SOL    HW110238   2.675   1.389   0.104
 3184SOL    HW210239   2.765   1.459  -0.014
 3185SOL     OW10240   2.523   1.790   0.953
 3185SOL    HW110241   2.477   1.878   0.940
 3185SOL    HW210242   2.622   1.802   0.946
 3186SOL     OW10243   2.721   0.956   0.861
 3186SOL    HW110244   2.775   0.887   0.909
 3186SOL    HW210245   2.689   1.025   0.927
 3187SOL     OW10246   2.945   0.984   0.087
 3187SOL    HW110247   2.922   1.037   0.005
 3187SOL    HW210248   3.026   0.928   0.068
 3188SOL     OW10249   3.723   1.569   0.851
 3188SOL    HW110250   3.652   1.557   0.781
 3188SOL    HW210251   3.724   1.490   0.911
 3189SOL     OW10252   2.083   1.314   1.844
 3189SOL    HW110253   2.018   1.241   1.823
 3189SOL    HW210254   2.087   1.328   1.942
 3190SOL     OW10255   1.941   1.240   0.653
 3190SOL    HW110256   1.940   1.193   0.741
 3190SOL    HW210257   2.023   1.212   0.602
 3191SOL     OW10258   2.534   1.391   1.624
 3191SOL    HW110259   2.456   1.341   1.662
 3191SOL    HW210260   2.531   1.486   1.655
 3192SOL     OW10261   3.686   0.192   1.227
 3192SOL    HW110262   3.682   0.102   1.271
 3192SOL    HW210263   3.689   0.181   1.128
 3193SOL     OW10264   2.290   0.424   0.520
 3193SOL    HW110265   2.320   0.352   0.458
 3193SOL    HW210266   2.251   0.384   0.603
 3194SOL     OW10267   3.567   1.487   1.104
 3194SOL    HW110268   3.474   1.462   1.077
 3194SOL    HW210269   3.593   1.437   1.186
 3195SOL     OW10270   2.179   0.547   1.280
 3195SOL    HW110271   2.217   0.488   1.352
 3195SOL    HW210272   2.219   0.521   1.192
 3196SOL     OW10273   2.674   1.586   0.687
 3196SOL    HW110274   2.706   1.596   0.593
 3196SOL    HW210275   2.595   1.524   0.689
 3197SOL     OW10276   3.286   0.214   1.112
 3197SOL    HW110277   3.338   0.149   1.167
 3197SOL    HW210278   3.237   0.277   1.173
 3198SOL     OW10279   2.863   0.034   1.154
 3198SOL    HW110280   2.800  -0.038   1.123
 3198SOL    HW210281   2.956  -0.002   1.154
 3199SOL     OW10282   2.632   1.330   0.301
 3199SOL    HW110283   2.586   1.243   0.318
 3199SOL    HW210284   2.723   1.327   0.342
 3200SOL     OW10285   2.480   1.567   1.284
 3200SOL    HW110286   2.475   1.649   1.341
 3200SOL    HW210287   2.569   1.564   1.239
 3201SOL     OW10288   3.214   0.052   0.168
 3201SOL    HW110289   3.249   0.011   0.084
 3201SOL    HW210290   3.124   0.014   0.188
 3202SOL     OW10291   3.162   0.453   0.691
 3202SOL    HW110292   3.103   0.533   0.695
 3202SOL    HW210293   3.177   0.418   0.784
 3203SOL     OW10294   3.455   0.221   0.882
 3203SOL    HW110295   3.371   0.220   0.936
 3203SOL    HW210296   3.457   0.304   0.826
 3204SOL     OW10297   1.901   1.077   0.300
 3204SOL    HW110298   2.000   1.066   0.291
 3204SOL    HW210299   1.861   0.991   0.332
 3205SOL     OW10300   2.737   1.646   0.337
 3205SOL    HW110301   2.660   1.611   0.283
 3205SOL    HW210302   2.705   1.717   0.399
 3206SOL     OW10303   2.092   0.628   1.975
 3206SOL    HW110304   1.999   0.626   2.012
 3206SOL    HW210305   2.093   0.589   1.883
 3207SOL     OW10306   2.087   0.275   2.858
 3207SOL    HW110307   2.122   0.258   2.950
 3207SOL    HW210308   1.999   0.230   2.846
 3208SOL     OW10309   1.881   0.368   2.509
 3208SOL    HW110310   1.799   0.411   2.548
 3208SOL    HW210311   1.853   0.295   2.446
 3209SOL     OW10312   2.431   1.275   3.027
 3209SOL    HW110313   2.338   1.268   2.990
 3209SOL    HW210314   2.442   1.364   3.071
 3210SOL     OW10315   3.417   1.511   2.565
 3210SOL    HW110316   3.360   1.495   2.646
 3210SOL    HW210317   3.358   1.521   2.485
 3211SOL     OW10318   2.997   0.703   2.579
 3211SOL    HW110319   3.054   0.781   2.554
 3211SOL    HW210320   2.937   0.729   2.655
 3212SOL     OW10321   3.617   0.607   2.093
 3212SOL    HW110322   3.605   0.594   1.994
 3212SOL    HW210323   3.587   0.526   2.142
 3213SOL     OW10324   2.630   1.144   2.885
 3213SOL    HW110325   2.552   1.161   2.945
 3213SOL    HW210326   2.664   1.231   2.849
 3214SOL     OW10327   2.712   0.798   3.685
 3214SOL    HW110328   2.708   0.874   3.750
 3214SOL    HW210329   2.734   0.834   3.594
 3215SOL     OW10330   2.547   1.012   2.527
 3215SOL    HW110331   2.616   0.996   2.597
 3215SOL    HW210332   2.474   1.069   2.565
 3216SOL     OW10333   2.548   1.161   3.665
 3216SOL    HW110334   2.608   1.240   3.679
 3216SOL    HW210335   2.462   1.192   3.624
 3217SOL     OW10336   2.197   1.435   2.923
 3217SOL    HW110337   2.119   1.404   2.870
 3217SOL    HW210338   2.255   1.493   2.866
 3218SOL     OW10339   3.322   1.505   3.201
 3218SOL    HW110340   3.346   1.599   3.227
 3218SOL    HW210341   3.306   1.451   3.283
 3219SOL     OW10342   2.300   0.392   3.361
 3219SOL    HW110343   2.382   0.336   3.370
 3219SOL    HW210344   2.219   0.334   3.365
 3220SOL     OW10345   3.465   0.447   2.599
 3220SOL    HW110346   3.391   0.493   2.549
 3220SOL    HW210347   3.516   0.515   2.652
 3221SOL     OW10348   2.093   1.713   2.345
 3221SOL    HW110349   2.127   1.790   2.399
 3221SOL    HW210350   2.137   1.713   2.255
 3222SOL     OW10351   2.989   1.341   3.552
 3222SOL    HW110352   3.036   1.341   3.640
 3222SOL    HW210353   2.941   1.254   3.541
 3223SOL     OW10354   2.092   1.434   2.400
 3223SOL    HW110355   2.066   1.530   2.400
 3223SOL    HW210356   2.021   1.380   2.445
 3224SOL     OW10357   2.102   1.091   2.748
 3224SOL    HW110358   2.116   1.007   2.800
 3224SOL    HW210359   2.047   1.155   2.803
 3225SOL     OW10360   2.482   1.786   3.301
 3225SOL    HW110361   2.390   1.769   3.336
 3225SOL    HW210362   2.510   1.878   3.327
 3226SOL     OW10363   2.468   0.964   1.985
 3226SOL    HW110364   2.475   1.048   1.931
 3226SOL    HW210365   2.514   0.977   2.073
 3227SOL     OW10366   3.456   0.114   3.342
 3227SOL    HW110367   3.438   0.181   3.270
 3227SOL    HW210368   3.453   0.160   3.431
 3228SOL     OW10369   1.984   0.643   2.425
 3228SOL    HW110370   1.939   0.555   2.442
 3228SOL    HW210371   1.983   0.697   2.509
 3229SOL     OW10372   3.704   1.767   2.221
 3229SOL    HW110373   3.758   1.738   2.301
 3229SOL    HW210374   3.734   1.857   2.192
 3230SOL     OW10375   1.889   1.596   1.979
 3230SOL    HW110376   1.870   1.500   2.000
 3230SOL    HW210377   1.856   1.654   2.054
 3231SOL     OW10378   3.551   0.922   2.474
 3231SOL    HW110379   3.646   0.893   2.482
 3231SOL    HW210380   3.543   0.987   2.399
 3232SOL     OW10381   3.503   1.108   2.294
 3232SOL    HW110382   3.589   1.110   2.242
 3232SOL    HW210383   3.517   1.155   2.382
 3233SOL     OW10384   1.975   0.737   3.459
 3233SOL    HW110385   2.063   0.724   3.504
 3233SOL    HW210386   1.962   0.834   3.437
 3234SOL     OW10387   2.475   1.365   2.588
 3234SOL    HW110388   2.426   1.278   2.597
 3234SOL    HW210389   2.452   1.408   2.501
 3235SOL     OW10390   3.155   1.228   3.285
 3235SOL    HW110391   3.192   1.155   3.227
 3235SOL    HW210392   3.207   1.233   3.370
 3236SOL     OW10393   2.671   0.004   2.364
 3236SOL    HW110394   2.711   0.095   2.355
 3236SOL    HW210395   2.571   0.012   2.370
 3237SOL     OW10396   2.059   0.976   3.126
 3237SOL    HW110397   2.148   0.931   3.112
 3237SOL    HW210398   1.986   0.911   3.107
 3238SOL     OW10399   3.387   0.999   2.052
 3238SOL    HW110400   3.324   0.923   2.065
 3238SOL    HW210401   3.435   1.017   2.138
 3239SOL     OW10402   3.049   1.792   3.478
 3239SOL    HW110403   3.073   1.852   3.402
 3239SOL    HW210404   3.056   1.697   3.448
 3240SOL     OW10405   2.179   0.251   3.663
 3240SOL    HW110406   2.250   0.322   3.669
 3240SOL    HW210407   2.091   0.290   3.691
 3241SOL     OW10408   3.328   1.417   2.815
 3241SOL    HW110409   3.269   1.423   2.895
 3241SOL    HW210410   3.313   1.329   2.769
 3242SOL     OW10411   3.529   1.714   2.434
 3242SOL    HW110412   3.488   1.691   2.346
 3242SOL    HW210413   3.511   1.640   2.499
 3243SOL     OW10414   2.460   0.729   2.132
 3243SOL    HW110415   2.484   0.798   2.064
 3243SOL    HW210416   2.382   0.762   2.186
 3244SOL     OW10417   3.143   0.345   2.806
 3244SOL    HW110418   3.057   0.295   2.793
 3244SOL    HW210419   3.205   0.291   2.862
 3245SOL     OW10420   3.438   1.662   2.169
 3245SOL    HW110421   3.527   1.708   2.172
 3245SOL    HW210422   3.417   1.638   2.074
 3246SOL     OW10423   2.669   0.605   3.327
 3246SOL    HW110424   2.622   0.602   3.416
 3246SOL    HW210425   2.618   0.550   3.261
 3247SOL     OW10426   3.256   0.469   3.536
 3247SOL    HW110427   3.236   0.512   3.624
 3247SOL    HW210428   3.334   0.407   3.545
 3248SOL     OW10429   2.835   0.890   3.434
 3248SOL    HW110430   2.881   0.806   3.405
 3248SOL    HW210431   2.779   0.924   3.359
 3249SOL     OW10432   2.853   0.410   3.104
 3249SOL    HW110433   2.776   0.444   3.158
 3249SOL    HW210434   2.819   0.359   3.025
 3250SOL     OW10435   2.903   0.701   2.291
 3250SOL    HW110436   2.929   0.697   2.387
 3250SOL    HW210437   2.818   0.650   2.277
 3251SOL     OW10438   1.938   0.811   2.651
 3251SOL    HW110439   2.037   0.799   2.660
 3251SOL    HW210440   1.914   0.906   2.672
 3252SOL     OW10441   1.992   1.821   3.433
 3252SOL    HW110442   1.982   1.806   3.532
 3252SOL    HW210443   1.906   1.857   3.397
 3253SOL     OW10444   2.727   0.348   2.057
 3253SOL    HW110445   2.786   0.411   2.008
 3253SOL    HW210446   2.746   0.254   2.028
 3254SOL     OW10447   3.581   0.585   3.693
 3254SOL    HW110448   3.555   0.674   3.657
 3254SOL    HW210449   3.579   0.517   3.620
 3255SOL     OW10450   3.224   1.144   2.407
 3255SOL    HW110451   3.307   1.115   2.359
 3255SOL    HW210452   3.175   1.211   2.351
 3256SOL     OW10453   2.412   0.196   2.747
 3256SOL    HW110454   2.407   0.191   2.847
 3256SOL    HW210455   2.414   0.292   2.718
 3257SOL     OW10456   2.870   1.456   2.339
 3257SOL    HW110457   2.824   1.528   2.287
 3257SOL    HW210458   2.866   1.476   2.437
 3258SOL     OW10459   2.213   1.801   2.715
 3258SOL    HW110460   2.263   1.715   2.721
 3258SOL    HW210461   2.278   1.878   2.712
 3259SOL     OW10462   3.657   1.066   2.735
 3259SOL    HW110463   3.595   1.051   2.659
 3259SOL    HW210464   3.605   1.077   2.820
 3260SOL     OW10465   3.089   1.550   3.368
 3260SOL    HW110466   3.095   1.473   3.432
 3260SOL    HW210467   3.037   1.524   3.288
 3261SOL     OW10468   2.183   0.943   2.104
 3261SOL    HW110469   2.265   0.982   2.062
 3261SOL    HW210470   2.156   0.861   2.055
 3262SOL     OW10471   3.320   0.735   2.590
 3262SOL    HW110472   3.315   0.670   2.665
 3262SOL    HW210473   3.400   0.794   2.603
 3263SOL     OW10474   2.323   1.266   3.589
 3263SOL    HW110475   2.273   1.267   3.503
 3263SOL    HW210476   2.260   1.248   3.665
 3264SOL     OW10477   2.973   1.776   2.099
 3264SOL    HW110478   2.913   1.714   2.149
 3264SOL    HW210479   3.004   1.732   2.014
 3265SOL     OW10480   2.064   0.285   3.360
 3265SOL    HW110481   1.984   0.345   3.347
 3265SOL    HW210482   2.054   0.236   3.446
 3266SOL     OW10483   3.494   1.377   1.943
 3266SOL    HW110484   3.462   1.471   1.933
 3266SOL    HW210485   3.418   1.314   1.931
 3267SOL     OW10486   2.326   1.743   2.185
 3267SOL    HW110487   2.359   1.782   2.271
 3267SOL    HW210488   2.402   1.736   2.120
 3268SOL     OW10489   3.262   0.107   2.288
 3268SOL    HW110490   3.238   0.070   2.198
 3268SOL    HW210491   3.361   0.123   2.292
 3269SOL     OW10492   2.111   1.785   3.103
 3269SOL    HW110493   2.168   1.720   3.153
 3269SOL    HW210494   2.095   1.752   3.010
 3270SOL     OW10495   2.802   1.698   2.766
 3270SOL    HW110496   2.882   1.641   2.787
 3270SOL    HW210497   2.753   1.658   2.689
 3271SOL     OW10498   2.244   0.700   2.342
 3271SOL    HW110499   2.289   0.610   2.339
 3271SOL    HW210500   2.150   0.689   2.375
 3272SOL     OW10501   3.409   0.222   3.591
 3272SOL    HW110502   3.404   0.259   3.683
 3272SOL    HW210503   3.337   0.153   3.579
 3273SOL     OW10504   2.476   0.122   1.979
 3273SOL    HW110505   2.574   0.100   1.986
 3273SOL    HW210506   2.445   0.105   1.886
 3274SOL     OW10507   2.643   0.264   3.611
 3274SOL    HW110508   2.710   0.203   3.654
 3274SOL    HW210509   2.570   0.283   3.676
 3275SOL     OW10510   2.750   1.514   3.057
 3275SOL    HW110511   2.727   1.489   2.963
 3275SOL    HW210512   2.811   1.445   3.096
 3276SOL     OW10513   3.213   0.590   3.295
 3276SOL    HW110514   3.241   0.547   3.380
 3276SOL    HW210515   3.238   0.686   3.296
 3277SOL     OW10516   2.665   1.402   2.786
 3277SOL    HW110517   2.755   1.416   2.744
 3277SOL    HW210518   2.594   1.404   2.715
 3278SOL     OW10519   2.784   0.503   2.761
 3278SOL    HW110520   2.759   0.494   2.665
 3278SOL    HW210521   2.832   0.421   2.792
 3279SOL     OW10522   2.401   0.064   2.374
 3279SOL    HW110523   2.320   0.065   2.432
 3279SOL    HW210524   2.404   0.147   2.319
 3280SOL     OW10525   3.296   1.188   1.903
 3280SOL    HW110526   3.328   1.112   1.960
 3280SOL    HW210527   3.204   1.215   1.933
 3281SOL     OW10528   2.159   0.035   2.033
 3281SOL    HW110529   2.208   0.119   2.012
 3281SOL    HW210530   2.221  -0.030   2.078
 3282SOL     OW10531   2.797   0.236   2.342
 3282SOL    HW110532   2.749   0.277   2.264
 3282SOL    HW210533   2.896   0.234   2.323
 3283SOL     OW10534   2.938   0.683   3.326
 3283SOL    HW110535   2.858   0.622   3.329
 3283SOL    HW210536   3.019   0.630   3.302
 3284SOL     OW10537   3.089   1.570   2.655
 3284SOL    HW110538   3.110   1.644   2.590
 3284SOL    HW210539   3.157   1.570   2.728
 3285SOL     OW10540   2.321   1.152   2.603
 3285SOL    HW110541   2.250   1.125   2.668
 3285SOL    HW210542   2.295   1.124   2.510
 3286SOL     OW10543   3.133   1.797   2.453
 3286SOL    HW110544   3.177   1.861   2.389
 3286SOL    HW210545   3.083   1.849   2.523
 3287SOL     OW10546   2.894   0.549   1.878
 3287SOL    HW110547   2.853   0.631   1.839
 3287SOL    HW210548   2.958   0.575   1.951
 3288SOL     OW10549   1.940   0.556   3.248
 3288SOL    HW110550   2.032   0.555   3.207
 3288SOL    HW210551   1.934   0.630   3.315
 3289SOL     OW10552   2.423   0.222   3.009
 3289SOL    HW110553   2.461   0.138   3.046
 3289SOL    HW210554   2.335   0.241   3.053
 3290SOL     OW10555   2.728   0.454   2.504
 3290SOL    HW110556   2.696   0.526   2.442
 3290SOL    HW210557   2.752   0.373   2.451
 3291SOL     OW10558   2.879   0.039   2.615
 3291SOL    HW110559   2.807   0.044   2.546
 3291SOL    HW210560   2.855  -0.030   2.684
 3292SOL     OW10561   3.291   1.173   2.729
 3292SOL    HW110562   3.236   1.089   2.722
 3292SOL    HW210563   3.317   1.202   2.637
 3293SOL     OW10564   3.328   0.590   2.854
 3293SOL    HW110565   3.298   0.495   2.861
 3293SOL    HW210566   3.401   0.606   2.920
 3294SOL     OW10567   3.719   0.833   2.239
 3294SOL    HW110568   3.761   0.769   2.303
 3294SOL    HW210569   3.681   0.782   2.161
 3295SOL     OW10570   2.350   1.385   2.036
 3295SOL    HW110571   2.263   1.370   2.083
 3295SOL    HW210572   2.333   1.411   1.941
 3296SOL     OW10573   3.526   1.280   2.519
 3296SOL    HW110574   3.625   1.288   2.533
 3296SOL    HW210575   3.481   1.364   2.550
 3297SOL     OW10576   3.252   0.575   1.940
 3297SOL    HW110577   3.198   0.554   2.021
 3297SOL    HW210578   3.343   0.534   1.949
 3298SOL     OW10579   2.389   0.256   2.190
 3298SOL    HW110580   2.416   0.197   2.115
 3298SOL    HW210581   2.389   0.351   2.159
 3299SOL     OW10582   3.616   1.223   3.450
 3299SOL    HW110583   3.707   1.184   3.437
 3299SOL    HW210584   3.624   1.319   3.474
 3300SOL     OW10585   2.926   1.347   3.202
 3300SOL    HW110586   2.846   1.324   3.257
 3300SOL    HW210587   3.009   1.321   3.251
 3301SOL     OW10588   3.454   1.629   3.487
 3301SOL    HW110589   3.481   1.663   3.397
 3301SOL    HW210590   3.533   1.591   3.533
 3302SOL     OW10591   2.973   1.195   2.962
 3302SOL    HW110592   2.933   1.239   3.043
 3302SOL    HW210593   2.932   1.232   2.879
 3303SOL     OW10594   3.500   1.099   2.941
 3303SOL    HW110595   3.505   1.180   3.000
 3303SOL    HW210596   3.414   1.101   2.890
 3304SOL     OW10597   2.777   0.089   3.264
 3304SOL    HW110598   2.802   0.069   3.169
 3304SOL    HW210599   2.849   0.145   3.306
 3305SOL     OW10600   2.842   1.116   3.581
 3305SOL    HW110601   2.743   1.122   3.591
 3305SOL    HW210602   2.865   1.036   3.525
 3306SOL     OW10603   2.567   1.050   2.230
 3306SOL    HW110604   2.553   1.057   2.329
 3306SOL    HW210605   2.651   0.999   2.212
 3307SOL     OW10606   2.272   0.813   3.113
 3307SOL    HW110607   2.358   0.825   3.163
 3307SOL    HW210608   2.230   0.726   3.140
 3308SOL     OW10609   3.136   0.386   3.124
 3308SOL    HW110610   3.157   0.460   3.188
 3308SOL    HW210611   3.047   0.403   3.081
 3309SOL     OW10612   1.926   1.564   3.193
 3309SOL    HW110613   1.880   1.646   3.159
 3309SOL    HW210614   2.024   1.583   3.202
 3310SOL     OW10615   2.229   1.100   2.363
 3310SOL    HW110616   2.222   1.183   2.307
 3310SOL    HW210617   2.233   1.020   2.303
 3311SOL     OW10618   2.428   0.537   2.727
 3311SOL    HW110619   2.440   0.603   2.653
 3311SOL    HW210620   2.474   0.571   2.810
 3312SOL     OW10621   3.114   1.348   2.250
 3312SOL    HW110622   3.164   1.425   2.290
 3312SOL    HW210623   3.019   1.350   2.282
 3313SOL     OW10624   3.134   1.445   3.004
 3313SOL    HW110625   3.181   1.458   3.091
 3313SOL    HW210626   3.068   1.371   3.013
 3314SOL     OW10627   3.444   0.639   2.334
 3314SOL    HW110628   3.413   0.700   2.407
 3314SOL    HW210629   3.494   0.691   2.265
 3315SOL     OW10630   2.216   1.510   3.191
 3315SOL    HW110631   2.195   1.466   3.104
 3315SOL    HW210632   2.313   1.536   3.194
 3316SOL     OW10633   2.264   0.751   3.460
 3316SOL    HW110634   2.332   0.806   3.413
 3316SOL    HW210635   2.304   0.663   3.487
 3317SOL     OW10636   3.449   0.779   3.532
 3317SOL    HW110637   3.357   0.817   3.527
 3317SOL    HW210638   3.509   0.826   3.467
 3318SOL     OW10639   2.875   0.105   3.632
 3318SOL    HW110640   2.881   0.190   3.580
 3318SOL    HW210641   2.907   0.029   3.575
 3319SOL     OW10642   2.366   0.050   3.602
 3319SOL    HW110643   2.324  -0.007   3.532
 3319SOL    HW210644   2.300   0.119   3.634
 3320SOL     OW10645   2.435   0.870   2.891
 3320SOL    HW110646   2.479   0.959   2.882
 3320SOL    HW210647   2.372   0.870   2.968
 3321SOL     OW10648   3.222   0.862   2.907
 3321SOL    HW110649   3.147   0.862   2.841
 3321SOL    HW210650   3.259   0.770   2.916
 3322SOL     OW10651   3.071   0.525   2.137
 3322SOL    HW110652   3.084   0.441   2.191
 3322SOL    HW210653   3.042   0.599   2.197
 3323SOL     OW10654   2.169   0.213   3.093
 3323SOL    HW110655   2.146   0.250   3.183
 3323SOL    HW210656   2.139   0.118   3.087
 3324SOL     OW10657   1.899   1.310   3.144
 3324SOL    HW110658   1.952   1.261   3.212
 3324SOL    HW210659   1.921   1.408   3.149
 3325SOL     OW10660   2.594   0.634   2.926
 3325SOL    HW110661   2.653   0.608   2.850
 3325SOL    HW210662   2.566   0.730   2.915
 3326SOL     OW10663   3.590   0.935   3.716
 3326SOL    HW110664   3.544   0.928   3.627
 3326SOL    HW210665   3.528   0.979   3.782
 3327SOL     OW10666   2.169   0.063   2.480
 3327SOL    HW110667   2.158   0.157   2.513
 3327SOL    HW210668   2.164   0.000   2.557
 3328SOL     OW10669   3.484   0.367   2.236
 3328SOL    HW110670   3.486   0.291   2.300
 3328SOL    HW210671   3.436   0.444   2.276
 3329SOL     OW10672   2.885   0.766   2.828
 3329SOL    HW110673   2.900   0.787   2.924
 3329SOL    HW210674   2.855   0.671   2.819
 3330SOL     OW10675   2.842   1.573   3.562
 3330SOL    HW110676   2.822   1.617   3.474
 3330SOL    HW210677   2.881   1.482   3.546
 3331SOL     OW10678   3.721   1.518   3.467
 3331SOL    HW110679   3.735   1.545   3.372
 3331SOL    HW210680   3.804   1.540   3.520
 3332SOL     OW10681   2.212   0.898   3.666
 3332SOL    HW110682   2.288   0.942   3.714
 3332SOL    HW210683   2.247   0.851   3.584
 3333SOL     OW10684   3.402   0.274   1.987
 3333SOL    HW110685   3.341   0.199   2.010
 3333SOL    HW210686   3.424   0.326   2.070
 3334SOL     OW10687   3.165   0.838   1.904
 3334SOL    HW110688   3.199   0.745   1.919
 3334SOL    HW210689   3.183   0.865   1.809
 3335SOL     OW10690   2.930   1.333   2.711
 3335SOL    HW110691   2.937   1.249   2.656
 3335SOL    HW210692   2.992   1.402   2.675
 3336SOL     OW10693   2.181   0.810   2.811
 3336SOL    HW110694   2.274   0.846   2.816
 3336SOL    HW210695   2.175   0.725   2.863
 3337SOL     OW10696   2.201   0.509   2.868
 3337SOL    HW110697   2.149   0.426   2.851
 3337SOL    HW210698   2.278   0.514   2.804
 3338SOL     OW10699   3.000   0.380   3.540
 3338SOL    HW110700   2.955   0.443   3.604
 3338SOL    HW210701   3.093   0.411   3.523
 3339SOL     OW10702   3.022   0.207   3.339
 3339SOL    HW110703   3.022   0.271   3.416
 3339SOL    HW210704   3.050   0.255   3.256
 3340SOL     OW10705   1.870   1.326   2.062
 3340SOL    HW110706   1.777   1.347   2.031
 3340SOL    HW210707   1.880   1.227   2.075
 3341SOL     OW10708   1.950   1.801   2.789
 3341SOL    HW110709   1.908   1.715   2.762
 3341SOL    HW210710   2.044   1.804   2.755
 3342SOL     OW10711   2.366   1.568   2.772
 3342SOL    HW110712   2.432   1.642   2.781
 3342SOL    HW210713   2.410   1.489   2.730
 3343SOL     OW10714   2.864   0.796   3.100
 3343SOL    HW110715   2.905   0.764   3.186
 3343SOL    HW210716   2.768   0.769   3.097
 3344SOL     OW10717   1.902   0.544   2.976
 3344SOL    HW110718   1.987   0.511   2.935
 3344SOL    HW210719   1.915   0.559   3.074
 3345SOL     OW10720   2.051   0.520   3.584
 3345SOL    HW110721   2.110   0.480   3.514
 3345SOL    HW210722   1.993   0.591   3.543
 3346SOL     OW10723   3.231   0.950   3.522
 3346SOL    HW110724   3.270   1.039   3.542
 3346SOL    HW210725   3.241   0.930   3.425
 3347SOL     OW10726   2.677   0.572   2.187
 3347SOL    HW110727   2.684   0.483   2.141
 3347SOL    HW210728   2.583   0.606   2.179
 3348SOL     OW10729   3.519   0.604   3.068
 3348SOL    HW110730   3.481   0.535   3.130
 3348SOL    HW210731   3.601   0.568   3.024
 3349SOL     OW10732   2.114   1.564   3.606
 3349SOL    HW110733   2.084   1.621   3.682
 3349SOL    HW210734   2.107   1.467   3.632
 3350SOL     OW10735   2.533   0.464   3.131
 3350SOL    HW110736   2.499   0.375   3.101
 3350SOL    HW210737   2.559   0.518   3.051
 3351SOL     OW10738   2.792   1.678   3.327
 3351SOL    HW110739   2.768   1.660   3.232
 3351SOL    HW210740   2.822   1.772   3.337
 3352SOL     OW10741   2.335   0.500   2.053
 3352SOL    HW110742   2.396   0.580   2.057
 3352SOL    HW210743   2.240   0.531   2.060
 3353SOL     OW10744   2.021   1.137   3.328
 3353SOL    HW110745   2.043   1.076   3.404
 3353SOL    HW210746   2.031   1.088   3.242
 3354SOL     OW10747   3.209   1.059   3.096
 3354SOL    HW110748   3.233   0.996   3.022
 3354SOL    HW210749   3.119   1.099   3.078
 3355SOL     OW10750   3.164   0.855   2.171
 3355SOL    HW110751   3.078   0.824   2.213
 3355SOL    HW210752   3.160   0.841   2.072
 3356SOL     OW10753   3.621   1.747   3.016
 3356SOL    HW110754   3.682   1.777   2.943
 3356SOL    HW210755   3.583   1.658   2.994
 3357SOL     OW10756   3.114   1.731   2.990
 3357SOL    HW110757   3.198   1.736   2.936
 3357SOL    HW210758   3.091   1.635   3.008
 3358SOL     OW10759   1.945   1.258   2.884
 3358SOL    HW110760   1.940   1.257   2.984
 3358SOL    HW210761   1.862   1.217   2.846
 3359SOL     OW10762   2.550   1.662   3.578
 3359SOL    HW110763   2.494   1.743   3.587
 3359SOL    HW210764   2.602   1.666   3.492
 3360SOL     OW10765   3.588   0.135   2.385
 3360SOL    HW110766   3.661   0.118   2.318
 3360SOL    HW210767   3.557   0.048   2.423
 3361SOL     OW10768   3.250   1.573   2.339
 3361SOL    HW110769   3.317   1.585   2.265
 3361SOL    HW210770   3.210   1.662   2.362
 3362SOL     OW10771   1.992   1.794   3.713
 3362SOL    HW110772   1.951   1.720   3.766
 3362SOL    HW210773   2.056   1.845   3.771
 3363SOL     OW10774   3.142   0.927   2.534
 3363SOL    HW110775   3.202   0.846   2.536
 3363SOL    HW210776   3.182   0.996   2.474
 3364SOL     OW10777   2.692   1.273   3.284
 3364SOL    HW110778   2.687   1.306   3.379
 3364SOL    HW210779   2.606   1.292   3.238
 3365SOL     OW10780   2.534   1.616   2.016
 3365SOL    HW110781   2.543   1.626   1.917
 3365SOL    HW210782   2.494   1.527   2.037
 3366SOL     OW10783   3.512   1.720   3.256
 3366SOL    HW110784   3.565   1.730   3.172
 3366SOL    HW210785   3.485   1.810   3.290
 3367SOL     OW10786   3.703   0.175   2.825
 3367SOL    HW110787   3.742   0.090   2.789
 3367SOL    HW210788   3.605   0.177   2.806
 3368SOL     OW10789   2.125   0.326   2.582
 3368SOL    HW110790   2.046   0.377   2.548
 3368SOL    HW210791   2.116   0.311   2.680
 3369SOL     OW10792   3.056   1.612   1.893
 3369SOL    HW110793   3.062   1.519   1.930
 3369SOL    HW210794   2.997   1.612   1.813
 3370SOL     OW10795   2.684   1.002   3.234
 3370SOL    HW110796   2.724   1.001   3.142
 3370SOL    HW210797   2.694   1.094   3.274
 3371SOL     OW10798   2.778   0.910   2.153
 3371SOL    HW110799   2.841   0.948   2.085
 3371SOL    HW210800   2.818   0.827   2.192
 3372SOL     OW10801   3.366   1.607   1.906
 3372SOL    HW110802   3.274   1.644   1.913
 3372SOL    HW210803   3.404   1.627   1.816
 3373SOL     OW10804   2.234   1.288   3.352
 3373SOL    HW110805   2.221   1.381   3.318
 3373SOL    HW210806   2.150   1.236   3.339
 3374SOL     OW10807   3.476   1.292   3.151
 3374SOL    HW110808   3.536   1.295   3.231
 3374SOL    HW210809   3.401   1.356   3.164
 3375SOL     OW10810   2.901   1.098   2.558
 3375SOL    HW110811   2.831   1.051   2.612
 3375SOL    HW210812   2.960   1.030   2.515
 3376SOL     OW10813   2.876   0.236   2.833
 3376SOL    HW110814   2.868   0.200   2.740
 3376SOL    HW210815   2.874   0.160   2.898
 3377SOL     OW10816   2.452   1.487   2.353
 3377SOL    HW110817   2.494   1.429   2.283
 3377SOL    HW210818   2.408   1.566   2.309
 3378SOL     OW10819   3.571   0.385   3.243
 3378SOL    HW110820   3.644   0.454   3.247
 3378SOL    HW210821   3.599   0.310   3.184
 3379SOL     OW10822   2.117   1.348   2.152
 3379SOL    HW110823   2.021   1.349   2.125
 3379SOL    HW210824   2.129   1.401   2.236
 3380SOL     OW10825   1.967   1.013   3.588
 3380SOL    HW110826   1.890   0.980   3.642
 3380SOL    HW210827   2.052   0.983   3.630
 3381SOL     OW10828   2.534   0.203   3.351
 3381SOL    HW110829   2.624   0.187   3.311
 3381SOL    HW210830   2.542   0.208   3.450
 3382SOL     OW10831   1.937   0.345   1.895
 3382SOL    HW110832   1.845   0.317   1.866
 3382SOL    HW210833   1.968   0.422   1.839
 3383SOL     OW10834   3.302   0.856   3.260
 3383SOL    HW110835   3.245   0.908   3.197
 3383SOL    HW210836   3.398   0.868   3.236
 3384SOL     OW10837   1.934   0.166   2.180
 3384SOL    HW110838   1.917   0.249   2.126
 3384SOL    HW210839   2.024   0.129   2.158
 3385SOL     OW10840   3.045   1.335   1.981
 3385SOL    HW110841   2.946   1.324   1.983
 3385SOL    HW210842   3.079   1.350   2.074
 3386SOL     OW10843   2.475   0.842   3.293
 3386SOL    HW110844   2.531   0.923   3.276
 3386SOL    HW210845   2.534   0.762   3.296
 3387SOL     OW10846   3.355   1.767   2.821
 3387SOL    HW110847   3.388   1.831   2.752
 3387SOL    HW210848   3.421   1.761   2.896
 3388SOL     OW10849   2.578   0.565   3.570
 3388SOL    HW110850   2.597   0.630   3.644
 3388SOL    HW210851   2.638   0.485   3.579
 3389SOL     OW10852   3.312   1.220   3.495
 3389SOL    HW110853   3.303   1.210   3.594
 3389SOL    HW210854   3.408   1.213   3.469
 3390SOL     OW10855   2.252   1.741   3.422
 3390SOL    HW110856   2.161   1.782   3.420
 3390SOL    HW210857   2.245   1.647   3.454
 3391SOL     OW10858   3.536   0.883   3.116
 3391SOL    HW110859   3.509   0.794   3.079
 3391SOL    HW210860   3.537   0.951   3.043
 3392SOL     OW10861   3.087   0.325   2.311
 3392SOL    HW110862   3.152   0.251   2.300
 3392SOL    HW210863   3.107   0.375   2.395
 3393SOL     OW10864   2.456   0.745   2.514
 3393SOL    HW110865   2.506   0.830   2.495
 3393SOL    HW210866   2.368   0.747   2.466
 3394SOL     OW10867   3.639   0.342   3.504
 3394SOL    HW110868   3.622   0.373   3.410
 3394SOL    HW210869   3.555   0.305   3.542
 3395SOL     OW10870   3.592   0.934   3.379
 3395SOL    HW110871   3.630   1.025   3.394
 3395SOL    HW210872   3.584   0.917   3.280
 3396SOL     OW10873   2.721   1.374   1.878
 3396SOL    HW110874   2.675   1.389   1.966
 3396SOL    HW210875   2.765   1.459   1.848
 3397SOL     OW10876   2.523   1.790   2.815
 3397SOL    HW110877   2.477   1.878   2.802
 3397SOL    HW210878   2.622   1.802   2.808
 3398SOL     OW10879   2.721   0.956   2.723
 3398SOL    HW110880   2.775   0.887   2.771
 3398SOL    HW210881   2.689   1.025   2.789
 3399SOL     OW10882   2.945   0.984   1.949
 3399SOL    HW110883   2.922   1.037   1.867
 3399SOL    HW210884   3.026   0.928   1.930
 3400SOL     OW10885   3.723   1.569   2.713
 3400SOL    HW110886   3.652   1.557   2.643
 3400SOL    HW210887   3.724   1.490   2.773
 3401SOL     OW10888   2.083   1.314   3.706
 3401SOL    HW110889   2.018   1.241   3.685
 3401SOL    HW210890   2.087   1.328   3.804
 3402SOL     OW10891   1.941   1.240   2.515
 3402SOL    HW110892   1.940   1.193   2.603
 3402SOL    HW210893   2.023   1.212   2.464
 3403SOL     OW10894   2.534   1.391   3.486
 3403SOL    HW110895   2.456   1.341   3.524
 3403SOL    HW210896   2.531   1.486   3.517
 3404SOL     OW10897   3.686   0.192   3.089
 3404SOL    HW110898   3.682   0.102   3.133
 3404SOL    HW210899   3.689   0.181   2.990
 3405SOL     OW10900   2.290   0.424   2.382
 3405SOL    HW110901   2.320   0.352   2.320
 3405SOL    HW210902   2.251   0.384   2.465
 3406SOL     OW10903   3.567   1.487   2.966
 3406SOL    HW110904   3.474   1.462   2.939
 3406SOL    HW210905   3.593   1.437   3.048
 3407SOL     OW10906   2.179   0.547   3.142
 3407SOL    HW110907   2.217   0.488   3.214
 3407SOL    HW210908   2.219   0.521   3.054
 3408SOL     OW10909   2.674   1.586   2.549
 3408SOL    HW110910   2.706   1.596   2.455
 3408SOL    HW210911   2.595   1.524   2.551
 3409SOL     OW10912   3.286   0.214   2.974
 3409SOL    HW110913   3.338   0.149   3.029
 3409SOL    HW210914   3.237   0.277   3.035
 3410SOL     OW10915   2.863   0.034   3.016
 3410SOL    HW110916   2.800  -0.038   2.985
 3410SOL    HW210917   2.956  -0.002   3.016
 3411SOL     OW10918   2.632   1.330   2.163
 3411SOL    HW110919   2.586   1.243   2.180
 3411SOL    HW210920   2.723   1.327   2.204
 3412SOL     OW10921   2.480   1.567   3.146
 3412SOL    HW110922   2.475   1.649   3.203
 3412SOL    HW210923   2.569   1.564   3.101
 3413SOL     OW10924   3.214   0.052   2.030
 3413SOL    HW110925   3.249   0.011   1.946
 3413SOL    HW210926   3.124   0.014   2.050
 3414SOL     OW10927   3.162   0.453   2.553
 3414SOL    HW110928   3.103   0.533   2.557
 3414SOL    HW210929   3.177   0.418   2.646
 3415SOL     OW10930   3.455   0.221   2.744
 3415SOL    HW110931   3.371   0.220   2.798
 3415SOL    HW210932   3.457   0.304   2.688
 3416SOL     OW10933   1.901   1.077   2.162
 3416SOL    HW110934   2.000   1.066   2.153
 3416SOL    HW210935   1.861   0.991   2.194
 3417SOL     OW10936   2.737   1.646   2.199
 3417SOL    HW110937   2.660   1.611   2.145
 3417SOL    HW210938   2.705   1.717   2.261
 3418SOL     OW10939   2.092   0.628   3.837
 3418SOL    HW110940   1.999   0.626   3.874
 3418SOL    HW210941   2.093   0.589   3.745
 3419SOL     OW10942   2.087   0.275   4.720
 3419SOL    HW110943   2.122   0.258   4.812
 3419SOL    HW210944   1.999   0.230   4.708
 3420SOL     OW10945   1.881   0.368   4.371
 3420SOL    HW110946   1.799   0.411   4.410
 3420SOL    HW210947   1.853   0.295   4.308
 3421SOL     OW10948   2.431   1.275   4.889
 3421SOL    HW110949   2.338   1.268   4.852
 3421SOL    HW210950   2.442   1.364   4.933
 3422SOL     OW10951   3.417   1.511   4.427
 3422SOL    HW110952   3.360   1.495   4.508
 3422SOL    HW210953   3.358   1.521   4.347
 3423SOL     OW10954   2.997   0.703   4.441
 3423SOL    HW110955   3.054   0.781   4.416
 3423SOL    HW210956   2.937   0.729   4.517
 3424SOL     OW10957   3.617   0.607   3.955
 3424SOL    HW110958   3.605   0.594   3.856
 3424SOL    HW210959   3.587   0.526   4.004
 3425SOL     OW10960   2.630   1.144   4.747
 3425SOL    HW110961   2.552   1.161   4.807
 3425SOL    HW210962   2.664   1.231   4.711
 3426SOL     OW10963   2.712   0.798   5.547
 3426SOL    HW110964   2.708   0.874   5.612
 3426SOL    HW210965   2.734   0.834   5.456
 3427SOL     OW10966   2.547   1.012   4.389
 3427SOL    HW110967   2.616   0.996   4.459
 3427SOL    HW210968   2.474   1.069   4.427
 3428SOL     OW10969   2.548   1.161   5.527
 3428SOL    HW110970   2.608   1.240   5.541
 3428SOL    HW210971   2.462   1.192   5.486
 3429SOL     OW10972   2.197   1.435   4.785
 3429SOL    HW110973   2.119   1.404   4.732
 3429SOL    HW210974   2.255   1.493   4.728
 3430SOL     OW10975   3.322   1.505   5.063
 3430SOL    HW110976   3.346   1.599   5.089
 3430SOL    HW210977   3.306   1.451   5.145
 3431SOL     OW10978   2.300   0.392   5.223
 3431SOL    HW110979   2.382   0.336   5.232
 3431SOL    HW210980   2.219   0.334   5.227
 3432SOL     OW10981   3.465   0.447   4.461
 3432SOL    HW110982   3.391   0.493   4.411
 3432SOL    HW210983   3.516   0.515   4.514
 3433SOL     OW10984   2.093   1.713   4.207
 3433SOL    HW110985   2.127   1.790   4.261
 3433SOL    HW210986   2.137   1.713   4.117
 3434SOL     OW10987   2.989   1.341   5.414
 3434SOL    HW110988   3.036   1.341   5.502
 3434SOL    HW210989   2.941   1.254   5.403
 3435SOL     OW10990   2.092   1.434   4.262
 3435SOL    HW110991   2.066   1.530   4.262
 3435SOL    HW210992   2.021   1.380   4.307
 3436SOL     OW10993   2.102   1.091   4.610
 3436SOL    HW110994   2.116   1.007   4.662
 3436SOL    HW210995   2.047   1.155   4.665
 3437SOL     OW10996   2.468   0.964   3.847
 3437SOL    HW110997   2.475   1.048   3.793
 3437SOL    HW210998   2.514   0.977   3.935
 3438SOL     OW10999   3.456   0.114   5.204
 3438SOL    HW111000   3.438   0.181   5.132
 3438SOL    HW211001   3.453   0.160   5.293
 3439SOL     OW11002   1.984   0.643   4.287
 3439SOL    HW111003   1.939   0.555   4.304
 3439SOL    HW211004   1.983   0.697   4.371
 3440SOL     OW11005   3.704   1.767   4.083
 3440SOL    HW111006   3.758   1.738   4.163
 3440SOL    HW211007   3.734   1.857   4.054
 3441SOL     OW11008   1.889   1.596   3.841
 3441SOL    HW111009   1.870   1.500   3.862
 3441SOL    HW211010   1.856   1.654   3.916
 3442SOL     OW11011   3.551   0.922   4.336
 3442SOL    HW111012   3.646   0.893   4.344
 3442SOL    HW211013   3.543   0.987   4.261
 3443SOL     OW11014   3.503   1.108   4.156
 3443SOL    HW111015   3.589   1.110   4.104
 3443SOL    HW211016   3.517   1.155   4.244
 3444SOL     OW11017   1.975   0.737   5.321
 3444SOL    HW111018   2.063   0.724   5.366
 3444SOL    HW211019   1.962   0.834   5.299
 3445SOL     OW11020   2.475   1.365   4.450
 3445SOL    HW111021   2.426   1.278   4.459
 3445SOL    HW211022   2.452   1.408   4.363
 3446SOL     OW11023   3.155   1.228   5.147
 3446SOL    HW111024   3.192   1.155   5.089
 3446SOL    HW211025   3.207   1.233   5.232
 3447SOL     OW11026   2.671   0.004   4.226
 3447SOL    HW111027   2.711   0.095   4.217
 3447SOL    HW211028   2.571   0.012   4.232
 3448SOL     OW11029   2.059   0.976   4.988
 3448SOL    HW111030   2.148   0.931   4.974
 3448SOL    HW211031   1.986   0.911   4.969
 3449SOL     OW11032   3.387   0.999   3.914
 3449SOL    HW111033   3.324   0.923   3.927
 3449SOL    HW211034   3.435   1.017   4.000
 3450SOL     OW11035   2.179   0.251   5.525
 3450SOL    HW111036   2.250   0.322   5.531
 3450SOL    HW211037   2.091   0.290   5.553
 3451SOL     OW11038   3.328   1.417   4.677
 3451SOL    HW111039   3.269   1.423   4.757
 3451SOL    HW211040   3.313   1.329   4.631
 3452SOL     OW11041   3.529   1.714   4.296
 3452SOL    HW111042   3.488   1.691   4.208
 3452SOL    HW211043   3.511   1.640   4.361
 3453SOL     OW11044   2.460   0.729   3.994
 3453SOL    HW111045   2.484   0.798   3.926
 3453SOL    HW211046   2.382   0.762   4.048
 3454SOL     OW11047   3.143   0.345   4.668
 3454SOL    HW111048   3.057   0.295   4.655
 3454SOL    HW211049   3.205   0.291   4.724
 3455SOL     OW11050   3.438   1.662   4.031
 3455SOL    HW111051   3.527   1.708   4.034
 3455SOL    HW211052   3.417   1.638   3.936
 3456SOL     OW11053   2.669   0.605   5.189
 3456SOL    HW111054   2.622   0.602   5.278
 3456SOL    HW211055   2.618   0.550   5.123
 3457SOL     OW11056   3.256   0.469   5.398
 3457SOL    HW111057   3.236   0.512   5.486
 3457SOL    HW211058   3.334   0.407   5.407
 3458SOL     OW11059   2.835   0.890   5.296
 3458SOL    HW111060   2.881   0.806   5.267
 3458SOL    HW211061   2.779   0.924   5.221
 3459SOL     OW11062   2.853   0.410   4.966
 3459SOL    HW111063   2.776   0.444   5.020
 3459SOL    HW211064   2.819   0.359   4.887
 3460SOL     OW11065   2.903   0.701   4.153
 3460SOL    HW111066   2.929   0.697   4.249
 3460SOL    HW211067   2.818   0.650   4.139
 3461SOL     OW11068   1.938   0.811   4.513
 3461SOL    HW111069   2.037   0.799   4.522
 3461SOL    HW211070   1.914   0.906   4.534
 3462SOL     OW11071   1.992   1.821   5.295
 3462SOL    HW111072   1.982   1.806   5.394
 3462SOL    HW211073   1.906   1.857   5.259
 3463SOL     OW11074   2.727   0.348   3.919
 3463SOL    HW111075   2.786   0.411   3.870
 3463SOL    HW211076   2.746   0.254   3.890
 3464SOL     OW11077   3.581   0.585   5.555
 3464SOL    HW111078   3.555   0.674   5.519
 3464SOL    HW211079   3.579   0.517   5.482
 3465SOL     OW11080   3.224   1.144   4.269
 3465SOL    HW111081   3.307   1.115   4.221
 3465SOL    HW211082   3.175   1.211   4.213
 3466SOL     OW11083   2.412   0.196   4.609
 3466SOL    HW111084   2.407   0.191   4.709
 3466SOL    HW211085   2.414   0.292   4.580
 3467SOL     OW11086   2.870   1.456   4.201
 3467SOL    HW111087   2.824   1.528   4.149
 3467SOL    HW211088   2.866   1.476   4.299
 3468SOL     OW11089   3.657   1.066   4.597
 3468SOL    HW111090   3.595   1.051   4.521
 3468SOL    HW211091   3.605   1.077   4.682
 3469SOL     OW11092   3.089   1.550   5.230
 3469SOL    HW111093   3.095   1.473   5.294
 3469SOL    HW211094   3.037   1.524   5.150
 3470SOL     OW11095   2.183   0.943   3.966
 3470SOL    HW111096   2.265   0.982   3.924
 3470SOL    HW211097   2.156   0.861   3.917
 3471SOL     OW11098   3.320   0.735   4.452
 3471SOL    HW111099   3.315   0.670   4.527
 3471SOL    HW211100   3.400   0.794   4.465
 3472SOL     OW11101   2.323   1.266   5.451
 3472SOL    HW111102   2.273   1.267   5.365
 3472SOL    HW211103   2.260   1.248   5.527
 3473SOL     OW11104   2.973   1.776   3.961
 3473SOL    HW111105   2.913   1.714   4.011
 3473SOL    HW211106   3.004   1.732   3.876
 3474SOL     OW11107   2.064   0.285   5.222
 3474SOL    HW111108   1.984   0.345   5.209
 3474SOL    HW211109   2.054   0.236   5.308
 3475SOL     OW11110   3.494   1.377   3.805
 3475SOL    HW111111   3.462   1.471   3.795
 3475SOL    HW211112   3.418   1.314   3.793
 3476SOL     OW11113   2.326   1.743   4.047
 3476SOL    HW111114   2.359   1.782   4.133
 3476SOL    HW211115   2.402   1.736   3.982
 3477SOL     OW11116   3.262   0.107   4.150
 3477SOL    HW111117   3.238   0.070   4.060
 3477SOL    HW211118   3.361   0.123   4.154
 3478SOL     OW11119   2.244   0.700   4.204
 3478SOL    HW111120   2.289   0.610   4.201
 3478SOL    HW211121   2.150   0.689   4.237
 3479SOL     OW11122   3.409   0.222   5.453
 3479SOL    HW111123   3.404   0.259   5.545
 3479SOL    HW211124   3.337   0.153   5.441
 3480SOL     OW11125   2.476   0.122   3.841
 3480SOL    HW111126   2.574   0.100   3.848
 3480SOL    HW211127   2.445   0.105   3.748
 3481SOL     OW11128   2.643   0.264   5.473
 3481SOL    HW111129   2.710   0.203   5.516
 3481SOL    HW211130   2.570   0.283   5.538
 3482SOL     OW11131   2.750   1.514   4.919
 3482SOL    HW111132   2.727   1.489   4.825
 3482SOL    HW211133   2.811   1.445   4.958
 3483SOL     OW11134   3.213   0.590   5.157
 3483SOL    HW111135   3.241   0.547   5.242
 3483SOL    HW211136   3.238   0.686   5.158
 3484SOL     OW11137   2.784   0.503   4.623
 3484SOL    HW111138   2.759   0.494   4.527
 3484SOL    HW211139   2.832   0.421   4.654
 3485SOL     OW11140   2.401   0.064   4.236
 3485SOL    HW111141   2.320   0.065   4.294
 3485SOL    HW211142   2.404   0.147   4.181
 3486SOL     OW11143   3.296   1.188   3.765
 3486SOL    HW111144   3.328   1.112   3.822
 3486SOL    HW211145   3.204   1.215   3.795
 3487SOL     OW11146   2.159   0.035   3.895
 3487SOL    HW111147   2.208   0.119   3.874
 3487SOL    HW211148   2.221  -0.030   3.940
 3488SOL     OW11149   2.797   0.236   4.204
 3488SOL    HW111150   2.749   0.277   4.126
 3488SOL    HW211151   2.896   0.234   4.185
 3489SOL     OW11152   2.938   0.683   5.188
 3489SOL    HW111153   2.858   0.622   5.191
 3489SOL    HW211154   3.019   0.630   5.164
 3490SOL     OW11155   3.089   1.570   4.517
 3490SOL    HW111156   3.110   1.644   4.452
 3490SOL    HW211157   3.157   1.570   4.590
 3491SOL     OW11158   2.321   1.152   4.465
 3491SOL    HW111159   2.250   1.125   4.530
 3491SOL    HW211160   2.295   1.124   4.372
 3492SOL     OW11161   3.133   1.797   4.315
 3492SOL    HW111162   3.177   1.861   4.251
 3492SOL    HW211163   3.083   1.849   4.385
 3493SOL     OW11164   2.894   0.549   3.740
 3493SOL    HW111165   2.853   0.631   3.701
 3493SOL    HW211166   2.958   0.575   3.813
 3494SOL     OW11167   1.940   0.556   5.110
 3494SOL    HW111168   2.032   0.555   5.069
 3494SOL    HW211169   1.934   0.630   5.177
 3495SOL     OW11170   2.423   0.222   4.871
 3495SOL    HW111171   2.461   0.138   4.908
 3495SOL    HW211172   2.335   0.241   4.915
 3496SOL     OW11173   2.728   0.454   4.366
 3496SOL    HW111174   2.696   0.526   4.304
 3496SOL    HW211175   2.752   0.373   4.313
 3497SOL     OW11176   2.879   0.039   4.477
 3497SOL    HW111177   2.807   0.044   4.408
 3497SOL    HW211178   2.855  -0.030   4.546
 3498SOL     OW11179   3.291   1.173   4.591
 3498SOL    HW111180   3.236   1.089   4.584
 3498SOL    HW211181   3.317   1.202   4.499
 3499SOL     OW11182   3.328   0.590   4.716
 3499SOL    HW111183   3.298   0.495   4.723
 3499SOL    HW211184   3.401   0.606   4.782
 3500SOL     OW11185   3.719   0.833   4.101
 3500SOL    HW111186   3.761   0.769   4.165
 3500SOL    HW211187   3.681   0.782   4.023
 3501SOL     OW11188   2.350   1.385   3.898
 3501SOL    HW111189   2.263   1.370   3.945
 3501SOL    HW211190   2.333   1.411   3.803
 3502SOL     OW11191   3.526   1.280   4.381
 3502SOL    HW111192   3.625   1.288   4.395
 3502SOL    HW211193   3.481   1.364   4.412
 3503SOL     OW11194   3.252   0.575   3.802
 3503SOL    HW111195   3.198   0.554   3.883
 3503SOL    HW211196   3.343   0.534   3.811
 3504SOL     OW11197   2.389   0.256   4.052
 3504SOL    HW111198   2.416   0.197   3.977
 3504SOL    HW211199   2.389   0.351   4.021
 3505SOL     OW11200   3.616   1.223   5.312
 3505SOL    HW111201   3.707   1.184   5.299
 3505SOL    HW211202   3.624   1.319   5.336
 3506SOL     OW11203   2.926   1.347   5.064
 3506SOL    HW111204   2.846   1.324   5.119
 3506SOL    HW211205   3.009   1.321   5.113
 3507SOL     OW11206   3.454   1.629   5.349
 3507SOL    HW111207   3.481   1.663   5.259
 3507SOL    HW211208   3.533   1.591   5.395
 3508SOL     OW11209   2.973   1.195   4.824
 3508SOL    HW111210   2.933   1.239   4.905
 3508SOL    HW211211   2.932   1.232   4.741
 3509SOL     OW11212   3.500   1.099   4.803
 3509SOL    HW111213   3.505   1.180   4.862
 3509SOL    HW211214   3.414   1.101   4.752
 3510SOL     OW11215   2.777   0.089   5.126
 3510SOL    HW111216   2.802   0.069   5.031
 3510SOL    HW211217   2.849   0.145   5.168
 3511SOL     OW11218   2.842   1.116   5.443
 3511SOL    HW111219   2.743   1.122   5.453
 3511SOL    HW211220   2.865   1.036   5.387
 3512SOL     OW11221   2.567   1.050   4.092
 3512SOL    HW111222   2.553   1.057   4.191
 3512SOL    HW211223   2.651   0.999   4.074
 3513SOL     OW11224   2.272   0.813   4.975
 3513SOL    HW111225   2.358   0.825   5.025
 3513SOL    HW211226   2.230   0.726   5.002
 3514SOL     OW11227   3.136   0.386   4.986
 3514SOL    HW111228   3.157   0.460   5.050
 3514SOL    HW211229   3.047   0.403   4.943
 3515SOL     OW11230   2.229   1.100   4.225
 3515SOL    HW111231   2.222   1.183   4.169
 3515SOL    HW211232   2.233   1.020   4.165
 3516SOL     OW11233   2.428   0.537   4.589
 3516SOL    HW111234   2.440   0.603   4.515
 3516SOL    HW211235   2.474   0.571   4.672
 3517SOL     OW11236   3.114   1.348   4.112
 3517SOL    HW111237   3.164   1.425   4.152
 3517SOL    HW211238   3.019   1.350   4.144
 3518SOL     OW11239   3.134   1.445   4.866
 3518SOL    HW111240   3.181   1.458   4.953
 3518SOL    HW211241   3.068   1.371   4.875
 3519SOL     OW11242   3.444   0.639   4.196
 3519SOL    HW111243   3.413   0.700   4.269
 3519SOL    HW211244   3.494   0.691   4.127
 3520SOL     OW11245   2.264   0.751   5.322
 3520SOL    HW111246   2.332   0.806   5.275
 3520SOL    HW211247   2.304   0.663   5.349
 3521SOL     OW11248   3.449   0.779   5.394
 3521SOL    HW111249   3.357   0.817   5.389
 3521SOL    HW211250   3.509   0.826   5.329
 3522SOL     OW11251   2.875   0.105   5.494
 3522SOL    HW111252   2.881   0.190   5.442
 3522SOL    HW211253   2.907   0.029   5.437
 3523SOL     OW11254   2.366   0.050   5.464
 3523SOL    HW111255   2.324  -0.007   5.394
 3523SOL    HW211256   2.300   0.119   5.496
 3524SOL     OW11257   2.435   0.870   4.753
 3524SOL    HW111258   2.479   0.959   4.744
 3524SOL    HW211259   2.372   0.870   4.830
 3525SOL     OW11260   3.222   0.862   4.769
 3525SOL    HW111261   3.147   0.862   4.703
 3525SOL    HW211262   3.259   0.770   4.778
 3526SOL     OW11263   3.071   0.525   3.999
 3526SOL    HW111264   3.084   0.441   4.053
 3526SOL    HW211265   3.042   0.599   4.059
 3527SOL     OW11266   2.169   0.213   4.955
 3527SOL    HW111267   2.146   0.250   5.045
 3527SOL    HW211268   2.139   0.118   4.949
 3528SOL     OW11269   1.899   1.310   5.006
 3528SOL    HW111270   1.952   1.261   5.074
 3528SOL    HW211271   1.921   1.408   5.011
 3529SOL     OW11272   2.594   0.634   4.788
 3529SOL    HW111273   2.653   0.608   4.712
 3529SOL    HW211274   2.566   0.730   4.777
 3530SOL     OW11275   3.590   0.935   5.578
 3530SOL    HW111276   3.544   0.928   5.489
 3530SOL    HW211277   3.528   0.979   5.644
 3531SOL     OW11278   2.169   0.063   4.342
 3531SOL    HW111279   2.158   0.157   4.375
 3531SOL    HW211280   2.164   0.000   4.419
 3532SOL     OW11281   3.484   0.367   4.098
 3532SOL    HW111282   3.486   0.291   4.162
 3532SOL    HW211283   3.436   0.444   4.138
 3533SOL     OW11284   2.885   0.766   4.690
 3533SOL    HW111285   2.900   0.787   4.786
 3533SOL    HW211286   2.855   0.671   4.681
 3534SOL     OW11287   3.721   1.518   5.329
 3534SOL    HW111288   3.735   1.545   5.234
 3534SOL    HW211289   3.804   1.540   5.382
 3535SOL     OW11290   2.212   0.898   5.528
 3535SOL    HW111291   2.288   0.942   5.576
 3535SOL    HW211292   2.247   0.851   5.446
 3536SOL     OW11293   3.402   0.274   3.849
 3536SOL    HW111294   3.341   0.199   3.872
 3536SOL    HW211295   3.424   0.326   3.932
 3537SOL     OW11296   3.165   0.838   3.766
 3537SOL    HW111297   3.199   0.745   3.781
 3537SOL    HW211298   3.183   0.865   3.671
 3538SOL     OW11299   2.930   1.333   4.573
 3538SOL    HW111300   2.937   1.249   4.518
 3538SOL    HW211301   2.992   1.402   4.537
 3539SOL     OW11302   2.181   0.810   4.673
 3539SOL    HW111303   2.274   0.846   4.678
 3539SOL    HW211304   2.175   0.725   4.725
 3540SOL     OW11305   2.201   0.509   4.730
 3540SOL    HW111306   2.149   0.426   4.713
 3540SOL    HW211307   2.278   0.514   4.666
 3541SOL     OW11308   3.000   0.380   5.402
 3541SOL    HW111309   2.955   0.443   5.466
 3541SOL    HW211310   3.093   0.411   5.385
 3542SOL     OW11311   3.022   0.207   5.201
 3542SOL    HW111312   3.022   0.271   5.278
 3542SOL    HW211313   3.050   0.255   5.118
 3543SOL     OW11314   1.870   1.326   3.924
 3543SOL    HW111315   1.777   1.347   3.893
 3543SOL    HW211316   1.880   1.227   3.937
 3544SOL     OW11317   2.864   0.796   4.962
 3544SOL    HW111318   2.905   0.764   5.048
 3544SOL    HW211319   2.768   0.769   4.959
 3545SOL     OW11320   1.902   0.544   4.838
 3545SOL    HW111321   1.987   0.511   4.797
 3545SOL    HW211322   1.915   0.559   4.936
 3546SOL     OW11323   2.051   0.520   5.446
 3546SOL    HW111324   2.110   0.480   5.376
 3546SOL    HW211325   1.993   0.591   5.405
 3547SOL     OW11326   3.231   0.950   5.384
 3547SOL    HW111327   3.270   1.039   5.404
 3547SOL    HW211328   3.241   0.930   5.287
 3548SOL     OW11329   2.677   0.572   4.049
 3548SOL    HW111330   2.684   0.483   4.003
 3548SOL    HW211331   2.583   0.606   4.041
 3549SOL     OW11332   3.519   0.604   4.930
 3549SOL    HW111333   3.481   0.535   4.992
 3549SOL    HW211334   3.601   0.568   4.886
 3550SOL     OW11335   2.533   0.464   4.993
 3550SOL    HW111336   2.499   0.375   4.963
 3550SOL    HW211337   2.559   0.518   4.913
 3551SOL     OW11338   2.335   0.500   3.915
 3551SOL    HW111339   2.396   0.580   3.919
 3551SOL    HW211340   2.240   0.531   3.922
 3552SOL     OW11341   2.021   1.137   5.190
 3552SOL    HW111342   2.043   1.076   5.266
 3552SOL    HW211343   2.031   1.088   5.104
 3553SOL     OW11344   3.209   1.059   4.958
 3553SOL    HW111345   3.233   0.996   4.884
 3553SOL    HW211346   3.119   1.099   4.940
 3554SOL     OW11347   3.164   0.855   4.033
 3554SOL    HW111348   3.078   0.824   4.075
 3554SOL    HW211349   3.160   0.841   3.934
 3555SOL     OW11350   3.621   1.747   4.878
 3555SOL    HW111351   3.682   1.777   4.805
 3555SOL    HW211352   3.583   1.658   4.856
 3556SOL     OW11353   3.114   1.731   4.852
 3556SOL    HW111354   3.198   1.736   4.798
 3556SOL    HW211355   3.091   1.635   4.870
 3557SOL     OW11356   1.945   1.258   4.746
 3557SOL    HW111357   1.940   1.257   4.846
 3557SOL    HW211358   1.862   1.217   4.708
 3558SOL     OW11359   3.588   0.135   4.247
 3558SOL    HW111360   3.661   0.118   4.180
 3558SOL    HW211361   3.557   0.048   4.285
 3559SOL     OW11362   3.250   1.573   4.201
 3559SOL    HW111363   3.317   1.585   4.127
 3559SOL    HW211364   3.210   1.662   4.224
 3560SOL     OW11365   3.142   0.927   4.396
 3560SOL    HW111366   3.202   0.846   4.398
 3560SOL    HW211367   3.182   0.996   4.336
 3561SOL     OW11368   2.692   1.273   5.146
 3561SOL    HW111369   2.687   1.306   5.241
 3561SOL    HW211370   2.606   1.292   5.100
 3562SOL     OW11371   2.534   1.616   3.878
 3562SOL    HW111372   2.543   1.626   3.779
 3562SOL    HW211373   2.494   1.527   3.899
 3563SOL     OW11374   3.512   1.720   5.118
 3563SOL    HW111375   3.565   1.730   5.034
 3563SOL    HW211376   3.485   1.810   5.152
 3564SOL     OW11377   3.703   0.175   4.687
 3564SOL    HW111378   3.742   0.090   4.651
 3564SOL    HW211379   3.605   0.177   4.668
 3565SOL     OW11380   2.125   0.326   4.444
 3565SOL    HW111381   2.046   0.377   4.410
 3565SOL    HW211382   2.116   0.311   4.542
 3566SOL     OW11383   3.056   1.612   3.755
 3566SOL    HW111384   3.062   1.519   3.792
 3566SOL    HW211385   2.997   1.612   3.675
 3567SOL     OW11386   2.684   1.002   5.096
 3567SOL    HW111387   2.724   1.001   5.004
 3567SOL    HW211388   2.694   1.094   5.136
 3568SOL     OW11389   2.778   0.910   4.015
 3568SOL    HW111390   2.841   0.948   3.947
 3568SOL    HW211391   2.818   0.827   4.054
 3569SOL     OW11392   3.366   1.607   3.768
 3569SOL    HW111393   3.274   1.644   3.775
 3569SOL    HW211394   3.404   1.627   3.678
 3570SOL     OW11395   3.476   1.292   5.013
 3570SOL    HW111396   3.536   1.295   5.093
 3570SOL    HW211397   3.401   1.356   5.026
 3571SOL     OW11398   2.901   1.098   4.420
 3571SOL    HW111399   2.831   1.051   4.474
 3571SOL    HW211400   2.960   1.030   4.377
 3572SOL     OW11401   2.876   0.236   4.695
 3572SOL    HW111402   2.868   0.200   4.602
 3572SOL    HW211403   2.874   0.160   4.760
 3573SOL     OW11404   2.452   1.487   4.215
 3573SOL    HW111405   2.494   1.429   4.145
 3573SOL    HW211406   2.408   1.566   4.171
 3574SOL     OW11407   3.571   0.385   5.105
 3574SOL    HW111408   3.644   0.454   5.109
 3574SOL    HW211409   3.599   0.310   5.046
 3575SOL     OW11410   2.117   1.348   4.014
 3575SOL    HW111411   2.021   1.349   3.987
 3575SOL    HW211412   2.129   1.401   4.098
 3576SOL     OW11413   1.967   1.013   5.450
 3576SOL    HW111414   1.890   0.980   5.504
 3576SOL    HW211415   2.052   0.983   5.492
 3577SOL     OW11416   2.534   0.203   5.213
 3577SOL    HW111417   2.624   0.187   5.173
 3577SOL    HW211418   2.542   0.208   5.312
 3578SOL     OW11419   1.937   0.345   3.757
 3578SOL    HW111420   1.845   0.317   3.728
 3578SOL    HW211421   1.968   0.422   3.701
 3579SOL     OW11422   3.302   0.856   5.122
 3579SOL    HW111423   3.245   0.908   5.059
 3579SOL    HW211424   3.398   0.868   5.098
 3580SOL     OW11425   1.934   0.166   4.042
 3580SOL    HW111426   1.917   0.249   3.988
 3580SOL    HW211427   2.024   0.129   4.020
 3581SOL     OW11428   3.045   1.335   3.843
 3581SOL    HW111429   2.946   1.324   3.845
 3581SOL    HW211430   3.079   1.350   3.936
 3582SOL     OW11431   2.475   0.842   5.155
 3582SOL    HW111432   2.531   0.923   5.138
 3582SOL    HW211433   2.534   0.762   5.158
 3583SOL     OW11434   3.355   1.767   4.683
 3583SOL    HW111435   3.388   1.831   4.614
 3583SOL    HW211436   3.421   1.761   4.758
 3584SOL     OW11437   2.578   0.565   5.432
 3584SOL    HW111438   2.597   0.630   5.506
 3584SOL    HW211439   2.638   0.485   5.441
 3585SOL     OW11440   3.312   1.220   5.357
 3585SOL    HW111441   3.303   1.210   5.456
 3585SOL    HW211442   3.408   1.213   5.331
 3586SOL     OW11443   3.536   0.883   4.978
 3586SOL    HW111444   3.509   0.794   4.941
 3586SOL    HW211445   3.537   0.951   4.905
 3587SOL     OW11446   3.087   0.325   4.173
 3587SOL    HW111447   3.152   0.251   4.162
 3587SOL    HW211448   3.107   0.375   4.257
 3588SOL     OW11449   2.456   0.745   4.376
 3588SOL    HW111450   2.506   0.830   4.357
 3588SOL    HW211451   2.368   0.747   4.328
 3589SOL     OW11452   3.639   0.342   5.366
 3589SOL    HW111453   3.622   0.373   5.272
 3589SOL    HW211454   3.555   0.305   5.404
 3590SOL     OW11455   3.592   0.934   5.241
 3590SOL    HW111456   3.630   1.025   5.256
 3590SOL    HW211457   3.584   0.917   5.142
 3591SOL     OW11458   2.721   1.374   3.740
 3591SOL    HW111459   2.675   1.389   3.828
 3591SOL    HW211460   2.765   1.459   3.710
 3592SOL     OW11461   2.721   0.956   4.585
 3592SOL    HW111462   2.775   0.887   4.633
 3592SOL    HW211463   2.689   1.025   4.651
 3593SOL     OW11464   2.945   0.984   3.811
 3593SOL    HW111465   2.922   1.037   3.729
 3593SOL    HW211466   3.026   0.928   3.792
 3594SOL     OW11467   3.723   1.569   4.575
 3594SOL    HW111468   3.652   1.557   4.505
 3594SOL    HW211469   3.724   1.490   4.635
 3595SOL     OW11470   2.083   1.314   5.568
 3595SOL    HW111471   2.018   1.241   5.547
 3595SOL    HW211472   2.087   1.328   5.666
 3596SOL     OW11473   1.941   1.240   4.377
 3596SOL    HW111474   1.940   1.193   4.465
 3596SOL    HW211475   2.023   1.212   4.326
 3597SOL     OW11476   2.534   1.391   5.348
 3597SOL    HW111477   2.456   1.341   5.386
 3597SOL    HW211478   2.531   1.486   5.379
 3598SOL     OW11479   3.686   0.192   4.951
 3598SOL    HW111480   3.682   0.102   4.995
 3598SOL    HW211481   3.689   0.181   4.852
 3599SOL     OW11482   2.290   0.424   4.244
 3599SOL    HW111483   2.320   0.352   4.182
 3599SOL    HW211484   2.251   0.384   4.327
 3600SOL     OW11485   3.567   1.487   4.828
 3600SOL    HW111486   3.474   1.462   4.801
 3600SOL    HW211487   3.593   1.437   4.910
 3601SOL     OW11488   2.179   0.547   5.004
 3601SOL    HW111489   2.217   0.488   5.076
 3601SOL    HW211490   2.219   0.521   4.916
 3602SOL     OW11491   2.674   1.586   4.411
 3602SOL    HW111492   2.706   1.596   4.317
 3602SOL    HW211493   2.595   1.524   4.413
 3603SOL     OW11494   3.286   0.214   4.836
 3603SOL    HW111495   3.338   0.149   4.891
 3603SOL    HW211496   3.237   0.277   4.897
 3604SOL     OW11497   2.863   0.034   4.878
 3604SOL    HW111498   2.800  -0.038   4.847
 3604SOL    HW211499   2.956  -0.002   4.878
 3605SOL     OW11500   2.632   1.330   4.025
 3605SOL    HW111501   2.586   1.243   4.042
 3605SOL    HW211502   2.723   1.327   4.066
 3606SOL     OW11503   3.214   0.052   3.892
 3606SOL    HW111504   3.249   0.011   3.808
 3606SOL    HW211505   3.124   0.014   3.912
 3607SOL     OW11506   3.162   0.453   4.415
 3607SOL    HW111507   3.103   0.533   4.419
 3607SOL    HW211508   3.177   0.418   4.508
 3608SOL     OW11509   3.455   0.221   4.606
 3608SOL    HW111510   3.371   0.220   4.660
 3608SOL    HW211511   3.457   0.304   4.550
 3609SOL     OW11512   1.901   1.077   4.024
 3609SOL    HW111513   2.000   1.066   4.015
 3609SOL    HW211514   1.861   0.991   4.056
 3610SOL     OW11515   2.737   1.646   4.061
 3610SOL    HW111516   2.660   1.611   4.007
 3610SOL    HW211517   2.705   1.717   4.123
 3611SOL     OW11518   2.092   0.628   5.699
 3611SOL    HW111519   1.999   0.626   5.736
 3611SOL    HW211520   2.093   0.589   5.607
 3612SOL     OW11521   2.087   0.275   6.582
 3612SOL    HW111522   2.122   0.258   6.674
 3612SOL    HW211523   1.999   0.230   6.570
 3613SOL     OW11524   1.881   0.368   6.233
 3613SOL    HW111525   1.799   0.411   6.272
 3613SOL    HW211526   1.853   0.295   6.170
 3614SOL     OW11527   2.431   1.275   6.751
 3614SOL    HW111528   2.338   1.268   6.714
 3614SOL    HW211529   2.442   1.364   6.795
 3615SOL     OW11530   3.417   1.511   6.289
 3615SOL    HW111531   3.360   1.495   6.370
 3615SOL    HW211532   3.358   1.521   6.209
 3616SOL     OW11533   2.997   0.703   6.303
 3616SOL    HW111534   3.054   0.781   6.278
 3616SOL    HW211535   2.937   0.729   6.379
 3617SOL     OW11536   3.617   0.607   5.817
 3617SOL    HW111537   3.605   0.594   5.718
 3617SOL    HW211538   3.587   0.526   5.866
 3618SOL     OW11539   2.630   1.144   6.609
 3618SOL    HW111540   2.552   1.161   6.669
 3618SOL    HW211541   2.664   1.231   6.573
 3619SOL     OW11542   2.712   0.798   7.409
 3619SOL    HW111543   2.708   0.874   7.474
 3619SOL    HW211544   2.734   0.834   7.318
 3620SOL     OW11545   2.547   1.012   6.251
 3620SOL    HW111546   2.616   0.996   6.321
 3620SOL    HW211547   2.474   1.069   6.289
 3621SOL     OW11548   2.548   1.161   7.389
 3621SOL    HW111549   2.608   1.240   7.403
 3621SOL    HW211550   2.462   1.192   7.348
 3622SOL     OW11551   2.197   1.435   6.647
 3622SOL    HW111552   2.119   1.404   6.594
 3622SOL    HW211553   2.255   1.493   6.590
 3623SOL     OW11554   3.322   1.505   6.925
 3623SOL    HW111555   3.346   1.599   6.951
 3623SOL    HW211556   3.306   1.451   7.007
 3624SOL     OW11557   2.300   0.392   7.085
 3624SOL    HW111558   2.382   0.336   7.094
 3624SOL    HW211559   2.219   0.334   7.089
 3625SOL     OW11560   3.465   0.447   6.323
 3625SOL    HW111561   3.391   0.493   6.273
 3625SOL    HW211562   3.516   0.515   6.376
 3626SOL     OW11563   2.989   1.341   7.276
 3626SOL    HW111564   3.036   1.341   7.364
 3626SOL    HW211565   2.941   1.254   7.265
 3627SOL     OW11566   2.102   1.091   6.472
 3627SOL    HW111567   2.116   1.007   6.524
 3627SOL    HW211568   2.047   1.155   6.527
 3628SOL     OW11569   2.482   1.786   7.025
 3628SOL    HW111570   2.390   1.769   7.060
 3628SOL    HW211571   2.510   1.878   7.051
 3629SOL     OW11572   2.468   0.964   5.709
 3629SOL    HW111573   2.475   1.048   5.655
 3629SOL    HW211574   2.514   0.977   5.797
 3630SOL     OW11575   3.456   0.114   7.066
 3630SOL    HW111576   3.438   0.181   6.994
 3630SOL    HW211577   3.453   0.160   7.155
 3631SOL     OW11578   1.984   0.643   6.149
 3631SOL    HW111579   1.939   0.555   6.166
 3631SOL    HW211580   1.983   0.697   6.233
 3632SOL     OW11581   3.704   1.767   5.945
 3632SOL    HW111582   3.758   1.738   6.025
 3632SOL    HW211583   3.734   1.857   5.916
 3633SOL     OW11584   3.551   0.922   6.198
 3633SOL    HW111585   3.646   0.893   6.206
 3633SOL    HW211586   3.543   0.987   6.123
 3634SOL     OW11587   3.503   1.108   6.018
 3634SOL    HW111588   3.589   1.110   5.966
 3634SOL    HW211589   3.517   1.155   6.106
 3635SOL     OW11590   1.975   0.737   7.183
 3635SOL    HW111591   2.063   0.724   7.228
 3635SOL    HW211592   1.962   0.834   7.161
 3636SOL     OW11593   2.475   1.365   6.312
 3636SOL    HW111594   2.426   1.278   6.321
 3636SOL    HW211595   2.452   1.408   6.225
 3637SOL     OW11596   3.155   1.228   7.009
 3637SOL    HW111597   3.192   1.155   6.951
 3637SOL    HW211598   3.207   1.233   7.094
 3638SOL     OW11599   2.671   0.004   6.088
 3638SOL    HW111600   2.711   0.095   6.079
 3638SOL    HW211601   2.571   0.012   6.094
 3639SOL     OW11602   2.059   0.976   6.850
 3639SOL    HW111603   2.148   0.931   6.836
 3639SOL    HW211604   1.986   0.911   6.831
 3640SOL     OW11605   3.387   0.999   5.776
 3640SOL    HW111606   3.324   0.923   5.789
 3640SOL    HW211607   3.435   1.017   5.862
 3641SOL     OW11608   3.049   1.792   7.202
 3641SOL    HW111609   3.073   1.852   7.126
 3641SOL    HW211610   3.056   1.697   7.172
 3642SOL     OW11611   2.179   0.251   7.387
 3642SOL    HW111612   2.250   0.322   7.393
 3642SOL    HW211613   2.091   0.290   7.415
 3643SOL     OW11614   3.328   1.417   6.539
 3643SOL    HW111615   3.269   1.423   6.619
 3643SOL    HW211616   3.313   1.329   6.493
 3644SOL     OW11617   3.529   1.714   6.158
 3644SOL    HW111618   3.488   1.691   6.070
 3644SOL    HW211619   3.511   1.640   6.223
 3645SOL     OW11620   2.460   0.729   5.856
 3645SOL    HW111621   2.484   0.798   5.788
 3645SOL    HW211622   2.382   0.762   5.910
 3646SOL     OW11623   3.143   0.345   6.530
 3646SOL    HW111624   3.057   0.295   6.517
 3646SOL    HW211625   3.205   0.291   6.586
 3647SOL     OW11626   3.438   1.662   5.893
 3647SOL    HW111627   3.527   1.708   5.896
 3647SOL    HW211628   3.417   1.638   5.798
 3648SOL     OW11629   2.669   0.605   7.051
 3648SOL    HW111630   2.622   0.602   7.140
 3648SOL    HW211631   2.618   0.550   6.985
 3649SOL     OW11632   3.256   0.469   7.260
 3649SOL    HW111633   3.236   0.512   7.348
 3649SOL    HW211634   3.334   0.407   7.269
 3650SOL     OW11635   2.835   0.890   7.158
 3650SOL    HW111636   2.881   0.806   7.129
 3650SOL    HW211637   2.779   0.924   7.083
 3651SOL     OW11638   2.853   0.410   6.828
 3651SOL    HW111639   2.776   0.444   6.882
 3651SOL    HW211640   2.819   0.359   6.749
 3652SOL     OW11641   2.903   0.701   6.015
 3652SOL    HW111642   2.929   0.697   6.111
 3652SOL    HW211643   2.818   0.650   6.001
 3653SOL     OW11644   1.938   0.811   6.375
 3653SOL    HW111645   2.037   0.799   6.384
 3653SOL    HW211646   1.914   0.906   6.396
 3654SOL     OW11647   1.992   1.821   7.157
 3654SOL    HW111648   1.982   1.806   7.256
 3654SOL    HW211649   1.906   1.857   7.121
 3655SOL     OW11650   2.727   0.348   5.781
 3655SOL    HW111651   2.786   0.411   5.732
 3655SOL    HW211652   2.746   0.254   5.752
 3656SOL     OW11653   3.581   0.585   7.417
 3656SOL    HW111654   3.555   0.674   7.381
 3656SOL    HW211655   3.579   0.517   7.344
 3657SOL     OW11656   3.224   1.144   6.131
 3657SOL    HW111657   3.307   1.115   6.083
 3657SOL    HW211658   3.175   1.211   6.075
 3658SOL     OW11659   2.412   0.196   6.471
 3658SOL    HW111660   2.407   0.191   6.571
 3658SOL    HW211661   2.414   0.292   6.442
 3659SOL     OW11662   3.657   1.066   6.459
 3659SOL    HW111663   3.595   1.051   6.383
 3659SOL    HW211664   3.605   1.077   6.544
 3660SOL     OW11665   3.089   1.550   7.092
 3660SOL    HW111666   3.095   1.473   7.156
 3660SOL    HW211667   3.037   1.524   7.012
 3661SOL     OW11668   2.183   0.943   5.828
 3661SOL    HW111669   2.265   0.982   5.786
 3661SOL    HW211670   2.156   0.861   5.779
 3662SOL     OW11671   3.320   0.735   6.314
 3662SOL    HW111672   3.315   0.670   6.389
 3662SOL    HW211673   3.400   0.794   6.327
 3663SOL     OW11674   2.323   1.266   7.313
 3663SOL    HW111675   2.273   1.267   7.227
 3663SOL    HW211676   2.260   1.248   7.389
 3664SOL     OW11677   2.064   0.285   7.084
 3664SOL    HW111678   1.984   0.345   7.071
 3664SOL    HW211679   2.054   0.236   7.170
 3665SOL     OW11680   3.494   1.377   5.667
 3665SOL    HW111681   3.462   1.471   5.657
 3665SOL    HW211682   3.418   1.314   5.655
 3666SOL     OW11683   3.262   0.107   6.012
 3666SOL    HW111684   3.238   0.070   5.922
 3666SOL    HW211685   3.361   0.123   6.016
 3667SOL     OW11686   2.111   1.785   6.827
 3667SOL    HW111687   2.168   1.720   6.877
 3667SOL    HW211688   2.095   1.752   6.734
 3668SOL     OW11689   2.802   1.698   6.490
 3668SOL    HW111690   2.882   1.641   6.511
 3668SOL    HW211691   2.753   1.658   6.413
 3669SOL     OW11692   2.244   0.700   6.066
 3669SOL    HW111693   2.289   0.610   6.063
 3669SOL    HW211694   2.150   0.689   6.099
 3670SOL     OW11695   3.409   0.222   7.315
 3670SOL    HW111696   3.404   0.259   7.407
 3670SOL    HW211697   3.337   0.153   7.303
 3671SOL     OW11698   2.476   0.122   5.703
 3671SOL    HW111699   2.574   0.100   5.710
 3671SOL    HW211700   2.445   0.105   5.610
 3672SOL     OW11701   2.643   0.264   7.335
 3672SOL    HW111702   2.710   0.203   7.378
 3672SOL    HW211703   2.570   0.283   7.400
 3673SOL     OW11704   2.750   1.514   6.781
 3673SOL    HW111705   2.727   1.489   6.687
 3673SOL    HW211706   2.811   1.445   6.820
 3674SOL     OW11707   3.213   0.590   7.019
 3674SOL    HW111708   3.241   0.547   7.104
 3674SOL    HW211709   3.238   0.686   7.020
 3675SOL     OW11710   2.665   1.402   6.510
 3675SOL    HW111711   2.755   1.416   6.468
 3675SOL    HW211712   2.594   1.404   6.439
 3676SOL     OW11713   2.784   0.503   6.485
 3676SOL    HW111714   2.759   0.494   6.389
 3676SOL    HW211715   2.832   0.421   6.516
 3677SOL     OW11716   2.401   0.064   6.098
 3677SOL    HW111717   2.320   0.065   6.156
 3677SOL    HW211718   2.404   0.147   6.043
 3678SOL     OW11719   3.296   1.188   5.627
 3678SOL    HW111720   3.328   1.112   5.684
 3678SOL    HW211721   3.204   1.215   5.657
 3679SOL     OW11722   2.159   0.035   5.757
 3679SOL    HW111723   2.208   0.119   5.736
 3679SOL    HW211724   2.221  -0.030   5.802
 3680SOL     OW11725   2.797   0.236   6.066
 3680SOL    HW111726   2.749   0.277   5.988
 3680SOL    HW211727   2.896   0.234   6.047
 3681SOL     OW11728   2.938   0.683   7.050
 3681SOL    HW111729   2.858   0.622   7.053
 3681SOL    HW211730   3.019   0.630   7.026
 3682SOL     OW11731   3.089   1.570   6.379
 3682SOL    HW111732   3.110   1.644   6.314
 3682SOL    HW211733   3.157   1.570   6.452
 3683SOL     OW11734   2.321   1.152   6.327
 3683SOL    HW111735   2.250   1.125   6.392
 3683SOL    HW211736   2.295   1.124   6.234
 3684SOL     OW11737   3.133   1.797   6.177
 3684SOL    HW111738   3.177   1.861   6.113
 3684SOL    HW211739   3.083   1.849   6.247
 3685SOL     OW11740   2.894   0.549   5.602
 3685SOL    HW111741   2.853   0.631   5.563
 3685SOL    HW211742   2.958   0.575   5.675
 3686SOL     OW11743   1.940   0.556   6.972
 3686SOL    HW111744   2.032   0.555   6.931
 3686SOL    HW211745   1.934   0.630   7.039
 3687SOL     OW11746   2.423   0.222   6.733
 3687SOL    HW111747   2.461   0.138   6.770
 3687SOL    HW211748   2.335   0.241   6.777
 3688SOL     OW11749   2.728   0.454   6.228
 3688SOL    HW111750   2.696   0.526   6.166
 3688SOL    HW211751   2.752   0.373   6.175
 3689SOL     OW11752   2.879   0.039   6.339
 3689SOL    HW111753   2.807   0.044   6.270
 3689SOL    HW211754   2.855  -0.030   6.408
 3690SOL     OW11755   3.291   1.173   6.453
 3690SOL    HW111756   3.236   1.089   6.446
 3690SOL    HW211757   3.317   1.202   6.361
 3691SOL     OW11758   3.328   0.590   6.578
 3691SOL    HW111759   3.298   0.495   6.585
 3691SOL    HW211760   3.401   0.606   6.644
 3692SOL     OW11761   3.719   0.833   5.963
 3692SOL    HW111762   3.761   0.769   6.027
 3692SOL    HW211763   3.681   0.782   5.885
 3693SOL     OW11764   3.526   1.280   6.243
 3693SOL    HW111765   3.625   1.288   6.257
 3693SOL    HW211766   3.481   1.364   6.274
 3694SOL     OW11767   3.252   0.575   5.664
 3694SOL    HW111768   3.198   0.554   5.745
 3694SOL    HW211769   3.343   0.534   5.673
 3695SOL     OW11770   2.389   0.256   5.914
 3695SOL    HW111771   2.416   0.197   5.839
 3695SOL    HW211772   2.389   0.351   5.883
 3696SOL     OW11773   3.616   1.223   7.174
 3696SOL    HW111774   3.707   1.184   7.161
 3696SOL    HW211775   3.624   1.319   7.198
 3697SOL     OW11776   2.926   1.347   6.926
 3697SOL    HW111777   2.846   1.324   6.981
 3697SOL    HW211778   3.009   1.321   6.975
 3698SOL     OW11779   3.454   1.629   7.211
 3698SOL    HW111780   3.481   1.663   7.121
 3698SOL    HW211781   3.533   1.591   7.257
 3699SOL     OW11782   2.973   1.195   6.686
 3699SOL    HW111783   2.933   1.239   6.767
 3699SOL    HW211784   2.932   1.232   6.603
 3700SOL     OW11785   3.500   1.099   6.665
 3700SOL    HW111786   3.505   1.180   6.724
 3700SOL    HW211787   3.414   1.101   6.614
 3701SOL     OW11788   2.777   0.089   6.988
 3701SOL    HW111789   2.802   0.069   6.893
 3701SOL    HW211790   2.849   0.145   7.030
 3702SOL     OW11791   2.842   1.116   7.305
 3702SOL    HW111792   2.743   1.122   7.315
 3702SOL    HW211793   2.865   1.036   7.249
 3703SOL     OW11794   2.567   1.050   5.954
 3703SOL    HW111795   2.553   1.057   6.053
 3703SOL    HW211796   2.651   0.999   5.936
 3704SOL     OW11797   2.272   0.813   6.837
 3704SOL    HW111798   2.358   0.825   6.887
 3704SOL    HW211799   2.230   0.726   6.864
 3705SOL     OW11800   3.136   0.386   6.848
 3705SOL    HW111801   3.157   0.460   6.912
 3705SOL    HW211802   3.047   0.403   6.805
 3706SOL     OW11803   1.926   1.564   6.917
 3706SOL    HW111804   1.880   1.646   6.883
 3706SOL    HW211805   2.024   1.583   6.926
 3707SOL     OW11806   2.229   1.100   6.087
 3707SOL    HW111807   2.222   1.183   6.031
 3707SOL    HW211808   2.233   1.020   6.027
 3708SOL     OW11809   2.428   0.537   6.451
 3708SOL    HW111810   2.440   0.603   6.377
 3708SOL    HW211811   2.474   0.571   6.534
 3709SOL     OW11812   3.114   1.348   5.974
 3709SOL    HW111813   3.164   1.425   6.014
 3709SOL    HW211814   3.019   1.350   6.006
 3710SOL     OW11815   3.134   1.445   6.728
 3710SOL    HW111816   3.181   1.458   6.815
 3710SOL    HW211817   3.068   1.371   6.737
 3711SOL     OW11818   3.444   0.639   6.058
 3711SOL    HW111819   3.413   0.700   6.131
 3711SOL    HW211820   3.494   0.691   5.989
 3712SOL     OW11821   2.216   1.510   6.915
 3712SOL    HW111822   2.195   1.466   6.828
 3712SOL    HW211823   2.313   1.536   6.918
 3713SOL     OW11824   2.264   0.751   7.184
 3713SOL    HW111825   2.332   0.806   7.137
 3713SOL    HW211826   2.304   0.663   7.211
 3714SOL     OW11827   3.449   0.779   7.256
 3714SOL    HW111828   3.357   0.817   7.251
 3714SOL    HW211829   3.509   0.826   7.191
 3715SOL     OW11830   2.875   0.105   7.356
 3715SOL    HW111831   2.881   0.190   7.304
 3715SOL    HW211832   2.907   0.029   7.299
 3716SOL     OW11833   2.366   0.050   7.326
 3716SOL    HW111834   2.324  -0.007   7.256
 3716SOL    HW211835   2.300   0.119   7.358
 3717SOL     OW11836   2.435   0.870   6.615
 3717SOL    HW111837   2.479   0.959   6.606
 3717SOL    HW211838   2.372   0.870   6.692
 3718SOL     OW11839   3.222   0.862   6.631
 3718SOL    HW111840   3.147   0.862   6.565
 3718SOL    HW211841   3.259   0.770   6.640
 3719SOL     OW11842   3.071   0.525   5.861
 3719SOL    HW111843   3.084   0.441   5.915
 3719SOL    HW211844   3.042   0.599   5.921
 3720SOL     OW11845   2.169   0.213   6.817
 3720SOL    HW111846   2.146   0.250   6.907
 3720SOL    HW211847   2.139   0.118   6.811
 3721SOL     OW11848   1.899   1.310   6.868
 3721SOL    HW111849   1.952   1.261   6.936
 3721SOL    HW211850   1.921   1.408   6.873
 3722SOL     OW11851   2.594   0.634   6.650
 3722SOL    HW111852   2.653   0.608   6.574
 3722SOL    HW211853   2.566   0.730   6.639
 3723SOL     OW11854   3.590   0.935   7.440
 3723SOL    HW111855   3.544   0.928   7.351
 3723SOL    HW211856   3.528   0.979   7.506
 3724SOL     OW11857   2.169   0.063   6.204
 3724SOL    HW111858   2.158   0.157   6.237
 3724SOL    HW211859   2.164   0.000   6.281
 3725SOL     OW11860   3.484   0.367   5.960
 3725SOL    HW111861   3.486   0.291   6.024
 3725SOL    HW211862   3.436   0.444   6.000
 3726SOL     OW11863   2.885   0.766   6.552
 3726SOL    HW111864   2.900   0.787   6.648
 3726SOL    HW211865   2.855   0.671   6.543
 3727SOL     OW11866   2.842   1.573   7.286
 3727SOL    HW111867   2.822   1.617   7.198
 3727SOL    HW211868   2.881   1.482   7.270
 3728SOL     OW11869   3.721   1.518   7.191
 3728SOL    HW111870   3.735   1.545   7.096
 3728SOL    HW211871   3.804   1.540   7.244
 3729SOL     OW11872   2.212   0.898   7.390
 3729SOL    HW111873   2.288   0.942   7.438
 3729SOL    HW211874   2.247   0.851   7.308
 3730SOL     OW11875   3.402   0.274   5.711
 3730SOL    HW111876   3.341   0.199   5.734
 3730SOL    HW211877   3.424   0.326   5.794
 3731SOL     OW11878   3.165   0.838   5.628
 3731SOL    HW111879   3.199   0.745   5.643
 3731SOL    HW211880   3.183   0.865   5.533
 3732SOL     OW11881   2.930   1.333   6.435
 3732SOL    HW111882   2.937   1.249   6.380
 3732SOL    HW211883   2.992   1.402   6.399
 3733SOL     OW11884   2.181   0.810   6.535
 3733SOL    HW111885   2.274   0.846   6.540
 3733SOL    HW211886   2.175   0.725   6.587
 3734SOL     OW11887   2.201   0.509   6.592
 3734SOL    HW111888   2.149   0.426   6.575
 3734SOL    HW211889   2.278   0.514   6.528
 3735SOL     OW11890   3.000   0.380   7.264
 3735SOL    HW111891   2.955   0.443   7.328
 3735SOL    HW211892   3.093   0.411   7.247
 3736SOL     OW11893   3.022   0.207   7.063
 3736SOL    HW111894   3.022   0.271   7.140
 3736SOL    HW211895   3.050   0.255   6.980
 3737SOL     OW11896   1.870   1.326   5.786
 3737SOL    HW111897   1.777   1.347   5.755
 3737SOL    HW211898   1.880   1.227   5.799
 3738SOL     OW11899   2.366   1.568   6.496
 3738SOL    HW111900   2.432   1.642   6.505
 3738SOL    HW211901   2.410   1.489   6.454
 3739SOL     OW11902   2.864   0.796   6.824
 3739SOL    HW111903   2.905   0.764   6.910
 3739SOL    HW211904   2.768   0.769   6.821
 3740SOL     OW11905   1.902   0.544   6.700
 3740SOL    HW111906   1.987   0.511   6.659
 3740SOL    HW211907   1.915   0.559   6.798
 3741SOL     OW11908   2.051   0.520   7.308
 3741SOL    HW111909   2.110   0.480   7.238
 3741SOL    HW211910   1.993   0.591   7.267
 3742SOL     OW11911   3.231   0.950   7.246
 3742SOL    HW111912   3.270   1.039   7.266
 3742SOL    HW211913   3.241   0.930   7.149
 3743SOL     OW11914   2.677   0.572   5.911
 3743SOL    HW111915   2.684   0.483   5.865
 3743SOL    HW211916   2.583   0.606   5.903
 3744SOL     OW11917   3.519   0.604   6.792
 3744SOL    HW111918   3.481   0.535   6.854
 3744SOL    HW211919   3.601   0.568   6.748
 3745SOL     OW11920   2.114   1.564   7.330
 3745SOL    HW111921   2.084   1.621   7.406
 3745SOL    HW211922   2.107   1.467   7.356
 3746SOL     OW11923   2.533   0.464   6.855
 3746SOL    HW111924   2.499   0.375   6.825
 3746SOL    HW211925   2.559   0.518   6.775
 3747SOL     OW11926   2.792   1.678   7.051
 3747SOL    HW111927   2.768   1.660   6.956
 3747SOL    HW211928   2.822   1.772   7.061
 3748SOL     OW11929   2.335   0.500   5.777
 3748SOL    HW111930   2.396   0.580   5.781
 3748SOL    HW211931   2.240   0.531   5.784
 3749SOL     OW11932   2.021   1.137   7.052
 3749SOL    HW111933   2.043   1.076   7.128
 3749SOL    HW211934   2.031   1.088   6.966
 3750SOL     OW11935   3.209   1.059   6.820
 3750SOL    HW111936   3.233   0.996   6.746
 3750SOL    HW211937   3.119   1.099   6.802
 3751SOL     OW11938   3.164   0.855   5.895
 3751SOL    HW111939   3.078   0.824   5.937
 3751SOL    HW211940   3.160   0.841   5.796
 3752SOL     OW11941   3.621   1.747   6.740
 3752SOL    HW111942   3.682   1.777   6.667
 3752SOL    HW211943   3.583   1.658   6.718
 3753SOL     OW11944   3.114   1.731   6.714
 3753SOL    HW111945   3.198   1.736   6.660
 3753SOL    HW211946   3.091   1.635   6.732
 3754SOL     OW11947   1.945   1.258   6.608
 3754SOL    HW111948   1.940   1.257   6.708
 3754SOL    HW211949   1.862   1.217   6.570
 3755SOL     OW11950   2.550   1.662   7.302
 3755SOL    HW111951   2.494   1.743   7.311
 3755SOL    HW211952   2.602   1.666   7.216
 3756SOL     OW11953   3.588   0.135   6.109
 3756SOL    HW111954   3.661   0.118   6.042
 3756SOL    HW211955   3.557   0.048   6.147
 3757SOL     OW11956   3.250   1.573   6.063
 3757SOL    HW111957   3.317   1.585   5.989
 3757SOL    HW211958   3.210   1.662   6.086
 3758SOL     OW11959   1.992   1.794   7.437
 3758SOL    HW111960   1.951   1.720   7.490
 3758SOL    HW211961   2.056   1.845   7.495
 3759SOL     OW11962   3.142   0.927   6.258
 3759SOL    HW111963   3.202   0.846   6.260
 3759SOL    HW211964   3.182   0.996   6.198
 3760SOL     OW11965   2.692   1.273   7.008
 3760SOL    HW111966   2.687   1.306   7.103
 3760SOL    HW211967   2.606   1.292   6.962
 3761SOL     OW11968   3.512   1.720   6.980
 3761SOL    HW111969   3.565   1.730   6.896
 3761SOL    HW211970   3.485   1.810   7.014
 3762SOL     OW11971   3.703   0.175   6.549
 3762SOL    HW111972   3.742   0.090   6.513
 3762SOL    HW211973   3.605   0.177   6.530
 3763SOL     OW11974   2.125   0.326   6.306
 3763SOL    HW111975   2.046   0.377   6.272
 3763SOL    HW211976   2.116   0.311   6.404
 3764SOL     OW11977   3.056   1.612   5.617
 3764SOL    HW111978   3.062   1.519   5.654
 3764SOL    HW211979   2.997   1.612   5.537
 3765SOL     OW11980   2.684   1.002   6.958
 3765SOL    HW111981   2.724   1.001   6.866
 3765SOL    HW211982   2.694   1.094   6.998
 3766SOL     OW11983   2.778   0.910   5.877
 3766SOL    HW111984   2.841   0.948   5.809
 3766SOL    HW211985   2.818   0.827   5.916
 3767SOL     OW11986   3.366   1.607   5.630
 3767SOL    HW111987   3.274   1.644   5.637
 3767SOL    HW211988   3.404   1.627   5.540
 3768SOL     OW11989   2.234   1.288   7.076
 3768SOL    HW111990   2.221   1.381   7.042
 3768SOL    HW211991   2.150   1.236   7.063
 3769SOL     OW11992   3.476   1.292   6.875
 3769SOL    HW111993   3.536   1.295   6.955
 3769SOL    HW211994   3.401   1.356   6.888
 3770SOL     OW11995   2.901   1.098   6.282
 3770SOL    HW111996   2.831   1.051   6.336
 3770SOL    HW211997   2.960   1.030   6.239
 3771SOL     OW11998   2.876   0.236   6.557
 3771SOL    HW111999   2.868   0.200   6.464
 3771SOL    HW212000   2.874   0.160   6.622
 3772SOL     OW12001   3.571   0.385   6.967
 3772SOL    HW112002   3.644   0.454   6.971
 3772SOL    HW212003   3.599   0.310   6.908
 3773SOL     OW12004   2.117   1.348   5.876
 3773SOL    HW112005   2.021   1.349   5.849
 3773SOL    HW212006   2.129   1.401   5.960
 3774SOL     OW12007   1.967   1.013   7.312
 3774SOL    HW112008   1.890   0.980   7.366
 3774SOL    HW212009   2.052   0.983   7.354
 3775SOL     OW12010   2.534   0.203   7.075
 3775SOL    HW112011   2.624   0.187   7.035
 3775SOL    HW212012   2.542   0.208   7.174
 3776SOL     OW12013   1.937   0.345   5.619
 3776SOL    HW112014   1.845   0.317   5.590
 3776SOL    HW212015   1.968   0.422   5.563
 3777SOL     OW12016   3.302   0.856   6.984
 3777SOL    HW112017   3.245   0.908   6.921
 3777SOL    HW212018   3.398   0.868   6.960
 3778SOL     OW12019   1.934   0.166   5.904
 3778SOL    HW112020   1.917   0.249   5.850
 3778SOL    HW212021   2.024   0.129   5.882
 3779SOL     OW12022   3.045   1.335   5.705
 3779SOL    HW112023   2.946   1.324   5.707
 3779SOL    HW212024   3.079   1.350   5.798
 3780SOL     OW12025   2.475   0.842   7.017
 3780SOL    HW112026   2.531   0.923   7.000
 3780SOL    HW212027   2.534   0.762   7.020
 3781SOL     OW12028   3.355   1.767   6.545
 3781SOL    HW112029   3.388   1.831   6.476
 3781SOL    HW212030   3.421   1.761   6.620
 3782SOL     OW12031   2.578   0.565   7.294
 3782SOL    HW112032   2.597   0.630   7.368
 3782SOL    HW212033   2.638   0.485   7.303
 3783SOL     OW12034   3.312   1.220   7.219
 3783SOL    HW112035   3.303   1.210   7.318
 3783SOL    HW212036   3.408   1.213   7.193
 3784SOL     OW12037   2.252   1.741   7.146
 3784SOL    HW112038   2.161   1.782   7.144
 3784SOL    HW212039   2.245   1.647   7.178
 3785SOL     OW12040   3.536   0.883   6.840
 3785SOL    HW112041   3.509   0.794   6.803
 3785SOL    HW212042   3.537   0.951   6.767
 3786SOL     OW12043   3.087   0.325   6.035
 3786SOL    HW112044   3.152   0.251   6.024
 3786SOL    HW212045   3.107   0.375   6.119
 3787SOL     OW12046   2.456   0.745   6.238
 3787SOL    HW112047   2.506   0.830   6.219
 3787SOL    HW212048   2.368   0.747   6.190
 3788SOL     OW12049   3.639   0.342   7.228
 3788SOL    HW112050   3.622   0.373   7.134
 3788SOL    HW212051   3.555   0.305   7.266
 3789SOL     OW12052   3.592   0.934   7.103
 3789SOL    HW112053   3.630   1.025   7.118
 3789SOL    HW212054   3.584   0.917   7.004
 3790SOL     OW12055   2.721   1.374   5.602
 3790SOL    HW112056   2.675   1.389   5.690
 3790SOL    HW212057   2.765   1.459   5.572
 3791SOL     OW12058   2.721   0.956   6.447
 3791SOL    HW112059   2.775   0.887   6.495
 3791SOL    HW212060   2.689   1.025   6.513
 3792SOL     OW12061   2.945   0.984   5.673
 3792SOL    HW112062   2.922   1.037   5.591
 3792SOL    HW212063   3.026   0.928   5.654
 3793SOL     OW12064   3.723   1.569   6.437
 3793SOL    HW112065   3.652   1.557   6.367
 3793SOL    HW212066   3.724   1.490   6.497
 3794SOL     OW12067   2.083   1.314   7.430
 3794SOL    HW112068   2.018   1.241   7.409
 3794SOL    HW212069   2.087   1.328   7.528
 3795SOL     OW12070   1.941   1.240   6.239
 3795SOL    HW112071   1.940   1.193   6.327
 3795SOL    HW212072   2.023   1.212   6.188
 3796SOL     OW12073   2.534   1.391   7.210
 3796SOL    HW112074   2.456   1.341   7.248
 3796SOL    HW212075   2.531   1.486   7.241
 3797SOL     OW12076   3.686   0.192   6.813
 3797SOL    HW112077   3.682   0.102   6.857
 3797SOL    HW212078   3.689   0.181   6.714
 3798SOL     OW12079   2.290   0.424   6.106
 3798SOL    HW112080   2.320   0.352   6.044
 3798SOL    HW212081   2.251   0.384   6.189
 3799SOL     OW12082   3.567   1.487   6.690
 3799SOL    HW112083   3.474   1.462   6.663
 3799SOL    HW212084   3.593   1.437   6.772
 3800SOL     OW12085   2.179   0.547   6.866
 3800SOL    HW112086   2.217   0.488   6.938
 3800SOL    HW212087   2.219   0.521   6.778
 3801SOL     OW12088   3.286   0.214   6.698
 3801SOL    HW112089   3.338   0.149   6.753
 3801SOL    HW212090   3.237   0.277   6.759
 3802SOL     OW12091   2.863   0.034   6.740
 3802SOL    HW112092   2.800  -0.038   6.709
 3802SOL    HW212093   2.956  -0.002   6.740
 3803SOL     OW12094   2.632   1.330   5.887
 3803SOL    HW112095   2.586   1.243   5.904
 3803SOL    HW212096   2.723   1.327   5.928
 3804SOL     OW12097   2.480   1.567   6.870
 3804SOL    HW112098   2.475   1.649   6.927
 3804SOL    HW212099   2.569   1.564   6.825
 3805SOL     OW12100   3.214   0.052   5.754
 3805SOL    HW112101   3.249   0.011   5.670
 3805SOL    HW212102   3.124   0.014   5.774
 3806SOL     OW12103   3.162   0.453   6.277
 3806SOL    HW112104   3.103   0.533   6.281
 3806SOL    HW212105   3.177   0.418   6.370
 3807SOL     OW12106   3.455   0.221   6.468
 3807SOL    HW112107   3.371   0.220   6.522
 3807SOL    HW212108   3.457   0.304   6.412
 3808SOL     OW12109   1.901   1.077   5.886
 3808SOL    HW112110   2.000   1.066   5.877
 3808SOL    HW212111   1.861   0.991   5.918
 3809SOL     OW12112   2.092   0.628   7.561
 3809SOL    HW112113   1.999   0.626   7.598
 3809SOL    HW212114   2.093   0.589   7.469
 3810SOL     OW12115   2.087   0.275   8.444
 3810SOL    HW112116   2.122   0.258   8.536
 3810SOL    HW212117   1.999   0.230   8.432
 3811SOL     OW12118   1.881   0.368   8.095
 3811SOL    HW112119   1.799   0.411   8.134
 3811SOL    HW212120   1.853   0.295   8.032
 3812SOL     OW12121   2.431   1.275   8.613
 3812SOL    HW112122   2.338   1.268   8.576
 3812SOL    HW212123   2.442   1.364   8.657
 3813SOL     OW12124   3.417   1.511   8.151
 3813SOL    HW112125   3.360   1.495   8.232
 3813SOL    HW212126   3.358   1.521   8.071
 3814SOL     OW12127   2.997   0.703   8.165
 3814SOL    HW112128   3.054   0.781   8.140
 3814SOL    HW212129   2.937   0.729   8.241
 3815SOL     OW12130   3.617   0.607   7.679
 3815SOL    HW112131   3.605   0.594   7.580
 3815SOL    HW212132   3.587   0.526   7.728
 3816SOL     OW12133   2.630   1.144   8.471
 3816SOL    HW112134   2.552   1.161   8.531
 3816SOL    HW212135   2.664   1.231   8.435
 3817SOL     OW12136   2.712   0.798   9.271
 3817SOL    HW112137   2.708   0.874   9.336
 3817SOL    HW212138   2.734   0.834   9.180
 3818SOL     OW12139   2.547   1.012   8.113
 3818SOL    HW112140   2.616   0.996   8.183
 3818SOL    HW212141   2.474   1.069   8.151
 3819SOL     OW12142   2.548   1.161   9.251
 3819SOL    HW112143   2.608   1.240   9.265
 3819SOL    HW212144   2.462   1.192   9.210
 3820SOL     OW12145   2.197   1.435   8.509
 3820SOL    HW112146   2.119   1.404   8.456
 3820SOL    HW212147   2.255   1.493   8.452
 3821SOL     OW12148   3.322   1.505   8.787
 3821SOL    HW112149   3.346   1.599   8.813
 3821SOL    HW212150   3.306   1.451   8.869
 3822SOL     OW12151   2.300   0.392   8.947
 3822SOL    HW112152   2.382   0.336   8.956
 3822SOL    HW212153   2.219   0.334   8.951
 3823SOL     OW12154   3.465   0.447   8.185
 3823SOL    HW112155   3.391   0.493   8.135
 3823SOL    HW212156   3.516   0.515   8.238
 3824SOL     OW12157   2.093   1.713   7.931
 3824SOL    HW112158   2.127   1.790   7.985
 3824SOL    HW212159   2.137   1.713   7.841
 3825SOL     OW12160   2.989   1.341   9.138
 3825SOL    HW112161   3.036   1.341   9.226
 3825SOL    HW212162   2.941   1.254   9.127
 3826SOL     OW12163   2.092   1.434   7.986
 3826SOL    HW112164   2.066   1.530   7.986
 3826SOL    HW212165   2.021   1.380   8.031
 3827SOL     OW12166   2.102   1.091   8.334
 3827SOL    HW112167   2.116   1.007   8.386
 3827SOL    HW212168   2.047   1.155   8.389
 3828SOL     OW12169   2.482   1.786   8.887
 3828SOL    HW112170   2.390   1.769   8.922
 3828SOL    HW212171   2.510   1.878   8.913
 3829SOL     OW12172   2.468   0.964   7.571
 3829SOL    HW112173   2.475   1.048   7.517
 3829SOL    HW212174   2.514   0.977   7.659
 3830SOL     OW12175   3.456   0.114   8.928
 3830SOL    HW112176   3.438   0.181   8.856
 3830SOL    HW212177   3.453   0.160   9.017
 3831SOL     OW12178   1.984   0.643   8.011
 3831SOL    HW112179   1.939   0.555   8.028
 3831SOL    HW212180   1.983   0.697   8.095
 3832SOL     OW12181   3.704   1.767   7.807
 3832SOL    HW112182   3.758   1.738   7.887
 3832SOL    HW212183   3.734   1.857   7.778
 3833SOL     OW12184   1.889   1.596   7.565
 3833SOL    HW112185   1.870   1.500   7.586
 3833SOL    HW212186   1.856   1.654   7.640
 3834SOL     OW12187   3.551   0.922   8.060
 3834SOL    HW112188   3.646   0.893   8.068
 3834SOL    HW212189   3.543   0.987   7.985
 3835SOL     OW12190   3.503   1.108   7.880
 3835SOL    HW112191   3.589   1.110   7.828
 3835SOL    HW212192   3.517   1.155   7.968
 3836SOL     OW12193   1.975   0.737   9.045
 3836SOL    HW112194   2.063   0.724   9.090
 3836SOL    HW212195   1.962   0.834   9.023
 3837SOL     OW12196   2.475   1.365   8.174
 3837SOL    HW112197   2.426   1.278   8.183
 3837SOL    HW212198   2.452   1.408   8.087
 3838SOL     OW12199   3.155   1.228   8.871
 3838SOL    HW112200   3.192   1.155   8.813
 3838SOL    HW212201   3.207   1.233   8.956
 3839SOL     OW12202   2.671   0.004   7.950
 3839SOL    HW112203   2.711   0.095   7.941
 3839SOL    HW212204   2.571   0.012   7.956
 3840SOL     OW12205   2.059   0.976   8.712
 3840SOL    HW112206   2.148   0.931   8.698
 3840SOL    HW212207   1.986   0.911   8.693
 3841SOL     OW12208   3.387   0.999   7.638
 3841SOL    HW112209   3.324   0.923   7.651
 3841SOL    HW212210   3.435   1.017   7.724
 3842SOL     OW12211   3.049   1.792   9.064
 3842SOL    HW112212   3.073   1.852   8.988
 3842SOL    HW212213   3.056   1.697   9.034
 3843SOL     OW12214   2.179   0.251   9.249
 3843SOL    HW112215   2.250   0.322   9.255
 3843SOL    HW212216   2.091   0.290   9.277
 3844SOL     OW12217   3.328   1.417   8.401
 3844SOL    HW112218   3.269   1.423   8.481
 3844SOL    HW212219   3.313   1.329   8.355
 3845SOL     OW12220   3.529   1.714   8.020
 3845SOL    HW112221   3.488   1.691   7.932
 3845SOL    HW212222   3.511   1.640   8.085
 3846SOL     OW12223   2.460   0.729   7.718
 3846SOL    HW112224   2.484   0.798   7.650
 3846SOL    HW212225   2.382   0.762   7.772
 3847SOL     OW12226   3.143   0.345   8.392
 3847SOL    HW112227   3.057   0.295   8.379
 3847SOL    HW212228   3.205   0.291   8.448
 3848SOL     OW12229   3.438   1.662   7.755
 3848SOL    HW112230   3.527   1.708   7.758
 3848SOL    HW212231   3.417   1.638   7.660
 3849SOL     OW12232   2.669   0.605   8.913
 3849SOL    HW112233   2.622   0.602   9.002
 3849SOL    HW212234   2.618   0.550   8.847
 3850SOL     OW12235   3.256   0.469   9.122
 3850SOL    HW112236   3.236   0.512   9.210
 3850SOL    HW212237   3.334   0.407   9.131
 3851SOL     OW12238   2.835   0.890   9.020
 3851SOL    HW112239   2.881   0.806   8.991
 3851SOL    HW212240   2.779   0.924   8.945
 3852SOL     OW12241   2.853   0.410   8.690
 3852SOL    HW112242   2.776   0.444   8.744
 3852SOL    HW212243   2.819   0.359   8.611
 3853SOL     OW12244   2.903   0.701   7.877
 3853SOL    HW112245   2.929   0.697   7.973
 3853SOL    HW212246   2.818   0.650   7.863
 3854SOL     OW12247   1.938   0.811   8.237
 3854SOL    HW112248   2.037   0.799   8.246
 3854SOL    HW212249   1.914   0.906   8.258
 3855SOL     OW12250   1.992   1.821   9.019
 3855SOL    HW112251   1.982   1.806   9.118
 3855SOL    HW212252   1.906   1.857   8.983
 3856SOL     OW12253   2.727   0.348   7.643
 3856SOL    HW112254   2.786   0.411   7.594
 3856SOL    HW212255   2.746   0.254   7.614
 3857SOL     OW12256   3.581   0.585   9.279
 3857SOL    HW112257   3.555   0.674   9.243
 3857SOL    HW212258   3.579   0.517   9.206
 3858SOL     OW12259   3.224   1.144   7.993
 3858SOL    HW112260   3.307   1.115   7.945
 3858SOL    HW212261   3.175   1.211   7.937
 3859SOL     OW12262   2.412   0.196   8.333
 3859SOL    HW112263   2.407   0.191   8.433
 3859SOL    HW212264   2.414   0.292   8.304
 3860SOL     OW12265   2.870   1.456   7.925
 3860SOL    HW112266   2.824   1.528   7.873
 3860SOL    HW212267   2.866   1.476   8.023
 3861SOL     OW12268   2.213   1.801   8.301
 3861SOL    HW112269   2.263   1.715   8.307
 3861SOL    HW212270   2.278   1.878   8.298
 3862SOL     OW12271   3.657   1.066   8.321
 3862SOL    HW112272   3.595   1.051   8.245
 3862SOL    HW212273   3.605   1.077   8.406
 3863SOL     OW12274   3.089   1.550   8.954
 3863SOL    HW112275   3.095   1.473   9.018
 3863SOL    HW212276   3.037   1.524   8.874
 3864SOL     OW12277   2.183   0.943   7.690
 3864SOL    HW112278   2.265   0.982   7.648
 3864SOL    HW212279   2.156   0.861   7.641
 3865SOL     OW12280   3.320   0.735   8.176
 3865SOL    HW112281   3.315   0.670   8.251
 3865SOL    HW212282   3.400   0.794   8.189
 3866SOL     OW12283   2.323   1.266   9.175
 3866SOL    HW112284   2.273   1.267   9.089
 3866SOL    HW212285   2.260   1.248   9.251
 3867SOL     OW12286   2.973   1.776   7.685
 3867SOL    HW112287   2.913   1.714   7.735
 3867SOL    HW212288   3.004   1.732   7.600
 3868SOL     OW12289   2.064   0.285   8.946
 3868SOL    HW112290   1.984   0.345   8.933
 3868SOL    HW212291   2.054   0.236   9.032
 3869SOL     OW12292   3.494   1.377   7.529
 3869SOL    HW112293   3.462   1.471   7.519
 3869SOL    HW212294   3.418   1.314   7.517
 3870SOL     OW12295   2.326   1.743   7.771
 3870SOL    HW112296   2.359   1.782   7.857
 3870SOL    HW212297   2.402   1.736   7.706
 3871SOL     OW12298   3.262   0.107   7.874
 3871SOL    HW112299   3.238   0.070   7.784
 3871SOL    HW212300   3.361   0.123   7.878
 3872SOL     OW12301   2.111   1.785   8.689
 3872SOL    HW112302   2.168   1.720   8.739
 3872SOL    HW212303   2.095   1.752   8.596
 3873SOL     OW12304   2.802   1.698   8.352
 3873SOL    HW112305   2.882   1.641   8.373
 3873SOL    HW212306   2.753   1.658   8.275
 3874SOL     OW12307   2.244   0.700   7.928
 3874SOL    HW112308   2.289   0.610   7.925
 3874SOL    HW212309   2.150   0.689   7.961
 3875SOL     OW12310   3.409   0.222   9.177
 3875SOL    HW112311   3.404   0.259   9.269
 3875SOL    HW212312   3.337   0.153   9.165
 3876SOL     OW12313   2.476   0.122   7.565
 3876SOL    HW112314   2.574   0.100   7.572
 3876SOL    HW212315   2.445   0.105   7.472
 3877SOL     OW12316   2.643   0.264   9.197
 3877SOL    HW112317   2.710   0.203   9.240
 3877SOL    HW212318   2.570   0.283   9.262
 3878SOL     OW12319   2.750   1.514   8.643
 3878SOL    HW112320   2.727   1.489   8.549
 3878SOL    HW212321   2.811   1.445   8.682
 3879SOL     OW12322   3.213   0.590   8.881
 3879SOL    HW112323   3.241   0.547   8.966
 3879SOL    HW212324   3.238   0.686   8.882
 3880SOL     OW12325   2.665   1.402   8.372
 3880SOL    HW112326   2.755   1.416   8.330
 3880SOL    HW212327   2.594   1.404   8.301
 3881SOL     OW12328   2.784   0.503   8.347
 3881SOL    HW112329   2.759   0.494   8.251
 3881SOL    HW212330   2.832   0.421   8.378
 3882SOL     OW12331   2.401   0.064   7.960
 3882SOL    HW112332   2.320   0.065   8.018
 3882SOL    HW212333   2.404   0.147   7.905
 3883SOL     OW12334   3.296   1.188   7.489
 3883SOL    HW112335   3.328   1.112   7.546
 3883SOL    HW212336   3.204   1.215   7.519
 3884SOL     OW12337   2.159   0.035   7.619
 3884SOL    HW112338   2.208   0.119   7.598
 3884SOL    HW212339   2.221  -0.030   7.664
 3885SOL     OW12340   2.797   0.236   7.928
 3885SOL    HW112341   2.749   0.277   7.850
 3885SOL    HW212342   2.896   0.234   7.909
 3886SOL     OW12343   2.938   0.683   8.912
 3886SOL    HW112344   2.858   0.622   8.915
 3886SOL    HW212345   3.019   0.630   8.888
 3887SOL     OW12346   3.089   1.570   8.241
 3887SOL    HW112347   3.110   1.644   8.176
 3887SOL    HW212348   3.157   1.570   8.314
 3888SOL     OW12349   2.321   1.152   8.189
 3888SOL    HW112350   2.250   1.125   8.254
 3888SOL    HW212351   2.295   1.124   8.096
 3889SOL     OW12352   3.133   1.797   8.039
 3889SOL    HW112353   3.177   1.861   7.975
 3889SOL    HW212354   3.083   1.849   8.109
 3890SOL     OW12355   2.894   0.549   7.464
 3890SOL    HW112356   2.853   0.631   7.425
 3890SOL    HW212357   2.958   0.575   7.537
 3891SOL     OW12358   1.940   0.556   8.834
 3891SOL    HW112359   2.032   0.555   8.793
 3891SOL    HW212360   1.934   0.630   8.901
 3892SOL     OW12361   2.423   0.222   8.595
 3892SOL    HW112362   2.461   0.138   8.632
 3892SOL    HW212363   2.335   0.241   8.639
 3893SOL     OW12364   2.728   0.454   8.090
 3893SOL    HW112365   2.696   0.526   8.028
 3893SOL    HW212366   2.752   0.373   8.037
 3894SOL     OW12367   2.879   0.039   8.201
 3894SOL    HW112368   2.807   0.044   8.132
 3894SOL    HW212369   2.855  -0.030   8.270
 3895SOL     OW12370   3.291   1.173   8.315
 3895SOL    HW112371   3.236   1.089   8.308
 3895SOL    HW212372   3.317   1.202   8.223
 3896SOL     OW12373   3.328   0.590   8.440
 3896SOL    HW112374   3.298   0.495   8.447
 3896SOL    HW212375   3.401   0.606   8.506
 3897SOL     OW12376   3.719   0.833   7.825
 3897SOL    HW112377   3.761   0.769   7.889
 3897SOL    HW212378   3.681   0.782   7.747
 3898SOL     OW12379   2.350   1.385   7.622
 3898SOL    HW112380   2.263   1.370   7.669
 3898SOL    HW212381   2.333   1.411   7.527
 3899SOL     OW12382   3.526   1.280   8.105
 3899SOL    HW112383   3.625   1.288   8.119
 3899SOL    HW212384   3.481   1.364   8.136
 3900SOL     OW12385   3.252   0.575   7.526
 3900SOL    HW112386   3.198   0.554   7.607
 3900SOL    HW212387   3.343   0.534   7.535
 3901SOL     OW12388   2.389   0.256   7.776
 3901SOL    HW112389   2.416   0.197   7.701
 3901SOL    HW212390   2.389   0.351   7.745
 3902SOL     OW12391   3.616   1.223   9.036
 3902SOL    HW112392   3.707   1.184   9.023
 3902SOL    HW212393   3.624   1.319   9.060
 3903SOL     OW12394   2.926   1.347   8.788
 3903SOL    HW112395   2.846   1.324   8.843
 3903SOL    HW212396   3.009   1.321   8.837
 3904SOL     OW12397   3.454   1.629   9.073
 3904SOL    HW112398   3.481   1.663   8.983
 3904SOL    HW212399   3.533   1.591   9.119
 3905SOL     OW12400   2.973   1.195   8.548
 3905SOL    HW112401   2.933   1.239   8.629
 3905SOL    HW212402   2.932   1.232   8.465
 3906SOL     OW12403   3.500   1.099   8.527
 3906SOL    HW112404   3.505   1.180   8.586
 3906SOL    HW212405   3.414   1.101   8.476
 3907SOL     OW12406   2.777   0.089   8.850
 3907SOL    HW112407   2.802   0.069   8.755
 3907SOL    HW212408   2.849   0.145   8.892
 3908SOL     OW12409   2.842   1.116   9.167
 3908SOL    HW112410   2.743   1.122   9.177
 3908SOL    HW212411   2.865   1.036   9.111
 3909SOL     OW12412   2.567   1.050   7.816
 3909SOL    HW112413   2.553   1.057   7.915
 3909SOL    HW212414   2.651   0.999   7.798
 3910SOL     OW12415   2.272   0.813   8.699
 3910SOL    HW112416   2.358   0.825   8.749
 3910SOL    HW212417   2.230   0.726   8.726
 3911SOL     OW12418   3.136   0.386   8.710
 3911SOL    HW112419   3.157   0.460   8.774
 3911SOL    HW212420   3.047   0.403   8.667
 3912SOL     OW12421   1.926   1.564   8.779
 3912SOL    HW112422   1.880   1.646   8.745
 3912SOL    HW212423   2.024   1.583   8.788
 3913SOL     OW12424   2.229   1.100   7.949
 3913SOL    HW112425   2.222   1.183   7.893
 3913SOL    HW212426   2.233   1.020   7.889
 3914SOL     OW12427   2.428   0.537   8.313
 3914SOL    HW112428   2.440   0.603   8.239
 3914SOL    HW212429   2.474   0.571   8.396
 3915SOL     OW12430   3.114   1.348   7.836
 3915SOL    HW112431   3.164   1.425   7.876
 3915SOL    HW212432   3.019   1.350   7.868
 3916SOL     OW12433   3.134   1.445   8.590
 3916SOL    HW112434   3.181   1.458   8.677
 3916SOL    HW212435   3.068   1.371   8.599
 3917SOL     OW12436   3.444   0.639   7.920
 3917SOL    HW112437   3.413   0.700   7.993
 3917SOL    HW212438   3.494   0.691   7.851
 3918SOL     OW12439   2.216   1.510   8.777
 3918SOL    HW112440   2.195   1.466   8.690
 3918SOL    HW212441   2.313   1.536   8.780
 3919SOL     OW12442   2.264   0.751   9.046
 3919SOL    HW112443   2.332   0.806   8.999
 3919SOL    HW212444   2.304   0.663   9.073
 3920SOL     OW12445   3.449   0.779   9.118
 3920SOL    HW112446   3.357   0.817   9.113
 3920SOL    HW212447   3.509   0.826   9.053
 3921SOL     OW12448   2.875   0.105   9.218
 3921SOL    HW112449   2.881   0.190   9.166
 3921SOL    HW212450   2.907   0.029   9.161
 3922SOL     OW12451   2.366   0.050   9.188
 3922SOL    HW112452   2.324  -0.007   9.118
 3922SOL    HW212453   2.300   0.119   9.220
 3923SOL     OW12454   2.435   0.870   8.477
 3923SOL    HW112455   2.479   0.959   8.468
 3923SOL    HW212456   2.372   0.870   8.554
 3924SOL     OW12457   3.222   0.862   8.493
 3924SOL    HW112458   3.147   0.862   8.427
 3924SOL    HW212459   3.259   0.770   8.502
 3925SOL     OW12460   3.071   0.525   7.723
 3925SOL    HW112461   3.084   0.441   7.777
 3925SOL    HW212462   3.042   0.599   7.783
 3926SOL     OW12463   2.169   0.213   8.679
 3926SOL    HW112464   2.146   0.250   8.769
 3926SOL    HW212465   2.139   0.118   8.673
 3927SOL     OW12466   1.899   1.310   8.730
 3927SOL    HW112467   1.952   1.261   8.798
 3927SOL    HW212468   1.921   1.408   8.735
 3928SOL     OW12469   2.594   0.634   8.512
 3928SOL    HW112470   2.653   0.608   8.436
 3928SOL    HW212471   2.566   0.730   8.501
 3929SOL     OW12472   3.590   0.935   9.302
 3929SOL    HW112473   3.544   0.928   9.213
 3929SOL    HW212474   3.528   0.979   9.368
 3930SOL     OW12475   2.169   0.063   8.066
 3930SOL    HW112476   2.158   0.157   8.099
 3930SOL    HW212477   2.164   0.000   8.143
 3931SOL     OW12478   3.484   0.367   7.822
 3931SOL    HW112479   3.486   0.291   7.886
 3931SOL    HW212480   3.436   0.444   7.862
 3932SOL     OW12481   2.885   0.766   8.414
 3932SOL    HW112482   2.900   0.787   8.510
 3932SOL    HW212483   2.855   0.671   8.405
 3933SOL     OW12484   2.842   1.573   9.148
 3933SOL    HW112485   2.822   1.617   9.060
 3933SOL    HW212486   2.881   1.482   9.132
 3934SOL     OW12487   3.721   1.518   9.053
 3934SOL    HW112488   3.735   1.545   8.958
 3934SOL    HW212489   3.804   1.540   9.106
 3935SOL     OW12490   2.212   0.898   9.252
 3935SOL    HW112491   2.288   0.942   9.300
 3935SOL    HW212492   2.247   0.851   9.170
 3936SOL     OW12493   3.402   0.274   7.573
 3936SOL    HW112494   3.341   0.199   7.596
 3936SOL    HW212495   3.424   0.326   7.656
 3937SOL     OW12496   3.165   0.838   7.490
 3937SOL    HW112497   3.199   0.745   7.505
 3937SOL    HW212498   3.183   0.865   7.395
 3938SOL     OW12499   2.930   1.333   8.297
 3938SOL    HW112500   2.937   1.249   8.242
 3938SOL    HW212501   2.992   1.402   8.261
 3939SOL     OW12502   2.181   0.810   8.397
 3939SOL    HW112503   2.274   0.846   8.402
 3939SOL    HW212504   2.175   0.725   8.449
 3940SOL     OW12505   2.201   0.509   8.454
 3940SOL    HW112506   2.149   0.426   8.437
 3940SOL    HW212507   2.278   0.514   8.390
 3941SOL     OW12508   3.000   0.380   9.126
 3941SOL    HW112509   2.955   0.443   9.190
 3941SOL    HW212510   3.093   0.411   9.109
 3942SOL     OW12511   3.022   0.207   8.925
 3942SOL    HW112512   3.022   0.271   9.002
 3942SOL    HW212513   3.050   0.255   8.842
 3943SOL     OW12514   1.870   1.326   7.648
 3943SOL    HW112515   1.777   1.347   7.617
 3943SOL    HW212516   1.880   1.227   7.661
 3944SOL     OW12517   1.950   1.801   8.375
 3944SOL    HW112518   1.908   1.715   8.348
 3944SOL    HW212519   2.044   1.804   8.341
 3945SOL     OW12520   2.366   1.568   8.358
 3945SOL    HW112521   2.432   1.642   8.367
 3945SOL    HW212522   2.410   1.489   8.316
 3946SOL     OW12523   2.864   0.796   8.686
 3946SOL    HW112524   2.905   0.764   8.772
 3946SOL    HW212525   2.768   0.769   8.683
 3947SOL     OW12526   1.902   0.544   8.562
 3947SOL    HW112527   1.987   0.511   8.521
 3947SOL    HW212528   1.915   0.559   8.660
 3948SOL     OW12529   2.051   0.520   9.170
 3948SOL    HW112530   2.110   0.480   9.100
 3948SOL    HW212531   1.993   0.591   9.129
 3949SOL     OW12532   3.231   0.950   9.108
 3949SOL    HW112533   3.270   1.039   9.128
 3949SOL    HW212534   3.241   0.930   9.011
 3950SOL     OW12535   2.677   0.572   7.773
 3950SOL    HW112536   2.684   0.483   7.727
 3950SOL    HW212537   2.583   0.606   7.765
 3951SOL     OW12538   3.519   0.604   8.654
 3951SOL    HW112539   3.481   0.535   8.716
 3951SOL    HW212540   3.601   0.568   8.610
 3952SOL     OW12541   2.114   1.564   9.192
 3952SOL    HW112542   2.084   1.621   9.268
 3952SOL    HW212543   2.107   1.467   9.218
 3953SOL     OW12544   2.533   0.464   8.717
 3953SOL    HW112545   2.499   0.375   8.687
 3953SOL    HW212546   2.559   0.518   8.637
 3954SOL     OW12547   2.792   1.678   8.913
 3954SOL    HW112548   2.768   1.660   8.818
 3954SOL    HW212549   2.822   1.772   8.923
 3955SOL     OW12550   2.335   0.500   7.639
 3955SOL    HW112551   2.396   0.580   7.643
 3955SOL    HW212552   2.240   0.531   7.646
 3956SOL     OW12553   2.021   1.137   8.914
 3956SOL    HW112554   2.043   1.076   8.990
 3956SOL    HW212555   2.031   1.088   8.828
 3957SOL     OW12556   3.209   1.059   8.682
 3957SOL    HW112557   3.233   0.996   8.608
 3957SOL    HW212558   3.119   1.099   8.664
 3958SOL     OW12559   3.164   0.855   7.757
 3958SOL    HW112560   3.078   0.824   7.799
 3958SOL    HW212561   3.160   0.841   7.658
 3959SOL     OW12562   3.621   1.747   8.602
 3959SOL    HW112563   3.682   1.777   8.529
 3959SOL    HW212564   3.583   1.658   8.580
 3960SOL     OW12565   3.114   1.731   8.576
 3960SOL    HW112566   3.198   1.736   8.522
 3960SOL    HW212567   3.091   1.635   8.594
 3961SOL     OW12568   1.945   1.258   8.470
 3961SOL    HW112569   1.940   1.257   8.570
 3961SOL    HW212570   1.862   1.217   8.432
 3962SOL     OW12571   2.550   1.662   9.164
 3962SOL    HW112572   2.494   1.743   9.173
 3962SOL    HW212573   2.602   1.666   9.078
 3963SOL     OW12574   3.588   0.135   7.971
 3963SOL    HW112575   3.661   0.118   7.904
 3963SOL    HW212576   3.557   0.048   8.009
 3964SOL     OW12577   3.250   1.573   7.925
 3964SOL    HW112578   3.317   1.585   7.851
 3964SOL    HW212579   3.210   1.662   7.948
 3965SOL     OW12580   1.992   1.794   9.299
 3965SOL    HW112581   1.951   1.720   9.352
 3965SOL    HW212582   2.056   1.845   9.357
 3966SOL     OW12583   3.142   0.927   8.120
 3966SOL    HW112584   3.202   0.846   8.122
 3966SOL    HW212585   3.182   0.996   8.060
 3967SOL     OW12586   2.692   1.273   8.870
 3967SOL    HW112587   2.687   1.306   8.965
 3967SOL    HW212588   2.606   1.292   8.824
 3968SOL     OW12589   2.534   1.616   7.602
 3968SOL    HW112590   2.543   1.626   7.503
 3968SOL    HW212591   2.494   1.527   7.623
 3969SOL     OW12592   3.512   1.720   8.842
 3969SOL    HW112593   3.565   1.730   8.758
 3969SOL    HW212594   3.485   1.810   8.876
 3970SOL     OW12595   3.703   0.175   8.411
 3970SOL    HW112596   3.742   0.090   8.375
 3970SOL    HW212597   3.605   0.177   8.392
 3971SOL     OW12598   2.125   0.326   8.168
 3971SOL    HW112599   2.046   0.377   8.134
 3971SOL    HW212600   2.116   0.311   8.266
 3972SOL     OW12601   3.056   1.612   7.479
 3972SOL    HW112602   3.062   1.519   7.516
 3972SOL    HW212603   2.997   1.612   7.399
 3973SOL     OW12604   2.684   1.002   8.820
 3973SOL    HW112605   2.724   1.001   8.728
 3973SOL    HW212606   2.694   1.094   8.860
 3974SOL     OW12607   2.778   0.910   7.739
 3974SOL    HW112608   2.841   0.948   7.671
 3974SOL    HW212609   2.818   0.827   7.778
 3975SOL     OW12610   3.366   1.607   7.492
 3975SOL    HW112611   3.274   1.644   7.499
 3975SOL    HW212612   3.404   1.627   7.402
 3976SOL     OW12613   2.234   1.288   8.938
 3976SOL    HW112614   2.221   1.381   8.904
 3976SOL    HW212615   2.150   1.236   8.925
 3977SOL     OW12616   3.476   1.292   8.737
 3977SOL    HW112617   3.536   1.295   8.817
 3977SOL    HW212618   3.401   1.356   8.750
 3978SOL     OW12619   2.901   1.098   8.144
 3978SOL    HW112620   2.831   1.051   8.198
 3978SOL    HW212621   2.960   1.030   8.101
 3979SOL     OW12622   2.876   0.236   8.419
 3979SOL    HW112623   2.868   0.200   8.326
 3979SOL    HW212624   2.874   0.160   8.484
 3980SOL     OW12625   2.452   1.487   7.939
 3980SOL    HW112626   2.494   1.429   7.869
 3980SOL    HW212627   2.408   1.566   7.895
 3981SOL     OW12628   3.571   0.385   8.829
 3981SOL    HW112629   3.644   0.454   8.833
 3981SOL    HW212630   3.599   0.310   8.770
 3982SOL     OW12631   2.117   1.348   7.738
 3982SOL    HW112632   2.021   1.349   7.711
 3982SOL    HW212633   2.129   1.401   7.822
 3983SOL     OW12634   1.967   1.013   9.174
 3983SOL    HW112635   1.890   0.980   9.228
 3983SOL    HW212636   2.052   0.983   9.216
 3984SOL     OW12637   2.534   0.203   8.937
 3984SOL    HW112638   2.624   0.187   8.897
 3984SOL    HW212639   2.542   0.208   9.036
 3985SOL     OW12640   1.937   0.345   7.481
 3985SOL    HW112641   1.845   0.317   7.452
 3985SOL    HW212642   1.968   0.422   7.425
 3986SOL     OW12643   3.302   0.856   8.846
 3986SOL    HW112644   3.245   0.908   8.783
 3986SOL    HW212645   3.398   0.868   8.822
 3987SOL     OW12646   1.934   0.166   7.766
 3987SOL    HW112647   1.917   0.249   7.712
 3987SOL    HW212648   2.024   0.129   7.744
 3988SOL     OW12649   3.045   1.335   7.567
 3988SOL    HW112650   2.946   1.324   7.569
 3988SOL    HW212651   3.079   1.350   7.660
 3989SOL     OW12652   2.475   0.842   8.879
 3989SOL    HW112653   2.531   0.923   8.862
 3989SOL    HW212654   2.534   0.762   8.882
 3990SOL     OW12655   3.355   1.767   8.407
 3990SOL    HW112656   3.388   1.831   8.338
 3990SOL    HW212657   3.421   1.761   8.482
 3991SOL     OW12658   2.578   0.565   9.156
 3991SOL    HW112659   2.597   0.630   9.230
 3991SOL    HW212660   2.638   0.485   9.165
 3992SOL     OW12661   3.312   1.220   9.081
 3992SOL    HW112662   3.303   1.210   9.180
 3992SOL    HW212663   3.408   1.213   9.055
 3993SOL     OW12664   2.252   1.741   9.008
 3993SOL    HW112665   2.161   1.782   9.006
 3993SOL    HW212666   2.245   1.647   9.040
 3994SOL     OW12667   3.536   0.883   8.702
 3994SOL    HW112668   3.509   0.794   8.665
 3994SOL    HW212669   3.537   0.951   8.629
 3995SOL     OW12670   3.087   0.325   7.897
 3995SOL    HW112671   3.152   0.251   7.886
 3995SOL    HW212672   3.107   0.375   7.981
 3996SOL     OW12673   2.456   0.745   8.100
 3996SOL    HW112674   2.506   0.830   8.081
 3996SOL    HW212675   2.368   0.747   8.052
 3997SOL     OW12676   3.639   0.342   9.090
 3997SOL    HW112677   3.622   0.373   8.996
 3997SOL    HW212678   3.555   0.305   9.128
 3998SOL     OW12679   3.592   0.934   8.965
 3998SOL    HW112680   3.630   1.025   8.980
 3998SOL    HW212681   3.584   0.917   8.866
 3999SOL     OW12682   2.721   1.374   7.464
 3999SOL    HW112683   2.675   1.389   7.552
 3999SOL    HW212684   2.765   1.459   7.434
 4000SOL     OW12685   2.523   1.790   8.401
 4000SOL    HW112686   2.477   1.878   8.388
 4000SOL    HW212687   2.622   1.802   8.394
 4001SOL     OW12688   2.721   0.956   8.309
 4001SOL    HW112689   2.775   0.887   8.357
 4001SOL    HW212690   2.689   1.025   8.375
 4002SOL     OW12691   2.945   0.984   7.535
 4002SOL    HW112692   2.922   1.037   7.453
 4002SOL    HW212693   3.026   0.928   7.516
 4003SOL     OW12694   3.723   1.569   8.299
 4003SOL    HW112695   3.652   1.557   8.229
 4003SOL    HW212696   3.724   1.490   8.359
 4004SOL     OW12697   2.083   1.314   9.292
 4004SOL    HW112698   2.018   1.241   9.271
 4004SOL    HW212699   2.087   1.328   9.390
 4005SOL     OW12700   1.941   1.240   8.101
 4005SOL    HW112701   1.940   1.193   8.189
 4005SOL    HW212702   2.023   1.212   8.050
 4006SOL     OW12703   2.534   1.391   9.072
 4006SOL    HW112704   2.456   1.341   9.110
 4006SOL    HW212705   2.531   1.486   9.103
 4007SOL     OW12706   3.686   0.192   8.675
 4007SOL    HW112707   3.682   0.102   8.719
 4007SOL    HW212708   3.689   0.181   8.576
 4008SOL     OW12709   2.290   0.424   7.968
 4008SOL    HW112710   2.320   0.352   7.906
 4008SOL    HW212711   2.251   0.384   8.051
 4009SOL     OW12712   3.567   1.487   8.552
 4009SOL    HW112713   3.474   1.462   8.525
 4009SOL    HW212714   3.593   1.437   8.634
 4010SOL     OW12715   2.179   0.547   8.728
 4010SOL    HW112716   2.217   0.488   8.800
 4010SOL    HW212717   2.219   0.521   8.640
 4011SOL     OW12718   2.674   1.586   8.135
 4011SOL    HW112719   2.706   1.596   8.041
 4011SOL    HW212720   2.595   1.524   8.137
 4012SOL     OW12721   3.286   0.214   8.560
 4012SOL    HW112722   3.338   0.149   8.615
 4012SOL    HW212723   3.237   0.277   8.621
 4013SOL     OW12724   2.863   0.034   8.602
 4013SOL    HW112725   2.800  -0.038   8.571
 4013SOL    HW212726   2.956  -0.002   8.602
 4014SOL     OW12727   2.632   1.330   7.749
 4014SOL    HW112728   2.586   1.243   7.766
 4014SOL    HW212729   2.723   1.327   7.790
 4015SOL     OW12730   2.480   1.567   8.732
 4015SOL    HW112731   2.475   1.649   8.789
 4015SOL    HW212732   2.569   1.564   8.687
 4016SOL     OW12733   3.214   0.052   7.616
 4016SOL    HW112734   3.249   0.011   7.532
 4016SOL    HW212735   3.124   0.014   7.636
 4017SOL     OW12736   3.162   0.453   8.139
 4017SOL    HW112737   3.103   0.533   8.143
 4017SOL    HW212738   3.177   0.418   8.232
 4018SOL     OW12739   3.455   0.221   8.330
 4018SOL    HW112740   3.371   0.220   8.384
 4018SOL    HW212741   3.457   0.304   8.274
 4019SOL     OW12742   1.901   1.077   7.748
 4019SOL    HW112743   2.000   1.066   7.739
 4019SOL    HW212744   1.861   0.991   7.780
 4020SOL     OW12745   2.737   1.646   7.785
 4020SOL    HW112746   2.660   1.611   7.731
 4020SOL    HW212747   2.705   1.717   7.847
 4021SOL     OW12748   2.092   0.628   9.423
 4021SOL    HW112749   1.999   0.626   9.460
 4021SOL    HW212750   2.093   0.589   9.331
 4022SOL     OW12751   2.087   0.275  10.306
 4022SOL    HW112752   2.122   0.258  10.398
 4022SOL    HW212753   1.999   0.230  10.294
 4023SOL     OW12754   1.881   0.368   9.957
 4023SOL    HW112755   1.799   0.411   9.996
 4023SOL    HW212756   1.853   0.295   9.894
 4024SOL     OW12757   2.431   1.275  10.475
 4024SOL    HW112758   2.338   1.268  10.438
 4024SOL    HW212759   2.442   1.364  10.519
 4025SOL     OW12760   3.417   1.511  10.013
 4025SOL    HW112761   3.360   1.495  10.094
 4025SOL    HW212762   3.358   1.521   9.933
 4026SOL     OW12763   2.997   0.703  10.027
 4026SOL    HW112764   3.054   0.781  10.002
 4026SOL    HW212765   2.937   0.729  10.103
 4027SOL     OW12766   3.617   0.607   9.541
 4027SOL    HW112767   3.605   0.594   9.442
 4027SOL    HW212768   3.587   0.526   9.590
 4028SOL     OW12769   2.630   1.144  10.333
 4028SOL    HW112770   2.552   1.161  10.393
 4028SOL    HW212771   2.664   1.231  10.297
 4029SOL     OW12772   2.712   0.798  11.133
 4029SOL    HW112773   2.708   0.874  11.198
 4029SOL    HW212774   2.734   0.834  11.042
 4030SOL     OW12775   2.547   1.012   9.975
 4030SOL    HW112776   2.616   0.996  10.045
 4030SOL    HW212777   2.474   1.069  10.013
 4031SOL     OW12778   2.197   1.435  10.371
 4031SOL    HW112779   2.119   1.404  10.318
 4031SOL    HW212780   2.255   1.493  10.314
 4032SOL     OW12781   3.322   1.505  10.649
 4032SOL    HW112782   3.346   1.599  10.675
 4032SOL    HW212783   3.306   1.451  10.731
 4033SOL     OW12784   2.300   0.392  10.809
 4033SOL    HW112785   2.382   0.336  10.818
 4033SOL    HW212786   2.219   0.334  10.813
 4034SOL     OW12787   3.465   0.447  10.047
 4034SOL    HW112788   3.391   0.493   9.997
 4034SOL    HW212789   3.516   0.515  10.100
 4035SOL     OW12790   2.093   1.713   9.793
 4035SOL    HW112791   2.127   1.790   9.847
 4035SOL    HW212792   2.137   1.713   9.703
 4036SOL     OW12793   2.092   1.434   9.848
 4036SOL    HW112794   2.066   1.530   9.848
 4036SOL    HW212795   2.021   1.380   9.893
 4037SOL     OW12796   2.102   1.091  10.196
 4037SOL    HW112797   2.116   1.007  10.248
 4037SOL    HW212798   2.047   1.155  10.251
 4038SOL     OW12799   2.482   1.786  10.749
 4038SOL    HW112800   2.390   1.769  10.784
 4038SOL    HW212801   2.510   1.878  10.775
 4039SOL     OW12802   2.468   0.964   9.433
 4039SOL    HW112803   2.475   1.048   9.379
 4039SOL    HW212804   2.514   0.977   9.521
 4040SOL     OW12805   3.456   0.114  10.790
 4040SOL    HW112806   3.438   0.181  10.718
 4040SOL    HW212807   3.453   0.160  10.879
 4041SOL     OW12808   1.984   0.643   9.873
 4041SOL    HW112809   1.939   0.555   9.890
 4041SOL    HW212810   1.983   0.697   9.957
 4042SOL     OW12811   3.704   1.767   9.669
 4042SOL    HW112812   3.758   1.738   9.749
 4042SOL    HW212813   3.734   1.857   9.640
 4043SOL     OW12814   1.889   1.596   9.427
 4043SOL    HW112815   1.870   1.500   9.448
 4043SOL    HW212816   1.856   1.654   9.502
 4044SOL     OW12817   3.551   0.922   9.922
 4044SOL    HW112818   3.646   0.893   9.930
 4044SOL    HW212819   3.543   0.987   9.847
 4045SOL     OW12820   3.503   1.108   9.742
 4045SOL    HW112821   3.589   1.110   9.690
 4045SOL    HW212822   3.517   1.155   9.830
 4046SOL     OW12823   1.975   0.737  10.907
 4046SOL    HW112824   2.063   0.724  10.952
 4046SOL    HW212825   1.962   0.834  10.885
 4047SOL     OW12826   2.475   1.365  10.036
 4047SOL    HW112827   2.426   1.278  10.045
 4047SOL    HW212828   2.452   1.408   9.949
 4048SOL     OW12829   3.155   1.228  10.733
 4048SOL    HW112830   3.192   1.155  10.675
 4048SOL    HW212831   3.207   1.233  10.818
 4049SOL     OW12832   2.671   0.004   9.812
 4049SOL    HW112833   2.711   0.095   9.803
 4049SOL    HW212834   2.571   0.012   9.818
 4050SOL     OW12835   2.059   0.976  10.574
 4050SOL    HW112836   2.148   0.931  10.560
 4050SOL    HW212837   1.986   0.911  10.555
 4051SOL     OW12838   3.387   0.999   9.500
 4051SOL    HW112839   3.324   0.923   9.513
 4051SOL    HW212840   3.435   1.017   9.586
 4052SOL     OW12841   3.049   1.792  10.926
 4052SOL    HW112842   3.073   1.852  10.850
 4052SOL    HW212843   3.056   1.697  10.896
 4053SOL     OW12844   2.179   0.251  11.111
 4053SOL    HW112845   2.250   0.322  11.117
 4053SOL    HW212846   2.091   0.290  11.139
 4054SOL     OW12847   3.328   1.417  10.263
 4054SOL    HW112848   3.269   1.423  10.343
 4054SOL    HW212849   3.313   1.329  10.217
 4055SOL     OW12850   3.529   1.714   9.882
 4055SOL    HW112851   3.488   1.691   9.794
 4055SOL    HW212852   3.511   1.640   9.947
 4056SOL     OW12853   2.460   0.729   9.580
 4056SOL    HW112854   2.484   0.798   9.512
 4056SOL    HW212855   2.382   0.762   9.634
 4057SOL     OW12856   3.143   0.345  10.254
 4057SOL    HW112857   3.057   0.295  10.241
 4057SOL    HW212858   3.205   0.291  10.310
 4058SOL     OW12859   3.438   1.662   9.617
 4058SOL    HW112860   3.527   1.708   9.620
 4058SOL    HW212861   3.417   1.638   9.522
 4059SOL     OW12862   2.669   0.605  10.775
 4059SOL    HW112863   2.622   0.602  10.864
 4059SOL    HW212864   2.618   0.550  10.709
 4060SOL     OW12865   2.835   0.890  10.882
 4060SOL    HW112866   2.881   0.806  10.853
 4060SOL    HW212867   2.779   0.924  10.807
 4061SOL     OW12868   2.853   0.410  10.552
 4061SOL    HW112869   2.776   0.444  10.606
 4061SOL    HW212870   2.819   0.359  10.473
 4062SOL     OW12871   2.903   0.701   9.739
 4062SOL    HW112872   2.929   0.697   9.835
 4062SOL    HW212873   2.818   0.650   9.725
 4063SOL     OW12874   1.938   0.811  10.099
 4063SOL    HW112875   2.037   0.799  10.108
 4063SOL    HW212876   1.914   0.906  10.120
 4064SOL     OW12877   1.992   1.821  10.881
 4064SOL    HW112878   1.982   1.806  10.980
 4064SOL    HW212879   1.906   1.857  10.845
 4065SOL     OW12880   2.727   0.348   9.505
 4065SOL    HW112881   2.786   0.411   9.456
 4065SOL    HW212882   2.746   0.254   9.476
 4066SOL     OW12883   3.224   1.144   9.855
 4066SOL    HW112884   3.307   1.115   9.807
 4066SOL    HW212885   3.175   1.211   9.799
 4067SOL     OW12886   2.412   0.196  10.195
 4067SOL    HW112887   2.407   0.191  10.295
 4067SOL    HW212888   2.414   0.292  10.166
 4068SOL     OW12889   2.870   1.456   9.787
 4068SOL    HW112890   2.824   1.528   9.735
 4068SOL    HW212891   2.866   1.476   9.885
 4069SOL     OW12892   2.213   1.801  10.163
 4069SOL    HW112893   2.263   1.715  10.169
 4069SOL    HW212894   2.278   1.878  10.160
 4070SOL     OW12895   3.657   1.066  10.183
 4070SOL    HW112896   3.595   1.051  10.107
 4070SOL    HW212897   3.605   1.077  10.268
 4071SOL     OW12898   3.089   1.550  10.816
 4071SOL    HW112899   3.095   1.473  10.880
 4071SOL    HW212900   3.037   1.524  10.736
 4072SOL     OW12901   2.183   0.943   9.552
 4072SOL    HW112902   2.265   0.982   9.510
 4072SOL    HW212903   2.156   0.861   9.503
 4073SOL     OW12904   3.320   0.735  10.038
 4073SOL    HW112905   3.315   0.670  10.113
 4073SOL    HW212906   3.400   0.794  10.051
 4074SOL     OW12907   2.323   1.266  11.037
 4074SOL    HW112908   2.273   1.267  10.951
 4074SOL    HW212909   2.260   1.248  11.113
 4075SOL     OW12910   2.973   1.776   9.547
 4075SOL    HW112911   2.913   1.714   9.597
 4075SOL    HW212912   3.004   1.732   9.462
 4076SOL     OW12913   2.064   0.285  10.808
 4076SOL    HW112914   1.984   0.345  10.795
 4076SOL    HW212915   2.054   0.236  10.894
 4077SOL     OW12916   3.494   1.377   9.391
 4077SOL    HW112917   3.462   1.471   9.381
 4077SOL    HW212918   3.418   1.314   9.379
 4078SOL     OW12919   2.326   1.743   9.633
 4078SOL    HW112920   2.359   1.782   9.719
 4078SOL    HW212921   2.402   1.736   9.568
 4079SOL     OW12922   3.262   0.107   9.736
 4079SOL    HW112923   3.238   0.070   9.646
 4079SOL    HW212924   3.361   0.123   9.740
 4080SOL     OW12925   2.111   1.785  10.551
 4080SOL    HW112926   2.168   1.720  10.601
 4080SOL    HW212927   2.095   1.752  10.458
 4081SOL     OW12928   2.802   1.698  10.214
 4081SOL    HW112929   2.882   1.641  10.235
 4081SOL    HW212930   2.753   1.658  10.137
 4082SOL     OW12931   2.244   0.700   9.790
 4082SOL    HW112932   2.289   0.610   9.787
 4082SOL    HW212933   2.150   0.689   9.823
 4083SOL     OW12934   2.476   0.122   9.427
 4083SOL    HW112935   2.574   0.100   9.434
 4083SOL    HW212936   2.445   0.105   9.334
 4084SOL     OW12937   2.643   0.264  11.059
 4084SOL    HW112938   2.710   0.203  11.102
 4084SOL    HW212939   2.570   0.283  11.124
 4085SOL     OW12940   2.750   1.514  10.505
 4085SOL    HW112941   2.727   1.489  10.411
 4085SOL    HW212942   2.811   1.445  10.544
 4086SOL     OW12943   3.213   0.590  10.743
 4086SOL    HW112944   3.241   0.547  10.828
 4086SOL    HW212945   3.238   0.686  10.744
 4087SOL     OW12946   2.665   1.402  10.234
 4087SOL    HW112947   2.755   1.416  10.192
 4087SOL    HW212948   2.594   1.404  10.163
 4088SOL     OW12949   2.784   0.503  10.209
 4088SOL    HW112950   2.759   0.494  10.113
 4088SOL    HW212951   2.832   0.421  10.240
 4089SOL     OW12952   2.401   0.064   9.822
 4089SOL    HW112953   2.320   0.065   9.880
 4089SOL    HW212954   2.404   0.147   9.767
 4090SOL     OW12955   3.296   1.188   9.351
 4090SOL    HW112956   3.328   1.112   9.408
 4090SOL    HW212957   3.204   1.215   9.381
 4091SOL     OW12958   2.159   0.035   9.481
 4091SOL    HW112959   2.208   0.119   9.460
 4091SOL    HW212960   2.221  -0.030   9.526
 4092SOL     OW12961   2.797   0.236   9.790
 4092SOL    HW112962   2.749   0.277   9.712
 4092SOL    HW212963   2.896   0.234   9.771
 4093SOL     OW12964   2.938   0.683  10.774
 4093SOL    HW112965   2.858   0.622  10.777
 4093SOL    HW212966   3.019   0.630  10.750
 4094SOL     OW12967   3.089   1.570  10.103
 4094SOL    HW112968   3.110   1.644  10.038
 4094SOL    HW212969   3.157   1.570  10.176
 4095SOL     OW12970   2.321   1.152  10.051
 4095SOL    HW112971   2.250   1.125  10.116
 4095SOL    HW212972   2.295   1.124   9.958
 4096SOL     OW12973   3.133   1.797   9.901
 4096SOL    HW112974   3.177   1.861   9.837
 4096SOL    HW212975   3.083   1.849   9.971
 4097SOL     OW12976   2.894   0.549   9.326
 4097SOL    HW112977   2.853   0.631   9.287
 4097SOL    HW212978   2.958   0.575   9.399
 4098SOL     OW12979   1.940   0.556  10.696
 4098SOL    HW112980   2.032   0.555  10.655
 4098SOL    HW212981   1.934   0.630  10.763
 4099SOL     OW12982   2.423   0.222  10.457
 4099SOL    HW112983   2.461   0.138  10.494
 4099SOL    HW212984   2.335   0.241  10.501
 4100SOL     OW12985   2.728   0.454   9.952
 4100SOL    HW112986   2.696   0.526   9.890
 4100SOL    HW212987   2.752   0.373   9.899
 4101SOL     OW12988   2.879   0.039  10.063
 4101SOL    HW112989   2.807   0.044   9.994
 4101SOL    HW212990   2.855  -0.030  10.132
 4102SOL     OW12991   3.291   1.173  10.177
 4102SOL    HW112992   3.236   1.089  10.170
 4102SOL    HW212993   3.317   1.202  10.085
 4103SOL     OW12994   3.328   0.590  10.302
 4103SOL    HW112995   3.298   0.495  10.309
 4103SOL    HW212996   3.401   0.606  10.368
 4104SOL     OW12997   3.719   0.833   9.687
 4104SOL    HW112998   3.761   0.769   9.751
 4104SOL    HW212999   3.681   0.782   9.609
 4105SOL     OW13000   2.350   1.385   9.484
 4105SOL    HW113001   2.263   1.370   9.531
 4105SOL    HW213002   2.333   1.411   9.389
 4106SOL     OW13003   3.526   1.280   9.967
 4106SOL    HW113004   3.625   1.288   9.981
 4106SOL    HW213005   3.481   1.364   9.998
 4107SOL     OW13006   3.252   0.575   9.388
 4107SOL    HW113007   3.198   0.554   9.469
 4107SOL    HW213008   3.343   0.534   9.397
 4108SOL     OW13009   2.389   0.256   9.638
 4108SOL    HW113010   2.416   0.197   9.563
 4108SOL    HW213011   2.389   0.351   9.607
 4109SOL     OW13012   3.616   1.223  10.898
 4109SOL    HW113013   3.707   1.184  10.885
 4109SOL    HW213014   3.624   1.319  10.922
 4110SOL     OW13015   2.926   1.347  10.650
 4110SOL    HW113016   2.846   1.324  10.705
 4110SOL    HW213017   3.009   1.321  10.699
 4111SOL     OW13018   2.973   1.195  10.410
 4111SOL    HW113019   2.933   1.239  10.491
 4111SOL    HW213020   2.932   1.232  10.327
 4112SOL     OW13021   3.500   1.099  10.389
 4112SOL    HW113022   3.505   1.180  10.448
 4112SOL    HW213023   3.414   1.101  10.338
 4113SOL     OW13024   2.777   0.089  10.712
 4113SOL    HW113025   2.802   0.069  10.617
 4113SOL    HW213026   2.849   0.145  10.754
 4114SOL     OW13027   2.567   1.050   9.678
 4114SOL    HW113028   2.553   1.057   9.777
 4114SOL    HW213029   2.651   0.999   9.660
 4115SOL     OW13030   2.272   0.813  10.561
 4115SOL    HW113031   2.358   0.825  10.611
 4115SOL    HW213032   2.230   0.726  10.588
 4116SOL     OW13033   3.136   0.386  10.572
 4116SOL    HW113034   3.157   0.460  10.636
 4116SOL    HW213035   3.047   0.403  10.529
 4117SOL     OW13036   1.926   1.564  10.641
 4117SOL    HW113037   1.880   1.646  10.607
 4117SOL    HW213038   2.024   1.583  10.650
 4118SOL     OW13039   2.229   1.100   9.811
 4118SOL    HW113040   2.222   1.183   9.755
 4118SOL    HW213041   2.233   1.020   9.751
 4119SOL     OW13042   2.428   0.537  10.175
 4119SOL    HW113043   2.440   0.603  10.101
 4119SOL    HW213044   2.474   0.571  10.258
 4120SOL     OW13045   3.114   1.348   9.698
 4120SOL    HW113046   3.164   1.425   9.738
 4120SOL    HW213047   3.019   1.350   9.730
 4121SOL     OW13048   3.134   1.445  10.452
 4121SOL    HW113049   3.181   1.458  10.539
 4121SOL    HW213050   3.068   1.371  10.461
 4122SOL     OW13051   3.444   0.639   9.782
 4122SOL    HW113052   3.413   0.700   9.855
 4122SOL    HW213053   3.494   0.691   9.713
 4123SOL     OW13054   2.216   1.510  10.639
 4123SOL    HW113055   2.195   1.466  10.552
 4123SOL    HW213056   2.313   1.536  10.642
 4124SOL     OW13057   2.264   0.751  10.908
 4124SOL    HW113058   2.332   0.806  10.861
 4124SOL    HW213059   2.304   0.663  10.935
 4125SOL     OW13060   3.449   0.779  10.980
 4125SOL    HW113061   3.357   0.817  10.975
 4125SOL    HW213062   3.509   0.826  10.915
 4126SOL     OW13063   2.435   0.870  10.339
 4126SOL    HW113064   2.479   0.959  10.330
 4126SOL    HW213065   2.372   0.870  10.416
 4127SOL     OW13066   3.222   0.862  10.355
 4127SOL    HW113067   3.147   0.862  10.289
 4127SOL    HW213068   3.259   0.770  10.364
 4128SOL     OW13069   3.071   0.525   9.585
 4128SOL    HW113070   3.084   0.441   9.639
 4128SOL    HW213071   3.042   0.599   9.645
 4129SOL     OW13072   2.169   0.213  10.541
 4129SOL    HW113073   2.146   0.250  10.631
 4129SOL    HW213074   2.139   0.118  10.535
 4130SOL     OW13075   1.899   1.310  10.592
 4130SOL    HW113076   1.952   1.261  10.660
 4130SOL    HW213077   1.921   1.408  10.597
 4131SOL     OW13078   2.594   0.634  10.374
 4131SOL    HW113079   2.653   0.608  10.298
 4131SOL    HW213080   2.566   0.730  10.363
 4132SOL     OW13081   2.169   0.063   9.928
 4132SOL    HW113082   2.158   0.157   9.961
 4132SOL    HW213083   2.164   0.000  10.005
 4133SOL     OW13084   3.484   0.367   9.684
 4133SOL    HW113085   3.486   0.291   9.748
 4133SOL    HW213086   3.436   0.444   9.724
 4134SOL     OW13087   2.885   0.766  10.276
 4134SOL    HW113088   2.900   0.787  10.372
 4134SOL    HW213089   2.855   0.671  10.267
 4135SOL     OW13090   2.842   1.573  11.010
 4135SOL    HW113091   2.822   1.617  10.922
 4135SOL    HW213092   2.881   1.482  10.994
 4136SOL     OW13093   3.721   1.518  10.915
 4136SOL    HW113094   3.735   1.545  10.820
 4136SOL    HW213095   3.804   1.540  10.968
 4137SOL     OW13096   2.212   0.898  11.114
 4137SOL    HW113097   2.288   0.942  11.162
 4137SOL    HW213098   2.247   0.851  11.032
 4138SOL     OW13099   3.402   0.274   9.435
 4138SOL    HW113100   3.341   0.199   9.458
 4138SOL    HW213101   3.424   0.326   9.518
 4139SOL     OW13102   3.165   0.838   9.352
 4139SOL    HW113103   3.199   0.745   9.367
 4139SOL    HW213104   3.183   0.865   9.257
 4140SOL     OW13105   2.930   1.333  10.159
 4140SOL    HW113106   2.937   1.249  10.104
 4140SOL    HW213107   2.992   1.402  10.123
 4141SOL     OW13108   2.181   0.810  10.259
 4141SOL    HW113109   2.274   0.846  10.264
 4141SOL    HW213110   2.175   0.725  10.311
 4142SOL     OW13111   2.201   0.509  10.316
 4142SOL    HW113112   2.149   0.426  10.299
 4142SOL    HW213113   2.278   0.514  10.252
 4143SOL     OW13114   3.022   0.207  10.787
 4143SOL    HW113115   3.022   0.271  10.864
 4143SOL    HW213116   3.050   0.255  10.704
 4144SOL     OW13117   1.870   1.326   9.510
 4144SOL    HW113118   1.777   1.347   9.479
 4144SOL    HW213119   1.880   1.227   9.523
 4145SOL     OW13120   1.950   1.801  10.237
 4145SOL    HW113121   1.908   1.715  10.210
 4145SOL    HW213122   2.044   1.804  10.203
 4146SOL     OW13123   2.366   1.568  10.220
 4146SOL    HW113124   2.432   1.642  10.229
 4146SOL    HW213125   2.410   1.489  10.178
 4147SOL     OW13126   2.864   0.796  10.548
 4147SOL    HW113127   2.905   0.764  10.634
 4147SOL    HW213128   2.768   0.769  10.545
 4148SOL     OW13129   1.902   0.544  10.424
 4148SOL    HW113130   1.987   0.511  10.383
 4148SOL    HW213131   1.915   0.559  10.522
 4149SOL     OW13132   2.677   0.572   9.635
 4149SOL    HW113133   2.684   0.483   9.589
 4149SOL    HW213134   2.583   0.606   9.627
 4150SOL     OW13135   3.519   0.604  10.516
 4150SOL    HW113136   3.481   0.535  10.578
 4150SOL    HW213137   3.601   0.568  10.472
 4151SOL     OW13138   2.114   1.564  11.054
 4151SOL    HW113139   2.084   1.621  11.130
 4151SOL    HW213140   2.107   1.467  11.080
 4152SOL     OW13141   2.533   0.464  10.579
 4152SOL    HW113142   2.499   0.375  10.549
 4152SOL    HW213143   2.559   0.518  10.499
 4153SOL     OW13144   2.792   1.678  10.775
 4153SOL    HW113145   2.768   1.660  10.680
 4153SOL    HW213146   2.822   1.772  10.785
 4154SOL     OW13147   2.335   0.500   9.501
 4154SOL    HW113148   2.396   0.580   9.505
 4154SOL    HW213149   2.240   0.531   9.508
 4155SOL     OW13150   2.021   1.137  10.776
 4155SOL    HW113151   2.043   1.076  10.852
 4155SOL    HW213152   2.031   1.088  10.690
 4156SOL     OW13153   3.209   1.059  10.544
 4156SOL    HW113154   3.233   0.996  10.470
 4156SOL    HW213155   3.119   1.099  10.526
 4157SOL     OW13156   3.164   0.855   9.619
 4157SOL    HW113157   3.078   0.824   9.661
 4157SOL    HW213158   3.160   0.841   9.520
 4158SOL     OW13159   3.621   1.747  10.464
 4158SOL    HW113160   3.682   1.777  10.391
 4158SOL    HW213161   3.583   1.658  10.442
 4159SOL     OW13162   3.114   1.731  10.438
 4159SOL    HW113163   3.198   1.736  10.384
 4159SOL    HW213164   3.091   1.635  10.456
 4160SOL     OW13165   1.945   1.258  10.332
 4160SOL    HW113166   1.940   1.257  10.432
 4160SOL    HW213167   1.862   1.217  10.294
 4161SOL     OW13168   3.588   0.135   9.833
 4161SOL    HW113169   3.661   0.118   9.766
 4161SOL    HW213170   3.557   0.048   9.871
 4162SOL     OW13171   3.250   1.573   9.787
 4162SOL    HW113172   3.317   1.585   9.713
 4162SOL    HW213173   3.210   1.662   9.810
 4163SOL     OW13174   3.142   0.927   9.982
 4163SOL    HW113175   3.202   0.846   9.984
 4163SOL    HW213176   3.182   0.996   9.922
 4164SOL     OW13177   2.692   1.273  10.732
 4164SOL    HW113178   2.687   1.306  10.827
 4164SOL    HW213179   2.606   1.292  10.686
 4165SOL     OW13180   2.534   1.616   9.464
 4165SOL    HW113181   2.543   1.626   9.365
 4165SOL    HW213182   2.494   1.527   9.485
 4166SOL     OW13183   3.512   1.720  10.704
 4166SOL    HW113184   3.565   1.730  10.620
 4166SOL    HW213185   3.485   1.810  10.738
 4167SOL     OW13186   3.703   0.175  10.273
 4167SOL    HW113187   3.742   0.090  10.237
 4167SOL    HW213188   3.605   0.177  10.254
 4168SOL     OW13189   2.125   0.326  10.030
 4168SOL    HW113190   2.046   0.377   9.996
 4168SOL    HW213191   2.116   0.311  10.128
 4169SOL     OW13192   3.056   1.612   9.341
 4169SOL    HW113193   3.062   1.519   9.378
 4169SOL    HW213194   2.997   1.612   9.261
 4170SOL     OW13195   2.684   1.002  10.682
 4170SOL    HW113196   2.724   1.001  10.590
 4170SOL    HW213197   2.694   1.094  10.722
 4171SOL     OW13198   2.778   0.910   9.601
 4171SOL    HW113199   2.841   0.948   9.533
 4171SOL    HW213200   2.818   0.827   9.640
 4172SOL     OW13201   3.366   1.607   9.354
 4172SOL    HW113202   3.274   1.644   9.361
 4172SOL    HW213203   3.404   1.627   9.264
 4173SOL     OW13204   2.234   1.288  10.800
 4173SOL    HW113205   2.221   1.381  10.766
 4173SOL    HW213206   2.150   1.236  10.787
 4174SOL     OW13207   3.476   1.292  10.599
 4174SOL    HW113208   3.536   1.295  10.679
 4174SOL    HW213209   3.401   1.356  10.612
 4175SOL     OW13210   2.901   1.098  10.006
 4175SOL    HW113211   2.831   1.051  10.060
 4175SOL    HW213212   2.960   1.030   9.963
 4176SOL     OW13213   2.876   0.236  10.281
 4176SOL    HW113214   2.868   0.200  10.188
 4176SOL    HW213215   2.874   0.160  10.346
 4177SOL     OW13216   2.452   1.487   9.801
 4177SOL    HW113217   2.494   1.429   9.731
 4177SOL    HW213218   2.408   1.566   9.757
 4178SOL     OW13219   3.571   0.385  10.691
 4178SOL    HW113220   3.644   0.454  10.695
 4178SOL    HW213221   3.599   0.310  10.632
 4179SOL     OW13222   2.117   1.348   9.600
 4179SOL    HW113223   2.021   1.349   9.573
 4179SOL    HW213224   2.129   1.401   9.684
 4180SOL     OW13225   1.967   1.013  11.036
 4180SOL    HW113226   1.890   0.980  11.090
 4180SOL    HW213227   2.052   0.983  11.078
 4181SOL     OW13228   2.534   0.203  10.799
 4181SOL    HW113229   2.624   0.187  10.759
 4181SOL    HW213230   2.542   0.208  10.898
 4182SOL     OW13231   1.937   0.345   9.343
 4182SOL    HW113232   1.845   0.317   9.314
 4182SOL    HW213233   1.968   0.422   9.287
 4183SOL     OW13234   3.302   0.856  10.708
 4183SOL    HW113235   3.245   0.908  10.645
 4183SOL    HW213236   3.398   0.868  10.684
 4184SOL     OW13237   1.934   0.166   9.628
 4184SOL    HW113238   1.917   0.249   9.574
 4184SOL    HW213239   2.024   0.129   9.606
 4185SOL     OW13240   3.045   1.335   9.429
 4185SOL    HW113241   2.946   1.324   9.431
 4185SOL    HW213242   3.079   1.350   9.522
 4186SOL     OW13243   2.475   0.842  10.741
 4186SOL    HW113244   2.531   0.923  10.724
 4186SOL    HW213245   2.534   0.762  10.744
 4187SOL     OW13246   3.355   1.767  10.269
 4187SOL    HW113247   3.388   1.831  10.200
 4187SOL    HW213248   3.421   1.761  10.344
 4188SOL     OW13249   2.578   0.565  11.018
 4188SOL    HW113250   2.597   0.630  11.092
 4188SOL    HW213251   2.638   0.485  11.027
 4189SOL     OW13252   2.252   1.741  10.870
 4189SOL    HW113253   2.161   1.782  10.868
 4189SOL    HW213254   2.245   1.647  10.902
 4190SOL     OW13255   3.536   0.883  10.564
 4190SOL    HW113256   3.509   0.794  10.527
 4190SOL    HW213257   3.537   0.951  10.491
 4191SOL     OW13258   3.087   0.325   9.759
 4191SOL    HW113259   3.152   0.251   9.748
 4191SOL    HW213260   3.107   0.375   9.843
 4192SOL     OW13261   2.456   0.745   9.962
 4192SOL    HW113262   2.506   0.830   9.943
 4192SOL    HW213263   2.368   0.747   9.914
 4193SOL     OW13264   3.639   0.342  10.952
 4193SOL    HW113265   3.622   0.373  10.858
 4193SOL    HW213266   3.555   0.305  10.990
 4194SOL     OW13267   3.592   0.934  10.827
 4194SOL    HW113268   3.630   1.025  10.842
 4194SOL    HW213269   3.584   0.917  10.728
 4195SOL     OW13270   2.721   1.374   9.326
 4195SOL    HW113271   2.675   1.389   9.414
 4195SOL    HW213272   2.765   1.459   9.296
 4196SOL     OW13273   2.523   1.790  10.263
 4196SOL    HW113274   2.477   1.878  10.250
 4196SOL    HW213275   2.622   1.802  10.256
 4197SOL     OW13276   2.721   0.956  10.171
 4197SOL    HW113277   2.775   0.887  10.219
 4197SOL    HW213278   2.689   1.025  10.237
 4198SOL     OW13279   2.945   0.984   9.397
 4198SOL    HW113280   2.922   1.037   9.315
 4198SOL    HW213281   3.026   0.928   9.378
 4199SOL     OW13282   3.723   1.569  10.161
 4199SOL    HW113283   3.652   1.557  10.091
 4199SOL    HW213284   3.724   1.490  10.221
 4200SOL     OW13285   1.941   1.240   9.963
 4200SOL    HW113286   1.940   1.193  10.051
 4200SOL    HW213287   2.023   1.212   9.912
 4201SOL     OW13288   2.534   1.391  10.934
 4201SOL    HW113289   2.456   1.341  10.972
 4201SOL    HW213290   2.531   1.486  10.965
 4202SOL     OW13291   3.686   0.192  10.537
 4202SOL    HW113292   3.682   0.102  10.581
 4202SOL    HW213293   3.689   0.181  10.438
 4203SOL     OW13294   2.290   0.424   9.830
 4203SOL    HW113295   2.320   0.352   9.768
 4203SOL    HW213296   2.251   0.384   9.913
 4204SOL     OW13297   3.567   1.487  10.414
 4204SOL    HW113298   3.474   1.462  10.387
 4204SOL    HW213299   3.593   1.437  10.496
 4205SOL     OW13300   2.179   0.547  10.590
 4205SOL    HW113301   2.217   0.488  10.662
 4205SOL    HW213302   2.219   0.521  10.502
 4206SOL     OW13303   2.674   1.586   9.997
 4206SOL    HW113304   2.706   1.596   9.903
 4206SOL    HW213305   2.595   1.524   9.999
 4207SOL     OW13306   3.286   0.214  10.422
 4207SOL    HW113307   3.338   0.149  10.477
 4207SOL    HW213308   3.237   0.277  10.483
 4208SOL     OW13309   2.863   0.034  10.464
 4208SOL    HW113310   2.800  -0.038  10.433
 4208SOL    HW213311   2.956  -0.002  10.464
 4209SOL     OW13312   2.632   1.330   9.611
 4209SOL    HW113313   2.586   1.243   9.628
 4209SOL    HW213314   2.723   1.327   9.652
 4210SOL     OW13315   2.480   1.567  10.594
 4210SOL    HW113316   2.475   1.649  10.651
 4210SOL    HW213317   2.569   1.564  10.549
 4211SOL     OW13318   3.214   0.052   9.478
 4211SOL    HW113319   3.249   0.011   9.394
 4211SOL    HW213320   3.124   0.014   9.498
 4212SOL     OW13321   3.162   0.453  10.001
 4212SOL    HW113322   3.103   0.533  10.005
 4212SOL    HW213323   3.177   0.418  10.094
 4213SOL     OW13324   3.455   0.221  10.192
 4213SOL    HW113325   3.371   0.220  10.246
 4213SOL    HW213326   3.457   0.304  10.136
 4214SOL     OW13327   1.901   1.077   9.610
 4214SOL    HW113328   2.000   1.066   9.601
 4214SOL    HW213329   1.861   0.991   9.642
 4215SOL     OW13330   2.737   1.646   9.647
 4215SOL    HW113331   2.660   1.611   9.593
 4215SOL    HW213332   2.705   1.717   9.709
 4216SOL     OW13333   2.092   2.490   0.113
 4216SOL    HW113334   1.999   2.488   0.150
 4216SOL    HW213335   2.093   2.451   0.021
 4217SOL     OW13336   1.881   2.230   0.647
 4217SOL    HW113337   1.799   2.273   0.686
 4217SOL    HW213338   1.853   2.157   0.584
 4218SOL     OW13339   2.431   3.137   1.165
 4218SOL    HW113340   2.338   3.130   1.128
 4218SOL    HW213341   2.442   3.226   1.209
 4219SOL     OW13342   3.417   3.373   0.703
 4219SOL    HW113343   3.360   3.357   0.784
 4219SOL    HW213344   3.358   3.383   0.623
 4220SOL     OW13345   2.997   2.565   0.717
 4220SOL    HW113346   3.054   2.643   0.692
 4220SOL    HW213347   2.937   2.591   0.793
 4221SOL     OW13348   3.617   2.469   0.231
 4221SOL    HW113349   3.605   2.456   0.132
 4221SOL    HW213350   3.587   2.388   0.280
 4222SOL     OW13351   2.630   3.006   1.023
 4222SOL    HW113352   2.552   3.023   1.083
 4222SOL    HW213353   2.664   3.093   0.987
 4223SOL     OW13354   2.712   2.660   1.823
 4223SOL    HW113355   2.708   2.736   1.888
 4223SOL    HW213356   2.734   2.696   1.732
 4224SOL     OW13357   2.547   2.874   0.665
 4224SOL    HW113358   2.616   2.858   0.735
 4224SOL    HW213359   2.474   2.931   0.703
 4225SOL     OW13360   2.548   3.023   1.803
 4225SOL    HW113361   2.608   3.102   1.817
 4225SOL    HW213362   2.462   3.054   1.762
 4226SOL     OW13363   2.197   3.297   1.061
 4226SOL    HW113364   2.119   3.266   1.008
 4226SOL    HW213365   2.255   3.355   1.004
 4227SOL     OW13366   3.322   3.367   1.339
 4227SOL    HW113367   3.346   3.461   1.365
 4227SOL    HW213368   3.306   3.313   1.421
 4228SOL     OW13369   3.465   2.309   0.737
 4228SOL    HW113370   3.391   2.355   0.687
 4228SOL    HW213371   3.516   2.377   0.790
 4229SOL     OW13372   2.093   3.575   0.483
 4229SOL    HW113373   2.127   3.652   0.537
 4229SOL    HW213374   2.137   3.575   0.393
 4230SOL     OW13375   2.989   3.203   1.690
 4230SOL    HW113376   3.036   3.203   1.778
 4230SOL    HW213377   2.941   3.116   1.679
 4231SOL     OW13378   2.092   3.296   0.538
 4231SOL    HW113379   2.066   3.392   0.538
 4231SOL    HW213380   2.021   3.242   0.583
 4232SOL     OW13381   2.102   2.953   0.886
 4232SOL    HW113382   2.116   2.869   0.938
 4232SOL    HW213383   2.047   3.017   0.941
 4233SOL     OW13384   2.482   3.648   1.439
 4233SOL    HW113385   2.390   3.631   1.474
 4233SOL    HW213386   2.510   3.740   1.465
 4234SOL     OW13387   2.468   2.826   0.123
 4234SOL    HW113388   2.475   2.910   0.069
 4234SOL    HW213389   2.514   2.839   0.211
 4235SOL     OW13390   3.456   1.976   1.480
 4235SOL    HW113391   3.438   2.043   1.408
 4235SOL    HW213392   3.453   2.022   1.569
 4236SOL     OW13393   1.984   2.505   0.563
 4236SOL    HW113394   1.939   2.417   0.580
 4236SOL    HW213395   1.983   2.559   0.647
 4237SOL     OW13396   3.704   3.629   0.359
 4237SOL    HW113397   3.758   3.600   0.439
 4237SOL    HW213398   3.734   3.719   0.330
 4238SOL     OW13399   1.889   3.458   0.117
 4238SOL    HW113400   1.870   3.362   0.138
 4238SOL    HW213401   1.856   3.516   0.192
 4239SOL     OW13402   3.551   2.784   0.612
 4239SOL    HW113403   3.646   2.755   0.620
 4239SOL    HW213404   3.543   2.849   0.537
 4240SOL     OW13405   3.503   2.970   0.432
 4240SOL    HW113406   3.589   2.972   0.380
 4240SOL    HW213407   3.517   3.017   0.520
 4241SOL     OW13408   1.975   2.599   1.597
 4241SOL    HW113409   2.063   2.586   1.642
 4241SOL    HW213410   1.962   2.696   1.575
 4242SOL     OW13411   2.475   3.227   0.726
 4242SOL    HW113412   2.426   3.140   0.735
 4242SOL    HW213413   2.452   3.270   0.639
 4243SOL     OW13414   3.155   3.090   1.423
 4243SOL    HW113415   3.192   3.017   1.365
 4243SOL    HW213416   3.207   3.095   1.508
 4244SOL     OW13417   2.671   1.866   0.502
 4244SOL    HW113418   2.711   1.957   0.493
 4244SOL    HW213419   2.571   1.874   0.508
 4245SOL     OW13420   2.059   2.838   1.264
 4245SOL    HW113421   2.148   2.793   1.250
 4245SOL    HW213422   1.986   2.773   1.245
 4246SOL     OW13423   3.387   2.861   0.190
 4246SOL    HW113424   3.324   2.785   0.203
 4246SOL    HW213425   3.435   2.879   0.276
 4247SOL     OW13426   3.049   3.654   1.616
 4247SOL    HW113427   3.073   3.714   1.540
 4247SOL    HW213428   3.056   3.559   1.586
 4248SOL     OW13429   3.328   3.279   0.953
 4248SOL    HW113430   3.269   3.285   1.033
 4248SOL    HW213431   3.313   3.191   0.907
 4249SOL     OW13432   3.529   3.576   0.572
 4249SOL    HW113433   3.488   3.553   0.484
 4249SOL    HW213434   3.511   3.502   0.637
 4250SOL     OW13435   2.460   2.591   0.270
 4250SOL    HW113436   2.484   2.660   0.202
 4250SOL    HW213437   2.382   2.624   0.324
 4251SOL     OW13438   3.143   2.207   0.944
 4251SOL    HW113439   3.057   2.157   0.931
 4251SOL    HW213440   3.205   2.153   1.000
 4252SOL     OW13441   3.438   3.524   0.307
 4252SOL    HW113442   3.527   3.570   0.310
 4252SOL    HW213443   3.417   3.500   0.212
 4253SOL     OW13444   2.669   2.467   1.465
 4253SOL    HW113445   2.622   2.464   1.554
 4253SOL    HW213446   2.618   2.412   1.399
 4254SOL     OW13447   3.256   2.331   1.674
 4254SOL    HW113448   3.236   2.374   1.762
 4254SOL    HW213449   3.334   2.269   1.683
 4255SOL     OW13450   2.835   2.752   1.572
 4255SOL    HW113451   2.881   2.668   1.543
 4255SOL    HW213452   2.779   2.786   1.497
 4256SOL     OW13453   2.853   2.272   1.242
 4256SOL    HW113454   2.776   2.306   1.296
 4256SOL    HW213455   2.819   2.221   1.163
 4257SOL     OW13456   2.903   2.563   0.429
 4257SOL    HW113457   2.929   2.559   0.525
 4257SOL    HW213458   2.818   2.512   0.415
 4258SOL     OW13459   1.938   2.673   0.789
 4258SOL    HW113460   2.037   2.661   0.798
 4258SOL    HW213461   1.914   2.768   0.810
 4259SOL     OW13462   1.992   3.683   1.571
 4259SOL    HW113463   1.982   3.668   1.670
 4259SOL    HW213464   1.906   3.719   1.535
 4260SOL     OW13465   2.727   2.210   0.195
 4260SOL    HW113466   2.786   2.273   0.146
 4260SOL    HW213467   2.746   2.116   0.166
 4261SOL     OW13468   3.581   2.447   1.831
 4261SOL    HW113469   3.555   2.536   1.795
 4261SOL    HW213470   3.579   2.379   1.758
 4262SOL     OW13471   3.224   3.006   0.545
 4262SOL    HW113472   3.307   2.977   0.497
 4262SOL    HW213473   3.175   3.073   0.489
 4263SOL     OW13474   2.870   3.318   0.477
 4263SOL    HW113475   2.824   3.390   0.425
 4263SOL    HW213476   2.866   3.338   0.575
 4264SOL     OW13477   2.213   3.663   0.853
 4264SOL    HW113478   2.263   3.577   0.859
 4264SOL    HW213479   2.278   3.740   0.850
 4265SOL     OW13480   3.657   2.928   0.873
 4265SOL    HW113481   3.595   2.913   0.797
 4265SOL    HW213482   3.605   2.939   0.958
 4266SOL     OW13483   3.089   3.412   1.506
 4266SOL    HW113484   3.095   3.335   1.570
 4266SOL    HW213485   3.037   3.386   1.426
 4267SOL     OW13486   2.183   2.805   0.242
 4267SOL    HW113487   2.265   2.844   0.200
 4267SOL    HW213488   2.156   2.723   0.193
 4268SOL     OW13489   3.320   2.597   0.728
 4268SOL    HW113490   3.315   2.532   0.803
 4268SOL    HW213491   3.400   2.656   0.741
 4269SOL     OW13492   2.323   3.128   1.727
 4269SOL    HW113493   2.273   3.129   1.641
 4269SOL    HW213494   2.260   3.110   1.803
 4270SOL     OW13495   2.973   3.638   0.237
 4270SOL    HW113496   2.913   3.576   0.287
 4270SOL    HW213497   3.004   3.594   0.152
 4271SOL     OW13498   2.064   2.147   1.498
 4271SOL    HW113499   1.984   2.207   1.485
 4271SOL    HW213500   2.054   2.098   1.584
 4272SOL     OW13501   3.494   3.239   0.081
 4272SOL    HW113502   3.462   3.333   0.071
 4272SOL    HW213503   3.418   3.176   0.069
 4273SOL     OW13504   2.326   3.605   0.323
 4273SOL    HW113505   2.359   3.644   0.409
 4273SOL    HW213506   2.402   3.598   0.258
 4274SOL     OW13507   3.262   1.969   0.426
 4274SOL    HW113508   3.238   1.932   0.336
 4274SOL    HW213509   3.361   1.985   0.430
 4275SOL     OW13510   2.111   3.647   1.241
 4275SOL    HW113511   2.168   3.582   1.291
 4275SOL    HW213512   2.095   3.614   1.148
 4276SOL     OW13513   2.802   3.560   0.904
 4276SOL    HW113514   2.882   3.503   0.925
 4276SOL    HW213515   2.753   3.520   0.827
 4277SOL     OW13516   2.244   2.562   0.480
 4277SOL    HW113517   2.289   2.472   0.477
 4277SOL    HW213518   2.150   2.551   0.513
 4278SOL     OW13519   3.409   2.084   1.729
 4278SOL    HW113520   3.404   2.121   1.821
 4278SOL    HW213521   3.337   2.015   1.717
 4279SOL     OW13522   2.476   1.984   0.117
 4279SOL    HW113523   2.574   1.962   0.124
 4279SOL    HW213524   2.445   1.967   0.024
 4280SOL     OW13525   2.643   2.126   1.749
 4280SOL    HW113526   2.710   2.065   1.792
 4280SOL    HW213527   2.570   2.145   1.814
 4281SOL     OW13528   2.750   3.376   1.195
 4281SOL    HW113529   2.727   3.351   1.101
 4281SOL    HW213530   2.811   3.307   1.234
 4282SOL     OW13531   3.213   2.452   1.433
 4282SOL    HW113532   3.241   2.409   1.518
 4282SOL    HW213533   3.238   2.548   1.434
 4283SOL     OW13534   2.665   3.264   0.924
 4283SOL    HW113535   2.755   3.278   0.882
 4283SOL    HW213536   2.594   3.266   0.853
 4284SOL     OW13537   2.784   2.365   0.899
 4284SOL    HW113538   2.759   2.356   0.803
 4284SOL    HW213539   2.832   2.283   0.930
 4285SOL     OW13540   2.401   1.926   0.512
 4285SOL    HW113541   2.320   1.927   0.570
 4285SOL    HW213542   2.404   2.009   0.457
 4286SOL     OW13543   3.296   3.050   0.041
 4286SOL    HW113544   3.328   2.974   0.098
 4286SOL    HW213545   3.204   3.077   0.071
 4287SOL     OW13546   2.159   1.897   0.171
 4287SOL    HW113547   2.208   1.981   0.150
 4287SOL    HW213548   2.221   1.832   0.216
 4288SOL     OW13549   2.797   2.098   0.480
 4288SOL    HW113550   2.749   2.139   0.402
 4288SOL    HW213551   2.896   2.096   0.461
 4289SOL     OW13552   2.938   2.545   1.464
 4289SOL    HW113553   2.858   2.484   1.467
 4289SOL    HW213554   3.019   2.492   1.440
 4290SOL     OW13555   3.089   3.432   0.793
 4290SOL    HW113556   3.110   3.506   0.728
 4290SOL    HW213557   3.157   3.432   0.866
 4291SOL     OW13558   2.321   3.014   0.741
 4291SOL    HW113559   2.250   2.987   0.806
 4291SOL    HW213560   2.295   2.986   0.648
 4292SOL     OW13561   3.133   3.659   0.591
 4292SOL    HW113562   3.177   3.723   0.527
 4292SOL    HW213563   3.083   3.711   0.661
 4293SOL     OW13564   2.894   2.411   0.016
 4293SOL    HW113565   2.853   2.493  -0.023
 4293SOL    HW213566   2.958   2.437   0.089
 4294SOL     OW13567   1.940   2.418   1.386
 4294SOL    HW113568   2.032   2.417   1.345
 4294SOL    HW213569   1.934   2.492   1.453
 4295SOL     OW13570   2.423   2.084   1.147
 4295SOL    HW113571   2.461   2.000   1.184
 4295SOL    HW213572   2.335   2.103   1.191
 4296SOL     OW13573   2.728   2.316   0.642
 4296SOL    HW113574   2.696   2.388   0.580
 4296SOL    HW213575   2.752   2.235   0.589
 4297SOL     OW13576   2.879   1.901   0.753
 4297SOL    HW113577   2.807   1.906   0.684
 4297SOL    HW213578   2.855   1.832   0.822
 4298SOL     OW13579   3.291   3.035   0.867
 4298SOL    HW113580   3.236   2.951   0.860
 4298SOL    HW213581   3.317   3.064   0.775
 4299SOL     OW13582   3.328   2.452   0.992
 4299SOL    HW113583   3.298   2.357   0.999
 4299SOL    HW213584   3.401   2.468   1.058
 4300SOL     OW13585   3.719   2.695   0.377
 4300SOL    HW113586   3.761   2.631   0.441
 4300SOL    HW213587   3.681   2.644   0.299
 4301SOL     OW13588   2.350   3.247   0.174
 4301SOL    HW113589   2.263   3.232   0.221
 4301SOL    HW213590   2.333   3.273   0.079
 4302SOL     OW13591   3.526   3.142   0.657
 4302SOL    HW113592   3.625   3.150   0.671
 4302SOL    HW213593   3.481   3.226   0.688
 4303SOL     OW13594   3.252   2.437   0.078
 4303SOL    HW113595   3.198   2.416   0.159
 4303SOL    HW213596   3.343   2.396   0.087
 4304SOL     OW13597   3.616   3.085   1.588
 4304SOL    HW113598   3.707   3.046   1.575
 4304SOL    HW213599   3.624   3.181   1.612
 4305SOL     OW13600   2.926   3.209   1.340
 4305SOL    HW113601   2.846   3.186   1.395
 4305SOL    HW213602   3.009   3.183   1.389
 4306SOL     OW13603   3.454   3.491   1.625
 4306SOL    HW113604   3.481   3.525   1.535
 4306SOL    HW213605   3.533   3.453   1.671
 4307SOL     OW13606   2.973   3.057   1.100
 4307SOL    HW113607   2.933   3.101   1.181
 4307SOL    HW213608   2.932   3.094   1.017
 4308SOL     OW13609   3.500   2.961   1.079
 4308SOL    HW113610   3.505   3.042   1.138
 4308SOL    HW213611   3.414   2.963   1.028
 4309SOL     OW13612   2.777   1.951   1.402
 4309SOL    HW113613   2.802   1.931   1.307
 4309SOL    HW213614   2.849   2.007   1.444
 4310SOL     OW13615   2.842   2.978   1.719
 4310SOL    HW113616   2.743   2.984   1.729
 4310SOL    HW213617   2.865   2.898   1.663
 4311SOL     OW13618   2.567   2.912   0.368
 4311SOL    HW113619   2.553   2.919   0.467
 4311SOL    HW213620   2.651   2.861   0.350
 4312SOL     OW13621   2.272   2.675   1.251
 4312SOL    HW113622   2.358   2.687   1.301
 4312SOL    HW213623   2.230   2.588   1.278
 4313SOL     OW13624   3.136   2.248   1.262
 4313SOL    HW113625   3.157   2.322   1.326
 4313SOL    HW213626   3.047   2.265   1.219
 4314SOL     OW13627   1.926   3.426   1.331
 4314SOL    HW113628   1.880   3.508   1.297
 4314SOL    HW213629   2.024   3.445   1.340
 4315SOL     OW13630   2.229   2.962   0.501
 4315SOL    HW113631   2.222   3.045   0.445
 4315SOL    HW213632   2.233   2.882   0.441
 4316SOL     OW13633   3.114   3.210   0.388
 4316SOL    HW113634   3.164   3.287   0.428
 4316SOL    HW213635   3.019   3.212   0.420
 4317SOL     OW13636   3.134   3.307   1.142
 4317SOL    HW113637   3.181   3.320   1.229
 4317SOL    HW213638   3.068   3.233   1.151
 4318SOL     OW13639   3.444   2.501   0.472
 4318SOL    HW113640   3.413   2.562   0.545
 4318SOL    HW213641   3.494   2.553   0.403
 4319SOL     OW13642   2.216   3.372   1.329
 4319SOL    HW113643   2.195   3.328   1.242
 4319SOL    HW213644   2.313   3.398   1.332
 4320SOL     OW13645   2.264   2.613   1.598
 4320SOL    HW113646   2.332   2.668   1.551
 4320SOL    HW213647   2.304   2.525   1.625
 4321SOL     OW13648   3.449   2.641   1.670
 4321SOL    HW113649   3.357   2.679   1.665
 4321SOL    HW213650   3.509   2.688   1.605
 4322SOL     OW13651   2.875   1.967   1.770
 4322SOL    HW113652   2.881   2.052   1.718
 4322SOL    HW213653   2.907   1.891   1.713
 4323SOL     OW13654   2.366   1.912   1.740
 4323SOL    HW113655   2.324   1.855   1.670
 4323SOL    HW213656   2.300   1.981   1.772
 4324SOL     OW13657   2.435   2.732   1.029
 4324SOL    HW113658   2.479   2.821   1.020
 4324SOL    HW213659   2.372   2.732   1.106
 4325SOL     OW13660   3.222   2.724   1.045
 4325SOL    HW113661   3.147   2.724   0.979
 4325SOL    HW213662   3.259   2.632   1.054
 4326SOL     OW13663   3.071   2.387   0.275
 4326SOL    HW113664   3.084   2.303   0.329
 4326SOL    HW213665   3.042   2.461   0.335
 4327SOL     OW13666   1.899   3.172   1.282
 4327SOL    HW113667   1.952   3.123   1.350
 4327SOL    HW213668   1.921   3.270   1.287
 4328SOL     OW13669   2.594   2.496   1.064
 4328SOL    HW113670   2.653   2.470   0.988
 4328SOL    HW213671   2.566   2.592   1.053
 4329SOL     OW13672   3.590   2.797   1.854
 4329SOL    HW113673   3.544   2.790   1.765
 4329SOL    HW213674   3.528   2.841   1.920
 4330SOL     OW13675   2.169   1.925   0.618
 4330SOL    HW113676   2.158   2.019   0.651
 4330SOL    HW213677   2.164   1.862   0.695
 4331SOL     OW13678   3.484   2.229   0.374
 4331SOL    HW113679   3.486   2.153   0.438
 4331SOL    HW213680   3.436   2.306   0.414
 4332SOL     OW13681   2.885   2.628   0.966
 4332SOL    HW113682   2.900   2.649   1.062
 4332SOL    HW213683   2.855   2.533   0.957
 4333SOL     OW13684   2.842   3.435   1.700
 4333SOL    HW113685   2.822   3.479   1.612
 4333SOL    HW213686   2.881   3.344   1.684
 4334SOL     OW13687   3.721   3.380   1.605
 4334SOL    HW113688   3.735   3.407   1.510
 4334SOL    HW213689   3.804   3.402   1.658
 4335SOL     OW13690   2.212   2.760   1.804
 4335SOL    HW113691   2.288   2.804   1.852
 4335SOL    HW213692   2.247   2.713   1.722
 4336SOL     OW13693   3.402   2.136   0.125
 4336SOL    HW113694   3.341   2.061   0.148
 4336SOL    HW213695   3.424   2.188   0.208
 4337SOL     OW13696   3.165   2.700   0.042
 4337SOL    HW113697   3.199   2.607   0.057
 4337SOL    HW213698   3.183   2.727  -0.053
 4338SOL     OW13699   2.930   3.195   0.849
 4338SOL    HW113700   2.937   3.111   0.794
 4338SOL    HW213701   2.992   3.264   0.813
 4339SOL     OW13702   2.181   2.672   0.949
 4339SOL    HW113703   2.274   2.708   0.954
 4339SOL    HW213704   2.175   2.587   1.001
 4340SOL     OW13705   3.000   2.242   1.678
 4340SOL    HW113706   2.955   2.305   1.742
 4340SOL    HW213707   3.093   2.273   1.661
 4341SOL     OW13708   3.022   2.069   1.477
 4341SOL    HW113709   3.022   2.133   1.554
 4341SOL    HW213710   3.050   2.117   1.394
 4342SOL     OW13711   1.870   3.188   0.200
 4342SOL    HW113712   1.777   3.209   0.169
 4342SOL    HW213713   1.880   3.089   0.213
 4343SOL     OW13714   1.950   3.663   0.927
 4343SOL    HW113715   1.908   3.577   0.900
 4343SOL    HW213716   2.044   3.666   0.893
 4344SOL     OW13717   2.366   3.430   0.910
 4344SOL    HW113718   2.432   3.504   0.919
 4344SOL    HW213719   2.410   3.351   0.868
 4345SOL     OW13720   2.864   2.658   1.238
 4345SOL    HW113721   2.905   2.626   1.324
 4345SOL    HW213722   2.768   2.631   1.235
 4346SOL     OW13723   1.902   2.406   1.114
 4346SOL    HW113724   1.987   2.373   1.073
 4346SOL    HW213725   1.915   2.421   1.212
 4347SOL     OW13726   3.231   2.812   1.660
 4347SOL    HW113727   3.270   2.901   1.680
 4347SOL    HW213728   3.241   2.792   1.563
 4348SOL     OW13729   2.677   2.434   0.325
 4348SOL    HW113730   2.684   2.345   0.279
 4348SOL    HW213731   2.583   2.468   0.317
 4349SOL     OW13732   3.519   2.466   1.206
 4349SOL    HW113733   3.481   2.397   1.268
 4349SOL    HW213734   3.601   2.430   1.162
 4350SOL     OW13735   2.114   3.426   1.744
 4350SOL    HW113736   2.084   3.483   1.820
 4350SOL    HW213737   2.107   3.329   1.770
 4351SOL     OW13738   2.533   2.326   1.269
 4351SOL    HW113739   2.499   2.237   1.239
 4351SOL    HW213740   2.559   2.380   1.189
 4352SOL     OW13741   2.792   3.540   1.465
 4352SOL    HW113742   2.768   3.522   1.370
 4352SOL    HW213743   2.822   3.634   1.475
 4353SOL     OW13744   2.021   2.999   1.466
 4353SOL    HW113745   2.043   2.938   1.542
 4353SOL    HW213746   2.031   2.950   1.380
 4354SOL     OW13747   3.209   2.921   1.234
 4354SOL    HW113748   3.233   2.858   1.160
 4354SOL    HW213749   3.119   2.961   1.216
 4355SOL     OW13750   3.164   2.717   0.309
 4355SOL    HW113751   3.078   2.686   0.351
 4355SOL    HW213752   3.160   2.703   0.210
 4356SOL     OW13753   3.621   3.609   1.154
 4356SOL    HW113754   3.682   3.639   1.081
 4356SOL    HW213755   3.583   3.520   1.132
 4357SOL     OW13756   3.114   3.593   1.128
 4357SOL    HW113757   3.198   3.598   1.074
 4357SOL    HW213758   3.091   3.497   1.146
 4358SOL     OW13759   1.945   3.120   1.022
 4358SOL    HW113760   1.940   3.119   1.122
 4358SOL    HW213761   1.862   3.079   0.984
 4359SOL     OW13762   2.550   3.524   1.716
 4359SOL    HW113763   2.494   3.605   1.725
 4359SOL    HW213764   2.602   3.528   1.630
 4360SOL     OW13765   2.765   1.948   0.133
 4360SOL    HW113766   2.816   1.949   0.047
 4360SOL    HW213767   2.821   1.906   0.204
 4361SOL     OW13768   3.588   1.997   0.523
 4361SOL    HW113769   3.661   1.980   0.456
 4361SOL    HW213770   3.557   1.910   0.561
 4362SOL     OW13771   3.250   3.435   0.477
 4362SOL    HW113772   3.317   3.447   0.403
 4362SOL    HW213773   3.210   3.524   0.500
 4363SOL     OW13774   1.992   3.656   1.851
 4363SOL    HW113775   1.951   3.582   1.904
 4363SOL    HW213776   2.056   3.707   1.909
 4364SOL     OW13777   3.142   2.789   0.672
 4364SOL    HW113778   3.202   2.708   0.674
 4364SOL    HW213779   3.182   2.858   0.612
 4365SOL     OW13780   2.692   3.135   1.422
 4365SOL    HW113781   2.687   3.168   1.517
 4365SOL    HW213782   2.606   3.154   1.376
 4366SOL     OW13783   2.534   3.478   0.154
 4366SOL    HW113784   2.543   3.488   0.055
 4366SOL    HW213785   2.494   3.389   0.175
 4367SOL     OW13786   3.512   3.582   1.394
 4367SOL    HW113787   3.565   3.592   1.310
 4367SOL    HW213788   3.485   3.672   1.428
 4368SOL     OW13789   3.703   2.037   0.963
 4368SOL    HW113790   3.742   1.952   0.927
 4368SOL    HW213791   3.605   2.039   0.944
 4369SOL     OW13792   3.056   3.474   0.031
 4369SOL    HW113793   3.062   3.381   0.068
 4369SOL    HW213794   2.997   3.474  -0.049
 4370SOL     OW13795   2.684   2.864   1.372
 4370SOL    HW113796   2.724   2.863   1.280
 4370SOL    HW213797   2.694   2.956   1.412
 4371SOL     OW13798   2.778   2.772   0.291
 4371SOL    HW113799   2.841   2.810   0.223
 4371SOL    HW213800   2.818   2.689   0.330
 4372SOL     OW13801   3.366   3.469   0.044
 4372SOL    HW113802   3.274   3.506   0.051
 4372SOL    HW213803   3.404   3.489  -0.046
 4373SOL     OW13804   2.234   3.150   1.490
 4373SOL    HW113805   2.221   3.243   1.456
 4373SOL    HW213806   2.150   3.098   1.477
 4374SOL     OW13807   3.476   3.154   1.289
 4374SOL    HW113808   3.536   3.157   1.369
 4374SOL    HW213809   3.401   3.218   1.302
 4375SOL     OW13810   2.901   2.960   0.696
 4375SOL    HW113811   2.831   2.913   0.750
 4375SOL    HW213812   2.960   2.892   0.653
 4376SOL     OW13813   2.876   2.098   0.971
 4376SOL    HW113814   2.868   2.062   0.878
 4376SOL    HW213815   2.874   2.022   1.036
 4377SOL     OW13816   2.452   3.349   0.491
 4377SOL    HW113817   2.494   3.291   0.421
 4377SOL    HW213818   2.408   3.428   0.447
 4378SOL     OW13819   3.571   2.247   1.381
 4378SOL    HW113820   3.644   2.316   1.385
 4378SOL    HW213821   3.599   2.172   1.322
 4379SOL     OW13822   2.117   3.210   0.290
 4379SOL    HW113823   2.021   3.211   0.263
 4379SOL    HW213824   2.129   3.263   0.374
 4380SOL     OW13825   1.967   2.875   1.726
 4380SOL    HW113826   1.890   2.842   1.780
 4380SOL    HW213827   2.052   2.845   1.768
 4381SOL     OW13828   2.534   2.065   1.489
 4381SOL    HW113829   2.624   2.049   1.449
 4381SOL    HW213830   2.542   2.070   1.588
 4382SOL     OW13831   1.937   2.207   0.033
 4382SOL    HW113832   1.845   2.179   0.004
 4382SOL    HW213833   1.968   2.284  -0.023
 4383SOL     OW13834   3.302   2.718   1.398
 4383SOL    HW113835   3.245   2.770   1.335
 4383SOL    HW213836   3.398   2.730   1.374
 4384SOL     OW13837   1.934   2.028   0.318
 4384SOL    HW113838   1.917   2.111   0.264
 4384SOL    HW213839   2.024   1.991   0.296
 4385SOL     OW13840   3.045   3.197   0.119
 4385SOL    HW113841   2.946   3.186   0.121
 4385SOL    HW213842   3.079   3.212   0.212
 4386SOL     OW13843   2.475   2.704   1.431
 4386SOL    HW113844   2.531   2.785   1.414
 4386SOL    HW213845   2.534   2.624   1.434
 4387SOL     OW13846   3.355   3.629   0.959
 4387SOL    HW113847   3.388   3.693   0.890
 4387SOL    HW213848   3.421   3.623   1.034
 4388SOL     OW13849   2.578   2.427   1.708
 4388SOL    HW113850   2.597   2.492   1.782
 4388SOL    HW213851   2.638   2.347   1.717
 4389SOL     OW13852   3.312   3.082   1.633
 4389SOL    HW113853   3.303   3.072   1.732
 4389SOL    HW213854   3.408   3.075   1.607
 4390SOL     OW13855   2.252   3.603   1.560
 4390SOL    HW113856   2.161   3.644   1.558
 4390SOL    HW213857   2.245   3.509   1.592
 4391SOL     OW13858   3.536   2.745   1.254
 4391SOL    HW113859   3.509   2.656   1.217
 4391SOL    HW213860   3.537   2.813   1.181
 4392SOL     OW13861   3.087   2.187   0.449
 4392SOL    HW113862   3.152   2.113   0.438
 4392SOL    HW213863   3.107   2.237   0.533
 4393SOL     OW13864   2.456   2.607   0.652
 4393SOL    HW113865   2.506   2.692   0.633
 4393SOL    HW213866   2.368   2.609   0.604
 4394SOL     OW13867   3.639   2.204   1.642
 4394SOL    HW113868   3.622   2.235   1.548
 4394SOL    HW213869   3.555   2.167   1.680
 4395SOL     OW13870   3.592   2.796   1.517
 4395SOL    HW113871   3.630   2.887   1.532
 4395SOL    HW213872   3.584   2.779   1.418
 4396SOL     OW13873   2.721   3.236   0.016
 4396SOL    HW113874   2.675   3.251   0.104
 4396SOL    HW213875   2.765   3.321  -0.014
 4397SOL     OW13876   2.523   3.652   0.953
 4397SOL    HW113877   2.477   3.740   0.940
 4397SOL    HW213878   2.622   3.664   0.946
 4398SOL     OW13879   2.721   2.818   0.861
 4398SOL    HW113880   2.775   2.749   0.909
 4398SOL    HW213881   2.689   2.887   0.927
 4399SOL     OW13882   2.945   2.846   0.087
 4399SOL    HW113883   2.922   2.899   0.005
 4399SOL    HW213884   3.026   2.790   0.068
 4400SOL     OW13885   3.723   3.431   0.851
 4400SOL    HW113886   3.652   3.419   0.781
 4400SOL    HW213887   3.724   3.352   0.911
 4401SOL     OW13888   2.083   3.176   1.844
 4401SOL    HW113889   2.018   3.103   1.823
 4401SOL    HW213890   2.087   3.190   1.942
 4402SOL     OW13891   1.941   3.102   0.653
 4402SOL    HW113892   1.940   3.055   0.741
 4402SOL    HW213893   2.023   3.074   0.602
 4403SOL     OW13894   2.534   3.253   1.624
 4403SOL    HW113895   2.456   3.203   1.662
 4403SOL    HW213896   2.531   3.348   1.655
 4404SOL     OW13897   3.686   2.054   1.227
 4404SOL    HW113898   3.682   1.964   1.271
 4404SOL    HW213899   3.689   2.043   1.128
 4405SOL     OW13900   3.567   3.349   1.104
 4405SOL    HW113901   3.474   3.324   1.077
 4405SOL    HW213902   3.593   3.299   1.186
 4406SOL     OW13903   2.674   3.448   0.687
 4406SOL    HW113904   2.706   3.458   0.593
 4406SOL    HW213905   2.595   3.386   0.689
 4407SOL     OW13906   3.286   2.076   1.112
 4407SOL    HW113907   3.338   2.011   1.167
 4407SOL    HW213908   3.237   2.139   1.173
 4408SOL     OW13909   2.863   1.896   1.154
 4408SOL    HW113910   2.800   1.824   1.123
 4408SOL    HW213911   2.956   1.860   1.154
 4409SOL     OW13912   2.632   3.192   0.301
 4409SOL    HW113913   2.586   3.105   0.318
 4409SOL    HW213914   2.723   3.189   0.342
 4410SOL     OW13915   2.480   3.429   1.284
 4410SOL    HW113916   2.475   3.511   1.341
 4410SOL    HW213917   2.569   3.426   1.239
 4411SOL     OW13918   3.214   1.914   0.168
 4411SOL    HW113919   3.249   1.873   0.084
 4411SOL    HW213920   3.124   1.876   0.188
 4412SOL     OW13921   3.162   2.315   0.691
 4412SOL    HW113922   3.103   2.395   0.695
 4412SOL    HW213923   3.177   2.280   0.784
 4413SOL     OW13924   3.455   2.083   0.882
 4413SOL    HW113925   3.371   2.082   0.936
 4413SOL    HW213926   3.457   2.166   0.826
 4414SOL     OW13927   1.901   2.939   0.300
 4414SOL    HW113928   2.000   2.928   0.291
 4414SOL    HW213929   1.861   2.853   0.332
 4415SOL     OW13930   2.737   3.508   0.337
 4415SOL    HW113931   2.660   3.473   0.283
 4415SOL    HW213932   2.705   3.579   0.399
 4416SOL     OW13933   2.092   2.490   1.975
 4416SOL    HW113934   1.999   2.488   2.012
 4416SOL    HW213935   2.093   2.451   1.883
 4417SOL     OW13936   2.087   2.137   2.858
 4417SOL    HW113937   2.122   2.120   2.950
 4417SOL    HW213938   1.999   2.092   2.846
 4418SOL     OW13939   1.881   2.230   2.509
 4418SOL    HW113940   1.799   2.273   2.548
 4418SOL    HW213941   1.853   2.157   2.446
 4419SOL     OW13942   2.431   3.137   3.027
 4419SOL    HW113943   2.338   3.130   2.990
 4419SOL    HW213944   2.442   3.226   3.071
 4420SOL     OW13945   3.417   3.373   2.565
 4420SOL    HW113946   3.360   3.357   2.646
 4420SOL    HW213947   3.358   3.383   2.485
 4421SOL     OW13948   2.997   2.565   2.579
 4421SOL    HW113949   3.054   2.643   2.554
 4421SOL    HW213950   2.937   2.591   2.655
 4422SOL     OW13951   3.617   2.469   2.093
 4422SOL    HW113952   3.605   2.456   1.994
 4422SOL    HW213953   3.587   2.388   2.142
 4423SOL     OW13954   2.630   3.006   2.885
 4423SOL    HW113955   2.552   3.023   2.945
 4423SOL    HW213956   2.664   3.093   2.849
 4424SOL     OW13957   2.712   2.660   3.685
 4424SOL    HW113958   2.708   2.736   3.750
 4424SOL    HW213959   2.734   2.696   3.594
 4425SOL     OW13960   2.547   2.874   2.527
 4425SOL    HW113961   2.616   2.858   2.597
 4425SOL    HW213962   2.474   2.931   2.565
 4426SOL     OW13963   2.548   3.023   3.665
 4426SOL    HW113964   2.608   3.102   3.679
 4426SOL    HW213965   2.462   3.054   3.624
 4427SOL     OW13966   2.197   3.297   2.923
 4427SOL    HW113967   2.119   3.266   2.870
 4427SOL    HW213968   2.255   3.355   2.866
 4428SOL     OW13969   3.322   3.367   3.201
 4428SOL    HW113970   3.346   3.461   3.227
 4428SOL    HW213971   3.306   3.313   3.283
 4429SOL     OW13972   3.465   2.309   2.599
 4429SOL    HW113973   3.391   2.355   2.549
 4429SOL    HW213974   3.516   2.377   2.652
 4430SOL     OW13975   2.093   3.575   2.345
 4430SOL    HW113976   2.127   3.652   2.399
 4430SOL    HW213977   2.137   3.575   2.255
 4431SOL     OW13978   2.989   3.203   3.552
 4431SOL    HW113979   3.036   3.203   3.640
 4431SOL    HW213980   2.941   3.116   3.541
 4432SOL     OW13981   2.092   3.296   2.400
 4432SOL    HW113982   2.066   3.392   2.400
 4432SOL    HW213983   2.021   3.242   2.445
 4433SOL     OW13984   2.102   2.953   2.748
 4433SOL    HW113985   2.116   2.869   2.800
 4433SOL    HW213986   2.047   3.017   2.803
 4434SOL     OW13987   2.482   3.648   3.301
 4434SOL    HW113988   2.390   3.631   3.336
 4434SOL    HW213989   2.510   3.740   3.327
 4435SOL     OW13990   2.468   2.826   1.985
 4435SOL    HW113991   2.475   2.910   1.931
 4435SOL    HW213992   2.514   2.839   2.073
 4436SOL     OW13993   3.456   1.976   3.342
 4436SOL    HW113994   3.438   2.043   3.270
 4436SOL    HW213995   3.453   2.022   3.431
 4437SOL     OW13996   1.984   2.505   2.425
 4437SOL    HW113997   1.939   2.417   2.442
 4437SOL    HW213998   1.983   2.559   2.509
 4438SOL     OW13999   3.704   3.629   2.221
 4438SOL    HW114000   3.758   3.600   2.301
 4438SOL    HW214001   3.734   3.719   2.192
 4439SOL     OW14002   1.889   3.458   1.979
 4439SOL    HW114003   1.870   3.362   2.000
 4439SOL    HW214004   1.856   3.516   2.054
 4440SOL     OW14005   3.551   2.784   2.474
 4440SOL    HW114006   3.646   2.755   2.482
 4440SOL    HW214007   3.543   2.849   2.399
 4441SOL     OW14008   3.503   2.970   2.294
 4441SOL    HW114009   3.589   2.972   2.242
 4441SOL    HW214010   3.517   3.017   2.382
 4442SOL     OW14011   1.975   2.599   3.459
 4442SOL    HW114012   2.063   2.586   3.504
 4442SOL    HW214013   1.962   2.696   3.437
 4443SOL     OW14014   2.475   3.227   2.588
 4443SOL    HW114015   2.426   3.140   2.597
 4443SOL    HW214016   2.452   3.270   2.501
 4444SOL     OW14017   3.155   3.090   3.285
 4444SOL    HW114018   3.192   3.017   3.227
 4444SOL    HW214019   3.207   3.095   3.370
 4445SOL     OW14020   2.671   1.866   2.364
 4445SOL    HW114021   2.711   1.957   2.355
 4445SOL    HW214022   2.571   1.874   2.370
 4446SOL     OW14023   2.059   2.838   3.126
 4446SOL    HW114024   2.148   2.793   3.112
 4446SOL    HW214025   1.986   2.773   3.107
 4447SOL     OW14026   3.387   2.861   2.052
 4447SOL    HW114027   3.324   2.785   2.065
 4447SOL    HW214028   3.435   2.879   2.138
 4448SOL     OW14029   3.049   3.654   3.478
 4448SOL    HW114030   3.073   3.714   3.402
 4448SOL    HW214031   3.056   3.559   3.448
 4449SOL     OW14032   3.328   3.279   2.815
 4449SOL    HW114033   3.269   3.285   2.895
 4449SOL    HW214034   3.313   3.191   2.769
 4450SOL     OW14035   3.529   3.576   2.434
 4450SOL    HW114036   3.488   3.553   2.346
 4450SOL    HW214037   3.511   3.502   2.499
 4451SOL     OW14038   2.460   2.591   2.132
 4451SOL    HW114039   2.484   2.660   2.064
 4451SOL    HW214040   2.382   2.624   2.186
 4452SOL     OW14041   3.143   2.207   2.806
 4452SOL    HW114042   3.057   2.157   2.793
 4452SOL    HW214043   3.205   2.153   2.862
 4453SOL     OW14044   3.438   3.524   2.169
 4453SOL    HW114045   3.527   3.570   2.172
 4453SOL    HW214046   3.417   3.500   2.074
 4454SOL     OW14047   2.669   2.467   3.327
 4454SOL    HW114048   2.622   2.464   3.416
 4454SOL    HW214049   2.618   2.412   3.261
 4455SOL     OW14050   3.256   2.331   3.536
 4455SOL    HW114051   3.236   2.374   3.624
 4455SOL    HW214052   3.334   2.269   3.545
 4456SOL     OW14053   2.835   2.752   3.434
 4456SOL    HW114054   2.881   2.668   3.405
 4456SOL    HW214055   2.779   2.786   3.359
 4457SOL     OW14056   2.853   2.272   3.104
 4457SOL    HW114057   2.776   2.306   3.158
 4457SOL    HW214058   2.819   2.221   3.025
 4458SOL     OW14059   2.903   2.563   2.291
 4458SOL    HW114060   2.929   2.559   2.387
 4458SOL    HW214061   2.818   2.512   2.277
 4459SOL     OW14062   1.938   2.673   2.651
 4459SOL    HW114063   2.037   2.661   2.660
 4459SOL    HW214064   1.914   2.768   2.672
 4460SOL     OW14065   1.992   3.683   3.433
 4460SOL    HW114066   1.982   3.668   3.532
 4460SOL    HW214067   1.906   3.719   3.397
 4461SOL     OW14068   2.727   2.210   2.057
 4461SOL    HW114069   2.786   2.273   2.008
 4461SOL    HW214070   2.746   2.116   2.028
 4462SOL     OW14071   3.581   2.447   3.693
 4462SOL    HW114072   3.555   2.536   3.657
 4462SOL    HW214073   3.579   2.379   3.620
 4463SOL     OW14074   3.224   3.006   2.407
 4463SOL    HW114075   3.307   2.977   2.359
 4463SOL    HW214076   3.175   3.073   2.351
 4464SOL     OW14077   2.412   2.058   2.747
 4464SOL    HW114078   2.407   2.053   2.847
 4464SOL    HW214079   2.414   2.154   2.718
 4465SOL     OW14080   2.870   3.318   2.339
 4465SOL    HW114081   2.824   3.390   2.287
 4465SOL    HW214082   2.866   3.338   2.437
 4466SOL     OW14083   2.213   3.663   2.715
 4466SOL    HW114084   2.263   3.577   2.721
 4466SOL    HW214085   2.278   3.740   2.712
 4467SOL     OW14086   3.657   2.928   2.735
 4467SOL    HW114087   3.595   2.913   2.659
 4467SOL    HW214088   3.605   2.939   2.820
 4468SOL     OW14089   3.089   3.412   3.368
 4468SOL    HW114090   3.095   3.335   3.432
 4468SOL    HW214091   3.037   3.386   3.288
 4469SOL     OW14092   2.183   2.805   2.104
 4469SOL    HW114093   2.265   2.844   2.062
 4469SOL    HW214094   2.156   2.723   2.055
 4470SOL     OW14095   3.320   2.597   2.590
 4470SOL    HW114096   3.315   2.532   2.665
 4470SOL    HW214097   3.400   2.656   2.603
 4471SOL     OW14098   2.323   3.128   3.589
 4471SOL    HW114099   2.273   3.129   3.503
 4471SOL    HW214100   2.260   3.110   3.665
 4472SOL     OW14101   2.973   3.638   2.099
 4472SOL    HW114102   2.913   3.576   2.149
 4472SOL    HW214103   3.004   3.594   2.014
 4473SOL     OW14104   2.064   2.147   3.360
 4473SOL    HW114105   1.984   2.207   3.347
 4473SOL    HW214106   2.054   2.098   3.446
 4474SOL     OW14107   3.494   3.239   1.943
 4474SOL    HW114108   3.462   3.333   1.933
 4474SOL    HW214109   3.418   3.176   1.931
 4475SOL     OW14110   2.326   3.605   2.185
 4475SOL    HW114111   2.359   3.644   2.271
 4475SOL    HW214112   2.402   3.598   2.120
 4476SOL     OW14113   3.262   1.969   2.288
 4476SOL    HW114114   3.238   1.932   2.198
 4476SOL    HW214115   3.361   1.985   2.292
 4477SOL     OW14116   2.111   3.647   3.103
 4477SOL    HW114117   2.168   3.582   3.153
 4477SOL    HW214118   2.095   3.614   3.010
 4478SOL     OW14119   2.802   3.560   2.766
 4478SOL    HW114120   2.882   3.503   2.787
 4478SOL    HW214121   2.753   3.520   2.689
 4479SOL     OW14122   3.409   2.084   3.591
 4479SOL    HW114123   3.404   2.121   3.683
 4479SOL    HW214124   3.337   2.015   3.579
 4480SOL     OW14125   2.476   1.984   1.979
 4480SOL    HW114126   2.574   1.962   1.986
 4480SOL    HW214127   2.445   1.967   1.886
 4481SOL     OW14128   2.643   2.126   3.611
 4481SOL    HW114129   2.710   2.065   3.654
 4481SOL    HW214130   2.570   2.145   3.676
 4482SOL     OW14131   2.750   3.376   3.057
 4482SOL    HW114132   2.727   3.351   2.963
 4482SOL    HW214133   2.811   3.307   3.096
 4483SOL     OW14134   3.213   2.452   3.295
 4483SOL    HW114135   3.241   2.409   3.380
 4483SOL    HW214136   3.238   2.548   3.296
 4484SOL     OW14137   2.665   3.264   2.786
 4484SOL    HW114138   2.755   3.278   2.744
 4484SOL    HW214139   2.594   3.266   2.715
 4485SOL     OW14140   2.784   2.365   2.761
 4485SOL    HW114141   2.759   2.356   2.665
 4485SOL    HW214142   2.832   2.283   2.792
 4486SOL     OW14143   2.401   1.926   2.374
 4486SOL    HW114144   2.320   1.927   2.432
 4486SOL    HW214145   2.404   2.009   2.319
 4487SOL     OW14146   3.296   3.050   1.903
 4487SOL    HW114147   3.328   2.974   1.960
 4487SOL    HW214148   3.204   3.077   1.933
 4488SOL     OW14149   2.797   2.098   2.342
 4488SOL    HW114150   2.749   2.139   2.264
 4488SOL    HW214151   2.896   2.096   2.323
 4489SOL     OW14152   2.938   2.545   3.326
 4489SOL    HW114153   2.858   2.484   3.329
 4489SOL    HW214154   3.019   2.492   3.302
 4490SOL     OW14155   3.089   3.432   2.655
 4490SOL    HW114156   3.110   3.506   2.590
 4490SOL    HW214157   3.157   3.432   2.728
 4491SOL     OW14158   2.321   3.014   2.603
 4491SOL    HW114159   2.250   2.987   2.668
 4491SOL    HW214160   2.295   2.986   2.510
 4492SOL     OW14161   3.133   3.659   2.453
 4492SOL    HW114162   3.177   3.723   2.389
 4492SOL    HW214163   3.083   3.711   2.523
 4493SOL     OW14164   2.894   2.411   1.878
 4493SOL    HW114165   2.853   2.493   1.839
 4493SOL    HW214166   2.958   2.437   1.951
 4494SOL     OW14167   1.940   2.418   3.248
 4494SOL    HW114168   2.032   2.417   3.207
 4494SOL    HW214169   1.934   2.492   3.315
 4495SOL     OW14170   2.423   2.084   3.009
 4495SOL    HW114171   2.461   2.000   3.046
 4495SOL    HW214172   2.335   2.103   3.053
 4496SOL     OW14173   2.728   2.316   2.504
 4496SOL    HW114174   2.696   2.388   2.442
 4496SOL    HW214175   2.752   2.235   2.451
 4497SOL     OW14176   2.879   1.901   2.615
 4497SOL    HW114177   2.807   1.906   2.546
 4497SOL    HW214178   2.855   1.832   2.684
 4498SOL     OW14179   3.291   3.035   2.729
 4498SOL    HW114180   3.236   2.951   2.722
 4498SOL    HW214181   3.317   3.064   2.637
 4499SOL     OW14182   3.328   2.452   2.854
 4499SOL    HW114183   3.298   2.357   2.861
 4499SOL    HW214184   3.401   2.468   2.920
 4500SOL     OW14185   3.719   2.695   2.239
 4500SOL    HW114186   3.761   2.631   2.303
 4500SOL    HW214187   3.681   2.644   2.161
 4501SOL     OW14188   2.350   3.247   2.036
 4501SOL    HW114189   2.263   3.232   2.083
 4501SOL    HW214190   2.333   3.273   1.941
 4502SOL     OW14191   3.526   3.142   2.519
 4502SOL    HW114192   3.625   3.150   2.533
 4502SOL    HW214193   3.481   3.226   2.550
 4503SOL     OW14194   3.252   2.437   1.940
 4503SOL    HW114195   3.198   2.416   2.021
 4503SOL    HW214196   3.343   2.396   1.949
 4504SOL     OW14197   3.616   3.085   3.450
 4504SOL    HW114198   3.707   3.046   3.437
 4504SOL    HW214199   3.624   3.181   3.474
 4505SOL     OW14200   2.926   3.209   3.202
 4505SOL    HW114201   2.846   3.186   3.257
 4505SOL    HW214202   3.009   3.183   3.251
 4506SOL     OW14203   3.454   3.491   3.487
 4506SOL    HW114204   3.481   3.525   3.397
 4506SOL    HW214205   3.533   3.453   3.533
 4507SOL     OW14206   2.973   3.057   2.962
 4507SOL    HW114207   2.933   3.101   3.043
 4507SOL    HW214208   2.932   3.094   2.879
 4508SOL     OW14209   3.500   2.961   2.941
 4508SOL    HW114210   3.505   3.042   3.000
 4508SOL    HW214211   3.414   2.963   2.890
 4509SOL     OW14212   2.777   1.951   3.264
 4509SOL    HW114213   2.802   1.931   3.169
 4509SOL    HW214214   2.849   2.007   3.306
 4510SOL     OW14215   2.842   2.978   3.581
 4510SOL    HW114216   2.743   2.984   3.591
 4510SOL    HW214217   2.865   2.898   3.525
 4511SOL     OW14218   2.567   2.912   2.230
 4511SOL    HW114219   2.553   2.919   2.329
 4511SOL    HW214220   2.651   2.861   2.212
 4512SOL     OW14221   2.272   2.675   3.113
 4512SOL    HW114222   2.358   2.687   3.163
 4512SOL    HW214223   2.230   2.588   3.140
 4513SOL     OW14224   3.136   2.248   3.124
 4513SOL    HW114225   3.157   2.322   3.188
 4513SOL    HW214226   3.047   2.265   3.081
 4514SOL     OW14227   1.926   3.426   3.193
 4514SOL    HW114228   1.880   3.508   3.159
 4514SOL    HW214229   2.024   3.445   3.202
 4515SOL     OW14230   2.229   2.962   2.363
 4515SOL    HW114231   2.222   3.045   2.307
 4515SOL    HW214232   2.233   2.882   2.303
 4516SOL     OW14233   2.428   2.399   2.727
 4516SOL    HW114234   2.440   2.465   2.653
 4516SOL    HW214235   2.474   2.433   2.810
 4517SOL     OW14236   3.114   3.210   2.250
 4517SOL    HW114237   3.164   3.287   2.290
 4517SOL    HW214238   3.019   3.212   2.282
 4518SOL     OW14239   3.134   3.307   3.004
 4518SOL    HW114240   3.181   3.320   3.091
 4518SOL    HW214241   3.068   3.233   3.013
 4519SOL     OW14242   3.444   2.501   2.334
 4519SOL    HW114243   3.413   2.562   2.407
 4519SOL    HW214244   3.494   2.553   2.265
 4520SOL     OW14245   2.216   3.372   3.191
 4520SOL    HW114246   2.195   3.328   3.104
 4520SOL    HW214247   2.313   3.398   3.194
 4521SOL     OW14248   2.264   2.613   3.460
 4521SOL    HW114249   2.332   2.668   3.413
 4521SOL    HW214250   2.304   2.525   3.487
 4522SOL     OW14251   3.449   2.641   3.532
 4522SOL    HW114252   3.357   2.679   3.527
 4522SOL    HW214253   3.509   2.688   3.467
 4523SOL     OW14254   2.875   1.967   3.632
 4523SOL    HW114255   2.881   2.052   3.580
 4523SOL    HW214256   2.907   1.891   3.575
 4524SOL     OW14257   2.366   1.912   3.602
 4524SOL    HW114258   2.324   1.855   3.532
 4524SOL    HW214259   2.300   1.981   3.634
 4525SOL     OW14260   2.435   2.732   2.891
 4525SOL    HW114261   2.479   2.821   2.882
 4525SOL    HW214262   2.372   2.732   2.968
 4526SOL     OW14263   3.222   2.724   2.907
 4526SOL    HW114264   3.147   2.724   2.841
 4526SOL    HW214265   3.259   2.632   2.916
 4527SOL     OW14266   3.071   2.387   2.137
 4527SOL    HW114267   3.084   2.303   2.191
 4527SOL    HW214268   3.042   2.461   2.197
 4528SOL     OW14269   1.899   3.172   3.144
 4528SOL    HW114270   1.952   3.123   3.212
 4528SOL    HW214271   1.921   3.270   3.149
 4529SOL     OW14272   2.594   2.496   2.926
 4529SOL    HW114273   2.653   2.470   2.850
 4529SOL    HW214274   2.566   2.592   2.915
 4530SOL     OW14275   3.590   2.797   3.716
 4530SOL    HW114276   3.544   2.790   3.627
 4530SOL    HW214277   3.528   2.841   3.782
 4531SOL     OW14278   3.484   2.229   2.236
 4531SOL    HW114279   3.486   2.153   2.300
 4531SOL    HW214280   3.436   2.306   2.276
 4532SOL     OW14281   2.885   2.628   2.828
 4532SOL    HW114282   2.900   2.649   2.924
 4532SOL    HW214283   2.855   2.533   2.819
 4533SOL     OW14284   2.842   3.435   3.562
 4533SOL    HW114285   2.822   3.479   3.474
 4533SOL    HW214286   2.881   3.344   3.546
 4534SOL     OW14287   3.721   3.380   3.467
 4534SOL    HW114288   3.735   3.407   3.372
 4534SOL    HW214289   3.804   3.402   3.520
 4535SOL     OW14290   2.212   2.760   3.666
 4535SOL    HW114291   2.288   2.804   3.714
 4535SOL    HW214292   2.247   2.713   3.584
 4536SOL     OW14293   3.402   2.136   1.987
 4536SOL    HW114294   3.341   2.061   2.010
 4536SOL    HW214295   3.424   2.188   2.070
 4537SOL     OW14296   3.165   2.700   1.904
 4537SOL    HW114297   3.199   2.607   1.919
 4537SOL    HW214298   3.183   2.727   1.809
 4538SOL     OW14299   2.930   3.195   2.711
 4538SOL    HW114300   2.937   3.111   2.656
 4538SOL    HW214301   2.992   3.264   2.675
 4539SOL     OW14302   2.181   2.672   2.811
 4539SOL    HW114303   2.274   2.708   2.816
 4539SOL    HW214304   2.175   2.587   2.863
 4540SOL     OW14305   3.000   2.242   3.540
 4540SOL    HW114306   2.955   2.305   3.604
 4540SOL    HW214307   3.093   2.273   3.523
 4541SOL     OW14308   3.022   2.069   3.339
 4541SOL    HW114309   3.022   2.133   3.416
 4541SOL    HW214310   3.050   2.117   3.256
 4542SOL     OW14311   1.870   3.188   2.062
 4542SOL    HW114312   1.777   3.209   2.031
 4542SOL    HW214313   1.880   3.089   2.075
 4543SOL     OW14314   1.950   3.663   2.789
 4543SOL    HW114315   1.908   3.577   2.762
 4543SOL    HW214316   2.044   3.666   2.755
 4544SOL     OW14317   2.366   3.430   2.772
 4544SOL    HW114318   2.432   3.504   2.781
 4544SOL    HW214319   2.410   3.351   2.730
 4545SOL     OW14320   2.864   2.658   3.100
 4545SOL    HW114321   2.905   2.626   3.186
 4545SOL    HW214322   2.768   2.631   3.097
 4546SOL     OW14323   1.902   2.406   2.976
 4546SOL    HW114324   1.987   2.373   2.935
 4546SOL    HW214325   1.915   2.421   3.074
 4547SOL     OW14326   3.231   2.812   3.522
 4547SOL    HW114327   3.270   2.901   3.542
 4547SOL    HW214328   3.241   2.792   3.425
 4548SOL     OW14329   2.677   2.434   2.187
 4548SOL    HW114330   2.684   2.345   2.141
 4548SOL    HW214331   2.583   2.468   2.179
 4549SOL     OW14332   3.519   2.466   3.068
 4549SOL    HW114333   3.481   2.397   3.130
 4549SOL    HW214334   3.601   2.430   3.024
 4550SOL     OW14335   2.114   3.426   3.606
 4550SOL    HW114336   2.084   3.483   3.682
 4550SOL    HW214337   2.107   3.329   3.632
 4551SOL     OW14338   2.792   3.540   3.327
 4551SOL    HW114339   2.768   3.522   3.232
 4551SOL    HW214340   2.822   3.634   3.337
 4552SOL     OW14341   2.021   2.999   3.328
 4552SOL    HW114342   2.043   2.938   3.404
 4552SOL    HW214343   2.031   2.950   3.242
 4553SOL     OW14344   3.209   2.921   3.096
 4553SOL    HW114345   3.233   2.858   3.022
 4553SOL    HW214346   3.119   2.961   3.078
 4554SOL     OW14347   3.164   2.717   2.171
 4554SOL    HW114348   3.078   2.686   2.213
 4554SOL    HW214349   3.160   2.703   2.072
 4555SOL     OW14350   3.621   3.609   3.016
 4555SOL    HW114351   3.682   3.639   2.943
 4555SOL    HW214352   3.583   3.520   2.994
 4556SOL     OW14353   3.114   3.593   2.990
 4556SOL    HW114354   3.198   3.598   2.936
 4556SOL    HW214355   3.091   3.497   3.008
 4557SOL     OW14356   1.945   3.120   2.884
 4557SOL    HW114357   1.940   3.119   2.984
 4557SOL    HW214358   1.862   3.079   2.846
 4558SOL     OW14359   2.550   3.524   3.578
 4558SOL    HW114360   2.494   3.605   3.587
 4558SOL    HW214361   2.602   3.528   3.492
 4559SOL     OW14362   3.588   1.997   2.385
 4559SOL    HW114363   3.661   1.980   2.318
 4559SOL    HW214364   3.557   1.910   2.423
 4560SOL     OW14365   3.250   3.435   2.339
 4560SOL    HW114366   3.317   3.447   2.265
 4560SOL    HW214367   3.210   3.524   2.362
 4561SOL     OW14368   1.992   3.656   3.713
 4561SOL    HW114369   1.951   3.582   3.766
 4561SOL    HW214370   2.056   3.707   3.771
 4562SOL     OW14371   3.142   2.789   2.534
 4562SOL    HW114372   3.202   2.708   2.536
 4562SOL    HW214373   3.182   2.858   2.474
 4563SOL     OW14374   2.692   3.135   3.284
 4563SOL    HW114375   2.687   3.168   3.379
 4563SOL    HW214376   2.606   3.154   3.238
 4564SOL     OW14377   2.534   3.478   2.016
 4564SOL    HW114378   2.543   3.488   1.917
 4564SOL    HW214379   2.494   3.389   2.037
 4565SOL     OW14380   3.512   3.582   3.256
 4565SOL    HW114381   3.565   3.592   3.172
 4565SOL    HW214382   3.485   3.672   3.290
 4566SOL     OW14383   3.703   2.037   2.825
 4566SOL    HW114384   3.742   1.952   2.789
 4566SOL    HW214385   3.605   2.039   2.806
 4567SOL     OW14386   3.056   3.474   1.893
 4567SOL    HW114387   3.062   3.381   1.930
 4567SOL    HW214388   2.997   3.474   1.813
 4568SOL     OW14389   2.684   2.864   3.234
 4568SOL    HW114390   2.724   2.863   3.142
 4568SOL    HW214391   2.694   2.956   3.274
 4569SOL     OW14392   2.778   2.772   2.153
 4569SOL    HW114393   2.841   2.810   2.085
 4569SOL    HW214394   2.818   2.689   2.192
 4570SOL     OW14395   3.366   3.469   1.906
 4570SOL    HW114396   3.274   3.506   1.913
 4570SOL    HW214397   3.404   3.489   1.816
 4571SOL     OW14398   2.234   3.150   3.352
 4571SOL    HW114399   2.221   3.243   3.318
 4571SOL    HW214400   2.150   3.098   3.339
 4572SOL     OW14401   3.476   3.154   3.151
 4572SOL    HW114402   3.536   3.157   3.231
 4572SOL    HW214403   3.401   3.218   3.164
 4573SOL     OW14404   2.901   2.960   2.558
 4573SOL    HW114405   2.831   2.913   2.612
 4573SOL    HW214406   2.960   2.892   2.515
 4574SOL     OW14407   2.876   2.098   2.833
 4574SOL    HW114408   2.868   2.062   2.740
 4574SOL    HW214409   2.874   2.022   2.898
 4575SOL     OW14410   2.452   3.349   2.353
 4575SOL    HW114411   2.494   3.291   2.283
 4575SOL    HW214412   2.408   3.428   2.309
 4576SOL     OW14413   3.571   2.247   3.243
 4576SOL    HW114414   3.644   2.316   3.247
 4576SOL    HW214415   3.599   2.172   3.184
 4577SOL     OW14416   2.117   3.210   2.152
 4577SOL    HW114417   2.021   3.211   2.125
 4577SOL    HW214418   2.129   3.263   2.236
 4578SOL     OW14419   1.967   2.875   3.588
 4578SOL    HW114420   1.890   2.842   3.642
 4578SOL    HW214421   2.052   2.845   3.630
 4579SOL     OW14422   2.534   2.065   3.351
 4579SOL    HW114423   2.624   2.049   3.311
 4579SOL    HW214424   2.542   2.070   3.450
 4580SOL     OW14425   1.937   2.207   1.895
 4580SOL    HW114426   1.845   2.179   1.866
 4580SOL    HW214427   1.968   2.284   1.839
 4581SOL     OW14428   3.302   2.718   3.260
 4581SOL    HW114429   3.245   2.770   3.197
 4581SOL    HW214430   3.398   2.730   3.236
 4582SOL     OW14431   1.934   2.028   2.180
 4582SOL    HW114432   1.917   2.111   2.126
 4582SOL    HW214433   2.024   1.991   2.158
 4583SOL     OW14434   3.045   3.197   1.981
 4583SOL    HW114435   2.946   3.186   1.983
 4583SOL    HW214436   3.079   3.212   2.074
 4584SOL     OW14437   2.475   2.704   3.293
 4584SOL    HW114438   2.531   2.785   3.276
 4584SOL    HW214439   2.534   2.624   3.296
 4585SOL     OW14440   3.355   3.629   2.821
 4585SOL    HW114441   3.388   3.693   2.752
 4585SOL    HW214442   3.421   3.623   2.896
 4586SOL     OW14443   2.578   2.427   3.570
 4586SOL    HW114444   2.597   2.492   3.644
 4586SOL    HW214445   2.638   2.347   3.579
 4587SOL     OW14446   3.312   3.082   3.495
 4587SOL    HW114447   3.303   3.072   3.594
 4587SOL    HW214448   3.408   3.075   3.469
 4588SOL     OW14449   2.252   3.603   3.422
 4588SOL    HW114450   2.161   3.644   3.420
 4588SOL    HW214451   2.245   3.509   3.454
 4589SOL     OW14452   3.536   2.745   3.116
 4589SOL    HW114453   3.509   2.656   3.079
 4589SOL    HW214454   3.537   2.813   3.043
 4590SOL     OW14455   3.087   2.187   2.311
 4590SOL    HW114456   3.152   2.113   2.300
 4590SOL    HW214457   3.107   2.237   2.395
 4591SOL     OW14458   2.456   2.607   2.514
 4591SOL    HW114459   2.506   2.692   2.495
 4591SOL    HW214460   2.368   2.609   2.466
 4592SOL     OW14461   3.639   2.204   3.504
 4592SOL    HW114462   3.622   2.235   3.410
 4592SOL    HW214463   3.555   2.167   3.542
 4593SOL     OW14464   3.592   2.796   3.379
 4593SOL    HW114465   3.630   2.887   3.394
 4593SOL    HW214466   3.584   2.779   3.280
 4594SOL     OW14467   2.721   3.236   1.878
 4594SOL    HW114468   2.675   3.251   1.966
 4594SOL    HW214469   2.765   3.321   1.848
 4595SOL     OW14470   2.523   3.652   2.815
 4595SOL    HW114471   2.477   3.740   2.802
 4595SOL    HW214472   2.622   3.664   2.808
 4596SOL     OW14473   2.721   2.818   2.723
 4596SOL    HW114474   2.775   2.749   2.771
 4596SOL    HW214475   2.689   2.887   2.789
 4597SOL     OW14476   2.945   2.846   1.949
 4597SOL    HW114477   2.922   2.899   1.867
 4597SOL    HW214478   3.026   2.790   1.930
 4598SOL     OW14479   3.723   3.431   2.713
 4598SOL    HW114480   3.652   3.419   2.643
 4598SOL    HW214481   3.724   3.352   2.773
 4599SOL     OW14482   2.083   3.176   3.706
 4599SOL    HW114483   2.018   3.103   3.685
 4599SOL    HW214484   2.087   3.190   3.804
 4600SOL     OW14485   1.941   3.102   2.515
 4600SOL    HW114486   1.940   3.055   2.603
 4600SOL    HW214487   2.023   3.074   2.464
 4601SOL     OW14488   2.534   3.253   3.486
 4601SOL    HW114489   2.456   3.203   3.524
 4601SOL    HW214490   2.531   3.348   3.517
 4602SOL     OW14491   3.686   2.054   3.089
 4602SOL    HW114492   3.682   1.964   3.133
 4602SOL    HW214493   3.689   2.043   2.990
 4603SOL     OW14494   3.567   3.349   2.966
 4603SOL    HW114495   3.474   3.324   2.939
 4603SOL    HW214496   3.593   3.299   3.048
 4604SOL     OW14497   2.674   3.448   2.549
 4604SOL    HW114498   2.706   3.458   2.455
 4604SOL    HW214499   2.595   3.386   2.551
 4605SOL     OW14500   3.286   2.076   2.974
 4605SOL    HW114501   3.338   2.011   3.029
 4605SOL    HW214502   3.237   2.139   3.035
 4606SOL     OW14503   2.863   1.896   3.016
 4606SOL    HW114504   2.800   1.824   2.985
 4606SOL    HW214505   2.956   1.860   3.016
 4607SOL     OW14506   2.632   3.192   2.163
 4607SOL    HW114507   2.586   3.105   2.180
 4607SOL    HW214508   2.723   3.189   2.204
 4608SOL     OW14509   2.480   3.429   3.146
 4608SOL    HW114510   2.475   3.511   3.203
 4608SOL    HW214511   2.569   3.426   3.101
 4609SOL     OW14512   3.214   1.914   2.030
 4609SOL    HW114513   3.249   1.873   1.946
 4609SOL    HW214514   3.124   1.876   2.050
 4610SOL     OW14515   3.162   2.315   2.553
 4610SOL    HW114516   3.103   2.395   2.557
 4610SOL    HW214517   3.177   2.280   2.646
 4611SOL     OW14518   3.455   2.083   2.744
 4611SOL    HW114519   3.371   2.082   2.798
 4611SOL    HW214520   3.457   2.166   2.688
 4612SOL     OW14521   1.901   2.939   2.162
 4612SOL    HW114522   2.000   2.928   2.153
 4612SOL    HW214523   1.861   2.853   2.194
 4613SOL     OW14524   2.737   3.508   2.199
 4613SOL    HW114525   2.660   3.473   2.145
 4613SOL    HW214526   2.705   3.579   2.261
 4614SOL     OW14527   2.092   2.490   3.837
 4614SOL    HW114528   1.999   2.488   3.874
 4614SOL    HW214529   2.093   2.451   3.745
 4615SOL     OW14530   1.881   2.230   4.371
 4615SOL    HW114531   1.799   2.273   4.410
 4615SOL    HW214532   1.853   2.157   4.308
 4616SOL     OW14533   2.431   3.137   4.889
 4616SOL    HW114534   2.338   3.130   4.852
 4616SOL    HW214535   2.442   3.226   4.933
 4617SOL     OW14536   3.417   3.373   4.427
 4617SOL    HW114537   3.360   3.357   4.508
 4617SOL    HW214538   3.358   3.383   4.347
 4618SOL     OW14539   2.997   2.565   4.441
 4618SOL    HW114540   3.054   2.643   4.416
 4618SOL    HW214541   2.937   2.591   4.517
 4619SOL     OW14542   3.617   2.469   3.955
 4619SOL    HW114543   3.605   2.456   3.856
 4619SOL    HW214544   3.587   2.388   4.004
 4620SOL     OW14545   2.630   3.006   4.747
 4620SOL    HW114546   2.552   3.023   4.807
 4620SOL    HW214547   2.664   3.093   4.711
 4621SOL     OW14548   2.712   2.660   5.547
 4621SOL    HW114549   2.708   2.736   5.612
 4621SOL    HW214550   2.734   2.696   5.456
 4622SOL     OW14551   2.547   2.874   4.389
 4622SOL    HW114552   2.616   2.858   4.459
 4622SOL    HW214553   2.474   2.931   4.427
 4623SOL     OW14554   2.548   3.023   5.527
 4623SOL    HW114555   2.608   3.102   5.541
 4623SOL    HW214556   2.462   3.054   5.486
 4624SOL     OW14557   2.197   3.297   4.785
 4624SOL    HW114558   2.119   3.266   4.732
 4624SOL    HW214559   2.255   3.355   4.728
 4625SOL     OW14560   3.322   3.367   5.063
 4625SOL    HW114561   3.346   3.461   5.089
 4625SOL    HW214562   3.306   3.313   5.145
 4626SOL     OW14563   3.465   2.309   4.461
 4626SOL    HW114564   3.391   2.355   4.411
 4626SOL    HW214565   3.516   2.377   4.514
 4627SOL     OW14566   2.093   3.575   4.207
 4627SOL    HW114567   2.127   3.652   4.261
 4627SOL    HW214568   2.137   3.575   4.117
 4628SOL     OW14569   2.989   3.203   5.414
 4628SOL    HW114570   3.036   3.203   5.502
 4628SOL    HW214571   2.941   3.116   5.403
 4629SOL     OW14572   2.092   3.296   4.262
 4629SOL    HW114573   2.066   3.392   4.262
 4629SOL    HW214574   2.021   3.242   4.307
 4630SOL     OW14575   2.482   3.648   5.163
 4630SOL    HW114576   2.390   3.631   5.198
 4630SOL    HW214577   2.510   3.740   5.189
 4631SOL     OW14578   2.468   2.826   3.847
 4631SOL    HW114579   2.475   2.910   3.793
 4631SOL    HW214580   2.514   2.839   3.935
 4632SOL     OW14581   3.456   1.976   5.204
 4632SOL    HW114582   3.438   2.043   5.132
 4632SOL    HW214583   3.453   2.022   5.293
 4633SOL     OW14584   1.984   2.505   4.287
 4633SOL    HW114585   1.939   2.417   4.304
 4633SOL    HW214586   1.983   2.559   4.371
 4634SOL     OW14587   3.704   3.629   4.083
 4634SOL    HW114588   3.758   3.600   4.163
 4634SOL    HW214589   3.734   3.719   4.054
 4635SOL     OW14590   1.889   3.458   3.841
 4635SOL    HW114591   1.870   3.362   3.862
 4635SOL    HW214592   1.856   3.516   3.916
 4636SOL     OW14593   3.551   2.784   4.336
 4636SOL    HW114594   3.646   2.755   4.344
 4636SOL    HW214595   3.543   2.849   4.261
 4637SOL     OW14596   3.503   2.970   4.156
 4637SOL    HW114597   3.589   2.972   4.104
 4637SOL    HW214598   3.517   3.017   4.244
 4638SOL     OW14599   2.475   3.227   4.450
 4638SOL    HW114600   2.426   3.140   4.459
 4638SOL    HW214601   2.452   3.270   4.363
 4639SOL     OW14602   3.155   3.090   5.147
 4639SOL    HW114603   3.192   3.017   5.089
 4639SOL    HW214604   3.207   3.095   5.232
 4640SOL     OW14605   2.671   1.866   4.226
 4640SOL    HW114606   2.711   1.957   4.217
 4640SOL    HW214607   2.571   1.874   4.232
 4641SOL     OW14608   3.387   2.861   3.914
 4641SOL    HW114609   3.324   2.785   3.927
 4641SOL    HW214610   3.435   2.879   4.000
 4642SOL     OW14611   3.049   3.654   5.340
 4642SOL    HW114612   3.073   3.714   5.264
 4642SOL    HW214613   3.056   3.559   5.310
 4643SOL     OW14614   3.328   3.279   4.677
 4643SOL    HW114615   3.269   3.285   4.757
 4643SOL    HW214616   3.313   3.191   4.631
 4644SOL     OW14617   3.529   3.576   4.296
 4644SOL    HW114618   3.488   3.553   4.208
 4644SOL    HW214619   3.511   3.502   4.361
 4645SOL     OW14620   2.460   2.591   3.994
 4645SOL    HW114621   2.484   2.660   3.926
 4645SOL    HW214622   2.382   2.624   4.048
 4646SOL     OW14623   3.438   3.524   4.031
 4646SOL    HW114624   3.527   3.570   4.034
 4646SOL    HW214625   3.417   3.500   3.936
 4647SOL     OW14626   2.669   2.467   5.189
 4647SOL    HW114627   2.622   2.464   5.278
 4647SOL    HW214628   2.618   2.412   5.123
 4648SOL     OW14629   2.903   2.563   4.153
 4648SOL    HW114630   2.929   2.559   4.249
 4648SOL    HW214631   2.818   2.512   4.139
 4649SOL     OW14632   1.938   2.673   4.513
 4649SOL    HW114633   2.037   2.661   4.522
 4649SOL    HW214634   1.914   2.768   4.534
 4650SOL     OW14635   1.992   3.683   5.295
 4650SOL    HW114636   1.982   3.668   5.394
 4650SOL    HW214637   1.906   3.719   5.259
 4651SOL     OW14638   2.727   2.210   3.919
 4651SOL    HW114639   2.786   2.273   3.870
 4651SOL    HW214640   2.746   2.116   3.890
 4652SOL     OW14641   3.581   2.447   5.555
 4652SOL    HW114642   3.555   2.536   5.519
 4652SOL    HW214643   3.579   2.379   5.482
 4653SOL     OW14644   3.224   3.006   4.269
 4653SOL    HW114645   3.307   2.977   4.221
 4653SOL    HW214646   3.175   3.073   4.213
 4654SOL     OW14647   2.870   3.318   4.201
 4654SOL    HW114648   2.824   3.390   4.149
 4654SOL    HW214649   2.866   3.338   4.299
 4655SOL     OW14650   2.213   3.663   4.577
 4655SOL    HW114651   2.263   3.577   4.583
 4655SOL    HW214652   2.278   3.740   4.574
 4656SOL     OW14653   3.657   2.928   4.597
 4656SOL    HW114654   3.595   2.913   4.521
 4656SOL    HW214655   3.605   2.939   4.682
 4657SOL     OW14656   3.089   3.412   5.230
 4657SOL    HW114657   3.095   3.335   5.294
 4657SOL    HW214658   3.037   3.386   5.150
 4658SOL     OW14659   2.183   2.805   3.966
 4658SOL    HW114660   2.265   2.844   3.924
 4658SOL    HW214661   2.156   2.723   3.917
 4659SOL     OW14662   3.320   2.597   4.452
 4659SOL    HW114663   3.315   2.532   4.527
 4659SOL    HW214664   3.400   2.656   4.465
 4660SOL     OW14665   2.973   3.638   3.961
 4660SOL    HW114666   2.913   3.576   4.011
 4660SOL    HW214667   3.004   3.594   3.876
 4661SOL     OW14668   2.064   2.147   5.222
 4661SOL    HW114669   1.984   2.207   5.209
 4661SOL    HW214670   2.054   2.098   5.308
 4662SOL     OW14671   3.494   3.239   3.805
 4662SOL    HW114672   3.462   3.333   3.795
 4662SOL    HW214673   3.418   3.176   3.793
 4663SOL     OW14674   2.326   3.605   4.047
 4663SOL    HW114675   2.359   3.644   4.133
 4663SOL    HW214676   2.402   3.598   3.982
 4664SOL     OW14677   3.262   1.969   4.150
 4664SOL    HW114678   3.238   1.932   4.060
 4664SOL    HW214679   3.361   1.985   4.154
 4665SOL     OW14680   2.111   3.647   4.965
 4665SOL    HW114681   2.168   3.582   5.015
 4665SOL    HW214682   2.095   3.614   4.872
 4666SOL     OW14683   2.802   3.560   4.628
 4666SOL    HW114684   2.882   3.503   4.649
 4666SOL    HW214685   2.753   3.520   4.551
 4667SOL     OW14686   2.244   2.562   4.204
 4667SOL    HW114687   2.289   2.472   4.201
 4667SOL    HW214688   2.150   2.551   4.237
 4668SOL     OW14689   3.409   2.084   5.453
 4668SOL    HW114690   3.404   2.121   5.545
 4668SOL    HW214691   3.337   2.015   5.441
 4669SOL     OW14692   2.476   1.984   3.841
 4669SOL    HW114693   2.574   1.962   3.848
 4669SOL    HW214694   2.445   1.967   3.748
 4670SOL     OW14695   2.643   2.126   5.473
 4670SOL    HW114696   2.710   2.065   5.516
 4670SOL    HW214697   2.570   2.145   5.538
 4671SOL     OW14698   2.750   3.376   4.919
 4671SOL    HW114699   2.727   3.351   4.825
 4671SOL    HW214700   2.811   3.307   4.958
 4672SOL     OW14701   2.665   3.264   4.648
 4672SOL    HW114702   2.755   3.278   4.606
 4672SOL    HW214703   2.594   3.266   4.577
 4673SOL     OW14704   2.401   1.926   4.236
 4673SOL    HW114705   2.320   1.927   4.294
 4673SOL    HW214706   2.404   2.009   4.181
 4674SOL     OW14707   3.296   3.050   3.765
 4674SOL    HW114708   3.328   2.974   3.822
 4674SOL    HW214709   3.204   3.077   3.795
 4675SOL     OW14710   2.159   1.897   3.895
 4675SOL    HW114711   2.208   1.981   3.874
 4675SOL    HW214712   2.221   1.832   3.940
 4676SOL     OW14713   2.797   2.098   4.204
 4676SOL    HW114714   2.749   2.139   4.126
 4676SOL    HW214715   2.896   2.096   4.185
 4677SOL     OW14716   3.089   3.432   4.517
 4677SOL    HW114717   3.110   3.506   4.452
 4677SOL    HW214718   3.157   3.432   4.590
 4678SOL     OW14719   2.321   3.014   4.465
 4678SOL    HW114720   2.250   2.987   4.530
 4678SOL    HW214721   2.295   2.986   4.372
 4679SOL     OW14722   3.133   3.659   4.315
 4679SOL    HW114723   3.177   3.723   4.251
 4679SOL    HW214724   3.083   3.711   4.385
 4680SOL     OW14725   2.894   2.411   3.740
 4680SOL    HW114726   2.853   2.493   3.701
 4680SOL    HW214727   2.958   2.437   3.813
 4681SOL     OW14728   1.940   2.418   5.110
 4681SOL    HW114729   2.032   2.417   5.069
 4681SOL    HW214730   1.934   2.492   5.177
 4682SOL     OW14731   2.728   2.316   4.366
 4682SOL    HW114732   2.696   2.388   4.304
 4682SOL    HW214733   2.752   2.235   4.313
 4683SOL     OW14734   2.879   1.901   4.477
 4683SOL    HW114735   2.807   1.906   4.408
 4683SOL    HW214736   2.855   1.832   4.546
 4684SOL     OW14737   3.291   3.035   4.591
 4684SOL    HW114738   3.236   2.951   4.584
 4684SOL    HW214739   3.317   3.064   4.499
 4685SOL     OW14740   3.328   2.452   4.716
 4685SOL    HW114741   3.298   2.357   4.723
 4685SOL    HW214742   3.401   2.468   4.782
 4686SOL     OW14743   3.719   2.695   4.101
 4686SOL    HW114744   3.761   2.631   4.165
 4686SOL    HW214745   3.681   2.644   4.023
 4687SOL     OW14746   2.350   3.247   3.898
 4687SOL    HW114747   2.263   3.232   3.945
 4687SOL    HW214748   2.333   3.273   3.803
 4688SOL     OW14749   3.526   3.142   4.381
 4688SOL    HW114750   3.625   3.150   4.395
 4688SOL    HW214751   3.481   3.226   4.412
 4689SOL     OW14752   3.252   2.437   3.802
 4689SOL    HW114753   3.198   2.416   3.883
 4689SOL    HW214754   3.343   2.396   3.811
 4690SOL     OW14755   3.616   3.085   5.312
 4690SOL    HW114756   3.707   3.046   5.299
 4690SOL    HW214757   3.624   3.181   5.336
 4691SOL     OW14758   2.926   3.209   5.064
 4691SOL    HW114759   2.846   3.186   5.119
 4691SOL    HW214760   3.009   3.183   5.113
 4692SOL     OW14761   3.454   3.491   5.349
 4692SOL    HW114762   3.481   3.525   5.259
 4692SOL    HW214763   3.533   3.453   5.395
 4693SOL     OW14764   3.500   2.961   4.803
 4693SOL    HW114765   3.505   3.042   4.862
 4693SOL    HW214766   3.414   2.963   4.752
 4694SOL     OW14767   2.842   2.978   5.443
 4694SOL    HW114768   2.743   2.984   5.453
 4694SOL    HW214769   2.865   2.898   5.387
 4695SOL     OW14770   2.567   2.912   4.092
 4695SOL    HW114771   2.553   2.919   4.191
 4695SOL    HW214772   2.651   2.861   4.074
 4696SOL     OW14773   1.926   3.426   5.055
 4696SOL    HW114774   1.880   3.508   5.021
 4696SOL    HW214775   2.024   3.445   5.064
 4697SOL     OW14776   2.229   2.962   4.225
 4697SOL    HW114777   2.222   3.045   4.169
 4697SOL    HW214778   2.233   2.882   4.165
 4698SOL     OW14779   3.114   3.210   4.112
 4698SOL    HW114780   3.164   3.287   4.152
 4698SOL    HW214781   3.019   3.212   4.144
 4699SOL     OW14782   3.134   3.307   4.866
 4699SOL    HW114783   3.181   3.320   4.953
 4699SOL    HW214784   3.068   3.233   4.875
 4700SOL     OW14785   3.444   2.501   4.196
 4700SOL    HW114786   3.413   2.562   4.269
 4700SOL    HW214787   3.494   2.553   4.127
 4701SOL     OW14788   2.216   3.372   5.053
 4701SOL    HW114789   2.195   3.328   4.966
 4701SOL    HW214790   2.313   3.398   5.056
 4702SOL     OW14791   2.264   2.613   5.322
 4702SOL    HW114792   2.332   2.668   5.275
 4702SOL    HW214793   2.304   2.525   5.349
 4703SOL     OW14794   3.449   2.641   5.394
 4703SOL    HW114795   3.357   2.679   5.389
 4703SOL    HW214796   3.509   2.688   5.329
 4704SOL     OW14797   3.222   2.724   4.769
 4704SOL    HW114798   3.147   2.724   4.703
 4704SOL    HW214799   3.259   2.632   4.778
 4705SOL     OW14800   3.071   2.387   3.999
 4705SOL    HW114801   3.084   2.303   4.053
 4705SOL    HW214802   3.042   2.461   4.059
 4706SOL     OW14803   1.899   3.172   5.006
 4706SOL    HW114804   1.952   3.123   5.074
 4706SOL    HW214805   1.921   3.270   5.011
 4707SOL     OW14806   3.590   2.797   5.578
 4707SOL    HW114807   3.544   2.790   5.489
 4707SOL    HW214808   3.528   2.841   5.644
 4708SOL     OW14809   2.169   1.925   4.342
 4708SOL    HW114810   2.158   2.019   4.375
 4708SOL    HW214811   2.164   1.862   4.419
 4709SOL     OW14812   3.484   2.229   4.098
 4709SOL    HW114813   3.486   2.153   4.162
 4709SOL    HW214814   3.436   2.306   4.138
 4710SOL     OW14815   2.842   3.435   5.424
 4710SOL    HW114816   2.822   3.479   5.336
 4710SOL    HW214817   2.881   3.344   5.408
 4711SOL     OW14818   3.721   3.380   5.329
 4711SOL    HW114819   3.735   3.407   5.234
 4711SOL    HW214820   3.804   3.402   5.382
 4712SOL     OW14821   3.402   2.136   3.849
 4712SOL    HW114822   3.341   2.061   3.872
 4712SOL    HW214823   3.424   2.188   3.932
 4713SOL     OW14824   3.165   2.700   3.766
 4713SOL    HW114825   3.199   2.607   3.781
 4713SOL    HW214826   3.183   2.727   3.671
 4714SOL     OW14827   2.930   3.195   4.573
 4714SOL    HW114828   2.937   3.111   4.518
 4714SOL    HW214829   2.992   3.264   4.537
 4715SOL     OW14830   1.870   3.188   3.924
 4715SOL    HW114831   1.777   3.209   3.893
 4715SOL    HW214832   1.880   3.089   3.937
 4716SOL     OW14833   1.950   3.663   4.651
 4716SOL    HW114834   1.908   3.577   4.624
 4716SOL    HW214835   2.044   3.666   4.617
 4717SOL     OW14836   2.366   3.430   4.634
 4717SOL    HW114837   2.432   3.504   4.643
 4717SOL    HW214838   2.410   3.351   4.592
 4718SOL     OW14839   3.231   2.812   5.384
 4718SOL    HW114840   3.270   2.901   5.404
 4718SOL    HW214841   3.241   2.792   5.287
 4719SOL     OW14842   2.677   2.434   4.049
 4719SOL    HW114843   2.684   2.345   4.003
 4719SOL    HW214844   2.583   2.468   4.041
 4720SOL     OW14845   3.519   2.466   4.930
 4720SOL    HW114846   3.481   2.397   4.992
 4720SOL    HW214847   3.601   2.430   4.886
 4721SOL     OW14848   2.114   3.426   5.468
 4721SOL    HW114849   2.084   3.483   5.544
 4721SOL    HW214850   2.107   3.329   5.494
 4722SOL     OW14851   2.533   2.326   4.993
 4722SOL    HW114852   2.499   2.237   4.963
 4722SOL    HW214853   2.559   2.380   4.913
 4723SOL     OW14854   2.792   3.540   5.189
 4723SOL    HW114855   2.768   3.522   5.094
 4723SOL    HW214856   2.822   3.634   5.199
 4724SOL     OW14857   3.209   2.921   4.958
 4724SOL    HW114858   3.233   2.858   4.884
 4724SOL    HW214859   3.119   2.961   4.940
 4725SOL     OW14860   3.164   2.717   4.033
 4725SOL    HW114861   3.078   2.686   4.075
 4725SOL    HW214862   3.160   2.703   3.934
 4726SOL     OW14863   3.621   3.609   4.878
 4726SOL    HW114864   3.682   3.639   4.805
 4726SOL    HW214865   3.583   3.520   4.856
 4727SOL     OW14866   3.114   3.593   4.852
 4727SOL    HW114867   3.198   3.598   4.798
 4727SOL    HW214868   3.091   3.497   4.870
 4728SOL     OW14869   2.550   3.524   5.440
 4728SOL    HW114870   2.494   3.605   5.449
 4728SOL    HW214871   2.602   3.528   5.354
 4729SOL     OW14872   3.588   1.997   4.247
 4729SOL    HW114873   3.661   1.980   4.180
 4729SOL    HW214874   3.557   1.910   4.285
 4730SOL     OW14875   3.250   3.435   4.201
 4730SOL    HW114876   3.317   3.447   4.127
 4730SOL    HW214877   3.210   3.524   4.224
 4731SOL     OW14878   1.992   3.656   5.575
 4731SOL    HW114879   1.951   3.582   5.628
 4731SOL    HW214880   2.056   3.707   5.633
 4732SOL     OW14881   3.142   2.789   4.396
 4732SOL    HW114882   3.202   2.708   4.398
 4732SOL    HW214883   3.182   2.858   4.336
 4733SOL     OW14884   2.692   3.135   5.146
 4733SOL    HW114885   2.687   3.168   5.241
 4733SOL    HW214886   2.606   3.154   5.100
 4734SOL     OW14887   2.534   3.478   3.878
 4734SOL    HW114888   2.543   3.488   3.779
 4734SOL    HW214889   2.494   3.389   3.899
 4735SOL     OW14890   3.512   3.582   5.118
 4735SOL    HW114891   3.565   3.592   5.034
 4735SOL    HW214892   3.485   3.672   5.152
 4736SOL     OW14893   3.703   2.037   4.687
 4736SOL    HW114894   3.742   1.952   4.651
 4736SOL    HW214895   3.605   2.039   4.668
 4737SOL     OW14896   3.056   3.474   3.755
 4737SOL    HW114897   3.062   3.381   3.792
 4737SOL    HW214898   2.997   3.474   3.675
 4738SOL     OW14899   2.778   2.772   4.015
 4738SOL    HW114900   2.841   2.810   3.947
 4738SOL    HW214901   2.818   2.689   4.054
 4739SOL     OW14902   3.366   3.469   3.768
 4739SOL    HW114903   3.274   3.506   3.775
 4739SOL    HW214904   3.404   3.489   3.678
 4740SOL     OW14905   2.234   3.150   5.214
 4740SOL    HW114906   2.221   3.243   5.180
 4740SOL    HW214907   2.150   3.098   5.201
 4741SOL     OW14908   3.476   3.154   5.013
 4741SOL    HW114909   3.536   3.157   5.093
 4741SOL    HW214910   3.401   3.218   5.026
 4742SOL     OW14911   2.901   2.960   4.420
 4742SOL    HW114912   2.831   2.913   4.474
 4742SOL    HW214913   2.960   2.892   4.377
 4743SOL     OW14914   2.452   3.349   4.215
 4743SOL    HW114915   2.494   3.291   4.145
 4743SOL    HW214916   2.408   3.428   4.171
 4744SOL     OW14917   3.571   2.247   5.105
 4744SOL    HW114918   3.644   2.316   5.109
 4744SOL    HW214919   3.599   2.172   5.046
 4745SOL     OW14920   2.117   3.210   4.014
 4745SOL    HW114921   2.021   3.211   3.987
 4745SOL    HW214922   2.129   3.263   4.098
 4746SOL     OW14923   2.534   2.065   5.213
 4746SOL    HW114924   2.624   2.049   5.173
 4746SOL    HW214925   2.542   2.070   5.312
 4747SOL     OW14926   1.937   2.207   3.757
 4747SOL    HW114927   1.845   2.179   3.728
 4747SOL    HW214928   1.968   2.284   3.701
 4748SOL     OW14929   3.302   2.718   5.122
 4748SOL    HW114930   3.245   2.770   5.059
 4748SOL    HW214931   3.398   2.730   5.098
 4749SOL     OW14932   1.934   2.028   4.042
 4749SOL    HW114933   1.917   2.111   3.988
 4749SOL    HW214934   2.024   1.991   4.020
 4750SOL     OW14935   3.045   3.197   3.843
 4750SOL    HW114936   2.946   3.186   3.845
 4750SOL    HW214937   3.079   3.212   3.936
 4751SOL     OW14938   3.355   3.629   4.683
 4751SOL    HW114939   3.388   3.693   4.614
 4751SOL    HW214940   3.421   3.623   4.758
 4752SOL     OW14941   2.578   2.427   5.432
 4752SOL    HW114942   2.597   2.492   5.506
 4752SOL    HW214943   2.638   2.347   5.441
 4753SOL     OW14944   3.312   3.082   5.357
 4753SOL    HW114945   3.303   3.072   5.456
 4753SOL    HW214946   3.408   3.075   5.331
 4754SOL     OW14947   2.252   3.603   5.284
 4754SOL    HW114948   2.161   3.644   5.282
 4754SOL    HW214949   2.245   3.509   5.316
 4755SOL     OW14950   3.536   2.745   4.978
 4755SOL    HW114951   3.509   2.656   4.941
 4755SOL    HW214952   3.537   2.813   4.905
 4756SOL     OW14953   3.087   2.187   4.173
 4756SOL    HW114954   3.152   2.113   4.162
 4756SOL    HW214955   3.107   2.237   4.257
 4757SOL     OW14956   2.456   2.607   4.376
 4757SOL    HW114957   2.506   2.692   4.357
 4757SOL    HW214958   2.368   2.609   4.328
 4758SOL     OW14959   3.639   2.204   5.366
 4758SOL    HW114960   3.622   2.235   5.272
 4758SOL    HW214961   3.555   2.167   5.404
 4759SOL     OW14962   3.592   2.796   5.241
 4759SOL    HW114963   3.630   2.887   5.256
 4759SOL    HW214964   3.584   2.779   5.142
 4760SOL     OW14965   2.721   3.236   3.740
 4760SOL    HW114966   2.675   3.251   3.828
 4760SOL    HW214967   2.765   3.321   3.710
 4761SOL     OW14968   2.523   3.652   4.677
 4761SOL    HW114969   2.477   3.740   4.664
 4761SOL    HW214970   2.622   3.664   4.670
 4762SOL     OW14971   2.721   2.818   4.585
 4762SOL    HW114972   2.775   2.749   4.633
 4762SOL    HW214973   2.689   2.887   4.651
 4763SOL     OW14974   2.945   2.846   3.811
 4763SOL    HW114975   2.922   2.899   3.729
 4763SOL    HW214976   3.026   2.790   3.792
 4764SOL     OW14977   3.723   3.431   4.575
 4764SOL    HW114978   3.652   3.419   4.505
 4764SOL    HW214979   3.724   3.352   4.635
 4765SOL     OW14980   2.083   3.176   5.568
 4765SOL    HW114981   2.018   3.103   5.547
 4765SOL    HW214982   2.087   3.190   5.666
 4766SOL     OW14983   1.941   3.102   4.377
 4766SOL    HW114984   1.940   3.055   4.465
 4766SOL    HW214985   2.023   3.074   4.326
 4767SOL     OW14986   2.534   3.253   5.348
 4767SOL    HW114987   2.456   3.203   5.386
 4767SOL    HW214988   2.531   3.348   5.379
 4768SOL     OW14989   3.686   2.054   4.951
 4768SOL    HW114990   3.682   1.964   4.995
 4768SOL    HW214991   3.689   2.043   4.852
 4769SOL     OW14992   3.567   3.349   4.828
 4769SOL    HW114993   3.474   3.324   4.801
 4769SOL    HW214994   3.593   3.299   4.910
 4770SOL     OW14995   2.674   3.448   4.411
 4770SOL    HW114996   2.706   3.458   4.317
 4770SOL    HW214997   2.595   3.386   4.413
 4771SOL     OW14998   3.286   2.076   4.836
 4771SOL    HW114999   3.338   2.011   4.891
 4771SOL    HW215000   3.237   2.139   4.897
 4772SOL     OW15001   2.632   3.192   4.025
 4772SOL    HW115002   2.586   3.105   4.042
 4772SOL    HW215003   2.723   3.189   4.066
 4773SOL     OW15004   2.480   3.429   5.008
 4773SOL    HW115005   2.475   3.511   5.065
 4773SOL    HW215006   2.569   3.426   4.963
 4774SOL     OW15007   3.214   1.914   3.892
 4774SOL    HW115008   3.249   1.873   3.808
 4774SOL    HW215009   3.124   1.876   3.912
 4775SOL     OW15010   3.162   2.315   4.415
 4775SOL    HW115011   3.103   2.395   4.419
 4775SOL    HW215012   3.177   2.280   4.508
 4776SOL     OW15013   3.455   2.083   4.606
 4776SOL    HW115014   3.371   2.082   4.660
 4776SOL    HW215015   3.457   2.166   4.550
 4777SOL     OW15016   1.901   2.939   4.024
 4777SOL    HW115017   2.000   2.928   4.015
 4777SOL    HW215018   1.861   2.853   4.056
 4778SOL     OW15019   2.737   3.508   4.061
 4778SOL    HW115020   2.660   3.473   4.007
 4778SOL    HW215021   2.705   3.579   4.123
 4779SOL     OW15022   2.092   2.490   5.699
 4779SOL    HW115023   1.999   2.488   5.736
 4779SOL    HW215024   2.093   2.451   5.607
 4780SOL     OW15025   2.431   3.137   6.751
 4780SOL    HW115026   2.338   3.130   6.714
 4780SOL    HW215027   2.442   3.226   6.795
 4781SOL     OW15028   3.417   3.373   6.289
 4781SOL    HW115029   3.360   3.357   6.370
 4781SOL    HW215030   3.358   3.383   6.209
 4782SOL     OW15031   3.617   2.469   5.817
 4782SOL    HW115032   3.605   2.456   5.718
 4782SOL    HW215033   3.587   2.388   5.866
 4783SOL     OW15034   2.630   3.006   6.609
 4783SOL    HW115035   2.552   3.023   6.669
 4783SOL    HW215036   2.664   3.093   6.573
 4784SOL     OW15037   2.712   2.660   7.409
 4784SOL    HW115038   2.708   2.736   7.474
 4784SOL    HW215039   2.734   2.696   7.318
 4785SOL     OW15040   2.548   3.023   7.389
 4785SOL    HW115041   2.608   3.102   7.403
 4785SOL    HW215042   2.462   3.054   7.348
 4786SOL     OW15043   2.197   3.297   6.647
 4786SOL    HW115044   2.119   3.266   6.594
 4786SOL    HW215045   2.255   3.355   6.590
 4787SOL     OW15046   3.322   3.367   6.925
 4787SOL    HW115047   3.346   3.461   6.951
 4787SOL    HW215048   3.306   3.313   7.007
 4788SOL     OW15049   3.465   2.309   6.323
 4788SOL    HW115050   3.391   2.355   6.273
 4788SOL    HW215051   3.516   2.377   6.376
 4789SOL     OW15052   2.093   3.575   6.069
 4789SOL    HW115053   2.127   3.652   6.123
 4789SOL    HW215054   2.137   3.575   5.979
 4790SOL     OW15055   2.989   3.203   7.276
 4790SOL    HW115056   3.036   3.203   7.364
 4790SOL    HW215057   2.941   3.116   7.265
 4791SOL     OW15058   2.092   3.296   6.124
 4791SOL    HW115059   2.066   3.392   6.124
 4791SOL    HW215060   2.021   3.242   6.169
 4792SOL     OW15061   2.102   2.953   6.472
 4792SOL    HW115062   2.116   2.869   6.524
 4792SOL    HW215063   2.047   3.017   6.527
 4793SOL     OW15064   2.482   3.648   7.025
 4793SOL    HW115065   2.390   3.631   7.060
 4793SOL    HW215066   2.510   3.740   7.051
 4794SOL     OW15067   3.456   1.976   7.066
 4794SOL    HW115068   3.438   2.043   6.994
 4794SOL    HW215069   3.453   2.022   7.155
 4795SOL     OW15070   3.704   3.629   5.945
 4795SOL    HW115071   3.758   3.600   6.025
 4795SOL    HW215072   3.734   3.719   5.916
 4796SOL     OW15073   1.889   3.458   5.703
 4796SOL    HW115074   1.870   3.362   5.724
 4796SOL    HW215075   1.856   3.516   5.778
 4797SOL     OW15076   3.551   2.784   6.198
 4797SOL    HW115077   3.646   2.755   6.206
 4797SOL    HW215078   3.543   2.849   6.123
 4798SOL     OW15079   3.503   2.970   6.018
 4798SOL    HW115080   3.589   2.972   5.966
 4798SOL    HW215081   3.517   3.017   6.106
 4799SOL     OW15082   1.975   2.599   7.183
 4799SOL    HW115083   2.063   2.586   7.228
 4799SOL    HW215084   1.962   2.696   7.161
 4800SOL     OW15085   2.475   3.227   6.312
 4800SOL    HW115086   2.426   3.140   6.321
 4800SOL    HW215087   2.452   3.270   6.225
 4801SOL     OW15088   3.155   3.090   7.009
 4801SOL    HW115089   3.192   3.017   6.951
 4801SOL    HW215090   3.207   3.095   7.094
 4802SOL     OW15091   2.059   2.838   6.850
 4802SOL    HW115092   2.148   2.793   6.836
 4802SOL    HW215093   1.986   2.773   6.831
 4803SOL     OW15094   3.387   2.861   5.776
 4803SOL    HW115095   3.324   2.785   5.789
 4803SOL    HW215096   3.435   2.879   5.862
 4804SOL     OW15097   3.049   3.654   7.202
 4804SOL    HW115098   3.073   3.714   7.126
 4804SOL    HW215099   3.056   3.559   7.172
 4805SOL     OW15100   3.328   3.279   6.539
 4805SOL    HW115101   3.269   3.285   6.619
 4805SOL    HW215102   3.313   3.191   6.493
 4806SOL     OW15103   3.529   3.576   6.158
 4806SOL    HW115104   3.488   3.553   6.070
 4806SOL    HW215105   3.511   3.502   6.223
 4807SOL     OW15106   3.143   2.207   6.530
 4807SOL    HW115107   3.057   2.157   6.517
 4807SOL    HW215108   3.205   2.153   6.586
 4808SOL     OW15109   3.438   3.524   5.893
 4808SOL    HW115110   3.527   3.570   5.896
 4808SOL    HW215111   3.417   3.500   5.798
 4809SOL     OW15112   2.669   2.467   7.051
 4809SOL    HW115113   2.622   2.464   7.140
 4809SOL    HW215114   2.618   2.412   6.985
 4810SOL     OW15115   3.256   2.331   7.260
 4810SOL    HW115116   3.236   2.374   7.348
 4810SOL    HW215117   3.334   2.269   7.269
 4811SOL     OW15118   2.835   2.752   7.158
 4811SOL    HW115119   2.881   2.668   7.129
 4811SOL    HW215120   2.779   2.786   7.083
 4812SOL     OW15121   2.853   2.272   6.828
 4812SOL    HW115122   2.776   2.306   6.882
 4812SOL    HW215123   2.819   2.221   6.749
 4813SOL     OW15124   1.992   3.683   7.157
 4813SOL    HW115125   1.982   3.668   7.256
 4813SOL    HW215126   1.906   3.719   7.121
 4814SOL     OW15127   3.581   2.447   7.417
 4814SOL    HW115128   3.555   2.536   7.381
 4814SOL    HW215129   3.579   2.379   7.344
 4815SOL     OW15130   3.224   3.006   6.131
 4815SOL    HW115131   3.307   2.977   6.083
 4815SOL    HW215132   3.175   3.073   6.075
 4816SOL     OW15133   2.412   2.058   6.471
 4816SOL    HW115134   2.407   2.053   6.571
 4816SOL    HW215135   2.414   2.154   6.442
 4817SOL     OW15136   2.870   3.318   6.063
 4817SOL    HW115137   2.824   3.390   6.011
 4817SOL    HW215138   2.866   3.338   6.161
 4818SOL     OW15139   2.213   3.663   6.439
 4818SOL    HW115140   2.263   3.577   6.445
 4818SOL    HW215141   2.278   3.740   6.436
 4819SOL     OW15142   3.657   2.928   6.459
 4819SOL    HW115143   3.595   2.913   6.383
 4819SOL    HW215144   3.605   2.939   6.544
 4820SOL     OW15145   3.089   3.412   7.092
 4820SOL    HW115146   3.095   3.335   7.156
 4820SOL    HW215147   3.037   3.386   7.012
 4821SOL     OW15148   3.320   2.597   6.314
 4821SOL    HW115149   3.315   2.532   6.389
 4821SOL    HW215150   3.400   2.656   6.327
 4822SOL     OW15151   2.323   3.128   7.313
 4822SOL    HW115152   2.273   3.129   7.227
 4822SOL    HW215153   2.260   3.110   7.389
 4823SOL     OW15154   2.973   3.638   5.823
 4823SOL    HW115155   2.913   3.576   5.873
 4823SOL    HW215156   3.004   3.594   5.738
 4824SOL     OW15157   3.494   3.239   5.667
 4824SOL    HW115158   3.462   3.333   5.657
 4824SOL    HW215159   3.418   3.176   5.655
 4825SOL     OW15160   2.326   3.605   5.909
 4825SOL    HW115161   2.359   3.644   5.995
 4825SOL    HW215162   2.402   3.598   5.844
 4826SOL     OW15163   3.262   1.969   6.012
 4826SOL    HW115164   3.238   1.932   5.922
 4826SOL    HW215165   3.361   1.985   6.016
 4827SOL     OW15166   2.111   3.647   6.827
 4827SOL    HW115167   2.168   3.582   6.877
 4827SOL    HW215168   2.095   3.614   6.734
 4828SOL     OW15169   2.802   3.560   6.490
 4828SOL    HW115170   2.882   3.503   6.511
 4828SOL    HW215171   2.753   3.520   6.413
 4829SOL     OW15172   3.409   2.084   7.315
 4829SOL    HW115173   3.404   2.121   7.407
 4829SOL    HW215174   3.337   2.015   7.303
 4830SOL     OW15175   2.476   1.984   5.703
 4830SOL    HW115176   2.574   1.962   5.710
 4830SOL    HW215177   2.445   1.967   5.610
 4831SOL     OW15178   2.643   2.126   7.335
 4831SOL    HW115179   2.710   2.065   7.378
 4831SOL    HW215180   2.570   2.145   7.400
 4832SOL     OW15181   2.750   3.376   6.781
 4832SOL    HW115182   2.727   3.351   6.687
 4832SOL    HW215183   2.811   3.307   6.820
 4833SOL     OW15184   3.213   2.452   7.019
 4833SOL    HW115185   3.241   2.409   7.104
 4833SOL    HW215186   3.238   2.548   7.020
 4834SOL     OW15187   2.665   3.264   6.510
 4834SOL    HW115188   2.755   3.278   6.468
 4834SOL    HW215189   2.594   3.266   6.439
 4835SOL     OW15190   3.296   3.050   5.627
 4835SOL    HW115191   3.328   2.974   5.684
 4835SOL    HW215192   3.204   3.077   5.657
 4836SOL     OW15193   2.938   2.545   7.050
 4836SOL    HW115194   2.858   2.484   7.053
 4836SOL    HW215195   3.019   2.492   7.026
 4837SOL     OW15196   3.089   3.432   6.379
 4837SOL    HW115197   3.110   3.506   6.314
 4837SOL    HW215198   3.157   3.432   6.452
 4838SOL     OW15199   2.321   3.014   6.327
 4838SOL    HW115200   2.250   2.987   6.392
 4838SOL    HW215201   2.295   2.986   6.234
 4839SOL     OW15202   3.133   3.659   6.177
 4839SOL    HW115203   3.177   3.723   6.113
 4839SOL    HW215204   3.083   3.711   6.247
 4840SOL     OW15205   1.940   2.418   6.972
 4840SOL    HW115206   2.032   2.417   6.931
 4840SOL    HW215207   1.934   2.492   7.039
 4841SOL     OW15208   2.423   2.084   6.733
 4841SOL    HW115209   2.461   2.000   6.770
 4841SOL    HW215210   2.335   2.103   6.777
 4842SOL     OW15211   3.291   3.035   6.453
 4842SOL    HW115212   3.236   2.951   6.446
 4842SOL    HW215213   3.317   3.064   6.361
 4843SOL     OW15214   3.328   2.452   6.578
 4843SOL    HW115215   3.298   2.357   6.585
 4843SOL    HW215216   3.401   2.468   6.644
 4844SOL     OW15217   3.719   2.695   5.963
 4844SOL    HW115218   3.761   2.631   6.027
 4844SOL    HW215219   3.681   2.644   5.885
 4845SOL     OW15220   2.350   3.247   5.760
 4845SOL    HW115221   2.263   3.232   5.807
 4845SOL    HW215222   2.333   3.273   5.665
 4846SOL     OW15223   3.526   3.142   6.243
 4846SOL    HW115224   3.625   3.150   6.257
 4846SOL    HW215225   3.481   3.226   6.274
 4847SOL     OW15226   3.252   2.437   5.664
 4847SOL    HW115227   3.198   2.416   5.745
 4847SOL    HW215228   3.343   2.396   5.673
 4848SOL     OW15229   3.616   3.085   7.174
 4848SOL    HW115230   3.707   3.046   7.161
 4848SOL    HW215231   3.624   3.181   7.198
 4849SOL     OW15232   2.926   3.209   6.926
 4849SOL    HW115233   2.846   3.186   6.981
 4849SOL    HW215234   3.009   3.183   6.975
 4850SOL     OW15235   3.454   3.491   7.211
 4850SOL    HW115236   3.481   3.525   7.121
 4850SOL    HW215237   3.533   3.453   7.257
 4851SOL     OW15238   2.973   3.057   6.686
 4851SOL    HW115239   2.933   3.101   6.767
 4851SOL    HW215240   2.932   3.094   6.603
 4852SOL     OW15241   3.500   2.961   6.665
 4852SOL    HW115242   3.505   3.042   6.724
 4852SOL    HW215243   3.414   2.963   6.614
 4853SOL     OW15244   2.777   1.951   6.988
 4853SOL    HW115245   2.802   1.931   6.893
 4853SOL    HW215246   2.849   2.007   7.030
 4854SOL     OW15247   2.842   2.978   7.305
 4854SOL    HW115248   2.743   2.984   7.315
 4854SOL    HW215249   2.865   2.898   7.249
 4855SOL     OW15250   2.272   2.675   6.837
 4855SOL    HW115251   2.358   2.687   6.887
 4855SOL    HW215252   2.230   2.588   6.864
 4856SOL     OW15253   3.136   2.248   6.848
 4856SOL    HW115254   3.157   2.322   6.912
 4856SOL    HW215255   3.047   2.265   6.805
 4857SOL     OW15256   1.926   3.426   6.917
 4857SOL    HW115257   1.880   3.508   6.883
 4857SOL    HW215258   2.024   3.445   6.926
 4858SOL     OW15259   2.428   2.399   6.451
 4858SOL    HW115260   2.440   2.465   6.377
 4858SOL    HW215261   2.474   2.433   6.534
 4859SOL     OW15262   3.114   3.210   5.974
 4859SOL    HW115263   3.164   3.287   6.014
 4859SOL    HW215264   3.019   3.212   6.006
 4860SOL     OW15265   3.134   3.307   6.728
 4860SOL    HW115266   3.181   3.320   6.815
 4860SOL    HW215267   3.068   3.233   6.737
 4861SOL     OW15268   3.444   2.501   6.058
 4861SOL    HW115269   3.413   2.562   6.131
 4861SOL    HW215270   3.494   2.553   5.989
 4862SOL     OW15271   2.216   3.372   6.915
 4862SOL    HW115272   2.195   3.328   6.828
 4862SOL    HW215273   2.313   3.398   6.918
 4863SOL     OW15274   2.264   2.613   7.184
 4863SOL    HW115275   2.332   2.668   7.137
 4863SOL    HW215276   2.304   2.525   7.211
 4864SOL     OW15277   3.449   2.641   7.256
 4864SOL    HW115278   3.357   2.679   7.251
 4864SOL    HW215279   3.509   2.688   7.191
 4865SOL     OW15280   2.875   1.967   7.356
 4865SOL    HW115281   2.881   2.052   7.304
 4865SOL    HW215282   2.907   1.891   7.299
 4866SOL     OW15283   2.366   1.912   7.326
 4866SOL    HW115284   2.324   1.855   7.256
 4866SOL    HW215285   2.300   1.981   7.358
 4867SOL     OW15286   2.435   2.732   6.615
 4867SOL    HW115287   2.479   2.821   6.606
 4867SOL    HW215288   2.372   2.732   6.692
 4868SOL     OW15289   3.222   2.724   6.631
 4868SOL    HW115290   3.147   2.724   6.565
 4868SOL    HW215291   3.259   2.632   6.640
 4869SOL     OW15292   1.899   3.172   6.868
 4869SOL    HW115293   1.952   3.123   6.936
 4869SOL    HW215294   1.921   3.270   6.873
 4870SOL     OW15295   2.594   2.496   6.650
 4870SOL    HW115296   2.653   2.470   6.574
 4870SOL    HW215297   2.566   2.592   6.639
 4871SOL     OW15298   3.590   2.797   7.440
 4871SOL    HW115299   3.544   2.790   7.351
 4871SOL    HW215300   3.528   2.841   7.506
 4872SOL     OW15301   3.484   2.229   5.960
 4872SOL    HW115302   3.486   2.153   6.024
 4872SOL    HW215303   3.436   2.306   6.000
 4873SOL     OW15304   2.842   3.435   7.286
 4873SOL    HW115305   2.822   3.479   7.198
 4873SOL    HW215306   2.881   3.344   7.270
 4874SOL     OW15307   3.721   3.380   7.191
 4874SOL    HW115308   3.735   3.407   7.096
 4874SOL    HW215309   3.804   3.402   7.244
 4875SOL     OW15310   2.212   2.760   7.390
 4875SOL    HW115311   2.288   2.804   7.438
 4875SOL    HW215312   2.247   2.713   7.308
 4876SOL     OW15313   3.402   2.136   5.711
 4876SOL    HW115314   3.341   2.061   5.734
 4876SOL    HW215315   3.424   2.188   5.794
 4877SOL     OW15316   3.165   2.700   5.628
 4877SOL    HW115317   3.199   2.607   5.643
 4877SOL    HW215318   3.183   2.727   5.533
 4878SOL     OW15319   2.930   3.195   6.435
 4878SOL    HW115320   2.937   3.111   6.380
 4878SOL    HW215321   2.992   3.264   6.399
 4879SOL     OW15322   3.000   2.242   7.264
 4879SOL    HW115323   2.955   2.305   7.328
 4879SOL    HW215324   3.093   2.273   7.247
 4880SOL     OW15325   3.022   2.069   7.063
 4880SOL    HW115326   3.022   2.133   7.140
 4880SOL    HW215327   3.050   2.117   6.980
 4881SOL     OW15328   1.950   3.663   6.513
 4881SOL    HW115329   1.908   3.577   6.486
 4881SOL    HW215330   2.044   3.666   6.479
 4882SOL     OW15331   2.366   3.430   6.496
 4882SOL    HW115332   2.432   3.504   6.505
 4882SOL    HW215333   2.410   3.351   6.454
 4883SOL     OW15334   2.864   2.658   6.824
 4883SOL    HW115335   2.905   2.626   6.910
 4883SOL    HW215336   2.768   2.631   6.821
 4884SOL     OW15337   3.231   2.812   7.246
 4884SOL    HW115338   3.270   2.901   7.266
 4884SOL    HW215339   3.241   2.792   7.149
 4885SOL     OW15340   3.519   2.466   6.792
 4885SOL    HW115341   3.481   2.397   6.854
 4885SOL    HW215342   3.601   2.430   6.748
 4886SOL     OW15343   2.114   3.426   7.330
 4886SOL    HW115344   2.084   3.483   7.406
 4886SOL    HW215345   2.107   3.329   7.356
 4887SOL     OW15346   2.792   3.540   7.051
 4887SOL    HW115347   2.768   3.522   6.956
 4887SOL    HW215348   2.822   3.634   7.061
 4888SOL     OW15349   2.021   2.999   7.052
 4888SOL    HW115350   2.043   2.938   7.128
 4888SOL    HW215351   2.031   2.950   6.966
 4889SOL     OW15352   3.209   2.921   6.820
 4889SOL    HW115353   3.233   2.858   6.746
 4889SOL    HW215354   3.119   2.961   6.802
 4890SOL     OW15355   3.621   3.609   6.740
 4890SOL    HW115356   3.682   3.639   6.667
 4890SOL    HW215357   3.583   3.520   6.718
 4891SOL     OW15358   3.114   3.593   6.714
 4891SOL    HW115359   3.198   3.598   6.660
 4891SOL    HW215360   3.091   3.497   6.732
 4892SOL     OW15361   1.945   3.120   6.608
 4892SOL    HW115362   1.940   3.119   6.708
 4892SOL    HW215363   1.862   3.079   6.570
 4893SOL     OW15364   2.550   3.524   7.302
 4893SOL    HW115365   2.494   3.605   7.311
 4893SOL    HW215366   2.602   3.528   7.216
 4894SOL     OW15367   3.588   1.997   6.109
 4894SOL    HW115368   3.661   1.980   6.042
 4894SOL    HW215369   3.557   1.910   6.147
 4895SOL     OW15370   3.250   3.435   6.063
 4895SOL    HW115371   3.317   3.447   5.989
 4895SOL    HW215372   3.210   3.524   6.086
 4896SOL     OW15373   1.992   3.656   7.437
 4896SOL    HW115374   1.951   3.582   7.490
 4896SOL    HW215375   2.056   3.707   7.495
 4897SOL     OW15376   3.142   2.789   6.258
 4897SOL    HW115377   3.202   2.708   6.260
 4897SOL    HW215378   3.182   2.858   6.198
 4898SOL     OW15379   2.692   3.135   7.008
 4898SOL    HW115380   2.687   3.168   7.103
 4898SOL    HW215381   2.606   3.154   6.962
 4899SOL     OW15382   2.534   3.478   5.740
 4899SOL    HW115383   2.543   3.488   5.641
 4899SOL    HW215384   2.494   3.389   5.761
 4900SOL     OW15385   3.512   3.582   6.980
 4900SOL    HW115386   3.565   3.592   6.896
 4900SOL    HW215387   3.485   3.672   7.014
 4901SOL     OW15388   3.703   2.037   6.549
 4901SOL    HW115389   3.742   1.952   6.513
 4901SOL    HW215390   3.605   2.039   6.530
 4902SOL     OW15391   3.056   3.474   5.617
 4902SOL    HW115392   3.062   3.381   5.654
 4902SOL    HW215393   2.997   3.474   5.537
 4903SOL     OW15394   2.684   2.864   6.958
 4903SOL    HW115395   2.724   2.863   6.866
 4903SOL    HW215396   2.694   2.956   6.998
 4904SOL     OW15397   3.366   3.469   5.630
 4904SOL    HW115398   3.274   3.506   5.637
 4904SOL    HW215399   3.404   3.489   5.540
 4905SOL     OW15400   2.234   3.150   7.076
 4905SOL    HW115401   2.221   3.243   7.042
 4905SOL    HW215402   2.150   3.098   7.063
 4906SOL     OW15403   3.476   3.154   6.875
 4906SOL    HW115404   3.536   3.157   6.955
 4906SOL    HW215405   3.401   3.218   6.888
 4907SOL     OW15406   2.452   3.349   6.077
 4907SOL    HW115407   2.494   3.291   6.007
 4907SOL    HW215408   2.408   3.428   6.033
 4908SOL     OW15409   3.571   2.247   6.967
 4908SOL    HW115410   3.644   2.316   6.971
 4908SOL    HW215411   3.599   2.172   6.908
 4909SOL     OW15412   2.117   3.210   5.876
 4909SOL    HW115413   2.021   3.211   5.849
 4909SOL    HW215414   2.129   3.263   5.960
 4910SOL     OW15415   1.967   2.875   7.312
 4910SOL    HW115416   1.890   2.842   7.366
 4910SOL    HW215417   2.052   2.845   7.354
 4911SOL     OW15418   2.534   2.065   7.075
 4911SOL    HW115419   2.624   2.049   7.035
 4911SOL    HW215420   2.542   2.070   7.174
 4912SOL     OW15421   1.937   2.207   5.619
 4912SOL    HW115422   1.845   2.179   5.590
 4912SOL    HW215423   1.968   2.284   5.563
 4913SOL     OW15424   3.302   2.718   6.984
 4913SOL    HW115425   3.245   2.770   6.921
 4913SOL    HW215426   3.398   2.730   6.960
 4914SOL     OW15427   1.934   2.028   5.904
 4914SOL    HW115428   1.917   2.111   5.850
 4914SOL    HW215429   2.024   1.991   5.882
 4915SOL     OW15430   3.045   3.197   5.705
 4915SOL    HW115431   2.946   3.186   5.707
 4915SOL    HW215432   3.079   3.212   5.798
 4916SOL     OW15433   2.475   2.704   7.017
 4916SOL    HW115434   2.531   2.785   7.000
 4916SOL    HW215435   2.534   2.624   7.020
 4917SOL     OW15436   3.355   3.629   6.545
 4917SOL    HW115437   3.388   3.693   6.476
 4917SOL    HW215438   3.421   3.623   6.620
 4918SOL     OW15439   2.578   2.427   7.294
 4918SOL    HW115440   2.597   2.492   7.368
 4918SOL    HW215441   2.638   2.347   7.303
 4919SOL     OW15442   3.312   3.082   7.219
 4919SOL    HW115443   3.303   3.072   7.318
 4919SOL    HW215444   3.408   3.075   7.193
 4920SOL     OW15445   2.252   3.603   7.146
 4920SOL    HW115446   2.161   3.644   7.144
 4920SOL    HW215447   2.245   3.509   7.178
 4921SOL     OW15448   3.536   2.745   6.840
 4921SOL    HW115449   3.509   2.656   6.803
 4921SOL    HW215450   3.537   2.813   6.767
 4922SOL     OW15451   3.639   2.204   7.228
 4922SOL    HW115452   3.622   2.235   7.134
 4922SOL    HW215453   3.555   2.167   7.266
 4923SOL     OW15454   3.592   2.796   7.103
 4923SOL    HW115455   3.630   2.887   7.118
 4923SOL    HW215456   3.584   2.779   7.004
 4924SOL     OW15457   2.721   3.236   5.602
 4924SOL    HW115458   2.675   3.251   5.690
 4924SOL    HW215459   2.765   3.321   5.572
 4925SOL     OW15460   2.523   3.652   6.539
 4925SOL    HW115461   2.477   3.740   6.526
 4925SOL    HW215462   2.622   3.664   6.532
 4926SOL     OW15463   2.721   2.818   6.447
 4926SOL    HW115464   2.775   2.749   6.495
 4926SOL    HW215465   2.689   2.887   6.513
 4927SOL     OW15466   3.723   3.431   6.437
 4927SOL    HW115467   3.652   3.419   6.367
 4927SOL    HW215468   3.724   3.352   6.497
 4928SOL     OW15469   2.083   3.176   7.430
 4928SOL    HW115470   2.018   3.103   7.409
 4928SOL    HW215471   2.087   3.190   7.528
 4929SOL     OW15472   1.941   3.102   6.239
 4929SOL    HW115473   1.940   3.055   6.327
 4929SOL    HW215474   2.023   3.074   6.188
 4930SOL     OW15475   2.534   3.253   7.210
 4930SOL    HW115476   2.456   3.203   7.248
 4930SOL    HW215477   2.531   3.348   7.241
 4931SOL     OW15478   3.686   2.054   6.813
 4931SOL    HW115479   3.682   1.964   6.857
 4931SOL    HW215480   3.689   2.043   6.714
 4932SOL     OW15481   3.567   3.349   6.690
 4932SOL    HW115482   3.474   3.324   6.663
 4932SOL    HW215483   3.593   3.299   6.772
 4933SOL     OW15484   2.674   3.448   6.273
 4933SOL    HW115485   2.706   3.458   6.179
 4933SOL    HW215486   2.595   3.386   6.275
 4934SOL     OW15487   3.286   2.076   6.698
 4934SOL    HW115488   3.338   2.011   6.753
 4934SOL    HW215489   3.237   2.139   6.759
 4935SOL     OW15490   2.632   3.192   5.887
 4935SOL    HW115491   2.586   3.105   5.904
 4935SOL    HW215492   2.723   3.189   5.928
 4936SOL     OW15493   2.480   3.429   6.870
 4936SOL    HW115494   2.475   3.511   6.927
 4936SOL    HW215495   2.569   3.426   6.825
 4937SOL     OW15496   3.214   1.914   5.754
 4937SOL    HW115497   3.249   1.873   5.670
 4937SOL    HW215498   3.124   1.876   5.774
 4938SOL     OW15499   3.162   2.315   6.277
 4938SOL    HW115500   3.103   2.395   6.281
 4938SOL    HW215501   3.177   2.280   6.370
 4939SOL     OW15502   3.455   2.083   6.468
 4939SOL    HW115503   3.371   2.082   6.522
 4939SOL    HW215504   3.457   2.166   6.412
 4940SOL     OW15505   2.737   3.508   5.923
 4940SOL    HW115506   2.660   3.473   5.869
 4940SOL    HW215507   2.705   3.579   5.985
 4941SOL     OW15508   2.092   2.490   7.561
 4941SOL    HW115509   1.999   2.488   7.598
 4941SOL    HW215510   2.093   2.451   7.469
 4942SOL     OW15511   1.881   2.230   8.095
 4942SOL    HW115512   1.799   2.273   8.134
 4942SOL    HW215513   1.853   2.157   8.032
 4943SOL     OW15514   2.431   3.137   8.613
 4943SOL    HW115515   2.338   3.130   8.576
 4943SOL    HW215516   2.442   3.226   8.657
 4944SOL     OW15517   3.417   3.373   8.151
 4944SOL    HW115518   3.360   3.357   8.232
 4944SOL    HW215519   3.358   3.383   8.071
 4945SOL     OW15520   2.997   2.565   8.165
 4945SOL    HW115521   3.054   2.643   8.140
 4945SOL    HW215522   2.937   2.591   8.241
 4946SOL     OW15523   3.617   2.469   7.679
 4946SOL    HW115524   3.605   2.456   7.580
 4946SOL    HW215525   3.587   2.388   7.728
 4947SOL     OW15526   2.630   3.006   8.471
 4947SOL    HW115527   2.552   3.023   8.531
 4947SOL    HW215528   2.664   3.093   8.435
 4948SOL     OW15529   2.712   2.660   9.271
 4948SOL    HW115530   2.708   2.736   9.336
 4948SOL    HW215531   2.734   2.696   9.180
 4949SOL     OW15532   2.547   2.874   8.113
 4949SOL    HW115533   2.616   2.858   8.183
 4949SOL    HW215534   2.474   2.931   8.151
 4950SOL     OW15535   2.548   3.023   9.251
 4950SOL    HW115536   2.608   3.102   9.265
 4950SOL    HW215537   2.462   3.054   9.210
 4951SOL     OW15538   2.197   3.297   8.509
 4951SOL    HW115539   2.119   3.266   8.456
 4951SOL    HW215540   2.255   3.355   8.452
 4952SOL     OW15541   3.322   3.367   8.787
 4952SOL    HW115542   3.346   3.461   8.813
 4952SOL    HW215543   3.306   3.313   8.869
 4953SOL     OW15544   3.465   2.309   8.185
 4953SOL    HW115545   3.391   2.355   8.135
 4953SOL    HW215546   3.516   2.377   8.238
 4954SOL     OW15547   2.093   3.575   7.931
 4954SOL    HW115548   2.127   3.652   7.985
 4954SOL    HW215549   2.137   3.575   7.841
 4955SOL     OW15550   2.989   3.203   9.138
 4955SOL    HW115551   3.036   3.203   9.226
 4955SOL    HW215552   2.941   3.116   9.127
 4956SOL     OW15553   2.092   3.296   7.986
 4956SOL    HW115554   2.066   3.392   7.986
 4956SOL    HW215555   2.021   3.242   8.031
 4957SOL     OW15556   2.102   2.953   8.334
 4957SOL    HW115557   2.116   2.869   8.386
 4957SOL    HW215558   2.047   3.017   8.389
 4958SOL     OW15559   2.482   3.648   8.887
 4958SOL    HW115560   2.390   3.631   8.922
 4958SOL    HW215561   2.510   3.740   8.913
 4959SOL     OW15562   2.468   2.826   7.571
 4959SOL    HW115563   2.475   2.910   7.517
 4959SOL    HW215564   2.514   2.839   7.659
 4960SOL     OW15565   3.456   1.976   8.928
 4960SOL    HW115566   3.438   2.043   8.856
 4960SOL    HW215567   3.453   2.022   9.017
 4961SOL     OW15568   1.984   2.505   8.011
 4961SOL    HW115569   1.939   2.417   8.028
 4961SOL    HW215570   1.983   2.559   8.095
 4962SOL     OW15571   3.704   3.629   7.807
 4962SOL    HW115572   3.758   3.600   7.887
 4962SOL    HW215573   3.734   3.719   7.778
 4963SOL     OW15574   1.889   3.458   7.565
 4963SOL    HW115575   1.870   3.362   7.586
 4963SOL    HW215576   1.856   3.516   7.640
 4964SOL     OW15577   3.551   2.784   8.060
 4964SOL    HW115578   3.646   2.755   8.068
 4964SOL    HW215579   3.543   2.849   7.985
 4965SOL     OW15580   3.503   2.970   7.880
 4965SOL    HW115581   3.589   2.972   7.828
 4965SOL    HW215582   3.517   3.017   7.968
 4966SOL     OW15583   1.975   2.599   9.045
 4966SOL    HW115584   2.063   2.586   9.090
 4966SOL    HW215585   1.962   2.696   9.023
 4967SOL     OW15586   2.475   3.227   8.174
 4967SOL    HW115587   2.426   3.140   8.183
 4967SOL    HW215588   2.452   3.270   8.087
 4968SOL     OW15589   3.155   3.090   8.871
 4968SOL    HW115590   3.192   3.017   8.813
 4968SOL    HW215591   3.207   3.095   8.956
 4969SOL     OW15592   2.671   1.866   7.950
 4969SOL    HW115593   2.711   1.957   7.941
 4969SOL    HW215594   2.571   1.874   7.956
 4970SOL     OW15595   2.059   2.838   8.712
 4970SOL    HW115596   2.148   2.793   8.698
 4970SOL    HW215597   1.986   2.773   8.693
 4971SOL     OW15598   3.387   2.861   7.638
 4971SOL    HW115599   3.324   2.785   7.651
 4971SOL    HW215600   3.435   2.879   7.724
 4972SOL     OW15601   3.049   3.654   9.064
 4972SOL    HW115602   3.073   3.714   8.988
 4972SOL    HW215603   3.056   3.559   9.034
 4973SOL     OW15604   3.328   3.279   8.401
 4973SOL    HW115605   3.269   3.285   8.481
 4973SOL    HW215606   3.313   3.191   8.355
 4974SOL     OW15607   3.529   3.576   8.020
 4974SOL    HW115608   3.488   3.553   7.932
 4974SOL    HW215609   3.511   3.502   8.085
 4975SOL     OW15610   2.460   2.591   7.718
 4975SOL    HW115611   2.484   2.660   7.650
 4975SOL    HW215612   2.382   2.624   7.772
 4976SOL     OW15613   3.143   2.207   8.392
 4976SOL    HW115614   3.057   2.157   8.379
 4976SOL    HW215615   3.205   2.153   8.448
 4977SOL     OW15616   3.438   3.524   7.755
 4977SOL    HW115617   3.527   3.570   7.758
 4977SOL    HW215618   3.417   3.500   7.660
 4978SOL     OW15619   2.669   2.467   8.913
 4978SOL    HW115620   2.622   2.464   9.002
 4978SOL    HW215621   2.618   2.412   8.847
 4979SOL     OW15622   3.256   2.331   9.122
 4979SOL    HW115623   3.236   2.374   9.210
 4979SOL    HW215624   3.334   2.269   9.131
 4980SOL     OW15625   2.835   2.752   9.020
 4980SOL    HW115626   2.881   2.668   8.991
 4980SOL    HW215627   2.779   2.786   8.945
 4981SOL     OW15628   2.853   2.272   8.690
 4981SOL    HW115629   2.776   2.306   8.744
 4981SOL    HW215630   2.819   2.221   8.611
 4982SOL     OW15631   2.903   2.563   7.877
 4982SOL    HW115632   2.929   2.559   7.973
 4982SOL    HW215633   2.818   2.512   7.863
 4983SOL     OW15634   1.938   2.673   8.237
 4983SOL    HW115635   2.037   2.661   8.246
 4983SOL    HW215636   1.914   2.768   8.258
 4984SOL     OW15637   1.992   3.683   9.019
 4984SOL    HW115638   1.982   3.668   9.118
 4984SOL    HW215639   1.906   3.719   8.983
 4985SOL     OW15640   2.727   2.210   7.643
 4985SOL    HW115641   2.786   2.273   7.594
 4985SOL    HW215642   2.746   2.116   7.614
 4986SOL     OW15643   3.581   2.447   9.279
 4986SOL    HW115644   3.555   2.536   9.243
 4986SOL    HW215645   3.579   2.379   9.206
 4987SOL     OW15646   3.224   3.006   7.993
 4987SOL    HW115647   3.307   2.977   7.945
 4987SOL    HW215648   3.175   3.073   7.937
 4988SOL     OW15649   2.870   3.318   7.925
 4988SOL    HW115650   2.824   3.390   7.873
 4988SOL    HW215651   2.866   3.338   8.023
 4989SOL     OW15652   2.213   3.663   8.301
 4989SOL    HW115653   2.263   3.577   8.307
 4989SOL    HW215654   2.278   3.740   8.298
 4990SOL     OW15655   3.657   2.928   8.321
 4990SOL    HW115656   3.595   2.913   8.245
 4990SOL    HW215657   3.605   2.939   8.406
 4991SOL     OW15658   3.089   3.412   8.954
 4991SOL    HW115659   3.095   3.335   9.018
 4991SOL    HW215660   3.037   3.386   8.874
 4992SOL     OW15661   2.183   2.805   7.690
 4992SOL    HW115662   2.265   2.844   7.648
 4992SOL    HW215663   2.156   2.723   7.641
 4993SOL     OW15664   3.320   2.597   8.176
 4993SOL    HW115665   3.315   2.532   8.251
 4993SOL    HW215666   3.400   2.656   8.189
 4994SOL     OW15667   2.323   3.128   9.175
 4994SOL    HW115668   2.273   3.129   9.089
 4994SOL    HW215669   2.260   3.110   9.251
 4995SOL     OW15670   2.973   3.638   7.685
 4995SOL    HW115671   2.913   3.576   7.735
 4995SOL    HW215672   3.004   3.594   7.600
 4996SOL     OW15673   2.064   2.147   8.946
 4996SOL    HW115674   1.984   2.207   8.933
 4996SOL    HW215675   2.054   2.098   9.032
 4997SOL     OW15676   3.494   3.239   7.529
 4997SOL    HW115677   3.462   3.333   7.519
 4997SOL    HW215678   3.418   3.176   7.517
 4998SOL     OW15679   2.326   3.605   7.771
 4998SOL    HW115680   2.359   3.644   7.857
 4998SOL    HW215681   2.402   3.598   7.706
 4999SOL     OW15682   3.262   1.969   7.874
 4999SOL    HW115683   3.238   1.932   7.784
 4999SOL    HW215684   3.361   1.985   7.878
 5000SOL     OW15685   2.111   3.647   8.689
 5000SOL    HW115686   2.168   3.582   8.739
 5000SOL    HW215687   2.095   3.614   8.596
 5001SOL     OW15688   2.802   3.560   8.352
 5001SOL    HW115689   2.882   3.503   8.373
 5001SOL    HW215690   2.753   3.520   8.275
 5002SOL     OW15691   3.409   2.084   9.177
 5002SOL    HW115692   3.404   2.121   9.269
 5002SOL    HW215693   3.337   2.015   9.165
 5003SOL     OW15694   2.476   1.984   7.565
 5003SOL    HW115695   2.574   1.962   7.572
 5003SOL    HW215696   2.445   1.967   7.472
 5004SOL     OW15697   2.643   2.126   9.197
 5004SOL    HW115698   2.710   2.065   9.240
 5004SOL    HW215699   2.570   2.145   9.262
 5005SOL     OW15700   2.750   3.376   8.643
 5005SOL    HW115701   2.727   3.351   8.549
 5005SOL    HW215702   2.811   3.307   8.682
 5006SOL     OW15703   3.213   2.452   8.881
 5006SOL    HW115704   3.241   2.409   8.966
 5006SOL    HW215705   3.238   2.548   8.882
 5007SOL     OW15706   2.665   3.264   8.372
 5007SOL    HW115707   2.755   3.278   8.330
 5007SOL    HW215708   2.594   3.266   8.301
 5008SOL     OW15709   2.784   2.365   8.347
 5008SOL    HW115710   2.759   2.356   8.251
 5008SOL    HW215711   2.832   2.283   8.378
 5009SOL     OW15712   2.401   1.926   7.960
 5009SOL    HW115713   2.320   1.927   8.018
 5009SOL    HW215714   2.404   2.009   7.905
 5010SOL     OW15715   3.296   3.050   7.489
 5010SOL    HW115716   3.328   2.974   7.546
 5010SOL    HW215717   3.204   3.077   7.519
 5011SOL     OW15718   2.159   1.897   7.619
 5011SOL    HW115719   2.208   1.981   7.598
 5011SOL    HW215720   2.221   1.832   7.664
 5012SOL     OW15721   2.797   2.098   7.928
 5012SOL    HW115722   2.749   2.139   7.850
 5012SOL    HW215723   2.896   2.096   7.909
 5013SOL     OW15724   2.938   2.545   8.912
 5013SOL    HW115725   2.858   2.484   8.915
 5013SOL    HW215726   3.019   2.492   8.888
 5014SOL     OW15727   3.089   3.432   8.241
 5014SOL    HW115728   3.110   3.506   8.176
 5014SOL    HW215729   3.157   3.432   8.314
 5015SOL     OW15730   2.321   3.014   8.189
 5015SOL    HW115731   2.250   2.987   8.254
 5015SOL    HW215732   2.295   2.986   8.096
 5016SOL     OW15733   3.133   3.659   8.039
 5016SOL    HW115734   3.177   3.723   7.975
 5016SOL    HW215735   3.083   3.711   8.109
 5017SOL     OW15736   2.894   2.411   7.464
 5017SOL    HW115737   2.853   2.493   7.425
 5017SOL    HW215738   2.958   2.437   7.537
 5018SOL     OW15739   1.940   2.418   8.834
 5018SOL    HW115740   2.032   2.417   8.793
 5018SOL    HW215741   1.934   2.492   8.901
 5019SOL     OW15742   2.728   2.316   8.090
 5019SOL    HW115743   2.696   2.388   8.028
 5019SOL    HW215744   2.752   2.235   8.037
 5020SOL     OW15745   2.879   1.901   8.201
 5020SOL    HW115746   2.807   1.906   8.132
 5020SOL    HW215747   2.855   1.832   8.270
 5021SOL     OW15748   3.291   3.035   8.315
 5021SOL    HW115749   3.236   2.951   8.308
 5021SOL    HW215750   3.317   3.064   8.223
 5022SOL     OW15751   3.328   2.452   8.440
 5022SOL    HW115752   3.298   2.357   8.447
 5022SOL    HW215753   3.401   2.468   8.506
 5023SOL     OW15754   3.719   2.695   7.825
 5023SOL    HW115755   3.761   2.631   7.889
 5023SOL    HW215756   3.681   2.644   7.747
 5024SOL     OW15757   2.350   3.247   7.622
 5024SOL    HW115758   2.263   3.232   7.669
 5024SOL    HW215759   2.333   3.273   7.527
 5025SOL     OW15760   3.526   3.142   8.105
 5025SOL    HW115761   3.625   3.150   8.119
 5025SOL    HW215762   3.481   3.226   8.136
 5026SOL     OW15763   3.252   2.437   7.526
 5026SOL    HW115764   3.198   2.416   7.607
 5026SOL    HW215765   3.343   2.396   7.535
 5027SOL     OW15766   3.616   3.085   9.036
 5027SOL    HW115767   3.707   3.046   9.023
 5027SOL    HW215768   3.624   3.181   9.060
 5028SOL     OW15769   2.926   3.209   8.788
 5028SOL    HW115770   2.846   3.186   8.843
 5028SOL    HW215771   3.009   3.183   8.837
 5029SOL     OW15772   3.454   3.491   9.073
 5029SOL    HW115773   3.481   3.525   8.983
 5029SOL    HW215774   3.533   3.453   9.119
 5030SOL     OW15775   2.973   3.057   8.548
 5030SOL    HW115776   2.933   3.101   8.629
 5030SOL    HW215777   2.932   3.094   8.465
 5031SOL     OW15778   3.500   2.961   8.527
 5031SOL    HW115779   3.505   3.042   8.586
 5031SOL    HW215780   3.414   2.963   8.476
 5032SOL     OW15781   2.777   1.951   8.850
 5032SOL    HW115782   2.802   1.931   8.755
 5032SOL    HW215783   2.849   2.007   8.892
 5033SOL     OW15784   2.842   2.978   9.167
 5033SOL    HW115785   2.743   2.984   9.177
 5033SOL    HW215786   2.865   2.898   9.111
 5034SOL     OW15787   2.567   2.912   7.816
 5034SOL    HW115788   2.553   2.919   7.915
 5034SOL    HW215789   2.651   2.861   7.798
 5035SOL     OW15790   2.272   2.675   8.699
 5035SOL    HW115791   2.358   2.687   8.749
 5035SOL    HW215792   2.230   2.588   8.726
 5036SOL     OW15793   3.136   2.248   8.710
 5036SOL    HW115794   3.157   2.322   8.774
 5036SOL    HW215795   3.047   2.265   8.667
 5037SOL     OW15796   1.926   3.426   8.779
 5037SOL    HW115797   1.880   3.508   8.745
 5037SOL    HW215798   2.024   3.445   8.788
 5038SOL     OW15799   2.229   2.962   7.949
 5038SOL    HW115800   2.222   3.045   7.893
 5038SOL    HW215801   2.233   2.882   7.889
 5039SOL     OW15802   3.114   3.210   7.836
 5039SOL    HW115803   3.164   3.287   7.876
 5039SOL    HW215804   3.019   3.212   7.868
 5040SOL     OW15805   3.134   3.307   8.590
 5040SOL    HW115806   3.181   3.320   8.677
 5040SOL    HW215807   3.068   3.233   8.599
 5041SOL     OW15808   3.444   2.501   7.920
 5041SOL    HW115809   3.413   2.562   7.993
 5041SOL    HW215810   3.494   2.553   7.851
 5042SOL     OW15811   2.216   3.372   8.777
 5042SOL    HW115812   2.195   3.328   8.690
 5042SOL    HW215813   2.313   3.398   8.780
 5043SOL     OW15814   2.264   2.613   9.046
 5043SOL    HW115815   2.332   2.668   8.999
 5043SOL    HW215816   2.304   2.525   9.073
 5044SOL     OW15817   3.449   2.641   9.118
 5044SOL    HW115818   3.357   2.679   9.113
 5044SOL    HW215819   3.509   2.688   9.053
 5045SOL     OW15820   2.875   1.967   9.218
 5045SOL    HW115821   2.881   2.052   9.166
 5045SOL    HW215822   2.907   1.891   9.161
 5046SOL     OW15823   2.366   1.912   9.188
 5046SOL    HW115824   2.324   1.855   9.118
 5046SOL    HW215825   2.300   1.981   9.220
 5047SOL     OW15826   2.435   2.732   8.477
 5047SOL    HW115827   2.479   2.821   8.468
 5047SOL    HW215828   2.372   2.732   8.554
 5048SOL     OW15829   3.222   2.724   8.493
 5048SOL    HW115830   3.147   2.724   8.427
 5048SOL    HW215831   3.259   2.632   8.502
 5049SOL     OW15832   3.071   2.387   7.723
 5049SOL    HW115833   3.084   2.303   7.777
 5049SOL    HW215834   3.042   2.461   7.783
 5050SOL     OW15835   1.899   3.172   8.730
 5050SOL    HW115836   1.952   3.123   8.798
 5050SOL    HW215837   1.921   3.270   8.735
 5051SOL     OW15838   2.594   2.496   8.512
 5051SOL    HW115839   2.653   2.470   8.436
 5051SOL    HW215840   2.566   2.592   8.501
 5052SOL     OW15841   3.590   2.797   9.302
 5052SOL    HW115842   3.544   2.790   9.213
 5052SOL    HW215843   3.528   2.841   9.368
 5053SOL     OW15844   2.169   1.925   8.066
 5053SOL    HW115845   2.158   2.019   8.099
 5053SOL    HW215846   2.164   1.862   8.143
 5054SOL     OW15847   3.484   2.229   7.822
 5054SOL    HW115848   3.486   2.153   7.886
 5054SOL    HW215849   3.436   2.306   7.862
 5055SOL     OW15850   2.885   2.628   8.414
 5055SOL    HW115851   2.900   2.649   8.510
 5055SOL    HW215852   2.855   2.533   8.405
 5056SOL     OW15853   2.842   3.435   9.148
 5056SOL    HW115854   2.822   3.479   9.060
 5056SOL    HW215855   2.881   3.344   9.132
 5057SOL     OW15856   3.721   3.380   9.053
 5057SOL    HW115857   3.735   3.407   8.958
 5057SOL    HW215858   3.804   3.402   9.106
 5058SOL     OW15859   2.212   2.760   9.252
 5058SOL    HW115860   2.288   2.804   9.300
 5058SOL    HW215861   2.247   2.713   9.170
 5059SOL     OW15862   3.402   2.136   7.573
 5059SOL    HW115863   3.341   2.061   7.596
 5059SOL    HW215864   3.424   2.188   7.656
 5060SOL     OW15865   3.165   2.700   7.490
 5060SOL    HW115866   3.199   2.607   7.505
 5060SOL    HW215867   3.183   2.727   7.395
 5061SOL     OW15868   2.930   3.195   8.297
 5061SOL    HW115869   2.937   3.111   8.242
 5061SOL    HW215870   2.992   3.264   8.261
 5062SOL     OW15871   2.181   2.672   8.397
 5062SOL    HW115872   2.274   2.708   8.402
 5062SOL    HW215873   2.175   2.587   8.449
 5063SOL     OW15874   3.000   2.242   9.126
 5063SOL    HW115875   2.955   2.305   9.190
 5063SOL    HW215876   3.093   2.273   9.109
 5064SOL     OW15877   3.022   2.069   8.925
 5064SOL    HW115878   3.022   2.133   9.002
 5064SOL    HW215879   3.050   2.117   8.842
 5065SOL     OW15880   1.870   3.188   7.648
 5065SOL    HW115881   1.777   3.209   7.617
 5065SOL    HW215882   1.880   3.089   7.661
 5066SOL     OW15883   1.950   3.663   8.375
 5066SOL    HW115884   1.908   3.577   8.348
 5066SOL    HW215885   2.044   3.666   8.341
 5067SOL     OW15886   2.366   3.430   8.358
 5067SOL    HW115887   2.432   3.504   8.367
 5067SOL    HW215888   2.410   3.351   8.316
 5068SOL     OW15889   2.864   2.658   8.686
 5068SOL    HW115890   2.905   2.626   8.772
 5068SOL    HW215891   2.768   2.631   8.683
 5069SOL     OW15892   1.902   2.406   8.562
 5069SOL    HW115893   1.987   2.373   8.521
 5069SOL    HW215894   1.915   2.421   8.660
 5070SOL     OW15895   3.231   2.812   9.108
 5070SOL    HW115896   3.270   2.901   9.128
 5070SOL    HW215897   3.241   2.792   9.011
 5071SOL     OW15898   2.677   2.434   7.773
 5071SOL    HW115899   2.684   2.345   7.727
 5071SOL    HW215900   2.583   2.468   7.765
 5072SOL     OW15901   3.519   2.466   8.654
 5072SOL    HW115902   3.481   2.397   8.716
 5072SOL    HW215903   3.601   2.430   8.610
 5073SOL     OW15904   2.114   3.426   9.192
 5073SOL    HW115905   2.084   3.483   9.268
 5073SOL    HW215906   2.107   3.329   9.218
 5074SOL     OW15907   2.792   3.540   8.913
 5074SOL    HW115908   2.768   3.522   8.818
 5074SOL    HW215909   2.822   3.634   8.923
 5075SOL     OW15910   2.021   2.999   8.914
 5075SOL    HW115911   2.043   2.938   8.990
 5075SOL    HW215912   2.031   2.950   8.828
 5076SOL     OW15913   3.209   2.921   8.682
 5076SOL    HW115914   3.233   2.858   8.608
 5076SOL    HW215915   3.119   2.961   8.664
 5077SOL     OW15916   3.164   2.717   7.757
 5077SOL    HW115917   3.078   2.686   7.799
 5077SOL    HW215918   3.160   2.703   7.658
 5078SOL     OW15919   3.621   3.609   8.602
 5078SOL    HW115920   3.682   3.639   8.529
 5078SOL    HW215921   3.583   3.520   8.580
 5079SOL     OW15922   3.114   3.593   8.576
 5079SOL    HW115923   3.198   3.598   8.522
 5079SOL    HW215924   3.091   3.497   8.594
 5080SOL     OW15925   1.945   3.120   8.470
 5080SOL    HW115926   1.940   3.119   8.570
 5080SOL    HW215927   1.862   3.079   8.432
 5081SOL     OW15928   2.550   3.524   9.164
 5081SOL    HW115929   2.494   3.605   9.173
 5081SOL    HW215930   2.602   3.528   9.078
 5082SOL     OW15931   3.588   1.997   7.971
 5082SOL    HW115932   3.661   1.980   7.904
 5082SOL    HW215933   3.557   1.910   8.009
 5083SOL     OW15934   3.250   3.435   7.925
 5083SOL    HW115935   3.317   3.447   7.851
 5083SOL    HW215936   3.210   3.524   7.948
 5084SOL     OW15937   1.992   3.656   9.299
 5084SOL    HW115938   1.951   3.582   9.352
 5084SOL    HW215939   2.056   3.707   9.357
 5085SOL     OW15940   3.142   2.789   8.120
 5085SOL    HW115941   3.202   2.708   8.122
 5085SOL    HW215942   3.182   2.858   8.060
 5086SOL     OW15943   2.692   3.135   8.870
 5086SOL    HW115944   2.687   3.168   8.965
 5086SOL    HW215945   2.606   3.154   8.824
 5087SOL     OW15946   2.534   3.478   7.602
 5087SOL    HW115947   2.543   3.488   7.503
 5087SOL    HW215948   2.494   3.389   7.623
 5088SOL     OW15949   3.512   3.582   8.842
 5088SOL    HW115950   3.565   3.592   8.758
 5088SOL    HW215951   3.485   3.672   8.876
 5089SOL     OW15952   3.703   2.037   8.411
 5089SOL    HW115953   3.742   1.952   8.375
 5089SOL    HW215954   3.605   2.039   8.392
 5090SOL     OW15955   3.056   3.474   7.479
 5090SOL    HW115956   3.062   3.381   7.516
 5090SOL    HW215957   2.997   3.474   7.399
 5091SOL     OW15958   2.684   2.864   8.820
 5091SOL    HW115959   2.724   2.863   8.728
 5091SOL    HW215960   2.694   2.956   8.860
 5092SOL     OW15961   2.778   2.772   7.739
 5092SOL    HW115962   2.841   2.810   7.671
 5092SOL    HW215963   2.818   2.689   7.778
 5093SOL     OW15964   3.366   3.469   7.492
 5093SOL    HW115965   3.274   3.506   7.499
 5093SOL    HW215966   3.404   3.489   7.402
 5094SOL     OW15967   2.234   3.150   8.938
 5094SOL    HW115968   2.221   3.243   8.904
 5094SOL    HW215969   2.150   3.098   8.925
 5095SOL     OW15970   3.476   3.154   8.737
 5095SOL    HW115971   3.536   3.157   8.817
 5095SOL    HW215972   3.401   3.218   8.750
 5096SOL     OW15973   2.901   2.960   8.144
 5096SOL    HW115974   2.831   2.913   8.198
 5096SOL    HW215975   2.960   2.892   8.101
 5097SOL     OW15976   2.876   2.098   8.419
 5097SOL    HW115977   2.868   2.062   8.326
 5097SOL    HW215978   2.874   2.022   8.484
 5098SOL     OW15979   2.452   3.349   7.939
 5098SOL    HW115980   2.494   3.291   7.869
 5098SOL    HW215981   2.408   3.428   7.895
 5099SOL     OW15982   3.571   2.247   8.829
 5099SOL    HW115983   3.644   2.316   8.833
 5099SOL    HW215984   3.599   2.172   8.770
 5100SOL     OW15985   2.117   3.210   7.738
 5100SOL    HW115986   2.021   3.211   7.711
 5100SOL    HW215987   2.129   3.263   7.822
 5101SOL     OW15988   1.967   2.875   9.174
 5101SOL    HW115989   1.890   2.842   9.228
 5101SOL    HW215990   2.052   2.845   9.216
 5102SOL     OW15991   2.534   2.065   8.937
 5102SOL    HW115992   2.624   2.049   8.897
 5102SOL    HW215993   2.542   2.070   9.036
 5103SOL     OW15994   1.937   2.207   7.481
 5103SOL    HW115995   1.845   2.179   7.452
 5103SOL    HW215996   1.968   2.284   7.425
 5104SOL     OW15997   3.302   2.718   8.846
 5104SOL    HW115998   3.245   2.770   8.783
 5104SOL    HW215999   3.398   2.730   8.822
 5105SOL     OW16000   1.934   2.028   7.766
 5105SOL    HW116001   1.917   2.111   7.712
 5105SOL    HW216002   2.024   1.991   7.744
 5106SOL     OW16003   3.045   3.197   7.567
 5106SOL    HW116004   2.946   3.186   7.569
 5106SOL    HW216005   3.079   3.212   7.660
 5107SOL     OW16006   2.475   2.704   8.879
 5107SOL    HW116007   2.531   2.785   8.862
 5107SOL    HW216008   2.534   2.624   8.882
 5108SOL     OW16009   3.355   3.629   8.407
 5108SOL    HW116010   3.388   3.693   8.338
 5108SOL    HW216011   3.421   3.623   8.482
 5109SOL     OW16012   2.578   2.427   9.156
 5109SOL    HW116013   2.597   2.492   9.230
 5109SOL    HW216014   2.638   2.347   9.165
 5110SOL     OW16015   3.312   3.082   9.081
 5110SOL    HW116016   3.303   3.072   9.180
 5110SOL    HW216017   3.408   3.075   9.055
 5111SOL     OW16018   2.252   3.603   9.008
 5111SOL    HW116019   2.161   3.644   9.006
 5111SOL    HW216020   2.245   3.509   9.040
 5112SOL     OW16021   3.536   2.745   8.702
 5112SOL    HW116022   3.509   2.656   8.665
 5112SOL    HW216023   3.537   2.813   8.629
 5113SOL     OW16024   3.087   2.187   7.897
 5113SOL    HW116025   3.152   2.113   7.886
 5113SOL    HW216026   3.107   2.237   7.981
 5114SOL     OW16027   2.456   2.607   8.100
 5114SOL    HW116028   2.506   2.692   8.081
 5114SOL    HW216029   2.368   2.609   8.052
 5115SOL     OW16030   3.639   2.204   9.090
 5115SOL    HW116031   3.622   2.235   8.996
 5115SOL    HW216032   3.555   2.167   9.128
 5116SOL     OW16033   3.592   2.796   8.965
 5116SOL    HW116034   3.630   2.887   8.980
 5116SOL    HW216035   3.584   2.779   8.866
 5117SOL     OW16036   2.721   3.236   7.464
 5117SOL    HW116037   2.675   3.251   7.552
 5117SOL    HW216038   2.765   3.321   7.434
 5118SOL     OW16039   2.523   3.652   8.401
 5118SOL    HW116040   2.477   3.740   8.388
 5118SOL    HW216041   2.622   3.664   8.394
 5119SOL     OW16042   2.721   2.818   8.309
 5119SOL    HW116043   2.775   2.749   8.357
 5119SOL    HW216044   2.689   2.887   8.375
 5120SOL     OW16045   2.945   2.846   7.535
 5120SOL    HW116046   2.922   2.899   7.453
 5120SOL    HW216047   3.026   2.790   7.516
 5121SOL     OW16048   3.723   3.431   8.299
 5121SOL    HW116049   3.652   3.419   8.229
 5121SOL    HW216050   3.724   3.352   8.359
 5122SOL     OW16051   2.083   3.176   9.292
 5122SOL    HW116052   2.018   3.103   9.271
 5122SOL    HW216053   2.087   3.190   9.390
 5123SOL     OW16054   1.941   3.102   8.101
 5123SOL    HW116055   1.940   3.055   8.189
 5123SOL    HW216056   2.023   3.074   8.050
 5124SOL     OW16057   2.534   3.253   9.072
 5124SOL    HW116058   2.456   3.203   9.110
 5124SOL    HW216059   2.531   3.348   9.103
 5125SOL     OW16060   3.686   2.054   8.675
 5125SOL    HW116061   3.682   1.964   8.719
 5125SOL    HW216062   3.689   2.043   8.576
 5126SOL     OW16063   3.567   3.349   8.552
 5126SOL    HW116064   3.474   3.324   8.525
 5126SOL    HW216065   3.593   3.299   8.634
 5127SOL     OW16066   2.674   3.448   8.135
 5127SOL    HW116067   2.706   3.458   8.041
 5127SOL    HW216068   2.595   3.386   8.137
 5128SOL     OW16069   3.286   2.076   8.560
 5128SOL    HW116070   3.338   2.011   8.615
 5128SOL    HW216071   3.237   2.139   8.621
 5129SOL     OW16072   2.863   1.896   8.602
 5129SOL    HW116073   2.800   1.824   8.571
 5129SOL    HW216074   2.956   1.860   8.602
 5130SOL     OW16075   2.632   3.192   7.749
 5130SOL    HW116076   2.586   3.105   7.766
 5130SOL    HW216077   2.723   3.189   7.790
 5131SOL     OW16078   2.480   3.429   8.732
 5131SOL    HW116079   2.475   3.511   8.789
 5131SOL    HW216080   2.569   3.426   8.687
 5132SOL     OW16081   3.214   1.914   7.616
 5132SOL    HW116082   3.249   1.873   7.532
 5132SOL    HW216083   3.124   1.876   7.636
 5133SOL     OW16084   3.162   2.315   8.139
 5133SOL    HW116085   3.103   2.395   8.143
 5133SOL    HW216086   3.177   2.280   8.232
 5134SOL     OW16087   3.455   2.083   8.330
 5134SOL    HW116088   3.371   2.082   8.384
 5134SOL    HW216089   3.457   2.166   8.274
 5135SOL     OW16090   1.901   2.939   7.748
 5135SOL    HW116091   2.000   2.928   7.739
 5135SOL    HW216092   1.861   2.853   7.780
 5136SOL     OW16093   2.737   3.508   7.785
 5136SOL    HW116094   2.660   3.473   7.731
 5136SOL    HW216095   2.705   3.579   7.847
 5137SOL     OW16096   2.092   2.490   9.423
 5137SOL    HW116097   1.999   2.488   9.460
 5137SOL    HW216098   2.093   2.451   9.331
 5138SOL     OW16099   1.881   2.230   9.957
 5138SOL    HW116100   1.799   2.273   9.996
 5138SOL    HW216101   1.853   2.157   9.894
 5139SOL     OW16102   2.431   3.137  10.475
 5139SOL    HW116103   2.338   3.130  10.438
 5139SOL    HW216104   2.442   3.226  10.519
 5140SOL     OW16105   3.417   3.373  10.013
 5140SOL    HW116106   3.360   3.357  10.094
 5140SOL    HW216107   3.358   3.383   9.933
 5141SOL     OW16108   2.997   2.565  10.027
 5141SOL    HW116109   3.054   2.643  10.002
 5141SOL    HW216110   2.937   2.591  10.103
 5142SOL     OW16111   3.617   2.469   9.541
 5142SOL    HW116112   3.605   2.456   9.442
 5142SOL    HW216113   3.587   2.388   9.590
 5143SOL     OW16114   2.630   3.006  10.333
 5143SOL    HW116115   2.552   3.023  10.393
 5143SOL    HW216116   2.664   3.093  10.297
 5144SOL     OW16117   2.712   2.660  11.133
 5144SOL    HW116118   2.708   2.736  11.198
 5144SOL    HW216119   2.734   2.696  11.042
 5145SOL     OW16120   2.547   2.874   9.975
 5145SOL    HW116121   2.616   2.858  10.045
 5145SOL    HW216122   2.474   2.931  10.013
 5146SOL     OW16123   2.197   3.297  10.371
 5146SOL    HW116124   2.119   3.266  10.318
 5146SOL    HW216125   2.255   3.355  10.314
 5147SOL     OW16126   3.322   3.367  10.649
 5147SOL    HW116127   3.346   3.461  10.675
 5147SOL    HW216128   3.306   3.313  10.731
 5148SOL     OW16129   3.465   2.309  10.047
 5148SOL    HW116130   3.391   2.355   9.997
 5148SOL    HW216131   3.516   2.377  10.100
 5149SOL     OW16132   2.093   3.575   9.793
 5149SOL    HW116133   2.127   3.652   9.847
 5149SOL    HW216134   2.137   3.575   9.703
 5150SOL     OW16135   2.092   3.296   9.848
 5150SOL    HW116136   2.066   3.392   9.848
 5150SOL    HW216137   2.021   3.242   9.893
 5151SOL     OW16138   2.102   2.953  10.196
 5151SOL    HW116139   2.116   2.869  10.248
 5151SOL    HW216140   2.047   3.017  10.251
 5152SOL     OW16141   2.482   3.648  10.749
 5152SOL    HW116142   2.390   3.631  10.784
 5152SOL    HW216143   2.510   3.740  10.775
 5153SOL     OW16144   2.468   2.826   9.433
 5153SOL    HW116145   2.475   2.910   9.379
 5153SOL    HW216146   2.514   2.839   9.521
 5154SOL     OW16147   3.456   1.976  10.790
 5154SOL    HW116148   3.438   2.043  10.718
 5154SOL    HW216149   3.453   2.022  10.879
 5155SOL     OW16150   1.984   2.505   9.873
 5155SOL    HW116151   1.939   2.417   9.890
 5155SOL    HW216152   1.983   2.559   9.957
 5156SOL     OW16153   3.704   3.629   9.669
 5156SOL    HW116154   3.758   3.600   9.749
 5156SOL    HW216155   3.734   3.719   9.640
 5157SOL     OW16156   1.889   3.458   9.427
 5157SOL    HW116157   1.870   3.362   9.448
 5157SOL    HW216158   1.856   3.516   9.502
 5158SOL     OW16159   3.551   2.784   9.922
 5158SOL    HW116160   3.646   2.755   9.930
 5158SOL    HW216161   3.543   2.849   9.847
 5159SOL     OW16162   3.503   2.970   9.742
 5159SOL    HW116163   3.589   2.972   9.690
 5159SOL    HW216164   3.517   3.017   9.830
 5160SOL     OW16165   1.975   2.599  10.907
 5160SOL    HW116166   2.063   2.586  10.952
 5160SOL    HW216167   1.962   2.696  10.885
 5161SOL     OW16168   2.475   3.227  10.036
 5161SOL    HW116169   2.426   3.140  10.045
 5161SOL    HW216170   2.452   3.270   9.949
 5162SOL     OW16171   3.155   3.090  10.733
 5162SOL    HW116172   3.192   3.017  10.675
 5162SOL    HW216173   3.207   3.095  10.818
 5163SOL     OW16174   2.671   1.866   9.812
 5163SOL    HW116175   2.711   1.957   9.803
 5163SOL    HW216176   2.571   1.874   9.818
 5164SOL     OW16177   2.059   2.838  10.574
 5164SOL    HW116178   2.148   2.793  10.560
 5164SOL    HW216179   1.986   2.773  10.555
 5165SOL     OW16180   3.387   2.861   9.500
 5165SOL    HW116181   3.324   2.785   9.513
 5165SOL    HW216182   3.435   2.879   9.586
 5166SOL     OW16183   3.049   3.654  10.926
 5166SOL    HW116184   3.073   3.714  10.850
 5166SOL    HW216185   3.056   3.559  10.896
 5167SOL     OW16186   3.328   3.279  10.263
 5167SOL    HW116187   3.269   3.285  10.343
 5167SOL    HW216188   3.313   3.191  10.217
 5168SOL     OW16189   3.529   3.576   9.882
 5168SOL    HW116190   3.488   3.553   9.794
 5168SOL    HW216191   3.511   3.502   9.947
 5169SOL     OW16192   2.460   2.591   9.580
 5169SOL    HW116193   2.484   2.660   9.512
 5169SOL    HW216194   2.382   2.624   9.634
 5170SOL     OW16195   3.143   2.207  10.254
 5170SOL    HW116196   3.057   2.157  10.241
 5170SOL    HW216197   3.205   2.153  10.310
 5171SOL     OW16198   3.438   3.524   9.617
 5171SOL    HW116199   3.527   3.570   9.620
 5171SOL    HW216200   3.417   3.500   9.522
 5172SOL     OW16201   2.669   2.467  10.775
 5172SOL    HW116202   2.622   2.464  10.864
 5172SOL    HW216203   2.618   2.412  10.709
 5173SOL     OW16204   2.835   2.752  10.882
 5173SOL    HW116205   2.881   2.668  10.853
 5173SOL    HW216206   2.779   2.786  10.807
 5174SOL     OW16207   2.853   2.272  10.552
 5174SOL    HW116208   2.776   2.306  10.606
 5174SOL    HW216209   2.819   2.221  10.473
 5175SOL     OW16210   2.903   2.563   9.739
 5175SOL    HW116211   2.929   2.559   9.835
 5175SOL    HW216212   2.818   2.512   9.725
 5176SOL     OW16213   1.938   2.673  10.099
 5176SOL    HW116214   2.037   2.661  10.108
 5176SOL    HW216215   1.914   2.768  10.120
 5177SOL     OW16216   1.992   3.683  10.881
 5177SOL    HW116217   1.982   3.668  10.980
 5177SOL    HW216218   1.906   3.719  10.845
 5178SOL     OW16219   2.727   2.210   9.505
 5178SOL    HW116220   2.786   2.273   9.456
 5178SOL    HW216221   2.746   2.116   9.476
 5179SOL     OW16222   3.224   3.006   9.855
 5179SOL    HW116223   3.307   2.977   9.807
 5179SOL    HW216224   3.175   3.073   9.799
 5180SOL     OW16225   2.870   3.318   9.787
 5180SOL    HW116226   2.824   3.390   9.735
 5180SOL    HW216227   2.866   3.338   9.885
 5181SOL     OW16228   2.213   3.663  10.163
 5181SOL    HW116229   2.263   3.577  10.169
 5181SOL    HW216230   2.278   3.740  10.160
 5182SOL     OW16231   3.657   2.928  10.183
 5182SOL    HW116232   3.595   2.913  10.107
 5182SOL    HW216233   3.605   2.939  10.268
 5183SOL     OW16234   3.089   3.412  10.816
 5183SOL    HW116235   3.095   3.335  10.880
 5183SOL    HW216236   3.037   3.386  10.736
 5184SOL     OW16237   2.183   2.805   9.552
 5184SOL    HW116238   2.265   2.844   9.510
 5184SOL    HW216239   2.156   2.723   9.503
 5185SOL     OW16240   3.320   2.597  10.038
 5185SOL    HW116241   3.315   2.532  10.113
 5185SOL    HW216242   3.400   2.656  10.051
 5186SOL     OW16243   2.323   3.128  11.037
 5186SOL    HW116244   2.273   3.129  10.951
 5186SOL    HW216245   2.260   3.110  11.113
 5187SOL     OW16246   2.973   3.638   9.547
 5187SOL    HW116247   2.913   3.576   9.597
 5187SOL    HW216248   3.004   3.594   9.462
 5188SOL     OW16249   3.494   3.239   9.391
 5188SOL    HW116250   3.462   3.333   9.381
 5188SOL    HW216251   3.418   3.176   9.379
 5189SOL     OW16252   2.326   3.605   9.633
 5189SOL    HW116253   2.359   3.644   9.719
 5189SOL    HW216254   2.402   3.598   9.568
 5190SOL     OW16255   3.262   1.969   9.736
 5190SOL    HW116256   3.238   1.932   9.646
 5190SOL    HW216257   3.361   1.985   9.740
 5191SOL     OW16258   2.111   3.647  10.551
 5191SOL    HW116259   2.168   3.582  10.601
 5191SOL    HW216260   2.095   3.614  10.458
 5192SOL     OW16261   2.802   3.560  10.214
 5192SOL    HW116262   2.882   3.503  10.235
 5192SOL    HW216263   2.753   3.520  10.137
 5193SOL     OW16264   2.476   1.984   9.427
 5193SOL    HW116265   2.574   1.962   9.434
 5193SOL    HW216266   2.445   1.967   9.334
 5194SOL     OW16267   2.643   2.126  11.059
 5194SOL    HW116268   2.710   2.065  11.102
 5194SOL    HW216269   2.570   2.145  11.124
 5195SOL     OW16270   2.750   3.376  10.505
 5195SOL    HW116271   2.727   3.351  10.411
 5195SOL    HW216272   2.811   3.307  10.544
 5196SOL     OW16273   3.213   2.452  10.743
 5196SOL    HW116274   3.241   2.409  10.828
 5196SOL    HW216275   3.238   2.548  10.744
 5197SOL     OW16276   2.665   3.264  10.234
 5197SOL    HW116277   2.755   3.278  10.192
 5197SOL    HW216278   2.594   3.266  10.163
 5198SOL     OW16279   2.784   2.365  10.209
 5198SOL    HW116280   2.759   2.356  10.113
 5198SOL    HW216281   2.832   2.283  10.240
 5199SOL     OW16282   2.401   1.926   9.822
 5199SOL    HW116283   2.320   1.927   9.880
 5199SOL    HW216284   2.404   2.009   9.767
 5200SOL     OW16285   3.296   3.050   9.351
 5200SOL    HW116286   3.328   2.974   9.408
 5200SOL    HW216287   3.204   3.077   9.381
 5201SOL     OW16288   2.159   1.897   9.481
 5201SOL    HW116289   2.208   1.981   9.460
 5201SOL    HW216290   2.221   1.832   9.526
 5202SOL     OW16291   2.797   2.098   9.790
 5202SOL    HW116292   2.749   2.139   9.712
 5202SOL    HW216293   2.896   2.096   9.771
 5203SOL     OW16294   2.938   2.545  10.774
 5203SOL    HW116295   2.858   2.484  10.777
 5203SOL    HW216296   3.019   2.492  10.750
 5204SOL     OW16297   3.089   3.432  10.103
 5204SOL    HW116298   3.110   3.506  10.038
 5204SOL    HW216299   3.157   3.432  10.176
 5205SOL     OW16300   2.321   3.014  10.051
 5205SOL    HW116301   2.250   2.987  10.116
 5205SOL    HW216302   2.295   2.986   9.958
 5206SOL     OW16303   3.133   3.659   9.901
 5206SOL    HW116304   3.177   3.723   9.837
 5206SOL    HW216305   3.083   3.711   9.971
 5207SOL     OW16306   2.894   2.411   9.326
 5207SOL    HW116307   2.853   2.493   9.287
 5207SOL    HW216308   2.958   2.437   9.399
 5208SOL     OW16309   1.940   2.418  10.696
 5208SOL    HW116310   2.032   2.417  10.655
 5208SOL    HW216311   1.934   2.492  10.763
 5209SOL     OW16312   2.423   2.084  10.457
 5209SOL    HW116313   2.461   2.000  10.494
 5209SOL    HW216314   2.335   2.103  10.501
 5210SOL     OW16315   2.728   2.316   9.952
 5210SOL    HW116316   2.696   2.388   9.890
 5210SOL    HW216317   2.752   2.235   9.899
 5211SOL     OW16318   2.879   1.901  10.063
 5211SOL    HW116319   2.807   1.906   9.994
 5211SOL    HW216320   2.855   1.832  10.132
 5212SOL     OW16321   3.291   3.035  10.177
 5212SOL    HW116322   3.236   2.951  10.170
 5212SOL    HW216323   3.317   3.064  10.085
 5213SOL     OW16324   3.328   2.452  10.302
 5213SOL    HW116325   3.298   2.357  10.309
 5213SOL    HW216326   3.401   2.468  10.368
 5214SOL     OW16327   3.719   2.695   9.687
 5214SOL    HW116328   3.761   2.631   9.751
 5214SOL    HW216329   3.681   2.644   9.609
 5215SOL     OW16330   2.350   3.247   9.484
 5215SOL    HW116331   2.263   3.232   9.531
 5215SOL    HW216332   2.333   3.273   9.389
 5216SOL     OW16333   3.526   3.142   9.967
 5216SOL    HW116334   3.625   3.150   9.981
 5216SOL    HW216335   3.481   3.226   9.998
 5217SOL     OW16336   3.252   2.437   9.388
 5217SOL    HW116337   3.198   2.416   9.469
 5217SOL    HW216338   3.343   2.396   9.397
 5218SOL     OW16339   3.616   3.085  10.898
 5218SOL    HW116340   3.707   3.046  10.885
 5218SOL    HW216341   3.624   3.181  10.922
 5219SOL     OW16342   2.926   3.209  10.650
 5219SOL    HW116343   2.846   3.186  10.705
 5219SOL    HW216344   3.009   3.183  10.699
 5220SOL     OW16345   2.973   3.057  10.410
 5220SOL    HW116346   2.933   3.101  10.491
 5220SOL    HW216347   2.932   3.094  10.327
 5221SOL     OW16348   3.500   2.961  10.389
 5221SOL    HW116349   3.505   3.042  10.448
 5221SOL    HW216350   3.414   2.963  10.338
 5222SOL     OW16351   2.777   1.951  10.712
 5222SOL    HW116352   2.802   1.931  10.617
 5222SOL    HW216353   2.849   2.007  10.754
 5223SOL     OW16354   2.567   2.912   9.678
 5223SOL    HW116355   2.553   2.919   9.777
 5223SOL    HW216356   2.651   2.861   9.660
 5224SOL     OW16357   2.272   2.675  10.561
 5224SOL    HW116358   2.358   2.687  10.611
 5224SOL    HW216359   2.230   2.588  10.588
 5225SOL     OW16360   3.136   2.248  10.572
 5225SOL    HW116361   3.157   2.322  10.636
 5225SOL    HW216362   3.047   2.265  10.529
 5226SOL     OW16363   1.926   3.426  10.641
 5226SOL    HW116364   1.880   3.508  10.607
 5226SOL    HW216365   2.024   3.445  10.650
 5227SOL     OW16366   2.229   2.962   9.811
 5227SOL    HW116367   2.222   3.045   9.755
 5227SOL    HW216368   2.233   2.882   9.751
 5228SOL     OW16369   2.428   2.399  10.175
 5228SOL    HW116370   2.440   2.465  10.101
 5228SOL    HW216371   2.474   2.433  10.258
 5229SOL     OW16372   3.114   3.210   9.698
 5229SOL    HW116373   3.164   3.287   9.738
 5229SOL    HW216374   3.019   3.212   9.730
 5230SOL     OW16375   3.134   3.307  10.452
 5230SOL    HW116376   3.181   3.320  10.539
 5230SOL    HW216377   3.068   3.233  10.461
 5231SOL     OW16378   3.444   2.501   9.782
 5231SOL    HW116379   3.413   2.562   9.855
 5231SOL    HW216380   3.494   2.553   9.713
 5232SOL     OW16381   2.216   3.372  10.639
 5232SOL    HW116382   2.195   3.328  10.552
 5232SOL    HW216383   2.313   3.398  10.642
 5233SOL     OW16384   2.264   2.613  10.908
 5233SOL    HW116385   2.332   2.668  10.861
 5233SOL    HW216386   2.304   2.525  10.935
 5234SOL     OW16387   3.449   2.641  10.980
 5234SOL    HW116388   3.357   2.679  10.975
 5234SOL    HW216389   3.509   2.688  10.915
 5235SOL     OW16390   2.435   2.732  10.339
 5235SOL    HW116391   2.479   2.821  10.330
 5235SOL    HW216392   2.372   2.732  10.416
 5236SOL     OW16393   3.222   2.724  10.355
 5236SOL    HW116394   3.147   2.724  10.289
 5236SOL    HW216395   3.259   2.632  10.364
 5237SOL     OW16396   3.071   2.387   9.585
 5237SOL    HW116397   3.084   2.303   9.639
 5237SOL    HW216398   3.042   2.461   9.645
 5238SOL     OW16399   1.899   3.172  10.592
 5238SOL    HW116400   1.952   3.123  10.660
 5238SOL    HW216401   1.921   3.270  10.597
 5239SOL     OW16402   2.594   2.496  10.374
 5239SOL    HW116403   2.653   2.470  10.298
 5239SOL    HW216404   2.566   2.592  10.363
 5240SOL     OW16405   2.169   1.925   9.928
 5240SOL    HW116406   2.158   2.019   9.961
 5240SOL    HW216407   2.164   1.862  10.005
 5241SOL     OW16408   3.484   2.229   9.684
 5241SOL    HW116409   3.486   2.153   9.748
 5241SOL    HW216410   3.436   2.306   9.724
 5242SOL     OW16411   2.885   2.628  10.276
 5242SOL    HW116412   2.900   2.649  10.372
 5242SOL    HW216413   2.855   2.533  10.267
 5243SOL     OW16414   2.842   3.435  11.010
 5243SOL    HW116415   2.822   3.479  10.922
 5243SOL    HW216416   2.881   3.344  10.994
 5244SOL     OW16417   3.721   3.380  10.915
 5244SOL    HW116418   3.735   3.407  10.820
 5244SOL    HW216419   3.804   3.402  10.968
 5245SOL     OW16420   2.212   2.760  11.114
 5245SOL    HW116421   2.288   2.804  11.162
 5245SOL    HW216422   2.247   2.713  11.032
 5246SOL     OW16423   3.402   2.136   9.435
 5246SOL    HW116424   3.341   2.061   9.458
 5246SOL    HW216425   3.424   2.188   9.518
 5247SOL     OW16426   3.165   2.700   9.352
 5247SOL    HW116427   3.199   2.607   9.367
 5247SOL    HW216428   3.183   2.727   9.257
 5248SOL     OW16429   2.930   3.195  10.159
 5248SOL    HW116430   2.937   3.111  10.104
 5248SOL    HW216431   2.992   3.264  10.123
 5249SOL     OW16432   2.181   2.672  10.259
 5249SOL    HW116433   2.274   2.708  10.264
 5249SOL    HW216434   2.175   2.587  10.311
 5250SOL     OW16435   3.022   2.069  10.787
 5250SOL    HW116436   3.022   2.133  10.864
 5250SOL    HW216437   3.050   2.117  10.704
 5251SOL     OW16438   1.870   3.188   9.510
 5251SOL    HW116439   1.777   3.209   9.479
 5251SOL    HW216440   1.880   3.089   9.523
 5252SOL     OW16441   1.950   3.663  10.237
 5252SOL    HW116442   1.908   3.577  10.210
 5252SOL    HW216443   2.044   3.666  10.203
 5253SOL     OW16444   2.366   3.430  10.220
 5253SOL    HW116445   2.432   3.504  10.229
 5253SOL    HW216446   2.410   3.351  10.178
 5254SOL     OW16447   2.864   2.658  10.548
 5254SOL    HW116448   2.905   2.626  10.634
 5254SOL    HW216449   2.768   2.631  10.545
 5255SOL     OW16450   1.902   2.406  10.424
 5255SOL    HW116451   1.987   2.373  10.383
 5255SOL    HW216452   1.915   2.421  10.522
 5256SOL     OW16453   2.677   2.434   9.635
 5256SOL    HW116454   2.684   2.345   9.589
 5256SOL    HW216455   2.583   2.468   9.627
 5257SOL     OW16456   3.519   2.466  10.516
 5257SOL    HW116457   3.481   2.397  10.578
 5257SOL    HW216458   3.601   2.430  10.472
 5258SOL     OW16459   2.114   3.426  11.054
 5258SOL    HW116460   2.084   3.483  11.130
 5258SOL    HW216461   2.107   3.329  11.080
 5259SOL     OW16462   2.792   3.540  10.775
 5259SOL    HW116463   2.768   3.522  10.680
 5259SOL    HW216464   2.822   3.634  10.785
 5260SOL     OW16465   2.021   2.999  10.776
 5260SOL    HW116466   2.043   2.938  10.852
 5260SOL    HW216467   2.031   2.950  10.690
 5261SOL     OW16468   3.209   2.921  10.544
 5261SOL    HW116469   3.233   2.858  10.470
 5261SOL    HW216470   3.119   2.961  10.526
 5262SOL     OW16471   3.164   2.717   9.619
 5262SOL    HW116472   3.078   2.686   9.661
 5262SOL    HW216473   3.160   2.703   9.520
 5263SOL     OW16474   3.621   3.609  10.464
 5263SOL    HW116475   3.682   3.639  10.391
 5263SOL    HW216476   3.583   3.520  10.442
 5264SOL     OW16477   3.114   3.593  10.438
 5264SOL    HW116478   3.198   3.598  10.384
 5264SOL    HW216479   3.091   3.497  10.456
 5265SOL     OW16480   1.945   3.120  10.332
 5265SOL    HW116481   1.940   3.119  10.432
 5265SOL    HW216482   1.862   3.079  10.294
 5266SOL     OW16483   3.588   1.997   9.833
 5266SOL    HW116484   3.661   1.980   9.766
 5266SOL    HW216485   3.557   1.910   9.871
 5267SOL     OW16486   3.250   3.435   9.787
 5267SOL    HW116487   3.317   3.447   9.713
 5267SOL    HW216488   3.210   3.524   9.810
 5268SOL     OW16489   3.142   2.789   9.982
 5268SOL    HW116490   3.202   2.708   9.984
 5268SOL    HW216491   3.182   2.858   9.922
 5269SOL     OW16492   2.692   3.135  10.732
 5269SOL    HW116493   2.687   3.168  10.827
 5269SOL    HW216494   2.606   3.154  10.686
 5270SOL     OW16495   2.534   3.478   9.464
 5270SOL    HW116496   2.543   3.488   9.365
 5270SOL    HW216497   2.494   3.389   9.485
 5271SOL     OW16498   3.512   3.582  10.704
 5271SOL    HW116499   3.565   3.592  10.620
 5271SOL    HW216500   3.485   3.672  10.738
 5272SOL     OW16501   3.703   2.037  10.273
 5272SOL    HW116502   3.742   1.952  10.237
 5272SOL    HW216503   3.605   2.039  10.254
 5273SOL     OW16504   3.056   3.474   9.341
 5273SOL    HW116505   3.062   3.381   9.378
 5273SOL    HW216506   2.997   3.474   9.261
 5274SOL     OW16507   2.684   2.864  10.682
 5274SOL    HW116508   2.724   2.863  10.590
 5274SOL    HW216509   2.694   2.956  10.722
 5275SOL     OW16510   2.778   2.772   9.601
 5275SOL    HW116511   2.841   2.810   9.533
 5275SOL    HW216512   2.818   2.689   9.640
 5276SOL     OW16513   3.366   3.469   9.354
 5276SOL    HW116514   3.274   3.506   9.361
 5276SOL    HW216515   3.404   3.489   9.264
 5277SOL     OW16516   2.234   3.150  10.800
 5277SOL    HW116517   2.221   3.243  10.766
 5277SOL    HW216518   2.150   3.098  10.787
 5278SOL     OW16519   3.476   3.154  10.599
 5278SOL    HW116520   3.536   3.157  10.679
 5278SOL    HW216521   3.401   3.218  10.612
 5279SOL     OW16522   2.901   2.960  10.006
 5279SOL    HW116523   2.831   2.913  10.060
 5279SOL    HW216524   2.960   2.892   9.963
 5280SOL     OW16525   2.876   2.098  10.281
 5280SOL    HW116526   2.868   2.062  10.188
 5280SOL    HW216527   2.874   2.022  10.346
 5281SOL     OW16528   2.452   3.349   9.801
 5281SOL    HW116529   2.494   3.291   9.731
 5281SOL    HW216530   2.408   3.428   9.757
 5282SOL     OW16531   3.571   2.247  10.691
 5282SOL    HW116532   3.644   2.316  10.695
 5282SOL    HW216533   3.599   2.172  10.632
 5283SOL     OW16534   2.117   3.210   9.600
 5283SOL    HW116535   2.021   3.211   9.573
 5283SOL    HW216536   2.129   3.263   9.684
 5284SOL     OW16537   1.967   2.875  11.036
 5284SOL    HW116538   1.890   2.842  11.090
 5284SOL    HW216539   2.052   2.845  11.078
 5285SOL     OW16540   2.534   2.065  10.799
 5285SOL    HW116541   2.624   2.049  10.759
 5285SOL    HW216542   2.542   2.070  10.898
 5286SOL     OW16543   1.937   2.207   9.343
 5286SOL    HW116544   1.845   2.179   9.314
 5286SOL    HW216545   1.968   2.284   9.287
 5287SOL     OW16546   3.302   2.718  10.708
 5287SOL    HW116547   3.245   2.770  10.645
 5287SOL    HW216548   3.398   2.730  10.684
 5288SOL     OW16549   1.934   2.028   9.628
 5288SOL    HW116550   1.917   2.111   9.574
 5288SOL    HW216551   2.024   1.991   9.606
 5289SOL     OW16552   3.045   3.197   9.429
 5289SOL    HW116553   2.946   3.186   9.431
 5289SOL    HW216554   3.079   3.212   9.522
 5290SOL     OW16555   2.475   2.704  10.741
 5290SOL    HW116556   2.531   2.785  10.724
 5290SOL    HW216557   2.534   2.624  10.744
 5291SOL     OW16558   3.355   3.629  10.269
 5291SOL    HW116559   3.388   3.693  10.200
 5291SOL    HW216560   3.421   3.623  10.344
 5292SOL     OW16561   2.578   2.427  11.018
 5292SOL    HW116562   2.597   2.492  11.092
 5292SOL    HW216563   2.638   2.347  11.027
 5293SOL     OW16564   2.252   3.603  10.870
 5293SOL    HW116565   2.161   3.644  10.868
 5293SOL    HW216566   2.245   3.509  10.902
 5294SOL     OW16567   3.536   2.745  10.564
 5294SOL    HW116568   3.509   2.656  10.527
 5294SOL    HW216569   3.537   2.813  10.491
 5295SOL     OW16570   3.087   2.187   9.759
 5295SOL    HW116571   3.152   2.113   9.748
 5295SOL    HW216572   3.107   2.237   9.843
 5296SOL     OW16573   2.456   2.607   9.962
 5296SOL    HW116574   2.506   2.692   9.943
 5296SOL    HW216575   2.368   2.609   9.914
 5297SOL     OW16576   3.639   2.204  10.952
 5297SOL    HW116577   3.622   2.235  10.858
 5297SOL    HW216578   3.555   2.167  10.990
 5298SOL     OW16579   3.592   2.796  10.827
 5298SOL    HW116580   3.630   2.887  10.842
 5298SOL    HW216581   3.584   2.779  10.728
 5299SOL     OW16582   2.721   3.236   9.326
 5299SOL    HW116583   2.675   3.251   9.414
 5299SOL    HW216584   2.765   3.321   9.296
 5300SOL     OW16585   2.523   3.652  10.263
 5300SOL    HW116586   2.477   3.740  10.250
 5300SOL    HW216587   2.622   3.664  10.256
 5301SOL     OW16588   2.721   2.818  10.171
 5301SOL    HW116589   2.775   2.749  10.219
 5301SOL    HW216590   2.689   2.887  10.237
 5302SOL     OW16591   2.945   2.846   9.397
 5302SOL    HW116592   2.922   2.899   9.315
 5302SOL    HW216593   3.026   2.790   9.378
 5303SOL     OW16594   3.723   3.431  10.161
 5303SOL    HW116595   3.652   3.419  10.091
 5303SOL    HW216596   3.724   3.352  10.221
 5304SOL     OW16597   1.941   3.102   9.963
 5304SOL    HW116598   1.940   3.055  10.051
 5304SOL    HW216599   2.023   3.074   9.912
 5305SOL     OW16600   2.534   3.253  10.934
 5305SOL    HW116601   2.456   3.203  10.972
 5305SOL    HW216602   2.531   3.348  10.965
 5306SOL     OW16603   3.686   2.054  10.537
 5306SOL    HW116604   3.682   1.964  10.581
 5306SOL    HW216605   3.689   2.043  10.438
 5307SOL     OW16606   3.567   3.349  10.414
 5307SOL    HW116607   3.474   3.324  10.387
 5307SOL    HW216608   3.593   3.299  10.496
 5308SOL     OW16609   2.674   3.448   9.997
 5308SOL    HW116610   2.706   3.458   9.903
 5308SOL    HW216611   2.595   3.386   9.999
 5309SOL     OW16612   3.286   2.076  10.422
 5309SOL    HW116613   3.338   2.011  10.477
 5309SOL    HW216614   3.237   2.139  10.483
 5310SOL     OW16615   2.863   1.896  10.464
 5310SOL    HW116616   2.800   1.824  10.433
 5310SOL    HW216617   2.956   1.860  10.464
 5311SOL     OW16618   2.632   3.192   9.611
 5311SOL    HW116619   2.586   3.105   9.628
 5311SOL    HW216620   2.723   3.189   9.652
 5312SOL     OW16621   2.480   3.429  10.594
 5312SOL    HW116622   2.475   3.511  10.651
 5312SOL    HW216623   2.569   3.426  10.549
 5313SOL     OW16624   3.214   1.914   9.478
 5313SOL    HW116625   3.249   1.873   9.394
 5313SOL    HW216626   3.124   1.876   9.498
 5314SOL     OW16627   3.162   2.315  10.001
 5314SOL    HW116628   3.103   2.395  10.005
 5314SOL    HW216629   3.177   2.280  10.094
 5315SOL     OW16630   3.455   2.083  10.192
 5315SOL    HW116631   3.371   2.082  10.246
 5315SOL    HW216632   3.457   2.166  10.136
 5316SOL     OW16633   1.901   2.939   9.610
 5316SOL    HW116634   2.000   2.928   9.601
 5316SOL    HW216635   1.861   2.853   9.642
 5317SOL     OW16636   2.737   3.508   9.647
 5317SOL    HW116637   2.660   3.473   9.593
 5317SOL    HW216638   2.705   3.579   9.709
 5318SOL     OW16639   2.092   4.352   0.113
 5318SOL    HW116640   1.999   4.350   0.150
 5318SOL    HW216641   2.093   4.313   0.021
 5319SOL     OW16642   2.087   3.999   0.996
 5319SOL    HW116643   2.122   3.982   1.088
 5319SOL    HW216644   1.999   3.954   0.984
 5320SOL     OW16645   1.881   4.092   0.647
 5320SOL    HW116646   1.799   4.135   0.686
 5320SOL    HW216647   1.853   4.019   0.584
 5321SOL     OW16648   3.617   4.331   0.231
 5321SOL    HW116649   3.605   4.318   0.132
 5321SOL    HW216650   3.587   4.250   0.280
 5322SOL     OW16651   2.547   4.736   0.665
 5322SOL    HW116652   2.616   4.720   0.735
 5322SOL    HW216653   2.474   4.793   0.703
 5323SOL     OW16654   2.300   4.116   1.499
 5323SOL    HW116655   2.382   4.060   1.508
 5323SOL    HW216656   2.219   4.058   1.503
 5324SOL     OW16657   3.465   4.171   0.737
 5324SOL    HW116658   3.391   4.217   0.687
 5324SOL    HW216659   3.516   4.239   0.790
 5325SOL     OW16660   3.456   3.838   1.480
 5325SOL    HW116661   3.438   3.905   1.408
 5325SOL    HW216662   3.453   3.884   1.569
 5326SOL     OW16663   1.984   4.367   0.563
 5326SOL    HW116664   1.939   4.279   0.580
 5326SOL    HW216665   1.983   4.421   0.647
 5327SOL     OW16666   1.975   4.461   1.597
 5327SOL    HW116667   2.063   4.448   1.642
 5327SOL    HW216668   1.962   4.558   1.575
 5328SOL     OW16669   2.671   3.728   0.502
 5328SOL    HW116670   2.711   3.819   0.493
 5328SOL    HW216671   2.571   3.736   0.508
 5329SOL     OW16672   2.179   3.975   1.801
 5329SOL    HW116673   2.250   4.046   1.807
 5329SOL    HW216674   2.091   4.014   1.829
 5330SOL     OW16675   3.143   4.069   0.944
 5330SOL    HW116676   3.057   4.019   0.931
 5330SOL    HW216677   3.205   4.015   1.000
 5331SOL     OW16678   2.669   4.329   1.465
 5331SOL    HW116679   2.622   4.326   1.554
 5331SOL    HW216680   2.618   4.274   1.399
 5332SOL     OW16681   3.256   4.193   1.674
 5332SOL    HW116682   3.236   4.236   1.762
 5332SOL    HW216683   3.334   4.131   1.683
 5333SOL     OW16684   2.853   4.134   1.242
 5333SOL    HW116685   2.776   4.168   1.296
 5333SOL    HW216686   2.819   4.083   1.163
 5334SOL     OW16687   2.903   4.425   0.429
 5334SOL    HW116688   2.929   4.421   0.525
 5334SOL    HW216689   2.818   4.374   0.415
 5335SOL     OW16690   2.727   4.072   0.195
 5335SOL    HW116691   2.786   4.135   0.146
 5335SOL    HW216692   2.746   3.978   0.166
 5336SOL     OW16693   3.581   4.309   1.831
 5336SOL    HW116694   3.555   4.398   1.795
 5336SOL    HW216695   3.579   4.241   1.758
 5337SOL     OW16696   2.412   3.920   0.885
 5337SOL    HW116697   2.407   3.915   0.985
 5337SOL    HW216698   2.414   4.016   0.856
 5338SOL     OW16699   3.320   4.459   0.728
 5338SOL    HW116700   3.315   4.394   0.803
 5338SOL    HW216701   3.400   4.518   0.741
 5339SOL     OW16702   2.064   4.009   1.498
 5339SOL    HW116703   1.984   4.069   1.485
 5339SOL    HW216704   2.054   3.960   1.584
 5340SOL     OW16705   3.262   3.831   0.426
 5340SOL    HW116706   3.238   3.794   0.336
 5340SOL    HW216707   3.361   3.847   0.430
 5341SOL     OW16708   2.244   4.424   0.480
 5341SOL    HW116709   2.289   4.334   0.477
 5341SOL    HW216710   2.150   4.413   0.513
 5342SOL     OW16711   3.409   3.946   1.729
 5342SOL    HW116712   3.404   3.983   1.821
 5342SOL    HW216713   3.337   3.877   1.717
 5343SOL     OW16714   2.476   3.846   0.117
 5343SOL    HW116715   2.574   3.824   0.124
 5343SOL    HW216716   2.445   3.829   0.024
 5344SOL     OW16717   2.643   3.988   1.749
 5344SOL    HW116718   2.710   3.927   1.792
 5344SOL    HW216719   2.570   4.007   1.814
 5345SOL     OW16720   3.213   4.314   1.433
 5345SOL    HW116721   3.241   4.271   1.518
 5345SOL    HW216722   3.238   4.410   1.434
 5346SOL     OW16723   2.784   4.227   0.899
 5346SOL    HW116724   2.759   4.218   0.803
 5346SOL    HW216725   2.832   4.145   0.930
 5347SOL     OW16726   2.401   3.788   0.512
 5347SOL    HW116727   2.320   3.789   0.570
 5347SOL    HW216728   2.404   3.871   0.457
 5348SOL     OW16729   2.159   3.759   0.171
 5348SOL    HW116730   2.208   3.843   0.150
 5348SOL    HW216731   2.221   3.694   0.216
 5349SOL     OW16732   2.797   3.960   0.480
 5349SOL    HW116733   2.749   4.001   0.402
 5349SOL    HW216734   2.896   3.958   0.461
 5350SOL     OW16735   2.938   4.407   1.464
 5350SOL    HW116736   2.858   4.346   1.467
 5350SOL    HW216737   3.019   4.354   1.440
 5351SOL     OW16738   2.894   4.273   0.016
 5351SOL    HW116739   2.853   4.355  -0.023
 5351SOL    HW216740   2.958   4.299   0.089
 5352SOL     OW16741   1.940   4.280   1.386
 5352SOL    HW116742   2.032   4.279   1.345
 5352SOL    HW216743   1.934   4.354   1.453
 5353SOL     OW16744   2.423   3.946   1.147
 5353SOL    HW116745   2.461   3.862   1.184
 5353SOL    HW216746   2.335   3.965   1.191
 5354SOL     OW16747   2.728   4.178   0.642
 5354SOL    HW116748   2.696   4.250   0.580
 5354SOL    HW216749   2.752   4.097   0.589
 5355SOL     OW16750   2.879   3.763   0.753
 5355SOL    HW116751   2.807   3.768   0.684
 5355SOL    HW216752   2.855   3.694   0.822
 5356SOL     OW16753   3.328   4.314   0.992
 5356SOL    HW116754   3.298   4.219   0.999
 5356SOL    HW216755   3.401   4.330   1.058
 5357SOL     OW16756   3.252   4.299   0.078
 5357SOL    HW116757   3.198   4.278   0.159
 5357SOL    HW216758   3.343   4.258   0.087
 5358SOL     OW16759   2.389   3.980   0.328
 5358SOL    HW116760   2.416   3.921   0.253
 5358SOL    HW216761   2.389   4.075   0.297
 5359SOL     OW16762   2.777   3.813   1.402
 5359SOL    HW116763   2.802   3.793   1.307
 5359SOL    HW216764   2.849   3.869   1.444
 5360SOL     OW16765   2.272   4.537   1.251
 5360SOL    HW116766   2.358   4.549   1.301
 5360SOL    HW216767   2.230   4.450   1.278
 5361SOL     OW16768   3.136   4.110   1.262
 5361SOL    HW116769   3.157   4.184   1.326
 5361SOL    HW216770   3.047   4.127   1.219
 5362SOL     OW16771   2.428   4.261   0.865
 5362SOL    HW116772   2.440   4.327   0.791
 5362SOL    HW216773   2.474   4.295   0.948
 5363SOL     OW16774   3.444   4.363   0.472
 5363SOL    HW116775   3.413   4.424   0.545
 5363SOL    HW216776   3.494   4.415   0.403
 5364SOL     OW16777   2.875   3.829   1.770
 5364SOL    HW116778   2.881   3.914   1.718
 5364SOL    HW216779   2.907   3.753   1.713
 5365SOL     OW16780   2.366   3.774   1.740
 5365SOL    HW116781   2.324   3.717   1.670
 5365SOL    HW216782   2.300   3.843   1.772
 5366SOL     OW16783   3.071   4.249   0.275
 5366SOL    HW116784   3.084   4.165   0.329
 5366SOL    HW216785   3.042   4.323   0.335
 5367SOL     OW16786   2.169   3.937   1.231
 5367SOL    HW116787   2.146   3.974   1.321
 5367SOL    HW216788   2.139   3.842   1.225
 5368SOL     OW16789   2.594   4.358   1.064
 5368SOL    HW116790   2.653   4.332   0.988
 5368SOL    HW216791   2.566   4.454   1.053
 5369SOL     OW16792   3.590   4.659   1.854
 5369SOL    HW116793   3.544   4.652   1.765
 5369SOL    HW216794   3.528   4.703   1.920
 5370SOL     OW16795   2.169   3.787   0.618
 5370SOL    HW116796   2.158   3.881   0.651
 5370SOL    HW216797   2.164   3.724   0.695
 5371SOL     OW16798   3.484   4.091   0.374
 5371SOL    HW116799   3.486   4.015   0.438
 5371SOL    HW216800   3.436   4.168   0.414
 5372SOL     OW16801   3.402   3.998   0.125
 5372SOL    HW116802   3.341   3.923   0.148
 5372SOL    HW216803   3.424   4.050   0.208
 5373SOL     OW16804   2.181   4.534   0.949
 5373SOL    HW116805   2.274   4.570   0.954
 5373SOL    HW216806   2.175   4.449   1.001
 5374SOL     OW16807   2.201   4.233   1.006
 5374SOL    HW116808   2.149   4.150   0.989
 5374SOL    HW216809   2.278   4.238   0.942
 5375SOL     OW16810   3.000   4.104   1.678
 5375SOL    HW116811   2.955   4.167   1.742
 5375SOL    HW216812   3.093   4.135   1.661
 5376SOL     OW16813   3.022   3.931   1.477
 5376SOL    HW116814   3.022   3.995   1.554
 5376SOL    HW216815   3.050   3.979   1.394
 5377SOL     OW16816   1.902   4.268   1.114
 5377SOL    HW116817   1.987   4.235   1.073
 5377SOL    HW216818   1.915   4.283   1.212
 5378SOL     OW16819   2.051   4.244   1.722
 5378SOL    HW116820   2.110   4.204   1.652
 5378SOL    HW216821   1.993   4.315   1.681
 5379SOL     OW16822   2.677   4.296   0.325
 5379SOL    HW116823   2.684   4.207   0.279
 5379SOL    HW216824   2.583   4.330   0.317
 5380SOL     OW16825   3.519   4.328   1.206
 5380SOL    HW116826   3.481   4.259   1.268
 5380SOL    HW216827   3.601   4.292   1.162
 5381SOL     OW16828   2.533   4.188   1.269
 5381SOL    HW116829   2.499   4.099   1.239
 5381SOL    HW216830   2.559   4.242   1.189
 5382SOL     OW16831   2.335   4.224   0.191
 5382SOL    HW116832   2.396   4.304   0.195
 5382SOL    HW216833   2.240   4.255   0.198
 5383SOL     OW16834   2.765   3.810   0.133
 5383SOL    HW116835   2.816   3.811   0.047
 5383SOL    HW216836   2.821   3.768   0.204
 5384SOL     OW16837   3.588   3.859   0.523
 5384SOL    HW116838   3.661   3.842   0.456
 5384SOL    HW216839   3.557   3.772   0.561
 5385SOL     OW16840   3.142   4.651   0.672
 5385SOL    HW116841   3.202   4.570   0.674
 5385SOL    HW216842   3.182   4.720   0.612
 5386SOL     OW16843   3.703   3.899   0.963
 5386SOL    HW116844   3.742   3.814   0.927
 5386SOL    HW216845   3.605   3.901   0.944
 5387SOL     OW16846   2.125   4.050   0.720
 5387SOL    HW116847   2.046   4.101   0.686
 5387SOL    HW216848   2.116   4.035   0.818
 5388SOL     OW16849   2.901   4.822   0.696
 5388SOL    HW116850   2.831   4.775   0.750
 5388SOL    HW216851   2.960   4.754   0.653
 5389SOL     OW16852   2.876   3.960   0.971
 5389SOL    HW116853   2.868   3.924   0.878
 5389SOL    HW216854   2.874   3.884   1.036
 5390SOL     OW16855   3.571   4.109   1.381
 5390SOL    HW116856   3.644   4.178   1.385
 5390SOL    HW216857   3.599   4.034   1.322
 5391SOL     OW16858   2.534   3.927   1.489
 5391SOL    HW116859   2.624   3.911   1.449
 5391SOL    HW216860   2.542   3.932   1.588
 5392SOL     OW16861   1.937   4.069   0.033
 5392SOL    HW116862   1.845   4.041   0.004
 5392SOL    HW216863   1.968   4.146  -0.023
 5393SOL     OW16864   1.934   3.890   0.318
 5393SOL    HW116865   1.917   3.973   0.264
 5393SOL    HW216866   2.024   3.853   0.296
 5394SOL     OW16867   2.578   4.289   1.708
 5394SOL    HW116868   2.597   4.354   1.782
 5394SOL    HW216869   2.638   4.209   1.717
 5395SOL     OW16870   3.087   4.049   0.449
 5395SOL    HW116871   3.152   3.975   0.438
 5395SOL    HW216872   3.107   4.099   0.533
 5396SOL     OW16873   3.639   4.066   1.642
 5396SOL    HW116874   3.622   4.097   1.548
 5396SOL    HW216875   3.555   4.029   1.680
 5397SOL     OW16876   2.945   4.708   0.087
 5397SOL    HW116877   2.922   4.761   0.005
 5397SOL    HW216878   3.026   4.652   0.068
 5398SOL     OW16879   3.686   3.916   1.227
 5398SOL    HW116880   3.682   3.826   1.271
 5398SOL    HW216881   3.689   3.905   1.128
 5399SOL     OW16882   2.290   4.148   0.520
 5399SOL    HW116883   2.320   4.076   0.458
 5399SOL    HW216884   2.251   4.108   0.603
 5400SOL     OW16885   2.179   4.271   1.280
 5400SOL    HW116886   2.217   4.212   1.352
 5400SOL    HW216887   2.219   4.245   1.192
 5401SOL     OW16888   3.286   3.938   1.112
 5401SOL    HW116889   3.338   3.873   1.167
 5401SOL    HW216890   3.237   4.001   1.173
 5402SOL     OW16891   2.863   3.758   1.154
 5402SOL    HW116892   2.800   3.686   1.123
 5402SOL    HW216893   2.956   3.722   1.154
 5403SOL     OW16894   3.214   3.776   0.168
 5403SOL    HW116895   3.249   3.735   0.084
 5403SOL    HW216896   3.124   3.738   0.188
 5404SOL     OW16897   3.162   4.177   0.691
 5404SOL    HW116898   3.103   4.257   0.695
 5404SOL    HW216899   3.177   4.142   0.784
 5405SOL     OW16900   3.455   3.945   0.882
 5405SOL    HW116901   3.371   3.944   0.936
 5405SOL    HW216902   3.457   4.028   0.826
 5406SOL     OW16903   2.092   4.352   1.975
 5406SOL    HW116904   1.999   4.350   2.012
 5406SOL    HW216905   2.093   4.313   1.883
 5407SOL     OW16906   2.087   3.999   2.858
 5407SOL    HW116907   2.122   3.982   2.950
 5407SOL    HW216908   1.999   3.954   2.846
 5408SOL     OW16909   1.881   4.092   2.509
 5408SOL    HW116910   1.799   4.135   2.548
 5408SOL    HW216911   1.853   4.019   2.446
 5409SOL     OW16912   3.617   4.331   2.093
 5409SOL    HW116913   3.605   4.318   1.994
 5409SOL    HW216914   3.587   4.250   2.142
 5410SOL     OW16915   2.547   4.736   2.527
 5410SOL    HW116916   2.616   4.720   2.597
 5410SOL    HW216917   2.474   4.793   2.565
 5411SOL     OW16918   2.300   4.116   3.361
 5411SOL    HW116919   2.382   4.060   3.370
 5411SOL    HW216920   2.219   4.058   3.365
 5412SOL     OW16921   3.465   4.171   2.599
 5412SOL    HW116922   3.391   4.217   2.549
 5412SOL    HW216923   3.516   4.239   2.652
 5413SOL     OW16924   3.456   3.838   3.342
 5413SOL    HW116925   3.438   3.905   3.270
 5413SOL    HW216926   3.453   3.884   3.431
 5414SOL     OW16927   1.984   4.367   2.425
 5414SOL    HW116928   1.939   4.279   2.442
 5414SOL    HW216929   1.983   4.421   2.509
 5415SOL     OW16930   1.975   4.461   3.459
 5415SOL    HW116931   2.063   4.448   3.504
 5415SOL    HW216932   1.962   4.558   3.437
 5416SOL     OW16933   2.671   3.728   2.364
 5416SOL    HW116934   2.711   3.819   2.355
 5416SOL    HW216935   2.571   3.736   2.370
 5417SOL     OW16936   2.179   3.975   3.663
 5417SOL    HW116937   2.250   4.046   3.669
 5417SOL    HW216938   2.091   4.014   3.691
 5418SOL     OW16939   3.143   4.069   2.806
 5418SOL    HW116940   3.057   4.019   2.793
 5418SOL    HW216941   3.205   4.015   2.862
 5419SOL     OW16942   2.669   4.329   3.327
 5419SOL    HW116943   2.622   4.326   3.416
 5419SOL    HW216944   2.618   4.274   3.261
 5420SOL     OW16945   3.256   4.193   3.536
 5420SOL    HW116946   3.236   4.236   3.624
 5420SOL    HW216947   3.334   4.131   3.545
 5421SOL     OW16948   2.853   4.134   3.104
 5421SOL    HW116949   2.776   4.168   3.158
 5421SOL    HW216950   2.819   4.083   3.025
 5422SOL     OW16951   2.903   4.425   2.291
 5422SOL    HW116952   2.929   4.421   2.387
 5422SOL    HW216953   2.818   4.374   2.277
 5423SOL     OW16954   2.727   4.072   2.057
 5423SOL    HW116955   2.786   4.135   2.008
 5423SOL    HW216956   2.746   3.978   2.028
 5424SOL     OW16957   3.581   4.309   3.693
 5424SOL    HW116958   3.555   4.398   3.657
 5424SOL    HW216959   3.579   4.241   3.620
 5425SOL     OW16960   2.412   3.920   2.747
 5425SOL    HW116961   2.407   3.915   2.847
 5425SOL    HW216962   2.414   4.016   2.718
 5426SOL     OW16963   3.320   4.459   2.590
 5426SOL    HW116964   3.315   4.394   2.665
 5426SOL    HW216965   3.400   4.518   2.603
 5427SOL     OW16966   2.064   4.009   3.360
 5427SOL    HW116967   1.984   4.069   3.347
 5427SOL    HW216968   2.054   3.960   3.446
 5428SOL     OW16969   3.262   3.831   2.288
 5428SOL    HW116970   3.238   3.794   2.198
 5428SOL    HW216971   3.361   3.847   2.292
 5429SOL     OW16972   2.244   4.424   2.342
 5429SOL    HW116973   2.289   4.334   2.339
 5429SOL    HW216974   2.150   4.413   2.375
 5430SOL     OW16975   3.409   3.946   3.591
 5430SOL    HW116976   3.404   3.983   3.683
 5430SOL    HW216977   3.337   3.877   3.579
 5431SOL     OW16978   2.476   3.846   1.979
 5431SOL    HW116979   2.574   3.824   1.986
 5431SOL    HW216980   2.445   3.829   1.886
 5432SOL     OW16981   2.643   3.988   3.611
 5432SOL    HW116982   2.710   3.927   3.654
 5432SOL    HW216983   2.570   4.007   3.676
 5433SOL     OW16984   3.213   4.314   3.295
 5433SOL    HW116985   3.241   4.271   3.380
 5433SOL    HW216986   3.238   4.410   3.296
 5434SOL     OW16987   2.784   4.227   2.761
 5434SOL    HW116988   2.759   4.218   2.665
 5434SOL    HW216989   2.832   4.145   2.792
 5435SOL     OW16990   2.401   3.788   2.374
 5435SOL    HW116991   2.320   3.789   2.432
 5435SOL    HW216992   2.404   3.871   2.319
 5436SOL     OW16993   2.159   3.759   2.033
 5436SOL    HW116994   2.208   3.843   2.012
 5436SOL    HW216995   2.221   3.694   2.078
 5437SOL     OW16996   2.797   3.960   2.342
 5437SOL    HW116997   2.749   4.001   2.264
 5437SOL    HW216998   2.896   3.958   2.323
 5438SOL     OW16999   2.938   4.407   3.326
 5438SOL    HW117000   2.858   4.346   3.329
 5438SOL    HW217001   3.019   4.354   3.302
 5439SOL     OW17002   2.894   4.273   1.878
 5439SOL    HW117003   2.853   4.355   1.839
 5439SOL    HW217004   2.958   4.299   1.951
 5440SOL     OW17005   1.940   4.280   3.248
 5440SOL    HW117006   2.032   4.279   3.207
 5440SOL    HW217007   1.934   4.354   3.315
 5441SOL     OW17008   2.423   3.946   3.009
 5441SOL    HW117009   2.461   3.862   3.046
 5441SOL    HW217010   2.335   3.965   3.053
 5442SOL     OW17011   2.728   4.178   2.504
 5442SOL    HW117012   2.696   4.250   2.442
 5442SOL    HW217013   2.752   4.097   2.451
 5443SOL     OW17014   2.879   3.763   2.615
 5443SOL    HW117015   2.807   3.768   2.546
 5443SOL    HW217016   2.855   3.694   2.684
 5444SOL     OW17017   3.328   4.314   2.854
 5444SOL    HW117018   3.298   4.219   2.861
 5444SOL    HW217019   3.401   4.330   2.920
 5445SOL     OW17020   3.252   4.299   1.940
 5445SOL    HW117021   3.198   4.278   2.021
 5445SOL    HW217022   3.343   4.258   1.949
 5446SOL     OW17023   2.389   3.980   2.190
 5446SOL    HW117024   2.416   3.921   2.115
 5446SOL    HW217025   2.389   4.075   2.159
 5447SOL     OW17026   2.777   3.813   3.264
 5447SOL    HW117027   2.802   3.793   3.169
 5447SOL    HW217028   2.849   3.869   3.306
 5448SOL     OW17029   2.272   4.537   3.113
 5448SOL    HW117030   2.358   4.549   3.163
 5448SOL    HW217031   2.230   4.450   3.140
 5449SOL     OW17032   3.136   4.110   3.124
 5449SOL    HW117033   3.157   4.184   3.188
 5449SOL    HW217034   3.047   4.127   3.081
 5450SOL     OW17035   2.428   4.261   2.727
 5450SOL    HW117036   2.440   4.327   2.653
 5450SOL    HW217037   2.474   4.295   2.810
 5451SOL     OW17038   3.444   4.363   2.334
 5451SOL    HW117039   3.413   4.424   2.407
 5451SOL    HW217040   3.494   4.415   2.265
 5452SOL     OW17041   2.875   3.829   3.632
 5452SOL    HW117042   2.881   3.914   3.580
 5452SOL    HW217043   2.907   3.753   3.575
 5453SOL     OW17044   2.366   3.774   3.602
 5453SOL    HW117045   2.324   3.717   3.532
 5453SOL    HW217046   2.300   3.843   3.634
 5454SOL     OW17047   3.071   4.249   2.137
 5454SOL    HW117048   3.084   4.165   2.191
 5454SOL    HW217049   3.042   4.323   2.197
 5455SOL     OW17050   2.169   3.937   3.093
 5455SOL    HW117051   2.146   3.974   3.183
 5455SOL    HW217052   2.139   3.842   3.087
 5456SOL     OW17053   2.594   4.358   2.926
 5456SOL    HW117054   2.653   4.332   2.850
 5456SOL    HW217055   2.566   4.454   2.915
 5457SOL     OW17056   3.590   4.659   3.716
 5457SOL    HW117057   3.544   4.652   3.627
 5457SOL    HW217058   3.528   4.703   3.782
 5458SOL     OW17059   2.169   3.787   2.480
 5458SOL    HW117060   2.158   3.881   2.513
 5458SOL    HW217061   2.164   3.724   2.557
 5459SOL     OW17062   3.484   4.091   2.236
 5459SOL    HW117063   3.486   4.015   2.300
 5459SOL    HW217064   3.436   4.168   2.276
 5460SOL     OW17065   3.402   3.998   1.987
 5460SOL    HW117066   3.341   3.923   2.010
 5460SOL    HW217067   3.424   4.050   2.070
 5461SOL     OW17068   2.181   4.534   2.811
 5461SOL    HW117069   2.274   4.570   2.816
 5461SOL    HW217070   2.175   4.449   2.863
 5462SOL     OW17071   2.201   4.233   2.868
 5462SOL    HW117072   2.149   4.150   2.851
 5462SOL    HW217073   2.278   4.238   2.804
 5463SOL     OW17074   3.000   4.104   3.540
 5463SOL    HW117075   2.955   4.167   3.604
 5463SOL    HW217076   3.093   4.135   3.523
 5464SOL     OW17077   3.022   3.931   3.339
 5464SOL    HW117078   3.022   3.995   3.416
 5464SOL    HW217079   3.050   3.979   3.256
 5465SOL     OW17080   1.902   4.268   2.976
 5465SOL    HW117081   1.987   4.235   2.935
 5465SOL    HW217082   1.915   4.283   3.074
 5466SOL     OW17083   2.051   4.244   3.584
 5466SOL    HW117084   2.110   4.204   3.514
 5466SOL    HW217085   1.993   4.315   3.543
 5467SOL     OW17086   2.677   4.296   2.187
 5467SOL    HW117087   2.684   4.207   2.141
 5467SOL    HW217088   2.583   4.330   2.179
 5468SOL     OW17089   3.519   4.328   3.068
 5468SOL    HW117090   3.481   4.259   3.130
 5468SOL    HW217091   3.601   4.292   3.024
 5469SOL     OW17092   2.533   4.188   3.131
 5469SOL    HW117093   2.499   4.099   3.101
 5469SOL    HW217094   2.559   4.242   3.051
 5470SOL     OW17095   2.335   4.224   2.053
 5470SOL    HW117096   2.396   4.304   2.057
 5470SOL    HW217097   2.240   4.255   2.060
 5471SOL     OW17098   3.588   3.859   2.385
 5471SOL    HW117099   3.661   3.842   2.318
 5471SOL    HW217100   3.557   3.772   2.423
 5472SOL     OW17101   3.142   4.651   2.534
 5472SOL    HW117102   3.202   4.570   2.536
 5472SOL    HW217103   3.182   4.720   2.474
 5473SOL     OW17104   3.703   3.899   2.825
 5473SOL    HW117105   3.742   3.814   2.789
 5473SOL    HW217106   3.605   3.901   2.806
 5474SOL     OW17107   2.125   4.050   2.582
 5474SOL    HW117108   2.046   4.101   2.548
 5474SOL    HW217109   2.116   4.035   2.680
 5475SOL     OW17110   2.778   4.634   2.153
 5475SOL    HW117111   2.841   4.672   2.085
 5475SOL    HW217112   2.818   4.551   2.192
 5476SOL     OW17113   2.901   4.822   2.558
 5476SOL    HW117114   2.831   4.775   2.612
 5476SOL    HW217115   2.960   4.754   2.515
 5477SOL     OW17116   2.876   3.960   2.833
 5477SOL    HW117117   2.868   3.924   2.740
 5477SOL    HW217118   2.874   3.884   2.898
 5478SOL     OW17119   3.571   4.109   3.243
 5478SOL    HW117120   3.644   4.178   3.247
 5478SOL    HW217121   3.599   4.034   3.184
 5479SOL     OW17122   2.534   3.927   3.351
 5479SOL    HW117123   2.624   3.911   3.311
 5479SOL    HW217124   2.542   3.932   3.450
 5480SOL     OW17125   1.937   4.069   1.895
 5480SOL    HW117126   1.845   4.041   1.866
 5480SOL    HW217127   1.968   4.146   1.839
 5481SOL     OW17128   1.934   3.890   2.180
 5481SOL    HW117129   1.917   3.973   2.126
 5481SOL    HW217130   2.024   3.853   2.158
 5482SOL     OW17131   2.578   4.289   3.570
 5482SOL    HW117132   2.597   4.354   3.644
 5482SOL    HW217133   2.638   4.209   3.579
 5483SOL     OW17134   3.087   4.049   2.311
 5483SOL    HW117135   3.152   3.975   2.300
 5483SOL    HW217136   3.107   4.099   2.395
 5484SOL     OW17137   3.639   4.066   3.504
 5484SOL    HW117138   3.622   4.097   3.410
 5484SOL    HW217139   3.555   4.029   3.542
 5485SOL     OW17140   2.945   4.708   1.949
 5485SOL    HW117141   2.922   4.761   1.867
 5485SOL    HW217142   3.026   4.652   1.930
 5486SOL     OW17143   3.686   3.916   3.089
 5486SOL    HW117144   3.682   3.826   3.133
 5486SOL    HW217145   3.689   3.905   2.990
 5487SOL     OW17146   2.290   4.148   2.382
 5487SOL    HW117147   2.320   4.076   2.320
 5487SOL    HW217148   2.251   4.108   2.465
 5488SOL     OW17149   2.179   4.271   3.142
 5488SOL    HW117150   2.217   4.212   3.214
 5488SOL    HW217151   2.219   4.245   3.054
 5489SOL     OW17152   3.286   3.938   2.974
 5489SOL    HW117153   3.338   3.873   3.029
 5489SOL    HW217154   3.237   4.001   3.035
 5490SOL     OW17155   2.863   3.758   3.016
 5490SOL    HW117156   2.800   3.686   2.985
 5490SOL    HW217157   2.956   3.722   3.016
 5491SOL     OW17158   3.214   3.776   2.030
 5491SOL    HW117159   3.249   3.735   1.946
 5491SOL    HW217160   3.124   3.738   2.050
 5492SOL     OW17161   3.162   4.177   2.553
 5492SOL    HW117162   3.103   4.257   2.557
 5492SOL    HW217163   3.177   4.142   2.646
 5493SOL     OW17164   3.455   3.945   2.744
 5493SOL    HW117165   3.371   3.944   2.798
 5493SOL    HW217166   3.457   4.028   2.688
 5494SOL     OW17167   2.092   4.352   3.837
 5494SOL    HW117168   1.999   4.350   3.874
 5494SOL    HW217169   2.093   4.313   3.745
 5495SOL     OW17170   2.087   3.999   4.720
 5495SOL    HW117171   2.122   3.982   4.812
 5495SOL    HW217172   1.999   3.954   4.708
 5496SOL     OW17173   1.881   4.092   4.371
 5496SOL    HW117174   1.799   4.135   4.410
 5496SOL    HW217175   1.853   4.019   4.308
 5497SOL     OW17176   3.617   4.331   3.955
 5497SOL    HW117177   3.605   4.318   3.856
 5497SOL    HW217178   3.587   4.250   4.004
 5498SOL     OW17179   2.547   4.736   4.389
 5498SOL    HW117180   2.616   4.720   4.459
 5498SOL    HW217181   2.474   4.793   4.427
 5499SOL     OW17182   2.300   4.116   5.223
 5499SOL    HW117183   2.382   4.060   5.232
 5499SOL    HW217184   2.219   4.058   5.227
 5500SOL     OW17185   3.465   4.171   4.461
 5500SOL    HW117186   3.391   4.217   4.411
 5500SOL    HW217187   3.516   4.239   4.514
 5501SOL     OW17188   3.456   3.838   5.204
 5501SOL    HW117189   3.438   3.905   5.132
 5501SOL    HW217190   3.453   3.884   5.293
 5502SOL     OW17191   1.984   4.367   4.287
 5502SOL    HW117192   1.939   4.279   4.304
 5502SOL    HW217193   1.983   4.421   4.371
 5503SOL     OW17194   1.975   4.461   5.321
 5503SOL    HW117195   2.063   4.448   5.366
 5503SOL    HW217196   1.962   4.558   5.299
 5504SOL     OW17197   2.671   3.728   4.226
 5504SOL    HW117198   2.711   3.819   4.217
 5504SOL    HW217199   2.571   3.736   4.232
 5505SOL     OW17200   2.179   3.975   5.525
 5505SOL    HW117201   2.250   4.046   5.531
 5505SOL    HW217202   2.091   4.014   5.553
 5506SOL     OW17203   3.143   4.069   4.668
 5506SOL    HW117204   3.057   4.019   4.655
 5506SOL    HW217205   3.205   4.015   4.724
 5507SOL     OW17206   2.669   4.329   5.189
 5507SOL    HW117207   2.622   4.326   5.278
 5507SOL    HW217208   2.618   4.274   5.123
 5508SOL     OW17209   3.256   4.193   5.398
 5508SOL    HW117210   3.236   4.236   5.486
 5508SOL    HW217211   3.334   4.131   5.407
 5509SOL     OW17212   2.853   4.134   4.966
 5509SOL    HW117213   2.776   4.168   5.020
 5509SOL    HW217214   2.819   4.083   4.887
 5510SOL     OW17215   2.903   4.425   4.153
 5510SOL    HW117216   2.929   4.421   4.249
 5510SOL    HW217217   2.818   4.374   4.139
 5511SOL     OW17218   2.727   4.072   3.919
 5511SOL    HW117219   2.786   4.135   3.870
 5511SOL    HW217220   2.746   3.978   3.890
 5512SOL     OW17221   3.581   4.309   5.555
 5512SOL    HW117222   3.555   4.398   5.519
 5512SOL    HW217223   3.579   4.241   5.482
 5513SOL     OW17224   2.412   3.920   4.609
 5513SOL    HW117225   2.407   3.915   4.709
 5513SOL    HW217226   2.414   4.016   4.580
 5514SOL     OW17227   3.320   4.459   4.452
 5514SOL    HW117228   3.315   4.394   4.527
 5514SOL    HW217229   3.400   4.518   4.465
 5515SOL     OW17230   2.064   4.009   5.222
 5515SOL    HW117231   1.984   4.069   5.209
 5515SOL    HW217232   2.054   3.960   5.308
 5516SOL     OW17233   3.262   3.831   4.150
 5516SOL    HW117234   3.238   3.794   4.060
 5516SOL    HW217235   3.361   3.847   4.154
 5517SOL     OW17236   2.244   4.424   4.204
 5517SOL    HW117237   2.289   4.334   4.201
 5517SOL    HW217238   2.150   4.413   4.237
 5518SOL     OW17239   3.409   3.946   5.453
 5518SOL    HW117240   3.404   3.983   5.545
 5518SOL    HW217241   3.337   3.877   5.441
 5519SOL     OW17242   2.476   3.846   3.841
 5519SOL    HW117243   2.574   3.824   3.848
 5519SOL    HW217244   2.445   3.829   3.748
 5520SOL     OW17245   2.643   3.988   5.473
 5520SOL    HW117246   2.710   3.927   5.516
 5520SOL    HW217247   2.570   4.007   5.538
 5521SOL     OW17248   3.213   4.314   5.157
 5521SOL    HW117249   3.241   4.271   5.242
 5521SOL    HW217250   3.238   4.410   5.158
 5522SOL     OW17251   2.784   4.227   4.623
 5522SOL    HW117252   2.759   4.218   4.527
 5522SOL    HW217253   2.832   4.145   4.654
 5523SOL     OW17254   2.401   3.788   4.236
 5523SOL    HW117255   2.320   3.789   4.294
 5523SOL    HW217256   2.404   3.871   4.181
 5524SOL     OW17257   2.159   3.759   3.895
 5524SOL    HW117258   2.208   3.843   3.874
 5524SOL    HW217259   2.221   3.694   3.940
 5525SOL     OW17260   2.797   3.960   4.204
 5525SOL    HW117261   2.749   4.001   4.126
 5525SOL    HW217262   2.896   3.958   4.185
 5526SOL     OW17263   2.938   4.407   5.188
 5526SOL    HW117264   2.858   4.346   5.191
 5526SOL    HW217265   3.019   4.354   5.164
 5527SOL     OW17266   2.894   4.273   3.740
 5527SOL    HW117267   2.853   4.355   3.701
 5527SOL    HW217268   2.958   4.299   3.813
 5528SOL     OW17269   1.940   4.280   5.110
 5528SOL    HW117270   2.032   4.279   5.069
 5528SOL    HW217271   1.934   4.354   5.177
 5529SOL     OW17272   2.423   3.946   4.871
 5529SOL    HW117273   2.461   3.862   4.908
 5529SOL    HW217274   2.335   3.965   4.915
 5530SOL     OW17275   2.728   4.178   4.366
 5530SOL    HW117276   2.696   4.250   4.304
 5530SOL    HW217277   2.752   4.097   4.313
 5531SOL     OW17278   2.879   3.763   4.477
 5531SOL    HW117279   2.807   3.768   4.408
 5531SOL    HW217280   2.855   3.694   4.546
 5532SOL     OW17281   3.328   4.314   4.716
 5532SOL    HW117282   3.298   4.219   4.723
 5532SOL    HW217283   3.401   4.330   4.782
 5533SOL     OW17284   3.252   4.299   3.802
 5533SOL    HW117285   3.198   4.278   3.883
 5533SOL    HW217286   3.343   4.258   3.811
 5534SOL     OW17287   2.389   3.980   4.052
 5534SOL    HW117288   2.416   3.921   3.977
 5534SOL    HW217289   2.389   4.075   4.021
 5535SOL     OW17290   2.777   3.813   5.126
 5535SOL    HW117291   2.802   3.793   5.031
 5535SOL    HW217292   2.849   3.869   5.168
 5536SOL     OW17293   2.272   4.537   4.975
 5536SOL    HW117294   2.358   4.549   5.025
 5536SOL    HW217295   2.230   4.450   5.002
 5537SOL     OW17296   3.136   4.110   4.986
 5537SOL    HW117297   3.157   4.184   5.050
 5537SOL    HW217298   3.047   4.127   4.943
 5538SOL     OW17299   2.428   4.261   4.589
 5538SOL    HW117300   2.440   4.327   4.515
 5538SOL    HW217301   2.474   4.295   4.672
 5539SOL     OW17302   3.444   4.363   4.196
 5539SOL    HW117303   3.413   4.424   4.269
 5539SOL    HW217304   3.494   4.415   4.127
 5540SOL     OW17305   2.875   3.829   5.494
 5540SOL    HW117306   2.881   3.914   5.442
 5540SOL    HW217307   2.907   3.753   5.437
 5541SOL     OW17308   2.366   3.774   5.464
 5541SOL    HW117309   2.324   3.717   5.394
 5541SOL    HW217310   2.300   3.843   5.496
 5542SOL     OW17311   3.071   4.249   3.999
 5542SOL    HW117312   3.084   4.165   4.053
 5542SOL    HW217313   3.042   4.323   4.059
 5543SOL     OW17314   2.169   3.937   4.955
 5543SOL    HW117315   2.146   3.974   5.045
 5543SOL    HW217316   2.139   3.842   4.949
 5544SOL     OW17317   2.594   4.358   4.788
 5544SOL    HW117318   2.653   4.332   4.712
 5544SOL    HW217319   2.566   4.454   4.777
 5545SOL     OW17320   3.590   4.659   5.578
 5545SOL    HW117321   3.544   4.652   5.489
 5545SOL    HW217322   3.528   4.703   5.644
 5546SOL     OW17323   2.169   3.787   4.342
 5546SOL    HW117324   2.158   3.881   4.375
 5546SOL    HW217325   2.164   3.724   4.419
 5547SOL     OW17326   3.484   4.091   4.098
 5547SOL    HW117327   3.486   4.015   4.162
 5547SOL    HW217328   3.436   4.168   4.138
 5548SOL     OW17329   3.402   3.998   3.849
 5548SOL    HW117330   3.341   3.923   3.872
 5548SOL    HW217331   3.424   4.050   3.932
 5549SOL     OW17332   2.181   4.534   4.673
 5549SOL    HW117333   2.274   4.570   4.678
 5549SOL    HW217334   2.175   4.449   4.725
 5550SOL     OW17335   2.201   4.233   4.730
 5550SOL    HW117336   2.149   4.150   4.713
 5550SOL    HW217337   2.278   4.238   4.666
 5551SOL     OW17338   3.000   4.104   5.402
 5551SOL    HW117339   2.955   4.167   5.466
 5551SOL    HW217340   3.093   4.135   5.385
 5552SOL     OW17341   3.022   3.931   5.201
 5552SOL    HW117342   3.022   3.995   5.278
 5552SOL    HW217343   3.050   3.979   5.118
 5553SOL     OW17344   1.902   4.268   4.838
 5553SOL    HW117345   1.987   4.235   4.797
 5553SOL    HW217346   1.915   4.283   4.936
 5554SOL     OW17347   2.051   4.244   5.446
 5554SOL    HW117348   2.110   4.204   5.376
 5554SOL    HW217349   1.993   4.315   5.405
 5555SOL     OW17350   2.677   4.296   4.049
 5555SOL    HW117351   2.684   4.207   4.003
 5555SOL    HW217352   2.583   4.330   4.041
 5556SOL     OW17353   3.519   4.328   4.930
 5556SOL    HW117354   3.481   4.259   4.992
 5556SOL    HW217355   3.601   4.292   4.886
 5557SOL     OW17356   2.533   4.188   4.993
 5557SOL    HW117357   2.499   4.099   4.963
 5557SOL    HW217358   2.559   4.242   4.913
 5558SOL     OW17359   2.335   4.224   3.915
 5558SOL    HW117360   2.396   4.304   3.919
 5558SOL    HW217361   2.240   4.255   3.922
 5559SOL     OW17362   3.588   3.859   4.247
 5559SOL    HW117363   3.661   3.842   4.180
 5559SOL    HW217364   3.557   3.772   4.285
 5560SOL     OW17365   3.142   4.651   4.396
 5560SOL    HW117366   3.202   4.570   4.398
 5560SOL    HW217367   3.182   4.720   4.336
 5561SOL     OW17368   3.703   3.899   4.687
 5561SOL    HW117369   3.742   3.814   4.651
 5561SOL    HW217370   3.605   3.901   4.668
 5562SOL     OW17371   2.125   4.050   4.444
 5562SOL    HW117372   2.046   4.101   4.410
 5562SOL    HW217373   2.116   4.035   4.542
 5563SOL     OW17374   2.778   4.634   4.015
 5563SOL    HW117375   2.841   4.672   3.947
 5563SOL    HW217376   2.818   4.551   4.054
 5564SOL     OW17377   2.901   4.822   4.420
 5564SOL    HW117378   2.831   4.775   4.474
 5564SOL    HW217379   2.960   4.754   4.377
 5565SOL     OW17380   2.876   3.960   4.695
 5565SOL    HW117381   2.868   3.924   4.602
 5565SOL    HW217382   2.874   3.884   4.760
 5566SOL     OW17383   3.571   4.109   5.105
 5566SOL    HW117384   3.644   4.178   5.109
 5566SOL    HW217385   3.599   4.034   5.046
 5567SOL     OW17386   2.534   3.927   5.213
 5567SOL    HW117387   2.624   3.911   5.173
 5567SOL    HW217388   2.542   3.932   5.312
 5568SOL     OW17389   1.937   4.069   3.757
 5568SOL    HW117390   1.845   4.041   3.728
 5568SOL    HW217391   1.968   4.146   3.701
 5569SOL     OW17392   1.934   3.890   4.042
 5569SOL    HW117393   1.917   3.973   3.988
 5569SOL    HW217394   2.024   3.853   4.020
 5570SOL     OW17395   2.578   4.289   5.432
 5570SOL    HW117396   2.597   4.354   5.506
 5570SOL    HW217397   2.638   4.209   5.441
 5571SOL     OW17398   3.087   4.049   4.173
 5571SOL    HW117399   3.152   3.975   4.162
 5571SOL    HW217400   3.107   4.099   4.257
 5572SOL     OW17401   3.639   4.066   5.366
 5572SOL    HW117402   3.622   4.097   5.272
 5572SOL    HW217403   3.555   4.029   5.404
 5573SOL     OW17404   2.945   4.708   3.811
 5573SOL    HW117405   2.922   4.761   3.729
 5573SOL    HW217406   3.026   4.652   3.792
 5574SOL     OW17407   3.686   3.916   4.951
 5574SOL    HW117408   3.682   3.826   4.995
 5574SOL    HW217409   3.689   3.905   4.852
 5575SOL     OW17410   2.290   4.148   4.244
 5575SOL    HW117411   2.320   4.076   4.182
 5575SOL    HW217412   2.251   4.108   4.327
 5576SOL     OW17413   2.179   4.271   5.004
 5576SOL    HW117414   2.217   4.212   5.076
 5576SOL    HW217415   2.219   4.245   4.916
 5577SOL     OW17416   3.286   3.938   4.836
 5577SOL    HW117417   3.338   3.873   4.891
 5577SOL    HW217418   3.237   4.001   4.897
 5578SOL     OW17419   2.863   3.758   4.878
 5578SOL    HW117420   2.800   3.686   4.847
 5578SOL    HW217421   2.956   3.722   4.878
 5579SOL     OW17422   3.214   3.776   3.892
 5579SOL    HW117423   3.249   3.735   3.808
 5579SOL    HW217424   3.124   3.738   3.912
 5580SOL     OW17425   3.162   4.177   4.415
 5580SOL    HW117426   3.103   4.257   4.419
 5580SOL    HW217427   3.177   4.142   4.508
 5581SOL     OW17428   3.455   3.945   4.606
 5581SOL    HW117429   3.371   3.944   4.660
 5581SOL    HW217430   3.457   4.028   4.550
 5582SOL     OW17431   2.092   4.352   5.699
 5582SOL    HW117432   1.999   4.350   5.736
 5582SOL    HW217433   2.093   4.313   5.607
 5583SOL     OW17434   2.087   3.999   6.582
 5583SOL    HW117435   2.122   3.982   6.674
 5583SOL    HW217436   1.999   3.954   6.570
 5584SOL     OW17437   1.881   4.092   6.233
 5584SOL    HW117438   1.799   4.135   6.272
 5584SOL    HW217439   1.853   4.019   6.170
 5585SOL     OW17440   3.617   4.331   5.817
 5585SOL    HW117441   3.605   4.318   5.718
 5585SOL    HW217442   3.587   4.250   5.866
 5586SOL     OW17443   2.547   4.736   6.251
 5586SOL    HW117444   2.616   4.720   6.321
 5586SOL    HW217445   2.474   4.793   6.289
 5587SOL     OW17446   2.300   4.116   7.085
 5587SOL    HW117447   2.382   4.060   7.094
 5587SOL    HW217448   2.219   4.058   7.089
 5588SOL     OW17449   3.465   4.171   6.323
 5588SOL    HW117450   3.391   4.217   6.273
 5588SOL    HW217451   3.516   4.239   6.376
 5589SOL     OW17452   3.456   3.838   7.066
 5589SOL    HW117453   3.438   3.905   6.994
 5589SOL    HW217454   3.453   3.884   7.155
 5590SOL     OW17455   1.984   4.367   6.149
 5590SOL    HW117456   1.939   4.279   6.166
 5590SOL    HW217457   1.983   4.421   6.233
 5591SOL     OW17458   1.975   4.461   7.183
 5591SOL    HW117459   2.063   4.448   7.228
 5591SOL    HW217460   1.962   4.558   7.161
 5592SOL     OW17461   2.671   3.728   6.088
 5592SOL    HW117462   2.711   3.819   6.079
 5592SOL    HW217463   2.571   3.736   6.094
 5593SOL     OW17464   2.179   3.975   7.387
 5593SOL    HW117465   2.250   4.046   7.393
 5593SOL    HW217466   2.091   4.014   7.415
 5594SOL     OW17467   3.143   4.069   6.530
 5594SOL    HW117468   3.057   4.019   6.517
 5594SOL    HW217469   3.205   4.015   6.586
 5595SOL     OW17470   2.669   4.329   7.051
 5595SOL    HW117471   2.622   4.326   7.140
 5595SOL    HW217472   2.618   4.274   6.985
 5596SOL     OW17473   3.256   4.193   7.260
 5596SOL    HW117474   3.236   4.236   7.348
 5596SOL    HW217475   3.334   4.131   7.269
 5597SOL     OW17476   2.853   4.134   6.828
 5597SOL    HW117477   2.776   4.168   6.882
 5597SOL    HW217478   2.819   4.083   6.749
 5598SOL     OW17479   2.903   4.425   6.015
 5598SOL    HW117480   2.929   4.421   6.111
 5598SOL    HW217481   2.818   4.374   6.001
 5599SOL     OW17482   2.727   4.072   5.781
 5599SOL    HW117483   2.786   4.135   5.732
 5599SOL    HW217484   2.746   3.978   5.752
 5600SOL     OW17485   3.581   4.309   7.417
 5600SOL    HW117486   3.555   4.398   7.381
 5600SOL    HW217487   3.579   4.241   7.344
 5601SOL     OW17488   2.412   3.920   6.471
 5601SOL    HW117489   2.407   3.915   6.571
 5601SOL    HW217490   2.414   4.016   6.442
 5602SOL     OW17491   3.320   4.459   6.314
 5602SOL    HW117492   3.315   4.394   6.389
 5602SOL    HW217493   3.400   4.518   6.327
 5603SOL     OW17494   2.064   4.009   7.084
 5603SOL    HW117495   1.984   4.069   7.071
 5603SOL    HW217496   2.054   3.960   7.170
 5604SOL     OW17497   3.262   3.831   6.012
 5604SOL    HW117498   3.238   3.794   5.922
 5604SOL    HW217499   3.361   3.847   6.016
 5605SOL     OW17500   2.244   4.424   6.066
 5605SOL    HW117501   2.289   4.334   6.063
 5605SOL    HW217502   2.150   4.413   6.099
 5606SOL     OW17503   3.409   3.946   7.315
 5606SOL    HW117504   3.404   3.983   7.407
 5606SOL    HW217505   3.337   3.877   7.303
 5607SOL     OW17506   2.476   3.846   5.703
 5607SOL    HW117507   2.574   3.824   5.710
 5607SOL    HW217508   2.445   3.829   5.610
 5608SOL     OW17509   2.643   3.988   7.335
 5608SOL    HW117510   2.710   3.927   7.378
 5608SOL    HW217511   2.570   4.007   7.400
 5609SOL     OW17512   3.213   4.314   7.019
 5609SOL    HW117513   3.241   4.271   7.104
 5609SOL    HW217514   3.238   4.410   7.020
 5610SOL     OW17515   2.784   4.227   6.485
 5610SOL    HW117516   2.759   4.218   6.389
 5610SOL    HW217517   2.832   4.145   6.516
 5611SOL     OW17518   2.401   3.788   6.098
 5611SOL    HW117519   2.320   3.789   6.156
 5611SOL    HW217520   2.404   3.871   6.043
 5612SOL     OW17521   2.159   3.759   5.757
 5612SOL    HW117522   2.208   3.843   5.736
 5612SOL    HW217523   2.221   3.694   5.802
 5613SOL     OW17524   2.797   3.960   6.066
 5613SOL    HW117525   2.749   4.001   5.988
 5613SOL    HW217526   2.896   3.958   6.047
 5614SOL     OW17527   2.938   4.407   7.050
 5614SOL    HW117528   2.858   4.346   7.053
 5614SOL    HW217529   3.019   4.354   7.026
 5615SOL     OW17530   2.894   4.273   5.602
 5615SOL    HW117531   2.853   4.355   5.563
 5615SOL    HW217532   2.958   4.299   5.675
 5616SOL     OW17533   1.940   4.280   6.972
 5616SOL    HW117534   2.032   4.279   6.931
 5616SOL    HW217535   1.934   4.354   7.039
 5617SOL     OW17536   2.423   3.946   6.733
 5617SOL    HW117537   2.461   3.862   6.770
 5617SOL    HW217538   2.335   3.965   6.777
 5618SOL     OW17539   2.728   4.178   6.228
 5618SOL    HW117540   2.696   4.250   6.166
 5618SOL    HW217541   2.752   4.097   6.175
 5619SOL     OW17542   2.879   3.763   6.339
 5619SOL    HW117543   2.807   3.768   6.270
 5619SOL    HW217544   2.855   3.694   6.408
 5620SOL     OW17545   3.328   4.314   6.578
 5620SOL    HW117546   3.298   4.219   6.585
 5620SOL    HW217547   3.401   4.330   6.644
 5621SOL     OW17548   3.252   4.299   5.664
 5621SOL    HW117549   3.198   4.278   5.745
 5621SOL    HW217550   3.343   4.258   5.673
 5622SOL     OW17551   2.389   3.980   5.914
 5622SOL    HW117552   2.416   3.921   5.839
 5622SOL    HW217553   2.389   4.075   5.883
 5623SOL     OW17554   2.777   3.813   6.988
 5623SOL    HW117555   2.802   3.793   6.893
 5623SOL    HW217556   2.849   3.869   7.030
 5624SOL     OW17557   2.272   4.537   6.837
 5624SOL    HW117558   2.358   4.549   6.887
 5624SOL    HW217559   2.230   4.450   6.864
 5625SOL     OW17560   3.136   4.110   6.848
 5625SOL    HW117561   3.157   4.184   6.912
 5625SOL    HW217562   3.047   4.127   6.805
 5626SOL     OW17563   2.428   4.261   6.451
 5626SOL    HW117564   2.440   4.327   6.377
 5626SOL    HW217565   2.474   4.295   6.534
 5627SOL     OW17566   3.444   4.363   6.058
 5627SOL    HW117567   3.413   4.424   6.131
 5627SOL    HW217568   3.494   4.415   5.989
 5628SOL     OW17569   2.875   3.829   7.356
 5628SOL    HW117570   2.881   3.914   7.304
 5628SOL    HW217571   2.907   3.753   7.299
 5629SOL     OW17572   2.366   3.774   7.326
 5629SOL    HW117573   2.324   3.717   7.256
 5629SOL    HW217574   2.300   3.843   7.358
 5630SOL     OW17575   3.071   4.249   5.861
 5630SOL    HW117576   3.084   4.165   5.915
 5630SOL    HW217577   3.042   4.323   5.921
 5631SOL     OW17578   2.169   3.937   6.817
 5631SOL    HW117579   2.146   3.974   6.907
 5631SOL    HW217580   2.139   3.842   6.811
 5632SOL     OW17581   2.594   4.358   6.650
 5632SOL    HW117582   2.653   4.332   6.574
 5632SOL    HW217583   2.566   4.454   6.639
 5633SOL     OW17584   3.590   4.659   7.440
 5633SOL    HW117585   3.544   4.652   7.351
 5633SOL    HW217586   3.528   4.703   7.506
 5634SOL     OW17587   2.169   3.787   6.204
 5634SOL    HW117588   2.158   3.881   6.237
 5634SOL    HW217589   2.164   3.724   6.281
 5635SOL     OW17590   3.484   4.091   5.960
 5635SOL    HW117591   3.486   4.015   6.024
 5635SOL    HW217592   3.436   4.168   6.000
 5636SOL     OW17593   3.402   3.998   5.711
 5636SOL    HW117594   3.341   3.923   5.734
 5636SOL    HW217595   3.424   4.050   5.794
 5637SOL     OW17596   2.181   4.534   6.535
 5637SOL    HW117597   2.274   4.570   6.540
 5637SOL    HW217598   2.175   4.449   6.587
 5638SOL     OW17599   2.201   4.233   6.592
 5638SOL    HW117600   2.149   4.150   6.575
 5638SOL    HW217601   2.278   4.238   6.528
 5639SOL     OW17602   3.000   4.104   7.264
 5639SOL    HW117603   2.955   4.167   7.328
 5639SOL    HW217604   3.093   4.135   7.247
 5640SOL     OW17605   3.022   3.931   7.063
 5640SOL    HW117606   3.022   3.995   7.140
 5640SOL    HW217607   3.050   3.979   6.980
 5641SOL     OW17608   1.902   4.268   6.700
 5641SOL    HW117609   1.987   4.235   6.659
 5641SOL    HW217610   1.915   4.283   6.798
 5642SOL     OW17611   2.051   4.244   7.308
 5642SOL    HW117612   2.110   4.204   7.238
 5642SOL    HW217613   1.993   4.315   7.267
 5643SOL     OW17614   2.677   4.296   5.911
 5643SOL    HW117615   2.684   4.207   5.865
 5643SOL    HW217616   2.583   4.330   5.903
 5644SOL     OW17617   3.519   4.328   6.792
 5644SOL    HW117618   3.481   4.259   6.854
 5644SOL    HW217619   3.601   4.292   6.748
 5645SOL     OW17620   2.533   4.188   6.855
 5645SOL    HW117621   2.499   4.099   6.825
 5645SOL    HW217622   2.559   4.242   6.775
 5646SOL     OW17623   2.335   4.224   5.777
 5646SOL    HW117624   2.396   4.304   5.781
 5646SOL    HW217625   2.240   4.255   5.784
 5647SOL     OW17626   3.588   3.859   6.109
 5647SOL    HW117627   3.661   3.842   6.042
 5647SOL    HW217628   3.557   3.772   6.147
 5648SOL     OW17629   3.142   4.651   6.258
 5648SOL    HW117630   3.202   4.570   6.260
 5648SOL    HW217631   3.182   4.720   6.198
 5649SOL     OW17632   3.703   3.899   6.549
 5649SOL    HW117633   3.742   3.814   6.513
 5649SOL    HW217634   3.605   3.901   6.530
 5650SOL     OW17635   2.125   4.050   6.306
 5650SOL    HW117636   2.046   4.101   6.272
 5650SOL    HW217637   2.116   4.035   6.404
 5651SOL     OW17638   2.778   4.634   5.877
 5651SOL    HW117639   2.841   4.672   5.809
 5651SOL    HW217640   2.818   4.551   5.916
 5652SOL     OW17641   2.901   4.822   6.282
 5652SOL    HW117642   2.831   4.775   6.336
 5652SOL    HW217643   2.960   4.754   6.239
 5653SOL     OW17644   2.876   3.960   6.557
 5653SOL    HW117645   2.868   3.924   6.464
 5653SOL    HW217646   2.874   3.884   6.622
 5654SOL     OW17647   3.571   4.109   6.967
 5654SOL    HW117648   3.644   4.178   6.971
 5654SOL    HW217649   3.599   4.034   6.908
 5655SOL     OW17650   2.534   3.927   7.075
 5655SOL    HW117651   2.624   3.911   7.035
 5655SOL    HW217652   2.542   3.932   7.174
 5656SOL     OW17653   1.937   4.069   5.619
 5656SOL    HW117654   1.845   4.041   5.590
 5656SOL    HW217655   1.968   4.146   5.563
 5657SOL     OW17656   1.934   3.890   5.904
 5657SOL    HW117657   1.917   3.973   5.850
 5657SOL    HW217658   2.024   3.853   5.882
 5658SOL     OW17659   2.578   4.289   7.294
 5658SOL    HW117660   2.597   4.354   7.368
 5658SOL    HW217661   2.638   4.209   7.303
 5659SOL     OW17662   3.087   4.049   6.035
 5659SOL    HW117663   3.152   3.975   6.024
 5659SOL    HW217664   3.107   4.099   6.119
 5660SOL     OW17665   3.639   4.066   7.228
 5660SOL    HW117666   3.622   4.097   7.134
 5660SOL    HW217667   3.555   4.029   7.266
 5661SOL     OW17668   2.945   4.708   5.673
 5661SOL    HW117669   2.922   4.761   5.591
 5661SOL    HW217670   3.026   4.652   5.654
 5662SOL     OW17671   3.686   3.916   6.813
 5662SOL    HW117672   3.682   3.826   6.857
 5662SOL    HW217673   3.689   3.905   6.714
 5663SOL     OW17674   2.290   4.148   6.106
 5663SOL    HW117675   2.320   4.076   6.044
 5663SOL    HW217676   2.251   4.108   6.189
 5664SOL     OW17677   2.179   4.271   6.866
 5664SOL    HW117678   2.217   4.212   6.938
 5664SOL    HW217679   2.219   4.245   6.778
 5665SOL     OW17680   3.286   3.938   6.698
 5665SOL    HW117681   3.338   3.873   6.753
 5665SOL    HW217682   3.237   4.001   6.759
 5666SOL     OW17683   2.863   3.758   6.740
 5666SOL    HW117684   2.800   3.686   6.709
 5666SOL    HW217685   2.956   3.722   6.740
 5667SOL     OW17686   3.214   3.776   5.754
 5667SOL    HW117687   3.249   3.735   5.670
 5667SOL    HW217688   3.124   3.738   5.774
 5668SOL     OW17689   3.162   4.177   6.277
 5668SOL    HW117690   3.103   4.257   6.281
 5668SOL    HW217691   3.177   4.142   6.370
 5669SOL     OW17692   3.455   3.945   6.468
 5669SOL    HW117693   3.371   3.944   6.522
 5669SOL    HW217694   3.457   4.028   6.412
 5670SOL     OW17695   2.092   4.352   7.561
 5670SOL    HW117696   1.999   4.350   7.598
 5670SOL    HW217697   2.093   4.313   7.469
 5671SOL     OW17698   2.087   3.999   8.444
 5671SOL    HW117699   2.122   3.982   8.536
 5671SOL    HW217700   1.999   3.954   8.432
 5672SOL     OW17701   1.881   4.092   8.095
 5672SOL    HW117702   1.799   4.135   8.134
 5672SOL    HW217703   1.853   4.019   8.032
 5673SOL     OW17704   3.617   4.331   7.679
 5673SOL    HW117705   3.605   4.318   7.580
 5673SOL    HW217706   3.587   4.250   7.728
 5674SOL     OW17707   2.547   4.736   8.113
 5674SOL    HW117708   2.616   4.720   8.183
 5674SOL    HW217709   2.474   4.793   8.151
 5675SOL     OW17710   2.300   4.116   8.947
 5675SOL    HW117711   2.382   4.060   8.956
 5675SOL    HW217712   2.219   4.058   8.951
 5676SOL     OW17713   3.465   4.171   8.185
 5676SOL    HW117714   3.391   4.217   8.135
 5676SOL    HW217715   3.516   4.239   8.238
 5677SOL     OW17716   3.456   3.838   8.928
 5677SOL    HW117717   3.438   3.905   8.856
 5677SOL    HW217718   3.453   3.884   9.017
 5678SOL     OW17719   1.984   4.367   8.011
 5678SOL    HW117720   1.939   4.279   8.028
 5678SOL    HW217721   1.983   4.421   8.095
 5679SOL     OW17722   1.975   4.461   9.045
 5679SOL    HW117723   2.063   4.448   9.090
 5679SOL    HW217724   1.962   4.558   9.023
 5680SOL     OW17725   2.671   3.728   7.950
 5680SOL    HW117726   2.711   3.819   7.941
 5680SOL    HW217727   2.571   3.736   7.956
 5681SOL     OW17728   2.179   3.975   9.249
 5681SOL    HW117729   2.250   4.046   9.255
 5681SOL    HW217730   2.091   4.014   9.277
 5682SOL     OW17731   3.143   4.069   8.392
 5682SOL    HW117732   3.057   4.019   8.379
 5682SOL    HW217733   3.205   4.015   8.448
 5683SOL     OW17734   2.669   4.329   8.913
 5683SOL    HW117735   2.622   4.326   9.002
 5683SOL    HW217736   2.618   4.274   8.847
 5684SOL     OW17737   3.256   4.193   9.122
 5684SOL    HW117738   3.236   4.236   9.210
 5684SOL    HW217739   3.334   4.131   9.131
 5685SOL     OW17740   2.853   4.134   8.690
 5685SOL    HW117741   2.776   4.168   8.744
 5685SOL    HW217742   2.819   4.083   8.611
 5686SOL     OW17743   2.903   4.425   7.877
 5686SOL    HW117744   2.929   4.421   7.973
 5686SOL    HW217745   2.818   4.374   7.863
 5687SOL     OW17746   2.727   4.072   7.643
 5687SOL    HW117747   2.786   4.135   7.594
 5687SOL    HW217748   2.746   3.978   7.614
 5688SOL     OW17749   3.581   4.309   9.279
 5688SOL    HW117750   3.555   4.398   9.243
 5688SOL    HW217751   3.579   4.241   9.206
 5689SOL     OW17752   2.412   3.920   8.333
 5689SOL    HW117753   2.407   3.915   8.433
 5689SOL    HW217754   2.414   4.016   8.304
 5690SOL     OW17755   3.320   4.459   8.176
 5690SOL    HW117756   3.315   4.394   8.251
 5690SOL    HW217757   3.400   4.518   8.189
 5691SOL     OW17758   2.064   4.009   8.946
 5691SOL    HW117759   1.984   4.069   8.933
 5691SOL    HW217760   2.054   3.960   9.032
 5692SOL     OW17761   3.262   3.831   7.874
 5692SOL    HW117762   3.238   3.794   7.784
 5692SOL    HW217763   3.361   3.847   7.878
 5693SOL     OW17764   2.244   4.424   7.928
 5693SOL    HW117765   2.289   4.334   7.925
 5693SOL    HW217766   2.150   4.413   7.961
 5694SOL     OW17767   3.409   3.946   9.177
 5694SOL    HW117768   3.404   3.983   9.269
 5694SOL    HW217769   3.337   3.877   9.165
 5695SOL     OW17770   2.476   3.846   7.565
 5695SOL    HW117771   2.574   3.824   7.572
 5695SOL    HW217772   2.445   3.829   7.472
 5696SOL     OW17773   2.643   3.988   9.197
 5696SOL    HW117774   2.710   3.927   9.240
 5696SOL    HW217775   2.570   4.007   9.262
 5697SOL     OW17776   3.213   4.314   8.881
 5697SOL    HW117777   3.241   4.271   8.966
 5697SOL    HW217778   3.238   4.410   8.882
 5698SOL     OW17779   2.784   4.227   8.347
 5698SOL    HW117780   2.759   4.218   8.251
 5698SOL    HW217781   2.832   4.145   8.378
 5699SOL     OW17782   2.401   3.788   7.960
 5699SOL    HW117783   2.320   3.789   8.018
 5699SOL    HW217784   2.404   3.871   7.905
 5700SOL     OW17785   2.159   3.759   7.619
 5700SOL    HW117786   2.208   3.843   7.598
 5700SOL    HW217787   2.221   3.694   7.664
 5701SOL     OW17788   2.797   3.960   7.928
 5701SOL    HW117789   2.749   4.001   7.850
 5701SOL    HW217790   2.896   3.958   7.909
 5702SOL     OW17791   2.938   4.407   8.912
 5702SOL    HW117792   2.858   4.346   8.915
 5702SOL    HW217793   3.019   4.354   8.888
 5703SOL     OW17794   2.894   4.273   7.464
 5703SOL    HW117795   2.853   4.355   7.425
 5703SOL    HW217796   2.958   4.299   7.537
 5704SOL     OW17797   1.940   4.280   8.834
 5704SOL    HW117798   2.032   4.279   8.793
 5704SOL    HW217799   1.934   4.354   8.901
 5705SOL     OW17800   2.423   3.946   8.595
 5705SOL    HW117801   2.461   3.862   8.632
 5705SOL    HW217802   2.335   3.965   8.639
 5706SOL     OW17803   2.728   4.178   8.090
 5706SOL    HW117804   2.696   4.250   8.028
 5706SOL    HW217805   2.752   4.097   8.037
 5707SOL     OW17806   2.879   3.763   8.201
 5707SOL    HW117807   2.807   3.768   8.132
 5707SOL    HW217808   2.855   3.694   8.270
 5708SOL     OW17809   3.328   4.314   8.440
 5708SOL    HW117810   3.298   4.219   8.447
 5708SOL    HW217811   3.401   4.330   8.506
 5709SOL     OW17812   3.252   4.299   7.526
 5709SOL    HW117813   3.198   4.278   7.607
 5709SOL    HW217814   3.343   4.258   7.535
 5710SOL     OW17815   2.389   3.980   7.776
 5710SOL    HW117816   2.416   3.921   7.701
 5710SOL    HW217817   2.389   4.075   7.745
 5711SOL     OW17818   2.777   3.813   8.850
 5711SOL    HW117819   2.802   3.793   8.755
 5711SOL    HW217820   2.849   3.869   8.892
 5712SOL     OW17821   2.272   4.537   8.699
 5712SOL    HW117822   2.358   4.549   8.749
 5712SOL    HW217823   2.230   4.450   8.726
 5713SOL     OW17824   3.136   4.110   8.710
 5713SOL    HW117825   3.157   4.184   8.774
 5713SOL    HW217826   3.047   4.127   8.667
 5714SOL     OW17827   2.428   4.261   8.313
 5714SOL    HW117828   2.440   4.327   8.239
 5714SOL    HW217829   2.474   4.295   8.396
 5715SOL     OW17830   3.444   4.363   7.920
 5715SOL    HW117831   3.413   4.424   7.993
 5715SOL    HW217832   3.494   4.415   7.851
 5716SOL     OW17833   2.875   3.829   9.218
 5716SOL    HW117834   2.881   3.914   9.166
 5716SOL    HW217835   2.907   3.753   9.161
 5717SOL     OW17836   2.366   3.774   9.188
 5717SOL    HW117837   2.324   3.717   9.118
 5717SOL    HW217838   2.300   3.843   9.220
 5718SOL     OW17839   3.071   4.249   7.723
 5718SOL    HW117840   3.084   4.165   7.777
 5718SOL    HW217841   3.042   4.323   7.783
 5719SOL     OW17842   2.169   3.937   8.679
 5719SOL    HW117843   2.146   3.974   8.769
 5719SOL    HW217844   2.139   3.842   8.673
 5720SOL     OW17845   2.594   4.358   8.512
 5720SOL    HW117846   2.653   4.332   8.436
 5720SOL    HW217847   2.566   4.454   8.501
 5721SOL     OW17848   3.590   4.659   9.302
 5721SOL    HW117849   3.544   4.652   9.213
 5721SOL    HW217850   3.528   4.703   9.368
 5722SOL     OW17851   2.169   3.787   8.066
 5722SOL    HW117852   2.158   3.881   8.099
 5722SOL    HW217853   2.164   3.724   8.143
 5723SOL     OW17854   3.484   4.091   7.822
 5723SOL    HW117855   3.486   4.015   7.886
 5723SOL    HW217856   3.436   4.168   7.862
 5724SOL     OW17857   3.402   3.998   7.573
 5724SOL    HW117858   3.341   3.923   7.596
 5724SOL    HW217859   3.424   4.050   7.656
 5725SOL     OW17860   2.181   4.534   8.397
 5725SOL    HW117861   2.274   4.570   8.402
 5725SOL    HW217862   2.175   4.449   8.449
 5726SOL     OW17863   2.201   4.233   8.454
 5726SOL    HW117864   2.149   4.150   8.437
 5726SOL    HW217865   2.278   4.238   8.390
 5727SOL     OW17866   3.000   4.104   9.126
 5727SOL    HW117867   2.955   4.167   9.190
 5727SOL    HW217868   3.093   4.135   9.109
 5728SOL     OW17869   3.022   3.931   8.925
 5728SOL    HW117870   3.022   3.995   9.002
 5728SOL    HW217871   3.050   3.979   8.842
 5729SOL     OW17872   1.902   4.268   8.562
 5729SOL    HW117873   1.987   4.235   8.521
 5729SOL    HW217874   1.915   4.283   8.660
 5730SOL     OW17875   2.051   4.244   9.170
 5730SOL    HW117876   2.110   4.204   9.100
 5730SOL    HW217877   1.993   4.315   9.129
 5731SOL     OW17878   2.677   4.296   7.773
 5731SOL    HW117879   2.684   4.207   7.727
 5731SOL    HW217880   2.583   4.330   7.765
 5732SOL     OW17881   3.519   4.328   8.654
 5732SOL    HW117882   3.481   4.259   8.716
 5732SOL    HW217883   3.601   4.292   8.610
 5733SOL     OW17884   2.533   4.188   8.717
 5733SOL    HW117885   2.499   4.099   8.687
 5733SOL    HW217886   2.559   4.242   8.637
 5734SOL     OW17887   2.335   4.224   7.639
 5734SOL    HW117888   2.396   4.304   7.643
 5734SOL    HW217889   2.240   4.255   7.646
 5735SOL     OW17890   3.588   3.859   7.971
 5735SOL    HW117891   3.661   3.842   7.904
 5735SOL    HW217892   3.557   3.772   8.009
 5736SOL     OW17893   3.142   4.651   8.120
 5736SOL    HW117894   3.202   4.570   8.122
 5736SOL    HW217895   3.182   4.720   8.060
 5737SOL     OW17896   3.703   3.899   8.411
 5737SOL    HW117897   3.742   3.814   8.375
 5737SOL    HW217898   3.605   3.901   8.392
 5738SOL     OW17899   2.125   4.050   8.168
 5738SOL    HW117900   2.046   4.101   8.134
 5738SOL    HW217901   2.116   4.035   8.266
 5739SOL     OW17902   2.778   4.634   7.739
 5739SOL    HW117903   2.841   4.672   7.671
 5739SOL    HW217904   2.818   4.551   7.778
 5740SOL     OW17905   2.901   4.822   8.144
 5740SOL    HW117906   2.831   4.775   8.198
 5740SOL    HW217907   2.960   4.754   8.101
 5741SOL     OW17908   2.876   3.960   8.419
 5741SOL    HW117909   2.868   3.924   8.326
 5741SOL    HW217910   2.874   3.884   8.484
 5742SOL     OW17911   3.571   4.109   8.829
 5742SOL    HW117912   3.644   4.178   8.833
 5742SOL    HW217913   3.599   4.034   8.770
 5743SOL     OW17914   2.534   3.927   8.937
 5743SOL    HW117915   2.624   3.911   8.897
 5743SOL    HW217916   2.542   3.932   9.036
 5744SOL     OW17917   1.937   4.069   7.481
 5744SOL    HW117918   1.845   4.041   7.452
 5744SOL    HW217919   1.968   4.146   7.425
 5745SOL     OW17920   1.934   3.890   7.766
 5745SOL    HW117921   1.917   3.973   7.712
 5745SOL    HW217922   2.024   3.853   7.744
 5746SOL     OW17923   2.578   4.289   9.156
 5746SOL    HW117924   2.597   4.354   9.230
 5746SOL    HW217925   2.638   4.209   9.165
 5747SOL     OW17926   3.087   4.049   7.897
 5747SOL    HW117927   3.152   3.975   7.886
 5747SOL    HW217928   3.107   4.099   7.981
 5748SOL     OW17929   3.639   4.066   9.090
 5748SOL    HW117930   3.622   4.097   8.996
 5748SOL    HW217931   3.555   4.029   9.128
 5749SOL     OW17932   2.945   4.708   7.535
 5749SOL    HW117933   2.922   4.761   7.453
 5749SOL    HW217934   3.026   4.652   7.516
 5750SOL     OW17935   3.686   3.916   8.675
 5750SOL    HW117936   3.682   3.826   8.719
 5750SOL    HW217937   3.689   3.905   8.576
 5751SOL     OW17938   2.290   4.148   7.968
 5751SOL    HW117939   2.320   4.076   7.906
 5751SOL    HW217940   2.251   4.108   8.051
 5752SOL     OW17941   2.179   4.271   8.728
 5752SOL    HW117942   2.217   4.212   8.800
 5752SOL    HW217943   2.219   4.245   8.640
 5753SOL     OW17944   3.286   3.938   8.560
 5753SOL    HW117945   3.338   3.873   8.615
 5753SOL    HW217946   3.237   4.001   8.621
 5754SOL     OW17947   2.863   3.758   8.602
 5754SOL    HW117948   2.800   3.686   8.571
 5754SOL    HW217949   2.956   3.722   8.602
 5755SOL     OW17950   3.214   3.776   7.616
 5755SOL    HW117951   3.249   3.735   7.532
 5755SOL    HW217952   3.124   3.738   7.636
 5756SOL     OW17953   3.162   4.177   8.139
 5756SOL    HW117954   3.103   4.257   8.143
 5756SOL    HW217955   3.177   4.142   8.232
 5757SOL     OW17956   3.455   3.945   8.330
 5757SOL    HW117957   3.371   3.944   8.384
 5757SOL    HW217958   3.457   4.028   8.274
 5758SOL     OW17959   2.092   4.352   9.423
 5758SOL    HW117960   1.999   4.350   9.460
 5758SOL    HW217961   2.093   4.313   9.331
 5759SOL     OW17962   2.087   3.999  10.306
 5759SOL    HW117963   2.122   3.982  10.398
 5759SOL    HW217964   1.999   3.954  10.294
 5760SOL     OW17965   1.881   4.092   9.957
 5760SOL    HW117966   1.799   4.135   9.996
 5760SOL    HW217967   1.853   4.019   9.894
 5761SOL     OW17968   3.617   4.331   9.541
 5761SOL    HW117969   3.605   4.318   9.442
 5761SOL    HW217970   3.587   4.250   9.590
 5762SOL     OW17971   2.547   4.736   9.975
 5762SOL    HW117972   2.616   4.720  10.045
 5762SOL    HW217973   2.474   4.793  10.013
 5763SOL     OW17974   2.300   4.116  10.809
 5763SOL    HW117975   2.382   4.060  10.818
 5763SOL    HW217976   2.219   4.058  10.813
 5764SOL     OW17977   3.465   4.171  10.047
 5764SOL    HW117978   3.391   4.217   9.997
 5764SOL    HW217979   3.516   4.239  10.100
 5765SOL     OW17980   3.456   3.838  10.790
 5765SOL    HW117981   3.438   3.905  10.718
 5765SOL    HW217982   3.453   3.884  10.879
 5766SOL     OW17983   1.984   4.367   9.873
 5766SOL    HW117984   1.939   4.279   9.890
 5766SOL    HW217985   1.983   4.421   9.957
 5767SOL     OW17986   1.975   4.461  10.907
 5767SOL    HW117987   2.063   4.448  10.952
 5767SOL    HW217988   1.962   4.558  10.885
 5768SOL     OW17989   2.671   3.728   9.812
 5768SOL    HW117990   2.711   3.819   9.803
 5768SOL    HW217991   2.571   3.736   9.818
 5769SOL     OW17992   2.179   3.975  11.111
 5769SOL    HW117993   2.250   4.046  11.117
 5769SOL    HW217994   2.091   4.014  11.139
 5770SOL     OW17995   3.143   4.069  10.254
 5770SOL    HW117996   3.057   4.019  10.241
 5770SOL    HW217997   3.205   4.015  10.310
 5771SOL     OW17998   2.669   4.329  10.775
 5771SOL    HW117999   2.622   4.326  10.864
 5771SOL    HW218000   2.618   4.274  10.709
 5772SOL     OW18001   2.853   4.134  10.552
 5772SOL    HW118002   2.776   4.168  10.606
 5772SOL    HW218003   2.819   4.083  10.473
 5773SOL     OW18004   2.903   4.425   9.739
 5773SOL    HW118005   2.929   4.421   9.835
 5773SOL    HW218006   2.818   4.374   9.725
 5774SOL     OW18007   2.727   4.072   9.505
 5774SOL    HW118008   2.786   4.135   9.456
 5774SOL    HW218009   2.746   3.978   9.476
 5775SOL     OW18010   2.412   3.920  10.195
 5775SOL    HW118011   2.407   3.915  10.295
 5775SOL    HW218012   2.414   4.016  10.166
 5776SOL     OW18013   3.320   4.459  10.038
 5776SOL    HW118014   3.315   4.394  10.113
 5776SOL    HW218015   3.400   4.518  10.051
 5777SOL     OW18016   2.064   4.009  10.808
 5777SOL    HW118017   1.984   4.069  10.795
 5777SOL    HW218018   2.054   3.960  10.894
 5778SOL     OW18019   3.262   3.831   9.736
 5778SOL    HW118020   3.238   3.794   9.646
 5778SOL    HW218021   3.361   3.847   9.740
 5779SOL     OW18022   2.244   4.424   9.790
 5779SOL    HW118023   2.289   4.334   9.787
 5779SOL    HW218024   2.150   4.413   9.823
 5780SOL     OW18025   2.476   3.846   9.427
 5780SOL    HW118026   2.574   3.824   9.434
 5780SOL    HW218027   2.445   3.829   9.334
 5781SOL     OW18028   2.643   3.988  11.059
 5781SOL    HW118029   2.710   3.927  11.102
 5781SOL    HW218030   2.570   4.007  11.124
 5782SOL     OW18031   3.213   4.314  10.743
 5782SOL    HW118032   3.241   4.271  10.828
 5782SOL    HW218033   3.238   4.410  10.744
 5783SOL     OW18034   2.784   4.227  10.209
 5783SOL    HW118035   2.759   4.218  10.113
 5783SOL    HW218036   2.832   4.145  10.240
 5784SOL     OW18037   2.401   3.788   9.822
 5784SOL    HW118038   2.320   3.789   9.880
 5784SOL    HW218039   2.404   3.871   9.767
 5785SOL     OW18040   2.159   3.759   9.481
 5785SOL    HW118041   2.208   3.843   9.460
 5785SOL    HW218042   2.221   3.694   9.526
 5786SOL     OW18043   2.797   3.960   9.790
 5786SOL    HW118044   2.749   4.001   9.712
 5786SOL    HW218045   2.896   3.958   9.771
 5787SOL     OW18046   2.938   4.407  10.774
 5787SOL    HW118047   2.858   4.346  10.777
 5787SOL    HW218048   3.019   4.354  10.750
 5788SOL     OW18049   2.894   4.273   9.326
 5788SOL    HW118050   2.853   4.355   9.287
 5788SOL    HW218051   2.958   4.299   9.399
 5789SOL     OW18052   1.940   4.280  10.696
 5789SOL    HW118053   2.032   4.279  10.655
 5789SOL    HW218054   1.934   4.354  10.763
 5790SOL     OW18055   2.423   3.946  10.457
 5790SOL    HW118056   2.461   3.862  10.494
 5790SOL    HW218057   2.335   3.965  10.501
 5791SOL     OW18058   2.728   4.178   9.952
 5791SOL    HW118059   2.696   4.250   9.890
 5791SOL    HW218060   2.752   4.097   9.899
 5792SOL     OW18061   2.879   3.763  10.063
 5792SOL    HW118062   2.807   3.768   9.994
 5792SOL    HW218063   2.855   3.694  10.132
 5793SOL     OW18064   3.328   4.314  10.302
 5793SOL    HW118065   3.298   4.219  10.309
 5793SOL    HW218066   3.401   4.330  10.368
 5794SOL     OW18067   3.252   4.299   9.388
 5794SOL    HW118068   3.198   4.278   9.469
 5794SOL    HW218069   3.343   4.258   9.397
 5795SOL     OW18070   2.389   3.980   9.638
 5795SOL    HW118071   2.416   3.921   9.563
 5795SOL    HW218072   2.389   4.075   9.607
 5796SOL     OW18073   2.777   3.813  10.712
 5796SOL    HW118074   2.802   3.793  10.617
 5796SOL    HW218075   2.849   3.869  10.754
 5797SOL     OW18076   2.272   4.537  10.561
 5797SOL    HW118077   2.358   4.549  10.611
 5797SOL    HW218078   2.230   4.450  10.588
 5798SOL     OW18079   3.136   4.110  10.572
 5798SOL    HW118080   3.157   4.184  10.636
 5798SOL    HW218081   3.047   4.127  10.529
 5799SOL     OW18082   2.428   4.261  10.175
 5799SOL    HW118083   2.440   4.327  10.101
 5799SOL    HW218084   2.474   4.295  10.258
 5800SOL     OW18085   3.444   4.363   9.782
 5800SOL    HW118086   3.413   4.424   9.855
 5800SOL    HW218087   3.494   4.415   9.713
 5801SOL     OW18088   2.264   4.475  10.908
 5801SOL    HW118089   2.332   4.530  10.861
 5801SOL    HW218090   2.304   4.387  10.935
 5802SOL     OW18091   3.071   4.249   9.585
 5802SOL    HW118092   3.084   4.165   9.639
 5802SOL    HW218093   3.042   4.323   9.645
 5803SOL     OW18094   2.169   3.937  10.541
 5803SOL    HW118095   2.146   3.974  10.631
 5803SOL    HW218096   2.139   3.842  10.535
 5804SOL     OW18097   2.594   4.358  10.374
 5804SOL    HW118098   2.653   4.332  10.298
 5804SOL    HW218099   2.566   4.454  10.363
 5805SOL     OW18100   2.169   3.787   9.928
 5805SOL    HW118101   2.158   3.881   9.961
 5805SOL    HW218102   2.164   3.724  10.005
 5806SOL     OW18103   3.484   4.091   9.684
 5806SOL    HW118104   3.486   4.015   9.748
 5806SOL    HW218105   3.436   4.168   9.724
 5807SOL     OW18106   3.402   3.998   9.435
 5807SOL    HW118107   3.341   3.923   9.458
 5807SOL    HW218108   3.424   4.050   9.518
 5808SOL     OW18109   2.181   4.534  10.259
 5808SOL    HW118110   2.274   4.570  10.264
 5808SOL    HW218111   2.175   4.449  10.311
 5809SOL     OW18112   2.201   4.233  10.316
 5809SOL    HW118113   2.149   4.150  10.299
 5809SOL    HW218114   2.278   4.238  10.252
 5810SOL     OW18115   3.022   3.931  10.787
 5810SOL    HW118116   3.022   3.995  10.864
 5810SOL    HW218117   3.050   3.979  10.704
 5811SOL     OW18118   1.902   4.268  10.424
 5811SOL    HW118119   1.987   4.235  10.383
 5811SOL    HW218120   1.915   4.283  10.522
 5812SOL     OW18121   3.231   4.674  10.970
 5812SOL    HW118122   3.270   4.763  10.990
 5812SOL    HW218123   3.241   4.654  10.873
 5813SOL     OW18124   2.677   4.296   9.635
 5813SOL    HW118125   2.684   4.207   9.589
 5813SOL    HW218126   2.583   4.330   9.627
 5814SOL     OW18127   3.519   4.328  10.516
 5814SOL    HW118128   3.481   4.259  10.578
 5814SOL    HW218129   3.601   4.292  10.472
 5815SOL     OW18130   2.533   4.188  10.579
 5815SOL    HW118131   2.499   4.099  10.549
 5815SOL    HW218132   2.559   4.242  10.499
 5816SOL     OW18133   2.335   4.224   9.501
 5816SOL    HW118134   2.396   4.304   9.505
 5816SOL    HW218135   2.240   4.255   9.508
 5817SOL     OW18136   3.588   3.859   9.833
 5817SOL    HW118137   3.661   3.842   9.766
 5817SOL    HW218138   3.557   3.772   9.871
 5818SOL     OW18139   3.142   4.651   9.982
 5818SOL    HW118140   3.202   4.570   9.984
 5818SOL    HW218141   3.182   4.720   9.922
 5819SOL     OW18142   3.703   3.899  10.273
 5819SOL    HW118143   3.742   3.814  10.237
 5819SOL    HW218144   3.605   3.901  10.254
 5820SOL     OW18145   2.125   4.050  10.030
 5820SOL    HW118146   2.046   4.101   9.996
 5820SOL    HW218147   2.116   4.035  10.128
 5821SOL     OW18148   2.778   4.634   9.601
 5821SOL    HW118149   2.841   4.672   9.533
 5821SOL    HW218150   2.818   4.551   9.640
 5822SOL     OW18151   2.901   4.822  10.006
 5822SOL    HW118152   2.831   4.775  10.060
 5822SOL    HW218153   2.960   4.754   9.963
 5823SOL     OW18154   2.876   3.960  10.281
 5823SOL    HW118155   2.868   3.924  10.188
 5823SOL    HW218156   2.874   3.884  10.346
 5824SOL     OW18157   3.571   4.109  10.691
 5824SOL    HW118158   3.644   4.178  10.695
 5824SOL    HW218159   3.599   4.034  10.632
 5825SOL     OW18160   2.534   3.927  10.799
 5825SOL    HW118161   2.624   3.911  10.759
 5825SOL    HW218162   2.542   3.932  10.898
 5826SOL     OW18163   1.937   4.069   9.343
 5826SOL    HW118164   1.845   4.041   9.314
 5826SOL    HW218165   1.968   4.146   9.287
 5827SOL     OW18166   1.934   3.890   9.628
 5827SOL    HW118167   1.917   3.973   9.574
 5827SOL    HW218168   2.024   3.853   9.606
 5828SOL     OW18169   2.578   4.289  11.018
 5828SOL    HW118170   2.597   4.354  11.092
 5828SOL    HW218171   2.638   4.209  11.027
 5829SOL     OW18172   3.087   4.049   9.759
 5829SOL    HW118173   3.152   3.975   9.748
 5829SOL    HW218174   3.107   4.099   9.843
 5830SOL     OW18175   3.639   4.066  10.952
 5830SOL    HW118176   3.622   4.097  10.858
 5830SOL    HW218177   3.555   4.029  10.990
 5831SOL     OW18178   2.945   4.708   9.397
 5831SOL    HW118179   2.922   4.761   9.315
 5831SOL    HW218180   3.026   4.652   9.378
 5832SOL     OW18181   3.686   3.916  10.537
 5832SOL    HW118182   3.682   3.826  10.581
 5832SOL    HW218183   3.689   3.905  10.438
 5833SOL     OW18184   2.290   4.148   9.830
 5833SOL    HW118185   2.320   4.076   9.768
 5833SOL    HW218186   2.251   4.108   9.913
 5834SOL     OW18187   2.179   4.271  10.590
 5834SOL    HW118188   2.217   4.212  10.662
 5834SOL    HW218189   2.219   4.245  10.502
 5835SOL     OW18190   3.286   3.938  10.422
 5835SOL    HW118191   3.338   3.873  10.477
 5835SOL    HW218192   3.237   4.001  10.483
 5836SOL     OW18193   2.863   3.758  10.464
 5836SOL    HW118194   2.800   3.686  10.433
 5836SOL    HW218195   2.956   3.722  10.464
 5837SOL     OW18196   3.214   3.776   9.478
 5837SOL    HW118197   3.249   3.735   9.394
 5837SOL    HW218198   3.124   3.738   9.498
 5838SOL     OW18199   3.162   4.177  10.001
 5838SOL    HW118200   3.103   4.257  10.005
 5838SOL    HW218201   3.177   4.142  10.094
 5839SOL     OW18202   3.455   3.945  10.192
 5839SOL    HW118203   3.371   3.944  10.246
 5839SOL    HW218204   3.457   4.028  10.136
 5840SOL     OW18205   3.954   0.628   0.113
 5840SOL    HW118206   3.861   0.626   0.150
 5840SOL    HW218207   3.955   0.589   0.021
 5841SOL     OW18208   3.949   0.275   0.996
 5841SOL    HW118209   3.984   0.258   1.088
 5841SOL    HW218210   3.861   0.230   0.984
 5842SOL     OW18211   3.743   0.368   0.647
 5842SOL    HW118212   3.661   0.411   0.686
 5842SOL    HW218213   3.715   0.295   0.584
 5843SOL     OW18214   4.293   1.275   1.165
 5843SOL    HW118215   4.200   1.268   1.128
 5843SOL    HW218216   4.304   1.364   1.209
 5844SOL     OW18217   4.574   0.798   1.823
 5844SOL    HW118218   4.570   0.874   1.888
 5844SOL    HW218219   4.596   0.834   1.732
 5845SOL     OW18220   4.409   1.012   0.665
 5845SOL    HW118221   4.478   0.996   0.735
 5845SOL    HW218222   4.336   1.069   0.703
 5846SOL     OW18223   4.410   1.161   1.803
 5846SOL    HW118224   4.470   1.240   1.817
 5846SOL    HW218225   4.324   1.192   1.762
 5847SOL     OW18226   4.059   1.435   1.061
 5847SOL    HW118227   3.981   1.404   1.008
 5847SOL    HW218228   4.117   1.493   1.004
 5848SOL     OW18229   4.162   0.392   1.499
 5848SOL    HW118230   4.244   0.336   1.508
 5848SOL    HW218231   4.081   0.334   1.503
 5849SOL     OW18232   3.955   1.713   0.483
 5849SOL    HW118233   3.989   1.790   0.537
 5849SOL    HW218234   3.999   1.713   0.393
 5850SOL     OW18235   3.954   1.434   0.538
 5850SOL    HW118236   3.928   1.530   0.538
 5850SOL    HW218237   3.883   1.380   0.583
 5851SOL     OW18238   3.964   1.091   0.886
 5851SOL    HW118239   3.978   1.007   0.938
 5851SOL    HW218240   3.909   1.155   0.941
 5852SOL     OW18241   4.344   1.786   1.439
 5852SOL    HW118242   4.252   1.769   1.474
 5852SOL    HW218243   4.372   1.878   1.465
 5853SOL     OW18244   4.330   0.964   0.123
 5853SOL    HW118245   4.337   1.048   0.069
 5853SOL    HW218246   4.376   0.977   0.211
 5854SOL     OW18247   3.846   0.643   0.563
 5854SOL    HW118248   3.801   0.555   0.580
 5854SOL    HW218249   3.845   0.697   0.647
 5855SOL     OW18250   3.751   1.596   0.117
 5855SOL    HW118251   3.732   1.500   0.138
 5855SOL    HW218252   3.718   1.654   0.192
 5856SOL     OW18253   3.837   0.737   1.597
 5856SOL    HW118254   3.925   0.724   1.642
 5856SOL    HW218255   3.824   0.834   1.575
 5857SOL     OW18256   4.337   1.365   0.726
 5857SOL    HW118257   4.288   1.278   0.735
 5857SOL    HW218258   4.314   1.408   0.639
 5858SOL     OW18259   4.533   0.004   0.502
 5858SOL    HW118260   4.573   0.095   0.493
 5858SOL    HW218261   4.433   0.012   0.508
 5859SOL     OW18262   3.921   0.976   1.264
 5859SOL    HW118263   4.010   0.931   1.250
 5859SOL    HW218264   3.848   0.911   1.245
 5860SOL     OW18265   4.041   0.251   1.801
 5860SOL    HW118266   4.112   0.322   1.807
 5860SOL    HW218267   3.953   0.290   1.829
 5861SOL     OW18268   4.322   0.729   0.270
 5861SOL    HW118269   4.346   0.798   0.202
 5861SOL    HW218270   4.244   0.762   0.324
 5862SOL     OW18271   3.800   0.811   0.789
 5862SOL    HW118272   3.899   0.799   0.798
 5862SOL    HW218273   3.776   0.906   0.810
 5863SOL     OW18274   3.854   1.821   1.571
 5863SOL    HW118275   3.844   1.806   1.670
 5863SOL    HW218276   3.768   1.857   1.535
 5864SOL     OW18277   4.274   0.196   0.885
 5864SOL    HW118278   4.269   0.191   0.985
 5864SOL    HW218279   4.276   0.292   0.856
 5865SOL     OW18280   4.075   1.801   0.853
 5865SOL    HW118281   4.125   1.715   0.859
 5865SOL    HW218282   4.140   1.878   0.850
 5866SOL     OW18283   4.045   0.943   0.242
 5866SOL    HW118284   4.127   0.982   0.200
 5866SOL    HW218285   4.018   0.861   0.193
 5867SOL     OW18286   4.185   1.266   1.727
 5867SOL    HW118287   4.135   1.267   1.641
 5867SOL    HW218288   4.122   1.248   1.803
 5868SOL     OW18289   3.926   0.285   1.498
 5868SOL    HW118290   3.846   0.345   1.485
 5868SOL    HW218291   3.916   0.236   1.584
 5869SOL     OW18292   4.188   1.743   0.323
 5869SOL    HW118293   4.221   1.782   0.409
 5869SOL    HW218294   4.264   1.736   0.258
 5870SOL     OW18295   3.973   1.785   1.241
 5870SOL    HW118296   4.030   1.720   1.291
 5870SOL    HW218297   3.957   1.752   1.148
 5871SOL     OW18298   4.106   0.700   0.480
 5871SOL    HW118299   4.151   0.610   0.477
 5871SOL    HW218300   4.012   0.689   0.513
 5872SOL     OW18301   4.338   0.122   0.117
 5872SOL    HW118302   4.436   0.100   0.124
 5872SOL    HW218303   4.307   0.105   0.024
 5873SOL     OW18304   4.527   1.402   0.924
 5873SOL    HW118305   4.617   1.416   0.882
 5873SOL    HW218306   4.456   1.404   0.853
 5874SOL     OW18307   4.263   0.064   0.512
 5874SOL    HW118308   4.182   0.065   0.570
 5874SOL    HW218309   4.266   0.147   0.457
 5875SOL     OW18310   4.021   0.035   0.171
 5875SOL    HW118311   4.070   0.119   0.150
 5875SOL    HW218312   4.083  -0.030   0.216
 5876SOL     OW18313   4.800   0.683   1.464
 5876SOL    HW118314   4.720   0.622   1.467
 5876SOL    HW218315   4.881   0.630   1.440
 5877SOL     OW18316   4.183   1.152   0.741
 5877SOL    HW118317   4.112   1.125   0.806
 5877SOL    HW218318   4.157   1.124   0.648
 5878SOL     OW18319   3.802   0.556   1.386
 5878SOL    HW118320   3.894   0.555   1.345
 5878SOL    HW218321   3.796   0.630   1.453
 5879SOL     OW18322   4.285   0.222   1.147
 5879SOL    HW118323   4.323   0.138   1.184
 5879SOL    HW218324   4.197   0.241   1.191
 5880SOL     OW18325   4.212   1.385   0.174
 5880SOL    HW118326   4.125   1.370   0.221
 5880SOL    HW218327   4.195   1.411   0.079
 5881SOL     OW18328   4.251   0.256   0.328
 5881SOL    HW118329   4.278   0.197   0.253
 5881SOL    HW218330   4.251   0.351   0.297
 5882SOL     OW18331   4.134   0.813   1.251
 5882SOL    HW118332   4.220   0.825   1.301
 5882SOL    HW218333   4.092   0.726   1.278
 5883SOL     OW18334   3.788   1.564   1.331
 5883SOL    HW118335   3.742   1.646   1.297
 5883SOL    HW218336   3.886   1.583   1.340
 5884SOL     OW18337   4.091   1.100   0.501
 5884SOL    HW118338   4.084   1.183   0.445
 5884SOL    HW218339   4.095   1.020   0.441
 5885SOL     OW18340   4.290   0.537   0.865
 5885SOL    HW118341   4.302   0.603   0.791
 5885SOL    HW218342   4.336   0.571   0.948
 5886SOL     OW18343   4.078   1.510   1.329
 5886SOL    HW118344   4.057   1.466   1.242
 5886SOL    HW218345   4.175   1.536   1.332
 5887SOL     OW18346   4.126   0.751   1.598
 5887SOL    HW118347   4.194   0.806   1.551
 5887SOL    HW218348   4.166   0.663   1.625
 5888SOL     OW18349   4.228   0.050   1.740
 5888SOL    HW118350   4.186  -0.007   1.670
 5888SOL    HW218351   4.162   0.119   1.772
 5889SOL     OW18352   4.297   0.870   1.029
 5889SOL    HW118353   4.341   0.959   1.020
 5889SOL    HW218354   4.234   0.870   1.106
 5890SOL     OW18355   4.031   0.213   1.231
 5890SOL    HW118356   4.008   0.250   1.321
 5890SOL    HW218357   4.001   0.118   1.225
 5891SOL     OW18358   3.761   1.310   1.282
 5891SOL    HW118359   3.814   1.261   1.350
 5891SOL    HW218360   3.783   1.408   1.287
 5892SOL     OW18361   4.031   0.063   0.618
 5892SOL    HW118362   4.020   0.157   0.651
 5892SOL    HW218363   4.026   0.000   0.695
 5893SOL     OW18364   4.074   0.898   1.804
 5893SOL    HW118365   4.150   0.942   1.852
 5893SOL    HW218366   4.109   0.851   1.722
 5894SOL     OW18367   4.043   0.810   0.949
 5894SOL    HW118368   4.136   0.846   0.954
 5894SOL    HW218369   4.037   0.725   1.001
 5895SOL     OW18370   4.063   0.509   1.006
 5895SOL    HW118371   4.011   0.426   0.989
 5895SOL    HW218372   4.140   0.514   0.942
 5896SOL     OW18373   3.732   1.326   0.200
 5896SOL    HW118374   3.639   1.347   0.169
 5896SOL    HW218375   3.742   1.227   0.213
 5897SOL     OW18376   3.812   1.801   0.927
 5897SOL    HW118377   3.770   1.715   0.900
 5897SOL    HW218378   3.906   1.804   0.893
 5898SOL     OW18379   4.228   1.568   0.910
 5898SOL    HW118380   4.294   1.642   0.919
 5898SOL    HW218381   4.272   1.489   0.868
 5899SOL     OW18382   3.764   0.544   1.114
 5899SOL    HW118383   3.849   0.511   1.073
 5899SOL    HW218384   3.777   0.559   1.212
 5900SOL     OW18385   3.913   0.520   1.722
 5900SOL    HW118386   3.972   0.480   1.652
 5900SOL    HW218387   3.855   0.591   1.681
 5901SOL     OW18388   4.539   0.572   0.325
 5901SOL    HW118389   4.546   0.483   0.279
 5901SOL    HW218390   4.445   0.606   0.317
 5902SOL     OW18391   3.976   1.564   1.744
 5902SOL    HW118392   3.946   1.621   1.820
 5902SOL    HW218393   3.969   1.467   1.770
 5903SOL     OW18394   4.197   0.500   0.191
 5903SOL    HW118395   4.258   0.580   0.195
 5903SOL    HW218396   4.102   0.531   0.198
 5904SOL     OW18397   3.883   1.137   1.466
 5904SOL    HW118398   3.905   1.076   1.542
 5904SOL    HW218399   3.893   1.088   1.380
 5905SOL     OW18400   3.807   1.258   1.022
 5905SOL    HW118401   3.802   1.257   1.122
 5905SOL    HW218402   3.724   1.217   0.984
 5906SOL     OW18403   4.412   1.662   1.716
 5906SOL    HW118404   4.356   1.743   1.725
 5906SOL    HW218405   4.464   1.666   1.630
 5907SOL     OW18406   3.854   1.794   1.851
 5907SOL    HW118407   3.813   1.720   1.904
 5907SOL    HW218408   3.918   1.845   1.909
 5908SOL     OW18409   3.987   0.326   0.720
 5908SOL    HW118410   3.908   0.377   0.686
 5908SOL    HW218411   3.978   0.311   0.818
 5909SOL     OW18412   4.096   1.288   1.490
 5909SOL    HW118413   4.083   1.381   1.456
 5909SOL    HW218414   4.012   1.236   1.477
 5910SOL     OW18415   4.314   1.487   0.491
 5910SOL    HW118416   4.356   1.429   0.421
 5910SOL    HW218417   4.270   1.566   0.447
 5911SOL     OW18418   3.979   1.348   0.290
 5911SOL    HW118419   3.883   1.349   0.263
 5911SOL    HW218420   3.991   1.401   0.374
 5912SOL     OW18421   3.829   1.013   1.726
 5912SOL    HW118422   3.752   0.980   1.780
 5912SOL    HW218423   3.914   0.983   1.768
 5913SOL     OW18424   4.396   0.203   1.489
 5913SOL    HW118425   4.486   0.187   1.449
 5913SOL    HW218426   4.404   0.208   1.588
 5914SOL     OW18427   3.799   0.345   0.033
 5914SOL    HW118428   3.707   0.317   0.004
 5914SOL    HW218429   3.830   0.422  -0.023
 5915SOL     OW18430   3.796   0.166   0.318
 5915SOL    HW118431   3.779   0.249   0.264
 5915SOL    HW218432   3.886   0.129   0.296
 5916SOL     OW18433   4.337   0.842   1.431
 5916SOL    HW118434   4.393   0.923   1.414
 5916SOL    HW218435   4.396   0.762   1.434
 5917SOL     OW18436   4.440   0.565   1.708
 5917SOL    HW118437   4.459   0.630   1.782
 5917SOL    HW218438   4.500   0.485   1.717
 5918SOL     OW18439   4.114   1.741   1.560
 5918SOL    HW118440   4.023   1.782   1.558
 5918SOL    HW218441   4.107   1.647   1.592
 5919SOL     OW18442   4.318   0.745   0.652
 5919SOL    HW118443   4.368   0.830   0.633
 5919SOL    HW218444   4.230   0.747   0.604
 5920SOL     OW18445   3.945   1.314   1.844
 5920SOL    HW118446   3.880   1.241   1.823
 5920SOL    HW218447   3.949   1.328   1.942
 5921SOL     OW18448   3.803   1.240   0.653
 5921SOL    HW118449   3.802   1.193   0.741
 5921SOL    HW218450   3.885   1.212   0.602
 5922SOL     OW18451   4.396   1.391   1.624
 5922SOL    HW118452   4.318   1.341   1.662
 5922SOL    HW218453   4.393   1.486   1.655
 5923SOL     OW18454   4.152   0.424   0.520
 5923SOL    HW118455   4.182   0.352   0.458
 5923SOL    HW218456   4.113   0.384   0.603
 5924SOL     OW18457   4.041   0.547   1.280
 5924SOL    HW118458   4.079   0.488   1.352
 5924SOL    HW218459   4.081   0.521   1.192
 5925SOL     OW18460   4.536   1.586   0.687
 5925SOL    HW118461   4.568   1.596   0.593
 5925SOL    HW218462   4.457   1.524   0.689
 5926SOL     OW18463   3.763   1.077   0.300
 5926SOL    HW118464   3.862   1.066   0.291
 5926SOL    HW218465   3.723   0.991   0.332
 5927SOL     OW18466   3.954   0.628   1.975
 5927SOL    HW118467   3.861   0.626   2.012
 5927SOL    HW218468   3.955   0.589   1.883
 5928SOL     OW18469   3.949   0.275   2.858
 5928SOL    HW118470   3.984   0.258   2.950
 5928SOL    HW218471   3.861   0.230   2.846
 5929SOL     OW18472   3.743   0.368   2.509
 5929SOL    HW118473   3.661   0.411   2.548
 5929SOL    HW218474   3.715   0.295   2.446
 5930SOL     OW18475   4.293   1.275   3.027
 5930SOL    HW118476   4.200   1.268   2.990
 5930SOL    HW218477   4.304   1.364   3.071
 5931SOL     OW18478   4.574   0.798   3.685
 5931SOL    HW118479   4.570   0.874   3.750
 5931SOL    HW218480   4.596   0.834   3.594
 5932SOL     OW18481   4.409   1.012   2.527
 5932SOL    HW118482   4.478   0.996   2.597
 5932SOL    HW218483   4.336   1.069   2.565
 5933SOL     OW18484   4.410   1.161   3.665
 5933SOL    HW118485   4.470   1.240   3.679
 5933SOL    HW218486   4.324   1.192   3.624
 5934SOL     OW18487   4.059   1.435   2.923
 5934SOL    HW118488   3.981   1.404   2.870
 5934SOL    HW218489   4.117   1.493   2.866
 5935SOL     OW18490   4.162   0.392   3.361
 5935SOL    HW118491   4.244   0.336   3.370
 5935SOL    HW218492   4.081   0.334   3.365
 5936SOL     OW18493   3.955   1.713   2.345
 5936SOL    HW118494   3.989   1.790   2.399
 5936SOL    HW218495   3.999   1.713   2.255
 5937SOL     OW18496   3.954   1.434   2.400
 5937SOL    HW118497   3.928   1.530   2.400
 5937SOL    HW218498   3.883   1.380   2.445
 5938SOL     OW18499   3.964   1.091   2.748
 5938SOL    HW118500   3.978   1.007   2.800
 5938SOL    HW218501   3.909   1.155   2.803
 5939SOL     OW18502   4.344   1.786   3.301
 5939SOL    HW118503   4.252   1.769   3.336
 5939SOL    HW218504   4.372   1.878   3.327
 5940SOL     OW18505   4.330   0.964   1.985
 5940SOL    HW118506   4.337   1.048   1.931
 5940SOL    HW218507   4.376   0.977   2.073
 5941SOL     OW18508   3.846   0.643   2.425
 5941SOL    HW118509   3.801   0.555   2.442
 5941SOL    HW218510   3.845   0.697   2.509
 5942SOL     OW18511   3.751   1.596   1.979
 5942SOL    HW118512   3.732   1.500   2.000
 5942SOL    HW218513   3.718   1.654   2.054
 5943SOL     OW18514   3.837   0.737   3.459
 5943SOL    HW118515   3.925   0.724   3.504
 5943SOL    HW218516   3.824   0.834   3.437
 5944SOL     OW18517   4.337   1.365   2.588
 5944SOL    HW118518   4.288   1.278   2.597
 5944SOL    HW218519   4.314   1.408   2.501
 5945SOL     OW18520   4.533   0.004   2.364
 5945SOL    HW118521   4.573   0.095   2.355
 5945SOL    HW218522   4.433   0.012   2.370
 5946SOL     OW18523   3.921   0.976   3.126
 5946SOL    HW118524   4.010   0.931   3.112
 5946SOL    HW218525   3.848   0.911   3.107
 5947SOL     OW18526   4.041   0.251   3.663
 5947SOL    HW118527   4.112   0.322   3.669
 5947SOL    HW218528   3.953   0.290   3.691
 5948SOL     OW18529   4.322   0.729   2.132
 5948SOL    HW118530   4.346   0.798   2.064
 5948SOL    HW218531   4.244   0.762   2.186
 5949SOL     OW18532   3.800   0.811   2.651
 5949SOL    HW118533   3.899   0.799   2.660
 5949SOL    HW218534   3.776   0.906   2.672
 5950SOL     OW18535   3.854   1.821   3.433
 5950SOL    HW118536   3.844   1.806   3.532
 5950SOL    HW218537   3.768   1.857   3.397
 5951SOL     OW18538   4.274   0.196   2.747
 5951SOL    HW118539   4.269   0.191   2.847
 5951SOL    HW218540   4.276   0.292   2.718
 5952SOL     OW18541   4.075   1.801   2.715
 5952SOL    HW118542   4.125   1.715   2.721
 5952SOL    HW218543   4.140   1.878   2.712
 5953SOL     OW18544   4.045   0.943   2.104
 5953SOL    HW118545   4.127   0.982   2.062
 5953SOL    HW218546   4.018   0.861   2.055
 5954SOL     OW18547   4.185   1.266   3.589
 5954SOL    HW118548   4.135   1.267   3.503
 5954SOL    HW218549   4.122   1.248   3.665
 5955SOL     OW18550   3.926   0.285   3.360
 5955SOL    HW118551   3.846   0.345   3.347
 5955SOL    HW218552   3.916   0.236   3.446
 5956SOL     OW18553   4.188   1.743   2.185
 5956SOL    HW118554   4.221   1.782   2.271
 5956SOL    HW218555   4.264   1.736   2.120
 5957SOL     OW18556   3.973   1.785   3.103
 5957SOL    HW118557   4.030   1.720   3.153
 5957SOL    HW218558   3.957   1.752   3.010
 5958SOL     OW18559   4.106   0.700   2.342
 5958SOL    HW118560   4.151   0.610   2.339
 5958SOL    HW218561   4.012   0.689   2.375
 5959SOL     OW18562   4.338   0.122   1.979
 5959SOL    HW118563   4.436   0.100   1.986
 5959SOL    HW218564   4.307   0.105   1.886
 5960SOL     OW18565   4.527   1.402   2.786
 5960SOL    HW118566   4.617   1.416   2.744
 5960SOL    HW218567   4.456   1.404   2.715
 5961SOL     OW18568   4.263   0.064   2.374
 5961SOL    HW118569   4.182   0.065   2.432
 5961SOL    HW218570   4.266   0.147   2.319
 5962SOL     OW18571   4.021   0.035   2.033
 5962SOL    HW118572   4.070   0.119   2.012
 5962SOL    HW218573   4.083  -0.030   2.078
 5963SOL     OW18574   4.800   0.683   3.326
 5963SOL    HW118575   4.720   0.622   3.329
 5963SOL    HW218576   4.881   0.630   3.302
 5964SOL     OW18577   4.183   1.152   2.603
 5964SOL    HW118578   4.112   1.125   2.668
 5964SOL    HW218579   4.157   1.124   2.510
 5965SOL     OW18580   3.802   0.556   3.248
 5965SOL    HW118581   3.894   0.555   3.207
 5965SOL    HW218582   3.796   0.630   3.315
 5966SOL     OW18583   4.285   0.222   3.009
 5966SOL    HW118584   4.323   0.138   3.046
 5966SOL    HW218585   4.197   0.241   3.053
 5967SOL     OW18586   4.212   1.385   2.036
 5967SOL    HW118587   4.125   1.370   2.083
 5967SOL    HW218588   4.195   1.411   1.941
 5968SOL     OW18589   4.251   0.256   2.190
 5968SOL    HW118590   4.278   0.197   2.115
 5968SOL    HW218591   4.251   0.351   2.159
 5969SOL     OW18592   4.134   0.813   3.113
 5969SOL    HW118593   4.220   0.825   3.163
 5969SOL    HW218594   4.092   0.726   3.140
 5970SOL     OW18595   3.788   1.564   3.193
 5970SOL    HW118596   3.742   1.646   3.159
 5970SOL    HW218597   3.886   1.583   3.202
 5971SOL     OW18598   4.091   1.100   2.363
 5971SOL    HW118599   4.084   1.183   2.307
 5971SOL    HW218600   4.095   1.020   2.303
 5972SOL     OW18601   4.290   0.537   2.727
 5972SOL    HW118602   4.302   0.603   2.653
 5972SOL    HW218603   4.336   0.571   2.810
 5973SOL     OW18604   4.078   1.510   3.191
 5973SOL    HW118605   4.057   1.466   3.104
 5973SOL    HW218606   4.175   1.536   3.194
 5974SOL     OW18607   4.126   0.751   3.460
 5974SOL    HW118608   4.194   0.806   3.413
 5974SOL    HW218609   4.166   0.663   3.487
 5975SOL     OW18610   4.228   0.050   3.602
 5975SOL    HW118611   4.186  -0.007   3.532
 5975SOL    HW218612   4.162   0.119   3.634
 5976SOL     OW18613   4.297   0.870   2.891
 5976SOL    HW118614   4.341   0.959   2.882
 5976SOL    HW218615   4.234   0.870   2.968
 5977SOL     OW18616   4.031   0.213   3.093
 5977SOL    HW118617   4.008   0.250   3.183
 5977SOL    HW218618   4.001   0.118   3.087
 5978SOL     OW18619   3.761   1.310   3.144
 5978SOL    HW118620   3.814   1.261   3.212
 5978SOL    HW218621   3.783   1.408   3.149
 5979SOL     OW18622   4.031   0.063   2.480
 5979SOL    HW118623   4.020   0.157   2.513
 5979SOL    HW218624   4.026   0.000   2.557
 5980SOL     OW18625   4.074   0.898   3.666
 5980SOL    HW118626   4.150   0.942   3.714
 5980SOL    HW218627   4.109   0.851   3.584
 5981SOL     OW18628   4.043   0.810   2.811
 5981SOL    HW118629   4.136   0.846   2.816
 5981SOL    HW218630   4.037   0.725   2.863
 5982SOL     OW18631   4.063   0.509   2.868
 5982SOL    HW118632   4.011   0.426   2.851
 5982SOL    HW218633   4.140   0.514   2.804
 5983SOL     OW18634   3.732   1.326   2.062
 5983SOL    HW118635   3.639   1.347   2.031
 5983SOL    HW218636   3.742   1.227   2.075
 5984SOL     OW18637   3.812   1.801   2.789
 5984SOL    HW118638   3.770   1.715   2.762
 5984SOL    HW218639   3.906   1.804   2.755
 5985SOL     OW18640   4.228   1.568   2.772
 5985SOL    HW118641   4.294   1.642   2.781
 5985SOL    HW218642   4.272   1.489   2.730
 5986SOL     OW18643   3.764   0.544   2.976
 5986SOL    HW118644   3.849   0.511   2.935
 5986SOL    HW218645   3.777   0.559   3.074
 5987SOL     OW18646   3.913   0.520   3.584
 5987SOL    HW118647   3.972   0.480   3.514
 5987SOL    HW218648   3.855   0.591   3.543
 5988SOL     OW18649   4.539   0.572   2.187
 5988SOL    HW118650   4.546   0.483   2.141
 5988SOL    HW218651   4.445   0.606   2.179
 5989SOL     OW18652   3.976   1.564   3.606
 5989SOL    HW118653   3.946   1.621   3.682
 5989SOL    HW218654   3.969   1.467   3.632
 5990SOL     OW18655   4.197   0.500   2.053
 5990SOL    HW118656   4.258   0.580   2.057
 5990SOL    HW218657   4.102   0.531   2.060
 5991SOL     OW18658   3.883   1.137   3.328
 5991SOL    HW118659   3.905   1.076   3.404
 5991SOL    HW218660   3.893   1.088   3.242
 5992SOL     OW18661   3.807   1.258   2.884
 5992SOL    HW118662   3.802   1.257   2.984
 5992SOL    HW218663   3.724   1.217   2.846
 5993SOL     OW18664   4.412   1.662   3.578
 5993SOL    HW118665   4.356   1.743   3.587
 5993SOL    HW218666   4.464   1.666   3.492
 5994SOL     OW18667   3.854   1.794   3.713
 5994SOL    HW118668   3.813   1.720   3.766
 5994SOL    HW218669   3.918   1.845   3.771
 5995SOL     OW18670   3.987   0.326   2.582
 5995SOL    HW118671   3.908   0.377   2.548
 5995SOL    HW218672   3.978   0.311   2.680
 5996SOL     OW18673   4.096   1.288   3.352
 5996SOL    HW118674   4.083   1.381   3.318
 5996SOL    HW218675   4.012   1.236   3.339
 5997SOL     OW18676   4.314   1.487   2.353
 5997SOL    HW118677   4.356   1.429   2.283
 5997SOL    HW218678   4.270   1.566   2.309
 5998SOL     OW18679   3.979   1.348   2.152
 5998SOL    HW118680   3.883   1.349   2.125
 5998SOL    HW218681   3.991   1.401   2.236
 5999SOL     OW18682   3.829   1.013   3.588
 5999SOL    HW118683   3.752   0.980   3.642
 5999SOL    HW218684   3.914   0.983   3.630
 6000SOL     OW18685   4.396   0.203   3.351
 6000SOL    HW118686   4.486   0.187   3.311
 6000SOL    HW218687   4.404   0.208   3.450
 6001SOL     OW18688   3.799   0.345   1.895
 6001SOL    HW118689   3.707   0.317   1.866
 6001SOL    HW218690   3.830   0.422   1.839
 6002SOL     OW18691   3.796   0.166   2.180
 6002SOL    HW118692   3.779   0.249   2.126
 6002SOL    HW218693   3.886   0.129   2.158
 6003SOL     OW18694   4.337   0.842   3.293
 6003SOL    HW118695   4.393   0.923   3.276
 6003SOL    HW218696   4.396   0.762   3.296
 6004SOL     OW18697   4.440   0.565   3.570
 6004SOL    HW118698   4.459   0.630   3.644
 6004SOL    HW218699   4.500   0.485   3.579
 6005SOL     OW18700   4.114   1.741   3.422
 6005SOL    HW118701   4.023   1.782   3.420
 6005SOL    HW218702   4.107   1.647   3.454
 6006SOL     OW18703   4.318   0.745   2.514
 6006SOL    HW118704   4.368   0.830   2.495
 6006SOL    HW218705   4.230   0.747   2.466
 6007SOL     OW18706   3.945   1.314   3.706
 6007SOL    HW118707   3.880   1.241   3.685
 6007SOL    HW218708   3.949   1.328   3.804
 6008SOL     OW18709   3.803   1.240   2.515
 6008SOL    HW118710   3.802   1.193   2.603
 6008SOL    HW218711   3.885   1.212   2.464
 6009SOL     OW18712   4.396   1.391   3.486
 6009SOL    HW118713   4.318   1.341   3.524
 6009SOL    HW218714   4.393   1.486   3.517
 6010SOL     OW18715   4.152   0.424   2.382
 6010SOL    HW118716   4.182   0.352   2.320
 6010SOL    HW218717   4.113   0.384   2.465
 6011SOL     OW18718   4.041   0.547   3.142
 6011SOL    HW118719   4.079   0.488   3.214
 6011SOL    HW218720   4.081   0.521   3.054
 6012SOL     OW18721   4.536   1.586   2.549
 6012SOL    HW118722   4.568   1.596   2.455
 6012SOL    HW218723   4.457   1.524   2.551
 6013SOL     OW18724   3.763   1.077   2.162
 6013SOL    HW118725   3.862   1.066   2.153
 6013SOL    HW218726   3.723   0.991   2.194
 6014SOL     OW18727   3.954   0.628   3.837
 6014SOL    HW118728   3.861   0.626   3.874
 6014SOL    HW218729   3.955   0.589   3.745
 6015SOL     OW18730   3.949   0.275   4.720
 6015SOL    HW118731   3.984   0.258   4.812
 6015SOL    HW218732   3.861   0.230   4.708
 6016SOL     OW18733   3.743   0.368   4.371
 6016SOL    HW118734   3.661   0.411   4.410
 6016SOL    HW218735   3.715   0.295   4.308
 6017SOL     OW18736   4.293   1.275   4.889
 6017SOL    HW118737   4.200   1.268   4.852
 6017SOL    HW218738   4.304   1.364   4.933
 6018SOL     OW18739   4.574   0.798   5.547
 6018SOL    HW118740   4.570   0.874   5.612
 6018SOL    HW218741   4.596   0.834   5.456
 6019SOL     OW18742   4.409   1.012   4.389
 6019SOL    HW118743   4.478   0.996   4.459
 6019SOL    HW218744   4.336   1.069   4.427
 6020SOL     OW18745   4.410   1.161   5.527
 6020SOL    HW118746   4.470   1.240   5.541
 6020SOL    HW218747   4.324   1.192   5.486
 6021SOL     OW18748   4.059   1.435   4.785
 6021SOL    HW118749   3.981   1.404   4.732
 6021SOL    HW218750   4.117   1.493   4.728
 6022SOL     OW18751   4.162   0.392   5.223
 6022SOL    HW118752   4.244   0.336   5.232
 6022SOL    HW218753   4.081   0.334   5.227
 6023SOL     OW18754   3.955   1.713   4.207
 6023SOL    HW118755   3.989   1.790   4.261
 6023SOL    HW218756   3.999   1.713   4.117
 6024SOL     OW18757   3.954   1.434   4.262
 6024SOL    HW118758   3.928   1.530   4.262
 6024SOL    HW218759   3.883   1.380   4.307
 6025SOL     OW18760   3.964   1.091   4.610
 6025SOL    HW118761   3.978   1.007   4.662
 6025SOL    HW218762   3.909   1.155   4.665
 6026SOL     OW18763   4.344   1.786   5.163
 6026SOL    HW118764   4.252   1.769   5.198
 6026SOL    HW218765   4.372   1.878   5.189
 6027SOL     OW18766   4.330   0.964   3.847
 6027SOL    HW118767   4.337   1.048   3.793
 6027SOL    HW218768   4.376   0.977   3.935
 6028SOL     OW18769   3.846   0.643   4.287
 6028SOL    HW118770   3.801   0.555   4.304
 6028SOL    HW218771   3.845   0.697   4.371
 6029SOL     OW18772   3.751   1.596   3.841
 6029SOL    HW118773   3.732   1.500   3.862
 6029SOL    HW218774   3.718   1.654   3.916
 6030SOL     OW18775   3.837   0.737   5.321
 6030SOL    HW118776   3.925   0.724   5.366
 6030SOL    HW218777   3.824   0.834   5.299
 6031SOL     OW18778   4.337   1.365   4.450
 6031SOL    HW118779   4.288   1.278   4.459
 6031SOL    HW218780   4.314   1.408   4.363
 6032SOL     OW18781   4.533   0.004   4.226
 6032SOL    HW118782   4.573   0.095   4.217
 6032SOL    HW218783   4.433   0.012   4.232
 6033SOL     OW18784   3.921   0.976   4.988
 6033SOL    HW118785   4.010   0.931   4.974
 6033SOL    HW218786   3.848   0.911   4.969
 6034SOL     OW18787   4.041   0.251   5.525
 6034SOL    HW118788   4.112   0.322   5.531
 6034SOL    HW218789   3.953   0.290   5.553
 6035SOL     OW18790   4.322   0.729   3.994
 6035SOL    HW118791   4.346   0.798   3.926
 6035SOL    HW218792   4.244   0.762   4.048
 6036SOL     OW18793   3.800   0.811   4.513
 6036SOL    HW118794   3.899   0.799   4.522
 6036SOL    HW218795   3.776   0.906   4.534
 6037SOL     OW18796   3.854   1.821   5.295
 6037SOL    HW118797   3.844   1.806   5.394
 6037SOL    HW218798   3.768   1.857   5.259
 6038SOL     OW18799   4.274   0.196   4.609
 6038SOL    HW118800   4.269   0.191   4.709
 6038SOL    HW218801   4.276   0.292   4.580
 6039SOL     OW18802   4.075   1.801   4.577
 6039SOL    HW118803   4.125   1.715   4.583
 6039SOL    HW218804   4.140   1.878   4.574
 6040SOL     OW18805   4.045   0.943   3.966
 6040SOL    HW118806   4.127   0.982   3.924
 6040SOL    HW218807   4.018   0.861   3.917
 6041SOL     OW18808   4.185   1.266   5.451
 6041SOL    HW118809   4.135   1.267   5.365
 6041SOL    HW218810   4.122   1.248   5.527
 6042SOL     OW18811   3.926   0.285   5.222
 6042SOL    HW118812   3.846   0.345   5.209
 6042SOL    HW218813   3.916   0.236   5.308
 6043SOL     OW18814   4.188   1.743   4.047
 6043SOL    HW118815   4.221   1.782   4.133
 6043SOL    HW218816   4.264   1.736   3.982
 6044SOL     OW18817   3.973   1.785   4.965
 6044SOL    HW118818   4.030   1.720   5.015
 6044SOL    HW218819   3.957   1.752   4.872
 6045SOL     OW18820   4.106   0.700   4.204
 6045SOL    HW118821   4.151   0.610   4.201
 6045SOL    HW218822   4.012   0.689   4.237
 6046SOL     OW18823   4.338   0.122   3.841
 6046SOL    HW118824   4.436   0.100   3.848
 6046SOL    HW218825   4.307   0.105   3.748
 6047SOL     OW18826   4.527   1.402   4.648
 6047SOL    HW118827   4.617   1.416   4.606
 6047SOL    HW218828   4.456   1.404   4.577
 6048SOL     OW18829   4.263   0.064   4.236
 6048SOL    HW118830   4.182   0.065   4.294
 6048SOL    HW218831   4.266   0.147   4.181
 6049SOL     OW18832   4.021   0.035   3.895
 6049SOL    HW118833   4.070   0.119   3.874
 6049SOL    HW218834   4.083  -0.030   3.940
 6050SOL     OW18835   4.800   0.683   5.188
 6050SOL    HW118836   4.720   0.622   5.191
 6050SOL    HW218837   4.881   0.630   5.164
 6051SOL     OW18838   4.183   1.152   4.465
 6051SOL    HW118839   4.112   1.125   4.530
 6051SOL    HW218840   4.157   1.124   4.372
 6052SOL     OW18841   3.802   0.556   5.110
 6052SOL    HW118842   3.894   0.555   5.069
 6052SOL    HW218843   3.796   0.630   5.177
 6053SOL     OW18844   4.285   0.222   4.871
 6053SOL    HW118845   4.323   0.138   4.908
 6053SOL    HW218846   4.197   0.241   4.915
 6054SOL     OW18847   4.212   1.385   3.898
 6054SOL    HW118848   4.125   1.370   3.945
 6054SOL    HW218849   4.195   1.411   3.803
 6055SOL     OW18850   4.251   0.256   4.052
 6055SOL    HW118851   4.278   0.197   3.977
 6055SOL    HW218852   4.251   0.351   4.021
 6056SOL     OW18853   4.134   0.813   4.975
 6056SOL    HW118854   4.220   0.825   5.025
 6056SOL    HW218855   4.092   0.726   5.002
 6057SOL     OW18856   3.788   1.564   5.055
 6057SOL    HW118857   3.742   1.646   5.021
 6057SOL    HW218858   3.886   1.583   5.064
 6058SOL     OW18859   4.091   1.100   4.225
 6058SOL    HW118860   4.084   1.183   4.169
 6058SOL    HW218861   4.095   1.020   4.165
 6059SOL     OW18862   4.290   0.537   4.589
 6059SOL    HW118863   4.302   0.603   4.515
 6059SOL    HW218864   4.336   0.571   4.672
 6060SOL     OW18865   4.078   1.510   5.053
 6060SOL    HW118866   4.057   1.466   4.966
 6060SOL    HW218867   4.175   1.536   5.056
 6061SOL     OW18868   4.126   0.751   5.322
 6061SOL    HW118869   4.194   0.806   5.275
 6061SOL    HW218870   4.166   0.663   5.349
 6062SOL     OW18871   4.228   0.050   5.464
 6062SOL    HW118872   4.186  -0.007   5.394
 6062SOL    HW218873   4.162   0.119   5.496
 6063SOL     OW18874   4.297   0.870   4.753
 6063SOL    HW118875   4.341   0.959   4.744
 6063SOL    HW218876   4.234   0.870   4.830
 6064SOL     OW18877   4.031   0.213   4.955
 6064SOL    HW118878   4.008   0.250   5.045
 6064SOL    HW218879   4.001   0.118   4.949
 6065SOL     OW18880   3.761   1.310   5.006
 6065SOL    HW118881   3.814   1.261   5.074
 6065SOL    HW218882   3.783   1.408   5.011
 6066SOL     OW18883   4.031   0.063   4.342
 6066SOL    HW118884   4.020   0.157   4.375
 6066SOL    HW218885   4.026   0.000   4.419
 6067SOL     OW18886   4.074   0.898   5.528
 6067SOL    HW118887   4.150   0.942   5.576
 6067SOL    HW218888   4.109   0.851   5.446
 6068SOL     OW18889   4.043   0.810   4.673
 6068SOL    HW118890   4.136   0.846   4.678
 6068SOL    HW218891   4.037   0.725   4.725
 6069SOL     OW18892   4.063   0.509   4.730
 6069SOL    HW118893   4.011   0.426   4.713
 6069SOL    HW218894   4.140   0.514   4.666
 6070SOL     OW18895   3.732   1.326   3.924
 6070SOL    HW118896   3.639   1.347   3.893
 6070SOL    HW218897   3.742   1.227   3.937
 6071SOL     OW18898   3.812   1.801   4.651
 6071SOL    HW118899   3.770   1.715   4.624
 6071SOL    HW218900   3.906   1.804   4.617
 6072SOL     OW18901   4.228   1.568   4.634
 6072SOL    HW118902   4.294   1.642   4.643
 6072SOL    HW218903   4.272   1.489   4.592
 6073SOL     OW18904   3.764   0.544   4.838
 6073SOL    HW118905   3.849   0.511   4.797
 6073SOL    HW218906   3.777   0.559   4.936
 6074SOL     OW18907   3.913   0.520   5.446
 6074SOL    HW118908   3.972   0.480   5.376
 6074SOL    HW218909   3.855   0.591   5.405
 6075SOL     OW18910   4.539   0.572   4.049
 6075SOL    HW118911   4.546   0.483   4.003
 6075SOL    HW218912   4.445   0.606   4.041
 6076SOL     OW18913   3.976   1.564   5.468
 6076SOL    HW118914   3.946   1.621   5.544
 6076SOL    HW218915   3.969   1.467   5.494
 6077SOL     OW18916   4.197   0.500   3.915
 6077SOL    HW118917   4.258   0.580   3.919
 6077SOL    HW218918   4.102   0.531   3.922
 6078SOL     OW18919   3.883   1.137   5.190
 6078SOL    HW118920   3.905   1.076   5.266
 6078SOL    HW218921   3.893   1.088   5.104
 6079SOL     OW18922   3.807   1.258   4.746
 6079SOL    HW118923   3.802   1.257   4.846
 6079SOL    HW218924   3.724   1.217   4.708
 6080SOL     OW18925   4.412   1.662   5.440
 6080SOL    HW118926   4.356   1.743   5.449
 6080SOL    HW218927   4.464   1.666   5.354
 6081SOL     OW18928   3.854   1.794   5.575
 6081SOL    HW118929   3.813   1.720   5.628
 6081SOL    HW218930   3.918   1.845   5.633
 6082SOL     OW18931   3.987   0.326   4.444
 6082SOL    HW118932   3.908   0.377   4.410
 6082SOL    HW218933   3.978   0.311   4.542
 6083SOL     OW18934   4.096   1.288   5.214
 6083SOL    HW118935   4.083   1.381   5.180
 6083SOL    HW218936   4.012   1.236   5.201
 6084SOL     OW18937   4.314   1.487   4.215
 6084SOL    HW118938   4.356   1.429   4.145
 6084SOL    HW218939   4.270   1.566   4.171
 6085SOL     OW18940   3.979   1.348   4.014
 6085SOL    HW118941   3.883   1.349   3.987
 6085SOL    HW218942   3.991   1.401   4.098
 6086SOL     OW18943   3.829   1.013   5.450
 6086SOL    HW118944   3.752   0.980   5.504
 6086SOL    HW218945   3.914   0.983   5.492
 6087SOL     OW18946   4.396   0.203   5.213
 6087SOL    HW118947   4.486   0.187   5.173
 6087SOL    HW218948   4.404   0.208   5.312
 6088SOL     OW18949   3.799   0.345   3.757
 6088SOL    HW118950   3.707   0.317   3.728
 6088SOL    HW218951   3.830   0.422   3.701
 6089SOL     OW18952   3.796   0.166   4.042
 6089SOL    HW118953   3.779   0.249   3.988
 6089SOL    HW218954   3.886   0.129   4.020
 6090SOL     OW18955   4.337   0.842   5.155
 6090SOL    HW118956   4.393   0.923   5.138
 6090SOL    HW218957   4.396   0.762   5.158
 6091SOL     OW18958   4.440   0.565   5.432
 6091SOL    HW118959   4.459   0.630   5.506
 6091SOL    HW218960   4.500   0.485   5.441
 6092SOL     OW18961   4.114   1.741   5.284
 6092SOL    HW118962   4.023   1.782   5.282
 6092SOL    HW218963   4.107   1.647   5.316
 6093SOL     OW18964   4.318   0.745   4.376
 6093SOL    HW118965   4.368   0.830   4.357
 6093SOL    HW218966   4.230   0.747   4.328
 6094SOL     OW18967   3.945   1.314   5.568
 6094SOL    HW118968   3.880   1.241   5.547
 6094SOL    HW218969   3.949   1.328   5.666
 6095SOL     OW18970   3.803   1.240   4.377
 6095SOL    HW118971   3.802   1.193   4.465
 6095SOL    HW218972   3.885   1.212   4.326
 6096SOL     OW18973   4.396   1.391   5.348
 6096SOL    HW118974   4.318   1.341   5.386
 6096SOL    HW218975   4.393   1.486   5.379
 6097SOL     OW18976   4.152   0.424   4.244
 6097SOL    HW118977   4.182   0.352   4.182
 6097SOL    HW218978   4.113   0.384   4.327
 6098SOL     OW18979   4.041   0.547   5.004
 6098SOL    HW118980   4.079   0.488   5.076
 6098SOL    HW218981   4.081   0.521   4.916
 6099SOL     OW18982   4.536   1.586   4.411
 6099SOL    HW118983   4.568   1.596   4.317
 6099SOL    HW218984   4.457   1.524   4.413
 6100SOL     OW18985   3.763   1.077   4.024
 6100SOL    HW118986   3.862   1.066   4.015
 6100SOL    HW218987   3.723   0.991   4.056
 6101SOL     OW18988   3.954   0.628   5.699
 6101SOL    HW118989   3.861   0.626   5.736
 6101SOL    HW218990   3.955   0.589   5.607
 6102SOL     OW18991   3.949   0.275   6.582
 6102SOL    HW118992   3.984   0.258   6.674
 6102SOL    HW218993   3.861   0.230   6.570
 6103SOL     OW18994   3.743   0.368   6.233
 6103SOL    HW118995   3.661   0.411   6.272
 6103SOL    HW218996   3.715   0.295   6.170
 6104SOL     OW18997   4.293   1.275   6.751
 6104SOL    HW118998   4.200   1.268   6.714
 6104SOL    HW218999   4.304   1.364   6.795
 6105SOL     OW19000   4.574   0.798   7.409
 6105SOL    HW119001   4.570   0.874   7.474
 6105SOL    HW219002   4.596   0.834   7.318
 6106SOL     OW19003   4.409   1.012   6.251
 6106SOL    HW119004   4.478   0.996   6.321
 6106SOL    HW219005   4.336   1.069   6.289
 6107SOL     OW19006   4.410   1.161   7.389
 6107SOL    HW119007   4.470   1.240   7.403
 6107SOL    HW219008   4.324   1.192   7.348
 6108SOL     OW19009   4.059   1.435   6.647
 6108SOL    HW119010   3.981   1.404   6.594
 6108SOL    HW219011   4.117   1.493   6.590
 6109SOL     OW19012   4.162   0.392   7.085
 6109SOL    HW119013   4.244   0.336   7.094
 6109SOL    HW219014   4.081   0.334   7.089
 6110SOL     OW19015   3.955   1.713   6.069
 6110SOL    HW119016   3.989   1.790   6.123
 6110SOL    HW219017   3.999   1.713   5.979
 6111SOL     OW19018   3.954   1.434   6.124
 6111SOL    HW119019   3.928   1.530   6.124
 6111SOL    HW219020   3.883   1.380   6.169
 6112SOL     OW19021   3.964   1.091   6.472
 6112SOL    HW119022   3.978   1.007   6.524
 6112SOL    HW219023   3.909   1.155   6.527
 6113SOL     OW19024   4.344   1.786   7.025
 6113SOL    HW119025   4.252   1.769   7.060
 6113SOL    HW219026   4.372   1.878   7.051
 6114SOL     OW19027   4.330   0.964   5.709
 6114SOL    HW119028   4.337   1.048   5.655
 6114SOL    HW219029   4.376   0.977   5.797
 6115SOL     OW19030   3.846   0.643   6.149
 6115SOL    HW119031   3.801   0.555   6.166
 6115SOL    HW219032   3.845   0.697   6.233
 6116SOL     OW19033   3.751   1.596   5.703
 6116SOL    HW119034   3.732   1.500   5.724
 6116SOL    HW219035   3.718   1.654   5.778
 6117SOL     OW19036   3.837   0.737   7.183
 6117SOL    HW119037   3.925   0.724   7.228
 6117SOL    HW219038   3.824   0.834   7.161
 6118SOL     OW19039   4.337   1.365   6.312
 6118SOL    HW119040   4.288   1.278   6.321
 6118SOL    HW219041   4.314   1.408   6.225
 6119SOL     OW19042   4.533   0.004   6.088
 6119SOL    HW119043   4.573   0.095   6.079
 6119SOL    HW219044   4.433   0.012   6.094
 6120SOL     OW19045   3.921   0.976   6.850
 6120SOL    HW119046   4.010   0.931   6.836
 6120SOL    HW219047   3.848   0.911   6.831
 6121SOL     OW19048   4.041   0.251   7.387
 6121SOL    HW119049   4.112   0.322   7.393
 6121SOL    HW219050   3.953   0.290   7.415
 6122SOL     OW19051   4.322   0.729   5.856
 6122SOL    HW119052   4.346   0.798   5.788
 6122SOL    HW219053   4.244   0.762   5.910
 6123SOL     OW19054   3.800   0.811   6.375
 6123SOL    HW119055   3.899   0.799   6.384
 6123SOL    HW219056   3.776   0.906   6.396
 6124SOL     OW19057   3.854   1.821   7.157
 6124SOL    HW119058   3.844   1.806   7.256
 6124SOL    HW219059   3.768   1.857   7.121
 6125SOL     OW19060   4.274   0.196   6.471
 6125SOL    HW119061   4.269   0.191   6.571
 6125SOL    HW219062   4.276   0.292   6.442
 6126SOL     OW19063   4.075   1.801   6.439
 6126SOL    HW119064   4.125   1.715   6.445
 6126SOL    HW219065   4.140   1.878   6.436
 6127SOL     OW19066   4.045   0.943   5.828
 6127SOL    HW119067   4.127   0.982   5.786
 6127SOL    HW219068   4.018   0.861   5.779
 6128SOL     OW19069   4.185   1.266   7.313
 6128SOL    HW119070   4.135   1.267   7.227
 6128SOL    HW219071   4.122   1.248   7.389
 6129SOL     OW19072   3.926   0.285   7.084
 6129SOL    HW119073   3.846   0.345   7.071
 6129SOL    HW219074   3.916   0.236   7.170
 6130SOL     OW19075   4.188   1.743   5.909
 6130SOL    HW119076   4.221   1.782   5.995
 6130SOL    HW219077   4.264   1.736   5.844
 6131SOL     OW19078   3.973   1.785   6.827
 6131SOL    HW119079   4.030   1.720   6.877
 6131SOL    HW219080   3.957   1.752   6.734
 6132SOL     OW19081   4.106   0.700   6.066
 6132SOL    HW119082   4.151   0.610   6.063
 6132SOL    HW219083   4.012   0.689   6.099
 6133SOL     OW19084   4.338   0.122   5.703
 6133SOL    HW119085   4.436   0.100   5.710
 6133SOL    HW219086   4.307   0.105   5.610
 6134SOL     OW19087   4.527   1.402   6.510
 6134SOL    HW119088   4.617   1.416   6.468
 6134SOL    HW219089   4.456   1.404   6.439
 6135SOL     OW19090   4.263   0.064   6.098
 6135SOL    HW119091   4.182   0.065   6.156
 6135SOL    HW219092   4.266   0.147   6.043
 6136SOL     OW19093   4.021   0.035   5.757
 6136SOL    HW119094   4.070   0.119   5.736
 6136SOL    HW219095   4.083  -0.030   5.802
 6137SOL     OW19096   4.800   0.683   7.050
 6137SOL    HW119097   4.720   0.622   7.053
 6137SOL    HW219098   4.881   0.630   7.026
 6138SOL     OW19099   4.183   1.152   6.327
 6138SOL    HW119100   4.112   1.125   6.392
 6138SOL    HW219101   4.157   1.124   6.234
 6139SOL     OW19102   3.802   0.556   6.972
 6139SOL    HW119103   3.894   0.555   6.931
 6139SOL    HW219104   3.796   0.630   7.039
 6140SOL     OW19105   4.285   0.222   6.733
 6140SOL    HW119106   4.323   0.138   6.770
 6140SOL    HW219107   4.197   0.241   6.777
 6141SOL     OW19108   4.212   1.385   5.760
 6141SOL    HW119109   4.125   1.370   5.807
 6141SOL    HW219110   4.195   1.411   5.665
 6142SOL     OW19111   4.251   0.256   5.914
 6142SOL    HW119112   4.278   0.197   5.839
 6142SOL    HW219113   4.251   0.351   5.883
 6143SOL     OW19114   4.134   0.813   6.837
 6143SOL    HW119115   4.220   0.825   6.887
 6143SOL    HW219116   4.092   0.726   6.864
 6144SOL     OW19117   3.788   1.564   6.917
 6144SOL    HW119118   3.742   1.646   6.883
 6144SOL    HW219119   3.886   1.583   6.926
 6145SOL     OW19120   4.091   1.100   6.087
 6145SOL    HW119121   4.084   1.183   6.031
 6145SOL    HW219122   4.095   1.020   6.027
 6146SOL     OW19123   4.290   0.537   6.451
 6146SOL    HW119124   4.302   0.603   6.377
 6146SOL    HW219125   4.336   0.571   6.534
 6147SOL     OW19126   4.078   1.510   6.915
 6147SOL    HW119127   4.057   1.466   6.828
 6147SOL    HW219128   4.175   1.536   6.918
 6148SOL     OW19129   4.126   0.751   7.184
 6148SOL    HW119130   4.194   0.806   7.137
 6148SOL    HW219131   4.166   0.663   7.211
 6149SOL     OW19132   4.228   0.050   7.326
 6149SOL    HW119133   4.186  -0.007   7.256
 6149SOL    HW219134   4.162   0.119   7.358
 6150SOL     OW19135   4.297   0.870   6.615
 6150SOL    HW119136   4.341   0.959   6.606
 6150SOL    HW219137   4.234   0.870   6.692
 6151SOL     OW19138   4.031   0.213   6.817
 6151SOL    HW119139   4.008   0.250   6.907
 6151SOL    HW219140   4.001   0.118   6.811
 6152SOL     OW19141   3.761   1.310   6.868
 6152SOL    HW119142   3.814   1.261   6.936
 6152SOL    HW219143   3.783   1.408   6.873
 6153SOL     OW19144   4.031   0.063   6.204
 6153SOL    HW119145   4.020   0.157   6.237
 6153SOL    HW219146   4.026   0.000   6.281
 6154SOL     OW19147   4.074   0.898   7.390
 6154SOL    HW119148   4.150   0.942   7.438
 6154SOL    HW219149   4.109   0.851   7.308
 6155SOL     OW19150   4.043   0.810   6.535
 6155SOL    HW119151   4.136   0.846   6.540
 6155SOL    HW219152   4.037   0.725   6.587
 6156SOL     OW19153   4.063   0.509   6.592
 6156SOL    HW119154   4.011   0.426   6.575
 6156SOL    HW219155   4.140   0.514   6.528
 6157SOL     OW19156   3.732   1.326   5.786
 6157SOL    HW119157   3.639   1.347   5.755
 6157SOL    HW219158   3.742   1.227   5.799
 6158SOL     OW19159   3.812   1.801   6.513
 6158SOL    HW119160   3.770   1.715   6.486
 6158SOL    HW219161   3.906   1.804   6.479
 6159SOL     OW19162   4.228   1.568   6.496
 6159SOL    HW119163   4.294   1.642   6.505
 6159SOL    HW219164   4.272   1.489   6.454
 6160SOL     OW19165   3.764   0.544   6.700
 6160SOL    HW119166   3.849   0.511   6.659
 6160SOL    HW219167   3.777   0.559   6.798
 6161SOL     OW19168   3.913   0.520   7.308
 6161SOL    HW119169   3.972   0.480   7.238
 6161SOL    HW219170   3.855   0.591   7.267
 6162SOL     OW19171   4.539   0.572   5.911
 6162SOL    HW119172   4.546   0.483   5.865
 6162SOL    HW219173   4.445   0.606   5.903
 6163SOL     OW19174   3.976   1.564   7.330
 6163SOL    HW119175   3.946   1.621   7.406
 6163SOL    HW219176   3.969   1.467   7.356
 6164SOL     OW19177   4.197   0.500   5.777
 6164SOL    HW119178   4.258   0.580   5.781
 6164SOL    HW219179   4.102   0.531   5.784
 6165SOL     OW19180   3.883   1.137   7.052
 6165SOL    HW119181   3.905   1.076   7.128
 6165SOL    HW219182   3.893   1.088   6.966
 6166SOL     OW19183   3.807   1.258   6.608
 6166SOL    HW119184   3.802   1.257   6.708
 6166SOL    HW219185   3.724   1.217   6.570
 6167SOL     OW19186   4.412   1.662   7.302
 6167SOL    HW119187   4.356   1.743   7.311
 6167SOL    HW219188   4.464   1.666   7.216
 6168SOL     OW19189   3.854   1.794   7.437
 6168SOL    HW119190   3.813   1.720   7.490
 6168SOL    HW219191   3.918   1.845   7.495
 6169SOL     OW19192   3.987   0.326   6.306
 6169SOL    HW119193   3.908   0.377   6.272
 6169SOL    HW219194   3.978   0.311   6.404
 6170SOL     OW19195   4.096   1.288   7.076
 6170SOL    HW119196   4.083   1.381   7.042
 6170SOL    HW219197   4.012   1.236   7.063
 6171SOL     OW19198   4.314   1.487   6.077
 6171SOL    HW119199   4.356   1.429   6.007
 6171SOL    HW219200   4.270   1.566   6.033
 6172SOL     OW19201   3.979   1.348   5.876
 6172SOL    HW119202   3.883   1.349   5.849
 6172SOL    HW219203   3.991   1.401   5.960
 6173SOL     OW19204   3.829   1.013   7.312
 6173SOL    HW119205   3.752   0.980   7.366
 6173SOL    HW219206   3.914   0.983   7.354
 6174SOL     OW19207   4.396   0.203   7.075
 6174SOL    HW119208   4.486   0.187   7.035
 6174SOL    HW219209   4.404   0.208   7.174
 6175SOL     OW19210   3.799   0.345   5.619
 6175SOL    HW119211   3.707   0.317   5.590
 6175SOL    HW219212   3.830   0.422   5.563
 6176SOL     OW19213   3.796   0.166   5.904
 6176SOL    HW119214   3.779   0.249   5.850
 6176SOL    HW219215   3.886   0.129   5.882
 6177SOL     OW19216   4.337   0.842   7.017
 6177SOL    HW119217   4.393   0.923   7.000
 6177SOL    HW219218   4.396   0.762   7.020
 6178SOL     OW19219   4.440   0.565   7.294
 6178SOL    HW119220   4.459   0.630   7.368
 6178SOL    HW219221   4.500   0.485   7.303
 6179SOL     OW19222   4.114   1.741   7.146
 6179SOL    HW119223   4.023   1.782   7.144
 6179SOL    HW219224   4.107   1.647   7.178
 6180SOL     OW19225   4.318   0.745   6.238
 6180SOL    HW119226   4.368   0.830   6.219
 6180SOL    HW219227   4.230   0.747   6.190
 6181SOL     OW19228   3.945   1.314   7.430
 6181SOL    HW119229   3.880   1.241   7.409
 6181SOL    HW219230   3.949   1.328   7.528
 6182SOL     OW19231   3.803   1.240   6.239
 6182SOL    HW119232   3.802   1.193   6.327
 6182SOL    HW219233   3.885   1.212   6.188
 6183SOL     OW19234   4.396   1.391   7.210
 6183SOL    HW119235   4.318   1.341   7.248
 6183SOL    HW219236   4.393   1.486   7.241
 6184SOL     OW19237   4.152   0.424   6.106
 6184SOL    HW119238   4.182   0.352   6.044
 6184SOL    HW219239   4.113   0.384   6.189
 6185SOL     OW19240   4.041   0.547   6.866
 6185SOL    HW119241   4.079   0.488   6.938
 6185SOL    HW219242   4.081   0.521   6.778
 6186SOL     OW19243   4.536   1.586   6.273
 6186SOL    HW119244   4.568   1.596   6.179
 6186SOL    HW219245   4.457   1.524   6.275
 6187SOL     OW19246   3.763   1.077   5.886
 6187SOL    HW119247   3.862   1.066   5.877
 6187SOL    HW219248   3.723   0.991   5.918
 6188SOL     OW19249   3.954   0.628   7.561
 6188SOL    HW119250   3.861   0.626   7.598
 6188SOL    HW219251   3.955   0.589   7.469
 6189SOL     OW19252   3.949   0.275   8.444
 6189SOL    HW119253   3.984   0.258   8.536
 6189SOL    HW219254   3.861   0.230   8.432
 6190SOL     OW19255   3.743   0.368   8.095
 6190SOL    HW119256   3.661   0.411   8.134
 6190SOL    HW219257   3.715   0.295   8.032
 6191SOL     OW19258   4.293   1.275   8.613
 6191SOL    HW119259   4.200   1.268   8.576
 6191SOL    HW219260   4.304   1.364   8.657
 6192SOL     OW19261   4.574   0.798   9.271
 6192SOL    HW119262   4.570   0.874   9.336
 6192SOL    HW219263   4.596   0.834   9.180
 6193SOL     OW19264   4.409   1.012   8.113
 6193SOL    HW119265   4.478   0.996   8.183
 6193SOL    HW219266   4.336   1.069   8.151
 6194SOL     OW19267   4.410   1.161   9.251
 6194SOL    HW119268   4.470   1.240   9.265
 6194SOL    HW219269   4.324   1.192   9.210
 6195SOL     OW19270   4.059   1.435   8.509
 6195SOL    HW119271   3.981   1.404   8.456
 6195SOL    HW219272   4.117   1.493   8.452
 6196SOL     OW19273   4.162   0.392   8.947
 6196SOL    HW119274   4.244   0.336   8.956
 6196SOL    HW219275   4.081   0.334   8.951
 6197SOL     OW19276   3.955   1.713   7.931
 6197SOL    HW119277   3.989   1.790   7.985
 6197SOL    HW219278   3.999   1.713   7.841
 6198SOL     OW19279   3.954   1.434   7.986
 6198SOL    HW119280   3.928   1.530   7.986
 6198SOL    HW219281   3.883   1.380   8.031
 6199SOL     OW19282   3.964   1.091   8.334
 6199SOL    HW119283   3.978   1.007   8.386
 6199SOL    HW219284   3.909   1.155   8.389
 6200SOL     OW19285   4.344   1.786   8.887
 6200SOL    HW119286   4.252   1.769   8.922
 6200SOL    HW219287   4.372   1.878   8.913
 6201SOL     OW19288   4.330   0.964   7.571
 6201SOL    HW119289   4.337   1.048   7.517
 6201SOL    HW219290   4.376   0.977   7.659
 6202SOL     OW19291   3.846   0.643   8.011
 6202SOL    HW119292   3.801   0.555   8.028
 6202SOL    HW219293   3.845   0.697   8.095
 6203SOL     OW19294   3.751   1.596   7.565
 6203SOL    HW119295   3.732   1.500   7.586
 6203SOL    HW219296   3.718   1.654   7.640
 6204SOL     OW19297   3.837   0.737   9.045
 6204SOL    HW119298   3.925   0.724   9.090
 6204SOL    HW219299   3.824   0.834   9.023
 6205SOL     OW19300   4.337   1.365   8.174
 6205SOL    HW119301   4.288   1.278   8.183
 6205SOL    HW219302   4.314   1.408   8.087
 6206SOL     OW19303   4.533   0.004   7.950
 6206SOL    HW119304   4.573   0.095   7.941
 6206SOL    HW219305   4.433   0.012   7.956
 6207SOL     OW19306   3.921   0.976   8.712
 6207SOL    HW119307   4.010   0.931   8.698
 6207SOL    HW219308   3.848   0.911   8.693
 6208SOL     OW19309   4.041   0.251   9.249
 6208SOL    HW119310   4.112   0.322   9.255
 6208SOL    HW219311   3.953   0.290   9.277
 6209SOL     OW19312   4.322   0.729   7.718
 6209SOL    HW119313   4.346   0.798   7.650
 6209SOL    HW219314   4.244   0.762   7.772
 6210SOL     OW19315   3.800   0.811   8.237
 6210SOL    HW119316   3.899   0.799   8.246
 6210SOL    HW219317   3.776   0.906   8.258
 6211SOL     OW19318   3.854   1.821   9.019
 6211SOL    HW119319   3.844   1.806   9.118
 6211SOL    HW219320   3.768   1.857   8.983
 6212SOL     OW19321   4.274   0.196   8.333
 6212SOL    HW119322   4.269   0.191   8.433
 6212SOL    HW219323   4.276   0.292   8.304
 6213SOL     OW19324   4.075   1.801   8.301
 6213SOL    HW119325   4.125   1.715   8.307
 6213SOL    HW219326   4.140   1.878   8.298
 6214SOL     OW19327   4.045   0.943   7.690
 6214SOL    HW119328   4.127   0.982   7.648
 6214SOL    HW219329   4.018   0.861   7.641
 6215SOL     OW19330   4.185   1.266   9.175
 6215SOL    HW119331   4.135   1.267   9.089
 6215SOL    HW219332   4.122   1.248   9.251
 6216SOL     OW19333   3.926   0.285   8.946
 6216SOL    HW119334   3.846   0.345   8.933
 6216SOL    HW219335   3.916   0.236   9.032
 6217SOL     OW19336   4.188   1.743   7.771
 6217SOL    HW119337   4.221   1.782   7.857
 6217SOL    HW219338   4.264   1.736   7.706
 6218SOL     OW19339   3.973   1.785   8.689
 6218SOL    HW119340   4.030   1.720   8.739
 6218SOL    HW219341   3.957   1.752   8.596
 6219SOL     OW19342   4.106   0.700   7.928
 6219SOL    HW119343   4.151   0.610   7.925
 6219SOL    HW219344   4.012   0.689   7.961
 6220SOL     OW19345   4.338   0.122   7.565
 6220SOL    HW119346   4.436   0.100   7.572
 6220SOL    HW219347   4.307   0.105   7.472
 6221SOL     OW19348   4.527   1.402   8.372
 6221SOL    HW119349   4.617   1.416   8.330
 6221SOL    HW219350   4.456   1.404   8.301
 6222SOL     OW19351   4.263   0.064   7.960
 6222SOL    HW119352   4.182   0.065   8.018
 6222SOL    HW219353   4.266   0.147   7.905
 6223SOL     OW19354   4.021   0.035   7.619
 6223SOL    HW119355   4.070   0.119   7.598
 6223SOL    HW219356   4.083  -0.030   7.664
 6224SOL     OW19357   4.800   0.683   8.912
 6224SOL    HW119358   4.720   0.622   8.915
 6224SOL    HW219359   4.881   0.630   8.888
 6225SOL     OW19360   4.183   1.152   8.189
 6225SOL    HW119361   4.112   1.125   8.254
 6225SOL    HW219362   4.157   1.124   8.096
 6226SOL     OW19363   3.802   0.556   8.834
 6226SOL    HW119364   3.894   0.555   8.793
 6226SOL    HW219365   3.796   0.630   8.901
 6227SOL     OW19366   4.285   0.222   8.595
 6227SOL    HW119367   4.323   0.138   8.632
 6227SOL    HW219368   4.197   0.241   8.639
 6228SOL     OW19369   4.212   1.385   7.622
 6228SOL    HW119370   4.125   1.370   7.669
 6228SOL    HW219371   4.195   1.411   7.527
 6229SOL     OW19372   4.251   0.256   7.776
 6229SOL    HW119373   4.278   0.197   7.701
 6229SOL    HW219374   4.251   0.351   7.745
 6230SOL     OW19375   4.134   0.813   8.699
 6230SOL    HW119376   4.220   0.825   8.749
 6230SOL    HW219377   4.092   0.726   8.726
 6231SOL     OW19378   3.788   1.564   8.779
 6231SOL    HW119379   3.742   1.646   8.745
 6231SOL    HW219380   3.886   1.583   8.788
 6232SOL     OW19381   4.091   1.100   7.949
 6232SOL    HW119382   4.084   1.183   7.893
 6232SOL    HW219383   4.095   1.020   7.889
 6233SOL     OW19384   4.290   0.537   8.313
 6233SOL    HW119385   4.302   0.603   8.239
 6233SOL    HW219386   4.336   0.571   8.396
 6234SOL     OW19387   4.078   1.510   8.777
 6234SOL    HW119388   4.057   1.466   8.690
 6234SOL    HW219389   4.175   1.536   8.780
 6235SOL     OW19390   4.126   0.751   9.046
 6235SOL    HW119391   4.194   0.806   8.999
 6235SOL    HW219392   4.166   0.663   9.073
 6236SOL     OW19393   4.228   0.050   9.188
 6236SOL    HW119394   4.186  -0.007   9.118
 6236SOL    HW219395   4.162   0.119   9.220
 6237SOL     OW19396   4.297   0.870   8.477
 6237SOL    HW119397   4.341   0.959   8.468
 6237SOL    HW219398   4.234   0.870   8.554
 6238SOL     OW19399   4.031   0.213   8.679
 6238SOL    HW119400   4.008   0.250   8.769
 6238SOL    HW219401   4.001   0.118   8.673
 6239SOL     OW19402   3.761   1.310   8.730
 6239SOL    HW119403   3.814   1.261   8.798
 6239SOL    HW219404   3.783   1.408   8.735
 6240SOL     OW19405   4.031   0.063   8.066
 6240SOL    HW119406   4.020   0.157   8.099
 6240SOL    HW219407   4.026   0.000   8.143
 6241SOL     OW19408   4.074   0.898   9.252
 6241SOL    HW119409   4.150   0.942   9.300
 6241SOL    HW219410   4.109   0.851   9.170
 6242SOL     OW19411   4.043   0.810   8.397
 6242SOL    HW119412   4.136   0.846   8.402
 6242SOL    HW219413   4.037   0.725   8.449
 6243SOL     OW19414   4.063   0.509   8.454
 6243SOL    HW119415   4.011   0.426   8.437
 6243SOL    HW219416   4.140   0.514   8.390
 6244SOL     OW19417   3.732   1.326   7.648
 6244SOL    HW119418   3.639   1.347   7.617
 6244SOL    HW219419   3.742   1.227   7.661
 6245SOL     OW19420   3.812   1.801   8.375
 6245SOL    HW119421   3.770   1.715   8.348
 6245SOL    HW219422   3.906   1.804   8.341
 6246SOL     OW19423   4.228   1.568   8.358
 6246SOL    HW119424   4.294   1.642   8.367
 6246SOL    HW219425   4.272   1.489   8.316
 6247SOL     OW19426   3.764   0.544   8.562
 6247SOL    HW119427   3.849   0.511   8.521
 6247SOL    HW219428   3.777   0.559   8.660
 6248SOL     OW19429   3.913   0.520   9.170
 6248SOL    HW119430   3.972   0.480   9.100
 6248SOL    HW219431   3.855   0.591   9.129
 6249SOL     OW19432   4.539   0.572   7.773
 6249SOL    HW119433   4.546   0.483   7.727
 6249SOL    HW219434   4.445   0.606   7.765
 6250SOL     OW19435   3.976   1.564   9.192
 6250SOL    HW119436   3.946   1.621   9.268
 6250SOL    HW219437   3.969   1.467   9.218
 6251SOL     OW19438   4.197   0.500   7.639
 6251SOL    HW119439   4.258   0.580   7.643
 6251SOL    HW219440   4.102   0.531   7.646
 6252SOL     OW19441   3.883   1.137   8.914
 6252SOL    HW119442   3.905   1.076   8.990
 6252SOL    HW219443   3.893   1.088   8.828
 6253SOL     OW19444   3.807   1.258   8.470
 6253SOL    HW119445   3.802   1.257   8.570
 6253SOL    HW219446   3.724   1.217   8.432
 6254SOL     OW19447   4.412   1.662   9.164
 6254SOL    HW119448   4.356   1.743   9.173
 6254SOL    HW219449   4.464   1.666   9.078
 6255SOL     OW19450   3.854   1.794   9.299
 6255SOL    HW119451   3.813   1.720   9.352
 6255SOL    HW219452   3.918   1.845   9.357
 6256SOL     OW19453   3.987   0.326   8.168
 6256SOL    HW119454   3.908   0.377   8.134
 6256SOL    HW219455   3.978   0.311   8.266
 6257SOL     OW19456   4.096   1.288   8.938
 6257SOL    HW119457   4.083   1.381   8.904
 6257SOL    HW219458   4.012   1.236   8.925
 6258SOL     OW19459   4.314   1.487   7.939
 6258SOL    HW119460   4.356   1.429   7.869
 6258SOL    HW219461   4.270   1.566   7.895
 6259SOL     OW19462   3.979   1.348   7.738
 6259SOL    HW119463   3.883   1.349   7.711
 6259SOL    HW219464   3.991   1.401   7.822
 6260SOL     OW19465   3.829   1.013   9.174
 6260SOL    HW119466   3.752   0.980   9.228
 6260SOL    HW219467   3.914   0.983   9.216
 6261SOL     OW19468   4.396   0.203   8.937
 6261SOL    HW119469   4.486   0.187   8.897
 6261SOL    HW219470   4.404   0.208   9.036
 6262SOL     OW19471   3.799   0.345   7.481
 6262SOL    HW119472   3.707   0.317   7.452
 6262SOL    HW219473   3.830   0.422   7.425
 6263SOL     OW19474   3.796   0.166   7.766
 6263SOL    HW119475   3.779   0.249   7.712
 6263SOL    HW219476   3.886   0.129   7.744
 6264SOL     OW19477   4.337   0.842   8.879
 6264SOL    HW119478   4.393   0.923   8.862
 6264SOL    HW219479   4.396   0.762   8.882
 6265SOL     OW19480   4.440   0.565   9.156
 6265SOL    HW119481   4.459   0.630   9.230
 6265SOL    HW219482   4.500   0.485   9.165
 6266SOL     OW19483   4.114   1.741   9.008
 6266SOL    HW119484   4.023   1.782   9.006
 6266SOL    HW219485   4.107   1.647   9.040
 6267SOL     OW19486   4.318   0.745   8.100
 6267SOL    HW119487   4.368   0.830   8.081
 6267SOL    HW219488   4.230   0.747   8.052
 6268SOL     OW19489   3.945   1.314   9.292
 6268SOL    HW119490   3.880   1.241   9.271
 6268SOL    HW219491   3.949   1.328   9.390
 6269SOL     OW19492   3.803   1.240   8.101
 6269SOL    HW119493   3.802   1.193   8.189
 6269SOL    HW219494   3.885   1.212   8.050
 6270SOL     OW19495   4.396   1.391   9.072
 6270SOL    HW119496   4.318   1.341   9.110
 6270SOL    HW219497   4.393   1.486   9.103
 6271SOL     OW19498   4.152   0.424   7.968
 6271SOL    HW119499   4.182   0.352   7.906
 6271SOL    HW219500   4.113   0.384   8.051
 6272SOL     OW19501   4.041   0.547   8.728
 6272SOL    HW119502   4.079   0.488   8.800
 6272SOL    HW219503   4.081   0.521   8.640
 6273SOL     OW19504   4.536   1.586   8.135
 6273SOL    HW119505   4.568   1.596   8.041
 6273SOL    HW219506   4.457   1.524   8.137
 6274SOL     OW19507   3.763   1.077   7.748
 6274SOL    HW119508   3.862   1.066   7.739
 6274SOL    HW219509   3.723   0.991   7.780
 6275SOL     OW19510   3.954   0.628   9.423
 6275SOL    HW119511   3.861   0.626   9.460
 6275SOL    HW219512   3.955   0.589   9.331
 6276SOL     OW19513   3.949   0.275  10.306
 6276SOL    HW119514   3.984   0.258  10.398
 6276SOL    HW219515   3.861   0.230  10.294
 6277SOL     OW19516   3.743   0.368   9.957
 6277SOL    HW119517   3.661   0.411   9.996
 6277SOL    HW219518   3.715   0.295   9.894
 6278SOL     OW19519   4.293   1.275  10.475
 6278SOL    HW119520   4.200   1.268  10.438
 6278SOL    HW219521   4.304   1.364  10.519
 6279SOL     OW19522   4.574   0.798  11.133
 6279SOL    HW119523   4.570   0.874  11.198
 6279SOL    HW219524   4.596   0.834  11.042
 6280SOL     OW19525   4.409   1.012   9.975
 6280SOL    HW119526   4.478   0.996  10.045
 6280SOL    HW219527   4.336   1.069  10.013
 6281SOL     OW19528   4.059   1.435  10.371
 6281SOL    HW119529   3.981   1.404  10.318
 6281SOL    HW219530   4.117   1.493  10.314
 6282SOL     OW19531   4.162   0.392  10.809
 6282SOL    HW119532   4.244   0.336  10.818
 6282SOL    HW219533   4.081   0.334  10.813
 6283SOL     OW19534   3.955   1.713   9.793
 6283SOL    HW119535   3.989   1.790   9.847
 6283SOL    HW219536   3.999   1.713   9.703
 6284SOL     OW19537   3.954   1.434   9.848
 6284SOL    HW119538   3.928   1.530   9.848
 6284SOL    HW219539   3.883   1.380   9.893
 6285SOL     OW19540   3.964   1.091  10.196
 6285SOL    HW119541   3.978   1.007  10.248
 6285SOL    HW219542   3.909   1.155  10.251
 6286SOL     OW19543   4.344   1.786  10.749
 6286SOL    HW119544   4.252   1.769  10.784
 6286SOL    HW219545   4.372   1.878  10.775
 6287SOL     OW19546   4.330   0.964   9.433
 6287SOL    HW119547   4.337   1.048   9.379
 6287SOL    HW219548   4.376   0.977   9.521
 6288SOL     OW19549   3.846   0.643   9.873
 6288SOL    HW119550   3.801   0.555   9.890
 6288SOL    HW219551   3.845   0.697   9.957
 6289SOL     OW19552   3.751   1.596   9.427
 6289SOL    HW119553   3.732   1.500   9.448
 6289SOL    HW219554   3.718   1.654   9.502
 6290SOL     OW19555   3.837   0.737  10.907
 6290SOL    HW119556   3.925   0.724  10.952
 6290SOL    HW219557   3.824   0.834  10.885
 6291SOL     OW19558   4.337   1.365  10.036
 6291SOL    HW119559   4.288   1.278  10.045
 6291SOL    HW219560   4.314   1.408   9.949
 6292SOL     OW19561   4.533   0.004   9.812
 6292SOL    HW119562   4.573   0.095   9.803
 6292SOL    HW219563   4.433   0.012   9.818
 6293SOL     OW19564   3.921   0.976  10.574
 6293SOL    HW119565   4.010   0.931  10.560
 6293SOL    HW219566   3.848   0.911  10.555
 6294SOL     OW19567   4.041   0.251  11.111
 6294SOL    HW119568   4.112   0.322  11.117
 6294SOL    HW219569   3.953   0.290  11.139
 6295SOL     OW19570   4.322   0.729   9.580
 6295SOL    HW119571   4.346   0.798   9.512
 6295SOL    HW219572   4.244   0.762   9.634
 6296SOL     OW19573   3.800   0.811  10.099
 6296SOL    HW119574   3.899   0.799  10.108
 6296SOL    HW219575   3.776   0.906  10.120
 6297SOL     OW19576   3.854   1.821  10.881
 6297SOL    HW119577   3.844   1.806  10.980
 6297SOL    HW219578   3.768   1.857  10.845
 6298SOL     OW19579   4.274   0.196  10.195
 6298SOL    HW119580   4.269   0.191  10.295
 6298SOL    HW219581   4.276   0.292  10.166
 6299SOL     OW19582   4.075   1.801  10.163
 6299SOL    HW119583   4.125   1.715  10.169
 6299SOL    HW219584   4.140   1.878  10.160
 6300SOL     OW19585   4.045   0.943   9.552
 6300SOL    HW119586   4.127   0.982   9.510
 6300SOL    HW219587   4.018   0.861   9.503
 6301SOL     OW19588   4.185   1.266  11.037
 6301SOL    HW119589   4.135   1.267  10.951
 6301SOL    HW219590   4.122   1.248  11.113
 6302SOL     OW19591   3.926   0.285  10.808
 6302SOL    HW119592   3.846   0.345  10.795
 6302SOL    HW219593   3.916   0.236  10.894
 6303SOL     OW19594   4.188   1.743   9.633
 6303SOL    HW119595   4.221   1.782   9.719
 6303SOL    HW219596   4.264   1.736   9.568
 6304SOL     OW19597   3.973   1.785  10.551
 6304SOL    HW119598   4.030   1.720  10.601
 6304SOL    HW219599   3.957   1.752  10.458
 6305SOL     OW19600   4.106   0.700   9.790
 6305SOL    HW119601   4.151   0.610   9.787
 6305SOL    HW219602   4.012   0.689   9.823
 6306SOL     OW19603   4.338   0.122   9.427
 6306SOL    HW119604   4.436   0.100   9.434
 6306SOL    HW219605   4.307   0.105   9.334
 6307SOL     OW19606   4.527   1.402  10.234
 6307SOL    HW119607   4.617   1.416  10.192
 6307SOL    HW219608   4.456   1.404  10.163
 6308SOL     OW19609   4.263   0.064   9.822
 6308SOL    HW119610   4.182   0.065   9.880
 6308SOL    HW219611   4.266   0.147   9.767
 6309SOL     OW19612   4.021   0.035   9.481
 6309SOL    HW119613   4.070   0.119   9.460
 6309SOL    HW219614   4.083  -0.030   9.526
 6310SOL     OW19615   4.800   0.683  10.774
 6310SOL    HW119616   4.720   0.622  10.777
 6310SOL    HW219617   4.881   0.630  10.750
 6311SOL     OW19618   4.183   1.152  10.051
 6311SOL    HW119619   4.112   1.125  10.116
 6311SOL    HW219620   4.157   1.124   9.958
 6312SOL     OW19621   3.802   0.556  10.696
 6312SOL    HW119622   3.894   0.555  10.655
 6312SOL    HW219623   3.796   0.630  10.763
 6313SOL     OW19624   4.285   0.222  10.457
 6313SOL    HW119625   4.323   0.138  10.494
 6313SOL    HW219626   4.197   0.241  10.501
 6314SOL     OW19627   4.212   1.385   9.484
 6314SOL    HW119628   4.125   1.370   9.531
 6314SOL    HW219629   4.195   1.411   9.389
 6315SOL     OW19630   4.251   0.256   9.638
 6315SOL    HW119631   4.278   0.197   9.563
 6315SOL    HW219632   4.251   0.351   9.607
 6316SOL     OW19633   4.134   0.813  10.561
 6316SOL    HW119634   4.220   0.825  10.611
 6316SOL    HW219635   4.092   0.726  10.588
 6317SOL     OW19636   3.788   1.564  10.641
 6317SOL    HW119637   3.742   1.646  10.607
 6317SOL    HW219638   3.886   1.583  10.650
 6318SOL     OW19639   4.091   1.100   9.811
 6318SOL    HW119640   4.084   1.183   9.755
 6318SOL    HW219641   4.095   1.020   9.751
 6319SOL     OW19642   4.290   0.537  10.175
 6319SOL    HW119643   4.302   0.603  10.101
 6319SOL    HW219644   4.336   0.571  10.258
 6320SOL     OW19645   4.078   1.510  10.639
 6320SOL    HW119646   4.057   1.466  10.552
 6320SOL    HW219647   4.175   1.536  10.642
 6321SOL     OW19648   4.126   0.751  10.908
 6321SOL    HW119649   4.194   0.806  10.861
 6321SOL    HW219650   4.166   0.663  10.935
 6322SOL     OW19651   4.297   0.870  10.339
 6322SOL    HW119652   4.341   0.959  10.330
 6322SOL    HW219653   4.234   0.870  10.416
 6323SOL     OW19654   4.031   0.213  10.541
 6323SOL    HW119655   4.008   0.250  10.631
 6323SOL    HW219656   4.001   0.118  10.535
 6324SOL     OW19657   3.761   1.310  10.592
 6324SOL    HW119658   3.814   1.261  10.660
 6324SOL    HW219659   3.783   1.408  10.597
 6325SOL     OW19660   4.031   0.063   9.928
 6325SOL    HW119661   4.020   0.157   9.961
 6325SOL    HW219662   4.026   0.000  10.005
 6326SOL     OW19663   4.074   0.898  11.114
 6326SOL    HW119664   4.150   0.942  11.162
 6326SOL    HW219665   4.109   0.851  11.032
 6327SOL     OW19666   4.043   0.810  10.259
 6327SOL    HW119667   4.136   0.846  10.264
 6327SOL    HW219668   4.037   0.725  10.311
 6328SOL     OW19669   4.063   0.509  10.316
 6328SOL    HW119670   4.011   0.426  10.299
 6328SOL    HW219671   4.140   0.514  10.252
 6329SOL     OW19672   3.732   1.326   9.510
 6329SOL    HW119673   3.639   1.347   9.479
 6329SOL    HW219674   3.742   1.227   9.523
 6330SOL     OW19675   3.812   1.801  10.237
 6330SOL    HW119676   3.770   1.715  10.210
 6330SOL    HW219677   3.906   1.804  10.203
 6331SOL     OW19678   4.228   1.568  10.220
 6331SOL    HW119679   4.294   1.642  10.229
 6331SOL    HW219680   4.272   1.489  10.178
 6332SOL     OW19681   3.764   0.544  10.424
 6332SOL    HW119682   3.849   0.511  10.383
 6332SOL    HW219683   3.777   0.559  10.522
 6333SOL     OW19684   4.539   0.572   9.635
 6333SOL    HW119685   4.546   0.483   9.589
 6333SOL    HW219686   4.445   0.606   9.627
 6334SOL     OW19687   3.976   1.564  11.054
 6334SOL    HW119688   3.946   1.621  11.130
 6334SOL    HW219689   3.969   1.467  11.080
 6335SOL     OW19690   4.197   0.500   9.501
 6335SOL    HW119691   4.258   0.580   9.505
 6335SOL    HW219692   4.102   0.531   9.508
 6336SOL     OW19693   3.883   1.137  10.776
 6336SOL    HW119694   3.905   1.076  10.852
 6336SOL    HW219695   3.893   1.088  10.690
 6337SOL     OW19696   3.807   1.258  10.332
 6337SOL    HW119697   3.802   1.257  10.432
 6337SOL    HW219698   3.724   1.217  10.294
 6338SOL     OW19699   4.412   1.662  11.026
 6338SOL    HW119700   4.356   1.743  11.035
 6338SOL    HW219701   4.464   1.666  10.940
 6339SOL     OW19702   3.987   0.326  10.030
 6339SOL    HW119703   3.908   0.377   9.996
 6339SOL    HW219704   3.978   0.311  10.128
 6340SOL     OW19705   4.096   1.288  10.800
 6340SOL    HW119706   4.083   1.381  10.766
 6340SOL    HW219707   4.012   1.236  10.787
 6341SOL     OW19708   4.314   1.487   9.801
 6341SOL    HW119709   4.356   1.429   9.731
 6341SOL    HW219710   4.270   1.566   9.757
 6342SOL     OW19711   3.979   1.348   9.600
 6342SOL    HW119712   3.883   1.349   9.573
 6342SOL    HW219713   3.991   1.401   9.684
 6343SOL     OW19714   3.829   1.013  11.036
 6343SOL    HW119715   3.752   0.980  11.090
 6343SOL    HW219716   3.914   0.983  11.078
 6344SOL     OW19717   4.396   0.203  10.799
 6344SOL    HW119718   4.486   0.187  10.759
 6344SOL    HW219719   4.404   0.208  10.898
 6345SOL     OW19720   3.799   0.345   9.343
 6345SOL    HW119721   3.707   0.317   9.314
 6345SOL    HW219722   3.830   0.422   9.287
 6346SOL     OW19723   3.796   0.166   9.628
 6346SOL    HW119724   3.779   0.249   9.574
 6346SOL    HW219725   3.886   0.129   9.606
 6347SOL     OW19726   4.337   0.842  10.741
 6347SOL    HW119727   4.393   0.923  10.724
 6347SOL    HW219728   4.396   0.762  10.744
 6348SOL     OW19729   4.114   1.741  10.870
 6348SOL    HW119730   4.023   1.782  10.868
 6348SOL    HW219731   4.107   1.647  10.902
 6349SOL     OW19732   4.318   0.745   9.962
 6349SOL    HW119733   4.368   0.830   9.943
 6349SOL    HW219734   4.230   0.747   9.914
 6350SOL     OW19735   3.803   1.240   9.963
 6350SOL    HW119736   3.802   1.193  10.051
 6350SOL    HW219737   3.885   1.212   9.912
 6351SOL     OW19738   4.396   1.391  10.934
 6351SOL    HW119739   4.318   1.341  10.972
 6351SOL    HW219740   4.393   1.486  10.965
 6352SOL     OW19741   4.152   0.424   9.830
 6352SOL    HW119742   4.182   0.352   9.768
 6352SOL    HW219743   4.113   0.384   9.913
 6353SOL     OW19744   4.041   0.547  10.590
 6353SOL    HW119745   4.079   0.488  10.662
 6353SOL    HW219746   4.081   0.521  10.502
 6354SOL     OW19747   4.536   1.586   9.997
 6354SOL    HW119748   4.568   1.596   9.903
 6354SOL    HW219749   4.457   1.524   9.999
 6355SOL     OW19750   3.763   1.077   9.610
 6355SOL    HW119751   3.862   1.066   9.601
 6355SOL    HW219752   3.723   0.991   9.642
 6356SOL     OW19753   3.954   2.490   0.113
 6356SOL    HW119754   3.861   2.488   0.150
 6356SOL    HW219755   3.955   2.451   0.021
 6357SOL     OW19756   3.949   2.137   0.996
 6357SOL    HW119757   3.984   2.120   1.088
 6357SOL    HW219758   3.861   2.092   0.984
 6358SOL     OW19759   3.743   2.230   0.647
 6358SOL    HW119760   3.661   2.273   0.686
 6358SOL    HW219761   3.715   2.157   0.584
 6359SOL     OW19762   4.293   3.137   1.165
 6359SOL    HW119763   4.200   3.130   1.128
 6359SOL    HW219764   4.304   3.226   1.209
 6360SOL     OW19765   4.574   2.660   1.823
 6360SOL    HW119766   4.570   2.736   1.888
 6360SOL    HW219767   4.596   2.696   1.732
 6361SOL     OW19768   4.409   2.874   0.665
 6361SOL    HW119769   4.478   2.858   0.735
 6361SOL    HW219770   4.336   2.931   0.703
 6362SOL     OW19771   4.410   3.023   1.803
 6362SOL    HW119772   4.470   3.102   1.817
 6362SOL    HW219773   4.324   3.054   1.762
 6363SOL     OW19774   4.059   3.297   1.061
 6363SOL    HW119775   3.981   3.266   1.008
 6363SOL    HW219776   4.117   3.355   1.004
 6364SOL     OW19777   4.162   2.254   1.499
 6364SOL    HW119778   4.244   2.198   1.508
 6364SOL    HW219779   4.081   2.196   1.503
 6365SOL     OW19780   3.955   3.575   0.483
 6365SOL    HW119781   3.989   3.652   0.537
 6365SOL    HW219782   3.999   3.575   0.393
 6366SOL     OW19783   3.954   3.296   0.538
 6366SOL    HW119784   3.928   3.392   0.538
 6366SOL    HW219785   3.883   3.242   0.583
 6367SOL     OW19786   3.964   2.953   0.886
 6367SOL    HW119787   3.978   2.869   0.938
 6367SOL    HW219788   3.909   3.017   0.941
 6368SOL     OW19789   4.344   3.648   1.439
 6368SOL    HW119790   4.252   3.631   1.474
 6368SOL    HW219791   4.372   3.740   1.465
 6369SOL     OW19792   4.330   2.826   0.123
 6369SOL    HW119793   4.337   2.910   0.069
 6369SOL    HW219794   4.376   2.839   0.211
 6370SOL     OW19795   3.846   2.505   0.563
 6370SOL    HW119796   3.801   2.417   0.580
 6370SOL    HW219797   3.845   2.559   0.647
 6371SOL     OW19798   3.751   3.458   0.117
 6371SOL    HW119799   3.732   3.362   0.138
 6371SOL    HW219800   3.718   3.516   0.192
 6372SOL     OW19801   3.837   2.599   1.597
 6372SOL    HW119802   3.925   2.586   1.642
 6372SOL    HW219803   3.824   2.696   1.575
 6373SOL     OW19804   4.337   3.227   0.726
 6373SOL    HW119805   4.288   3.140   0.735
 6373SOL    HW219806   4.314   3.270   0.639
 6374SOL     OW19807   4.533   1.866   0.502
 6374SOL    HW119808   4.573   1.957   0.493
 6374SOL    HW219809   4.433   1.874   0.508
 6375SOL     OW19810   3.921   2.838   1.264
 6375SOL    HW119811   4.010   2.793   1.250
 6375SOL    HW219812   3.848   2.773   1.245
 6376SOL     OW19813   4.041   2.113   1.801
 6376SOL    HW119814   4.112   2.184   1.807
 6376SOL    HW219815   3.953   2.152   1.829
 6377SOL     OW19816   4.322   2.591   0.270
 6377SOL    HW119817   4.346   2.660   0.202
 6377SOL    HW219818   4.244   2.624   0.324
 6378SOL     OW19819   3.800   2.673   0.789
 6378SOL    HW119820   3.899   2.661   0.798
 6378SOL    HW219821   3.776   2.768   0.810
 6379SOL     OW19822   3.854   3.683   1.571
 6379SOL    HW119823   3.844   3.668   1.670
 6379SOL    HW219824   3.768   3.719   1.535
 6380SOL     OW19825   4.274   2.058   0.885
 6380SOL    HW119826   4.269   2.053   0.985
 6380SOL    HW219827   4.276   2.154   0.856
 6381SOL     OW19828   4.075   3.663   0.853
 6381SOL    HW119829   4.125   3.577   0.859
 6381SOL    HW219830   4.140   3.740   0.850
 6382SOL     OW19831   4.045   2.805   0.242
 6382SOL    HW119832   4.127   2.844   0.200
 6382SOL    HW219833   4.018   2.723   0.193
 6383SOL     OW19834   4.185   3.128   1.727
 6383SOL    HW119835   4.135   3.129   1.641
 6383SOL    HW219836   4.122   3.110   1.803
 6384SOL     OW19837   3.926   2.147   1.498
 6384SOL    HW119838   3.846   2.207   1.485
 6384SOL    HW219839   3.916   2.098   1.584
 6385SOL     OW19840   4.188   3.605   0.323
 6385SOL    HW119841   4.221   3.644   0.409
 6385SOL    HW219842   4.264   3.598   0.258
 6386SOL     OW19843   3.973   3.647   1.241
 6386SOL    HW119844   4.030   3.582   1.291
 6386SOL    HW219845   3.957   3.614   1.148
 6387SOL     OW19846   4.106   2.562   0.480
 6387SOL    HW119847   4.151   2.472   0.477
 6387SOL    HW219848   4.012   2.551   0.513
 6388SOL     OW19849   4.338   1.984   0.117
 6388SOL    HW119850   4.436   1.962   0.124
 6388SOL    HW219851   4.307   1.967   0.024
 6389SOL     OW19852   4.527   3.264   0.924
 6389SOL    HW119853   4.617   3.278   0.882
 6389SOL    HW219854   4.456   3.266   0.853
 6390SOL     OW19855   4.263   1.926   0.512
 6390SOL    HW119856   4.182   1.927   0.570
 6390SOL    HW219857   4.266   2.009   0.457
 6391SOL     OW19858   4.021   1.897   0.171
 6391SOL    HW119859   4.070   1.981   0.150
 6391SOL    HW219860   4.083   1.832   0.216
 6392SOL     OW19861   4.800   2.545   1.464
 6392SOL    HW119862   4.720   2.484   1.467
 6392SOL    HW219863   4.881   2.492   1.440
 6393SOL     OW19864   4.183   3.014   0.741
 6393SOL    HW119865   4.112   2.987   0.806
 6393SOL    HW219866   4.157   2.986   0.648
 6394SOL     OW19867   3.802   2.418   1.386
 6394SOL    HW119868   3.894   2.417   1.345
 6394SOL    HW219869   3.796   2.492   1.453
 6395SOL     OW19870   4.285   2.084   1.147
 6395SOL    HW119871   4.323   2.000   1.184
 6395SOL    HW219872   4.197   2.103   1.191
 6396SOL     OW19873   4.212   3.247   0.174
 6396SOL    HW119874   4.125   3.232   0.221
 6396SOL    HW219875   4.195   3.273   0.079
 6397SOL     OW19876   4.251   2.118   0.328
 6397SOL    HW119877   4.278   2.059   0.253
 6397SOL    HW219878   4.251   2.213   0.297
 6398SOL     OW19879   4.134   2.675   1.251
 6398SOL    HW119880   4.220   2.687   1.301
 6398SOL    HW219881   4.092   2.588   1.278
 6399SOL     OW19882   3.788   3.426   1.331
 6399SOL    HW119883   3.742   3.508   1.297
 6399SOL    HW219884   3.886   3.445   1.340
 6400SOL     OW19885   4.091   2.962   0.501
 6400SOL    HW119886   4.084   3.045   0.445
 6400SOL    HW219887   4.095   2.882   0.441
 6401SOL     OW19888   4.290   2.399   0.865
 6401SOL    HW119889   4.302   2.465   0.791
 6401SOL    HW219890   4.336   2.433   0.948
 6402SOL     OW19891   4.078   3.372   1.329
 6402SOL    HW119892   4.057   3.328   1.242
 6402SOL    HW219893   4.175   3.398   1.332
 6403SOL     OW19894   4.126   2.613   1.598
 6403SOL    HW119895   4.194   2.668   1.551
 6403SOL    HW219896   4.166   2.525   1.625
 6404SOL     OW19897   4.228   1.912   1.740
 6404SOL    HW119898   4.186   1.855   1.670
 6404SOL    HW219899   4.162   1.981   1.772
 6405SOL     OW19900   4.297   2.732   1.029
 6405SOL    HW119901   4.341   2.821   1.020
 6405SOL    HW219902   4.234   2.732   1.106
 6406SOL     OW19903   4.031   2.075   1.231
 6406SOL    HW119904   4.008   2.112   1.321
 6406SOL    HW219905   4.001   1.980   1.225
 6407SOL     OW19906   3.761   3.172   1.282
 6407SOL    HW119907   3.814   3.123   1.350
 6407SOL    HW219908   3.783   3.270   1.287
 6408SOL     OW19909   4.031   1.925   0.618
 6408SOL    HW119910   4.020   2.019   0.651
 6408SOL    HW219911   4.026   1.862   0.695
 6409SOL     OW19912   4.074   2.760   1.804
 6409SOL    HW119913   4.150   2.804   1.852
 6409SOL    HW219914   4.109   2.713   1.722
 6410SOL     OW19915   4.043   2.672   0.949
 6410SOL    HW119916   4.136   2.708   0.954
 6410SOL    HW219917   4.037   2.587   1.001
 6411SOL     OW19918   4.063   2.371   1.006
 6411SOL    HW119919   4.011   2.288   0.989
 6411SOL    HW219920   4.140   2.376   0.942
 6412SOL     OW19921   3.732   3.188   0.200
 6412SOL    HW119922   3.639   3.209   0.169
 6412SOL    HW219923   3.742   3.089   0.213
 6413SOL     OW19924   3.812   3.663   0.927
 6413SOL    HW119925   3.770   3.577   0.900
 6413SOL    HW219926   3.906   3.666   0.893
 6414SOL     OW19927   4.228   3.430   0.910
 6414SOL    HW119928   4.294   3.504   0.919
 6414SOL    HW219929   4.272   3.351   0.868
 6415SOL     OW19930   3.764   2.406   1.114
 6415SOL    HW119931   3.849   2.373   1.073
 6415SOL    HW219932   3.777   2.421   1.212
 6416SOL     OW19933   3.913   2.382   1.722
 6416SOL    HW119934   3.972   2.342   1.652
 6416SOL    HW219935   3.855   2.453   1.681
 6417SOL     OW19936   4.539   2.434   0.325
 6417SOL    HW119937   4.546   2.345   0.279
 6417SOL    HW219938   4.445   2.468   0.317
 6418SOL     OW19939   3.976   3.426   1.744
 6418SOL    HW119940   3.946   3.483   1.820
 6418SOL    HW219941   3.969   3.329   1.770
 6419SOL     OW19942   4.197   2.362   0.191
 6419SOL    HW119943   4.258   2.442   0.195
 6419SOL    HW219944   4.102   2.393   0.198
 6420SOL     OW19945   3.883   2.999   1.466
 6420SOL    HW119946   3.905   2.938   1.542
 6420SOL    HW219947   3.893   2.950   1.380
 6421SOL     OW19948   3.807   3.120   1.022
 6421SOL    HW119949   3.802   3.119   1.122
 6421SOL    HW219950   3.724   3.079   0.984
 6422SOL     OW19951   4.412   3.524   1.716
 6422SOL    HW119952   4.356   3.605   1.725
 6422SOL    HW219953   4.464   3.528   1.630
 6423SOL     OW19954   3.854   3.656   1.851
 6423SOL    HW119955   3.813   3.582   1.904
 6423SOL    HW219956   3.918   3.707   1.909
 6424SOL     OW19957   3.987   2.188   0.720
 6424SOL    HW119958   3.908   2.239   0.686
 6424SOL    HW219959   3.978   2.173   0.818
 6425SOL     OW19960   4.096   3.150   1.490
 6425SOL    HW119961   4.083   3.243   1.456
 6425SOL    HW219962   4.012   3.098   1.477
 6426SOL     OW19963   4.314   3.349   0.491
 6426SOL    HW119964   4.356   3.291   0.421
 6426SOL    HW219965   4.270   3.428   0.447
 6427SOL     OW19966   3.979   3.210   0.290
 6427SOL    HW119967   3.883   3.211   0.263
 6427SOL    HW219968   3.991   3.263   0.374
 6428SOL     OW19969   3.829   2.875   1.726
 6428SOL    HW119970   3.752   2.842   1.780
 6428SOL    HW219971   3.914   2.845   1.768
 6429SOL     OW19972   4.396   2.065   1.489
 6429SOL    HW119973   4.486   2.049   1.449
 6429SOL    HW219974   4.404   2.070   1.588
 6430SOL     OW19975   3.799   2.207   0.033
 6430SOL    HW119976   3.707   2.179   0.004
 6430SOL    HW219977   3.830   2.284  -0.023
 6431SOL     OW19978   3.796   2.028   0.318
 6431SOL    HW119979   3.779   2.111   0.264
 6431SOL    HW219980   3.886   1.991   0.296
 6432SOL     OW19981   4.337   2.704   1.431
 6432SOL    HW119982   4.393   2.785   1.414
 6432SOL    HW219983   4.396   2.624   1.434
 6433SOL     OW19984   4.440   2.427   1.708
 6433SOL    HW119985   4.459   2.492   1.782
 6433SOL    HW219986   4.500   2.347   1.717
 6434SOL     OW19987   4.114   3.603   1.560
 6434SOL    HW119988   4.023   3.644   1.558
 6434SOL    HW219989   4.107   3.509   1.592
 6435SOL     OW19990   4.318   2.607   0.652
 6435SOL    HW119991   4.368   2.692   0.633
 6435SOL    HW219992   4.230   2.609   0.604
 6436SOL     OW19993   3.945   3.176   1.844
 6436SOL    HW119994   3.880   3.103   1.823
 6436SOL    HW219995   3.949   3.190   1.942
 6437SOL     OW19996   3.803   3.102   0.653
 6437SOL    HW119997   3.802   3.055   0.741
 6437SOL    HW219998   3.885   3.074   0.602
 6438SOL     OW19999   4.396   3.253   1.624
 6438SOL    HW120000   4.318   3.203   1.662
 6438SOL    HW220001   4.393   3.348   1.655
 6439SOL     OW20002   4.152   2.286   0.520
 6439SOL    HW120003   4.182   2.214   0.458
 6439SOL    HW220004   4.113   2.246   0.603
 6440SOL     OW20005   4.041   2.409   1.280
 6440SOL    HW120006   4.079   2.350   1.352
 6440SOL    HW220007   4.081   2.383   1.192
 6441SOL     OW20008   4.536   3.448   0.687
 6441SOL    HW120009   4.568   3.458   0.593
 6441SOL    HW220010   4.457   3.386   0.689
 6442SOL     OW20011   3.763   2.939   0.300
 6442SOL    HW120012   3.862   2.928   0.291
 6442SOL    HW220013   3.723   2.853   0.332
 6443SOL     OW20014   3.954   2.490   1.975
 6443SOL    HW120015   3.861   2.488   2.012
 6443SOL    HW220016   3.955   2.451   1.883
 6444SOL     OW20017   3.949   2.137   2.858
 6444SOL    HW120018   3.984   2.120   2.950
 6444SOL    HW220019   3.861   2.092   2.846
 6445SOL     OW20020   3.743   2.230   2.509
 6445SOL    HW120021   3.661   2.273   2.548
 6445SOL    HW220022   3.715   2.157   2.446
 6446SOL     OW20023   4.293   3.137   3.027
 6446SOL    HW120024   4.200   3.130   2.990
 6446SOL    HW220025   4.304   3.226   3.071
 6447SOL     OW20026   4.574   2.660   3.685
 6447SOL    HW120027   4.570   2.736   3.750
 6447SOL    HW220028   4.596   2.696   3.594
 6448SOL     OW20029   4.409   2.874   2.527
 6448SOL    HW120030   4.478   2.858   2.597
 6448SOL    HW220031   4.336   2.931   2.565
 6449SOL     OW20032   4.410   3.023   3.665
 6449SOL    HW120033   4.470   3.102   3.679
 6449SOL    HW220034   4.324   3.054   3.624
 6450SOL     OW20035   4.059   3.297   2.923
 6450SOL    HW120036   3.981   3.266   2.870
 6450SOL    HW220037   4.117   3.355   2.866
 6451SOL     OW20038   4.162   2.254   3.361
 6451SOL    HW120039   4.244   2.198   3.370
 6451SOL    HW220040   4.081   2.196   3.365
 6452SOL     OW20041   3.955   3.575   2.345
 6452SOL    HW120042   3.989   3.652   2.399
 6452SOL    HW220043   3.999   3.575   2.255
 6453SOL     OW20044   3.954   3.296   2.400
 6453SOL    HW120045   3.928   3.392   2.400
 6453SOL    HW220046   3.883   3.242   2.445
 6454SOL     OW20047   3.964   2.953   2.748
 6454SOL    HW120048   3.978   2.869   2.800
 6454SOL    HW220049   3.909   3.017   2.803
 6455SOL     OW20050   4.344   3.648   3.301
 6455SOL    HW120051   4.252   3.631   3.336
 6455SOL    HW220052   4.372   3.740   3.327
 6456SOL     OW20053   4.330   2.826   1.985
 6456SOL    HW120054   4.337   2.910   1.931
 6456SOL    HW220055   4.376   2.839   2.073
 6457SOL     OW20056   3.846   2.505   2.425
 6457SOL    HW120057   3.801   2.417   2.442
 6457SOL    HW220058   3.845   2.559   2.509
 6458SOL     OW20059   3.751   3.458   1.979
 6458SOL    HW120060   3.732   3.362   2.000
 6458SOL    HW220061   3.718   3.516   2.054
 6459SOL     OW20062   3.837   2.599   3.459
 6459SOL    HW120063   3.925   2.586   3.504
 6459SOL    HW220064   3.824   2.696   3.437
 6460SOL     OW20065   4.337   3.227   2.588
 6460SOL    HW120066   4.288   3.140   2.597
 6460SOL    HW220067   4.314   3.270   2.501
 6461SOL     OW20068   4.533   1.866   2.364
 6461SOL    HW120069   4.573   1.957   2.355
 6461SOL    HW220070   4.433   1.874   2.370
 6462SOL     OW20071   3.921   2.838   3.126
 6462SOL    HW120072   4.010   2.793   3.112
 6462SOL    HW220073   3.848   2.773   3.107
 6463SOL     OW20074   4.041   2.113   3.663
 6463SOL    HW120075   4.112   2.184   3.669
 6463SOL    HW220076   3.953   2.152   3.691
 6464SOL     OW20077   4.322   2.591   2.132
 6464SOL    HW120078   4.346   2.660   2.064
 6464SOL    HW220079   4.244   2.624   2.186
 6465SOL     OW20080   3.800   2.673   2.651
 6465SOL    HW120081   3.899   2.661   2.660
 6465SOL    HW220082   3.776   2.768   2.672
 6466SOL     OW20083   3.854   3.683   3.433
 6466SOL    HW120084   3.844   3.668   3.532
 6466SOL    HW220085   3.768   3.719   3.397
 6467SOL     OW20086   4.274   2.058   2.747
 6467SOL    HW120087   4.269   2.053   2.847
 6467SOL    HW220088   4.276   2.154   2.718
 6468SOL     OW20089   4.075   3.663   2.715
 6468SOL    HW120090   4.125   3.577   2.721
 6468SOL    HW220091   4.140   3.740   2.712
 6469SOL     OW20092   4.045   2.805   2.104
 6469SOL    HW120093   4.127   2.844   2.062
 6469SOL    HW220094   4.018   2.723   2.055
 6470SOL     OW20095   4.185   3.128   3.589
 6470SOL    HW120096   4.135   3.129   3.503
 6470SOL    HW220097   4.122   3.110   3.665
 6471SOL     OW20098   3.926   2.147   3.360
 6471SOL    HW120099   3.846   2.207   3.347
 6471SOL    HW220100   3.916   2.098   3.446
 6472SOL     OW20101   4.188   3.605   2.185
 6472SOL    HW120102   4.221   3.644   2.271
 6472SOL    HW220103   4.264   3.598   2.120
 6473SOL     OW20104   3.973   3.647   3.103
 6473SOL    HW120105   4.030   3.582   3.153
 6473SOL    HW220106   3.957   3.614   3.010
 6474SOL     OW20107   4.106   2.562   2.342
 6474SOL    HW120108   4.151   2.472   2.339
 6474SOL    HW220109   4.012   2.551   2.375
 6475SOL     OW20110   4.338   1.984   1.979
 6475SOL    HW120111   4.436   1.962   1.986
 6475SOL    HW220112   4.307   1.967   1.886
 6476SOL     OW20113   4.527   3.264   2.786
 6476SOL    HW120114   4.617   3.278   2.744
 6476SOL    HW220115   4.456   3.266   2.715
 6477SOL     OW20116   4.263   1.926   2.374
 6477SOL    HW120117   4.182   1.927   2.432
 6477SOL    HW220118   4.266   2.009   2.319
 6478SOL     OW20119   4.021   1.897   2.033
 6478SOL    HW120120   4.070   1.981   2.012
 6478SOL    HW220121   4.083   1.832   2.078
 6479SOL     OW20122   4.800   2.545   3.326
 6479SOL    HW120123   4.720   2.484   3.329
 6479SOL    HW220124   4.881   2.492   3.302
 6480SOL     OW20125   4.183   3.014   2.603
 6480SOL    HW120126   4.112   2.987   2.668
 6480SOL    HW220127   4.157   2.986   2.510
 6481SOL     OW20128   3.802   2.418   3.248
 6481SOL    HW120129   3.894   2.417   3.207
 6481SOL    HW220130   3.796   2.492   3.315
 6482SOL     OW20131   4.285   2.084   3.009
 6482SOL    HW120132   4.323   2.000   3.046
 6482SOL    HW220133   4.197   2.103   3.053
 6483SOL     OW20134   4.212   3.247   2.036
 6483SOL    HW120135   4.125   3.232   2.083
 6483SOL    HW220136   4.195   3.273   1.941
 6484SOL     OW20137   4.251   2.118   2.190
 6484SOL    HW120138   4.278   2.059   2.115
 6484SOL    HW220139   4.251   2.213   2.159
 6485SOL     OW20140   4.134   2.675   3.113
 6485SOL    HW120141   4.220   2.687   3.163
 6485SOL    HW220142   4.092   2.588   3.140
 6486SOL     OW20143   3.788   3.426   3.193
 6486SOL    HW120144   3.742   3.508   3.159
 6486SOL    HW220145   3.886   3.445   3.202
 6487SOL     OW20146   4.091   2.962   2.363
 6487SOL    HW120147   4.084   3.045   2.307
 6487SOL    HW220148   4.095   2.882   2.303
 6488SOL     OW20149   4.290   2.399   2.727
 6488SOL    HW120150   4.302   2.465   2.653
 6488SOL    HW220151   4.336   2.433   2.810
 6489SOL     OW20152   4.078   3.372   3.191
 6489SOL    HW120153   4.057   3.328   3.104
 6489SOL    HW220154   4.175   3.398   3.194
 6490SOL     OW20155   4.126   2.613   3.460
 6490SOL    HW120156   4.194   2.668   3.413
 6490SOL    HW220157   4.166   2.525   3.487
 6491SOL     OW20158   4.228   1.912   3.602
 6491SOL    HW120159   4.186   1.855   3.532
 6491SOL    HW220160   4.162   1.981   3.634
 6492SOL     OW20161   4.297   2.732   2.891
 6492SOL    HW120162   4.341   2.821   2.882
 6492SOL    HW220163   4.234   2.732   2.968
 6493SOL     OW20164   4.031   2.075   3.093
 6493SOL    HW120165   4.008   2.112   3.183
 6493SOL    HW220166   4.001   1.980   3.087
 6494SOL     OW20167   3.761   3.172   3.144
 6494SOL    HW120168   3.814   3.123   3.212
 6494SOL    HW220169   3.783   3.270   3.149
 6495SOL     OW20170   4.031   1.925   2.480
 6495SOL    HW120171   4.020   2.019   2.513
 6495SOL    HW220172   4.026   1.862   2.557
 6496SOL     OW20173   4.074   2.760   3.666
 6496SOL    HW120174   4.150   2.804   3.714
 6496SOL    HW220175   4.109   2.713   3.584
 6497SOL     OW20176   4.043   2.672   2.811
 6497SOL    HW120177   4.136   2.708   2.816
 6497SOL    HW220178   4.037   2.587   2.863
 6498SOL     OW20179   4.063   2.371   2.868
 6498SOL    HW120180   4.011   2.288   2.851
 6498SOL    HW220181   4.140   2.376   2.804
 6499SOL     OW20182   3.732   3.188   2.062
 6499SOL    HW120183   3.639   3.209   2.031
 6499SOL    HW220184   3.742   3.089   2.075
 6500SOL     OW20185   3.812   3.663   2.789
 6500SOL    HW120186   3.770   3.577   2.762
 6500SOL    HW220187   3.906   3.666   2.755
 6501SOL     OW20188   4.228   3.430   2.772
 6501SOL    HW120189   4.294   3.504   2.781
 6501SOL    HW220190   4.272   3.351   2.730
 6502SOL     OW20191   3.764   2.406   2.976
 6502SOL    HW120192   3.849   2.373   2.935
 6502SOL    HW220193   3.777   2.421   3.074
 6503SOL     OW20194   3.913   2.382   3.584
 6503SOL    HW120195   3.972   2.342   3.514
 6503SOL    HW220196   3.855   2.453   3.543
 6504SOL     OW20197   4.539   2.434   2.187
 6504SOL    HW120198   4.546   2.345   2.141
 6504SOL    HW220199   4.445   2.468   2.179
 6505SOL     OW20200   3.976   3.426   3.606
 6505SOL    HW120201   3.946   3.483   3.682
 6505SOL    HW220202   3.969   3.329   3.632
 6506SOL     OW20203   4.197   2.362   2.053
 6506SOL    HW120204   4.258   2.442   2.057
 6506SOL    HW220205   4.102   2.393   2.060
 6507SOL     OW20206   3.883   2.999   3.328
 6507SOL    HW120207   3.905   2.938   3.404
 6507SOL    HW220208   3.893   2.950   3.242
 6508SOL     OW20209   3.807   3.120   2.884
 6508SOL    HW120210   3.802   3.119   2.984
 6508SOL    HW220211   3.724   3.079   2.846
 6509SOL     OW20212   4.412   3.524   3.578
 6509SOL    HW120213   4.356   3.605   3.587
 6509SOL    HW220214   4.464   3.528   3.492
 6510SOL     OW20215   3.854   3.656   3.713
 6510SOL    HW120216   3.813   3.582   3.766
 6510SOL    HW220217   3.918   3.707   3.771
 6511SOL     OW20218   3.987   2.188   2.582
 6511SOL    HW120219   3.908   2.239   2.548
 6511SOL    HW220220   3.978   2.173   2.680
 6512SOL     OW20221   4.096   3.150   3.352
 6512SOL    HW120222   4.083   3.243   3.318
 6512SOL    HW220223   4.012   3.098   3.339
 6513SOL     OW20224   4.314   3.349   2.353
 6513SOL    HW120225   4.356   3.291   2.283
 6513SOL    HW220226   4.270   3.428   2.309
 6514SOL     OW20227   3.979   3.210   2.152
 6514SOL    HW120228   3.883   3.211   2.125
 6514SOL    HW220229   3.991   3.263   2.236
 6515SOL     OW20230   3.829   2.875   3.588
 6515SOL    HW120231   3.752   2.842   3.642
 6515SOL    HW220232   3.914   2.845   3.630
 6516SOL     OW20233   4.396   2.065   3.351
 6516SOL    HW120234   4.486   2.049   3.311
 6516SOL    HW220235   4.404   2.070   3.450
 6517SOL     OW20236   3.799   2.207   1.895
 6517SOL    HW120237   3.707   2.179   1.866
 6517SOL    HW220238   3.830   2.284   1.839
 6518SOL     OW20239   3.796   2.028   2.180
 6518SOL    HW120240   3.779   2.111   2.126
 6518SOL    HW220241   3.886   1.991   2.158
 6519SOL     OW20242   4.337   2.704   3.293
 6519SOL    HW120243   4.393   2.785   3.276
 6519SOL    HW220244   4.396   2.624   3.296
 6520SOL     OW20245   4.440   2.427   3.570
 6520SOL    HW120246   4.459   2.492   3.644
 6520SOL    HW220247   4.500   2.347   3.579
 6521SOL     OW20248   4.114   3.603   3.422
 6521SOL    HW120249   4.023   3.644   3.420
 6521SOL    HW220250   4.107   3.509   3.454
 6522SOL     OW20251   4.318   2.607   2.514
 6522SOL    HW120252   4.368   2.692   2.495
 6522SOL    HW220253   4.230   2.609   2.466
 6523SOL     OW20254   3.945   3.176   3.706
 6523SOL    HW120255   3.880   3.103   3.685
 6523SOL    HW220256   3.949   3.190   3.804
 6524SOL     OW20257   3.803   3.102   2.515
 6524SOL    HW120258   3.802   3.055   2.603
 6524SOL    HW220259   3.885   3.074   2.464
 6525SOL     OW20260   4.396   3.253   3.486
 6525SOL    HW120261   4.318   3.203   3.524
 6525SOL    HW220262   4.393   3.348   3.517
 6526SOL     OW20263   4.152   2.286   2.382
 6526SOL    HW120264   4.182   2.214   2.320
 6526SOL    HW220265   4.113   2.246   2.465
 6527SOL     OW20266   4.041   2.409   3.142
 6527SOL    HW120267   4.079   2.350   3.214
 6527SOL    HW220268   4.081   2.383   3.054
 6528SOL     OW20269   4.536   3.448   2.549
 6528SOL    HW120270   4.568   3.458   2.455
 6528SOL    HW220271   4.457   3.386   2.551
 6529SOL     OW20272   3.763   2.939   2.162
 6529SOL    HW120273   3.862   2.928   2.153
 6529SOL    HW220274   3.723   2.853   2.194
 6530SOL     OW20275   3.954   2.490   3.837
 6530SOL    HW120276   3.861   2.488   3.874
 6530SOL    HW220277   3.955   2.451   3.745
 6531SOL     OW20278   3.949   2.137   4.720
 6531SOL    HW120279   3.984   2.120   4.812
 6531SOL    HW220280   3.861   2.092   4.708
 6532SOL     OW20281   3.743   2.230   4.371
 6532SOL    HW120282   3.661   2.273   4.410
 6532SOL    HW220283   3.715   2.157   4.308
 6533SOL     OW20284   4.293   3.137   4.889
 6533SOL    HW120285   4.200   3.130   4.852
 6533SOL    HW220286   4.304   3.226   4.933
 6534SOL     OW20287   4.574   2.660   5.547
 6534SOL    HW120288   4.570   2.736   5.612
 6534SOL    HW220289   4.596   2.696   5.456
 6535SOL     OW20290   4.409   2.874   4.389
 6535SOL    HW120291   4.478   2.858   4.459
 6535SOL    HW220292   4.336   2.931   4.427
 6536SOL     OW20293   4.410   3.023   5.527
 6536SOL    HW120294   4.470   3.102   5.541
 6536SOL    HW220295   4.324   3.054   5.486
 6537SOL     OW20296   4.059   3.297   4.785
 6537SOL    HW120297   3.981   3.266   4.732
 6537SOL    HW220298   4.117   3.355   4.728
 6538SOL     OW20299   4.162   2.254   5.223
 6538SOL    HW120300   4.244   2.198   5.232
 6538SOL    HW220301   4.081   2.196   5.227
 6539SOL     OW20302   3.955   3.575   4.207
 6539SOL    HW120303   3.989   3.652   4.261
 6539SOL    HW220304   3.999   3.575   4.117
 6540SOL     OW20305   3.954   3.296   4.262
 6540SOL    HW120306   3.928   3.392   4.262
 6540SOL    HW220307   3.883   3.242   4.307
 6541SOL     OW20308   3.964   2.953   4.610
 6541SOL    HW120309   3.978   2.869   4.662
 6541SOL    HW220310   3.909   3.017   4.665
 6542SOL     OW20311   4.344   3.648   5.163
 6542SOL    HW120312   4.252   3.631   5.198
 6542SOL    HW220313   4.372   3.740   5.189
 6543SOL     OW20314   4.330   2.826   3.847
 6543SOL    HW120315   4.337   2.910   3.793
 6543SOL    HW220316   4.376   2.839   3.935
 6544SOL     OW20317   3.846   2.505   4.287
 6544SOL    HW120318   3.801   2.417   4.304
 6544SOL    HW220319   3.845   2.559   4.371
 6545SOL     OW20320   3.751   3.458   3.841
 6545SOL    HW120321   3.732   3.362   3.862
 6545SOL    HW220322   3.718   3.516   3.916
 6546SOL     OW20323   3.837   2.599   5.321
 6546SOL    HW120324   3.925   2.586   5.366
 6546SOL    HW220325   3.824   2.696   5.299
 6547SOL     OW20326   4.337   3.227   4.450
 6547SOL    HW120327   4.288   3.140   4.459
 6547SOL    HW220328   4.314   3.270   4.363
 6548SOL     OW20329   4.533   1.866   4.226
 6548SOL    HW120330   4.573   1.957   4.217
 6548SOL    HW220331   4.433   1.874   4.232
 6549SOL     OW20332   3.921   2.838   4.988
 6549SOL    HW120333   4.010   2.793   4.974
 6549SOL    HW220334   3.848   2.773   4.969
 6550SOL     OW20335   4.041   2.113   5.525
 6550SOL    HW120336   4.112   2.184   5.531
 6550SOL    HW220337   3.953   2.152   5.553
 6551SOL     OW20338   4.322   2.591   3.994
 6551SOL    HW120339   4.346   2.660   3.926
 6551SOL    HW220340   4.244   2.624   4.048
 6552SOL     OW20341   3.800   2.673   4.513
 6552SOL    HW120342   3.899   2.661   4.522
 6552SOL    HW220343   3.776   2.768   4.534
 6553SOL     OW20344   3.854   3.683   5.295
 6553SOL    HW120345   3.844   3.668   5.394
 6553SOL    HW220346   3.768   3.719   5.259
 6554SOL     OW20347   4.274   2.058   4.609
 6554SOL    HW120348   4.269   2.053   4.709
 6554SOL    HW220349   4.276   2.154   4.580
 6555SOL     OW20350   4.075   3.663   4.577
 6555SOL    HW120351   4.125   3.577   4.583
 6555SOL    HW220352   4.140   3.740   4.574
 6556SOL     OW20353   4.045   2.805   3.966
 6556SOL    HW120354   4.127   2.844   3.924
 6556SOL    HW220355   4.018   2.723   3.917
 6557SOL     OW20356   4.185   3.128   5.451
 6557SOL    HW120357   4.135   3.129   5.365
 6557SOL    HW220358   4.122   3.110   5.527
 6558SOL     OW20359   3.926   2.147   5.222
 6558SOL    HW120360   3.846   2.207   5.209
 6558SOL    HW220361   3.916   2.098   5.308
 6559SOL     OW20362   4.188   3.605   4.047
 6559SOL    HW120363   4.221   3.644   4.133
 6559SOL    HW220364   4.264   3.598   3.982
 6560SOL     OW20365   3.973   3.647   4.965
 6560SOL    HW120366   4.030   3.582   5.015
 6560SOL    HW220367   3.957   3.614   4.872
 6561SOL     OW20368   4.106   2.562   4.204
 6561SOL    HW120369   4.151   2.472   4.201
 6561SOL    HW220370   4.012   2.551   4.237
 6562SOL     OW20371   4.338   1.984   3.841
 6562SOL    HW120372   4.436   1.962   3.848
 6562SOL    HW220373   4.307   1.967   3.748
 6563SOL     OW20374   4.527   3.264   4.648
 6563SOL    HW120375   4.617   3.278   4.606
 6563SOL    HW220376   4.456   3.266   4.577
 6564SOL     OW20377   4.263   1.926   4.236
 6564SOL    HW120378   4.182   1.927   4.294
 6564SOL    HW220379   4.266   2.009   4.181
 6565SOL     OW20380   4.021   1.897   3.895
 6565SOL    HW120381   4.070   1.981   3.874
 6565SOL    HW220382   4.083   1.832   3.940
 6566SOL     OW20383   4.800   2.545   5.188
 6566SOL    HW120384   4.720   2.484   5.191
 6566SOL    HW220385   4.881   2.492   5.164
 6567SOL     OW20386   4.183   3.014   4.465
 6567SOL    HW120387   4.112   2.987   4.530
 6567SOL    HW220388   4.157   2.986   4.372
 6568SOL     OW20389   3.802   2.418   5.110
 6568SOL    HW120390   3.894   2.417   5.069
 6568SOL    HW220391   3.796   2.492   5.177
 6569SOL     OW20392   4.285   2.084   4.871
 6569SOL    HW120393   4.323   2.000   4.908
 6569SOL    HW220394   4.197   2.103   4.915
 6570SOL     OW20395   4.212   3.247   3.898
 6570SOL    HW120396   4.125   3.232   3.945
 6570SOL    HW220397   4.195   3.273   3.803
 6571SOL     OW20398   4.251   2.118   4.052
 6571SOL    HW120399   4.278   2.059   3.977
 6571SOL    HW220400   4.251   2.213   4.021
 6572SOL     OW20401   4.134   2.675   4.975
 6572SOL    HW120402   4.220   2.687   5.025
 6572SOL    HW220403   4.092   2.588   5.002
 6573SOL     OW20404   3.788   3.426   5.055
 6573SOL    HW120405   3.742   3.508   5.021
 6573SOL    HW220406   3.886   3.445   5.064
 6574SOL     OW20407   4.091   2.962   4.225
 6574SOL    HW120408   4.084   3.045   4.169
 6574SOL    HW220409   4.095   2.882   4.165
 6575SOL     OW20410   4.290   2.399   4.589
 6575SOL    HW120411   4.302   2.465   4.515
 6575SOL    HW220412   4.336   2.433   4.672
 6576SOL     OW20413   4.078   3.372   5.053
 6576SOL    HW120414   4.057   3.328   4.966
 6576SOL    HW220415   4.175   3.398   5.056
 6577SOL     OW20416   4.126   2.613   5.322
 6577SOL    HW120417   4.194   2.668   5.275
 6577SOL    HW220418   4.166   2.525   5.349
 6578SOL     OW20419   4.228   1.912   5.464
 6578SOL    HW120420   4.186   1.855   5.394
 6578SOL    HW220421   4.162   1.981   5.496
 6579SOL     OW20422   4.297   2.732   4.753
 6579SOL    HW120423   4.341   2.821   4.744
 6579SOL    HW220424   4.234   2.732   4.830
 6580SOL     OW20425   4.031   2.075   4.955
 6580SOL    HW120426   4.008   2.112   5.045
 6580SOL    HW220427   4.001   1.980   4.949
 6581SOL     OW20428   3.761   3.172   5.006
 6581SOL    HW120429   3.814   3.123   5.074
 6581SOL    HW220430   3.783   3.270   5.011
 6582SOL     OW20431   4.031   1.925   4.342
 6582SOL    HW120432   4.020   2.019   4.375
 6582SOL    HW220433   4.026   1.862   4.419
 6583SOL     OW20434   4.074   2.760   5.528
 6583SOL    HW120435   4.150   2.804   5.576
 6583SOL    HW220436   4.109   2.713   5.446
 6584SOL     OW20437   4.043   2.672   4.673
 6584SOL    HW120438   4.136   2.708   4.678
 6584SOL    HW220439   4.037   2.587   4.725
 6585SOL     OW20440   4.063   2.371   4.730
 6585SOL    HW120441   4.011   2.288   4.713
 6585SOL    HW220442   4.140   2.376   4.666
 6586SOL     OW20443   3.732   3.188   3.924
 6586SOL    HW120444   3.639   3.209   3.893
 6586SOL    HW220445   3.742   3.089   3.937
 6587SOL     OW20446   3.812   3.663   4.651
 6587SOL    HW120447   3.770   3.577   4.624
 6587SOL    HW220448   3.906   3.666   4.617
 6588SOL     OW20449   4.228   3.430   4.634
 6588SOL    HW120450   4.294   3.504   4.643
 6588SOL    HW220451   4.272   3.351   4.592
 6589SOL     OW20452   3.764   2.406   4.838
 6589SOL    HW120453   3.849   2.373   4.797
 6589SOL    HW220454   3.777   2.421   4.936
 6590SOL     OW20455   3.913   2.382   5.446
 6590SOL    HW120456   3.972   2.342   5.376
 6590SOL    HW220457   3.855   2.453   5.405
 6591SOL     OW20458   4.539   2.434   4.049
 6591SOL    HW120459   4.546   2.345   4.003
 6591SOL    HW220460   4.445   2.468   4.041
 6592SOL     OW20461   3.976   3.426   5.468
 6592SOL    HW120462   3.946   3.483   5.544
 6592SOL    HW220463   3.969   3.329   5.494
 6593SOL     OW20464   4.197   2.362   3.915
 6593SOL    HW120465   4.258   2.442   3.919
 6593SOL    HW220466   4.102   2.393   3.922
 6594SOL     OW20467   3.883   2.999   5.190
 6594SOL    HW120468   3.905   2.938   5.266
 6594SOL    HW220469   3.893   2.950   5.104
 6595SOL     OW20470   3.807   3.120   4.746
 6595SOL    HW120471   3.802   3.119   4.846
 6595SOL    HW220472   3.724   3.079   4.708
 6596SOL     OW20473   4.412   3.524   5.440
 6596SOL    HW120474   4.356   3.605   5.449
 6596SOL    HW220475   4.464   3.528   5.354
 6597SOL     OW20476   3.854   3.656   5.575
 6597SOL    HW120477   3.813   3.582   5.628
 6597SOL    HW220478   3.918   3.707   5.633
 6598SOL     OW20479   3.987   2.188   4.444
 6598SOL    HW120480   3.908   2.239   4.410
 6598SOL    HW220481   3.978   2.173   4.542
 6599SOL     OW20482   4.096   3.150   5.214
 6599SOL    HW120483   4.083   3.243   5.180
 6599SOL    HW220484   4.012   3.098   5.201
 6600SOL     OW20485   4.314   3.349   4.215
 6600SOL    HW120486   4.356   3.291   4.145
 6600SOL    HW220487   4.270   3.428   4.171
 6601SOL     OW20488   3.979   3.210   4.014
 6601SOL    HW120489   3.883   3.211   3.987
 6601SOL    HW220490   3.991   3.263   4.098
 6602SOL     OW20491   3.829   2.875   5.450
 6602SOL    HW120492   3.752   2.842   5.504
 6602SOL    HW220493   3.914   2.845   5.492
 6603SOL     OW20494   4.396   2.065   5.213
 6603SOL    HW120495   4.486   2.049   5.173
 6603SOL    HW220496   4.404   2.070   5.312
 6604SOL     OW20497   3.799   2.207   3.757
 6604SOL    HW120498   3.707   2.179   3.728
 6604SOL    HW220499   3.830   2.284   3.701
 6605SOL     OW20500   3.796   2.028   4.042
 6605SOL    HW120501   3.779   2.111   3.988
 6605SOL    HW220502   3.886   1.991   4.020
 6606SOL     OW20503   4.337   2.704   5.155
 6606SOL    HW120504   4.393   2.785   5.138
 6606SOL    HW220505   4.396   2.624   5.158
 6607SOL     OW20506   4.440   2.427   5.432
 6607SOL    HW120507   4.459   2.492   5.506
 6607SOL    HW220508   4.500   2.347   5.441
 6608SOL     OW20509   4.114   3.603   5.284
 6608SOL    HW120510   4.023   3.644   5.282
 6608SOL    HW220511   4.107   3.509   5.316
 6609SOL     OW20512   4.318   2.607   4.376
 6609SOL    HW120513   4.368   2.692   4.357
 6609SOL    HW220514   4.230   2.609   4.328
 6610SOL     OW20515   3.945   3.176   5.568
 6610SOL    HW120516   3.880   3.103   5.547
 6610SOL    HW220517   3.949   3.190   5.666
 6611SOL     OW20518   3.803   3.102   4.377
 6611SOL    HW120519   3.802   3.055   4.465
 6611SOL    HW220520   3.885   3.074   4.326
 6612SOL     OW20521   4.396   3.253   5.348
 6612SOL    HW120522   4.318   3.203   5.386
 6612SOL    HW220523   4.393   3.348   5.379
 6613SOL     OW20524   4.152   2.286   4.244
 6613SOL    HW120525   4.182   2.214   4.182
 6613SOL    HW220526   4.113   2.246   4.327
 6614SOL     OW20527   4.041   2.409   5.004
 6614SOL    HW120528   4.079   2.350   5.076
 6614SOL    HW220529   4.081   2.383   4.916
 6615SOL     OW20530   4.536   3.448   4.411
 6615SOL    HW120531   4.568   3.458   4.317
 6615SOL    HW220532   4.457   3.386   4.413
 6616SOL     OW20533   3.763   2.939   4.024
 6616SOL    HW120534   3.862   2.928   4.015
 6616SOL    HW220535   3.723   2.853   4.056
 6617SOL     OW20536   3.954   2.490   5.699
 6617SOL    HW120537   3.861   2.488   5.736
 6617SOL    HW220538   3.955   2.451   5.607
 6618SOL     OW20539   3.949   2.137   6.582
 6618SOL    HW120540   3.984   2.120   6.674
 6618SOL    HW220541   3.861   2.092   6.570
 6619SOL     OW20542   3.743   2.230   6.233
 6619SOL    HW120543   3.661   2.273   6.272
 6619SOL    HW220544   3.715   2.157   6.170
 6620SOL     OW20545   4.293   3.137   6.751
 6620SOL    HW120546   4.200   3.130   6.714
 6620SOL    HW220547   4.304   3.226   6.795
 6621SOL     OW20548   4.574   2.660   7.409
 6621SOL    HW120549   4.570   2.736   7.474
 6621SOL    HW220550   4.596   2.696   7.318
 6622SOL     OW20551   4.409   2.874   6.251
 6622SOL    HW120552   4.478   2.858   6.321
 6622SOL    HW220553   4.336   2.931   6.289
 6623SOL     OW20554   4.410   3.023   7.389
 6623SOL    HW120555   4.470   3.102   7.403
 6623SOL    HW220556   4.324   3.054   7.348
 6624SOL     OW20557   4.059   3.297   6.647
 6624SOL    HW120558   3.981   3.266   6.594
 6624SOL    HW220559   4.117   3.355   6.590
 6625SOL     OW20560   4.162   2.254   7.085
 6625SOL    HW120561   4.244   2.198   7.094
 6625SOL    HW220562   4.081   2.196   7.089
 6626SOL     OW20563   3.955   3.575   6.069
 6626SOL    HW120564   3.989   3.652   6.123
 6626SOL    HW220565   3.999   3.575   5.979
 6627SOL     OW20566   3.954   3.296   6.124
 6627SOL    HW120567   3.928   3.392   6.124
 6627SOL    HW220568   3.883   3.242   6.169
 6628SOL     OW20569   3.964   2.953   6.472
 6628SOL    HW120570   3.978   2.869   6.524
 6628SOL    HW220571   3.909   3.017   6.527
 6629SOL     OW20572   4.344   3.648   7.025
 6629SOL    HW120573   4.252   3.631   7.060
 6629SOL    HW220574   4.372   3.740   7.051
 6630SOL     OW20575   4.330   2.826   5.709
 6630SOL    HW120576   4.337   2.910   5.655
 6630SOL    HW220577   4.376   2.839   5.797
 6631SOL     OW20578   3.846   2.505   6.149
 6631SOL    HW120579   3.801   2.417   6.166
 6631SOL    HW220580   3.845   2.559   6.233
 6632SOL     OW20581   3.751   3.458   5.703
 6632SOL    HW120582   3.732   3.362   5.724
 6632SOL    HW220583   3.718   3.516   5.778
 6633SOL     OW20584   3.837   2.599   7.183
 6633SOL    HW120585   3.925   2.586   7.228
 6633SOL    HW220586   3.824   2.696   7.161
 6634SOL     OW20587   4.337   3.227   6.312
 6634SOL    HW120588   4.288   3.140   6.321
 6634SOL    HW220589   4.314   3.270   6.225
 6635SOL     OW20590   4.533   1.866   6.088
 6635SOL    HW120591   4.573   1.957   6.079
 6635SOL    HW220592   4.433   1.874   6.094
 6636SOL     OW20593   3.921   2.838   6.850
 6636SOL    HW120594   4.010   2.793   6.836
 6636SOL    HW220595   3.848   2.773   6.831
 6637SOL     OW20596   4.041   2.113   7.387
 6637SOL    HW120597   4.112   2.184   7.393
 6637SOL    HW220598   3.953   2.152   7.415
 6638SOL     OW20599   4.322   2.591   5.856
 6638SOL    HW120600   4.346   2.660   5.788
 6638SOL    HW220601   4.244   2.624   5.910
 6639SOL     OW20602   3.800   2.673   6.375
 6639SOL    HW120603   3.899   2.661   6.384
 6639SOL    HW220604   3.776   2.768   6.396
 6640SOL     OW20605   3.854   3.683   7.157
 6640SOL    HW120606   3.844   3.668   7.256
 6640SOL    HW220607   3.768   3.719   7.121
 6641SOL     OW20608   4.274   2.058   6.471
 6641SOL    HW120609   4.269   2.053   6.571
 6641SOL    HW220610   4.276   2.154   6.442
 6642SOL     OW20611   4.075   3.663   6.439
 6642SOL    HW120612   4.125   3.577   6.445
 6642SOL    HW220613   4.140   3.740   6.436
 6643SOL     OW20614   4.045   2.805   5.828
 6643SOL    HW120615   4.127   2.844   5.786
 6643SOL    HW220616   4.018   2.723   5.779
 6644SOL     OW20617   4.185   3.128   7.313
 6644SOL    HW120618   4.135   3.129   7.227
 6644SOL    HW220619   4.122   3.110   7.389
 6645SOL     OW20620   3.926   2.147   7.084
 6645SOL    HW120621   3.846   2.207   7.071
 6645SOL    HW220622   3.916   2.098   7.170
 6646SOL     OW20623   4.188   3.605   5.909
 6646SOL    HW120624   4.221   3.644   5.995
 6646SOL    HW220625   4.264   3.598   5.844
 6647SOL     OW20626   3.973   3.647   6.827
 6647SOL    HW120627   4.030   3.582   6.877
 6647SOL    HW220628   3.957   3.614   6.734
 6648SOL     OW20629   4.106   2.562   6.066
 6648SOL    HW120630   4.151   2.472   6.063
 6648SOL    HW220631   4.012   2.551   6.099
 6649SOL     OW20632   4.338   1.984   5.703
 6649SOL    HW120633   4.436   1.962   5.710
 6649SOL    HW220634   4.307   1.967   5.610
 6650SOL     OW20635   4.527   3.264   6.510
 6650SOL    HW120636   4.617   3.278   6.468
 6650SOL    HW220637   4.456   3.266   6.439
 6651SOL     OW20638   4.263   1.926   6.098
 6651SOL    HW120639   4.182   1.927   6.156
 6651SOL    HW220640   4.266   2.009   6.043
 6652SOL     OW20641   4.021   1.897   5.757
 6652SOL    HW120642   4.070   1.981   5.736
 6652SOL    HW220643   4.083   1.832   5.802
 6653SOL     OW20644   4.800   2.545   7.050
 6653SOL    HW120645   4.720   2.484   7.053
 6653SOL    HW220646   4.881   2.492   7.026
 6654SOL     OW20647   4.183   3.014   6.327
 6654SOL    HW120648   4.112   2.987   6.392
 6654SOL    HW220649   4.157   2.986   6.234
 6655SOL     OW20650   3.802   2.418   6.972
 6655SOL    HW120651   3.894   2.417   6.931
 6655SOL    HW220652   3.796   2.492   7.039
 6656SOL     OW20653   4.285   2.084   6.733
 6656SOL    HW120654   4.323   2.000   6.770
 6656SOL    HW220655   4.197   2.103   6.777
 6657SOL     OW20656   4.212   3.247   5.760
 6657SOL    HW120657   4.125   3.232   5.807
 6657SOL    HW220658   4.195   3.273   5.665
 6658SOL     OW20659   4.251   2.118   5.914
 6658SOL    HW120660   4.278   2.059   5.839
 6658SOL    HW220661   4.251   2.213   5.883
 6659SOL     OW20662   4.134   2.675   6.837
 6659SOL    HW120663   4.220   2.687   6.887
 6659SOL    HW220664   4.092   2.588   6.864
 6660SOL     OW20665   3.788   3.426   6.917
 6660SOL    HW120666   3.742   3.508   6.883
 6660SOL    HW220667   3.886   3.445   6.926
 6661SOL     OW20668   4.091   2.962   6.087
 6661SOL    HW120669   4.084   3.045   6.031
 6661SOL    HW220670   4.095   2.882   6.027
 6662SOL     OW20671   4.290   2.399   6.451
 6662SOL    HW120672   4.302   2.465   6.377
 6662SOL    HW220673   4.336   2.433   6.534
 6663SOL     OW20674   4.078   3.372   6.915
 6663SOL    HW120675   4.057   3.328   6.828
 6663SOL    HW220676   4.175   3.398   6.918
 6664SOL     OW20677   4.126   2.613   7.184
 6664SOL    HW120678   4.194   2.668   7.137
 6664SOL    HW220679   4.166   2.525   7.211
 6665SOL     OW20680   4.228   1.912   7.326
 6665SOL    HW120681   4.186   1.855   7.256
 6665SOL    HW220682   4.162   1.981   7.358
 6666SOL     OW20683   4.297   2.732   6.615
 6666SOL    HW120684   4.341   2.821   6.606
 6666SOL    HW220685   4.234   2.732   6.692
 6667SOL     OW20686   4.031   2.075   6.817
 6667SOL    HW120687   4.008   2.112   6.907
 6667SOL    HW220688   4.001   1.980   6.811
 6668SOL     OW20689   3.761   3.172   6.868
 6668SOL    HW120690   3.814   3.123   6.936
 6668SOL    HW220691   3.783   3.270   6.873
 6669SOL     OW20692   4.031   1.925   6.204
 6669SOL    HW120693   4.020   2.019   6.237
 6669SOL    HW220694   4.026   1.862   6.281
 6670SOL     OW20695   4.074   2.760   7.390
 6670SOL    HW120696   4.150   2.804   7.438
 6670SOL    HW220697   4.109   2.713   7.308
 6671SOL     OW20698   4.043   2.672   6.535
 6671SOL    HW120699   4.136   2.708   6.540
 6671SOL    HW220700   4.037   2.587   6.587
 6672SOL     OW20701   4.063   2.371   6.592
 6672SOL    HW120702   4.011   2.288   6.575
 6672SOL    HW220703   4.140   2.376   6.528
 6673SOL     OW20704   3.732   3.188   5.786
 6673SOL    HW120705   3.639   3.209   5.755
 6673SOL    HW220706   3.742   3.089   5.799
 6674SOL     OW20707   3.812   3.663   6.513
 6674SOL    HW120708   3.770   3.577   6.486
 6674SOL    HW220709   3.906   3.666   6.479
 6675SOL     OW20710   4.228   3.430   6.496
 6675SOL    HW120711   4.294   3.504   6.505
 6675SOL    HW220712   4.272   3.351   6.454
 6676SOL     OW20713   3.764   2.406   6.700
 6676SOL    HW120714   3.849   2.373   6.659
 6676SOL    HW220715   3.777   2.421   6.798
 6677SOL     OW20716   3.913   2.382   7.308
 6677SOL    HW120717   3.972   2.342   7.238
 6677SOL    HW220718   3.855   2.453   7.267
 6678SOL     OW20719   4.539   2.434   5.911
 6678SOL    HW120720   4.546   2.345   5.865
 6678SOL    HW220721   4.445   2.468   5.903
 6679SOL     OW20722   3.976   3.426   7.330
 6679SOL    HW120723   3.946   3.483   7.406
 6679SOL    HW220724   3.969   3.329   7.356
 6680SOL     OW20725   4.197   2.362   5.777
 6680SOL    HW120726   4.258   2.442   5.781
 6680SOL    HW220727   4.102   2.393   5.784
 6681SOL     OW20728   3.883   2.999   7.052
 6681SOL    HW120729   3.905   2.938   7.128
 6681SOL    HW220730   3.893   2.950   6.966
 6682SOL     OW20731   3.807   3.120   6.608
 6682SOL    HW120732   3.802   3.119   6.708
 6682SOL    HW220733   3.724   3.079   6.570
 6683SOL     OW20734   4.412   3.524   7.302
 6683SOL    HW120735   4.356   3.605   7.311
 6683SOL    HW220736   4.464   3.528   7.216
 6684SOL     OW20737   3.854   3.656   7.437
 6684SOL    HW120738   3.813   3.582   7.490
 6684SOL    HW220739   3.918   3.707   7.495
 6685SOL     OW20740   3.987   2.188   6.306
 6685SOL    HW120741   3.908   2.239   6.272
 6685SOL    HW220742   3.978   2.173   6.404
 6686SOL     OW20743   4.096   3.150   7.076
 6686SOL    HW120744   4.083   3.243   7.042
 6686SOL    HW220745   4.012   3.098   7.063
 6687SOL     OW20746   4.314   3.349   6.077
 6687SOL    HW120747   4.356   3.291   6.007
 6687SOL    HW220748   4.270   3.428   6.033
 6688SOL     OW20749   3.979   3.210   5.876
 6688SOL    HW120750   3.883   3.211   5.849
 6688SOL    HW220751   3.991   3.263   5.960
 6689SOL     OW20752   3.829   2.875   7.312
 6689SOL    HW120753   3.752   2.842   7.366
 6689SOL    HW220754   3.914   2.845   7.354
 6690SOL     OW20755   4.396   2.065   7.075
 6690SOL    HW120756   4.486   2.049   7.035
 6690SOL    HW220757   4.404   2.070   7.174
 6691SOL     OW20758   3.799   2.207   5.619
 6691SOL    HW120759   3.707   2.179   5.590
 6691SOL    HW220760   3.830   2.284   5.563
 6692SOL     OW20761   3.796   2.028   5.904
 6692SOL    HW120762   3.779   2.111   5.850
 6692SOL    HW220763   3.886   1.991   5.882
 6693SOL     OW20764   4.337   2.704   7.017
 6693SOL    HW120765   4.393   2.785   7.000
 6693SOL    HW220766   4.396   2.624   7.020
 6694SOL     OW20767   4.440   2.427   7.294
 6694SOL    HW120768   4.459   2.492   7.368
 6694SOL    HW220769   4.500   2.347   7.303
 6695SOL     OW20770   4.114   3.603   7.146
 6695SOL    HW120771   4.023   3.644   7.144
 6695SOL    HW220772   4.107   3.509   7.178
 6696SOL     OW20773   4.318   2.607   6.238
 6696SOL    HW120774   4.368   2.692   6.219
 6696SOL    HW220775   4.230   2.609   6.190
 6697SOL     OW20776   3.945   3.176   7.430
 6697SOL    HW120777   3.880   3.103   7.409
 6697SOL    HW220778   3.949   3.190   7.528
 6698SOL     OW20779   3.803   3.102   6.239
 6698SOL    HW120780   3.802   3.055   6.327
 6698SOL    HW220781   3.885   3.074   6.188
 6699SOL     OW20782   4.396   3.253   7.210
 6699SOL    HW120783   4.318   3.203   7.248
 6699SOL    HW220784   4.393   3.348   7.241
 6700SOL     OW20785   4.152   2.286   6.106
 6700SOL    HW120786   4.182   2.214   6.044
 6700SOL    HW220787   4.113   2.246   6.189
 6701SOL     OW20788   4.041   2.409   6.866
 6701SOL    HW120789   4.079   2.350   6.938
 6701SOL    HW220790   4.081   2.383   6.778
 6702SOL     OW20791   4.536   3.448   6.273
 6702SOL    HW120792   4.568   3.458   6.179
 6702SOL    HW220793   4.457   3.386   6.275
 6703SOL     OW20794   3.763   2.939   5.886
 6703SOL    HW120795   3.862   2.928   5.877
 6703SOL    HW220796   3.723   2.853   5.918
 6704SOL     OW20797   3.954   2.490   7.561
 6704SOL    HW120798   3.861   2.488   7.598
 6704SOL    HW220799   3.955   2.451   7.469
 6705SOL     OW20800   3.949   2.137   8.444
 6705SOL    HW120801   3.984   2.120   8.536
 6705SOL    HW220802   3.861   2.092   8.432
 6706SOL     OW20803   3.743   2.230   8.095
 6706SOL    HW120804   3.661   2.273   8.134
 6706SOL    HW220805   3.715   2.157   8.032
 6707SOL     OW20806   4.293   3.137   8.613
 6707SOL    HW120807   4.200   3.130   8.576
 6707SOL    HW220808   4.304   3.226   8.657
 6708SOL     OW20809   4.574   2.660   9.271
 6708SOL    HW120810   4.570   2.736   9.336
 6708SOL    HW220811   4.596   2.696   9.180
 6709SOL     OW20812   4.409   2.874   8.113
 6709SOL    HW120813   4.478   2.858   8.183
 6709SOL    HW220814   4.336   2.931   8.151
 6710SOL     OW20815   4.410   3.023   9.251
 6710SOL    HW120816   4.470   3.102   9.265
 6710SOL    HW220817   4.324   3.054   9.210
 6711SOL     OW20818   4.059   3.297   8.509
 6711SOL    HW120819   3.981   3.266   8.456
 6711SOL    HW220820   4.117   3.355   8.452
 6712SOL     OW20821   4.162   2.254   8.947
 6712SOL    HW120822   4.244   2.198   8.956
 6712SOL    HW220823   4.081   2.196   8.951
 6713SOL     OW20824   3.955   3.575   7.931
 6713SOL    HW120825   3.989   3.652   7.985
 6713SOL    HW220826   3.999   3.575   7.841
 6714SOL     OW20827   3.954   3.296   7.986
 6714SOL    HW120828   3.928   3.392   7.986
 6714SOL    HW220829   3.883   3.242   8.031
 6715SOL     OW20830   3.964   2.953   8.334
 6715SOL    HW120831   3.978   2.869   8.386
 6715SOL    HW220832   3.909   3.017   8.389
 6716SOL     OW20833   4.344   3.648   8.887
 6716SOL    HW120834   4.252   3.631   8.922
 6716SOL    HW220835   4.372   3.740   8.913
 6717SOL     OW20836   4.330   2.826   7.571
 6717SOL    HW120837   4.337   2.910   7.517
 6717SOL    HW220838   4.376   2.839   7.659
 6718SOL     OW20839   3.846   2.505   8.011
 6718SOL    HW120840   3.801   2.417   8.028
 6718SOL    HW220841   3.845   2.559   8.095
 6719SOL     OW20842   3.751   3.458   7.565
 6719SOL    HW120843   3.732   3.362   7.586
 6719SOL    HW220844   3.718   3.516   7.640
 6720SOL     OW20845   3.837   2.599   9.045
 6720SOL    HW120846   3.925   2.586   9.090
 6720SOL    HW220847   3.824   2.696   9.023
 6721SOL     OW20848   4.337   3.227   8.174
 6721SOL    HW120849   4.288   3.140   8.183
 6721SOL    HW220850   4.314   3.270   8.087
 6722SOL     OW20851   4.533   1.866   7.950
 6722SOL    HW120852   4.573   1.957   7.941
 6722SOL    HW220853   4.433   1.874   7.956
 6723SOL     OW20854   3.921   2.838   8.712
 6723SOL    HW120855   4.010   2.793   8.698
 6723SOL    HW220856   3.848   2.773   8.693
 6724SOL     OW20857   4.041   2.113   9.249
 6724SOL    HW120858   4.112   2.184   9.255
 6724SOL    HW220859   3.953   2.152   9.277
 6725SOL     OW20860   4.322   2.591   7.718
 6725SOL    HW120861   4.346   2.660   7.650
 6725SOL    HW220862   4.244   2.624   7.772
 6726SOL     OW20863   3.800   2.673   8.237
 6726SOL    HW120864   3.899   2.661   8.246
 6726SOL    HW220865   3.776   2.768   8.258
 6727SOL     OW20866   3.854   3.683   9.019
 6727SOL    HW120867   3.844   3.668   9.118
 6727SOL    HW220868   3.768   3.719   8.983
 6728SOL     OW20869   4.274   2.058   8.333
 6728SOL    HW120870   4.269   2.053   8.433
 6728SOL    HW220871   4.276   2.154   8.304
 6729SOL     OW20872   4.075   3.663   8.301
 6729SOL    HW120873   4.125   3.577   8.307
 6729SOL    HW220874   4.140   3.740   8.298
 6730SOL     OW20875   4.045   2.805   7.690
 6730SOL    HW120876   4.127   2.844   7.648
 6730SOL    HW220877   4.018   2.723   7.641
 6731SOL     OW20878   4.185   3.128   9.175
 6731SOL    HW120879   4.135   3.129   9.089
 6731SOL    HW220880   4.122   3.110   9.251
 6732SOL     OW20881   3.926   2.147   8.946
 6732SOL    HW120882   3.846   2.207   8.933
 6732SOL    HW220883   3.916   2.098   9.032
 6733SOL     OW20884   4.188   3.605   7.771
 6733SOL    HW120885   4.221   3.644   7.857
 6733SOL    HW220886   4.264   3.598   7.706
 6734SOL     OW20887   3.973   3.647   8.689
 6734SOL    HW120888   4.030   3.582   8.739
 6734SOL    HW220889   3.957   3.614   8.596
 6735SOL     OW20890   4.106   2.562   7.928
 6735SOL    HW120891   4.151   2.472   7.925
 6735SOL    HW220892   4.012   2.551   7.961
 6736SOL     OW20893   4.338   1.984   7.565
 6736SOL    HW120894   4.436   1.962   7.572
 6736SOL    HW220895   4.307   1.967   7.472
 6737SOL     OW20896   4.527   3.264   8.372
 6737SOL    HW120897   4.617   3.278   8.330
 6737SOL    HW220898   4.456   3.266   8.301
 6738SOL     OW20899   4.263   1.926   7.960
 6738SOL    HW120900   4.182   1.927   8.018
 6738SOL    HW220901   4.266   2.009   7.905
 6739SOL     OW20902   4.021   1.897   7.619
 6739SOL    HW120903   4.070   1.981   7.598
 6739SOL    HW220904   4.083   1.832   7.664
 6740SOL     OW20905   4.800   2.545   8.912
 6740SOL    HW120906   4.720   2.484   8.915
 6740SOL    HW220907   4.881   2.492   8.888
 6741SOL     OW20908   4.183   3.014   8.189
 6741SOL    HW120909   4.112   2.987   8.254
 6741SOL    HW220910   4.157   2.986   8.096
 6742SOL     OW20911   3.802   2.418   8.834
 6742SOL    HW120912   3.894   2.417   8.793
 6742SOL    HW220913   3.796   2.492   8.901
 6743SOL     OW20914   4.285   2.084   8.595
 6743SOL    HW120915   4.323   2.000   8.632
 6743SOL    HW220916   4.197   2.103   8.639
 6744SOL     OW20917   4.212   3.247   7.622
 6744SOL    HW120918   4.125   3.232   7.669
 6744SOL    HW220919   4.195   3.273   7.527
 6745SOL     OW20920   4.251   2.118   7.776
 6745SOL    HW120921   4.278   2.059   7.701
 6745SOL    HW220922   4.251   2.213   7.745
 6746SOL     OW20923   4.134   2.675   8.699
 6746SOL    HW120924   4.220   2.687   8.749
 6746SOL    HW220925   4.092   2.588   8.726
 6747SOL     OW20926   3.788   3.426   8.779
 6747SOL    HW120927   3.742   3.508   8.745
 6747SOL    HW220928   3.886   3.445   8.788
 6748SOL     OW20929   4.091   2.962   7.949
 6748SOL    HW120930   4.084   3.045   7.893
 6748SOL    HW220931   4.095   2.882   7.889
 6749SOL     OW20932   4.290   2.399   8.313
 6749SOL    HW120933   4.302   2.465   8.239
 6749SOL    HW220934   4.336   2.433   8.396
 6750SOL     OW20935   4.078   3.372   8.777
 6750SOL    HW120936   4.057   3.328   8.690
 6750SOL    HW220937   4.175   3.398   8.780
 6751SOL     OW20938   4.126   2.613   9.046
 6751SOL    HW120939   4.194   2.668   8.999
 6751SOL    HW220940   4.166   2.525   9.073
 6752SOL     OW20941   4.228   1.912   9.188
 6752SOL    HW120942   4.186   1.855   9.118
 6752SOL    HW220943   4.162   1.981   9.220
 6753SOL     OW20944   4.297   2.732   8.477
 6753SOL    HW120945   4.341   2.821   8.468
 6753SOL    HW220946   4.234   2.732   8.554
 6754SOL     OW20947   4.031   2.075   8.679
 6754SOL    HW120948   4.008   2.112   8.769
 6754SOL    HW220949   4.001   1.980   8.673
 6755SOL     OW20950   3.761   3.172   8.730
 6755SOL    HW120951   3.814   3.123   8.798
 6755SOL    HW220952   3.783   3.270   8.735
 6756SOL     OW20953   4.031   1.925   8.066
 6756SOL    HW120954   4.020   2.019   8.099
 6756SOL    HW220955   4.026   1.862   8.143
 6757SOL     OW20956   4.074   2.760   9.252
 6757SOL    HW120957   4.150   2.804   9.300
 6757SOL    HW220958   4.109   2.713   9.170
 6758SOL     OW20959   4.043   2.672   8.397
 6758SOL    HW120960   4.136   2.708   8.402
 6758SOL    HW220961   4.037   2.587   8.449
 6759SOL     OW20962   4.063   2.371   8.454
 6759SOL    HW120963   4.011   2.288   8.437
 6759SOL    HW220964   4.140   2.376   8.390
 6760SOL     OW20965   3.732   3.188   7.648
 6760SOL    HW120966   3.639   3.209   7.617
 6760SOL    HW220967   3.742   3.089   7.661
 6761SOL     OW20968   3.812   3.663   8.375
 6761SOL    HW120969   3.770   3.577   8.348
 6761SOL    HW220970   3.906   3.666   8.341
 6762SOL     OW20971   4.228   3.430   8.358
 6762SOL    HW120972   4.294   3.504   8.367
 6762SOL    HW220973   4.272   3.351   8.316
 6763SOL     OW20974   3.764   2.406   8.562
 6763SOL    HW120975   3.849   2.373   8.521
 6763SOL    HW220976   3.777   2.421   8.660
 6764SOL     OW20977   3.913   2.382   9.170
 6764SOL    HW120978   3.972   2.342   9.100
 6764SOL    HW220979   3.855   2.453   9.129
 6765SOL     OW20980   4.539   2.434   7.773
 6765SOL    HW120981   4.546   2.345   7.727
 6765SOL    HW220982   4.445   2.468   7.765
 6766SOL     OW20983   3.976   3.426   9.192
 6766SOL    HW120984   3.946   3.483   9.268
 6766SOL    HW220985   3.969   3.329   9.218
 6767SOL     OW20986   4.197   2.362   7.639
 6767SOL    HW120987   4.258   2.442   7.643
 6767SOL    HW220988   4.102   2.393   7.646
 6768SOL     OW20989   3.883   2.999   8.914
 6768SOL    HW120990   3.905   2.938   8.990
 6768SOL    HW220991   3.893   2.950   8.828
 6769SOL     OW20992   3.807   3.120   8.470
 6769SOL    HW120993   3.802   3.119   8.570
 6769SOL    HW220994   3.724   3.079   8.432
 6770SOL     OW20995   4.412   3.524   9.164
 6770SOL    HW120996   4.356   3.605   9.173
 6770SOL    HW220997   4.464   3.528   9.078
 6771SOL     OW20998   3.854   3.656   9.299
 6771SOL    HW120999   3.813   3.582   9.352
 6771SOL    HW221000   3.918   3.707   9.357
 6772SOL     OW21001   3.987   2.188   8.168
 6772SOL    HW121002   3.908   2.239   8.134
 6772SOL    HW221003   3.978   2.173   8.266
 6773SOL     OW21004   4.096   3.150   8.938
 6773SOL    HW121005   4.083   3.243   8.904
 6773SOL    HW221006   4.012   3.098   8.925
 6774SOL     OW21007   4.314   3.349   7.939
 6774SOL    HW121008   4.356   3.291   7.869
 6774SOL    HW221009   4.270   3.428   7.895
 6775SOL     OW21010   3.979   3.210   7.738
 6775SOL    HW121011   3.883   3.211   7.711
 6775SOL    HW221012   3.991   3.263   7.822
 6776SOL     OW21013   3.829   2.875   9.174
 6776SOL    HW121014   3.752   2.842   9.228
 6776SOL    HW221015   3.914   2.845   9.216
 6777SOL     OW21016   4.396   2.065   8.937
 6777SOL    HW121017   4.486   2.049   8.897
 6777SOL    HW221018   4.404   2.070   9.036
 6778SOL     OW21019   3.799   2.207   7.481
 6778SOL    HW121020   3.707   2.179   7.452
 6778SOL    HW221021   3.830   2.284   7.425
 6779SOL     OW21022   3.796   2.028   7.766
 6779SOL    HW121023   3.779   2.111   7.712
 6779SOL    HW221024   3.886   1.991   7.744
 6780SOL     OW21025   4.337   2.704   8.879
 6780SOL    HW121026   4.393   2.785   8.862
 6780SOL    HW221027   4.396   2.624   8.882
 6781SOL     OW21028   4.440   2.427   9.156
 6781SOL    HW121029   4.459   2.492   9.230
 6781SOL    HW221030   4.500   2.347   9.165
 6782SOL     OW21031   4.114   3.603   9.008
 6782SOL    HW121032   4.023   3.644   9.006
 6782SOL    HW221033   4.107   3.509   9.040
 6783SOL     OW21034   4.318   2.607   8.100
 6783SOL    HW121035   4.368   2.692   8.081
 6783SOL    HW221036   4.230   2.609   8.052
 6784SOL     OW21037   3.945   3.176   9.292
 6784SOL    HW121038   3.880   3.103   9.271
 6784SOL    HW221039   3.949   3.190   9.390
 6785SOL     OW21040   3.803   3.102   8.101
 6785SOL    HW121041   3.802   3.055   8.189
 6785SOL    HW221042   3.885   3.074   8.050
 6786SOL     OW21043   4.396   3.253   9.072
 6786SOL    HW121044   4.318   3.203   9.110
 6786SOL    HW221045   4.393   3.348   9.103
 6787SOL     OW21046   4.152   2.286   7.968
 6787SOL    HW121047   4.182   2.214   7.906
 6787SOL    HW221048   4.113   2.246   8.051
 6788SOL     OW21049   4.041   2.409   8.728
 6788SOL    HW121050   4.079   2.350   8.800
 6788SOL    HW221051   4.081   2.383   8.640
 6789SOL     OW21052   4.536   3.448   8.135
 6789SOL    HW121053   4.568   3.458   8.041
 6789SOL    HW221054   4.457   3.386   8.137
 6790SOL     OW21055   3.763   2.939   7.748
 6790SOL    HW121056   3.862   2.928   7.739
 6790SOL    HW221057   3.723   2.853   7.780
 6791SOL     OW21058   3.954   2.490   9.423
 6791SOL    HW121059   3.861   2.488   9.460
 6791SOL    HW221060   3.955   2.451   9.331
 6792SOL     OW21061   3.949   2.137  10.306
 6792SOL    HW121062   3.984   2.120  10.398
 6792SOL    HW221063   3.861   2.092  10.294
 6793SOL     OW21064   3.743   2.230   9.957
 6793SOL    HW121065   3.661   2.273   9.996
 6793SOL    HW221066   3.715   2.157   9.894
 6794SOL     OW21067   4.293   3.137  10.475
 6794SOL    HW121068   4.200   3.130  10.438
 6794SOL    HW221069   4.304   3.226  10.519
 6795SOL     OW21070   4.574   2.660  11.133
 6795SOL    HW121071   4.570   2.736  11.198
 6795SOL    HW221072   4.596   2.696  11.042
 6796SOL     OW21073   4.409   2.874   9.975
 6796SOL    HW121074   4.478   2.858  10.045
 6796SOL    HW221075   4.336   2.931  10.013
 6797SOL     OW21076   4.059   3.297  10.371
 6797SOL    HW121077   3.981   3.266  10.318
 6797SOL    HW221078   4.117   3.355  10.314
 6798SOL     OW21079   4.162   2.254  10.809
 6798SOL    HW121080   4.244   2.198  10.818
 6798SOL    HW221081   4.081   2.196  10.813
 6799SOL     OW21082   3.955   3.575   9.793
 6799SOL    HW121083   3.989   3.652   9.847
 6799SOL    HW221084   3.999   3.575   9.703
 6800SOL     OW21085   3.954   3.296   9.848
 6800SOL    HW121086   3.928   3.392   9.848
 6800SOL    HW221087   3.883   3.242   9.893
 6801SOL     OW21088   3.964   2.953  10.196
 6801SOL    HW121089   3.978   2.869  10.248
 6801SOL    HW221090   3.909   3.017  10.251
 6802SOL     OW21091   4.344   3.648  10.749
 6802SOL    HW121092   4.252   3.631  10.784
 6802SOL    HW221093   4.372   3.740  10.775
 6803SOL     OW21094   4.330   2.826   9.433
 6803SOL    HW121095   4.337   2.910   9.379
 6803SOL    HW221096   4.376   2.839   9.521
 6804SOL     OW21097   3.846   2.505   9.873
 6804SOL    HW121098   3.801   2.417   9.890
 6804SOL    HW221099   3.845   2.559   9.957
 6805SOL     OW21100   3.751   3.458   9.427
 6805SOL    HW121101   3.732   3.362   9.448
 6805SOL    HW221102   3.718   3.516   9.502
 6806SOL     OW21103   3.837   2.599  10.907
 6806SOL    HW121104   3.925   2.586  10.952
 6806SOL    HW221105   3.824   2.696  10.885
 6807SOL     OW21106   4.337   3.227  10.036
 6807SOL    HW121107   4.288   3.140  10.045
 6807SOL    HW221108   4.314   3.270   9.949
 6808SOL     OW21109   4.533   1.866   9.812
 6808SOL    HW121110   4.573   1.957   9.803
 6808SOL    HW221111   4.433   1.874   9.818
 6809SOL     OW21112   3.921   2.838  10.574
 6809SOL    HW121113   4.010   2.793  10.560
 6809SOL    HW221114   3.848   2.773  10.555
 6810SOL     OW21115   4.041   2.113  11.111
 6810SOL    HW121116   4.112   2.184  11.117
 6810SOL    HW221117   3.953   2.152  11.139
 6811SOL     OW21118   4.322   2.591   9.580
 6811SOL    HW121119   4.346   2.660   9.512
 6811SOL    HW221120   4.244   2.624   9.634
 6812SOL     OW21121   3.800   2.673  10.099
 6812SOL    HW121122   3.899   2.661  10.108
 6812SOL    HW221123   3.776   2.768  10.120
 6813SOL     OW21124   3.854   3.683  10.881
 6813SOL    HW121125   3.844   3.668  10.980
 6813SOL    HW221126   3.768   3.719  10.845
 6814SOL     OW21127   4.274   2.058  10.195
 6814SOL    HW121128   4.269   2.053  10.295
 6814SOL    HW221129   4.276   2.154  10.166
 6815SOL     OW21130   4.075   3.663  10.163
 6815SOL    HW121131   4.125   3.577  10.169
 6815SOL    HW221132   4.140   3.740  10.160
 6816SOL     OW21133   4.045   2.805   9.552
 6816SOL    HW121134   4.127   2.844   9.510
 6816SOL    HW221135   4.018   2.723   9.503
 6817SOL     OW21136   4.185   3.128  11.037
 6817SOL    HW121137   4.135   3.129  10.951
 6817SOL    HW221138   4.122   3.110  11.113
 6818SOL     OW21139   3.926   2.147  10.808
 6818SOL    HW121140   3.846   2.207  10.795
 6818SOL    HW221141   3.916   2.098  10.894
 6819SOL     OW21142   4.188   3.605   9.633
 6819SOL    HW121143   4.221   3.644   9.719
 6819SOL    HW221144   4.264   3.598   9.568
 6820SOL     OW21145   3.973   3.647  10.551
 6820SOL    HW121146   4.030   3.582  10.601
 6820SOL    HW221147   3.957   3.614  10.458
 6821SOL     OW21148   4.106   2.562   9.790
 6821SOL    HW121149   4.151   2.472   9.787
 6821SOL    HW221150   4.012   2.551   9.823
 6822SOL     OW21151   4.338   1.984   9.427
 6822SOL    HW121152   4.436   1.962   9.434
 6822SOL    HW221153   4.307   1.967   9.334
 6823SOL     OW21154   4.527   3.264  10.234
 6823SOL    HW121155   4.617   3.278  10.192
 6823SOL    HW221156   4.456   3.266  10.163
 6824SOL     OW21157   4.263   1.926   9.822
 6824SOL    HW121158   4.182   1.927   9.880
 6824SOL    HW221159   4.266   2.009   9.767
 6825SOL     OW21160   4.021   1.897   9.481
 6825SOL    HW121161   4.070   1.981   9.460
 6825SOL    HW221162   4.083   1.832   9.526
 6826SOL     OW21163   4.800   2.545  10.774
 6826SOL    HW121164   4.720   2.484  10.777
 6826SOL    HW221165   4.881   2.492  10.750
 6827SOL     OW21166   4.183   3.014  10.051
 6827SOL    HW121167   4.112   2.987  10.116
 6827SOL    HW221168   4.157   2.986   9.958
 6828SOL     OW21169   3.802   2.418  10.696
 6828SOL    HW121170   3.894   2.417  10.655
 6828SOL    HW221171   3.796   2.492  10.763
 6829SOL     OW21172   4.285   2.084  10.457
 6829SOL    HW121173   4.323   2.000  10.494
 6829SOL    HW221174   4.197   2.103  10.501
 6830SOL     OW21175   4.212   3.247   9.484
 6830SOL    HW121176   4.125   3.232   9.531
 6830SOL    HW221177   4.195   3.273   9.389
 6831SOL     OW21178   4.251   2.118   9.638
 6831SOL    HW121179   4.278   2.059   9.563
 6831SOL    HW221180   4.251   2.213   9.607
 6832SOL     OW21181   4.134   2.675  10.561
 6832SOL    HW121182   4.220   2.687  10.611
 6832SOL    HW221183   4.092   2.588  10.588
 6833SOL     OW21184   3.788   3.426  10.641
 6833SOL    HW121185   3.742   3.508  10.607
 6833SOL    HW221186   3.886   3.445  10.650
 6834SOL     OW21187   4.091   2.962   9.811
 6834SOL    HW121188   4.084   3.045   9.755
 6834SOL    HW221189   4.095   2.882   9.751
 6835SOL     OW21190   4.290   2.399  10.175
 6835SOL    HW121191   4.302   2.465  10.101
 6835SOL    HW221192   4.336   2.433  10.258
 6836SOL     OW21193   4.078   3.372  10.639
 6836SOL    HW121194   4.057   3.328  10.552
 6836SOL    HW221195   4.175   3.398  10.642
 6837SOL     OW21196   4.126   2.613  10.908
 6837SOL    HW121197   4.194   2.668  10.861
 6837SOL    HW221198   4.166   2.525  10.935
 6838SOL     OW21199   4.297   2.732  10.339
 6838SOL    HW121200   4.341   2.821  10.330
 6838SOL    HW221201   4.234   2.732  10.416
 6839SOL     OW21202   4.031   2.075  10.541
 6839SOL    HW121203   4.008   2.112  10.631
 6839SOL    HW221204   4.001   1.980  10.535
 6840SOL     OW21205   3.761   3.172  10.592
 6840SOL    HW121206   3.814   3.123  10.660
 6840SOL    HW221207   3.783   3.270  10.597
 6841SOL     OW21208   4.031   1.925   9.928
 6841SOL    HW121209   4.020   2.019   9.961
 6841SOL    HW221210   4.026   1.862  10.005
 6842SOL     OW21211   4.074   2.760  11.114
 6842SOL    HW121212   4.150   2.804  11.162
 6842SOL    HW221213   4.109   2.713  11.032
 6843SOL     OW21214   4.043   2.672  10.259
 6843SOL    HW121215   4.136   2.708  10.264
 6843SOL    HW221216   4.037   2.587  10.311
 6844SOL     OW21217   4.063   2.371  10.316
 6844SOL    HW121218   4.011   2.288  10.299
 6844SOL    HW221219   4.140   2.376  10.252
 6845SOL     OW21220   3.732   3.188   9.510
 6845SOL    HW121221   3.639   3.209   9.479
 6845SOL    HW221222   3.742   3.089   9.523
 6846SOL     OW21223   3.812   3.663  10.237
 6846SOL    HW121224   3.770   3.577  10.210
 6846SOL    HW221225   3.906   3.666  10.203
 6847SOL     OW21226   4.228   3.430  10.220
 6847SOL    HW121227   4.294   3.504  10.229
 6847SOL    HW221228   4.272   3.351  10.178
 6848SOL     OW21229   3.764   2.406  10.424
 6848SOL    HW121230   3.849   2.373  10.383
 6848SOL    HW221231   3.777   2.421  10.522
 6849SOL     OW21232   4.539   2.434   9.635
 6849SOL    HW121233   4.546   2.345   9.589
 6849SOL    HW221234   4.445   2.468   9.627
 6850SOL     OW21235   3.976   3.426  11.054
 6850SOL    HW121236   3.946   3.483  11.130
 6850SOL    HW221237   3.969   3.329  11.080
 6851SOL     OW21238   4.197   2.362   9.501
 6851SOL    HW121239   4.258   2.442   9.505
 6851SOL    HW221240   4.102   2.393   9.508
 6852SOL     OW21241   3.883   2.999  10.776
 6852SOL    HW121242   3.905   2.938  10.852
 6852SOL    HW221243   3.893   2.950  10.690
 6853SOL     OW21244   3.807   3.120  10.332
 6853SOL    HW121245   3.802   3.119  10.432
 6853SOL    HW221246   3.724   3.079  10.294
 6854SOL     OW21247   4.412   3.524  11.026
 6854SOL    HW121248   4.356   3.605  11.035
 6854SOL    HW221249   4.464   3.528  10.940
 6855SOL     OW21250   3.987   2.188  10.030
 6855SOL    HW121251   3.908   2.239   9.996
 6855SOL    HW221252   3.978   2.173  10.128
 6856SOL     OW21253   4.096   3.150  10.800
 6856SOL    HW121254   4.083   3.243  10.766
 6856SOL    HW221255   4.012   3.098  10.787
 6857SOL     OW21256   4.314   3.349   9.801
 6857SOL    HW121257   4.356   3.291   9.731
 6857SOL    HW221258   4.270   3.428   9.757
 6858SOL     OW21259   3.979   3.210   9.600
 6858SOL    HW121260   3.883   3.211   9.573
 6858SOL    HW221261   3.991   3.263   9.684
 6859SOL     OW21262   3.829   2.875  11.036
 6859SOL    HW121263   3.752   2.842  11.090
 6859SOL    HW221264   3.914   2.845  11.078
 6860SOL     OW21265   4.396   2.065  10.799
 6860SOL    HW121266   4.486   2.049  10.759
 6860SOL    HW221267   4.404   2.070  10.898
 6861SOL     OW21268   3.799   2.207   9.343
 6861SOL    HW121269   3.707   2.179   9.314
 6861SOL    HW221270   3.830   2.284   9.287
 6862SOL     OW21271   3.796   2.028   9.628
 6862SOL    HW121272   3.779   2.111   9.574
 6862SOL    HW221273   3.886   1.991   9.606
 6863SOL     OW21274   4.337   2.704  10.741
 6863SOL    HW121275   4.393   2.785  10.724
 6863SOL    HW221276   4.396   2.624  10.744
 6864SOL     OW21277   4.114   3.603  10.870
 6864SOL    HW121278   4.023   3.644  10.868
 6864SOL    HW221279   4.107   3.509  10.902
 6865SOL     OW21280   4.318   2.607   9.962
 6865SOL    HW121281   4.368   2.692   9.943
 6865SOL    HW221282   4.230   2.609   9.914
 6866SOL     OW21283   3.803   3.102   9.963
 6866SOL    HW121284   3.802   3.055  10.051
 6866SOL    HW221285   3.885   3.074   9.912
 6867SOL     OW21286   4.396   3.253  10.934
 6867SOL    HW121287   4.318   3.203  10.972
 6867SOL    HW221288   4.393   3.348  10.965
 6868SOL     OW21289   4.152   2.286   9.830
 6868SOL    HW121290   4.182   2.214   9.768
 6868SOL    HW221291   4.113   2.246   9.913
 6869SOL     OW21292   4.041   2.409  10.590
 6869SOL    HW121293   4.079   2.350  10.662
 6869SOL    HW221294   4.081   2.383  10.502
 6870SOL     OW21295   4.536   3.448   9.997
 6870SOL    HW121296   4.568   3.458   9.903
 6870SOL    HW221297   4.457   3.386   9.999
 6871SOL     OW21298   3.763   2.939   9.610
 6871SOL    HW121299   3.862   2.928   9.601
 6871SOL    HW221300   3.723   2.853   9.642
 6872SOL     OW21301   3.954   4.352   0.113
 6872SOL    HW121302   3.861   4.350   0.150
 6872SOL    HW221303   3.955   4.313   0.021
 6873SOL     OW21304   3.949   3.999   0.996
 6873SOL    HW121305   3.984   3.982   1.088
 6873SOL    HW221306   3.861   3.954   0.984
 6874SOL     OW21307   3.743   4.092   0.647
 6874SOL    HW121308   3.661   4.135   0.686
 6874SOL    HW221309   3.715   4.019   0.584
 6875SOL     OW21310   4.574   4.522   1.823
 6875SOL    HW121311   4.570   4.598   1.888
 6875SOL    HW221312   4.596   4.558   1.732
 6876SOL     OW21313   4.162   4.116   1.499
 6876SOL    HW121314   4.244   4.060   1.508
 6876SOL    HW221315   4.081   4.058   1.503
 6877SOL     OW21316   3.846   4.367   0.563
 6877SOL    HW121317   3.801   4.279   0.580
 6877SOL    HW221318   3.845   4.421   0.647
 6878SOL     OW21319   3.837   4.461   1.597
 6878SOL    HW121320   3.925   4.448   1.642
 6878SOL    HW221321   3.824   4.558   1.575
 6879SOL     OW21322   4.533   3.728   0.502
 6879SOL    HW121323   4.573   3.819   0.493
 6879SOL    HW221324   4.433   3.736   0.508
 6880SOL     OW21325   4.041   3.975   1.801
 6880SOL    HW121326   4.112   4.046   1.807
 6880SOL    HW221327   3.953   4.014   1.829
 6881SOL     OW21328   4.274   3.920   0.885
 6881SOL    HW121329   4.269   3.915   0.985
 6881SOL    HW221330   4.276   4.016   0.856
 6882SOL     OW21331   3.926   4.009   1.498
 6882SOL    HW121332   3.846   4.069   1.485
 6882SOL    HW221333   3.916   3.960   1.584
 6883SOL     OW21334   4.106   4.424   0.480
 6883SOL    HW121335   4.151   4.334   0.477
 6883SOL    HW221336   4.012   4.413   0.513
 6884SOL     OW21337   4.338   3.846   0.117
 6884SOL    HW121338   4.436   3.824   0.124
 6884SOL    HW221339   4.307   3.829   0.024
 6885SOL     OW21340   4.263   3.788   0.512
 6885SOL    HW121341   4.182   3.789   0.570
 6885SOL    HW221342   4.266   3.871   0.457
 6886SOL     OW21343   4.021   3.759   0.171
 6886SOL    HW121344   4.070   3.843   0.150
 6886SOL    HW221345   4.083   3.694   0.216
 6887SOL     OW21346   4.800   4.407   1.464
 6887SOL    HW121347   4.720   4.346   1.467
 6887SOL    HW221348   4.881   4.354   1.440
 6888SOL     OW21349   3.802   4.280   1.386
 6888SOL    HW121350   3.894   4.279   1.345
 6888SOL    HW221351   3.796   4.354   1.453
 6889SOL     OW21352   4.285   3.946   1.147
 6889SOL    HW121353   4.323   3.862   1.184
 6889SOL    HW221354   4.197   3.965   1.191
 6890SOL     OW21355   4.251   3.980   0.328
 6890SOL    HW121356   4.278   3.921   0.253
 6890SOL    HW221357   4.251   4.075   0.297
 6891SOL     OW21358   4.134   4.537   1.251
 6891SOL    HW121359   4.220   4.549   1.301
 6891SOL    HW221360   4.092   4.450   1.278
 6892SOL     OW21361   4.290   4.261   0.865
 6892SOL    HW121362   4.302   4.327   0.791
 6892SOL    HW221363   4.336   4.295   0.948
 6893SOL     OW21364   4.228   3.774   1.740
 6893SOL    HW121365   4.186   3.717   1.670
 6893SOL    HW221366   4.162   3.843   1.772
 6894SOL     OW21367   4.031   3.937   1.231
 6894SOL    HW121368   4.008   3.974   1.321
 6894SOL    HW221369   4.001   3.842   1.225
 6895SOL     OW21370   4.031   3.787   0.618
 6895SOL    HW121371   4.020   3.881   0.651
 6895SOL    HW221372   4.026   3.724   0.695
 6896SOL     OW21373   4.043   4.534   0.949
 6896SOL    HW121374   4.136   4.570   0.954
 6896SOL    HW221375   4.037   4.449   1.001
 6897SOL     OW21376   4.063   4.233   1.006
 6897SOL    HW121377   4.011   4.150   0.989
 6897SOL    HW221378   4.140   4.238   0.942
 6898SOL     OW21379   3.764   4.268   1.114
 6898SOL    HW121380   3.849   4.235   1.073
 6898SOL    HW221381   3.777   4.283   1.212
 6899SOL     OW21382   3.913   4.244   1.722
 6899SOL    HW121383   3.972   4.204   1.652
 6899SOL    HW221384   3.855   4.315   1.681
 6900SOL     OW21385   4.539   4.296   0.325
 6900SOL    HW121386   4.546   4.207   0.279
 6900SOL    HW221387   4.445   4.330   0.317
 6901SOL     OW21388   4.197   4.224   0.191
 6901SOL    HW121389   4.258   4.304   0.195
 6901SOL    HW221390   4.102   4.255   0.198
 6902SOL     OW21391   3.987   4.050   0.720
 6902SOL    HW121392   3.908   4.101   0.686
 6902SOL    HW221393   3.978   4.035   0.818
 6903SOL     OW21394   4.396   3.927   1.489
 6903SOL    HW121395   4.486   3.911   1.449
 6903SOL    HW221396   4.404   3.932   1.588
 6904SOL     OW21397   3.799   4.069   0.033
 6904SOL    HW121398   3.707   4.041   0.004
 6904SOL    HW221399   3.830   4.146  -0.023
 6905SOL     OW21400   3.796   3.890   0.318
 6905SOL    HW121401   3.779   3.973   0.264
 6905SOL    HW221402   3.886   3.853   0.296
 6906SOL     OW21403   4.440   4.289   1.708
 6906SOL    HW121404   4.459   4.354   1.782
 6906SOL    HW221405   4.500   4.209   1.717
 6907SOL     OW21406   4.152   4.148   0.520
 6907SOL    HW121407   4.182   4.076   0.458
 6907SOL    HW221408   4.113   4.108   0.603
 6908SOL     OW21409   4.041   4.271   1.280
 6908SOL    HW121410   4.079   4.212   1.352
 6908SOL    HW221411   4.081   4.245   1.192
 6909SOL     OW21412   3.954   4.352   1.975
 6909SOL    HW121413   3.861   4.350   2.012
 6909SOL    HW221414   3.955   4.313   1.883
 6910SOL     OW21415   3.949   3.999   2.858
 6910SOL    HW121416   3.984   3.982   2.950
 6910SOL    HW221417   3.861   3.954   2.846
 6911SOL     OW21418   3.743   4.092   2.509
 6911SOL    HW121419   3.661   4.135   2.548
 6911SOL    HW221420   3.715   4.019   2.446
 6912SOL     OW21421   4.574   4.522   3.685
 6912SOL    HW121422   4.570   4.598   3.750
 6912SOL    HW221423   4.596   4.558   3.594
 6913SOL     OW21424   4.162   4.116   3.361
 6913SOL    HW121425   4.244   4.060   3.370
 6913SOL    HW221426   4.081   4.058   3.365
 6914SOL     OW21427   3.846   4.367   2.425
 6914SOL    HW121428   3.801   4.279   2.442
 6914SOL    HW221429   3.845   4.421   2.509
 6915SOL     OW21430   3.837   4.461   3.459
 6915SOL    HW121431   3.925   4.448   3.504
 6915SOL    HW221432   3.824   4.558   3.437
 6916SOL     OW21433   4.533   3.728   2.364
 6916SOL    HW121434   4.573   3.819   2.355
 6916SOL    HW221435   4.433   3.736   2.370
 6917SOL     OW21436   4.041   3.975   3.663
 6917SOL    HW121437   4.112   4.046   3.669
 6917SOL    HW221438   3.953   4.014   3.691
 6918SOL     OW21439   4.274   3.920   2.747
 6918SOL    HW121440   4.269   3.915   2.847
 6918SOL    HW221441   4.276   4.016   2.718
 6919SOL     OW21442   3.926   4.009   3.360
 6919SOL    HW121443   3.846   4.069   3.347
 6919SOL    HW221444   3.916   3.960   3.446
 6920SOL     OW21445   4.106   4.424   2.342
 6920SOL    HW121446   4.151   4.334   2.339
 6920SOL    HW221447   4.012   4.413   2.375
 6921SOL     OW21448   4.338   3.846   1.979
 6921SOL    HW121449   4.436   3.824   1.986
 6921SOL    HW221450   4.307   3.829   1.886
 6922SOL     OW21451   4.263   3.788   2.374
 6922SOL    HW121452   4.182   3.789   2.432
 6922SOL    HW221453   4.266   3.871   2.319
 6923SOL     OW21454   4.021   3.759   2.033
 6923SOL    HW121455   4.070   3.843   2.012
 6923SOL    HW221456   4.083   3.694   2.078
 6924SOL     OW21457   4.800   4.407   3.326
 6924SOL    HW121458   4.720   4.346   3.329
 6924SOL    HW221459   4.881   4.354   3.302
 6925SOL     OW21460   3.802   4.280   3.248
 6925SOL    HW121461   3.894   4.279   3.207
 6925SOL    HW221462   3.796   4.354   3.315
 6926SOL     OW21463   4.285   3.946   3.009
 6926SOL    HW121464   4.323   3.862   3.046
 6926SOL    HW221465   4.197   3.965   3.053
 6927SOL     OW21466   4.251   3.980   2.190
 6927SOL    HW121467   4.278   3.921   2.115
 6927SOL    HW221468   4.251   4.075   2.159
 6928SOL     OW21469   4.134   4.537   3.113
 6928SOL    HW121470   4.220   4.549   3.163
 6928SOL    HW221471   4.092   4.450   3.140
 6929SOL     OW21472   4.290   4.261   2.727
 6929SOL    HW121473   4.302   4.327   2.653
 6929SOL    HW221474   4.336   4.295   2.810
 6930SOL     OW21475   4.228   3.774   3.602
 6930SOL    HW121476   4.186   3.717   3.532
 6930SOL    HW221477   4.162   3.843   3.634
 6931SOL     OW21478   4.031   3.937   3.093
 6931SOL    HW121479   4.008   3.974   3.183
 6931SOL    HW221480   4.001   3.842   3.087
 6932SOL     OW21481   4.031   3.787   2.480
 6932SOL    HW121482   4.020   3.881   2.513
 6932SOL    HW221483   4.026   3.724   2.557
 6933SOL     OW21484   4.043   4.534   2.811
 6933SOL    HW121485   4.136   4.570   2.816
 6933SOL    HW221486   4.037   4.449   2.863
 6934SOL     OW21487   4.063   4.233   2.868
 6934SOL    HW121488   4.011   4.150   2.851
 6934SOL    HW221489   4.140   4.238   2.804
 6935SOL     OW21490   3.764   4.268   2.976
 6935SOL    HW121491   3.849   4.235   2.935
 6935SOL    HW221492   3.777   4.283   3.074
 6936SOL     OW21493   3.913   4.244   3.584
 6936SOL    HW121494   3.972   4.204   3.514
 6936SOL    HW221495   3.855   4.315   3.543
 6937SOL     OW21496   4.539   4.296   2.187
 6937SOL    HW121497   4.546   4.207   2.141
 6937SOL    HW221498   4.445   4.330   2.179
 6938SOL     OW21499   4.197   4.224   2.053
 6938SOL    HW121500   4.258   4.304   2.057
 6938SOL    HW221501   4.102   4.255   2.060
 6939SOL     OW21502   3.987   4.050   2.582
 6939SOL    HW121503   3.908   4.101   2.548
 6939SOL    HW221504   3.978   4.035   2.680
 6940SOL     OW21505   4.396   3.927   3.351
 6940SOL    HW121506   4.486   3.911   3.311
 6940SOL    HW221507   4.404   3.932   3.450
 6941SOL     OW21508   3.799   4.069   1.895
 6941SOL    HW121509   3.707   4.041   1.866
 6941SOL    HW221510   3.830   4.146   1.839
 6942SOL     OW21511   3.796   3.890   2.180
 6942SOL    HW121512   3.779   3.973   2.126
 6942SOL    HW221513   3.886   3.853   2.158
 6943SOL     OW21514   4.440   4.289   3.570
 6943SOL    HW121515   4.459   4.354   3.644
 6943SOL    HW221516   4.500   4.209   3.579
 6944SOL     OW21517   4.152   4.148   2.382
 6944SOL    HW121518   4.182   4.076   2.320
 6944SOL    HW221519   4.113   4.108   2.465
 6945SOL     OW21520   4.041   4.271   3.142
 6945SOL    HW121521   4.079   4.212   3.214
 6945SOL    HW221522   4.081   4.245   3.054
 6946SOL     OW21523   3.954   4.352   3.837
 6946SOL    HW121524   3.861   4.350   3.874
 6946SOL    HW221525   3.955   4.313   3.745
 6947SOL     OW21526   3.949   3.999   4.720
 6947SOL    HW121527   3.984   3.982   4.812
 6947SOL    HW221528   3.861   3.954   4.708
 6948SOL     OW21529   3.743   4.092   4.371
 6948SOL    HW121530   3.661   4.135   4.410
 6948SOL    HW221531   3.715   4.019   4.308
 6949SOL     OW21532   4.574   4.522   5.547
 6949SOL    HW121533   4.570   4.598   5.612
 6949SOL    HW221534   4.596   4.558   5.456
 6950SOL     OW21535   4.162   4.116   5.223
 6950SOL    HW121536   4.244   4.060   5.232
 6950SOL    HW221537   4.081   4.058   5.227
 6951SOL     OW21538   3.846   4.367   4.287
 6951SOL    HW121539   3.801   4.279   4.304
 6951SOL    HW221540   3.845   4.421   4.371
 6952SOL     OW21541   3.837   4.461   5.321
 6952SOL    HW121542   3.925   4.448   5.366
 6952SOL    HW221543   3.824   4.558   5.299
 6953SOL     OW21544   4.533   3.728   4.226
 6953SOL    HW121545   4.573   3.819   4.217
 6953SOL    HW221546   4.433   3.736   4.232
 6954SOL     OW21547   4.041   3.975   5.525
 6954SOL    HW121548   4.112   4.046   5.531
 6954SOL    HW221549   3.953   4.014   5.553
 6955SOL     OW21550   4.274   3.920   4.609
 6955SOL    HW121551   4.269   3.915   4.709
 6955SOL    HW221552   4.276   4.016   4.580
 6956SOL     OW21553   3.926   4.009   5.222
 6956SOL    HW121554   3.846   4.069   5.209
 6956SOL    HW221555   3.916   3.960   5.308
 6957SOL     OW21556   4.106   4.424   4.204
 6957SOL    HW121557   4.151   4.334   4.201
 6957SOL    HW221558   4.012   4.413   4.237
 6958SOL     OW21559   4.338   3.846   3.841
 6958SOL    HW121560   4.436   3.824   3.848
 6958SOL    HW221561   4.307   3.829   3.748
 6959SOL     OW21562   4.263   3.788   4.236
 6959SOL    HW121563   4.182   3.789   4.294
 6959SOL    HW221564   4.266   3.871   4.181
 6960SOL     OW21565   4.021   3.759   3.895
 6960SOL    HW121566   4.070   3.843   3.874
 6960SOL    HW221567   4.083   3.694   3.940
 6961SOL     OW21568   4.800   4.407   5.188
 6961SOL    HW121569   4.720   4.346   5.191
 6961SOL    HW221570   4.881   4.354   5.164
 6962SOL     OW21571   3.802   4.280   5.110
 6962SOL    HW121572   3.894   4.279   5.069
 6962SOL    HW221573   3.796   4.354   5.177
 6963SOL     OW21574   4.285   3.946   4.871
 6963SOL    HW121575   4.323   3.862   4.908
 6963SOL    HW221576   4.197   3.965   4.915
 6964SOL     OW21577   4.251   3.980   4.052
 6964SOL    HW121578   4.278   3.921   3.977
 6964SOL    HW221579   4.251   4.075   4.021
 6965SOL     OW21580   4.134   4.537   4.975
 6965SOL    HW121581   4.220   4.549   5.025
 6965SOL    HW221582   4.092   4.450   5.002
 6966SOL     OW21583   4.290   4.261   4.589
 6966SOL    HW121584   4.302   4.327   4.515
 6966SOL    HW221585   4.336   4.295   4.672
 6967SOL     OW21586   4.228   3.774   5.464
 6967SOL    HW121587   4.186   3.717   5.394
 6967SOL    HW221588   4.162   3.843   5.496
 6968SOL     OW21589   4.031   3.937   4.955
 6968SOL    HW121590   4.008   3.974   5.045
 6968SOL    HW221591   4.001   3.842   4.949
 6969SOL     OW21592   4.031   3.787   4.342
 6969SOL    HW121593   4.020   3.881   4.375
 6969SOL    HW221594   4.026   3.724   4.419
 6970SOL     OW21595   4.043   4.534   4.673
 6970SOL    HW121596   4.136   4.570   4.678
 6970SOL    HW221597   4.037   4.449   4.725
 6971SOL     OW21598   4.063   4.233   4.730
 6971SOL    HW121599   4.011   4.150   4.713
 6971SOL    HW221600   4.140   4.238   4.666
 6972SOL     OW21601   3.764   4.268   4.838
 6972SOL    HW121602   3.849   4.235   4.797
 6972SOL    HW221603   3.777   4.283   4.936
 6973SOL     OW21604   3.913   4.244   5.446
 6973SOL    HW121605   3.972   4.204   5.376
 6973SOL    HW221606   3.855   4.315   5.405
 6974SOL     OW21607   4.539   4.296   4.049
 6974SOL    HW121608   4.546   4.207   4.003
 6974SOL    HW221609   4.445   4.330   4.041
 6975SOL     OW21610   4.197   4.224   3.915
 6975SOL    HW121611   4.258   4.304   3.919
 6975SOL    HW221612   4.102   4.255   3.922
 6976SOL     OW21613   3.987   4.050   4.444
 6976SOL    HW121614   3.908   4.101   4.410
 6976SOL    HW221615   3.978   4.035   4.542
 6977SOL     OW21616   4.396   3.927   5.213
 6977SOL    HW121617   4.486   3.911   5.173
 6977SOL    HW221618   4.404   3.932   5.312
 6978SOL     OW21619   3.799   4.069   3.757
 6978SOL    HW121620   3.707   4.041   3.728
 6978SOL    HW221621   3.830   4.146   3.701
 6979SOL     OW21622   3.796   3.890   4.042
 6979SOL    HW121623   3.779   3.973   3.988
 6979SOL    HW221624   3.886   3.853   4.020
 6980SOL     OW21625   4.440   4.289   5.432
 6980SOL    HW121626   4.459   4.354   5.506
 6980SOL    HW221627   4.500   4.209   5.441
 6981SOL     OW21628   4.152   4.148   4.244
 6981SOL    HW121629   4.182   4.076   4.182
 6981SOL    HW221630   4.113   4.108   4.327
 6982SOL     OW21631   4.041   4.271   5.004
 6982SOL    HW121632   4.079   4.212   5.076
 6982SOL    HW221633   4.081   4.245   4.916
 6983SOL     OW21634   3.954   4.352   5.699
 6983SOL    HW121635   3.861   4.350   5.736
 6983SOL    HW221636   3.955   4.313   5.607
 6984SOL     OW21637   3.949   3.999   6.582
 6984SOL    HW121638   3.984   3.982   6.674
 6984SOL    HW221639   3.861   3.954   6.570
 6985SOL     OW21640   3.743   4.092   6.233
 6985SOL    HW121641   3.661   4.135   6.272
 6985SOL    HW221642   3.715   4.019   6.170
 6986SOL     OW21643   4.574   4.522   7.409
 6986SOL    HW121644   4.570   4.598   7.474
 6986SOL    HW221645   4.596   4.558   7.318
 6987SOL     OW21646   4.162   4.116   7.085
 6987SOL    HW121647   4.244   4.060   7.094
 6987SOL    HW221648   4.081   4.058   7.089
 6988SOL     OW21649   3.846   4.367   6.149
 6988SOL    HW121650   3.801   4.279   6.166
 6988SOL    HW221651   3.845   4.421   6.233
 6989SOL     OW21652   3.837   4.461   7.183
 6989SOL    HW121653   3.925   4.448   7.228
 6989SOL    HW221654   3.824   4.558   7.161
 6990SOL     OW21655   4.533   3.728   6.088
 6990SOL    HW121656   4.573   3.819   6.079
 6990SOL    HW221657   4.433   3.736   6.094
 6991SOL     OW21658   4.041   3.975   7.387
 6991SOL    HW121659   4.112   4.046   7.393
 6991SOL    HW221660   3.953   4.014   7.415
 6992SOL     OW21661   4.274   3.920   6.471
 6992SOL    HW121662   4.269   3.915   6.571
 6992SOL    HW221663   4.276   4.016   6.442
 6993SOL     OW21664   3.926   4.009   7.084
 6993SOL    HW121665   3.846   4.069   7.071
 6993SOL    HW221666   3.916   3.960   7.170
 6994SOL     OW21667   4.106   4.424   6.066
 6994SOL    HW121668   4.151   4.334   6.063
 6994SOL    HW221669   4.012   4.413   6.099
 6995SOL     OW21670   4.338   3.846   5.703
 6995SOL    HW121671   4.436   3.824   5.710
 6995SOL    HW221672   4.307   3.829   5.610
 6996SOL     OW21673   4.263   3.788   6.098
 6996SOL    HW121674   4.182   3.789   6.156
 6996SOL    HW221675   4.266   3.871   6.043
 6997SOL     OW21676   4.021   3.759   5.757
 6997SOL    HW121677   4.070   3.843   5.736
 6997SOL    HW221678   4.083   3.694   5.802
 6998SOL     OW21679   4.800   4.407   7.050
 6998SOL    HW121680   4.720   4.346   7.053
 6998SOL    HW221681   4.881   4.354   7.026
 6999SOL     OW21682   3.802   4.280   6.972
 6999SOL    HW121683   3.894   4.279   6.931
 6999SOL    HW221684   3.796   4.354   7.039
 7000SOL     OW21685   4.285   3.946   6.733
 7000SOL    HW121686   4.323   3.862   6.770
 7000SOL    HW221687   4.197   3.965   6.777
 7001SOL     OW21688   4.251   3.980   5.914
 7001SOL    HW121689   4.278   3.921   5.839
 7001SOL    HW221690   4.251   4.075   5.883
 7002SOL     OW21691   4.134   4.537   6.837
 7002SOL    HW121692   4.220   4.549   6.887
 7002SOL    HW221693   4.092   4.450   6.864
 7003SOL     OW21694   4.290   4.261   6.451
 7003SOL    HW121695   4.302   4.327   6.377
 7003SOL    HW221696   4.336   4.295   6.534
 7004SOL     OW21697   4.228   3.774   7.326
 7004SOL    HW121698   4.186   3.717   7.256
 7004SOL    HW221699   4.162   3.843   7.358
 7005SOL     OW21700   4.031   3.937   6.817
 7005SOL    HW121701   4.008   3.974   6.907
 7005SOL    HW221702   4.001   3.842   6.811
 7006SOL     OW21703   4.031   3.787   6.204
 7006SOL    HW121704   4.020   3.881   6.237
 7006SOL    HW221705   4.026   3.724   6.281
 7007SOL     OW21706   4.043   4.534   6.535
 7007SOL    HW121707   4.136   4.570   6.540
 7007SOL    HW221708   4.037   4.449   6.587
 7008SOL     OW21709   4.063   4.233   6.592
 7008SOL    HW121710   4.011   4.150   6.575
 7008SOL    HW221711   4.140   4.238   6.528
 7009SOL     OW21712   3.764   4.268   6.700
 7009SOL    HW121713   3.849   4.235   6.659
 7009SOL    HW221714   3.777   4.283   6.798
 7010SOL     OW21715   3.913   4.244   7.308
 7010SOL    HW121716   3.972   4.204   7.238
 7010SOL    HW221717   3.855   4.315   7.267
 7011SOL     OW21718   4.539   4.296   5.911
 7011SOL    HW121719   4.546   4.207   5.865
 7011SOL    HW221720   4.445   4.330   5.903
 7012SOL     OW21721   4.197   4.224   5.777
 7012SOL    HW121722   4.258   4.304   5.781
 7012SOL    HW221723   4.102   4.255   5.784
 7013SOL     OW21724   3.987   4.050   6.306
 7013SOL    HW121725   3.908   4.101   6.272
 7013SOL    HW221726   3.978   4.035   6.404
 7014SOL     OW21727   4.396   3.927   7.075
 7014SOL    HW121728   4.486   3.911   7.035
 7014SOL    HW221729   4.404   3.932   7.174
 7015SOL     OW21730   3.799   4.069   5.619
 7015SOL    HW121731   3.707   4.041   5.590
 7015SOL    HW221732   3.830   4.146   5.563
 7016SOL     OW21733   3.796   3.890   5.904
 7016SOL    HW121734   3.779   3.973   5.850
 7016SOL    HW221735   3.886   3.853   5.882
 7017SOL     OW21736   4.440   4.289   7.294
 7017SOL    HW121737   4.459   4.354   7.368
 7017SOL    HW221738   4.500   4.209   7.303
 7018SOL     OW21739   4.152   4.148   6.106
 7018SOL    HW121740   4.182   4.076   6.044
 7018SOL    HW221741   4.113   4.108   6.189
 7019SOL     OW21742   4.041   4.271   6.866
 7019SOL    HW121743   4.079   4.212   6.938
 7019SOL    HW221744   4.081   4.245   6.778
 7020SOL     OW21745   3.954   4.352   7.561
 7020SOL    HW121746   3.861   4.350   7.598
 7020SOL    HW221747   3.955   4.313   7.469
 7021SOL     OW21748   3.949   3.999   8.444
 7021SOL    HW121749   3.984   3.982   8.536
 7021SOL    HW221750   3.861   3.954   8.432
 7022SOL     OW21751   3.743   4.092   8.095
 7022SOL    HW121752   3.661   4.135   8.134
 7022SOL    HW221753   3.715   4.019   8.032
 7023SOL     OW21754   4.574   4.522   9.271
 7023SOL    HW121755   4.570   4.598   9.336
 7023SOL    HW221756   4.596   4.558   9.180
 7024SOL     OW21757   4.162   4.116   8.947
 7024SOL    HW121758   4.244   4.060   8.956
 7024SOL    HW221759   4.081   4.058   8.951
 7025SOL     OW21760   3.846   4.367   8.011
 7025SOL    HW121761   3.801   4.279   8.028
 7025SOL    HW221762   3.845   4.421   8.095
 7026SOL     OW21763   3.837   4.461   9.045
 7026SOL    HW121764   3.925   4.448   9.090
 7026SOL    HW221765   3.824   4.558   9.023
 7027SOL     OW21766   4.533   3.728   7.950
 7027SOL    HW121767   4.573   3.819   7.941
 7027SOL    HW221768   4.433   3.736   7.956
 7028SOL     OW21769   4.041   3.975   9.249
 7028SOL    HW121770   4.112   4.046   9.255
 7028SOL    HW221771   3.953   4.014   9.277
 7029SOL     OW21772   4.274   3.920   8.333
 7029SOL    HW121773   4.269   3.915   8.433
 7029SOL    HW221774   4.276   4.016   8.304
 7030SOL     OW21775   3.926   4.009   8.946
 7030SOL    HW121776   3.846   4.069   8.933
 7030SOL    HW221777   3.916   3.960   9.032
 7031SOL     OW21778   4.106   4.424   7.928
 7031SOL    HW121779   4.151   4.334   7.925
 7031SOL    HW221780   4.012   4.413   7.961
 7032SOL     OW21781   4.338   3.846   7.565
 7032SOL    HW121782   4.436   3.824   7.572
 7032SOL    HW221783   4.307   3.829   7.472
 7033SOL     OW21784   4.263   3.788   7.960
 7033SOL    HW121785   4.182   3.789   8.018
 7033SOL    HW221786   4.266   3.871   7.905
 7034SOL     OW21787   4.021   3.759   7.619
 7034SOL    HW121788   4.070   3.843   7.598
 7034SOL    HW221789   4.083   3.694   7.664
 7035SOL     OW21790   4.800   4.407   8.912
 7035SOL    HW121791   4.720   4.346   8.915
 7035SOL    HW221792   4.881   4.354   8.888
 7036SOL     OW21793   3.802   4.280   8.834
 7036SOL    HW121794   3.894   4.279   8.793
 7036SOL    HW221795   3.796   4.354   8.901
 7037SOL     OW21796   4.285   3.946   8.595
 7037SOL    HW121797   4.323   3.862   8.632
 7037SOL    HW221798   4.197   3.965   8.639
 7038SOL     OW21799   4.251   3.980   7.776
 7038SOL    HW121800   4.278   3.921   7.701
 7038SOL    HW221801   4.251   4.075   7.745
 7039SOL     OW21802   4.134   4.537   8.699
 7039SOL    HW121803   4.220   4.549   8.749
 7039SOL    HW221804   4.092   4.450   8.726
 7040SOL     OW21805   4.290   4.261   8.313
 7040SOL    HW121806   4.302   4.327   8.239
 7040SOL    HW221807   4.336   4.295   8.396
 7041SOL     OW21808   4.228   3.774   9.188
 7041SOL    HW121809   4.186   3.717   9.118
 7041SOL    HW221810   4.162   3.843   9.220
 7042SOL     OW21811   4.031   3.937   8.679
 7042SOL    HW121812   4.008   3.974   8.769
 7042SOL    HW221813   4.001   3.842   8.673
 7043SOL     OW21814   4.031   3.787   8.066
 7043SOL    HW121815   4.020   3.881   8.099
 7043SOL    HW221816   4.026   3.724   8.143
 7044SOL     OW21817   4.043   4.534   8.397
 7044SOL    HW121818   4.136   4.570   8.402
 7044SOL    HW221819   4.037   4.449   8.449
 7045SOL     OW21820   4.063   4.233   8.454
 7045SOL    HW121821   4.011   4.150   8.437
 7045SOL    HW221822   4.140   4.238   8.390
 7046SOL     OW21823   3.764   4.268   8.562
 7046SOL    HW121824   3.849   4.235   8.521
 7046SOL    HW221825   3.777   4.283   8.660
 7047SOL     OW21826   3.913   4.244   9.170
 7047SOL    HW121827   3.972   4.204   9.100
 7047SOL    HW221828   3.855   4.315   9.129
 7048SOL     OW21829   4.539   4.296   7.773
 7048SOL    HW121830   4.546   4.207   7.727
 7048SOL    HW221831   4.445   4.330   7.765
 7049SOL     OW21832   4.197   4.224   7.639
 7049SOL    HW121833   4.258   4.304   7.643
 7049SOL    HW221834   4.102   4.255   7.646
 7050SOL     OW21835   3.987   4.050   8.168
 7050SOL    HW121836   3.908   4.101   8.134
 7050SOL    HW221837   3.978   4.035   8.266
 7051SOL     OW21838   4.396   3.927   8.937
 7051SOL    HW121839   4.486   3.911   8.897
 7051SOL    HW221840   4.404   3.932   9.036
 7052SOL     OW21841   3.799   4.069   7.481
 7052SOL    HW121842   3.707   4.041   7.452
 7052SOL    HW221843   3.830   4.146   7.425
 7053SOL     OW21844   3.796   3.890   7.766
 7053SOL    HW121845   3.779   3.973   7.712
 7053SOL    HW221846   3.886   3.853   7.744
 7054SOL     OW21847   4.440   4.289   9.156
 7054SOL    HW121848   4.459   4.354   9.230
 7054SOL    HW221849   4.500   4.209   9.165
 7055SOL     OW21850   4.152   4.148   7.968
 7055SOL    HW121851   4.182   4.076   7.906
 7055SOL    HW221852   4.113   4.108   8.051
 7056SOL     OW21853   4.041   4.271   8.728
 7056SOL    HW121854   4.079   4.212   8.800
 7056SOL    HW221855   4.081   4.245   8.640
 7057SOL     OW21856   3.954   4.352   9.423
 7057SOL    HW121857   3.861   4.350   9.460
 7057SOL    HW221858   3.955   4.313   9.331
 7058SOL     OW21859   3.949   3.999  10.306
 7058SOL    HW121860   3.984   3.982  10.398
 7058SOL    HW221861   3.861   3.954  10.294
 7059SOL     OW21862   3.743   4.092   9.957
 7059SOL    HW121863   3.661   4.135   9.996
 7059SOL    HW221864   3.715   4.019   9.894
 7060SOL     OW21865   4.162   4.116  10.809
 7060SOL    HW121866   4.244   4.060  10.818
 7060SOL    HW221867   4.081   4.058  10.813
 7061SOL     OW21868   3.846   4.367   9.873
 7061SOL    HW121869   3.801   4.279   9.890
 7061SOL    HW221870   3.845   4.421   9.957
 7062SOL     OW21871   3.837   4.461  10.907
 7062SOL    HW121872   3.925   4.448  10.952
 7062SOL    HW221873   3.824   4.558  10.885
 7063SOL     OW21874   4.533   3.728   9.812
 7063SOL    HW121875   4.573   3.819   9.803
 7063SOL    HW221876   4.433   3.736   9.818
 7064SOL     OW21877   4.041   3.975  11.111
 7064SOL    HW121878   4.112   4.046  11.117
 7064SOL    HW221879   3.953   4.014  11.139
 7065SOL     OW21880   4.274   3.920  10.195
 7065SOL    HW121881   4.269   3.915  10.295
 7065SOL    HW221882   4.276   4.016  10.166
 7066SOL     OW21883   3.926   4.009  10.808
 7066SOL    HW121884   3.846   4.069  10.795
 7066SOL    HW221885   3.916   3.960  10.894
 7067SOL     OW21886   4.106   4.424   9.790
 7067SOL    HW121887   4.151   4.334   9.787
 7067SOL    HW221888   4.012   4.413   9.823
 7068SOL     OW21889   4.338   3.846   9.427
 7068SOL    HW121890   4.436   3.824   9.434
 7068SOL    HW221891   4.307   3.829   9.334
 7069SOL     OW21892   4.263   3.788   9.822
 7069SOL    HW121893   4.182   3.789   9.880
 7069SOL    HW221894   4.266   3.871   9.767
 7070SOL     OW21895   4.021   3.759   9.481
 7070SOL    HW121896   4.070   3.843   9.460
 7070SOL    HW221897   4.083   3.694   9.526
 7071SOL     OW21898   4.800   4.407  10.774
 7071SOL    HW121899   4.720   4.346  10.777
 7071SOL    HW221900   4.881   4.354  10.750
 7072SOL     OW21901   3.802   4.280  10.696
 7072SOL    HW121902   3.894   4.279  10.655
 7072SOL    HW221903   3.796   4.354  10.763
 7073SOL     OW21904   4.285   3.946  10.457
 7073SOL    HW121905   4.323   3.862  10.494
 7073SOL    HW221906   4.197   3.965  10.501
 7074SOL     OW21907   4.251   3.980   9.638
 7074SOL    HW121908   4.278   3.921   9.563
 7074SOL    HW221909   4.251   4.075   9.607
 7075SOL     OW21910   4.134   4.537  10.561
 7075SOL    HW121911   4.220   4.549  10.611
 7075SOL    HW221912   4.092   4.450  10.588
 7076SOL     OW21913   4.290   4.261  10.175
 7076SOL    HW121914   4.302   4.327  10.101
 7076SOL    HW221915   4.336   4.295  10.258
 7077SOL     OW21916   4.126   4.475  10.908
 7077SOL    HW121917   4.194   4.530  10.861
 7077SOL    HW221918   4.166   4.387  10.935
 7078SOL     OW21919   4.031   3.937  10.541
 7078SOL    HW121920   4.008   3.974  10.631
 7078SOL    HW221921   4.001   3.842  10.535
 7079SOL     OW21922   4.031   3.787   9.928
 7079SOL    HW121923   4.020   3.881   9.961
 7079SOL    HW221924   4.026   3.724  10.005
 7080SOL     OW21925   4.043   4.534  10.259
 7080SOL    HW121926   4.136   4.570  10.264
 7080SOL    HW221927   4.037   4.449  10.311
 7081SOL     OW21928   4.063   4.233  10.316
 7081SOL    HW121929   4.011   4.150  10.299
 7081SOL    HW221930   4.140   4.238  10.252
 7082SOL     OW21931   3.764   4.268  10.424
 7082SOL    HW121932   3.849   4.235  10.383
 7082SOL    HW221933   3.777   4.283  10.522
 7083SOL     OW21934   4.539   4.296   9.635
 7083SOL    HW121935   4.546   4.207   9.589
 7083SOL    HW221936   4.445   4.330   9.627
 7084SOL     OW21937   4.197   4.224   9.501
 7084SOL    HW121938   4.258   4.304   9.505
 7084SOL    HW221939   4.102   4.255   9.508
 7085SOL     OW21940   3.987   4.050  10.030
 7085SOL    HW121941   3.908   4.101   9.996
 7085SOL    HW221942   3.978   4.035  10.128
 7086SOL     OW21943   4.396   3.927  10.799
 7086SOL    HW121944   4.486   3.911  10.759
 7086SOL    HW221945   4.404   3.932  10.898
 7087SOL     OW21946   3.799   4.069   9.343
 7087SOL    HW121947   3.707   4.041   9.314
 7087SOL    HW221948   3.830   4.146   9.287
 7088SOL     OW21949   3.796   3.890   9.628
 7088SOL    HW121950   3.779   3.973   9.574
 7088SOL    HW221951   3.886   3.853   9.606
 7089SOL     OW21952   4.152   4.148   9.830
 7089SOL    HW121953   4.182   4.076   9.768
 7089SOL    HW221954   4.113   4.108   9.913
 7090SOL     OW21955   4.041   4.271  10.590
 7090SOL    HW121956   4.079   4.212  10.662
 7090SOL    HW221957   4.081   4.245  10.502
   4.50000   4.50000  11.10000
