Built with Packmol
22230
    1LIG      O    1   1.977   1.970   0.066
    1LIG      C    2   2.042   2.020   0.217
    1LIG     C1    3   1.971   1.967   0.377
    1LIG     O1    4   2.035   2.017   0.530
    1LIG     C2    5   1.970   1.968   0.681
    1LIG     C3    6   2.041   2.023   0.838
    1LIG     O2    7   1.977   1.975   0.990
    1LIG     C4    8   2.040   2.025   1.142
    1LIG     C5    9   1.968   1.971   1.300
    1LIG     O3   10   2.031   2.020   1.452
    1LIG     C6   11   1.966   1.971   1.603
    1LIG     C7   12   2.038   2.027   1.760
    1LIG     O4   13   1.974   1.979   1.913
    1LIG     C8   14   2.038   2.029   2.065
    1LIG     C9   15   1.965   1.973   2.221
    1LIG     O5   16   2.029   2.023   2.373
    1LIG    C10   17   1.965   1.974   2.525
    1LIG    C11   18   2.037   2.030   2.682
    1LIG     O6   19   1.973   1.981   2.833
    1LIG    C12   20   2.036   2.030   2.985
    1LIG    C13   21   1.963   1.975   3.142
    1LIG     O7   22   2.027   2.024   3.294
    1LIG    C14   23   1.963   1.975   3.446
    1LIG    C15   24   2.035   2.030   3.604
    1LIG     O8   25   1.971   1.982   3.757
    1LIG    C16   26   2.035   2.031   3.908
    1LIG    C17   27   1.964   1.976   4.066
    1LIG     O9   28   2.027   2.025   4.219
    1LIG    C18   29   1.962   1.976   4.369
    1LIG    C19   30   2.034   2.031   4.526
    1LIG    O10   31   1.971   1.982   4.678
    1LIG    C20   32   2.035   2.032   4.830
    1LIG    C21   33   1.962   1.976   4.986
    1LIG    O11   34   2.026   2.025   5.138
    1LIG    C22   35   1.962   1.976   5.290
    1LIG    C23   36   2.034   2.032   5.447
    1LIG    O12   37   1.970   1.983   5.598
    1LIG    C24   38   2.034   2.032   5.751
    1LIG    C25   39   1.962   1.977   5.909
    1LIG    O13   40   2.025   2.026   6.061
    1LIG    C26   41   1.961   1.977   6.212
    1LIG    C27   42   2.033   2.032   6.369
    1LIG    O14   43   1.969   1.983   6.521
    1LIG    C28   44   2.034   2.032   6.673
    1LIG    C29   45   1.962   1.976   6.831
    1LIG    O15   46   2.026   2.026   6.983
    1LIG    C30   47   1.962   1.976   7.134
    1LIG    C31   48   2.034   2.031   7.291
    1LIG    O16   49   1.970   1.982   7.442
    1LIG    C32   50   2.034   2.031   7.594
    1LIG    C33   51   1.962   1.976   7.752
    1LIG    O17   52   2.026   2.025   7.904
    1LIG    C34   53   1.962   1.975   8.056
    1LIG    C35   54   2.034   2.030   8.213
    1LIG    O18   55   1.970   1.981   8.365
    1LIG    C36   56   2.034   2.031   8.516
    1LIG    C37   57   1.963   1.975   8.674
    1LIG    O19   58   2.027   2.024   8.827
    1LIG    C38   59   1.963   1.974   8.978
    1LIG    C39   60   2.034   2.029   9.136
    1LIG    O20   61   1.971   1.980   9.288
    1LIG    C40   62   2.035   2.029   9.439
    1LIG    C41   63   1.964   1.974   9.597
    1LIG    O21   64   2.027   2.023   9.749
    1LIG    C42   65   1.963   1.973   9.900
    1LIG    C43   66   2.035   2.028  10.057
    1LIG    O22   67   1.972   1.979  10.209
    1LIG    C44   68   2.036   2.028  10.361
    1LIG    C45   69   1.964   1.972  10.518
    1LIG    O23   70   2.028   2.021  10.670
    1LIG    C46   71   1.964   1.972  10.822
    1LIG    C47   72   2.037   2.028  10.979
    1LIG    O24   73   1.973   1.978  11.130
    1LIG    C48   74   2.036   2.027  11.282
    1LIG    C49   75   1.964   1.971  11.439
    1LIG    O25   76   2.028   2.020  11.591
    1LIG    C50   77   1.965   1.971  11.743
    1LIG    C51   78   2.037   2.027  11.900
    1LIG    O26   79   1.974   1.977  12.051
    1LIG    C52   80   2.037   2.026  12.204
    1LIG    C53   81   1.965   1.970  12.360
    1LIG    O27   82   2.029   2.019  12.512
    1LIG    C54   83   1.966   1.969  12.664
    1LIG    C55   84   2.038   2.025  12.822
    1LIG    O28   85   1.974   1.975  12.974
    1LIG    C56   86   2.038   2.024  13.127
    1LIG    C57   87   1.967   1.968  13.285
    1LIG    O29   88   2.031   2.017  13.438
    1LIG    C58   89   1.967   1.967  13.589
    1LIG    C59   90   2.038   2.022  13.747
    1LIG      H   91   2.039   2.130   0.214
    1LIG     H1   92   2.147   1.989   0.215
    1LIG     H2   93   1.974   1.858   0.377
    1LIG     H3   94   1.866   1.998   0.375
    1LIG     H4   95   1.973   1.858   0.683
    1LIG     H5   96   1.865   1.999   0.682
    1LIG     H6   97   2.039   2.133   0.836
    1LIG     H7   98   2.147   1.992   0.837
    1LIG     H8   99   2.038   2.134   1.143
    1LIG     H9  100   2.145   1.994   1.145
    1LIG    H10  101   1.971   1.861   1.299
    1LIG    H11  102   1.863   2.001   1.297
    1LIG    H12  103   1.969   1.862   1.606
    1LIG    H13  104   1.861   2.002   1.604
    1LIG    H14  105   2.035   2.137   1.758
    1LIG    H15  106   2.143   1.997   1.759
    1LIG    H16  107   2.035   2.138   2.066
    1LIG    H17  108   2.143   1.998   2.067
    1LIG    H18  109   1.968   1.864   2.219
    1LIG    H19  110   1.860   2.005   2.219
    1LIG    H20  111   1.967   1.865   2.527
    1LIG    H21  112   1.859   2.005   2.527
    1LIG    H22  113   2.034   2.139   2.679
    1LIG    H23  114   2.142   1.999   2.680
    1LIG    H24  115   2.033   2.140   2.987
    1LIG    H25  116   2.141   1.999   2.988
    1LIG    H26  117   1.966   1.865   3.141
    1LIG    H27  118   1.858   2.006   3.140
    1LIG    H28  119   1.966   1.865   3.448
    1LIG    H29  120   1.858   2.006   3.448
    1LIG    H30  121   2.032   2.140   3.602
    1LIG    H31  122   2.140   1.999   3.603
    1LIG    H32  123   2.032   2.141   3.909
    1LIG    H33  124   2.140   2.000   3.910
    1LIG    H34  125   1.966   1.867   4.064
    1LIG    H35  126   1.858   2.007   4.064
    1LIG    H36  127   1.965   1.866   4.371
    1LIG    H37  128   1.857   2.007   4.371
    1LIG    H38  129   2.031   2.141   4.524
    1LIG    H39  130   2.139   2.000   4.524
    1LIG    H40  131   2.032   2.141   4.832
    1LIG    H41  132   2.140   2.001   4.832
    1LIG    H42  133   1.965   1.867   4.985
    1LIG    H43  134   1.857   2.007   4.984
    1LIG    H44  135   1.965   1.867   5.292
    1LIG    H45  136   1.857   2.007   5.292
    1LIG    H46  137   2.031   2.142   5.445
    1LIG    H47  138   2.140   2.001   5.445
    1LIG    H48  139   2.031   2.142   5.753
    1LIG    H49  140   2.139   2.001   5.753
    1LIG    H50  141   1.965   1.867   5.907
    1LIG    H51  142   1.857   2.008   5.907
    1LIG    H52  143   1.964   1.867   6.214
    1LIG    H53  144   1.856   2.008   6.214
    1LIG    H54  145   2.030   2.142   6.368
    1LIG    H55  146   2.138   2.001   6.367
    1LIG    H56  147   2.031   2.141   6.675
    1LIG    H57  148   2.139   2.001   6.675
    1LIG    H58  149   1.965   1.867   6.829
    1LIG    H59  150   1.857   2.007   6.830
    1LIG    H60  151   1.965   1.866   7.136
    1LIG    H61  152   1.857   2.007   7.136
    1LIG    H62  153   2.031   2.141   7.289
    1LIG    H63  154   2.139   2.001   7.289
    1LIG    H64  155   2.031   2.141   7.596
    1LIG    H65  156   2.139   2.000   7.596
    1LIG    H66  157   1.965   1.866   7.750
    1LIG    H67  158   1.857   2.007   7.751
    1LIG    H68  159   1.965   1.866   8.057
    1LIG    H69  160   1.857   2.006   8.057
    1LIG    H70  161   2.031   2.140   8.212
    1LIG    H71  162   2.139   2.000   8.211
    1LIG    H72  163   2.031   2.140   8.518
    1LIG    H73  164   2.140   2.000   8.518
    1LIG    H74  165   1.966   1.866   8.673
    1LIG    H75  166   1.858   2.006   8.673
    1LIG    H76  167   1.966   1.865   8.979
    1LIG    H77  168   1.858   2.005   8.979
    1LIG    H78  169   2.031   2.139   9.134
    1LIG    H79  170   2.140   1.998   9.134
    1LIG    H80  171   2.032   2.139   9.441
    1LIG    H81  172   2.140   1.999   9.440
    1LIG    H82  173   1.967   1.864   9.595
    1LIG    H83  174   1.858   2.004   9.595
    1LIG    H84  175   1.967   1.863   9.902
    1LIG    H85  176   1.858   2.004   9.902
    1LIG    H86  177   2.032   2.138  10.055
    1LIG    H87  178   2.141   1.998  10.055
    1LIG    H88  179   2.033   2.138  10.363
    1LIG    H89  180   2.141   1.998  10.363
    1LIG    H90  181   1.967   1.863  10.516
    1LIG    H91  182   1.859   2.003  10.516
    1LIG    H92  183   1.968   1.862  10.824
    1LIG    H93  184   1.859   2.002  10.824
    1LIG    H94  185   2.033   2.137  10.977
    1LIG    H95  186   2.142   1.997  10.977
    1LIG    H96  187   2.033   2.136  11.285
    1LIG    H97  188   2.141   1.996  11.284
    1LIG    H98  189   1.968   1.861  11.437
    1LIG    H99  190   1.859   2.001  11.438
    1LIG   H100  191   1.968   1.861  11.745
    1LIG   H101  192   1.860   2.001  11.746
    1LIG   H102  193   2.034   2.136  11.898
    1LIG   H103  194   2.142   1.996  11.898
    1LIG   H104  195   2.034   2.135  12.206
    1LIG   H105  196   2.142   1.995  12.206
    1LIG   H106  197   1.969   1.860  12.358
    1LIG   H107  198   1.860   2.000  12.359
    1LIG   H108  199   1.970   1.860  12.666
    1LIG   H109  200   1.861   2.000  12.666
    1LIG   H110  201   2.034   2.134  12.821
    1LIG   H111  202   2.143   1.994  12.820
    1LIG   H112  203   2.035   2.134  13.128
    1LIG   H113  204   2.144   1.994  13.128
    1LIG   H114  205   1.971   1.859  13.283
    1LIG   H115  206   1.862   1.999  13.284
    1LIG   H116  207   1.971   1.858  13.589
    1LIG   H117  208   1.862   1.999  13.590
    1LIG   H118  209   2.143   1.992  13.747
    1LIG   H119  210   1.991   1.985  13.866
    1MOL     C1  211   2.680   2.198   6.466
    1MOL     H1  212   2.785   2.168   6.457
    1MOL     O1  213   2.647   2.257   6.342
    1MOL     C2  214   2.514   2.310   6.333
    1MOL     H2  215   2.441   2.228   6.345
    1MOL     C3  216   2.496   2.367   6.193
    1MOL     H3  217   2.389   2.389   6.178
    1MOL     H4  218   2.527   2.290   6.120
    1MOL     O2  219   2.574   2.485   6.180
    1MOL     H5  220   2.551   2.527   6.096
    1MOL     C4  221   2.661   2.298   6.581
    1MOL     H6  222   2.730   2.382   6.562
    1MOL     O3  223   2.695   2.247   6.708
    1MOL     H7  224   2.663   2.155   6.717
    1MOL     C5  225   2.519   2.353   6.579
    1MOL     H8  226   2.448   2.271   6.598
    1MOL     O4  227   2.504   2.453   6.680
    1MOL     H9  228   2.552   2.419   6.758
    1MOL     C6  229   2.489   2.415   6.443
    1MOL    H10  230   2.557   2.500   6.428
    1MOL     O5  231   2.353   2.459   6.443
    1MOL     C7  232   2.324   2.586   6.387
    1MOL    H11  233   2.414   2.628   6.340
    1MOL     O6  234   2.230   2.574   6.282
    1MOL     C8  235   2.102   2.522   6.322
    1MOL    H12  236   2.116   2.423   6.369
    1MOL     C9  237   2.016   2.504   6.196
    1MOL    H13  238   1.944   2.423   6.216
    1MOL    H14  239   2.083   2.470   6.116
    1MOL     O7  240   1.951   2.621   6.151
    1MOL    H15  241   1.863   2.624   6.194
    1MOL    C10  242   2.272   2.678   6.498
    1MOL    H16  243   2.260   2.778   6.456
    1MOL     O8  244   2.360   2.692   6.608
    1MOL    H17  245   2.393   2.603   6.635
    1MOL    C11  246   2.134   2.630   6.545
    1MOL    H18  247   2.144   2.531   6.592
    1MOL     O9  248   2.077   2.722   6.638
    1MOL    H19  249   2.150   2.745   6.699
    1MOL    C12  250   2.041   2.619   6.425
    1MOL    H20  251   2.031   2.717   6.377
    1MOL    O10  252   1.913   2.574   6.471
    1MOL    C13  253   1.801   2.656   6.444
    1MOL    H21  254   1.833   2.755   6.411
    1MOL    O11  255   1.724   2.604   6.336
    1MOL    C14  256   1.670   2.472   6.359
    1MOL    H22  257   1.753   2.403   6.382
    1MOL    C15  258   1.601   2.424   6.231
    1MOL    H23  259   1.607   2.314   6.227
    1MOL    H24  260   1.659   2.463   6.146
    1MOL    O12  261   1.467   2.468   6.215
    1MOL    H25  262   1.410   2.397   6.251
    1MOL    C16  263   1.716   2.665   6.571
    1MOL    H26  264   1.634   2.735   6.552
    1MOL    O13  265   1.788   2.715   6.683
    1MOL    H27  266   1.883   2.693   6.673
    1MOL    C17  267   1.654   2.528   6.602
    1MOL    H28  268   1.734   2.456   6.625
    1MOL    O14  269   1.565   2.538   6.713
    1MOL    H29  270   1.613   2.588   6.781
    1MOL    C18  271   1.576   2.480   6.481
    1MOL    H30  272   1.496   2.550   6.458
    1MOL    O15  273   1.521   2.351   6.512
    1MOL    C19  274   1.382   2.333   6.498
    1MOL    H31  275   1.331   2.429   6.484
    1MOL    O16  276   1.352   2.257   6.381
    1MOL    C20  277   1.409   2.124   6.381
    1MOL    H32  278   1.518   2.133   6.392
    1MOL    C21  279   1.379   2.059   6.245
    1MOL    H33  280   1.462   1.990   6.222
    1MOL    H34  281   1.381   2.138   6.169
    1MOL    O17  282   1.254   1.993   6.237
    1MOL    H35  283   1.270   1.899   6.258
    1MOL    C22  284   1.330   2.262   6.624
    1MOL    H36  285   1.221   2.255   6.616
    1MOL    O18  286   1.358   2.333   6.743
    1MOL    H37  287   1.442   2.382   6.733
    1MOL    C23  288   1.386   2.120   6.630
    1MOL    H38  289   1.495   2.124   6.641
    1MOL    O19  290   1.329   2.048   6.739
    1MOL    H39  291   1.334   2.108   6.816
    1MOL    C24  292   1.352   2.046   6.501
    1MOL    H40  293   1.244   2.040   6.489
    1MOL    O20  294   1.409   1.915   6.508
    1MOL    C25  295   1.324   1.804   6.490
    1MOL    H41  296   1.219   1.835   6.491
    1MOL    O21  297   1.344   1.745   6.363
    1MOL    C26  298   1.477   1.693   6.341
    1MOL    H42  299   1.549   1.775   6.347
    1MOL    C27  300   1.483   1.636   6.200
    1MOL    H43  301   1.588   1.616   6.176
    1MOL    H44  302   1.445   1.712   6.130
    1MOL    O22  303   1.405   1.517   6.194
    1MOL    H45  304   1.414   1.480   6.105
    1MOL    C28  305   1.352   1.704   6.602
    1MOL    H46  306   1.282   1.620   6.590
    1MOL    O23  307   1.330   1.756   6.731
    1MOL    H47  308   1.353   1.852   6.732
    1MOL    C29  309   1.494   1.650   6.588
    1MOL    H48  310   1.566   1.732   6.601
    1MOL    O24  311   1.518   1.549   6.686
    1MOL    H49  312   1.480   1.583   6.769
    1MOL    C30  313   1.513   1.589   6.449
    1MOL    H50  314   1.449   1.501   6.439
    1MOL    O25  315   1.650   1.552   6.437
    1MOL    C31  316   1.681   1.427   6.375
    1MOL    H51  317   1.593   1.388   6.324
    1MOL    O26  318   1.779   1.446   6.275
    1MOL    C32  319   1.906   1.497   6.322
    1MOL    H52  320   1.889   1.593   6.372
    1MOL    C33  321   1.995   1.522   6.200
    1MOL    H53  322   2.071   1.596   6.228
    1MOL    H54  323   1.931   1.568   6.123
    1MOL    O27  324   2.055   1.405   6.149
    1MOL    H55  325   2.151   1.416   6.156
    1MOL    C34  326   1.731   1.329   6.483
    1MOL    H56  327   1.745   1.232   6.435
    1MOL    O28  328   1.639   1.308   6.588
    1MOL    H57  329   1.611   1.395   6.625
    1MOL    C35  330   1.866   1.376   6.537
    1MOL    H58  331   1.853   1.472   6.588
    1MOL    O29  332   1.920   1.280   6.628
    1MOL    H59  333   1.845   1.252   6.683
    1MOL    C36  334   1.964   1.396   6.422
    1MOL    H60  335   1.979   1.302   6.368
    1MOL    O30  336   2.089   1.441   6.476
    1MOL    C37  337   2.196   1.350   6.473
    1MOL    H61  338   2.160   1.249   6.454
    1MOL    O31  339   2.286   1.378   6.368
    1MOL    C38  340   2.347   1.508   6.373
    1MOL    H62  341   2.269   1.585   6.376
    1MOL    C39  342   2.424   1.524   6.244
    1MOL    H63  343   2.492   1.438   6.231
    1MOL    H64  344   2.482   1.616   6.245
    1MOL    O32  345   2.326   1.526   6.139
    1MOL    H65  346   2.370   1.548   6.056
    1MOL    C40  347   2.270   1.356   6.607
    1MOL    H66  348   2.348   1.279   6.604
    1MOL    O33  349   2.189   1.332   6.720
    1MOL    H67  350   2.095   1.331   6.694
    1MOL    C41  351   2.339   1.492   6.621
    1MOL    H68  352   2.262   1.570   6.625
    1MOL    O34  353   2.418   1.495   6.740
    1MOL    H69  354   2.360   1.461   6.811
    1MOL    C42  355   2.430   1.519   6.502
    1MOL    H70  356   2.511   1.444   6.500
    1MOL    O35  357   2.485   1.650   6.518
    1MOL    C43  358   2.625   1.667   6.514
    1MOL    H71  359   2.675   1.569   6.511
    1MOL    O36  360   2.666   1.733   6.396
    1MOL    C44  361   2.615   1.866   6.379
    1MOL    H72  362   2.505   1.863   6.377
    1MOL    C45  363   2.665   1.915   6.244
    1MOL    H73  364   2.773   1.895   6.238
    1MOL    H74  365   2.648   2.024   6.237
    1MOL    O37  366   2.592   1.845   6.143
    1MOL    H75  367   2.630   1.871   6.058
    1MOL    C46  368   2.669   1.746   6.637
    1MOL    H76  369   2.778   1.751   6.637
    1MOL    O38  370   2.632   1.687   6.760
    1MOL    H77  371   2.546   1.640   6.750
    1MOL    C47  372   2.615   1.889   6.628
    1MOL    H78  373   2.505   1.886   6.629
    1MOL    O39  374   2.663   1.966   6.738
    1MOL    H79  375   2.652   1.910   6.816
    1MOL    C48  376   2.659   1.955   6.498
    1MOL    H80  377   2.768   1.965   6.498
    1MOL    O40  378   2.598   2.084   6.491
    1MOL     C1  379   1.320   2.198   7.434
    1MOL     H1  380   1.215   2.168   7.442
    1MOL     O1  381   1.353   2.257   7.558
    1MOL     C2  382   1.487   2.310   7.567
    1MOL     H2  383   1.559   2.228   7.555
    1MOL     C3  384   1.504   2.367   7.707
    1MOL     H3  385   1.611   2.389   7.722
    1MOL     H4  386   1.473   2.290   7.780
    1MOL     O2  387   1.426   2.485   7.720
    1MOL     H5  388   1.449   2.527   7.804
    1MOL     C4  389   1.339   2.298   7.319
    1MOL     H6  390   1.270   2.382   7.338
    1MOL     O3  391   1.305   2.247   7.192
    1MOL     H7  392   1.337   2.155   7.183
    1MOL     C5  393   1.482   2.353   7.321
    1MOL     H8  394   1.552   2.271   7.302
    1MOL     O4  395   1.496   2.453   7.220
    1MOL     H9  396   1.449   2.419   7.142
    1MOL     C6  397   1.511   2.415   7.456
    1MOL    H10  398   1.443   2.500   7.472
    1MOL     O5  399   1.647   2.459   7.457
    1MOL     C7  400   1.676   2.586   7.513
    1MOL    H11  401   1.586   2.628   7.560
    1MOL     O6  402   1.770   2.574   7.617
    1MOL     C8  403   1.899   2.522   7.577
    1MOL    H12  404   1.884   2.423   7.531
    1MOL     C9  405   1.984   2.504   7.704
    1MOL    H13  406   2.056   2.423   7.684
    1MOL    H14  407   1.918   2.470   7.784
    1MOL     O7  408   2.049   2.621   7.749
    1MOL    H15  409   2.137   2.624   7.706
    1MOL    C10  410   1.729   2.678   7.402
    1MOL    H16  411   1.740   2.778   7.444
    1MOL     O8  412   1.640   2.692   7.292
    1MOL    H17  413   1.607   2.603   7.265
    1MOL    C11  414   1.866   2.630   7.355
    1MOL    H18  415   1.856   2.531   7.308
    1MOL     O9  416   1.923   2.722   7.262
    1MOL    H19  417   1.850   2.745   7.201
    1MOL    C12  418   1.959   2.619   7.475
    1MOL    H20  419   1.969   2.717   7.523
    1MOL    O10  420   2.087   2.574   7.429
    1MOL    C13  421   2.199   2.656   7.456
    1MOL    H21  422   2.167   2.755   7.488
    1MOL    O11  423   2.276   2.604   7.564
    1MOL    C14  424   2.331   2.472   7.540
    1MOL    H22  425   2.248   2.403   7.518
    1MOL    C15  426   2.399   2.424   7.669
    1MOL    H23  427   2.393   2.314   7.673
    1MOL    H24  428   2.341   2.463   7.754
    1MOL    O12  429   2.533   2.468   7.684
    1MOL    H25  430   2.590   2.397   7.649
    1MOL    C16  431   2.284   2.665   7.329
    1MOL    H26  432   2.366   2.735   7.348
    1MOL    O13  433   2.212   2.715   7.217
    1MOL    H27  434   2.117   2.693   7.227
    1MOL    C17  435   2.346   2.528   7.298
    1MOL    H28  436   2.266   2.456   7.275
    1MOL    O14  437   2.435   2.538   7.187
    1MOL    H29  438   2.387   2.588   7.118
    1MOL    C18  439   2.424   2.480   7.419
    1MOL    H30  440   2.505   2.550   7.442
    1MOL    O15  441   2.479   2.351   7.387
    1MOL    C19  442   2.618   2.333   7.402
    1MOL    H31  443   2.669   2.429   7.416
    1MOL    O16  444   2.648   2.257   7.518
    1MOL    C20  445   2.591   2.124   7.519
    1MOL    H32  446   2.482   2.133   7.508
    1MOL    C21  447   2.621   2.059   7.655
    1MOL    H33  448   2.538   1.990   7.678
    1MOL    H34  449   2.619   2.138   7.731
    1MOL    O17  450   2.746   1.993   7.663
    1MOL    H35  451   2.730   1.899   7.642
    1MOL    C22  452   2.670   2.262   7.276
    1MOL    H36  453   2.779   2.255   7.284
    1MOL    O18  454   2.642   2.333   7.157
    1MOL    H37  455   2.558   2.382   7.167
    1MOL    C23  456   2.614   2.120   7.270
    1MOL    H38  457   2.505   2.124   7.259
    1MOL    O19  458   2.671   2.048   7.161
    1MOL    H39  459   2.666   2.108   7.084
    1MOL    C24  460   2.648   2.046   7.399
    1MOL    H40  461   2.757   2.040   7.411
    1MOL    O20  462   2.591   1.915   7.392
    1MOL    C25  463   2.677   1.804   7.410
    1MOL    H41  464   2.781   1.835   7.408
    1MOL    O21  465   2.656   1.745   7.537
    1MOL    C26  466   2.523   1.693   7.559
    1MOL    H42  467   2.451   1.775   7.553
    1MOL    C27  468   2.517   1.636   7.700
    1MOL    H43  469   2.412   1.616   7.724
    1MOL    H44  470   2.555   1.712   7.770
    1MOL    O22  471   2.596   1.517   7.706
    1MOL    H45  472   2.586   1.480   7.795
    1MOL    C28  473   2.648   1.704   7.298
    1MOL    H46  474   2.718   1.620   7.310
    1MOL    O23  475   2.670   1.756   7.168
    1MOL    H47  476   2.647   1.852   7.167
    1MOL    C29  477   2.506   1.650   7.312
    1MOL    H48  478   2.434   1.732   7.299
    1MOL    O24  479   2.482   1.549   7.214
    1MOL    H49  480   2.520   1.583   7.131
    1MOL    C30  481   2.487   1.589   7.451
    1MOL    H50  482   2.551   1.501   7.461
    1MOL    O25  483   2.350   1.552   7.463
    1MOL    C31  484   2.319   1.427   7.525
    1MOL    H51  485   2.407   1.388   7.576
    1MOL    O26  486   2.221   1.446   7.625
    1MOL    C32  487   2.094   1.497   7.578
    1MOL    H52  488   2.111   1.593   7.527
    1MOL    C33  489   2.005   1.522   7.700
    1MOL    H53  490   1.929   1.596   7.672
    1MOL    H54  491   2.069   1.568   7.777
    1MOL    O27  492   1.945   1.405   7.751
    1MOL    H55  493   1.849   1.416   7.744
    1MOL    C34  494   2.269   1.329   7.417
    1MOL    H56  495   2.255   1.232   7.465
    1MOL    O28  496   2.361   1.308   7.312
    1MOL    H57  497   2.389   1.395   7.275
    1MOL    C35  498   2.134   1.376   7.363
    1MOL    H58  499   2.147   1.472   7.312
    1MOL    O29  500   2.080   1.280   7.272
    1MOL    H59  501   2.155   1.252   7.217
    1MOL    C36  502   2.036   1.396   7.478
    1MOL    H60  503   2.021   1.302   7.532
    1MOL    O30  504   1.911   1.441   7.424
    1MOL    C37  505   1.804   1.350   7.427
    1MOL    H61  506   1.840   1.249   7.446
    1MOL    O31  507   1.714   1.378   7.532
    1MOL    C38  508   1.653   1.508   7.527
    1MOL    H62  509   1.732   1.585   7.524
    1MOL    C39  510   1.577   1.524   7.656
    1MOL    H63  511   1.508   1.438   7.669
    1MOL    H64  512   1.518   1.616   7.655
    1MOL    O32  513   1.674   1.526   7.761
    1MOL    H65  514   1.630   1.548   7.844
    1MOL    C40  515   1.730   1.356   7.293
    1MOL    H66  516   1.652   1.279   7.296
    1MOL    O33  517   1.811   1.332   7.180
    1MOL    H67  518   1.906   1.331   7.206
    1MOL    C41  519   1.661   1.492   7.279
    1MOL    H68  520   1.738   1.570   7.275
    1MOL    O34  521   1.582   1.495   7.160
    1MOL    H69  522   1.640   1.461   7.089
    1MOL    C42  523   1.570   1.519   7.398
    1MOL    H70  524   1.489   1.444   7.400
    1MOL    O35  525   1.515   1.650   7.382
    1MOL    C43  526   1.375   1.667   7.386
    1MOL    H71  527   1.325   1.569   7.389
    1MOL    O36  528   1.334   1.733   7.504
    1MOL    C44  529   1.385   1.866   7.521
    1MOL    H72  530   1.495   1.863   7.523
    1MOL    C45  531   1.336   1.915   7.655
    1MOL    H73  532   1.228   1.895   7.662
    1MOL    H74  533   1.352   2.024   7.663
    1MOL    O37  534   1.408   1.845   7.757
    1MOL    H75  535   1.371   1.871   7.842
    1MOL    C46  536   1.332   1.746   7.263
    1MOL    H76  537   1.222   1.751   7.263
    1MOL    O38  538   1.368   1.687   7.140
    1MOL    H77  539   1.454   1.640   7.150
    1MOL    C47  540   1.385   1.889   7.272
    1MOL    H78  541   1.495   1.886   7.270
    1MOL    O39  542   1.337   1.966   7.162
    1MOL    H79  543   1.348   1.910   7.084
    1MOL    C48  544   1.341   1.955   7.402
    1MOL    H80  545   1.232   1.965   7.402
    1MOL    O40  546   1.402   2.084   7.409
    2SOL     OW  547   0.230   0.628   0.113
    2SOL    HW1  548   0.137   0.626   0.150
    2SOL    HW2  549   0.231   0.589   0.021
    3SOL     OW  550   0.225   0.275   0.996
    3SOL    HW1  551   0.260   0.258   1.088
    3SOL    HW2  552   0.137   0.230   0.984
    4SOL     OW  553   0.019   0.368   0.647
    4SOL    HW1  554  -0.063   0.411   0.686
    4SOL    HW2  555  -0.009   0.295   0.584
    5SOL     OW  556   0.569   1.275   1.165
    5SOL    HW1  557   0.476   1.268   1.128
    5SOL    HW2  558   0.580   1.364   1.209
    6SOL     OW  559   1.555   1.511   0.703
    6SOL    HW1  560   1.498   1.495   0.784
    6SOL    HW2  561   1.496   1.521   0.623
    7SOL     OW  562   1.135   0.703   0.717
    7SOL    HW1  563   1.192   0.781   0.692
    7SOL    HW2  564   1.075   0.729   0.793
    8SOL     OW  565   1.755   0.607   0.231
    8SOL    HW1  566   1.743   0.594   0.132
    8SOL    HW2  567   1.725   0.526   0.280
    9SOL     OW  568   0.768   1.144   1.023
    9SOL    HW1  569   0.690   1.161   1.083
    9SOL    HW2  570   0.802   1.231   0.987
   10SOL     OW  571   0.850   0.798   1.823
   10SOL    HW1  572   0.846   0.874   1.888
   10SOL    HW2  573   0.872   0.834   1.732
   11SOL     OW  574   0.685   1.012   0.665
   11SOL    HW1  575   0.754   0.996   0.735
   11SOL    HW2  576   0.612   1.069   0.703
   12SOL     OW  577   0.686   1.161   1.803
   12SOL    HW1  578   0.746   1.240   1.817
   12SOL    HW2  579   0.600   1.192   1.762
   13SOL     OW  580   0.335   1.435   1.061
   13SOL    HW1  581   0.257   1.404   1.008
   13SOL    HW2  582   0.393   1.493   1.004
   14SOL     OW  583   1.460   1.505   1.339
   14SOL    HW1  584   1.484   1.599   1.365
   14SOL    HW2  585   1.444   1.451   1.421
   15SOL     OW  586   0.438   0.392   1.499
   15SOL    HW1  587   0.520   0.336   1.508
   15SOL    HW2  588   0.357   0.334   1.503
   16SOL     OW  589   1.603   0.447   0.737
   16SOL    HW1  590   1.529   0.493   0.687
   16SOL    HW2  591   1.654   0.515   0.790
   17SOL     OW  592   0.231   1.713   0.483
   17SOL    HW1  593   0.265   1.790   0.537
   17SOL    HW2  594   0.275   1.713   0.393
   18SOL     OW  595   1.127   1.341   1.690
   18SOL    HW1  596   1.174   1.341   1.778
   18SOL    HW2  597   1.079   1.254   1.679
   19SOL     OW  598   0.230   1.434   0.538
   19SOL    HW1  599   0.204   1.530   0.538
   19SOL    HW2  600   0.159   1.380   0.583
   20SOL     OW  601   0.240   1.091   0.886
   20SOL    HW1  602   0.254   1.007   0.938
   20SOL    HW2  603   0.185   1.155   0.941
   21SOL     OW  604   0.620   1.786   1.439
   21SOL    HW1  605   0.528   1.769   1.474
   21SOL    HW2  606   0.648   1.878   1.465
   22SOL     OW  607   0.606   0.964   0.123
   22SOL    HW1  608   0.613   1.048   0.069
   22SOL    HW2  609   0.652   0.977   0.211
   23SOL     OW  610   1.594   0.114   1.480
   23SOL    HW1  611   1.576   0.181   1.408
   23SOL    HW2  612   1.591   0.160   1.569
   24SOL     OW  613   0.122   0.643   0.563
   24SOL    HW1  614   0.077   0.555   0.580
   24SOL    HW2  615   0.121   0.697   0.647
   25SOL     OW  616   0.027   1.596   0.117
   25SOL    HW1  617   0.008   1.500   0.138
   25SOL    HW2  618  -0.006   1.654   0.192
   26SOL     OW  619   1.689   0.922   0.612
   26SOL    HW1  620   1.784   0.893   0.620
   26SOL    HW2  621   1.681   0.987   0.537
   27SOL     OW  622   1.641   1.108   0.432
   27SOL    HW1  623   1.727   1.110   0.380
   27SOL    HW2  624   1.655   1.155   0.520
   28SOL     OW  625   0.113   0.737   1.597
   28SOL    HW1  626   0.201   0.724   1.642
   28SOL    HW2  627   0.100   0.834   1.575
   29SOL     OW  628   0.613   1.365   0.726
   29SOL    HW1  629   0.564   1.278   0.735
   29SOL    HW2  630   0.590   1.408   0.639
   30SOL     OW  631   1.293   1.228   1.423
   30SOL    HW1  632   1.330   1.155   1.365
   30SOL    HW2  633   1.345   1.233   1.508
   31SOL     OW  634   0.809   0.004   0.502
   31SOL    HW1  635   0.849   0.095   0.493
   31SOL    HW2  636   0.709   0.012   0.508
   32SOL     OW  637   0.197   0.976   1.264
   32SOL    HW1  638   0.286   0.931   1.250
   32SOL    HW2  639   0.124   0.911   1.245
   33SOL     OW  640   1.525   0.999   0.190
   33SOL    HW1  641   1.462   0.923   0.203
   33SOL    HW2  642   1.573   1.017   0.276
   34SOL     OW  643   1.187   1.792   1.616
   34SOL    HW1  644   1.211   1.852   1.540
   34SOL    HW2  645   1.194   1.697   1.586
   35SOL     OW  646   0.317   0.251   1.801
   35SOL    HW1  647   0.388   0.322   1.807
   35SOL    HW2  648   0.229   0.290   1.829
   36SOL     OW  649   1.466   1.417   0.953
   36SOL    HW1  650   1.407   1.423   1.033
   36SOL    HW2  651   1.451   1.329   0.907
   37SOL     OW  652   1.667   1.714   0.572
   37SOL    HW1  653   1.626   1.691   0.484
   37SOL    HW2  654   1.649   1.640   0.637
   38SOL     OW  655   0.598   0.729   0.270
   38SOL    HW1  656   0.622   0.798   0.202
   38SOL    HW2  657   0.520   0.762   0.324
   39SOL     OW  658   1.281   0.345   0.944
   39SOL    HW1  659   1.195   0.295   0.931
   39SOL    HW2  660   1.343   0.291   1.000
   40SOL     OW  661   1.576   1.662   0.307
   40SOL    HW1  662   1.665   1.708   0.310
   40SOL    HW2  663   1.555   1.638   0.212
   41SOL     OW  664   0.807   0.605   1.465
   41SOL    HW1  665   0.760   0.602   1.554
   41SOL    HW2  666   0.756   0.550   1.399
   42SOL     OW  667   1.394   0.469   1.674
   42SOL    HW1  668   1.374   0.512   1.762
   42SOL    HW2  669   1.472   0.407   1.683
   43SOL     OW  670   0.973   0.890   1.572
   43SOL    HW1  671   1.019   0.806   1.543
   43SOL    HW2  672   0.917   0.924   1.497
   44SOL     OW  673   0.991   0.410   1.242
   44SOL    HW1  674   0.914   0.444   1.296
   44SOL    HW2  675   0.957   0.359   1.163
   45SOL     OW  676   1.041   0.701   0.429
   45SOL    HW1  677   1.067   0.697   0.525
   45SOL    HW2  678   0.956   0.650   0.415
   46SOL     OW  679   0.076   0.811   0.789
   46SOL    HW1  680   0.175   0.799   0.798
   46SOL    HW2  681   0.052   0.906   0.810
   47SOL     OW  682   0.130   1.821   1.571
   47SOL    HW1  683   0.120   1.806   1.670
   47SOL    HW2  684   0.044   1.857   1.535
   48SOL     OW  685   0.865   0.348   0.195
   48SOL    HW1  686   0.924   0.411   0.146
   48SOL    HW2  687   0.884   0.254   0.166
   49SOL     OW  688   1.719   0.585   1.831
   49SOL    HW1  689   1.693   0.674   1.795
   49SOL    HW2  690   1.717   0.517   1.758
   50SOL     OW  691   1.362   1.144   0.545
   50SOL    HW1  692   1.445   1.115   0.497
   50SOL    HW2  693   1.313   1.211   0.489
   51SOL     OW  694   0.550   0.196   0.885
   51SOL    HW1  695   0.545   0.191   0.985
   51SOL    HW2  696   0.552   0.292   0.856
   52SOL     OW  697   1.008   1.456   0.477
   52SOL    HW1  698   0.962   1.528   0.425
   52SOL    HW2  699   1.004   1.476   0.575
   53SOL     OW  700   0.351   1.801   0.853
   53SOL    HW1  701   0.401   1.715   0.859
   53SOL    HW2  702   0.416   1.878   0.850
   54SOL     OW  703   1.795   1.066   0.873
   54SOL    HW1  704   1.733   1.051   0.797
   54SOL    HW2  705   1.743   1.077   0.958
   55SOL     OW  706   1.227   1.550   1.506
   55SOL    HW1  707   1.233   1.473   1.570
   55SOL    HW2  708   1.175   1.524   1.426
   56SOL     OW  709   0.321   0.943   0.242
   56SOL    HW1  710   0.403   0.982   0.200
   56SOL    HW2  711   0.294   0.861   0.193
   57SOL     OW  712   1.458   0.735   0.728
   57SOL    HW1  713   1.453   0.670   0.803
   57SOL    HW2  714   1.538   0.794   0.741
   58SOL     OW  715   0.461   1.266   1.727
   58SOL    HW1  716   0.411   1.267   1.641
   58SOL    HW2  717   0.398   1.248   1.803
   59SOL     OW  718   1.111   1.776   0.237
   59SOL    HW1  719   1.051   1.714   0.287
   59SOL    HW2  720   1.142   1.732   0.152
   60SOL     OW  721   0.202   0.285   1.498
   60SOL    HW1  722   0.122   0.345   1.485
   60SOL    HW2  723   0.192   0.236   1.584
   61SOL     OW  724   1.632   1.377   0.081
   61SOL    HW1  725   1.600   1.471   0.071
   61SOL    HW2  726   1.556   1.314   0.069
   62SOL     OW  727   0.464   1.743   0.323
   62SOL    HW1  728   0.497   1.782   0.409
   62SOL    HW2  729   0.540   1.736   0.258
   63SOL     OW  730   1.400   0.107   0.426
   63SOL    HW1  731   1.376   0.070   0.336
   63SOL    HW2  732   1.499   0.123   0.430
   64SOL     OW  733   0.249   1.785   1.241
   64SOL    HW1  734   0.306   1.720   1.291
   64SOL    HW2  735   0.233   1.752   1.148
   65SOL     OW  736   0.940   1.698   0.904
   65SOL    HW1  737   1.020   1.641   0.925
   65SOL    HW2  738   0.891   1.658   0.827
   66SOL     OW  739   0.382   0.700   0.480
   66SOL    HW1  740   0.427   0.610   0.477
   66SOL    HW2  741   0.288   0.689   0.513
   67SOL     OW  742   1.547   0.222   1.729
   67SOL    HW1  743   1.542   0.259   1.821
   67SOL    HW2  744   1.475   0.153   1.717
   68SOL     OW  745   0.614   0.122   0.117
   68SOL    HW1  746   0.712   0.100   0.124
   68SOL    HW2  747   0.583   0.105   0.024
   69SOL     OW  748   0.781   0.264   1.749
   69SOL    HW1  749   0.848   0.203   1.792
   69SOL    HW2  750   0.708   0.283   1.814
   70SOL     OW  751   0.888   1.514   1.195
   70SOL    HW1  752   0.865   1.489   1.101
   70SOL    HW2  753   0.949   1.445   1.234
   71SOL     OW  754   1.351   0.590   1.433
   71SOL    HW1  755   1.379   0.547   1.518
   71SOL    HW2  756   1.376   0.686   1.434
   72SOL     OW  757   0.803   1.402   0.924
   72SOL    HW1  758   0.893   1.416   0.882
   72SOL    HW2  759   0.732   1.404   0.853
   73SOL     OW  760   0.922   0.503   0.899
   73SOL    HW1  761   0.897   0.494   0.803
   73SOL    HW2  762   0.970   0.421   0.930
   74SOL     OW  763   0.539   0.064   0.512
   74SOL    HW1  764   0.458   0.065   0.570
   74SOL    HW2  765   0.542   0.147   0.457
   75SOL     OW  766   1.434   1.188   0.041
   75SOL    HW1  767   1.466   1.112   0.098
   75SOL    HW2  768   1.342   1.215   0.071
   76SOL     OW  769   0.297   0.035   0.171
   76SOL    HW1  770   0.346   0.119   0.150
   76SOL    HW2  771   0.359  -0.030   0.216
   77SOL     OW  772   0.935   0.236   0.480
   77SOL    HW1  773   0.887   0.277   0.402
   77SOL    HW2  774   1.034   0.234   0.461
   78SOL     OW  775   1.076   0.683   1.464
   78SOL    HW1  776   0.996   0.622   1.467
   78SOL    HW2  777   1.157   0.630   1.440
   79SOL     OW  778   1.227   1.570   0.793
   79SOL    HW1  779   1.248   1.644   0.728
   79SOL    HW2  780   1.295   1.570   0.866
   80SOL     OW  781   0.459   1.152   0.741
   80SOL    HW1  782   0.388   1.125   0.806
   80SOL    HW2  783   0.433   1.124   0.648
   81SOL     OW  784   1.271   1.797   0.591
   81SOL    HW1  785   1.315   1.861   0.527
   81SOL    HW2  786   1.221   1.849   0.661
   82SOL     OW  787   1.032   0.549   0.016
   82SOL    HW1  788   0.991   0.631  -0.023
   82SOL    HW2  789   1.096   0.575   0.089
   83SOL     OW  790   0.078   0.556   1.386
   83SOL    HW1  791   0.170   0.555   1.345
   83SOL    HW2  792   0.072   0.630   1.453
   84SOL     OW  793   0.561   0.222   1.147
   84SOL    HW1  794   0.599   0.138   1.184
   84SOL    HW2  795   0.473   0.241   1.191
   85SOL     OW  796   0.866   0.454   0.642
   85SOL    HW1  797   0.834   0.526   0.580
   85SOL    HW2  798   0.890   0.373   0.589
   86SOL     OW  799   1.017   0.039   0.753
   86SOL    HW1  800   0.945   0.044   0.684
   86SOL    HW2  801   0.993  -0.030   0.822
   87SOL     OW  802   1.429   1.173   0.867
   87SOL    HW1  803   1.374   1.089   0.860
   87SOL    HW2  804   1.455   1.202   0.775
   88SOL     OW  805   1.466   0.590   0.992
   88SOL    HW1  806   1.436   0.495   0.999
   88SOL    HW2  807   1.539   0.606   1.058
   89SOL     OW  808   1.857   0.833   0.377
   89SOL    HW1  809   1.899   0.769   0.441
   89SOL    HW2  810   1.819   0.782   0.299
   90SOL     OW  811   0.488   1.385   0.174
   90SOL    HW1  812   0.401   1.370   0.221
   90SOL    HW2  813   0.471   1.411   0.079
   91SOL     OW  814   1.664   1.280   0.657
   91SOL    HW1  815   1.763   1.288   0.671
   91SOL    HW2  816   1.619   1.364   0.688
   92SOL     OW  817   1.390   0.575   0.078
   92SOL    HW1  818   1.336   0.554   0.159
   92SOL    HW2  819   1.481   0.534   0.087
   93SOL     OW  820   0.527   0.256   0.328
   93SOL    HW1  821   0.554   0.197   0.253
   93SOL    HW2  822   0.527   0.351   0.297
   94SOL     OW  823   1.754   1.223   1.588
   94SOL    HW1  824   1.845   1.184   1.575
   94SOL    HW2  825   1.762   1.319   1.612
   95SOL     OW  826   1.064   1.347   1.340
   95SOL    HW1  827   0.984   1.324   1.395
   95SOL    HW2  828   1.147   1.321   1.389
   96SOL     OW  829   1.592   1.629   1.625
   96SOL    HW1  830   1.619   1.663   1.535
   96SOL    HW2  831   1.671   1.591   1.671
   97SOL     OW  832   1.111   1.195   1.100
   97SOL    HW1  833   1.071   1.239   1.181
   97SOL    HW2  834   1.070   1.232   1.017
   98SOL     OW  835   1.638   1.099   1.079
   98SOL    HW1  836   1.643   1.180   1.138
   98SOL    HW2  837   1.552   1.101   1.028
   99SOL     OW  838   0.915   0.089   1.402
   99SOL    HW1  839   0.940   0.069   1.307
   99SOL    HW2  840   0.987   0.145   1.444
  100SOL     OW  841   0.980   1.116   1.719
  100SOL    HW1  842   0.881   1.122   1.729
  100SOL    HW2  843   1.003   1.036   1.663
  101SOL     OW  844   0.705   1.050   0.368
  101SOL    HW1  845   0.691   1.057   0.467
  101SOL    HW2  846   0.789   0.999   0.350
  102SOL     OW  847   0.410   0.813   1.251
  102SOL    HW1  848   0.496   0.825   1.301
  102SOL    HW2  849   0.368   0.726   1.278
  103SOL     OW  850   1.274   0.386   1.262
  103SOL    HW1  851   1.295   0.460   1.326
  103SOL    HW2  852   1.185   0.403   1.219
  104SOL     OW  853   0.064   1.564   1.331
  104SOL    HW1  854   0.018   1.646   1.297
  104SOL    HW2  855   0.162   1.583   1.340
  105SOL     OW  856   0.367   1.100   0.501
  105SOL    HW1  857   0.360   1.183   0.445
  105SOL    HW2  858   0.371   1.020   0.441
  106SOL     OW  859   0.566   0.537   0.865
  106SOL    HW1  860   0.578   0.603   0.791
  106SOL    HW2  861   0.612   0.571   0.948
  107SOL     OW  862   1.252   1.348   0.388
  107SOL    HW1  863   1.302   1.425   0.428
  107SOL    HW2  864   1.157   1.350   0.420
  108SOL     OW  865   1.272   1.445   1.142
  108SOL    HW1  866   1.319   1.458   1.229
  108SOL    HW2  867   1.206   1.371   1.151
  109SOL     OW  868   1.582   0.639   0.472
  109SOL    HW1  869   1.551   0.700   0.545
  109SOL    HW2  870   1.632   0.691   0.403
  110SOL     OW  871   0.354   1.510   1.329
  110SOL    HW1  872   0.333   1.466   1.242
  110SOL    HW2  873   0.451   1.536   1.332
  111SOL     OW  874   0.402   0.751   1.598
  111SOL    HW1  875   0.470   0.806   1.551
  111SOL    HW2  876   0.442   0.663   1.625
  112SOL     OW  877   1.587   0.779   1.670
  112SOL    HW1  878   1.495   0.817   1.665
  112SOL    HW2  879   1.647   0.826   1.605
  113SOL     OW  880   1.013   0.105   1.770
  113SOL    HW1  881   1.019   0.190   1.718
  113SOL    HW2  882   1.045   0.029   1.713
  114SOL     OW  883   0.504   0.050   1.740
  114SOL    HW1  884   0.462  -0.007   1.670
  114SOL    HW2  885   0.438   0.119   1.772
  115SOL     OW  886   0.573   0.870   1.029
  115SOL    HW1  887   0.617   0.959   1.020
  115SOL    HW2  888   0.510   0.870   1.106
  116SOL     OW  889   1.360   0.862   1.045
  116SOL    HW1  890   1.285   0.862   0.979
  116SOL    HW2  891   1.397   0.770   1.054
  117SOL     OW  892   1.209   0.525   0.275
  117SOL    HW1  893   1.222   0.441   0.329
  117SOL    HW2  894   1.180   0.599   0.335
  118SOL     OW  895   0.307   0.213   1.231
  118SOL    HW1  896   0.284   0.250   1.321
  118SOL    HW2  897   0.277   0.118   1.225
  119SOL     OW  898   0.037   1.310   1.282
  119SOL    HW1  899   0.090   1.261   1.350
  119SOL    HW2  900   0.059   1.408   1.287
  120SOL     OW  901   0.732   0.634   1.064
  120SOL    HW1  902   0.791   0.608   0.988
  120SOL    HW2  903   0.704   0.730   1.053
  121SOL     OW  904   1.728   0.935   1.854
  121SOL    HW1  905   1.682   0.928   1.765
  121SOL    HW2  906   1.666   0.979   1.920
  122SOL     OW  907   0.307   0.063   0.618
  122SOL    HW1  908   0.296   0.157   0.651
  122SOL    HW2  909   0.302   0.000   0.695
  123SOL     OW  910   1.622   0.367   0.374
  123SOL    HW1  911   1.624   0.291   0.438
  123SOL    HW2  912   1.574   0.444   0.414
  124SOL     OW  913   1.023   0.766   0.966
  124SOL    HW1  914   1.038   0.787   1.062
  124SOL    HW2  915   0.993   0.671   0.957
  125SOL     OW  916   0.980   1.573   1.700
  125SOL    HW1  917   0.960   1.617   1.612
  125SOL    HW2  918   1.019   1.482   1.684
  126SOL     OW  919   1.859   1.518   1.605
  126SOL    HW1  920   1.873   1.545   1.510
  126SOL    HW2  921   1.942   1.540   1.658
  127SOL     OW  922   0.350   0.898   1.804
  127SOL    HW1  923   0.426   0.942   1.852
  127SOL    HW2  924   0.385   0.851   1.722
  128SOL     OW  925   1.540   0.274   0.125
  128SOL    HW1  926   1.479   0.199   0.148
  128SOL    HW2  927   1.562   0.326   0.208
  129SOL     OW  928   1.303   0.838   0.042
  129SOL    HW1  929   1.337   0.745   0.057
  129SOL    HW2  930   1.321   0.865  -0.053
  130SOL     OW  931   1.068   1.333   0.849
  130SOL    HW1  932   1.075   1.249   0.794
  130SOL    HW2  933   1.130   1.402   0.813
  131SOL     OW  934   0.319   0.810   0.949
  131SOL    HW1  935   0.412   0.846   0.954
  131SOL    HW2  936   0.313   0.725   1.001
  132SOL     OW  937   0.339   0.509   1.006
  132SOL    HW1  938   0.287   0.426   0.989
  132SOL    HW2  939   0.416   0.514   0.942
  133SOL     OW  940   1.138   0.380   1.678
  133SOL    HW1  941   1.093   0.443   1.742
  133SOL    HW2  942   1.231   0.411   1.661
  134SOL     OW  943   1.160   0.207   1.477
  134SOL    HW1  944   1.160   0.271   1.554
  134SOL    HW2  945   1.188   0.255   1.394
  135SOL     OW  946   0.008   1.326   0.200
  135SOL    HW1  947  -0.085   1.347   0.169
  135SOL    HW2  948   0.018   1.227   0.213
  136SOL     OW  949   0.088   1.801   0.927
  136SOL    HW1  950   0.046   1.715   0.900
  136SOL    HW2  951   0.182   1.804   0.893
  137SOL     OW  952   0.504   1.568   0.910
  137SOL    HW1  953   0.570   1.642   0.919
  137SOL    HW2  954   0.548   1.489   0.868
  138SOL     OW  955   1.002   0.796   1.238
  138SOL    HW1  956   1.043   0.764   1.324
  138SOL    HW2  957   0.906   0.769   1.235
  139SOL     OW  958   0.040   0.544   1.114
  139SOL    HW1  959   0.125   0.511   1.073
  139SOL    HW2  960   0.053   0.559   1.212
  140SOL     OW  961   0.189   0.520   1.722
  140SOL    HW1  962   0.248   0.480   1.652
  140SOL    HW2  963   0.131   0.591   1.681
  141SOL     OW  964   1.369   0.950   1.660
  141SOL    HW1  965   1.408   1.039   1.680
  141SOL    HW2  966   1.379   0.930   1.563
  142SOL     OW  967   0.815   0.572   0.325
  142SOL    HW1  968   0.822   0.483   0.279
  142SOL    HW2  969   0.721   0.606   0.317
  143SOL     OW  970   1.657   0.604   1.206
  143SOL    HW1  971   1.619   0.535   1.268
  143SOL    HW2  972   1.739   0.568   1.162
  144SOL     OW  973   0.252   1.564   1.744
  144SOL    HW1  974   0.222   1.621   1.820
  144SOL    HW2  975   0.245   1.467   1.770
  145SOL     OW  976   0.671   0.464   1.269
  145SOL    HW1  977   0.637   0.375   1.239
  145SOL    HW2  978   0.697   0.518   1.189
  146SOL     OW  979   0.930   1.678   1.465
  146SOL    HW1  980   0.906   1.660   1.370
  146SOL    HW2  981   0.960   1.772   1.475
  147SOL     OW  982   0.473   0.500   0.191
  147SOL    HW1  983   0.534   0.580   0.195
  147SOL    HW2  984   0.378   0.531   0.198
  148SOL     OW  985   0.159   1.137   1.466
  148SOL    HW1  986   0.181   1.076   1.542
  148SOL    HW2  987   0.169   1.088   1.380
  149SOL     OW  988   1.347   1.059   1.234
  149SOL    HW1  989   1.371   0.996   1.160
  149SOL    HW2  990   1.257   1.099   1.216
  150SOL     OW  991   1.302   0.855   0.309
  150SOL    HW1  992   1.216   0.824   0.351
  150SOL    HW2  993   1.298   0.841   0.210
  151SOL     OW  994   1.759   1.747   1.154
  151SOL    HW1  995   1.820   1.777   1.081
  151SOL    HW2  996   1.721   1.658   1.132
  152SOL     OW  997   1.252   1.731   1.128
  152SOL    HW1  998   1.336   1.736   1.074
  152SOL    HW2  999   1.229   1.635   1.146
  153SOL     OW 1000   0.083   1.258   1.022
  153SOL    HW1 1001   0.078   1.257   1.122
  153SOL    HW2 1002   0.000   1.217   0.984
  154SOL     OW 1003   0.688   1.662   1.716
  154SOL    HW1 1004   0.632   1.743   1.725
  154SOL    HW2 1005   0.740   1.666   1.630
  155SOL     OW 1006   0.903   0.086   0.133
  155SOL    HW1 1007   0.954   0.087   0.047
  155SOL    HW2 1008   0.959   0.044   0.204
  156SOL     OW 1009   1.726   0.135   0.523
  156SOL    HW1 1010   1.799   0.118   0.456
  156SOL    HW2 1011   1.695   0.048   0.561
  157SOL     OW 1012   1.388   1.573   0.477
  157SOL    HW1 1013   1.455   1.585   0.403
  157SOL    HW2 1014   1.348   1.662   0.500
  158SOL     OW 1015   0.130   1.794   1.851
  158SOL    HW1 1016   0.089   1.720   1.904
  158SOL    HW2 1017   0.194   1.845   1.909
  159SOL     OW 1018   1.280   0.927   0.672
  159SOL    HW1 1019   1.340   0.846   0.674
  159SOL    HW2 1020   1.320   0.996   0.612
  160SOL     OW 1021   0.830   1.273   1.422
  160SOL    HW1 1022   0.825   1.306   1.517
  160SOL    HW2 1023   0.744   1.292   1.376
  161SOL     OW 1024   0.672   1.616   0.154
  161SOL    HW1 1025   0.681   1.626   0.055
  161SOL    HW2 1026   0.632   1.527   0.175
  162SOL     OW 1027   1.650   1.720   1.394
  162SOL    HW1 1028   1.703   1.730   1.310
  162SOL    HW2 1029   1.623   1.810   1.428
  163SOL     OW 1030   1.841   0.175   0.963
  163SOL    HW1 1031   1.880   0.090   0.927
  163SOL    HW2 1032   1.743   0.177   0.944
  164SOL     OW 1033   0.263   0.326   0.720
  164SOL    HW1 1034   0.184   0.377   0.686
  164SOL    HW2 1035   0.254   0.311   0.818
  165SOL     OW 1036   1.194   1.612   0.031
  165SOL    HW1 1037   1.200   1.519   0.068
  165SOL    HW2 1038   1.135   1.612  -0.049
  166SOL     OW 1039   0.822   1.002   1.372
  166SOL    HW1 1040   0.862   1.001   1.280
  166SOL    HW2 1041   0.832   1.094   1.412
  167SOL     OW 1042   0.916   0.910   0.291
  167SOL    HW1 1043   0.979   0.948   0.223
  167SOL    HW2 1044   0.956   0.827   0.330
  168SOL     OW 1045   1.504   1.607   0.044
  168SOL    HW1 1046   1.412   1.644   0.051
  168SOL    HW2 1047   1.542   1.627  -0.046
  169SOL     OW 1048   0.372   1.288   1.490
  169SOL    HW1 1049   0.359   1.381   1.456
  169SOL    HW2 1050   0.288   1.236   1.477
  170SOL     OW 1051   1.614   1.292   1.289
  170SOL    HW1 1052   1.674   1.295   1.369
  170SOL    HW2 1053   1.539   1.356   1.302
  171SOL     OW 1054   1.039   1.098   0.696
  171SOL    HW1 1055   0.969   1.051   0.750
  171SOL    HW2 1056   1.098   1.030   0.653
  172SOL     OW 1057   1.014   0.236   0.971
  172SOL    HW1 1058   1.006   0.200   0.878
  172SOL    HW2 1059   1.012   0.160   1.036
  173SOL     OW 1060   0.590   1.487   0.491
  173SOL    HW1 1061   0.632   1.429   0.421
  173SOL    HW2 1062   0.546   1.566   0.447
  174SOL     OW 1063   1.709   0.385   1.381
  174SOL    HW1 1064   1.782   0.454   1.385
  174SOL    HW2 1065   1.737   0.310   1.322
  175SOL     OW 1066   0.255   1.348   0.290
  175SOL    HW1 1067   0.159   1.349   0.263
  175SOL    HW2 1068   0.267   1.401   0.374
  176SOL     OW 1069   0.105   1.013   1.726
  176SOL    HW1 1070   0.028   0.980   1.780
  176SOL    HW2 1071   0.190   0.983   1.768
  177SOL     OW 1072   0.672   0.203   1.489
  177SOL    HW1 1073   0.762   0.187   1.449
  177SOL    HW2 1074   0.680   0.208   1.588
  178SOL     OW 1075   0.075   0.345   0.033
  178SOL    HW1 1076  -0.017   0.317   0.004
  178SOL    HW2 1077   0.106   0.422  -0.023
  179SOL     OW 1078   1.440   0.856   1.398
  179SOL    HW1 1079   1.383   0.908   1.335
  179SOL    HW2 1080   1.536   0.868   1.374
  180SOL     OW 1081   0.072   0.166   0.318
  180SOL    HW1 1082   0.055   0.249   0.264
  180SOL    HW2 1083   0.162   0.129   0.296
  181SOL     OW 1084   1.183   1.335   0.119
  181SOL    HW1 1085   1.084   1.324   0.121
  181SOL    HW2 1086   1.217   1.350   0.212
  182SOL     OW 1087   0.613   0.842   1.431
  182SOL    HW1 1088   0.669   0.923   1.414
  182SOL    HW2 1089   0.672   0.762   1.434
  183SOL     OW 1090   1.493   1.767   0.959
  183SOL    HW1 1091   1.526   1.831   0.890
  183SOL    HW2 1092   1.559   1.761   1.034
  184SOL     OW 1093   0.716   0.565   1.708
  184SOL    HW1 1094   0.735   0.630   1.782
  184SOL    HW2 1095   0.776   0.485   1.717
  185SOL     OW 1096   1.450   1.220   1.633
  185SOL    HW1 1097   1.441   1.210   1.732
  185SOL    HW2 1098   1.546   1.213   1.607
  186SOL     OW 1099   0.390   1.741   1.560
  186SOL    HW1 1100   0.299   1.782   1.558
  186SOL    HW2 1101   0.383   1.647   1.592
  187SOL     OW 1102   1.674   0.883   1.254
  187SOL    HW1 1103   1.647   0.794   1.217
  187SOL    HW2 1104   1.675   0.951   1.181
  188SOL     OW 1105   1.225   0.325   0.449
  188SOL    HW1 1106   1.290   0.251   0.438
  188SOL    HW2 1107   1.245   0.375   0.533
  189SOL     OW 1108   0.594   0.745   0.652
  189SOL    HW1 1109   0.644   0.830   0.633
  189SOL    HW2 1110   0.506   0.747   0.604
  190SOL     OW 1111   1.777   0.342   1.642
  190SOL    HW1 1112   1.760   0.373   1.548
  190SOL    HW2 1113   1.693   0.305   1.680
  191SOL     OW 1114   1.730   0.934   1.517
  191SOL    HW1 1115   1.768   1.025   1.532
  191SOL    HW2 1116   1.722   0.917   1.418
  192SOL     OW 1117   0.859   1.374   0.016
  192SOL    HW1 1118   0.813   1.389   0.104
  192SOL    HW2 1119   0.903   1.459  -0.014
  193SOL     OW 1120   0.661   1.790   0.953
  193SOL    HW1 1121   0.615   1.878   0.940
  193SOL    HW2 1122   0.760   1.802   0.946
  194SOL     OW 1123   0.859   0.956   0.861
  194SOL    HW1 1124   0.913   0.887   0.909
  194SOL    HW2 1125   0.827   1.025   0.927
  195SOL     OW 1126   1.083   0.984   0.087
  195SOL    HW1 1127   1.060   1.037   0.005
  195SOL    HW2 1128   1.164   0.928   0.068
  196SOL     OW 1129   1.861   1.569   0.851
  196SOL    HW1 1130   1.790   1.557   0.781
  196SOL    HW2 1131   1.862   1.490   0.911
  197SOL     OW 1132   0.221   1.314   1.844
  197SOL    HW1 1133   0.156   1.241   1.823
  197SOL    HW2 1134   0.225   1.328   1.942
  198SOL     OW 1135   0.079   1.240   0.653
  198SOL    HW1 1136   0.078   1.193   0.741
  198SOL    HW2 1137   0.161   1.212   0.602
  199SOL     OW 1138   0.672   1.391   1.624
  199SOL    HW1 1139   0.594   1.341   1.662
  199SOL    HW2 1140   0.669   1.486   1.655
  200SOL     OW 1141   1.824   0.192   1.227
  200SOL    HW1 1142   1.820   0.102   1.271
  200SOL    HW2 1143   1.827   0.181   1.128
  201SOL     OW 1144   0.428   0.424   0.520
  201SOL    HW1 1145   0.458   0.352   0.458
  201SOL    HW2 1146   0.389   0.384   0.603
  202SOL     OW 1147   1.705   1.487   1.104
  202SOL    HW1 1148   1.612   1.462   1.077
  202SOL    HW2 1149   1.731   1.437   1.186
  203SOL     OW 1150   0.317   0.547   1.280
  203SOL    HW1 1151   0.355   0.488   1.352
  203SOL    HW2 1152   0.357   0.521   1.192
  204SOL     OW 1153   0.812   1.586   0.687
  204SOL    HW1 1154   0.844   1.596   0.593
  204SOL    HW2 1155   0.733   1.524   0.689
  205SOL     OW 1156   1.424   0.214   1.112
  205SOL    HW1 1157   1.476   0.149   1.167
  205SOL    HW2 1158   1.375   0.277   1.173
  206SOL     OW 1159   1.001   0.034   1.154
  206SOL    HW1 1160   0.938  -0.038   1.123
  206SOL    HW2 1161   1.094  -0.002   1.154
  207SOL     OW 1162   0.770   1.330   0.301
  207SOL    HW1 1163   0.724   1.243   0.318
  207SOL    HW2 1164   0.861   1.327   0.342
  208SOL     OW 1165   0.618   1.567   1.284
  208SOL    HW1 1166   0.613   1.649   1.341
  208SOL    HW2 1167   0.707   1.564   1.239
  209SOL     OW 1168   1.352   0.052   0.168
  209SOL    HW1 1169   1.387   0.011   0.084
  209SOL    HW2 1170   1.262   0.014   0.188
  210SOL     OW 1171   1.300   0.453   0.691
  210SOL    HW1 1172   1.241   0.533   0.695
  210SOL    HW2 1173   1.315   0.418   0.784
  211SOL     OW 1174   1.593   0.221   0.882
  211SOL    HW1 1175   1.509   0.220   0.936
  211SOL    HW2 1176   1.595   0.304   0.826
  212SOL     OW 1177   0.039   1.077   0.300
  212SOL    HW1 1178   0.138   1.066   0.291
  212SOL    HW2 1179  -0.001   0.991   0.332
  213SOL     OW 1180   0.875   1.646   0.337
  213SOL    HW1 1181   0.798   1.611   0.283
  213SOL    HW2 1182   0.843   1.717   0.399
  214SOL     OW 1183   0.230   0.628   1.975
  214SOL    HW1 1184   0.137   0.626   2.012
  214SOL    HW2 1185   0.231   0.589   1.883
  215SOL     OW 1186   0.225   0.275   2.858
  215SOL    HW1 1187   0.260   0.258   2.950
  215SOL    HW2 1188   0.137   0.230   2.846
  216SOL     OW 1189   0.019   0.368   2.509
  216SOL    HW1 1190  -0.063   0.411   2.548
  216SOL    HW2 1191  -0.009   0.295   2.446
  217SOL     OW 1192   0.569   1.275   3.027
  217SOL    HW1 1193   0.476   1.268   2.990
  217SOL    HW2 1194   0.580   1.364   3.071
  218SOL     OW 1195   1.555   1.511   2.565
  218SOL    HW1 1196   1.498   1.495   2.646
  218SOL    HW2 1197   1.496   1.521   2.485
  219SOL     OW 1198   1.135   0.703   2.579
  219SOL    HW1 1199   1.192   0.781   2.554
  219SOL    HW2 1200   1.075   0.729   2.655
  220SOL     OW 1201   1.755   0.607   2.093
  220SOL    HW1 1202   1.743   0.594   1.994
  220SOL    HW2 1203   1.725   0.526   2.142
  221SOL     OW 1204   0.768   1.144   2.885
  221SOL    HW1 1205   0.690   1.161   2.945
  221SOL    HW2 1206   0.802   1.231   2.849
  222SOL     OW 1207   0.850   0.798   3.685
  222SOL    HW1 1208   0.846   0.874   3.750
  222SOL    HW2 1209   0.872   0.834   3.594
  223SOL     OW 1210   0.685   1.012   2.527
  223SOL    HW1 1211   0.754   0.996   2.597
  223SOL    HW2 1212   0.612   1.069   2.565
  224SOL     OW 1213   0.686   1.161   3.665
  224SOL    HW1 1214   0.746   1.240   3.679
  224SOL    HW2 1215   0.600   1.192   3.624
  225SOL     OW 1216   0.335   1.435   2.923
  225SOL    HW1 1217   0.257   1.404   2.870
  225SOL    HW2 1218   0.393   1.493   2.866
  226SOL     OW 1219   1.460   1.505   3.201
  226SOL    HW1 1220   1.484   1.599   3.227
  226SOL    HW2 1221   1.444   1.451   3.283
  227SOL     OW 1222   0.438   0.392   3.361
  227SOL    HW1 1223   0.520   0.336   3.370
  227SOL    HW2 1224   0.357   0.334   3.365
  228SOL     OW 1225   1.603   0.447   2.599
  228SOL    HW1 1226   1.529   0.493   2.549
  228SOL    HW2 1227   1.654   0.515   2.652
  229SOL     OW 1228   0.231   1.713   2.345
  229SOL    HW1 1229   0.265   1.790   2.399
  229SOL    HW2 1230   0.275   1.713   2.255
  230SOL     OW 1231   1.127   1.341   3.552
  230SOL    HW1 1232   1.174   1.341   3.640
  230SOL    HW2 1233   1.079   1.254   3.541
  231SOL     OW 1234   0.230   1.434   2.400
  231SOL    HW1 1235   0.204   1.530   2.400
  231SOL    HW2 1236   0.159   1.380   2.445
  232SOL     OW 1237   0.240   1.091   2.748
  232SOL    HW1 1238   0.254   1.007   2.800
  232SOL    HW2 1239   0.185   1.155   2.803
  233SOL     OW 1240   0.620   1.786   3.301
  233SOL    HW1 1241   0.528   1.769   3.336
  233SOL    HW2 1242   0.648   1.878   3.327
  234SOL     OW 1243   0.606   0.964   1.985
  234SOL    HW1 1244   0.613   1.048   1.931
  234SOL    HW2 1245   0.652   0.977   2.073
  235SOL     OW 1246   1.594   0.114   3.342
  235SOL    HW1 1247   1.576   0.181   3.270
  235SOL    HW2 1248   1.591   0.160   3.431
  236SOL     OW 1249   0.122   0.643   2.425
  236SOL    HW1 1250   0.077   0.555   2.442
  236SOL    HW2 1251   0.121   0.697   2.509
  237SOL     OW 1252   0.027   1.596   1.979
  237SOL    HW1 1253   0.008   1.500   2.000
  237SOL    HW2 1254  -0.006   1.654   2.054
  238SOL     OW 1255   1.689   0.922   2.474
  238SOL    HW1 1256   1.784   0.893   2.482
  238SOL    HW2 1257   1.681   0.987   2.399
  239SOL     OW 1258   1.641   1.108   2.294
  239SOL    HW1 1259   1.727   1.110   2.242
  239SOL    HW2 1260   1.655   1.155   2.382
  240SOL     OW 1261   0.113   0.737   3.459
  240SOL    HW1 1262   0.201   0.724   3.504
  240SOL    HW2 1263   0.100   0.834   3.437
  241SOL     OW 1264   0.613   1.365   2.588
  241SOL    HW1 1265   0.564   1.278   2.597
  241SOL    HW2 1266   0.590   1.408   2.501
  242SOL     OW 1267   1.293   1.228   3.285
  242SOL    HW1 1268   1.330   1.155   3.227
  242SOL    HW2 1269   1.345   1.233   3.370
  243SOL     OW 1270   0.809   0.004   2.364
  243SOL    HW1 1271   0.849   0.095   2.355
  243SOL    HW2 1272   0.709   0.012   2.370
  244SOL     OW 1273   0.197   0.976   3.126
  244SOL    HW1 1274   0.286   0.931   3.112
  244SOL    HW2 1275   0.124   0.911   3.107
  245SOL     OW 1276   1.525   0.999   2.052
  245SOL    HW1 1277   1.462   0.923   2.065
  245SOL    HW2 1278   1.573   1.017   2.138
  246SOL     OW 1279   1.187   1.792   3.478
  246SOL    HW1 1280   1.211   1.852   3.402
  246SOL    HW2 1281   1.194   1.697   3.448
  247SOL     OW 1282   0.317   0.251   3.663
  247SOL    HW1 1283   0.388   0.322   3.669
  247SOL    HW2 1284   0.229   0.290   3.691
  248SOL     OW 1285   1.466   1.417   2.815
  248SOL    HW1 1286   1.407   1.423   2.895
  248SOL    HW2 1287   1.451   1.329   2.769
  249SOL     OW 1288   1.667   1.714   2.434
  249SOL    HW1 1289   1.626   1.691   2.346
  249SOL    HW2 1290   1.649   1.640   2.499
  250SOL     OW 1291   0.598   0.729   2.132
  250SOL    HW1 1292   0.622   0.798   2.064
  250SOL    HW2 1293   0.520   0.762   2.186
  251SOL     OW 1294   1.281   0.345   2.806
  251SOL    HW1 1295   1.195   0.295   2.793
  251SOL    HW2 1296   1.343   0.291   2.862
  252SOL     OW 1297   1.576   1.662   2.169
  252SOL    HW1 1298   1.665   1.708   2.172
  252SOL    HW2 1299   1.555   1.638   2.074
  253SOL     OW 1300   0.807   0.605   3.327
  253SOL    HW1 1301   0.760   0.602   3.416
  253SOL    HW2 1302   0.756   0.550   3.261
  254SOL     OW 1303   1.394   0.469   3.536
  254SOL    HW1 1304   1.374   0.512   3.624
  254SOL    HW2 1305   1.472   0.407   3.545
  255SOL     OW 1306   0.973   0.890   3.434
  255SOL    HW1 1307   1.019   0.806   3.405
  255SOL    HW2 1308   0.917   0.924   3.359
  256SOL     OW 1309   0.991   0.410   3.104
  256SOL    HW1 1310   0.914   0.444   3.158
  256SOL    HW2 1311   0.957   0.359   3.025
  257SOL     OW 1312   1.041   0.701   2.291
  257SOL    HW1 1313   1.067   0.697   2.387
  257SOL    HW2 1314   0.956   0.650   2.277
  258SOL     OW 1315   0.076   0.811   2.651
  258SOL    HW1 1316   0.175   0.799   2.660
  258SOL    HW2 1317   0.052   0.906   2.672
  259SOL     OW 1318   0.130   1.821   3.433
  259SOL    HW1 1319   0.120   1.806   3.532
  259SOL    HW2 1320   0.044   1.857   3.397
  260SOL     OW 1321   0.865   0.348   2.057
  260SOL    HW1 1322   0.924   0.411   2.008
  260SOL    HW2 1323   0.884   0.254   2.028
  261SOL     OW 1324   1.719   0.585   3.693
  261SOL    HW1 1325   1.693   0.674   3.657
  261SOL    HW2 1326   1.717   0.517   3.620
  262SOL     OW 1327   1.362   1.144   2.407
  262SOL    HW1 1328   1.445   1.115   2.359
  262SOL    HW2 1329   1.313   1.211   2.351
  263SOL     OW 1330   0.550   0.196   2.747
  263SOL    HW1 1331   0.545   0.191   2.847
  263SOL    HW2 1332   0.552   0.292   2.718
  264SOL     OW 1333   1.008   1.456   2.339
  264SOL    HW1 1334   0.962   1.528   2.287
  264SOL    HW2 1335   1.004   1.476   2.437
  265SOL     OW 1336   0.351   1.801   2.715
  265SOL    HW1 1337   0.401   1.715   2.721
  265SOL    HW2 1338   0.416   1.878   2.712
  266SOL     OW 1339   1.795   1.066   2.735
  266SOL    HW1 1340   1.733   1.051   2.659
  266SOL    HW2 1341   1.743   1.077   2.820
  267SOL     OW 1342   1.227   1.550   3.368
  267SOL    HW1 1343   1.233   1.473   3.432
  267SOL    HW2 1344   1.175   1.524   3.288
  268SOL     OW 1345   0.321   0.943   2.104
  268SOL    HW1 1346   0.403   0.982   2.062
  268SOL    HW2 1347   0.294   0.861   2.055
  269SOL     OW 1348   1.458   0.735   2.590
  269SOL    HW1 1349   1.453   0.670   2.665
  269SOL    HW2 1350   1.538   0.794   2.603
  270SOL     OW 1351   0.461   1.266   3.589
  270SOL    HW1 1352   0.411   1.267   3.503
  270SOL    HW2 1353   0.398   1.248   3.665
  271SOL     OW 1354   1.111   1.776   2.099
  271SOL    HW1 1355   1.051   1.714   2.149
  271SOL    HW2 1356   1.142   1.732   2.014
  272SOL     OW 1357   0.202   0.285   3.360
  272SOL    HW1 1358   0.122   0.345   3.347
  272SOL    HW2 1359   0.192   0.236   3.446
  273SOL     OW 1360   1.632   1.377   1.943
  273SOL    HW1 1361   1.600   1.471   1.933
  273SOL    HW2 1362   1.556   1.314   1.931
  274SOL     OW 1363   0.464   1.743   2.185
  274SOL    HW1 1364   0.497   1.782   2.271
  274SOL    HW2 1365   0.540   1.736   2.120
  275SOL     OW 1366   1.400   0.107   2.288
  275SOL    HW1 1367   1.376   0.070   2.198
  275SOL    HW2 1368   1.499   0.123   2.292
  276SOL     OW 1369   0.249   1.785   3.103
  276SOL    HW1 1370   0.306   1.720   3.153
  276SOL    HW2 1371   0.233   1.752   3.010
  277SOL     OW 1372   0.940   1.698   2.766
  277SOL    HW1 1373   1.020   1.641   2.787
  277SOL    HW2 1374   0.891   1.658   2.689
  278SOL     OW 1375   0.382   0.700   2.342
  278SOL    HW1 1376   0.427   0.610   2.339
  278SOL    HW2 1377   0.288   0.689   2.375
  279SOL     OW 1378   1.547   0.222   3.591
  279SOL    HW1 1379   1.542   0.259   3.683
  279SOL    HW2 1380   1.475   0.153   3.579
  280SOL     OW 1381   0.614   0.122   1.979
  280SOL    HW1 1382   0.712   0.100   1.986
  280SOL    HW2 1383   0.583   0.105   1.886
  281SOL     OW 1384   0.781   0.264   3.611
  281SOL    HW1 1385   0.848   0.203   3.654
  281SOL    HW2 1386   0.708   0.283   3.676
  282SOL     OW 1387   0.888   1.514   3.057
  282SOL    HW1 1388   0.865   1.489   2.963
  282SOL    HW2 1389   0.949   1.445   3.096
  283SOL     OW 1390   1.351   0.590   3.295
  283SOL    HW1 1391   1.379   0.547   3.380
  283SOL    HW2 1392   1.376   0.686   3.296
  284SOL     OW 1393   0.803   1.402   2.786
  284SOL    HW1 1394   0.893   1.416   2.744
  284SOL    HW2 1395   0.732   1.404   2.715
  285SOL     OW 1396   0.922   0.503   2.761
  285SOL    HW1 1397   0.897   0.494   2.665
  285SOL    HW2 1398   0.970   0.421   2.792
  286SOL     OW 1399   0.539   0.064   2.374
  286SOL    HW1 1400   0.458   0.065   2.432
  286SOL    HW2 1401   0.542   0.147   2.319
  287SOL     OW 1402   1.434   1.188   1.903
  287SOL    HW1 1403   1.466   1.112   1.960
  287SOL    HW2 1404   1.342   1.215   1.933
  288SOL     OW 1405   0.297   0.035   2.033
  288SOL    HW1 1406   0.346   0.119   2.012
  288SOL    HW2 1407   0.359  -0.030   2.078
  289SOL     OW 1408   0.935   0.236   2.342
  289SOL    HW1 1409   0.887   0.277   2.264
  289SOL    HW2 1410   1.034   0.234   2.323
  290SOL     OW 1411   1.076   0.683   3.326
  290SOL    HW1 1412   0.996   0.622   3.329
  290SOL    HW2 1413   1.157   0.630   3.302
  291SOL     OW 1414   1.227   1.570   2.655
  291SOL    HW1 1415   1.248   1.644   2.590
  291SOL    HW2 1416   1.295   1.570   2.728
  292SOL     OW 1417   0.459   1.152   2.603
  292SOL    HW1 1418   0.388   1.125   2.668
  292SOL    HW2 1419   0.433   1.124   2.510
  293SOL     OW 1420   1.271   1.797   2.453
  293SOL    HW1 1421   1.315   1.861   2.389
  293SOL    HW2 1422   1.221   1.849   2.523
  294SOL     OW 1423   1.032   0.549   1.878
  294SOL    HW1 1424   0.991   0.631   1.839
  294SOL    HW2 1425   1.096   0.575   1.951
  295SOL     OW 1426   0.078   0.556   3.248
  295SOL    HW1 1427   0.170   0.555   3.207
  295SOL    HW2 1428   0.072   0.630   3.315
  296SOL     OW 1429   0.561   0.222   3.009
  296SOL    HW1 1430   0.599   0.138   3.046
  296SOL    HW2 1431   0.473   0.241   3.053
  297SOL     OW 1432   0.866   0.454   2.504
  297SOL    HW1 1433   0.834   0.526   2.442
  297SOL    HW2 1434   0.890   0.373   2.451
  298SOL     OW 1435   1.017   0.039   2.615
  298SOL    HW1 1436   0.945   0.044   2.546
  298SOL    HW2 1437   0.993  -0.030   2.684
  299SOL     OW 1438   1.429   1.173   2.729
  299SOL    HW1 1439   1.374   1.089   2.722
  299SOL    HW2 1440   1.455   1.202   2.637
  300SOL     OW 1441   1.466   0.590   2.854
  300SOL    HW1 1442   1.436   0.495   2.861
  300SOL    HW2 1443   1.539   0.606   2.920
  301SOL     OW 1444   1.857   0.833   2.239
  301SOL    HW1 1445   1.899   0.769   2.303
  301SOL    HW2 1446   1.819   0.782   2.161
  302SOL     OW 1447   0.488   1.385   2.036
  302SOL    HW1 1448   0.401   1.370   2.083
  302SOL    HW2 1449   0.471   1.411   1.941
  303SOL     OW 1450   1.664   1.280   2.519
  303SOL    HW1 1451   1.763   1.288   2.533
  303SOL    HW2 1452   1.619   1.364   2.550
  304SOL     OW 1453   1.390   0.575   1.940
  304SOL    HW1 1454   1.336   0.554   2.021
  304SOL    HW2 1455   1.481   0.534   1.949
  305SOL     OW 1456   0.527   0.256   2.190
  305SOL    HW1 1457   0.554   0.197   2.115
  305SOL    HW2 1458   0.527   0.351   2.159
  306SOL     OW 1459   1.754   1.223   3.450
  306SOL    HW1 1460   1.845   1.184   3.437
  306SOL    HW2 1461   1.762   1.319   3.474
  307SOL     OW 1462   1.064   1.347   3.202
  307SOL    HW1 1463   0.984   1.324   3.257
  307SOL    HW2 1464   1.147   1.321   3.251
  308SOL     OW 1465   1.592   1.629   3.487
  308SOL    HW1 1466   1.619   1.663   3.397
  308SOL    HW2 1467   1.671   1.591   3.533
  309SOL     OW 1468   1.111   1.195   2.962
  309SOL    HW1 1469   1.071   1.239   3.043
  309SOL    HW2 1470   1.070   1.232   2.879
  310SOL     OW 1471   1.638   1.099   2.941
  310SOL    HW1 1472   1.643   1.180   3.000
  310SOL    HW2 1473   1.552   1.101   2.890
  311SOL     OW 1474   0.915   0.089   3.264
  311SOL    HW1 1475   0.940   0.069   3.169
  311SOL    HW2 1476   0.987   0.145   3.306
  312SOL     OW 1477   0.980   1.116   3.581
  312SOL    HW1 1478   0.881   1.122   3.591
  312SOL    HW2 1479   1.003   1.036   3.525
  313SOL     OW 1480   0.705   1.050   2.230
  313SOL    HW1 1481   0.691   1.057   2.329
  313SOL    HW2 1482   0.789   0.999   2.212
  314SOL     OW 1483   0.410   0.813   3.113
  314SOL    HW1 1484   0.496   0.825   3.163
  314SOL    HW2 1485   0.368   0.726   3.140
  315SOL     OW 1486   1.274   0.386   3.124
  315SOL    HW1 1487   1.295   0.460   3.188
  315SOL    HW2 1488   1.185   0.403   3.081
  316SOL     OW 1489   0.064   1.564   3.193
  316SOL    HW1 1490   0.018   1.646   3.159
  316SOL    HW2 1491   0.162   1.583   3.202
  317SOL     OW 1492   0.367   1.100   2.363
  317SOL    HW1 1493   0.360   1.183   2.307
  317SOL    HW2 1494   0.371   1.020   2.303
  318SOL     OW 1495   0.566   0.537   2.727
  318SOL    HW1 1496   0.578   0.603   2.653
  318SOL    HW2 1497   0.612   0.571   2.810
  319SOL     OW 1498   1.252   1.348   2.250
  319SOL    HW1 1499   1.302   1.425   2.290
  319SOL    HW2 1500   1.157   1.350   2.282
  320SOL     OW 1501   1.272   1.445   3.004
  320SOL    HW1 1502   1.319   1.458   3.091
  320SOL    HW2 1503   1.206   1.371   3.013
  321SOL     OW 1504   1.582   0.639   2.334
  321SOL    HW1 1505   1.551   0.700   2.407
  321SOL    HW2 1506   1.632   0.691   2.265
  322SOL     OW 1507   0.354   1.510   3.191
  322SOL    HW1 1508   0.333   1.466   3.104
  322SOL    HW2 1509   0.451   1.536   3.194
  323SOL     OW 1510   0.402   0.751   3.460
  323SOL    HW1 1511   0.470   0.806   3.413
  323SOL    HW2 1512   0.442   0.663   3.487
  324SOL     OW 1513   1.587   0.779   3.532
  324SOL    HW1 1514   1.495   0.817   3.527
  324SOL    HW2 1515   1.647   0.826   3.467
  325SOL     OW 1516   1.013   0.105   3.632
  325SOL    HW1 1517   1.019   0.190   3.580
  325SOL    HW2 1518   1.045   0.029   3.575
  326SOL     OW 1519   0.504   0.050   3.602
  326SOL    HW1 1520   0.462  -0.007   3.532
  326SOL    HW2 1521   0.438   0.119   3.634
  327SOL     OW 1522   0.573   0.870   2.891
  327SOL    HW1 1523   0.617   0.959   2.882
  327SOL    HW2 1524   0.510   0.870   2.968
  328SOL     OW 1525   1.360   0.862   2.907
  328SOL    HW1 1526   1.285   0.862   2.841
  328SOL    HW2 1527   1.397   0.770   2.916
  329SOL     OW 1528   1.209   0.525   2.137
  329SOL    HW1 1529   1.222   0.441   2.191
  329SOL    HW2 1530   1.180   0.599   2.197
  330SOL     OW 1531   0.307   0.213   3.093
  330SOL    HW1 1532   0.284   0.250   3.183
  330SOL    HW2 1533   0.277   0.118   3.087
  331SOL     OW 1534   0.037   1.310   3.144
  331SOL    HW1 1535   0.090   1.261   3.212
  331SOL    HW2 1536   0.059   1.408   3.149
  332SOL     OW 1537   0.732   0.634   2.926
  332SOL    HW1 1538   0.791   0.608   2.850
  332SOL    HW2 1539   0.704   0.730   2.915
  333SOL     OW 1540   1.728   0.935   3.716
  333SOL    HW1 1541   1.682   0.928   3.627
  333SOL    HW2 1542   1.666   0.979   3.782
  334SOL     OW 1543   0.307   0.063   2.480
  334SOL    HW1 1544   0.296   0.157   2.513
  334SOL    HW2 1545   0.302   0.000   2.557
  335SOL     OW 1546   1.622   0.367   2.236
  335SOL    HW1 1547   1.624   0.291   2.300
  335SOL    HW2 1548   1.574   0.444   2.276
  336SOL     OW 1549   1.023   0.766   2.828
  336SOL    HW1 1550   1.038   0.787   2.924
  336SOL    HW2 1551   0.993   0.671   2.819
  337SOL     OW 1552   0.980   1.573   3.562
  337SOL    HW1 1553   0.960   1.617   3.474
  337SOL    HW2 1554   1.019   1.482   3.546
  338SOL     OW 1555   1.859   1.518   3.467
  338SOL    HW1 1556   1.873   1.545   3.372
  338SOL    HW2 1557   1.942   1.540   3.520
  339SOL     OW 1558   0.350   0.898   3.666
  339SOL    HW1 1559   0.426   0.942   3.714
  339SOL    HW2 1560   0.385   0.851   3.584
  340SOL     OW 1561   1.540   0.274   1.987
  340SOL    HW1 1562   1.479   0.199   2.010
  340SOL    HW2 1563   1.562   0.326   2.070
  341SOL     OW 1564   1.303   0.838   1.904
  341SOL    HW1 1565   1.337   0.745   1.919
  341SOL    HW2 1566   1.321   0.865   1.809
  342SOL     OW 1567   1.068   1.333   2.711
  342SOL    HW1 1568   1.075   1.249   2.656
  342SOL    HW2 1569   1.130   1.402   2.675
  343SOL     OW 1570   0.319   0.810   2.811
  343SOL    HW1 1571   0.412   0.846   2.816
  343SOL    HW2 1572   0.313   0.725   2.863
  344SOL     OW 1573   0.339   0.509   2.868
  344SOL    HW1 1574   0.287   0.426   2.851
  344SOL    HW2 1575   0.416   0.514   2.804
  345SOL     OW 1576   1.138   0.380   3.540
  345SOL    HW1 1577   1.093   0.443   3.604
  345SOL    HW2 1578   1.231   0.411   3.523
  346SOL     OW 1579   1.160   0.207   3.339
  346SOL    HW1 1580   1.160   0.271   3.416
  346SOL    HW2 1581   1.188   0.255   3.256
  347SOL     OW 1582   0.008   1.326   2.062
  347SOL    HW1 1583  -0.085   1.347   2.031
  347SOL    HW2 1584   0.018   1.227   2.075
  348SOL     OW 1585   0.088   1.801   2.789
  348SOL    HW1 1586   0.046   1.715   2.762
  348SOL    HW2 1587   0.182   1.804   2.755
  349SOL     OW 1588   0.504   1.568   2.772
  349SOL    HW1 1589   0.570   1.642   2.781
  349SOL    HW2 1590   0.548   1.489   2.730
  350SOL     OW 1591   1.002   0.796   3.100
  350SOL    HW1 1592   1.043   0.764   3.186
  350SOL    HW2 1593   0.906   0.769   3.097
  351SOL     OW 1594   0.040   0.544   2.976
  351SOL    HW1 1595   0.125   0.511   2.935
  351SOL    HW2 1596   0.053   0.559   3.074
  352SOL     OW 1597   0.189   0.520   3.584
  352SOL    HW1 1598   0.248   0.480   3.514
  352SOL    HW2 1599   0.131   0.591   3.543
  353SOL     OW 1600   1.369   0.950   3.522
  353SOL    HW1 1601   1.408   1.039   3.542
  353SOL    HW2 1602   1.379   0.930   3.425
  354SOL     OW 1603   0.815   0.572   2.187
  354SOL    HW1 1604   0.822   0.483   2.141
  354SOL    HW2 1605   0.721   0.606   2.179
  355SOL     OW 1606   1.657   0.604   3.068
  355SOL    HW1 1607   1.619   0.535   3.130
  355SOL    HW2 1608   1.739   0.568   3.024
  356SOL     OW 1609   0.252   1.564   3.606
  356SOL    HW1 1610   0.222   1.621   3.682
  356SOL    HW2 1611   0.245   1.467   3.632
  357SOL     OW 1612   0.671   0.464   3.131
  357SOL    HW1 1613   0.637   0.375   3.101
  357SOL    HW2 1614   0.697   0.518   3.051
  358SOL     OW 1615   0.930   1.678   3.327
  358SOL    HW1 1616   0.906   1.660   3.232
  358SOL    HW2 1617   0.960   1.772   3.337
  359SOL     OW 1618   0.473   0.500   2.053
  359SOL    HW1 1619   0.534   0.580   2.057
  359SOL    HW2 1620   0.378   0.531   2.060
  360SOL     OW 1621   0.159   1.137   3.328
  360SOL    HW1 1622   0.181   1.076   3.404
  360SOL    HW2 1623   0.169   1.088   3.242
  361SOL     OW 1624   1.347   1.059   3.096
  361SOL    HW1 1625   1.371   0.996   3.022
  361SOL    HW2 1626   1.257   1.099   3.078
  362SOL     OW 1627   1.302   0.855   2.171
  362SOL    HW1 1628   1.216   0.824   2.213
  362SOL    HW2 1629   1.298   0.841   2.072
  363SOL     OW 1630   1.759   1.747   3.016
  363SOL    HW1 1631   1.820   1.777   2.943
  363SOL    HW2 1632   1.721   1.658   2.994
  364SOL     OW 1633   1.252   1.731   2.990
  364SOL    HW1 1634   1.336   1.736   2.936
  364SOL    HW2 1635   1.229   1.635   3.008
  365SOL     OW 1636   0.083   1.258   2.884
  365SOL    HW1 1637   0.078   1.257   2.984
  365SOL    HW2 1638   0.000   1.217   2.846
  366SOL     OW 1639   0.688   1.662   3.578
  366SOL    HW1 1640   0.632   1.743   3.587
  366SOL    HW2 1641   0.740   1.666   3.492
  367SOL     OW 1642   1.726   0.135   2.385
  367SOL    HW1 1643   1.799   0.118   2.318
  367SOL    HW2 1644   1.695   0.048   2.423
  368SOL     OW 1645   1.388   1.573   2.339
  368SOL    HW1 1646   1.455   1.585   2.265
  368SOL    HW2 1647   1.348   1.662   2.362
  369SOL     OW 1648   0.130   1.794   3.713
  369SOL    HW1 1649   0.089   1.720   3.766
  369SOL    HW2 1650   0.194   1.845   3.771
  370SOL     OW 1651   1.280   0.927   2.534
  370SOL    HW1 1652   1.340   0.846   2.536
  370SOL    HW2 1653   1.320   0.996   2.474
  371SOL     OW 1654   0.830   1.273   3.284
  371SOL    HW1 1655   0.825   1.306   3.379
  371SOL    HW2 1656   0.744   1.292   3.238
  372SOL     OW 1657   0.672   1.616   2.016
  372SOL    HW1 1658   0.681   1.626   1.917
  372SOL    HW2 1659   0.632   1.527   2.037
  373SOL     OW 1660   1.650   1.720   3.256
  373SOL    HW1 1661   1.703   1.730   3.172
  373SOL    HW2 1662   1.623   1.810   3.290
  374SOL     OW 1663   1.841   0.175   2.825
  374SOL    HW1 1664   1.880   0.090   2.789
  374SOL    HW2 1665   1.743   0.177   2.806
  375SOL     OW 1666   0.263   0.326   2.582
  375SOL    HW1 1667   0.184   0.377   2.548
  375SOL    HW2 1668   0.254   0.311   2.680
  376SOL     OW 1669   1.194   1.612   1.893
  376SOL    HW1 1670   1.200   1.519   1.930
  376SOL    HW2 1671   1.135   1.612   1.813
  377SOL     OW 1672   0.822   1.002   3.234
  377SOL    HW1 1673   0.862   1.001   3.142
  377SOL    HW2 1674   0.832   1.094   3.274
  378SOL     OW 1675   0.916   0.910   2.153
  378SOL    HW1 1676   0.979   0.948   2.085
  378SOL    HW2 1677   0.956   0.827   2.192
  379SOL     OW 1678   1.504   1.607   1.906
  379SOL    HW1 1679   1.412   1.644   1.913
  379SOL    HW2 1680   1.542   1.627   1.816
  380SOL     OW 1681   0.372   1.288   3.352
  380SOL    HW1 1682   0.359   1.381   3.318
  380SOL    HW2 1683   0.288   1.236   3.339
  381SOL     OW 1684   1.614   1.292   3.151
  381SOL    HW1 1685   1.674   1.295   3.231
  381SOL    HW2 1686   1.539   1.356   3.164
  382SOL     OW 1687   1.039   1.098   2.558
  382SOL    HW1 1688   0.969   1.051   2.612
  382SOL    HW2 1689   1.098   1.030   2.515
  383SOL     OW 1690   1.014   0.236   2.833
  383SOL    HW1 1691   1.006   0.200   2.740
  383SOL    HW2 1692   1.012   0.160   2.898
  384SOL     OW 1693   0.590   1.487   2.353
  384SOL    HW1 1694   0.632   1.429   2.283
  384SOL    HW2 1695   0.546   1.566   2.309
  385SOL     OW 1696   1.709   0.385   3.243
  385SOL    HW1 1697   1.782   0.454   3.247
  385SOL    HW2 1698   1.737   0.310   3.184
  386SOL     OW 1699   0.255   1.348   2.152
  386SOL    HW1 1700   0.159   1.349   2.125
  386SOL    HW2 1701   0.267   1.401   2.236
  387SOL     OW 1702   0.105   1.013   3.588
  387SOL    HW1 1703   0.028   0.980   3.642
  387SOL    HW2 1704   0.190   0.983   3.630
  388SOL     OW 1705   0.672   0.203   3.351
  388SOL    HW1 1706   0.762   0.187   3.311
  388SOL    HW2 1707   0.680   0.208   3.450
  389SOL     OW 1708   0.075   0.345   1.895
  389SOL    HW1 1709  -0.017   0.317   1.866
  389SOL    HW2 1710   0.106   0.422   1.839
  390SOL     OW 1711   1.440   0.856   3.260
  390SOL    HW1 1712   1.383   0.908   3.197
  390SOL    HW2 1713   1.536   0.868   3.236
  391SOL     OW 1714   0.072   0.166   2.180
  391SOL    HW1 1715   0.055   0.249   2.126
  391SOL    HW2 1716   0.162   0.129   2.158
  392SOL     OW 1717   1.183   1.335   1.981
  392SOL    HW1 1718   1.084   1.324   1.983
  392SOL    HW2 1719   1.217   1.350   2.074
  393SOL     OW 1720   0.613   0.842   3.293
  393SOL    HW1 1721   0.669   0.923   3.276
  393SOL    HW2 1722   0.672   0.762   3.296
  394SOL     OW 1723   1.493   1.767   2.821
  394SOL    HW1 1724   1.526   1.831   2.752
  394SOL    HW2 1725   1.559   1.761   2.896
  395SOL     OW 1726   0.716   0.565   3.570
  395SOL    HW1 1727   0.735   0.630   3.644
  395SOL    HW2 1728   0.776   0.485   3.579
  396SOL     OW 1729   1.450   1.220   3.495
  396SOL    HW1 1730   1.441   1.210   3.594
  396SOL    HW2 1731   1.546   1.213   3.469
  397SOL     OW 1732   0.390   1.741   3.422
  397SOL    HW1 1733   0.299   1.782   3.420
  397SOL    HW2 1734   0.383   1.647   3.454
  398SOL     OW 1735   1.674   0.883   3.116
  398SOL    HW1 1736   1.647   0.794   3.079
  398SOL    HW2 1737   1.675   0.951   3.043
  399SOL     OW 1738   1.225   0.325   2.311
  399SOL    HW1 1739   1.290   0.251   2.300
  399SOL    HW2 1740   1.245   0.375   2.395
  400SOL     OW 1741   0.594   0.745   2.514
  400SOL    HW1 1742   0.644   0.830   2.495
  400SOL    HW2 1743   0.506   0.747   2.466
  401SOL     OW 1744   1.777   0.342   3.504
  401SOL    HW1 1745   1.760   0.373   3.410
  401SOL    HW2 1746   1.693   0.305   3.542
  402SOL     OW 1747   1.730   0.934   3.379
  402SOL    HW1 1748   1.768   1.025   3.394
  402SOL    HW2 1749   1.722   0.917   3.280
  403SOL     OW 1750   0.859   1.374   1.878
  403SOL    HW1 1751   0.813   1.389   1.966
  403SOL    HW2 1752   0.903   1.459   1.848
  404SOL     OW 1753   0.661   1.790   2.815
  404SOL    HW1 1754   0.615   1.878   2.802
  404SOL    HW2 1755   0.760   1.802   2.808
  405SOL     OW 1756   0.859   0.956   2.723
  405SOL    HW1 1757   0.913   0.887   2.771
  405SOL    HW2 1758   0.827   1.025   2.789
  406SOL     OW 1759   1.083   0.984   1.949
  406SOL    HW1 1760   1.060   1.037   1.867
  406SOL    HW2 1761   1.164   0.928   1.930
  407SOL     OW 1762   1.861   1.569   2.713
  407SOL    HW1 1763   1.790   1.557   2.643
  407SOL    HW2 1764   1.862   1.490   2.773
  408SOL     OW 1765   0.221   1.314   3.706
  408SOL    HW1 1766   0.156   1.241   3.685
  408SOL    HW2 1767   0.225   1.328   3.804
  409SOL     OW 1768   0.079   1.240   2.515
  409SOL    HW1 1769   0.078   1.193   2.603
  409SOL    HW2 1770   0.161   1.212   2.464
  410SOL     OW 1771   0.672   1.391   3.486
  410SOL    HW1 1772   0.594   1.341   3.524
  410SOL    HW2 1773   0.669   1.486   3.517
  411SOL     OW 1774   1.824   0.192   3.089
  411SOL    HW1 1775   1.820   0.102   3.133
  411SOL    HW2 1776   1.827   0.181   2.990
  412SOL     OW 1777   0.428   0.424   2.382
  412SOL    HW1 1778   0.458   0.352   2.320
  412SOL    HW2 1779   0.389   0.384   2.465
  413SOL     OW 1780   1.705   1.487   2.966
  413SOL    HW1 1781   1.612   1.462   2.939
  413SOL    HW2 1782   1.731   1.437   3.048
  414SOL     OW 1783   0.317   0.547   3.142
  414SOL    HW1 1784   0.355   0.488   3.214
  414SOL    HW2 1785   0.357   0.521   3.054
  415SOL     OW 1786   0.812   1.586   2.549
  415SOL    HW1 1787   0.844   1.596   2.455
  415SOL    HW2 1788   0.733   1.524   2.551
  416SOL     OW 1789   1.424   0.214   2.974
  416SOL    HW1 1790   1.476   0.149   3.029
  416SOL    HW2 1791   1.375   0.277   3.035
  417SOL     OW 1792   1.001   0.034   3.016
  417SOL    HW1 1793   0.938  -0.038   2.985
  417SOL    HW2 1794   1.094  -0.002   3.016
  418SOL     OW 1795   0.770   1.330   2.163
  418SOL    HW1 1796   0.724   1.243   2.180
  418SOL    HW2 1797   0.861   1.327   2.204
  419SOL     OW 1798   0.618   1.567   3.146
  419SOL    HW1 1799   0.613   1.649   3.203
  419SOL    HW2 1800   0.707   1.564   3.101
  420SOL     OW 1801   1.352   0.052   2.030
  420SOL    HW1 1802   1.387   0.011   1.946
  420SOL    HW2 1803   1.262   0.014   2.050
  421SOL     OW 1804   1.300   0.453   2.553
  421SOL    HW1 1805   1.241   0.533   2.557
  421SOL    HW2 1806   1.315   0.418   2.646
  422SOL     OW 1807   1.593   0.221   2.744
  422SOL    HW1 1808   1.509   0.220   2.798
  422SOL    HW2 1809   1.595   0.304   2.688
  423SOL     OW 1810   0.039   1.077   2.162
  423SOL    HW1 1811   0.138   1.066   2.153
  423SOL    HW2 1812  -0.001   0.991   2.194
  424SOL     OW 1813   0.875   1.646   2.199
  424SOL    HW1 1814   0.798   1.611   2.145
  424SOL    HW2 1815   0.843   1.717   2.261
  425SOL     OW 1816   0.230   0.628   3.837
  425SOL    HW1 1817   0.137   0.626   3.874
  425SOL    HW2 1818   0.231   0.589   3.745
  426SOL     OW 1819   0.225   0.275   4.720
  426SOL    HW1 1820   0.260   0.258   4.812
  426SOL    HW2 1821   0.137   0.230   4.708
  427SOL     OW 1822   0.019   0.368   4.371
  427SOL    HW1 1823  -0.063   0.411   4.410
  427SOL    HW2 1824  -0.009   0.295   4.308
  428SOL     OW 1825   0.569   1.275   4.889
  428SOL    HW1 1826   0.476   1.268   4.852
  428SOL    HW2 1827   0.580   1.364   4.933
  429SOL     OW 1828   1.555   1.511   4.427
  429SOL    HW1 1829   1.498   1.495   4.508
  429SOL    HW2 1830   1.496   1.521   4.347
  430SOL     OW 1831   1.135   0.703   4.441
  430SOL    HW1 1832   1.192   0.781   4.416
  430SOL    HW2 1833   1.075   0.729   4.517
  431SOL     OW 1834   1.755   0.607   3.955
  431SOL    HW1 1835   1.743   0.594   3.856
  431SOL    HW2 1836   1.725   0.526   4.004
  432SOL     OW 1837   0.768   1.144   4.747
  432SOL    HW1 1838   0.690   1.161   4.807
  432SOL    HW2 1839   0.802   1.231   4.711
  433SOL     OW 1840   0.850   0.798   5.547
  433SOL    HW1 1841   0.846   0.874   5.612
  433SOL    HW2 1842   0.872   0.834   5.456
  434SOL     OW 1843   0.685   1.012   4.389
  434SOL    HW1 1844   0.754   0.996   4.459
  434SOL    HW2 1845   0.612   1.069   4.427
  435SOL     OW 1846   0.686   1.161   5.527
  435SOL    HW1 1847   0.746   1.240   5.541
  435SOL    HW2 1848   0.600   1.192   5.486
  436SOL     OW 1849   0.335   1.435   4.785
  436SOL    HW1 1850   0.257   1.404   4.732
  436SOL    HW2 1851   0.393   1.493   4.728
  437SOL     OW 1852   1.460   1.505   5.063
  437SOL    HW1 1853   1.484   1.599   5.089
  437SOL    HW2 1854   1.444   1.451   5.145
  438SOL     OW 1855   0.438   0.392   5.223
  438SOL    HW1 1856   0.520   0.336   5.232
  438SOL    HW2 1857   0.357   0.334   5.227
  439SOL     OW 1858   1.603   0.447   4.461
  439SOL    HW1 1859   1.529   0.493   4.411
  439SOL    HW2 1860   1.654   0.515   4.514
  440SOL     OW 1861   0.231   1.713   4.207
  440SOL    HW1 1862   0.265   1.790   4.261
  440SOL    HW2 1863   0.275   1.713   4.117
  441SOL     OW 1864   1.127   1.341   5.414
  441SOL    HW1 1865   1.174   1.341   5.502
  441SOL    HW2 1866   1.079   1.254   5.403
  442SOL     OW 1867   0.230   1.434   4.262
  442SOL    HW1 1868   0.204   1.530   4.262
  442SOL    HW2 1869   0.159   1.380   4.307
  443SOL     OW 1870   0.240   1.091   4.610
  443SOL    HW1 1871   0.254   1.007   4.662
  443SOL    HW2 1872   0.185   1.155   4.665
  444SOL     OW 1873   0.620   1.786   5.163
  444SOL    HW1 1874   0.528   1.769   5.198
  444SOL    HW2 1875   0.648   1.878   5.189
  445SOL     OW 1876   0.606   0.964   3.847
  445SOL    HW1 1877   0.613   1.048   3.793
  445SOL    HW2 1878   0.652   0.977   3.935
  446SOL     OW 1879   1.594   0.114   5.204
  446SOL    HW1 1880   1.576   0.181   5.132
  446SOL    HW2 1881   1.591   0.160   5.293
  447SOL     OW 1882   0.122   0.643   4.287
  447SOL    HW1 1883   0.077   0.555   4.304
  447SOL    HW2 1884   0.121   0.697   4.371
  448SOL     OW 1885   0.027   1.596   3.841
  448SOL    HW1 1886   0.008   1.500   3.862
  448SOL    HW2 1887  -0.006   1.654   3.916
  449SOL     OW 1888   1.689   0.922   4.336
  449SOL    HW1 1889   1.784   0.893   4.344
  449SOL    HW2 1890   1.681   0.987   4.261
  450SOL     OW 1891   1.641   1.108   4.156
  450SOL    HW1 1892   1.727   1.110   4.104
  450SOL    HW2 1893   1.655   1.155   4.244
  451SOL     OW 1894   0.113   0.737   5.321
  451SOL    HW1 1895   0.201   0.724   5.366
  451SOL    HW2 1896   0.100   0.834   5.299
  452SOL     OW 1897   0.613   1.365   4.450
  452SOL    HW1 1898   0.564   1.278   4.459
  452SOL    HW2 1899   0.590   1.408   4.363
  453SOL     OW 1900   1.293   1.228   5.147
  453SOL    HW1 1901   1.330   1.155   5.089
  453SOL    HW2 1902   1.345   1.233   5.232
  454SOL     OW 1903   0.809   0.004   4.226
  454SOL    HW1 1904   0.849   0.095   4.217
  454SOL    HW2 1905   0.709   0.012   4.232
  455SOL     OW 1906   0.197   0.976   4.988
  455SOL    HW1 1907   0.286   0.931   4.974
  455SOL    HW2 1908   0.124   0.911   4.969
  456SOL     OW 1909   1.525   0.999   3.914
  456SOL    HW1 1910   1.462   0.923   3.927
  456SOL    HW2 1911   1.573   1.017   4.000
  457SOL     OW 1912   1.187   1.792   5.340
  457SOL    HW1 1913   1.211   1.852   5.264
  457SOL    HW2 1914   1.194   1.697   5.310
  458SOL     OW 1915   0.317   0.251   5.525
  458SOL    HW1 1916   0.388   0.322   5.531
  458SOL    HW2 1917   0.229   0.290   5.553
  459SOL     OW 1918   1.466   1.417   4.677
  459SOL    HW1 1919   1.407   1.423   4.757
  459SOL    HW2 1920   1.451   1.329   4.631
  460SOL     OW 1921   1.667   1.714   4.296
  460SOL    HW1 1922   1.626   1.691   4.208
  460SOL    HW2 1923   1.649   1.640   4.361
  461SOL     OW 1924   0.598   0.729   3.994
  461SOL    HW1 1925   0.622   0.798   3.926
  461SOL    HW2 1926   0.520   0.762   4.048
  462SOL     OW 1927   1.281   0.345   4.668
  462SOL    HW1 1928   1.195   0.295   4.655
  462SOL    HW2 1929   1.343   0.291   4.724
  463SOL     OW 1930   1.576   1.662   4.031
  463SOL    HW1 1931   1.665   1.708   4.034
  463SOL    HW2 1932   1.555   1.638   3.936
  464SOL     OW 1933   0.807   0.605   5.189
  464SOL    HW1 1934   0.760   0.602   5.278
  464SOL    HW2 1935   0.756   0.550   5.123
  465SOL     OW 1936   1.394   0.469   5.398
  465SOL    HW1 1937   1.374   0.512   5.486
  465SOL    HW2 1938   1.472   0.407   5.407
  466SOL     OW 1939   0.973   0.890   5.296
  466SOL    HW1 1940   1.019   0.806   5.267
  466SOL    HW2 1941   0.917   0.924   5.221
  467SOL     OW 1942   0.991   0.410   4.966
  467SOL    HW1 1943   0.914   0.444   5.020
  467SOL    HW2 1944   0.957   0.359   4.887
  468SOL     OW 1945   1.041   0.701   4.153
  468SOL    HW1 1946   1.067   0.697   4.249
  468SOL    HW2 1947   0.956   0.650   4.139
  469SOL     OW 1948   0.076   0.811   4.513
  469SOL    HW1 1949   0.175   0.799   4.522
  469SOL    HW2 1950   0.052   0.906   4.534
  470SOL     OW 1951   0.130   1.821   5.295
  470SOL    HW1 1952   0.120   1.806   5.394
  470SOL    HW2 1953   0.044   1.857   5.259
  471SOL     OW 1954   0.865   0.348   3.919
  471SOL    HW1 1955   0.924   0.411   3.870
  471SOL    HW2 1956   0.884   0.254   3.890
  472SOL     OW 1957   1.719   0.585   5.555
  472SOL    HW1 1958   1.693   0.674   5.519
  472SOL    HW2 1959   1.717   0.517   5.482
  473SOL     OW 1960   1.362   1.144   4.269
  473SOL    HW1 1961   1.445   1.115   4.221
  473SOL    HW2 1962   1.313   1.211   4.213
  474SOL     OW 1963   0.550   0.196   4.609
  474SOL    HW1 1964   0.545   0.191   4.709
  474SOL    HW2 1965   0.552   0.292   4.580
  475SOL     OW 1966   1.008   1.456   4.201
  475SOL    HW1 1967   0.962   1.528   4.149
  475SOL    HW2 1968   1.004   1.476   4.299
  476SOL     OW 1969   0.351   1.801   4.577
  476SOL    HW1 1970   0.401   1.715   4.583
  476SOL    HW2 1971   0.416   1.878   4.574
  477SOL     OW 1972   1.795   1.066   4.597
  477SOL    HW1 1973   1.733   1.051   4.521
  477SOL    HW2 1974   1.743   1.077   4.682
  478SOL     OW 1975   1.227   1.550   5.230
  478SOL    HW1 1976   1.233   1.473   5.294
  478SOL    HW2 1977   1.175   1.524   5.150
  479SOL     OW 1978   0.321   0.943   3.966
  479SOL    HW1 1979   0.403   0.982   3.924
  479SOL    HW2 1980   0.294   0.861   3.917
  480SOL     OW 1981   1.458   0.735   4.452
  480SOL    HW1 1982   1.453   0.670   4.527
  480SOL    HW2 1983   1.538   0.794   4.465
  481SOL     OW 1984   0.461   1.266   5.451
  481SOL    HW1 1985   0.411   1.267   5.365
  481SOL    HW2 1986   0.398   1.248   5.527
  482SOL     OW 1987   1.111   1.776   3.961
  482SOL    HW1 1988   1.051   1.714   4.011
  482SOL    HW2 1989   1.142   1.732   3.876
  483SOL     OW 1990   0.202   0.285   5.222
  483SOL    HW1 1991   0.122   0.345   5.209
  483SOL    HW2 1992   0.192   0.236   5.308
  484SOL     OW 1993   1.632   1.377   3.805
  484SOL    HW1 1994   1.600   1.471   3.795
  484SOL    HW2 1995   1.556   1.314   3.793
  485SOL     OW 1996   0.464   1.743   4.047
  485SOL    HW1 1997   0.497   1.782   4.133
  485SOL    HW2 1998   0.540   1.736   3.982
  486SOL     OW 1999   1.400   0.107   4.150
  486SOL    HW1 2000   1.376   0.070   4.060
  486SOL    HW2 2001   1.499   0.123   4.154
  487SOL     OW 2002   0.249   1.785   4.965
  487SOL    HW1 2003   0.306   1.720   5.015
  487SOL    HW2 2004   0.233   1.752   4.872
  488SOL     OW 2005   0.940   1.698   4.628
  488SOL    HW1 2006   1.020   1.641   4.649
  488SOL    HW2 2007   0.891   1.658   4.551
  489SOL     OW 2008   0.382   0.700   4.204
  489SOL    HW1 2009   0.427   0.610   4.201
  489SOL    HW2 2010   0.288   0.689   4.237
  490SOL     OW 2011   1.547   0.222   5.453
  490SOL    HW1 2012   1.542   0.259   5.545
  490SOL    HW2 2013   1.475   0.153   5.441
  491SOL     OW 2014   0.614   0.122   3.841
  491SOL    HW1 2015   0.712   0.100   3.848
  491SOL    HW2 2016   0.583   0.105   3.748
  492SOL     OW 2017   0.781   0.264   5.473
  492SOL    HW1 2018   0.848   0.203   5.516
  492SOL    HW2 2019   0.708   0.283   5.538
  493SOL     OW 2020   0.888   1.514   4.919
  493SOL    HW1 2021   0.865   1.489   4.825
  493SOL    HW2 2022   0.949   1.445   4.958
  494SOL     OW 2023   1.351   0.590   5.157
  494SOL    HW1 2024   1.379   0.547   5.242
  494SOL    HW2 2025   1.376   0.686   5.158
  495SOL     OW 2026   0.803   1.402   4.648
  495SOL    HW1 2027   0.893   1.416   4.606
  495SOL    HW2 2028   0.732   1.404   4.577
  496SOL     OW 2029   0.922   0.503   4.623
  496SOL    HW1 2030   0.897   0.494   4.527
  496SOL    HW2 2031   0.970   0.421   4.654
  497SOL     OW 2032   0.539   0.064   4.236
  497SOL    HW1 2033   0.458   0.065   4.294
  497SOL    HW2 2034   0.542   0.147   4.181
  498SOL     OW 2035   1.434   1.188   3.765
  498SOL    HW1 2036   1.466   1.112   3.822
  498SOL    HW2 2037   1.342   1.215   3.795
  499SOL     OW 2038   0.297   0.035   3.895
  499SOL    HW1 2039   0.346   0.119   3.874
  499SOL    HW2 2040   0.359  -0.030   3.940
  500SOL     OW 2041   0.935   0.236   4.204
  500SOL    HW1 2042   0.887   0.277   4.126
  500SOL    HW2 2043   1.034   0.234   4.185
  501SOL     OW 2044   1.076   0.683   5.188
  501SOL    HW1 2045   0.996   0.622   5.191
  501SOL    HW2 2046   1.157   0.630   5.164
  502SOL     OW 2047   1.227   1.570   4.517
  502SOL    HW1 2048   1.248   1.644   4.452
  502SOL    HW2 2049   1.295   1.570   4.590
  503SOL     OW 2050   0.459   1.152   4.465
  503SOL    HW1 2051   0.388   1.125   4.530
  503SOL    HW2 2052   0.433   1.124   4.372
  504SOL     OW 2053   1.271   1.797   4.315
  504SOL    HW1 2054   1.315   1.861   4.251
  504SOL    HW2 2055   1.221   1.849   4.385
  505SOL     OW 2056   1.032   0.549   3.740
  505SOL    HW1 2057   0.991   0.631   3.701
  505SOL    HW2 2058   1.096   0.575   3.813
  506SOL     OW 2059   0.078   0.556   5.110
  506SOL    HW1 2060   0.170   0.555   5.069
  506SOL    HW2 2061   0.072   0.630   5.177
  507SOL     OW 2062   0.561   0.222   4.871
  507SOL    HW1 2063   0.599   0.138   4.908
  507SOL    HW2 2064   0.473   0.241   4.915
  508SOL     OW 2065   0.866   0.454   4.366
  508SOL    HW1 2066   0.834   0.526   4.304
  508SOL    HW2 2067   0.890   0.373   4.313
  509SOL     OW 2068   1.017   0.039   4.477
  509SOL    HW1 2069   0.945   0.044   4.408
  509SOL    HW2 2070   0.993  -0.030   4.546
  510SOL     OW 2071   1.429   1.173   4.591
  510SOL    HW1 2072   1.374   1.089   4.584
  510SOL    HW2 2073   1.455   1.202   4.499
  511SOL     OW 2074   1.466   0.590   4.716
  511SOL    HW1 2075   1.436   0.495   4.723
  511SOL    HW2 2076   1.539   0.606   4.782
  512SOL     OW 2077   1.857   0.833   4.101
  512SOL    HW1 2078   1.899   0.769   4.165
  512SOL    HW2 2079   1.819   0.782   4.023
  513SOL     OW 2080   0.488   1.385   3.898
  513SOL    HW1 2081   0.401   1.370   3.945
  513SOL    HW2 2082   0.471   1.411   3.803
  514SOL     OW 2083   1.664   1.280   4.381
  514SOL    HW1 2084   1.763   1.288   4.395
  514SOL    HW2 2085   1.619   1.364   4.412
  515SOL     OW 2086   1.390   0.575   3.802
  515SOL    HW1 2087   1.336   0.554   3.883
  515SOL    HW2 2088   1.481   0.534   3.811
  516SOL     OW 2089   0.527   0.256   4.052
  516SOL    HW1 2090   0.554   0.197   3.977
  516SOL    HW2 2091   0.527   0.351   4.021
  517SOL     OW 2092   1.754   1.223   5.312
  517SOL    HW1 2093   1.845   1.184   5.299
  517SOL    HW2 2094   1.762   1.319   5.336
  518SOL     OW 2095   1.064   1.347   5.064
  518SOL    HW1 2096   0.984   1.324   5.119
  518SOL    HW2 2097   1.147   1.321   5.113
  519SOL     OW 2098   1.592   1.629   5.349
  519SOL    HW1 2099   1.619   1.663   5.259
  519SOL    HW2 2100   1.671   1.591   5.395
  520SOL     OW 2101   1.111   1.195   4.824
  520SOL    HW1 2102   1.071   1.239   4.905
  520SOL    HW2 2103   1.070   1.232   4.741
  521SOL     OW 2104   1.638   1.099   4.803
  521SOL    HW1 2105   1.643   1.180   4.862
  521SOL    HW2 2106   1.552   1.101   4.752
  522SOL     OW 2107   0.915   0.089   5.126
  522SOL    HW1 2108   0.940   0.069   5.031
  522SOL    HW2 2109   0.987   0.145   5.168
  523SOL     OW 2110   0.980   1.116   5.443
  523SOL    HW1 2111   0.881   1.122   5.453
  523SOL    HW2 2112   1.003   1.036   5.387
  524SOL     OW 2113   0.705   1.050   4.092
  524SOL    HW1 2114   0.691   1.057   4.191
  524SOL    HW2 2115   0.789   0.999   4.074
  525SOL     OW 2116   0.410   0.813   4.975
  525SOL    HW1 2117   0.496   0.825   5.025
  525SOL    HW2 2118   0.368   0.726   5.002
  526SOL     OW 2119   1.274   0.386   4.986
  526SOL    HW1 2120   1.295   0.460   5.050
  526SOL    HW2 2121   1.185   0.403   4.943
  527SOL     OW 2122   0.064   1.564   5.055
  527SOL    HW1 2123   0.018   1.646   5.021
  527SOL    HW2 2124   0.162   1.583   5.064
  528SOL     OW 2125   0.367   1.100   4.225
  528SOL    HW1 2126   0.360   1.183   4.169
  528SOL    HW2 2127   0.371   1.020   4.165
  529SOL     OW 2128   0.566   0.537   4.589
  529SOL    HW1 2129   0.578   0.603   4.515
  529SOL    HW2 2130   0.612   0.571   4.672
  530SOL     OW 2131   1.252   1.348   4.112
  530SOL    HW1 2132   1.302   1.425   4.152
  530SOL    HW2 2133   1.157   1.350   4.144
  531SOL     OW 2134   1.272   1.445   4.866
  531SOL    HW1 2135   1.319   1.458   4.953
  531SOL    HW2 2136   1.206   1.371   4.875
  532SOL     OW 2137   1.582   0.639   4.196
  532SOL    HW1 2138   1.551   0.700   4.269
  532SOL    HW2 2139   1.632   0.691   4.127
  533SOL     OW 2140   0.354   1.510   5.053
  533SOL    HW1 2141   0.333   1.466   4.966
  533SOL    HW2 2142   0.451   1.536   5.056
  534SOL     OW 2143   0.402   0.751   5.322
  534SOL    HW1 2144   0.470   0.806   5.275
  534SOL    HW2 2145   0.442   0.663   5.349
  535SOL     OW 2146   1.587   0.779   5.394
  535SOL    HW1 2147   1.495   0.817   5.389
  535SOL    HW2 2148   1.647   0.826   5.329
  536SOL     OW 2149   1.013   0.105   5.494
  536SOL    HW1 2150   1.019   0.190   5.442
  536SOL    HW2 2151   1.045   0.029   5.437
  537SOL     OW 2152   0.504   0.050   5.464
  537SOL    HW1 2153   0.462  -0.007   5.394
  537SOL    HW2 2154   0.438   0.119   5.496
  538SOL     OW 2155   0.573   0.870   4.753
  538SOL    HW1 2156   0.617   0.959   4.744
  538SOL    HW2 2157   0.510   0.870   4.830
  539SOL     OW 2158   1.360   0.862   4.769
  539SOL    HW1 2159   1.285   0.862   4.703
  539SOL    HW2 2160   1.397   0.770   4.778
  540SOL     OW 2161   1.209   0.525   3.999
  540SOL    HW1 2162   1.222   0.441   4.053
  540SOL    HW2 2163   1.180   0.599   4.059
  541SOL     OW 2164   0.307   0.213   4.955
  541SOL    HW1 2165   0.284   0.250   5.045
  541SOL    HW2 2166   0.277   0.118   4.949
  542SOL     OW 2167   0.037   1.310   5.006
  542SOL    HW1 2168   0.090   1.261   5.074
  542SOL    HW2 2169   0.059   1.408   5.011
  543SOL     OW 2170   0.732   0.634   4.788
  543SOL    HW1 2171   0.791   0.608   4.712
  543SOL    HW2 2172   0.704   0.730   4.777
  544SOL     OW 2173   1.728   0.935   5.578
  544SOL    HW1 2174   1.682   0.928   5.489
  544SOL    HW2 2175   1.666   0.979   5.644
  545SOL     OW 2176   0.307   0.063   4.342
  545SOL    HW1 2177   0.296   0.157   4.375
  545SOL    HW2 2178   0.302   0.000   4.419
  546SOL     OW 2179   1.622   0.367   4.098
  546SOL    HW1 2180   1.624   0.291   4.162
  546SOL    HW2 2181   1.574   0.444   4.138
  547SOL     OW 2182   1.023   0.766   4.690
  547SOL    HW1 2183   1.038   0.787   4.786
  547SOL    HW2 2184   0.993   0.671   4.681
  548SOL     OW 2185   0.980   1.573   5.424
  548SOL    HW1 2186   0.960   1.617   5.336
  548SOL    HW2 2187   1.019   1.482   5.408
  549SOL     OW 2188   1.859   1.518   5.329
  549SOL    HW1 2189   1.873   1.545   5.234
  549SOL    HW2 2190   1.942   1.540   5.382
  550SOL     OW 2191   0.350   0.898   5.528
  550SOL    HW1 2192   0.426   0.942   5.576
  550SOL    HW2 2193   0.385   0.851   5.446
  551SOL     OW 2194   1.540   0.274   3.849
  551SOL    HW1 2195   1.479   0.199   3.872
  551SOL    HW2 2196   1.562   0.326   3.932
  552SOL     OW 2197   1.303   0.838   3.766
  552SOL    HW1 2198   1.337   0.745   3.781
  552SOL    HW2 2199   1.321   0.865   3.671
  553SOL     OW 2200   1.068   1.333   4.573
  553SOL    HW1 2201   1.075   1.249   4.518
  553SOL    HW2 2202   1.130   1.402   4.537
  554SOL     OW 2203   0.319   0.810   4.673
  554SOL    HW1 2204   0.412   0.846   4.678
  554SOL    HW2 2205   0.313   0.725   4.725
  555SOL     OW 2206   0.339   0.509   4.730
  555SOL    HW1 2207   0.287   0.426   4.713
  555SOL    HW2 2208   0.416   0.514   4.666
  556SOL     OW 2209   1.138   0.380   5.402
  556SOL    HW1 2210   1.093   0.443   5.466
  556SOL    HW2 2211   1.231   0.411   5.385
  557SOL     OW 2212   1.160   0.207   5.201
  557SOL    HW1 2213   1.160   0.271   5.278
  557SOL    HW2 2214   1.188   0.255   5.118
  558SOL     OW 2215   0.008   1.326   3.924
  558SOL    HW1 2216  -0.085   1.347   3.893
  558SOL    HW2 2217   0.018   1.227   3.937
  559SOL     OW 2218   0.088   1.801   4.651
  559SOL    HW1 2219   0.046   1.715   4.624
  559SOL    HW2 2220   0.182   1.804   4.617
  560SOL     OW 2221   0.504   1.568   4.634
  560SOL    HW1 2222   0.570   1.642   4.643
  560SOL    HW2 2223   0.548   1.489   4.592
  561SOL     OW 2224   1.002   0.796   4.962
  561SOL    HW1 2225   1.043   0.764   5.048
  561SOL    HW2 2226   0.906   0.769   4.959
  562SOL     OW 2227   0.040   0.544   4.838
  562SOL    HW1 2228   0.125   0.511   4.797
  562SOL    HW2 2229   0.053   0.559   4.936
  563SOL     OW 2230   0.189   0.520   5.446
  563SOL    HW1 2231   0.248   0.480   5.376
  563SOL    HW2 2232   0.131   0.591   5.405
  564SOL     OW 2233   1.369   0.950   5.384
  564SOL    HW1 2234   1.408   1.039   5.404
  564SOL    HW2 2235   1.379   0.930   5.287
  565SOL     OW 2236   0.815   0.572   4.049
  565SOL    HW1 2237   0.822   0.483   4.003
  565SOL    HW2 2238   0.721   0.606   4.041
  566SOL     OW 2239   1.657   0.604   4.930
  566SOL    HW1 2240   1.619   0.535   4.992
  566SOL    HW2 2241   1.739   0.568   4.886
  567SOL     OW 2242   0.252   1.564   5.468
  567SOL    HW1 2243   0.222   1.621   5.544
  567SOL    HW2 2244   0.245   1.467   5.494
  568SOL     OW 2245   0.671   0.464   4.993
  568SOL    HW1 2246   0.637   0.375   4.963
  568SOL    HW2 2247   0.697   0.518   4.913
  569SOL     OW 2248   0.930   1.678   5.189
  569SOL    HW1 2249   0.906   1.660   5.094
  569SOL    HW2 2250   0.960   1.772   5.199
  570SOL     OW 2251   0.473   0.500   3.915
  570SOL    HW1 2252   0.534   0.580   3.919
  570SOL    HW2 2253   0.378   0.531   3.922
  571SOL     OW 2254   0.159   1.137   5.190
  571SOL    HW1 2255   0.181   1.076   5.266
  571SOL    HW2 2256   0.169   1.088   5.104
  572SOL     OW 2257   1.347   1.059   4.958
  572SOL    HW1 2258   1.371   0.996   4.884
  572SOL    HW2 2259   1.257   1.099   4.940
  573SOL     OW 2260   1.302   0.855   4.033
  573SOL    HW1 2261   1.216   0.824   4.075
  573SOL    HW2 2262   1.298   0.841   3.934
  574SOL     OW 2263   1.759   1.747   4.878
  574SOL    HW1 2264   1.820   1.777   4.805
  574SOL    HW2 2265   1.721   1.658   4.856
  575SOL     OW 2266   1.252   1.731   4.852
  575SOL    HW1 2267   1.336   1.736   4.798
  575SOL    HW2 2268   1.229   1.635   4.870
  576SOL     OW 2269   0.083   1.258   4.746
  576SOL    HW1 2270   0.078   1.257   4.846
  576SOL    HW2 2271   0.000   1.217   4.708
  577SOL     OW 2272   0.688   1.662   5.440
  577SOL    HW1 2273   0.632   1.743   5.449
  577SOL    HW2 2274   0.740   1.666   5.354
  578SOL     OW 2275   1.726   0.135   4.247
  578SOL    HW1 2276   1.799   0.118   4.180
  578SOL    HW2 2277   1.695   0.048   4.285
  579SOL     OW 2278   1.388   1.573   4.201
  579SOL    HW1 2279   1.455   1.585   4.127
  579SOL    HW2 2280   1.348   1.662   4.224
  580SOL     OW 2281   0.130   1.794   5.575
  580SOL    HW1 2282   0.089   1.720   5.628
  580SOL    HW2 2283   0.194   1.845   5.633
  581SOL     OW 2284   1.280   0.927   4.396
  581SOL    HW1 2285   1.340   0.846   4.398
  581SOL    HW2 2286   1.320   0.996   4.336
  582SOL     OW 2287   0.830   1.273   5.146
  582SOL    HW1 2288   0.825   1.306   5.241
  582SOL    HW2 2289   0.744   1.292   5.100
  583SOL     OW 2290   0.672   1.616   3.878
  583SOL    HW1 2291   0.681   1.626   3.779
  583SOL    HW2 2292   0.632   1.527   3.899
  584SOL     OW 2293   1.650   1.720   5.118
  584SOL    HW1 2294   1.703   1.730   5.034
  584SOL    HW2 2295   1.623   1.810   5.152
  585SOL     OW 2296   1.841   0.175   4.687
  585SOL    HW1 2297   1.880   0.090   4.651
  585SOL    HW2 2298   1.743   0.177   4.668
  586SOL     OW 2299   0.263   0.326   4.444
  586SOL    HW1 2300   0.184   0.377   4.410
  586SOL    HW2 2301   0.254   0.311   4.542
  587SOL     OW 2302   1.194   1.612   3.755
  587SOL    HW1 2303   1.200   1.519   3.792
  587SOL    HW2 2304   1.135   1.612   3.675
  588SOL     OW 2305   0.822   1.002   5.096
  588SOL    HW1 2306   0.862   1.001   5.004
  588SOL    HW2 2307   0.832   1.094   5.136
  589SOL     OW 2308   0.916   0.910   4.015
  589SOL    HW1 2309   0.979   0.948   3.947
  589SOL    HW2 2310   0.956   0.827   4.054
  590SOL     OW 2311   1.504   1.607   3.768
  590SOL    HW1 2312   1.412   1.644   3.775
  590SOL    HW2 2313   1.542   1.627   3.678
  591SOL     OW 2314   0.372   1.288   5.214
  591SOL    HW1 2315   0.359   1.381   5.180
  591SOL    HW2 2316   0.288   1.236   5.201
  592SOL     OW 2317   1.614   1.292   5.013
  592SOL    HW1 2318   1.674   1.295   5.093
  592SOL    HW2 2319   1.539   1.356   5.026
  593SOL     OW 2320   1.039   1.098   4.420
  593SOL    HW1 2321   0.969   1.051   4.474
  593SOL    HW2 2322   1.098   1.030   4.377
  594SOL     OW 2323   1.014   0.236   4.695
  594SOL    HW1 2324   1.006   0.200   4.602
  594SOL    HW2 2325   1.012   0.160   4.760
  595SOL     OW 2326   0.590   1.487   4.215
  595SOL    HW1 2327   0.632   1.429   4.145
  595SOL    HW2 2328   0.546   1.566   4.171
  596SOL     OW 2329   1.709   0.385   5.105
  596SOL    HW1 2330   1.782   0.454   5.109
  596SOL    HW2 2331   1.737   0.310   5.046
  597SOL     OW 2332   0.255   1.348   4.014
  597SOL    HW1 2333   0.159   1.349   3.987
  597SOL    HW2 2334   0.267   1.401   4.098
  598SOL     OW 2335   0.105   1.013   5.450
  598SOL    HW1 2336   0.028   0.980   5.504
  598SOL    HW2 2337   0.190   0.983   5.492
  599SOL     OW 2338   0.672   0.203   5.213
  599SOL    HW1 2339   0.762   0.187   5.173
  599SOL    HW2 2340   0.680   0.208   5.312
  600SOL     OW 2341   0.075   0.345   3.757
  600SOL    HW1 2342  -0.017   0.317   3.728
  600SOL    HW2 2343   0.106   0.422   3.701
  601SOL     OW 2344   1.440   0.856   5.122
  601SOL    HW1 2345   1.383   0.908   5.059
  601SOL    HW2 2346   1.536   0.868   5.098
  602SOL     OW 2347   0.072   0.166   4.042
  602SOL    HW1 2348   0.055   0.249   3.988
  602SOL    HW2 2349   0.162   0.129   4.020
  603SOL     OW 2350   1.183   1.335   3.843
  603SOL    HW1 2351   1.084   1.324   3.845
  603SOL    HW2 2352   1.217   1.350   3.936
  604SOL     OW 2353   0.613   0.842   5.155
  604SOL    HW1 2354   0.669   0.923   5.138
  604SOL    HW2 2355   0.672   0.762   5.158
  605SOL     OW 2356   1.493   1.767   4.683
  605SOL    HW1 2357   1.526   1.831   4.614
  605SOL    HW2 2358   1.559   1.761   4.758
  606SOL     OW 2359   0.716   0.565   5.432
  606SOL    HW1 2360   0.735   0.630   5.506
  606SOL    HW2 2361   0.776   0.485   5.441
  607SOL     OW 2362   1.450   1.220   5.357
  607SOL    HW1 2363   1.441   1.210   5.456
  607SOL    HW2 2364   1.546   1.213   5.331
  608SOL     OW 2365   0.390   1.741   5.284
  608SOL    HW1 2366   0.299   1.782   5.282
  608SOL    HW2 2367   0.383   1.647   5.316
  609SOL     OW 2368   1.674   0.883   4.978
  609SOL    HW1 2369   1.647   0.794   4.941
  609SOL    HW2 2370   1.675   0.951   4.905
  610SOL     OW 2371   1.225   0.325   4.173
  610SOL    HW1 2372   1.290   0.251   4.162
  610SOL    HW2 2373   1.245   0.375   4.257
  611SOL     OW 2374   0.594   0.745   4.376
  611SOL    HW1 2375   0.644   0.830   4.357
  611SOL    HW2 2376   0.506   0.747   4.328
  612SOL     OW 2377   1.777   0.342   5.366
  612SOL    HW1 2378   1.760   0.373   5.272
  612SOL    HW2 2379   1.693   0.305   5.404
  613SOL     OW 2380   1.730   0.934   5.241
  613SOL    HW1 2381   1.768   1.025   5.256
  613SOL    HW2 2382   1.722   0.917   5.142
  614SOL     OW 2383   0.859   1.374   3.740
  614SOL    HW1 2384   0.813   1.389   3.828
  614SOL    HW2 2385   0.903   1.459   3.710
  615SOL     OW 2386   0.661   1.790   4.677
  615SOL    HW1 2387   0.615   1.878   4.664
  615SOL    HW2 2388   0.760   1.802   4.670
  616SOL     OW 2389   0.859   0.956   4.585
  616SOL    HW1 2390   0.913   0.887   4.633
  616SOL    HW2 2391   0.827   1.025   4.651
  617SOL     OW 2392   1.083   0.984   3.811
  617SOL    HW1 2393   1.060   1.037   3.729
  617SOL    HW2 2394   1.164   0.928   3.792
  618SOL     OW 2395   1.861   1.569   4.575
  618SOL    HW1 2396   1.790   1.557   4.505
  618SOL    HW2 2397   1.862   1.490   4.635
  619SOL     OW 2398   0.221   1.314   5.568
  619SOL    HW1 2399   0.156   1.241   5.547
  619SOL    HW2 2400   0.225   1.328   5.666
  620SOL     OW 2401   0.079   1.240   4.377
  620SOL    HW1 2402   0.078   1.193   4.465
  620SOL    HW2 2403   0.161   1.212   4.326
  621SOL     OW 2404   0.672   1.391   5.348
  621SOL    HW1 2405   0.594   1.341   5.386
  621SOL    HW2 2406   0.669   1.486   5.379
  622SOL     OW 2407   1.824   0.192   4.951
  622SOL    HW1 2408   1.820   0.102   4.995
  622SOL    HW2 2409   1.827   0.181   4.852
  623SOL     OW 2410   0.428   0.424   4.244
  623SOL    HW1 2411   0.458   0.352   4.182
  623SOL    HW2 2412   0.389   0.384   4.327
  624SOL     OW 2413   1.705   1.487   4.828
  624SOL    HW1 2414   1.612   1.462   4.801
  624SOL    HW2 2415   1.731   1.437   4.910
  625SOL     OW 2416   0.317   0.547   5.004
  625SOL    HW1 2417   0.355   0.488   5.076
  625SOL    HW2 2418   0.357   0.521   4.916
  626SOL     OW 2419   0.812   1.586   4.411
  626SOL    HW1 2420   0.844   1.596   4.317
  626SOL    HW2 2421   0.733   1.524   4.413
  627SOL     OW 2422   1.424   0.214   4.836
  627SOL    HW1 2423   1.476   0.149   4.891
  627SOL    HW2 2424   1.375   0.277   4.897
  628SOL     OW 2425   1.001   0.034   4.878
  628SOL    HW1 2426   0.938  -0.038   4.847
  628SOL    HW2 2427   1.094  -0.002   4.878
  629SOL     OW 2428   0.770   1.330   4.025
  629SOL    HW1 2429   0.724   1.243   4.042
  629SOL    HW2 2430   0.861   1.327   4.066
  630SOL     OW 2431   0.618   1.567   5.008
  630SOL    HW1 2432   0.613   1.649   5.065
  630SOL    HW2 2433   0.707   1.564   4.963
  631SOL     OW 2434   1.352   0.052   3.892
  631SOL    HW1 2435   1.387   0.011   3.808
  631SOL    HW2 2436   1.262   0.014   3.912
  632SOL     OW 2437   1.300   0.453   4.415
  632SOL    HW1 2438   1.241   0.533   4.419
  632SOL    HW2 2439   1.315   0.418   4.508
  633SOL     OW 2440   1.593   0.221   4.606
  633SOL    HW1 2441   1.509   0.220   4.660
  633SOL    HW2 2442   1.595   0.304   4.550
  634SOL     OW 2443   0.039   1.077   4.024
  634SOL    HW1 2444   0.138   1.066   4.015
  634SOL    HW2 2445  -0.001   0.991   4.056
  635SOL     OW 2446   0.875   1.646   4.061
  635SOL    HW1 2447   0.798   1.611   4.007
  635SOL    HW2 2448   0.843   1.717   4.123
  636SOL     OW 2449   0.230   0.628   5.699
  636SOL    HW1 2450   0.137   0.626   5.736
  636SOL    HW2 2451   0.231   0.589   5.607
  637SOL     OW 2452   0.225   0.275   6.582
  637SOL    HW1 2453   0.260   0.258   6.674
  637SOL    HW2 2454   0.137   0.230   6.570
  638SOL     OW 2455   0.019   0.368   6.233
  638SOL    HW1 2456  -0.063   0.411   6.272
  638SOL    HW2 2457  -0.009   0.295   6.170
  639SOL     OW 2458   0.569   1.275   6.751
  639SOL    HW1 2459   0.476   1.268   6.714
  639SOL    HW2 2460   0.580   1.364   6.795
  640SOL     OW 2461   1.135   0.703   6.303
  640SOL    HW1 2462   1.192   0.781   6.278
  640SOL    HW2 2463   1.075   0.729   6.379
  641SOL     OW 2464   1.755   0.607   5.817
  641SOL    HW1 2465   1.743   0.594   5.718
  641SOL    HW2 2466   1.725   0.526   5.866
  642SOL     OW 2467   0.768   1.144   6.609
  642SOL    HW1 2468   0.690   1.161   6.669
  642SOL    HW2 2469   0.802   1.231   6.573
  643SOL     OW 2470   0.850   0.798   7.409
  643SOL    HW1 2471   0.846   0.874   7.474
  643SOL    HW2 2472   0.872   0.834   7.318
  644SOL     OW 2473   0.685   1.012   6.251
  644SOL    HW1 2474   0.754   0.996   6.321
  644SOL    HW2 2475   0.612   1.069   6.289
  645SOL     OW 2476   0.686   1.161   7.389
  645SOL    HW1 2477   0.746   1.240   7.403
  645SOL    HW2 2478   0.600   1.192   7.348
  646SOL     OW 2479   0.335   1.435   6.647
  646SOL    HW1 2480   0.257   1.404   6.594
  646SOL    HW2 2481   0.393   1.493   6.590
  647SOL     OW 2482   1.460   1.505   6.925
  647SOL    HW1 2483   1.484   1.599   6.951
  647SOL    HW2 2484   1.444   1.451   7.007
  648SOL     OW 2485   0.438   0.392   7.085
  648SOL    HW1 2486   0.520   0.336   7.094
  648SOL    HW2 2487   0.357   0.334   7.089
  649SOL     OW 2488   1.603   0.447   6.323
  649SOL    HW1 2489   1.529   0.493   6.273
  649SOL    HW2 2490   1.654   0.515   6.376
  650SOL     OW 2491   0.231   1.713   6.069
  650SOL    HW1 2492   0.265   1.790   6.123
  650SOL    HW2 2493   0.275   1.713   5.979
  651SOL     OW 2494   1.127   1.341   7.276
  651SOL    HW1 2495   1.174   1.341   7.364
  651SOL    HW2 2496   1.079   1.254   7.265
  652SOL     OW 2497   0.230   1.434   6.124
  652SOL    HW1 2498   0.204   1.530   6.124
  652SOL    HW2 2499   0.159   1.380   6.169
  653SOL     OW 2500   0.240   1.091   6.472
  653SOL    HW1 2501   0.254   1.007   6.524
  653SOL    HW2 2502   0.185   1.155   6.527
  654SOL     OW 2503   0.620   1.786   7.025
  654SOL    HW1 2504   0.528   1.769   7.060
  654SOL    HW2 2505   0.648   1.878   7.051
  655SOL     OW 2506   0.606   0.964   5.709
  655SOL    HW1 2507   0.613   1.048   5.655
  655SOL    HW2 2508   0.652   0.977   5.797
  656SOL     OW 2509   1.594   0.114   7.066
  656SOL    HW1 2510   1.576   0.181   6.994
  656SOL    HW2 2511   1.591   0.160   7.155
  657SOL     OW 2512   0.122   0.643   6.149
  657SOL    HW1 2513   0.077   0.555   6.166
  657SOL    HW2 2514   0.121   0.697   6.233
  658SOL     OW 2515   0.027   1.596   5.703
  658SOL    HW1 2516   0.008   1.500   5.724
  658SOL    HW2 2517  -0.006   1.654   5.778
  659SOL     OW 2518   1.689   0.922   6.198
  659SOL    HW1 2519   1.784   0.893   6.206
  659SOL    HW2 2520   1.681   0.987   6.123
  660SOL     OW 2521   1.641   1.108   6.018
  660SOL    HW1 2522   1.727   1.110   5.966
  660SOL    HW2 2523   1.655   1.155   6.106
  661SOL     OW 2524   0.113   0.737   7.183
  661SOL    HW1 2525   0.201   0.724   7.228
  661SOL    HW2 2526   0.100   0.834   7.161
  662SOL     OW 2527   0.613   1.365   6.312
  662SOL    HW1 2528   0.564   1.278   6.321
  662SOL    HW2 2529   0.590   1.408   6.225
  663SOL     OW 2530   1.293   1.228   7.009
  663SOL    HW1 2531   1.330   1.155   6.951
  663SOL    HW2 2532   1.345   1.233   7.094
  664SOL     OW 2533   0.809   0.004   6.088
  664SOL    HW1 2534   0.849   0.095   6.079
  664SOL    HW2 2535   0.709   0.012   6.094
  665SOL     OW 2536   0.197   0.976   6.850
  665SOL    HW1 2537   0.286   0.931   6.836
  665SOL    HW2 2538   0.124   0.911   6.831
  666SOL     OW 2539   1.525   0.999   5.776
  666SOL    HW1 2540   1.462   0.923   5.789
  666SOL    HW2 2541   1.573   1.017   5.862
  667SOL     OW 2542   0.317   0.251   7.387
  667SOL    HW1 2543   0.388   0.322   7.393
  667SOL    HW2 2544   0.229   0.290   7.415
  668SOL     OW 2545   0.598   0.729   5.856
  668SOL    HW1 2546   0.622   0.798   5.788
  668SOL    HW2 2547   0.520   0.762   5.910
  669SOL     OW 2548   1.281   0.345   6.530
  669SOL    HW1 2549   1.195   0.295   6.517
  669SOL    HW2 2550   1.343   0.291   6.586
  670SOL     OW 2551   1.576   1.662   5.893
  670SOL    HW1 2552   1.665   1.708   5.896
  670SOL    HW2 2553   1.555   1.638   5.798
  671SOL     OW 2554   0.807   0.605   7.051
  671SOL    HW1 2555   0.760   0.602   7.140
  671SOL    HW2 2556   0.756   0.550   6.985
  672SOL     OW 2557   1.394   0.469   7.260
  672SOL    HW1 2558   1.374   0.512   7.348
  672SOL    HW2 2559   1.472   0.407   7.269
  673SOL     OW 2560   0.973   0.890   7.158
  673SOL    HW1 2561   1.019   0.806   7.129
  673SOL    HW2 2562   0.917   0.924   7.083
  674SOL     OW 2563   0.991   0.410   6.828
  674SOL    HW1 2564   0.914   0.444   6.882
  674SOL    HW2 2565   0.957   0.359   6.749
  675SOL     OW 2566   1.041   0.701   6.015
  675SOL    HW1 2567   1.067   0.697   6.111
  675SOL    HW2 2568   0.956   0.650   6.001
  676SOL     OW 2569   0.076   0.811   6.375
  676SOL    HW1 2570   0.175   0.799   6.384
  676SOL    HW2 2571   0.052   0.906   6.396
  677SOL     OW 2572   0.130   1.821   7.157
  677SOL    HW1 2573   0.120   1.806   7.256
  677SOL    HW2 2574   0.044   1.857   7.121
  678SOL     OW 2575   0.865   0.348   5.781
  678SOL    HW1 2576   0.924   0.411   5.732
  678SOL    HW2 2577   0.884   0.254   5.752
  679SOL     OW 2578   1.719   0.585   7.417
  679SOL    HW1 2579   1.693   0.674   7.381
  679SOL    HW2 2580   1.717   0.517   7.344
  680SOL     OW 2581   1.362   1.144   6.131
  680SOL    HW1 2582   1.445   1.115   6.083
  680SOL    HW2 2583   1.313   1.211   6.075
  681SOL     OW 2584   0.550   0.196   6.471
  681SOL    HW1 2585   0.545   0.191   6.571
  681SOL    HW2 2586   0.552   0.292   6.442
  682SOL     OW 2587   1.008   1.456   6.063
  682SOL    HW1 2588   0.962   1.528   6.011
  682SOL    HW2 2589   1.004   1.476   6.161
  683SOL     OW 2590   0.351   1.801   6.439
  683SOL    HW1 2591   0.401   1.715   6.445
  683SOL    HW2 2592   0.416   1.878   6.436
  684SOL     OW 2593   1.795   1.066   6.459
  684SOL    HW1 2594   1.733   1.051   6.383
  684SOL    HW2 2595   1.743   1.077   6.544
  685SOL     OW 2596   1.227   1.550   7.092
  685SOL    HW1 2597   1.233   1.473   7.156
  685SOL    HW2 2598   1.175   1.524   7.012
  686SOL     OW 2599   0.321   0.943   5.828
  686SOL    HW1 2600   0.403   0.982   5.786
  686SOL    HW2 2601   0.294   0.861   5.779
  687SOL     OW 2602   1.458   0.735   6.314
  687SOL    HW1 2603   1.453   0.670   6.389
  687SOL    HW2 2604   1.538   0.794   6.327
  688SOL     OW 2605   0.461   1.266   7.313
  688SOL    HW1 2606   0.411   1.267   7.227
  688SOL    HW2 2607   0.398   1.248   7.389
  689SOL     OW 2608   1.111   1.776   5.823
  689SOL    HW1 2609   1.051   1.714   5.873
  689SOL    HW2 2610   1.142   1.732   5.738
  690SOL     OW 2611   0.202   0.285   7.084
  690SOL    HW1 2612   0.122   0.345   7.071
  690SOL    HW2 2613   0.192   0.236   7.170
  691SOL     OW 2614   1.632   1.377   5.667
  691SOL    HW1 2615   1.600   1.471   5.657
  691SOL    HW2 2616   1.556   1.314   5.655
  692SOL     OW 2617   0.464   1.743   5.909
  692SOL    HW1 2618   0.497   1.782   5.995
  692SOL    HW2 2619   0.540   1.736   5.844
  693SOL     OW 2620   1.400   0.107   6.012
  693SOL    HW1 2621   1.376   0.070   5.922
  693SOL    HW2 2622   1.499   0.123   6.016
  694SOL     OW 2623   0.249   1.785   6.827
  694SOL    HW1 2624   0.306   1.720   6.877
  694SOL    HW2 2625   0.233   1.752   6.734
  695SOL     OW 2626   0.940   1.698   6.490
  695SOL    HW1 2627   1.020   1.641   6.511
  695SOL    HW2 2628   0.891   1.658   6.413
  696SOL     OW 2629   0.382   0.700   6.066
  696SOL    HW1 2630   0.427   0.610   6.063
  696SOL    HW2 2631   0.288   0.689   6.099
  697SOL     OW 2632   1.547   0.222   7.315
  697SOL    HW1 2633   1.542   0.259   7.407
  697SOL    HW2 2634   1.475   0.153   7.303
  698SOL     OW 2635   0.614   0.122   5.703
  698SOL    HW1 2636   0.712   0.100   5.710
  698SOL    HW2 2637   0.583   0.105   5.610
  699SOL     OW 2638   0.781   0.264   7.335
  699SOL    HW1 2639   0.848   0.203   7.378
  699SOL    HW2 2640   0.708   0.283   7.400
  700SOL     OW 2641   0.888   1.514   6.781
  700SOL    HW1 2642   0.865   1.489   6.687
  700SOL    HW2 2643   0.949   1.445   6.820
  701SOL     OW 2644   1.351   0.590   7.019
  701SOL    HW1 2645   1.379   0.547   7.104
  701SOL    HW2 2646   1.376   0.686   7.020
  702SOL     OW 2647   0.803   1.402   6.510
  702SOL    HW1 2648   0.893   1.416   6.468
  702SOL    HW2 2649   0.732   1.404   6.439
  703SOL     OW 2650   0.922   0.503   6.485
  703SOL    HW1 2651   0.897   0.494   6.389
  703SOL    HW2 2652   0.970   0.421   6.516
  704SOL     OW 2653   0.539   0.064   6.098
  704SOL    HW1 2654   0.458   0.065   6.156
  704SOL    HW2 2655   0.542   0.147   6.043
  705SOL     OW 2656   1.434   1.188   5.627
  705SOL    HW1 2657   1.466   1.112   5.684
  705SOL    HW2 2658   1.342   1.215   5.657
  706SOL     OW 2659   0.297   0.035   5.757
  706SOL    HW1 2660   0.346   0.119   5.736
  706SOL    HW2 2661   0.359  -0.030   5.802
  707SOL     OW 2662   0.935   0.236   6.066
  707SOL    HW1 2663   0.887   0.277   5.988
  707SOL    HW2 2664   1.034   0.234   6.047
  708SOL     OW 2665   1.076   0.683   7.050
  708SOL    HW1 2666   0.996   0.622   7.053
  708SOL    HW2 2667   1.157   0.630   7.026
  709SOL     OW 2668   0.459   1.152   6.327
  709SOL    HW1 2669   0.388   1.125   6.392
  709SOL    HW2 2670   0.433   1.124   6.234
  710SOL     OW 2671   1.032   0.549   5.602
  710SOL    HW1 2672   0.991   0.631   5.563
  710SOL    HW2 2673   1.096   0.575   5.675
  711SOL     OW 2674   0.078   0.556   6.972
  711SOL    HW1 2675   0.170   0.555   6.931
  711SOL    HW2 2676   0.072   0.630   7.039
  712SOL     OW 2677   0.561   0.222   6.733
  712SOL    HW1 2678   0.599   0.138   6.770
  712SOL    HW2 2679   0.473   0.241   6.777
  713SOL     OW 2680   0.866   0.454   6.228
  713SOL    HW1 2681   0.834   0.526   6.166
  713SOL    HW2 2682   0.890   0.373   6.175
  714SOL     OW 2683   1.017   0.039   6.339
  714SOL    HW1 2684   0.945   0.044   6.270
  714SOL    HW2 2685   0.993  -0.030   6.408
  715SOL     OW 2686   1.429   1.173   6.453
  715SOL    HW1 2687   1.374   1.089   6.446
  715SOL    HW2 2688   1.455   1.202   6.361
  716SOL     OW 2689   1.466   0.590   6.578
  716SOL    HW1 2690   1.436   0.495   6.585
  716SOL    HW2 2691   1.539   0.606   6.644
  717SOL     OW 2692   1.857   0.833   5.963
  717SOL    HW1 2693   1.899   0.769   6.027
  717SOL    HW2 2694   1.819   0.782   5.885
  718SOL     OW 2695   0.488   1.385   5.760
  718SOL    HW1 2696   0.401   1.370   5.807
  718SOL    HW2 2697   0.471   1.411   5.665
  719SOL     OW 2698   1.390   0.575   5.664
  719SOL    HW1 2699   1.336   0.554   5.745
  719SOL    HW2 2700   1.481   0.534   5.673
  720SOL     OW 2701   0.527   0.256   5.914
  720SOL    HW1 2702   0.554   0.197   5.839
  720SOL    HW2 2703   0.527   0.351   5.883
  721SOL     OW 2704   1.064   1.347   6.926
  721SOL    HW1 2705   0.984   1.324   6.981
  721SOL    HW2 2706   1.147   1.321   6.975
  722SOL     OW 2707   1.111   1.195   6.686
  722SOL    HW1 2708   1.071   1.239   6.767
  722SOL    HW2 2709   1.070   1.232   6.603
  723SOL     OW 2710   1.638   1.099   6.665
  723SOL    HW1 2711   1.643   1.180   6.724
  723SOL    HW2 2712   1.552   1.101   6.614
  724SOL     OW 2713   0.915   0.089   6.988
  724SOL    HW1 2714   0.940   0.069   6.893
  724SOL    HW2 2715   0.987   0.145   7.030
  725SOL     OW 2716   0.980   1.116   7.305
  725SOL    HW1 2717   0.881   1.122   7.315
  725SOL    HW2 2718   1.003   1.036   7.249
  726SOL     OW 2719   0.705   1.050   5.954
  726SOL    HW1 2720   0.691   1.057   6.053
  726SOL    HW2 2721   0.789   0.999   5.936
  727SOL     OW 2722   0.410   0.813   6.837
  727SOL    HW1 2723   0.496   0.825   6.887
  727SOL    HW2 2724   0.368   0.726   6.864
  728SOL     OW 2725   1.274   0.386   6.848
  728SOL    HW1 2726   1.295   0.460   6.912
  728SOL    HW2 2727   1.185   0.403   6.805
  729SOL     OW 2728   0.064   1.564   6.917
  729SOL    HW1 2729   0.018   1.646   6.883
  729SOL    HW2 2730   0.162   1.583   6.926
  730SOL     OW 2731   0.367   1.100   6.087
  730SOL    HW1 2732   0.360   1.183   6.031
  730SOL    HW2 2733   0.371   1.020   6.027
  731SOL     OW 2734   0.566   0.537   6.451
  731SOL    HW1 2735   0.578   0.603   6.377
  731SOL    HW2 2736   0.612   0.571   6.534
  732SOL     OW 2737   1.252   1.348   5.974
  732SOL    HW1 2738   1.302   1.425   6.014
  732SOL    HW2 2739   1.157   1.350   6.006
  733SOL     OW 2740   1.272   1.445   6.728
  733SOL    HW1 2741   1.319   1.458   6.815
  733SOL    HW2 2742   1.206   1.371   6.737
  734SOL     OW 2743   1.582   0.639   6.058
  734SOL    HW1 2744   1.551   0.700   6.131
  734SOL    HW2 2745   1.632   0.691   5.989
  735SOL     OW 2746   0.354   1.510   6.915
  735SOL    HW1 2747   0.333   1.466   6.828
  735SOL    HW2 2748   0.451   1.536   6.918
  736SOL     OW 2749   0.402   0.751   7.184
  736SOL    HW1 2750   0.470   0.806   7.137
  736SOL    HW2 2751   0.442   0.663   7.211
  737SOL     OW 2752   1.587   0.779   7.256
  737SOL    HW1 2753   1.495   0.817   7.251
  737SOL    HW2 2754   1.647   0.826   7.191
  738SOL     OW 2755   1.013   0.105   7.356
  738SOL    HW1 2756   1.019   0.190   7.304
  738SOL    HW2 2757   1.045   0.029   7.299
  739SOL     OW 2758   0.504   0.050   7.326
  739SOL    HW1 2759   0.462  -0.007   7.256
  739SOL    HW2 2760   0.438   0.119   7.358
  740SOL     OW 2761   0.573   0.870   6.615
  740SOL    HW1 2762   0.617   0.959   6.606
  740SOL    HW2 2763   0.510   0.870   6.692
  741SOL     OW 2764   1.360   0.862   6.631
  741SOL    HW1 2765   1.285   0.862   6.565
  741SOL    HW2 2766   1.397   0.770   6.640
  742SOL     OW 2767   1.209   0.525   5.861
  742SOL    HW1 2768   1.222   0.441   5.915
  742SOL    HW2 2769   1.180   0.599   5.921
  743SOL     OW 2770   0.307   0.213   6.817
  743SOL    HW1 2771   0.284   0.250   6.907
  743SOL    HW2 2772   0.277   0.118   6.811
  744SOL     OW 2773   0.037   1.310   6.868
  744SOL    HW1 2774   0.090   1.261   6.936
  744SOL    HW2 2775   0.059   1.408   6.873
  745SOL     OW 2776   0.732   0.634   6.650
  745SOL    HW1 2777   0.791   0.608   6.574
  745SOL    HW2 2778   0.704   0.730   6.639
  746SOL     OW 2779   1.728   0.935   7.440
  746SOL    HW1 2780   1.682   0.928   7.351
  746SOL    HW2 2781   1.666   0.979   7.506
  747SOL     OW 2782   0.307   0.063   6.204
  747SOL    HW1 2783   0.296   0.157   6.237
  747SOL    HW2 2784   0.302   0.000   6.281
  748SOL     OW 2785   1.622   0.367   5.960
  748SOL    HW1 2786   1.624   0.291   6.024
  748SOL    HW2 2787   1.574   0.444   6.000
  749SOL     OW 2788   1.023   0.766   6.552
  749SOL    HW1 2789   1.038   0.787   6.648
  749SOL    HW2 2790   0.993   0.671   6.543
  750SOL     OW 2791   0.980   1.573   7.286
  750SOL    HW1 2792   0.960   1.617   7.198
  750SOL    HW2 2793   1.019   1.482   7.270
  751SOL     OW 2794   1.859   1.518   7.191
  751SOL    HW1 2795   1.873   1.545   7.096
  751SOL    HW2 2796   1.942   1.540   7.244
  752SOL     OW 2797   0.350   0.898   7.390
  752SOL    HW1 2798   0.426   0.942   7.438
  752SOL    HW2 2799   0.385   0.851   7.308
  753SOL     OW 2800   1.540   0.274   5.711
  753SOL    HW1 2801   1.479   0.199   5.734
  753SOL    HW2 2802   1.562   0.326   5.794
  754SOL     OW 2803   1.303   0.838   5.628
  754SOL    HW1 2804   1.337   0.745   5.643
  754SOL    HW2 2805   1.321   0.865   5.533
  755SOL     OW 2806   1.068   1.333   6.435
  755SOL    HW1 2807   1.075   1.249   6.380
  755SOL    HW2 2808   1.130   1.402   6.399
  756SOL     OW 2809   0.319   0.810   6.535
  756SOL    HW1 2810   0.412   0.846   6.540
  756SOL    HW2 2811   0.313   0.725   6.587
  757SOL     OW 2812   0.339   0.509   6.592
  757SOL    HW1 2813   0.287   0.426   6.575
  757SOL    HW2 2814   0.416   0.514   6.528
  758SOL     OW 2815   1.138   0.380   7.264
  758SOL    HW1 2816   1.093   0.443   7.328
  758SOL    HW2 2817   1.231   0.411   7.247
  759SOL     OW 2818   1.160   0.207   7.063
  759SOL    HW1 2819   1.160   0.271   7.140
  759SOL    HW2 2820   1.188   0.255   6.980
  760SOL     OW 2821   0.008   1.326   5.786
  760SOL    HW1 2822  -0.085   1.347   5.755
  760SOL    HW2 2823   0.018   1.227   5.799
  761SOL     OW 2824   0.088   1.801   6.513
  761SOL    HW1 2825   0.046   1.715   6.486
  761SOL    HW2 2826   0.182   1.804   6.479
  762SOL     OW 2827   0.504   1.568   6.496
  762SOL    HW1 2828   0.570   1.642   6.505
  762SOL    HW2 2829   0.548   1.489   6.454
  763SOL     OW 2830   1.002   0.796   6.824
  763SOL    HW1 2831   1.043   0.764   6.910
  763SOL    HW2 2832   0.906   0.769   6.821
  764SOL     OW 2833   0.040   0.544   6.700
  764SOL    HW1 2834   0.125   0.511   6.659
  764SOL    HW2 2835   0.053   0.559   6.798
  765SOL     OW 2836   0.189   0.520   7.308
  765SOL    HW1 2837   0.248   0.480   7.238
  765SOL    HW2 2838   0.131   0.591   7.267
  766SOL     OW 2839   1.369   0.950   7.246
  766SOL    HW1 2840   1.408   1.039   7.266
  766SOL    HW2 2841   1.379   0.930   7.149
  767SOL     OW 2842   0.815   0.572   5.911
  767SOL    HW1 2843   0.822   0.483   5.865
  767SOL    HW2 2844   0.721   0.606   5.903
  768SOL     OW 2845   1.657   0.604   6.792
  768SOL    HW1 2846   1.619   0.535   6.854
  768SOL    HW2 2847   1.739   0.568   6.748
  769SOL     OW 2848   0.252   1.564   7.330
  769SOL    HW1 2849   0.222   1.621   7.406
  769SOL    HW2 2850   0.245   1.467   7.356
  770SOL     OW 2851   0.671   0.464   6.855
  770SOL    HW1 2852   0.637   0.375   6.825
  770SOL    HW2 2853   0.697   0.518   6.775
  771SOL     OW 2854   0.930   1.678   7.051
  771SOL    HW1 2855   0.906   1.660   6.956
  771SOL    HW2 2856   0.960   1.772   7.061
  772SOL     OW 2857   0.473   0.500   5.777
  772SOL    HW1 2858   0.534   0.580   5.781
  772SOL    HW2 2859   0.378   0.531   5.784
  773SOL     OW 2860   0.159   1.137   7.052
  773SOL    HW1 2861   0.181   1.076   7.128
  773SOL    HW2 2862   0.169   1.088   6.966
  774SOL     OW 2863   1.347   1.059   6.820
  774SOL    HW1 2864   1.371   0.996   6.746
  774SOL    HW2 2865   1.257   1.099   6.802
  775SOL     OW 2866   1.302   0.855   5.895
  775SOL    HW1 2867   1.216   0.824   5.937
  775SOL    HW2 2868   1.298   0.841   5.796
  776SOL     OW 2869   1.759   1.747   6.740
  776SOL    HW1 2870   1.820   1.777   6.667
  776SOL    HW2 2871   1.721   1.658   6.718
  777SOL     OW 2872   0.083   1.258   6.608
  777SOL    HW1 2873   0.078   1.257   6.708
  777SOL    HW2 2874   0.000   1.217   6.570
  778SOL     OW 2875   0.688   1.662   7.302
  778SOL    HW1 2876   0.632   1.743   7.311
  778SOL    HW2 2877   0.740   1.666   7.216
  779SOL     OW 2878   1.726   0.135   6.109
  779SOL    HW1 2879   1.799   0.118   6.042
  779SOL    HW2 2880   1.695   0.048   6.147
  780SOL     OW 2881   0.130   1.794   7.437
  780SOL    HW1 2882   0.089   1.720   7.490
  780SOL    HW2 2883   0.194   1.845   7.495
  781SOL     OW 2884   1.280   0.927   6.258
  781SOL    HW1 2885   1.340   0.846   6.260
  781SOL    HW2 2886   1.320   0.996   6.198
  782SOL     OW 2887   0.830   1.273   7.008
  782SOL    HW1 2888   0.825   1.306   7.103
  782SOL    HW2 2889   0.744   1.292   6.962
  783SOL     OW 2890   0.672   1.616   5.740
  783SOL    HW1 2891   0.681   1.626   5.641
  783SOL    HW2 2892   0.632   1.527   5.761
  784SOL     OW 2893   1.650   1.720   6.980
  784SOL    HW1 2894   1.703   1.730   6.896
  784SOL    HW2 2895   1.623   1.810   7.014
  785SOL     OW 2896   1.841   0.175   6.549
  785SOL    HW1 2897   1.880   0.090   6.513
  785SOL    HW2 2898   1.743   0.177   6.530
  786SOL     OW 2899   0.263   0.326   6.306
  786SOL    HW1 2900   0.184   0.377   6.272
  786SOL    HW2 2901   0.254   0.311   6.404
  787SOL     OW 2902   1.194   1.612   5.617
  787SOL    HW1 2903   1.200   1.519   5.654
  787SOL    HW2 2904   1.135   1.612   5.537
  788SOL     OW 2905   0.822   1.002   6.958
  788SOL    HW1 2906   0.862   1.001   6.866
  788SOL    HW2 2907   0.832   1.094   6.998
  789SOL     OW 2908   0.916   0.910   5.877
  789SOL    HW1 2909   0.979   0.948   5.809
  789SOL    HW2 2910   0.956   0.827   5.916
  790SOL     OW 2911   1.504   1.607   5.630
  790SOL    HW1 2912   1.412   1.644   5.637
  790SOL    HW2 2913   1.542   1.627   5.540
  791SOL     OW 2914   0.372   1.288   7.076
  791SOL    HW1 2915   0.359   1.381   7.042
  791SOL    HW2 2916   0.288   1.236   7.063
  792SOL     OW 2917   1.614   1.292   6.875
  792SOL    HW1 2918   1.674   1.295   6.955
  792SOL    HW2 2919   1.539   1.356   6.888
  793SOL     OW 2920   1.039   1.098   6.282
  793SOL    HW1 2921   0.969   1.051   6.336
  793SOL    HW2 2922   1.098   1.030   6.239
  794SOL     OW 2923   1.014   0.236   6.557
  794SOL    HW1 2924   1.006   0.200   6.464
  794SOL    HW2 2925   1.012   0.160   6.622
  795SOL     OW 2926   0.590   1.487   6.077
  795SOL    HW1 2927   0.632   1.429   6.007
  795SOL    HW2 2928   0.546   1.566   6.033
  796SOL     OW 2929   1.709   0.385   6.967
  796SOL    HW1 2930   1.782   0.454   6.971
  796SOL    HW2 2931   1.737   0.310   6.908
  797SOL     OW 2932   0.255   1.348   5.876
  797SOL    HW1 2933   0.159   1.349   5.849
  797SOL    HW2 2934   0.267   1.401   5.960
  798SOL     OW 2935   0.105   1.013   7.312
  798SOL    HW1 2936   0.028   0.980   7.366
  798SOL    HW2 2937   0.190   0.983   7.354
  799SOL     OW 2938   0.672   0.203   7.075
  799SOL    HW1 2939   0.762   0.187   7.035
  799SOL    HW2 2940   0.680   0.208   7.174
  800SOL     OW 2941   0.075   0.345   5.619
  800SOL    HW1 2942  -0.017   0.317   5.590
  800SOL    HW2 2943   0.106   0.422   5.563
  801SOL     OW 2944   1.440   0.856   6.984
  801SOL    HW1 2945   1.383   0.908   6.921
  801SOL    HW2 2946   1.536   0.868   6.960
  802SOL     OW 2947   0.072   0.166   5.904
  802SOL    HW1 2948   0.055   0.249   5.850
  802SOL    HW2 2949   0.162   0.129   5.882
  803SOL     OW 2950   1.183   1.335   5.705
  803SOL    HW1 2951   1.084   1.324   5.707
  803SOL    HW2 2952   1.217   1.350   5.798
  804SOL     OW 2953   0.613   0.842   7.017
  804SOL    HW1 2954   0.669   0.923   7.000
  804SOL    HW2 2955   0.672   0.762   7.020
  805SOL     OW 2956   0.716   0.565   7.294
  805SOL    HW1 2957   0.735   0.630   7.368
  805SOL    HW2 2958   0.776   0.485   7.303
  806SOL     OW 2959   1.450   1.220   7.219
  806SOL    HW1 2960   1.441   1.210   7.318
  806SOL    HW2 2961   1.546   1.213   7.193
  807SOL     OW 2962   0.390   1.741   7.146
  807SOL    HW1 2963   0.299   1.782   7.144
  807SOL    HW2 2964   0.383   1.647   7.178
  808SOL     OW 2965   1.674   0.883   6.840
  808SOL    HW1 2966   1.647   0.794   6.803
  808SOL    HW2 2967   1.675   0.951   6.767
  809SOL     OW 2968   1.225   0.325   6.035
  809SOL    HW1 2969   1.290   0.251   6.024
  809SOL    HW2 2970   1.245   0.375   6.119
  810SOL     OW 2971   0.594   0.745   6.238
  810SOL    HW1 2972   0.644   0.830   6.219
  810SOL    HW2 2973   0.506   0.747   6.190
  811SOL     OW 2974   1.777   0.342   7.228
  811SOL    HW1 2975   1.760   0.373   7.134
  811SOL    HW2 2976   1.693   0.305   7.266
  812SOL     OW 2977   1.730   0.934   7.103
  812SOL    HW1 2978   1.768   1.025   7.118
  812SOL    HW2 2979   1.722   0.917   7.004
  813SOL     OW 2980   0.859   1.374   5.602
  813SOL    HW1 2981   0.813   1.389   5.690
  813SOL    HW2 2982   0.903   1.459   5.572
  814SOL     OW 2983   0.661   1.790   6.539
  814SOL    HW1 2984   0.615   1.878   6.526
  814SOL    HW2 2985   0.760   1.802   6.532
  815SOL     OW 2986   0.859   0.956   6.447
  815SOL    HW1 2987   0.913   0.887   6.495
  815SOL    HW2 2988   0.827   1.025   6.513
  816SOL     OW 2989   1.083   0.984   5.673
  816SOL    HW1 2990   1.060   1.037   5.591
  816SOL    HW2 2991   1.164   0.928   5.654
  817SOL     OW 2992   0.221   1.314   7.430
  817SOL    HW1 2993   0.156   1.241   7.409
  817SOL    HW2 2994   0.225   1.328   7.528
  818SOL     OW 2995   0.079   1.240   6.239
  818SOL    HW1 2996   0.078   1.193   6.327
  818SOL    HW2 2997   0.161   1.212   6.188
  819SOL     OW 2998   0.672   1.391   7.210
  819SOL    HW1 2999   0.594   1.341   7.248
  819SOL    HW2 3000   0.669   1.486   7.241
  820SOL     OW 3001   1.824   0.192   6.813
  820SOL    HW1 3002   1.820   0.102   6.857
  820SOL    HW2 3003   1.827   0.181   6.714
  821SOL     OW 3004   0.428   0.424   6.106
  821SOL    HW1 3005   0.458   0.352   6.044
  821SOL    HW2 3006   0.389   0.384   6.189
  822SOL     OW 3007   0.317   0.547   6.866
  822SOL    HW1 3008   0.355   0.488   6.938
  822SOL    HW2 3009   0.357   0.521   6.778
  823SOL     OW 3010   0.812   1.586   6.273
  823SOL    HW1 3011   0.844   1.596   6.179
  823SOL    HW2 3012   0.733   1.524   6.275
  824SOL     OW 3013   1.424   0.214   6.698
  824SOL    HW1 3014   1.476   0.149   6.753
  824SOL    HW2 3015   1.375   0.277   6.759
  825SOL     OW 3016   1.001   0.034   6.740
  825SOL    HW1 3017   0.938  -0.038   6.709
  825SOL    HW2 3018   1.094  -0.002   6.740
  826SOL     OW 3019   0.770   1.330   5.887
  826SOL    HW1 3020   0.724   1.243   5.904
  826SOL    HW2 3021   0.861   1.327   5.928
  827SOL     OW 3022   0.618   1.567   6.870
  827SOL    HW1 3023   0.613   1.649   6.927
  827SOL    HW2 3024   0.707   1.564   6.825
  828SOL     OW 3025   1.352   0.052   5.754
  828SOL    HW1 3026   1.387   0.011   5.670
  828SOL    HW2 3027   1.262   0.014   5.774
  829SOL     OW 3028   1.300   0.453   6.277
  829SOL    HW1 3029   1.241   0.533   6.281
  829SOL    HW2 3030   1.315   0.418   6.370
  830SOL     OW 3031   1.593   0.221   6.468
  830SOL    HW1 3032   1.509   0.220   6.522
  830SOL    HW2 3033   1.595   0.304   6.412
  831SOL     OW 3034   0.039   1.077   5.886
  831SOL    HW1 3035   0.138   1.066   5.877
  831SOL    HW2 3036  -0.001   0.991   5.918
  832SOL     OW 3037   0.875   1.646   5.923
  832SOL    HW1 3038   0.798   1.611   5.869
  832SOL    HW2 3039   0.843   1.717   5.985
  833SOL     OW 3040   0.230   0.628   7.561
  833SOL    HW1 3041   0.137   0.626   7.598
  833SOL    HW2 3042   0.231   0.589   7.469
  834SOL     OW 3043   0.225   0.275   8.444
  834SOL    HW1 3044   0.260   0.258   8.536
  834SOL    HW2 3045   0.137   0.230   8.432
  835SOL     OW 3046   0.019   0.368   8.095
  835SOL    HW1 3047  -0.063   0.411   8.134
  835SOL    HW2 3048  -0.009   0.295   8.032
  836SOL     OW 3049   0.569   1.275   8.613
  836SOL    HW1 3050   0.476   1.268   8.576
  836SOL    HW2 3051   0.580   1.364   8.657
  837SOL     OW 3052   1.555   1.511   8.151
  837SOL    HW1 3053   1.498   1.495   8.232
  837SOL    HW2 3054   1.496   1.521   8.071
  838SOL     OW 3055   1.135   0.703   8.165
  838SOL    HW1 3056   1.192   0.781   8.140
  838SOL    HW2 3057   1.075   0.729   8.241
  839SOL     OW 3058   1.755   0.607   7.679
  839SOL    HW1 3059   1.743   0.594   7.580
  839SOL    HW2 3060   1.725   0.526   7.728
  840SOL     OW 3061   0.768   1.144   8.471
  840SOL    HW1 3062   0.690   1.161   8.531
  840SOL    HW2 3063   0.802   1.231   8.435
  841SOL     OW 3064   0.850   0.798   9.271
  841SOL    HW1 3065   0.846   0.874   9.336
  841SOL    HW2 3066   0.872   0.834   9.180
  842SOL     OW 3067   0.685   1.012   8.113
  842SOL    HW1 3068   0.754   0.996   8.183
  842SOL    HW2 3069   0.612   1.069   8.151
  843SOL     OW 3070   0.686   1.161   9.251
  843SOL    HW1 3071   0.746   1.240   9.265
  843SOL    HW2 3072   0.600   1.192   9.210
  844SOL     OW 3073   0.335   1.435   8.509
  844SOL    HW1 3074   0.257   1.404   8.456
  844SOL    HW2 3075   0.393   1.493   8.452
  845SOL     OW 3076   1.460   1.505   8.787
  845SOL    HW1 3077   1.484   1.599   8.813
  845SOL    HW2 3078   1.444   1.451   8.869
  846SOL     OW 3079   0.438   0.392   8.947
  846SOL    HW1 3080   0.520   0.336   8.956
  846SOL    HW2 3081   0.357   0.334   8.951
  847SOL     OW 3082   1.603   0.447   8.185
  847SOL    HW1 3083   1.529   0.493   8.135
  847SOL    HW2 3084   1.654   0.515   8.238
  848SOL     OW 3085   0.231   1.713   7.931
  848SOL    HW1 3086   0.265   1.790   7.985
  848SOL    HW2 3087   0.275   1.713   7.841
  849SOL     OW 3088   1.127   1.341   9.138
  849SOL    HW1 3089   1.174   1.341   9.226
  849SOL    HW2 3090   1.079   1.254   9.127
  850SOL     OW 3091   0.230   1.434   7.986
  850SOL    HW1 3092   0.204   1.530   7.986
  850SOL    HW2 3093   0.159   1.380   8.031
  851SOL     OW 3094   0.240   1.091   8.334
  851SOL    HW1 3095   0.254   1.007   8.386
  851SOL    HW2 3096   0.185   1.155   8.389
  852SOL     OW 3097   0.620   1.786   8.887
  852SOL    HW1 3098   0.528   1.769   8.922
  852SOL    HW2 3099   0.648   1.878   8.913
  853SOL     OW 3100   0.606   0.964   7.571
  853SOL    HW1 3101   0.613   1.048   7.517
  853SOL    HW2 3102   0.652   0.977   7.659
  854SOL     OW 3103   1.594   0.114   8.928
  854SOL    HW1 3104   1.576   0.181   8.856
  854SOL    HW2 3105   1.591   0.160   9.017
  855SOL     OW 3106   0.122   0.643   8.011
  855SOL    HW1 3107   0.077   0.555   8.028
  855SOL    HW2 3108   0.121   0.697   8.095
  856SOL     OW 3109   0.027   1.596   7.565
  856SOL    HW1 3110   0.008   1.500   7.586
  856SOL    HW2 3111  -0.006   1.654   7.640
  857SOL     OW 3112   1.689   0.922   8.060
  857SOL    HW1 3113   1.784   0.893   8.068
  857SOL    HW2 3114   1.681   0.987   7.985
  858SOL     OW 3115   1.641   1.108   7.880
  858SOL    HW1 3116   1.727   1.110   7.828
  858SOL    HW2 3117   1.655   1.155   7.968
  859SOL     OW 3118   0.113   0.737   9.045
  859SOL    HW1 3119   0.201   0.724   9.090
  859SOL    HW2 3120   0.100   0.834   9.023
  860SOL     OW 3121   0.613   1.365   8.174
  860SOL    HW1 3122   0.564   1.278   8.183
  860SOL    HW2 3123   0.590   1.408   8.087
  861SOL     OW 3124   1.293   1.228   8.871
  861SOL    HW1 3125   1.330   1.155   8.813
  861SOL    HW2 3126   1.345   1.233   8.956
  862SOL     OW 3127   0.809   0.004   7.950
  862SOL    HW1 3128   0.849   0.095   7.941
  862SOL    HW2 3129   0.709   0.012   7.956
  863SOL     OW 3130   0.197   0.976   8.712
  863SOL    HW1 3131   0.286   0.931   8.698
  863SOL    HW2 3132   0.124   0.911   8.693
  864SOL     OW 3133   1.525   0.999   7.638
  864SOL    HW1 3134   1.462   0.923   7.651
  864SOL    HW2 3135   1.573   1.017   7.724
  865SOL     OW 3136   1.187   1.792   9.064
  865SOL    HW1 3137   1.211   1.852   8.988
  865SOL    HW2 3138   1.194   1.697   9.034
  866SOL     OW 3139   0.317   0.251   9.249
  866SOL    HW1 3140   0.388   0.322   9.255
  866SOL    HW2 3141   0.229   0.290   9.277
  867SOL     OW 3142   1.466   1.417   8.401
  867SOL    HW1 3143   1.407   1.423   8.481
  867SOL    HW2 3144   1.451   1.329   8.355
  868SOL     OW 3145   1.667   1.714   8.020
  868SOL    HW1 3146   1.626   1.691   7.932
  868SOL    HW2 3147   1.649   1.640   8.085
  869SOL     OW 3148   0.598   0.729   7.718
  869SOL    HW1 3149   0.622   0.798   7.650
  869SOL    HW2 3150   0.520   0.762   7.772
  870SOL     OW 3151   1.281   0.345   8.392
  870SOL    HW1 3152   1.195   0.295   8.379
  870SOL    HW2 3153   1.343   0.291   8.448
  871SOL     OW 3154   0.807   0.605   8.913
  871SOL    HW1 3155   0.760   0.602   9.002
  871SOL    HW2 3156   0.756   0.550   8.847
  872SOL     OW 3157   1.394   0.469   9.122
  872SOL    HW1 3158   1.374   0.512   9.210
  872SOL    HW2 3159   1.472   0.407   9.131
  873SOL     OW 3160   0.973   0.890   9.020
  873SOL    HW1 3161   1.019   0.806   8.991
  873SOL    HW2 3162   0.917   0.924   8.945
  874SOL     OW 3163   0.991   0.410   8.690
  874SOL    HW1 3164   0.914   0.444   8.744
  874SOL    HW2 3165   0.957   0.359   8.611
  875SOL     OW 3166   1.041   0.701   7.877
  875SOL    HW1 3167   1.067   0.697   7.973
  875SOL    HW2 3168   0.956   0.650   7.863
  876SOL     OW 3169   0.076   0.811   8.237
  876SOL    HW1 3170   0.175   0.799   8.246
  876SOL    HW2 3171   0.052   0.906   8.258
  877SOL     OW 3172   0.130   1.821   9.019
  877SOL    HW1 3173   0.120   1.806   9.118
  877SOL    HW2 3174   0.044   1.857   8.983
  878SOL     OW 3175   0.865   0.348   7.643
  878SOL    HW1 3176   0.924   0.411   7.594
  878SOL    HW2 3177   0.884   0.254   7.614
  879SOL     OW 3178   1.719   0.585   9.279
  879SOL    HW1 3179   1.693   0.674   9.243
  879SOL    HW2 3180   1.717   0.517   9.206
  880SOL     OW 3181   1.362   1.144   7.993
  880SOL    HW1 3182   1.445   1.115   7.945
  880SOL    HW2 3183   1.313   1.211   7.937
  881SOL     OW 3184   0.550   0.196   8.333
  881SOL    HW1 3185   0.545   0.191   8.433
  881SOL    HW2 3186   0.552   0.292   8.304
  882SOL     OW 3187   1.008   1.456   7.925
  882SOL    HW1 3188   0.962   1.528   7.873
  882SOL    HW2 3189   1.004   1.476   8.023
  883SOL     OW 3190   0.351   1.801   8.301
  883SOL    HW1 3191   0.401   1.715   8.307
  883SOL    HW2 3192   0.416   1.878   8.298
  884SOL     OW 3193   1.795   1.066   8.321
  884SOL    HW1 3194   1.733   1.051   8.245
  884SOL    HW2 3195   1.743   1.077   8.406
  885SOL     OW 3196   1.227   1.550   8.954
  885SOL    HW1 3197   1.233   1.473   9.018
  885SOL    HW2 3198   1.175   1.524   8.874
  886SOL     OW 3199   0.321   0.943   7.690
  886SOL    HW1 3200   0.403   0.982   7.648
  886SOL    HW2 3201   0.294   0.861   7.641
  887SOL     OW 3202   1.458   0.735   8.176
  887SOL    HW1 3203   1.453   0.670   8.251
  887SOL    HW2 3204   1.538   0.794   8.189
  888SOL     OW 3205   0.461   1.266   9.175
  888SOL    HW1 3206   0.411   1.267   9.089
  888SOL    HW2 3207   0.398   1.248   9.251
  889SOL     OW 3208   1.111   1.776   7.685
  889SOL    HW1 3209   1.051   1.714   7.735
  889SOL    HW2 3210   1.142   1.732   7.600
  890SOL     OW 3211   0.202   0.285   8.946
  890SOL    HW1 3212   0.122   0.345   8.933
  890SOL    HW2 3213   0.192   0.236   9.032
  891SOL     OW 3214   0.464   1.743   7.771
  891SOL    HW1 3215   0.497   1.782   7.857
  891SOL    HW2 3216   0.540   1.736   7.706
  892SOL     OW 3217   1.400   0.107   7.874
  892SOL    HW1 3218   1.376   0.070   7.784
  892SOL    HW2 3219   1.499   0.123   7.878
  893SOL     OW 3220   0.249   1.785   8.689
  893SOL    HW1 3221   0.306   1.720   8.739
  893SOL    HW2 3222   0.233   1.752   8.596
  894SOL     OW 3223   0.940   1.698   8.352
  894SOL    HW1 3224   1.020   1.641   8.373
  894SOL    HW2 3225   0.891   1.658   8.275
  895SOL     OW 3226   0.382   0.700   7.928
  895SOL    HW1 3227   0.427   0.610   7.925
  895SOL    HW2 3228   0.288   0.689   7.961
  896SOL     OW 3229   1.547   0.222   9.177
  896SOL    HW1 3230   1.542   0.259   9.269
  896SOL    HW2 3231   1.475   0.153   9.165
  897SOL     OW 3232   0.614   0.122   7.565
  897SOL    HW1 3233   0.712   0.100   7.572
  897SOL    HW2 3234   0.583   0.105   7.472
  898SOL     OW 3235   0.781   0.264   9.197
  898SOL    HW1 3236   0.848   0.203   9.240
  898SOL    HW2 3237   0.708   0.283   9.262
  899SOL     OW 3238   0.888   1.514   8.643
  899SOL    HW1 3239   0.865   1.489   8.549
  899SOL    HW2 3240   0.949   1.445   8.682
  900SOL     OW 3241   1.351   0.590   8.881
  900SOL    HW1 3242   1.379   0.547   8.966
  900SOL    HW2 3243   1.376   0.686   8.882
  901SOL     OW 3244   0.803   1.402   8.372
  901SOL    HW1 3245   0.893   1.416   8.330
  901SOL    HW2 3246   0.732   1.404   8.301
  902SOL     OW 3247   0.922   0.503   8.347
  902SOL    HW1 3248   0.897   0.494   8.251
  902SOL    HW2 3249   0.970   0.421   8.378
  903SOL     OW 3250   0.539   0.064   7.960
  903SOL    HW1 3251   0.458   0.065   8.018
  903SOL    HW2 3252   0.542   0.147   7.905
  904SOL     OW 3253   1.434   1.188   7.489
  904SOL    HW1 3254   1.466   1.112   7.546
  904SOL    HW2 3255   1.342   1.215   7.519
  905SOL     OW 3256   0.297   0.035   7.619
  905SOL    HW1 3257   0.346   0.119   7.598
  905SOL    HW2 3258   0.359  -0.030   7.664
  906SOL     OW 3259   0.935   0.236   7.928
  906SOL    HW1 3260   0.887   0.277   7.850
  906SOL    HW2 3261   1.034   0.234   7.909
  907SOL     OW 3262   1.076   0.683   8.912
  907SOL    HW1 3263   0.996   0.622   8.915
  907SOL    HW2 3264   1.157   0.630   8.888
  908SOL     OW 3265   1.227   1.570   8.241
  908SOL    HW1 3266   1.248   1.644   8.176
  908SOL    HW2 3267   1.295   1.570   8.314
  909SOL     OW 3268   0.459   1.152   8.189
  909SOL    HW1 3269   0.388   1.125   8.254
  909SOL    HW2 3270   0.433   1.124   8.096
  910SOL     OW 3271   1.271   1.797   8.039
  910SOL    HW1 3272   1.315   1.861   7.975
  910SOL    HW2 3273   1.221   1.849   8.109
  911SOL     OW 3274   1.032   0.549   7.464
  911SOL    HW1 3275   0.991   0.631   7.425
  911SOL    HW2 3276   1.096   0.575   7.537
  912SOL     OW 3277   0.078   0.556   8.834
  912SOL    HW1 3278   0.170   0.555   8.793
  912SOL    HW2 3279   0.072   0.630   8.901
  913SOL     OW 3280   0.561   0.222   8.595
  913SOL    HW1 3281   0.599   0.138   8.632
  913SOL    HW2 3282   0.473   0.241   8.639
  914SOL     OW 3283   0.866   0.454   8.090
  914SOL    HW1 3284   0.834   0.526   8.028
  914SOL    HW2 3285   0.890   0.373   8.037
  915SOL     OW 3286   1.017   0.039   8.201
  915SOL    HW1 3287   0.945   0.044   8.132
  915SOL    HW2 3288   0.993  -0.030   8.270
  916SOL     OW 3289   1.429   1.173   8.315
  916SOL    HW1 3290   1.374   1.089   8.308
  916SOL    HW2 3291   1.455   1.202   8.223
  917SOL     OW 3292   1.466   0.590   8.440
  917SOL    HW1 3293   1.436   0.495   8.447
  917SOL    HW2 3294   1.539   0.606   8.506
  918SOL     OW 3295   1.857   0.833   7.825
  918SOL    HW1 3296   1.899   0.769   7.889
  918SOL    HW2 3297   1.819   0.782   7.747
  919SOL     OW 3298   0.488   1.385   7.622
  919SOL    HW1 3299   0.401   1.370   7.669
  919SOL    HW2 3300   0.471   1.411   7.527
  920SOL     OW 3301   1.664   1.280   8.105
  920SOL    HW1 3302   1.763   1.288   8.119
  920SOL    HW2 3303   1.619   1.364   8.136
  921SOL     OW 3304   1.390   0.575   7.526
  921SOL    HW1 3305   1.336   0.554   7.607
  921SOL    HW2 3306   1.481   0.534   7.535
  922SOL     OW 3307   0.527   0.256   7.776
  922SOL    HW1 3308   0.554   0.197   7.701
  922SOL    HW2 3309   0.527   0.351   7.745
  923SOL     OW 3310   1.754   1.223   9.036
  923SOL    HW1 3311   1.845   1.184   9.023
  923SOL    HW2 3312   1.762   1.319   9.060
  924SOL     OW 3313   1.064   1.347   8.788
  924SOL    HW1 3314   0.984   1.324   8.843
  924SOL    HW2 3315   1.147   1.321   8.837
  925SOL     OW 3316   1.592   1.629   9.073
  925SOL    HW1 3317   1.619   1.663   8.983
  925SOL    HW2 3318   1.671   1.591   9.119
  926SOL     OW 3319   1.111   1.195   8.548
  926SOL    HW1 3320   1.071   1.239   8.629
  926SOL    HW2 3321   1.070   1.232   8.465
  927SOL     OW 3322   1.638   1.099   8.527
  927SOL    HW1 3323   1.643   1.180   8.586
  927SOL    HW2 3324   1.552   1.101   8.476
  928SOL     OW 3325   0.915   0.089   8.850
  928SOL    HW1 3326   0.940   0.069   8.755
  928SOL    HW2 3327   0.987   0.145   8.892
  929SOL     OW 3328   0.980   1.116   9.167
  929SOL    HW1 3329   0.881   1.122   9.177
  929SOL    HW2 3330   1.003   1.036   9.111
  930SOL     OW 3331   0.705   1.050   7.816
  930SOL    HW1 3332   0.691   1.057   7.915
  930SOL    HW2 3333   0.789   0.999   7.798
  931SOL     OW 3334   0.410   0.813   8.699
  931SOL    HW1 3335   0.496   0.825   8.749
  931SOL    HW2 3336   0.368   0.726   8.726
  932SOL     OW 3337   1.274   0.386   8.710
  932SOL    HW1 3338   1.295   0.460   8.774
  932SOL    HW2 3339   1.185   0.403   8.667
  933SOL     OW 3340   0.064   1.564   8.779
  933SOL    HW1 3341   0.018   1.646   8.745
  933SOL    HW2 3342   0.162   1.583   8.788
  934SOL     OW 3343   0.367   1.100   7.949
  934SOL    HW1 3344   0.360   1.183   7.893
  934SOL    HW2 3345   0.371   1.020   7.889
  935SOL     OW 3346   0.566   0.537   8.313
  935SOL    HW1 3347   0.578   0.603   8.239
  935SOL    HW2 3348   0.612   0.571   8.396
  936SOL     OW 3349   1.252   1.348   7.836
  936SOL    HW1 3350   1.302   1.425   7.876
  936SOL    HW2 3351   1.157   1.350   7.868
  937SOL     OW 3352   1.272   1.445   8.590
  937SOL    HW1 3353   1.319   1.458   8.677
  937SOL    HW2 3354   1.206   1.371   8.599
  938SOL     OW 3355   1.582   0.639   7.920
  938SOL    HW1 3356   1.551   0.700   7.993
  938SOL    HW2 3357   1.632   0.691   7.851
  939SOL     OW 3358   0.354   1.510   8.777
  939SOL    HW1 3359   0.333   1.466   8.690
  939SOL    HW2 3360   0.451   1.536   8.780
  940SOL     OW 3361   0.402   0.751   9.046
  940SOL    HW1 3362   0.470   0.806   8.999
  940SOL    HW2 3363   0.442   0.663   9.073
  941SOL     OW 3364   1.587   0.779   9.118
  941SOL    HW1 3365   1.495   0.817   9.113
  941SOL    HW2 3366   1.647   0.826   9.053
  942SOL     OW 3367   1.013   0.105   9.218
  942SOL    HW1 3368   1.019   0.190   9.166
  942SOL    HW2 3369   1.045   0.029   9.161
  943SOL     OW 3370   0.504   0.050   9.188
  943SOL    HW1 3371   0.462  -0.007   9.118
  943SOL    HW2 3372   0.438   0.119   9.220
  944SOL     OW 3373   0.573   0.870   8.477
  944SOL    HW1 3374   0.617   0.959   8.468
  944SOL    HW2 3375   0.510   0.870   8.554
  945SOL     OW 3376   1.360   0.862   8.493
  945SOL    HW1 3377   1.285   0.862   8.427
  945SOL    HW2 3378   1.397   0.770   8.502
  946SOL     OW 3379   1.209   0.525   7.723
  946SOL    HW1 3380   1.222   0.441   7.777
  946SOL    HW2 3381   1.180   0.599   7.783
  947SOL     OW 3382   0.307   0.213   8.679
  947SOL    HW1 3383   0.284   0.250   8.769
  947SOL    HW2 3384   0.277   0.118   8.673
  948SOL     OW 3385   0.037   1.310   8.730
  948SOL    HW1 3386   0.090   1.261   8.798
  948SOL    HW2 3387   0.059   1.408   8.735
  949SOL     OW 3388   0.732   0.634   8.512
  949SOL    HW1 3389   0.791   0.608   8.436
  949SOL    HW2 3390   0.704   0.730   8.501
  950SOL     OW 3391   1.728   0.935   9.302
  950SOL    HW1 3392   1.682   0.928   9.213
  950SOL    HW2 3393   1.666   0.979   9.368
  951SOL     OW 3394   0.307   0.063   8.066
  951SOL    HW1 3395   0.296   0.157   8.099
  951SOL    HW2 3396   0.302   0.000   8.143
  952SOL     OW 3397   1.622   0.367   7.822
  952SOL    HW1 3398   1.624   0.291   7.886
  952SOL    HW2 3399   1.574   0.444   7.862
  953SOL     OW 3400   1.023   0.766   8.414
  953SOL    HW1 3401   1.038   0.787   8.510
  953SOL    HW2 3402   0.993   0.671   8.405
  954SOL     OW 3403   0.980   1.573   9.148
  954SOL    HW1 3404   0.960   1.617   9.060
  954SOL    HW2 3405   1.019   1.482   9.132
  955SOL     OW 3406   1.859   1.518   9.053
  955SOL    HW1 3407   1.873   1.545   8.958
  955SOL    HW2 3408   1.942   1.540   9.106
  956SOL     OW 3409   0.350   0.898   9.252
  956SOL    HW1 3410   0.426   0.942   9.300
  956SOL    HW2 3411   0.385   0.851   9.170
  957SOL     OW 3412   1.540   0.274   7.573
  957SOL    HW1 3413   1.479   0.199   7.596
  957SOL    HW2 3414   1.562   0.326   7.656
  958SOL     OW 3415   1.303   0.838   7.490
  958SOL    HW1 3416   1.337   0.745   7.505
  958SOL    HW2 3417   1.321   0.865   7.395
  959SOL     OW 3418   1.068   1.333   8.297
  959SOL    HW1 3419   1.075   1.249   8.242
  959SOL    HW2 3420   1.130   1.402   8.261
  960SOL     OW 3421   0.319   0.810   8.397
  960SOL    HW1 3422   0.412   0.846   8.402
  960SOL    HW2 3423   0.313   0.725   8.449
  961SOL     OW 3424   0.339   0.509   8.454
  961SOL    HW1 3425   0.287   0.426   8.437
  961SOL    HW2 3426   0.416   0.514   8.390
  962SOL     OW 3427   1.138   0.380   9.126
  962SOL    HW1 3428   1.093   0.443   9.190
  962SOL    HW2 3429   1.231   0.411   9.109
  963SOL     OW 3430   1.160   0.207   8.925
  963SOL    HW1 3431   1.160   0.271   9.002
  963SOL    HW2 3432   1.188   0.255   8.842
  964SOL     OW 3433   0.008   1.326   7.648
  964SOL    HW1 3434  -0.085   1.347   7.617
  964SOL    HW2 3435   0.018   1.227   7.661
  965SOL     OW 3436   0.088   1.801   8.375
  965SOL    HW1 3437   0.046   1.715   8.348
  965SOL    HW2 3438   0.182   1.804   8.341
  966SOL     OW 3439   0.504   1.568   8.358
  966SOL    HW1 3440   0.570   1.642   8.367
  966SOL    HW2 3441   0.548   1.489   8.316
  967SOL     OW 3442   1.002   0.796   8.686
  967SOL    HW1 3443   1.043   0.764   8.772
  967SOL    HW2 3444   0.906   0.769   8.683
  968SOL     OW 3445   0.040   0.544   8.562
  968SOL    HW1 3446   0.125   0.511   8.521
  968SOL    HW2 3447   0.053   0.559   8.660
  969SOL     OW 3448   0.189   0.520   9.170
  969SOL    HW1 3449   0.248   0.480   9.100
  969SOL    HW2 3450   0.131   0.591   9.129
  970SOL     OW 3451   1.369   0.950   9.108
  970SOL    HW1 3452   1.408   1.039   9.128
  970SOL    HW2 3453   1.379   0.930   9.011
  971SOL     OW 3454   0.815   0.572   7.773
  971SOL    HW1 3455   0.822   0.483   7.727
  971SOL    HW2 3456   0.721   0.606   7.765
  972SOL     OW 3457   1.657   0.604   8.654
  972SOL    HW1 3458   1.619   0.535   8.716
  972SOL    HW2 3459   1.739   0.568   8.610
  973SOL     OW 3460   0.252   1.564   9.192
  973SOL    HW1 3461   0.222   1.621   9.268
  973SOL    HW2 3462   0.245   1.467   9.218
  974SOL     OW 3463   0.671   0.464   8.717
  974SOL    HW1 3464   0.637   0.375   8.687
  974SOL    HW2 3465   0.697   0.518   8.637
  975SOL     OW 3466   0.930   1.678   8.913
  975SOL    HW1 3467   0.906   1.660   8.818
  975SOL    HW2 3468   0.960   1.772   8.923
  976SOL     OW 3469   0.473   0.500   7.639
  976SOL    HW1 3470   0.534   0.580   7.643
  976SOL    HW2 3471   0.378   0.531   7.646
  977SOL     OW 3472   0.159   1.137   8.914
  977SOL    HW1 3473   0.181   1.076   8.990
  977SOL    HW2 3474   0.169   1.088   8.828
  978SOL     OW 3475   1.347   1.059   8.682
  978SOL    HW1 3476   1.371   0.996   8.608
  978SOL    HW2 3477   1.257   1.099   8.664
  979SOL     OW 3478   1.302   0.855   7.757
  979SOL    HW1 3479   1.216   0.824   7.799
  979SOL    HW2 3480   1.298   0.841   7.658
  980SOL     OW 3481   1.759   1.747   8.602
  980SOL    HW1 3482   1.820   1.777   8.529
  980SOL    HW2 3483   1.721   1.658   8.580
  981SOL     OW 3484   1.252   1.731   8.576
  981SOL    HW1 3485   1.336   1.736   8.522
  981SOL    HW2 3486   1.229   1.635   8.594
  982SOL     OW 3487   0.083   1.258   8.470
  982SOL    HW1 3488   0.078   1.257   8.570
  982SOL    HW2 3489   0.000   1.217   8.432
  983SOL     OW 3490   0.688   1.662   9.164
  983SOL    HW1 3491   0.632   1.743   9.173
  983SOL    HW2 3492   0.740   1.666   9.078
  984SOL     OW 3493   1.726   0.135   7.971
  984SOL    HW1 3494   1.799   0.118   7.904
  984SOL    HW2 3495   1.695   0.048   8.009
  985SOL     OW 3496   1.388   1.573   7.925
  985SOL    HW1 3497   1.455   1.585   7.851
  985SOL    HW2 3498   1.348   1.662   7.948
  986SOL     OW 3499   0.130   1.794   9.299
  986SOL    HW1 3500   0.089   1.720   9.352
  986SOL    HW2 3501   0.194   1.845   9.357
  987SOL     OW 3502   1.280   0.927   8.120
  987SOL    HW1 3503   1.340   0.846   8.122
  987SOL    HW2 3504   1.320   0.996   8.060
  988SOL     OW 3505   0.830   1.273   8.870
  988SOL    HW1 3506   0.825   1.306   8.965
  988SOL    HW2 3507   0.744   1.292   8.824
  989SOL     OW 3508   0.672   1.616   7.602
  989SOL    HW1 3509   0.681   1.626   7.503
  989SOL    HW2 3510   0.632   1.527   7.623
  990SOL     OW 3511   1.650   1.720   8.842
  990SOL    HW1 3512   1.703   1.730   8.758
  990SOL    HW2 3513   1.623   1.810   8.876
  991SOL     OW 3514   1.841   0.175   8.411
  991SOL    HW1 3515   1.880   0.090   8.375
  991SOL    HW2 3516   1.743   0.177   8.392
  992SOL     OW 3517   0.263   0.326   8.168
  992SOL    HW1 3518   0.184   0.377   8.134
  992SOL    HW2 3519   0.254   0.311   8.266
  993SOL     OW 3520   1.194   1.612   7.479
  993SOL    HW1 3521   1.200   1.519   7.516
  993SOL    HW2 3522   1.135   1.612   7.399
  994SOL     OW 3523   0.822   1.002   8.820
  994SOL    HW1 3524   0.862   1.001   8.728
  994SOL    HW2 3525   0.832   1.094   8.860
  995SOL     OW 3526   0.916   0.910   7.739
  995SOL    HW1 3527   0.979   0.948   7.671
  995SOL    HW2 3528   0.956   0.827   7.778
  996SOL     OW 3529   0.372   1.288   8.938
  996SOL    HW1 3530   0.359   1.381   8.904
  996SOL    HW2 3531   0.288   1.236   8.925
  997SOL     OW 3532   1.614   1.292   8.737
  997SOL    HW1 3533   1.674   1.295   8.817
  997SOL    HW2 3534   1.539   1.356   8.750
  998SOL     OW 3535   1.039   1.098   8.144
  998SOL    HW1 3536   0.969   1.051   8.198
  998SOL    HW2 3537   1.098   1.030   8.101
  999SOL     OW 3538   1.014   0.236   8.419
  999SOL    HW1 3539   1.006   0.200   8.326
  999SOL    HW2 3540   1.012   0.160   8.484
 1000SOL     OW 3541   0.590   1.487   7.939
 1000SOL    HW1 3542   0.632   1.429   7.869
 1000SOL    HW2 3543   0.546   1.566   7.895
 1001SOL     OW 3544   1.709   0.385   8.829
 1001SOL    HW1 3545   1.782   0.454   8.833
 1001SOL    HW2 3546   1.737   0.310   8.770
 1002SOL     OW 3547   0.255   1.348   7.738
 1002SOL    HW1 3548   0.159   1.349   7.711
 1002SOL    HW2 3549   0.267   1.401   7.822
 1003SOL     OW 3550   0.105   1.013   9.174
 1003SOL    HW1 3551   0.028   0.980   9.228
 1003SOL    HW2 3552   0.190   0.983   9.216
 1004SOL     OW 3553   0.672   0.203   8.937
 1004SOL    HW1 3554   0.762   0.187   8.897
 1004SOL    HW2 3555   0.680   0.208   9.036
 1005SOL     OW 3556   0.075   0.345   7.481
 1005SOL    HW1 3557  -0.017   0.317   7.452
 1005SOL    HW2 3558   0.106   0.422   7.425
 1006SOL     OW 3559   1.440   0.856   8.846
 1006SOL    HW1 3560   1.383   0.908   8.783
 1006SOL    HW2 3561   1.536   0.868   8.822
 1007SOL     OW 3562   0.072   0.166   7.766
 1007SOL    HW1 3563   0.055   0.249   7.712
 1007SOL    HW2 3564   0.162   0.129   7.744
 1008SOL     OW 3565   1.183   1.335   7.567
 1008SOL    HW1 3566   1.084   1.324   7.569
 1008SOL    HW2 3567   1.217   1.350   7.660
 1009SOL     OW 3568   0.613   0.842   8.879
 1009SOL    HW1 3569   0.669   0.923   8.862
 1009SOL    HW2 3570   0.672   0.762   8.882
 1010SOL     OW 3571   1.493   1.767   8.407
 1010SOL    HW1 3572   1.526   1.831   8.338
 1010SOL    HW2 3573   1.559   1.761   8.482
 1011SOL     OW 3574   0.716   0.565   9.156
 1011SOL    HW1 3575   0.735   0.630   9.230
 1011SOL    HW2 3576   0.776   0.485   9.165
 1012SOL     OW 3577   1.450   1.220   9.081
 1012SOL    HW1 3578   1.441   1.210   9.180
 1012SOL    HW2 3579   1.546   1.213   9.055
 1013SOL     OW 3580   0.390   1.741   9.008
 1013SOL    HW1 3581   0.299   1.782   9.006
 1013SOL    HW2 3582   0.383   1.647   9.040
 1014SOL     OW 3583   1.674   0.883   8.702
 1014SOL    HW1 3584   1.647   0.794   8.665
 1014SOL    HW2 3585   1.675   0.951   8.629
 1015SOL     OW 3586   1.225   0.325   7.897
 1015SOL    HW1 3587   1.290   0.251   7.886
 1015SOL    HW2 3588   1.245   0.375   7.981
 1016SOL     OW 3589   0.594   0.745   8.100
 1016SOL    HW1 3590   0.644   0.830   8.081
 1016SOL    HW2 3591   0.506   0.747   8.052
 1017SOL     OW 3592   1.777   0.342   9.090
 1017SOL    HW1 3593   1.760   0.373   8.996
 1017SOL    HW2 3594   1.693   0.305   9.128
 1018SOL     OW 3595   1.730   0.934   8.965
 1018SOL    HW1 3596   1.768   1.025   8.980
 1018SOL    HW2 3597   1.722   0.917   8.866
 1019SOL     OW 3598   0.859   1.374   7.464
 1019SOL    HW1 3599   0.813   1.389   7.552
 1019SOL    HW2 3600   0.903   1.459   7.434
 1020SOL     OW 3601   0.661   1.790   8.401
 1020SOL    HW1 3602   0.615   1.878   8.388
 1020SOL    HW2 3603   0.760   1.802   8.394
 1021SOL     OW 3604   0.859   0.956   8.309
 1021SOL    HW1 3605   0.913   0.887   8.357
 1021SOL    HW2 3606   0.827   1.025   8.375
 1022SOL     OW 3607   1.083   0.984   7.535
 1022SOL    HW1 3608   1.060   1.037   7.453
 1022SOL    HW2 3609   1.164   0.928   7.516
 1023SOL     OW 3610   1.861   1.569   8.299
 1023SOL    HW1 3611   1.790   1.557   8.229
 1023SOL    HW2 3612   1.862   1.490   8.359
 1024SOL     OW 3613   0.221   1.314   9.292
 1024SOL    HW1 3614   0.156   1.241   9.271
 1024SOL    HW2 3615   0.225   1.328   9.390
 1025SOL     OW 3616   0.079   1.240   8.101
 1025SOL    HW1 3617   0.078   1.193   8.189
 1025SOL    HW2 3618   0.161   1.212   8.050
 1026SOL     OW 3619   0.672   1.391   9.072
 1026SOL    HW1 3620   0.594   1.341   9.110
 1026SOL    HW2 3621   0.669   1.486   9.103
 1027SOL     OW 3622   1.824   0.192   8.675
 1027SOL    HW1 3623   1.820   0.102   8.719
 1027SOL    HW2 3624   1.827   0.181   8.576
 1028SOL     OW 3625   0.428   0.424   7.968
 1028SOL    HW1 3626   0.458   0.352   7.906
 1028SOL    HW2 3627   0.389   0.384   8.051
 1029SOL     OW 3628   1.705   1.487   8.552
 1029SOL    HW1 3629   1.612   1.462   8.525
 1029SOL    HW2 3630   1.731   1.437   8.634
 1030SOL     OW 3631   0.317   0.547   8.728
 1030SOL    HW1 3632   0.355   0.488   8.800
 1030SOL    HW2 3633   0.357   0.521   8.640
 1031SOL     OW 3634   0.812   1.586   8.135
 1031SOL    HW1 3635   0.844   1.596   8.041
 1031SOL    HW2 3636   0.733   1.524   8.137
 1032SOL     OW 3637   1.424   0.214   8.560
 1032SOL    HW1 3638   1.476   0.149   8.615
 1032SOL    HW2 3639   1.375   0.277   8.621
 1033SOL     OW 3640   1.001   0.034   8.602
 1033SOL    HW1 3641   0.938  -0.038   8.571
 1033SOL    HW2 3642   1.094  -0.002   8.602
 1034SOL     OW 3643   0.770   1.330   7.749
 1034SOL    HW1 3644   0.724   1.243   7.766
 1034SOL    HW2 3645   0.861   1.327   7.790
 1035SOL     OW 3646   0.618   1.567   8.732
 1035SOL    HW1 3647   0.613   1.649   8.789
 1035SOL    HW2 3648   0.707   1.564   8.687
 1036SOL     OW 3649   1.352   0.052   7.616
 1036SOL    HW1 3650   1.387   0.011   7.532
 1036SOL    HW2 3651   1.262   0.014   7.636
 1037SOL     OW 3652   1.300   0.453   8.139
 1037SOL    HW1 3653   1.241   0.533   8.143
 1037SOL    HW2 3654   1.315   0.418   8.232
 1038SOL     OW 3655   1.593   0.221   8.330
 1038SOL    HW1 3656   1.509   0.220   8.384
 1038SOL    HW2 3657   1.595   0.304   8.274
 1039SOL     OW 3658   0.039   1.077   7.748
 1039SOL    HW1 3659   0.138   1.066   7.739
 1039SOL    HW2 3660  -0.001   0.991   7.780
 1040SOL     OW 3661   0.875   1.646   7.785
 1040SOL    HW1 3662   0.798   1.611   7.731
 1040SOL    HW2 3663   0.843   1.717   7.847
 1041SOL     OW 3664   0.230   0.628   9.423
 1041SOL    HW1 3665   0.137   0.626   9.460
 1041SOL    HW2 3666   0.231   0.589   9.331
 1042SOL     OW 3667   0.225   0.275  10.306
 1042SOL    HW1 3668   0.260   0.258  10.398
 1042SOL    HW2 3669   0.137   0.230  10.294
 1043SOL     OW 3670   0.019   0.368   9.957
 1043SOL    HW1 3671  -0.063   0.411   9.996
 1043SOL    HW2 3672  -0.009   0.295   9.894
 1044SOL     OW 3673   0.569   1.275  10.475
 1044SOL    HW1 3674   0.476   1.268  10.438
 1044SOL    HW2 3675   0.580   1.364  10.519
 1045SOL     OW 3676   1.555   1.511  10.013
 1045SOL    HW1 3677   1.498   1.495  10.094
 1045SOL    HW2 3678   1.496   1.521   9.933
 1046SOL     OW 3679   1.135   0.703  10.027
 1046SOL    HW1 3680   1.192   0.781  10.002
 1046SOL    HW2 3681   1.075   0.729  10.103
 1047SOL     OW 3682   1.755   0.607   9.541
 1047SOL    HW1 3683   1.743   0.594   9.442
 1047SOL    HW2 3684   1.725   0.526   9.590
 1048SOL     OW 3685   0.768   1.144  10.333
 1048SOL    HW1 3686   0.690   1.161  10.393
 1048SOL    HW2 3687   0.802   1.231  10.297
 1049SOL     OW 3688   0.850   0.798  11.133
 1049SOL    HW1 3689   0.846   0.874  11.198
 1049SOL    HW2 3690   0.872   0.834  11.042
 1050SOL     OW 3691   0.685   1.012   9.975
 1050SOL    HW1 3692   0.754   0.996  10.045
 1050SOL    HW2 3693   0.612   1.069  10.013
 1051SOL     OW 3694   0.686   1.161  11.113
 1051SOL    HW1 3695   0.746   1.240  11.127
 1051SOL    HW2 3696   0.600   1.192  11.072
 1052SOL     OW 3697   0.335   1.435  10.371
 1052SOL    HW1 3698   0.257   1.404  10.318
 1052SOL    HW2 3699   0.393   1.493  10.314
 1053SOL     OW 3700   1.460   1.505  10.649
 1053SOL    HW1 3701   1.484   1.599  10.675
 1053SOL    HW2 3702   1.444   1.451  10.731
 1054SOL     OW 3703   0.438   0.392  10.809
 1054SOL    HW1 3704   0.520   0.336  10.818
 1054SOL    HW2 3705   0.357   0.334  10.813
 1055SOL     OW 3706   1.603   0.447  10.047
 1055SOL    HW1 3707   1.529   0.493   9.997
 1055SOL    HW2 3708   1.654   0.515  10.100
 1056SOL     OW 3709   0.231   1.713   9.793
 1056SOL    HW1 3710   0.265   1.790   9.847
 1056SOL    HW2 3711   0.275   1.713   9.703
 1057SOL     OW 3712   1.127   1.341  11.000
 1057SOL    HW1 3713   1.174   1.341  11.088
 1057SOL    HW2 3714   1.079   1.254  10.989
 1058SOL     OW 3715   0.230   1.434   9.848
 1058SOL    HW1 3716   0.204   1.530   9.848
 1058SOL    HW2 3717   0.159   1.380   9.893
 1059SOL     OW 3718   0.240   1.091  10.196
 1059SOL    HW1 3719   0.254   1.007  10.248
 1059SOL    HW2 3720   0.185   1.155  10.251
 1060SOL     OW 3721   0.620   1.786  10.749
 1060SOL    HW1 3722   0.528   1.769  10.784
 1060SOL    HW2 3723   0.648   1.878  10.775
 1061SOL     OW 3724   0.606   0.964   9.433
 1061SOL    HW1 3725   0.613   1.048   9.379
 1061SOL    HW2 3726   0.652   0.977   9.521
 1062SOL     OW 3727   1.594   0.114  10.790
 1062SOL    HW1 3728   1.576   0.181  10.718
 1062SOL    HW2 3729   1.591   0.160  10.879
 1063SOL     OW 3730   0.122   0.643   9.873
 1063SOL    HW1 3731   0.077   0.555   9.890
 1063SOL    HW2 3732   0.121   0.697   9.957
 1064SOL     OW 3733   0.027   1.596   9.427
 1064SOL    HW1 3734   0.008   1.500   9.448
 1064SOL    HW2 3735  -0.006   1.654   9.502
 1065SOL     OW 3736   1.689   0.922   9.922
 1065SOL    HW1 3737   1.784   0.893   9.930
 1065SOL    HW2 3738   1.681   0.987   9.847
 1066SOL     OW 3739   1.641   1.108   9.742
 1066SOL    HW1 3740   1.727   1.110   9.690
 1066SOL    HW2 3741   1.655   1.155   9.830
 1067SOL     OW 3742   0.113   0.737  10.907
 1067SOL    HW1 3743   0.201   0.724  10.952
 1067SOL    HW2 3744   0.100   0.834  10.885
 1068SOL     OW 3745   0.613   1.365  10.036
 1068SOL    HW1 3746   0.564   1.278  10.045
 1068SOL    HW2 3747   0.590   1.408   9.949
 1069SOL     OW 3748   1.293   1.228  10.733
 1069SOL    HW1 3749   1.330   1.155  10.675
 1069SOL    HW2 3750   1.345   1.233  10.818
 1070SOL     OW 3751   0.809   0.004   9.812
 1070SOL    HW1 3752   0.849   0.095   9.803
 1070SOL    HW2 3753   0.709   0.012   9.818
 1071SOL     OW 3754   0.197   0.976  10.574
 1071SOL    HW1 3755   0.286   0.931  10.560
 1071SOL    HW2 3756   0.124   0.911  10.555
 1072SOL     OW 3757   1.525   0.999   9.500
 1072SOL    HW1 3758   1.462   0.923   9.513
 1072SOL    HW2 3759   1.573   1.017   9.586
 1073SOL     OW 3760   1.187   1.792  10.926
 1073SOL    HW1 3761   1.211   1.852  10.850
 1073SOL    HW2 3762   1.194   1.697  10.896
 1074SOL     OW 3763   0.317   0.251  11.111
 1074SOL    HW1 3764   0.388   0.322  11.117
 1074SOL    HW2 3765   0.229   0.290  11.139
 1075SOL     OW 3766   1.466   1.417  10.263
 1075SOL    HW1 3767   1.407   1.423  10.343
 1075SOL    HW2 3768   1.451   1.329  10.217
 1076SOL     OW 3769   1.667   1.714   9.882
 1076SOL    HW1 3770   1.626   1.691   9.794
 1076SOL    HW2 3771   1.649   1.640   9.947
 1077SOL     OW 3772   0.598   0.729   9.580
 1077SOL    HW1 3773   0.622   0.798   9.512
 1077SOL    HW2 3774   0.520   0.762   9.634
 1078SOL     OW 3775   1.281   0.345  10.254
 1078SOL    HW1 3776   1.195   0.295  10.241
 1078SOL    HW2 3777   1.343   0.291  10.310
 1079SOL     OW 3778   1.576   1.662   9.617
 1079SOL    HW1 3779   1.665   1.708   9.620
 1079SOL    HW2 3780   1.555   1.638   9.522
 1080SOL     OW 3781   0.807   0.605  10.775
 1080SOL    HW1 3782   0.760   0.602  10.864
 1080SOL    HW2 3783   0.756   0.550  10.709
 1081SOL     OW 3784   1.394   0.469  10.984
 1081SOL    HW1 3785   1.374   0.512  11.072
 1081SOL    HW2 3786   1.472   0.407  10.993
 1082SOL     OW 3787   0.973   0.890  10.882
 1082SOL    HW1 3788   1.019   0.806  10.853
 1082SOL    HW2 3789   0.917   0.924  10.807
 1083SOL     OW 3790   0.991   0.410  10.552
 1083SOL    HW1 3791   0.914   0.444  10.606
 1083SOL    HW2 3792   0.957   0.359  10.473
 1084SOL     OW 3793   1.041   0.701   9.739
 1084SOL    HW1 3794   1.067   0.697   9.835
 1084SOL    HW2 3795   0.956   0.650   9.725
 1085SOL     OW 3796   0.076   0.811  10.099
 1085SOL    HW1 3797   0.175   0.799  10.108
 1085SOL    HW2 3798   0.052   0.906  10.120
 1086SOL     OW 3799   0.130   1.821  10.881
 1086SOL    HW1 3800   0.120   1.806  10.980
 1086SOL    HW2 3801   0.044   1.857  10.845
 1087SOL     OW 3802   0.865   0.348   9.505
 1087SOL    HW1 3803   0.924   0.411   9.456
 1087SOL    HW2 3804   0.884   0.254   9.476
 1088SOL     OW 3805   1.719   0.585  11.141
 1088SOL    HW1 3806   1.693   0.674  11.105
 1088SOL    HW2 3807   1.717   0.517  11.068
 1089SOL     OW 3808   1.362   1.144   9.855
 1089SOL    HW1 3809   1.445   1.115   9.807
 1089SOL    HW2 3810   1.313   1.211   9.799
 1090SOL     OW 3811   0.550   0.196  10.195
 1090SOL    HW1 3812   0.545   0.191  10.295
 1090SOL    HW2 3813   0.552   0.292  10.166
 1091SOL     OW 3814   1.008   1.456   9.787
 1091SOL    HW1 3815   0.962   1.528   9.735
 1091SOL    HW2 3816   1.004   1.476   9.885
 1092SOL     OW 3817   0.351   1.801  10.163
 1092SOL    HW1 3818   0.401   1.715  10.169
 1092SOL    HW2 3819   0.416   1.878  10.160
 1093SOL     OW 3820   1.795   1.066  10.183
 1093SOL    HW1 3821   1.733   1.051  10.107
 1093SOL    HW2 3822   1.743   1.077  10.268
 1094SOL     OW 3823   1.227   1.550  10.816
 1094SOL    HW1 3824   1.233   1.473  10.880
 1094SOL    HW2 3825   1.175   1.524  10.736
 1095SOL     OW 3826   0.321   0.943   9.552
 1095SOL    HW1 3827   0.403   0.982   9.510
 1095SOL    HW2 3828   0.294   0.861   9.503
 1096SOL     OW 3829   1.458   0.735  10.038
 1096SOL    HW1 3830   1.453   0.670  10.113
 1096SOL    HW2 3831   1.538   0.794  10.051
 1097SOL     OW 3832   0.461   1.266  11.037
 1097SOL    HW1 3833   0.411   1.267  10.951
 1097SOL    HW2 3834   0.398   1.248  11.113
 1098SOL     OW 3835   1.111   1.776   9.547
 1098SOL    HW1 3836   1.051   1.714   9.597
 1098SOL    HW2 3837   1.142   1.732   9.462
 1099SOL     OW 3838   0.202   0.285  10.808
 1099SOL    HW1 3839   0.122   0.345  10.795
 1099SOL    HW2 3840   0.192   0.236  10.894
 1100SOL     OW 3841   1.632   1.377   9.391
 1100SOL    HW1 3842   1.600   1.471   9.381
 1100SOL    HW2 3843   1.556   1.314   9.379
 1101SOL     OW 3844   0.464   1.743   9.633
 1101SOL    HW1 3845   0.497   1.782   9.719
 1101SOL    HW2 3846   0.540   1.736   9.568
 1102SOL     OW 3847   1.400   0.107   9.736
 1102SOL    HW1 3848   1.376   0.070   9.646
 1102SOL    HW2 3849   1.499   0.123   9.740
 1103SOL     OW 3850   0.249   1.785  10.551
 1103SOL    HW1 3851   0.306   1.720  10.601
 1103SOL    HW2 3852   0.233   1.752  10.458
 1104SOL     OW 3853   0.940   1.698  10.214
 1104SOL    HW1 3854   1.020   1.641  10.235
 1104SOL    HW2 3855   0.891   1.658  10.137
 1105SOL     OW 3856   0.382   0.700   9.790
 1105SOL    HW1 3857   0.427   0.610   9.787
 1105SOL    HW2 3858   0.288   0.689   9.823
 1106SOL     OW 3859   1.547   0.222  11.039
 1106SOL    HW1 3860   1.542   0.259  11.131
 1106SOL    HW2 3861   1.475   0.153  11.027
 1107SOL     OW 3862   0.614   0.122   9.427
 1107SOL    HW1 3863   0.712   0.100   9.434
 1107SOL    HW2 3864   0.583   0.105   9.334
 1108SOL     OW 3865   0.781   0.264  11.059
 1108SOL    HW1 3866   0.848   0.203  11.102
 1108SOL    HW2 3867   0.708   0.283  11.124
 1109SOL     OW 3868   0.888   1.514  10.505
 1109SOL    HW1 3869   0.865   1.489  10.411
 1109SOL    HW2 3870   0.949   1.445  10.544
 1110SOL     OW 3871   1.351   0.590  10.743
 1110SOL    HW1 3872   1.379   0.547  10.828
 1110SOL    HW2 3873   1.376   0.686  10.744
 1111SOL     OW 3874   0.803   1.402  10.234
 1111SOL    HW1 3875   0.893   1.416  10.192
 1111SOL    HW2 3876   0.732   1.404  10.163
 1112SOL     OW 3877   0.922   0.503  10.209
 1112SOL    HW1 3878   0.897   0.494  10.113
 1112SOL    HW2 3879   0.970   0.421  10.240
 1113SOL     OW 3880   0.539   0.064   9.822
 1113SOL    HW1 3881   0.458   0.065   9.880
 1113SOL    HW2 3882   0.542   0.147   9.767
 1114SOL     OW 3883   1.434   1.188   9.351
 1114SOL    HW1 3884   1.466   1.112   9.408
 1114SOL    HW2 3885   1.342   1.215   9.381
 1115SOL     OW 3886   0.297   0.035   9.481
 1115SOL    HW1 3887   0.346   0.119   9.460
 1115SOL    HW2 3888   0.359  -0.030   9.526
 1116SOL     OW 3889   0.935   0.236   9.790
 1116SOL    HW1 3890   0.887   0.277   9.712
 1116SOL    HW2 3891   1.034   0.234   9.771
 1117SOL     OW 3892   1.076   0.683  10.774
 1117SOL    HW1 3893   0.996   0.622  10.777
 1117SOL    HW2 3894   1.157   0.630  10.750
 1118SOL     OW 3895   1.227   1.570  10.103
 1118SOL    HW1 3896   1.248   1.644  10.038
 1118SOL    HW2 3897   1.295   1.570  10.176
 1119SOL     OW 3898   0.459   1.152  10.051
 1119SOL    HW1 3899   0.388   1.125  10.116
 1119SOL    HW2 3900   0.433   1.124   9.958
 1120SOL     OW 3901   1.271   1.797   9.901
 1120SOL    HW1 3902   1.315   1.861   9.837
 1120SOL    HW2 3903   1.221   1.849   9.971
 1121SOL     OW 3904   1.032   0.549   9.326
 1121SOL    HW1 3905   0.991   0.631   9.287
 1121SOL    HW2 3906   1.096   0.575   9.399
 1122SOL     OW 3907   0.078   0.556  10.696
 1122SOL    HW1 3908   0.170   0.555  10.655
 1122SOL    HW2 3909   0.072   0.630  10.763
 1123SOL     OW 3910   0.561   0.222  10.457
 1123SOL    HW1 3911   0.599   0.138  10.494
 1123SOL    HW2 3912   0.473   0.241  10.501
 1124SOL     OW 3913   0.866   0.454   9.952
 1124SOL    HW1 3914   0.834   0.526   9.890
 1124SOL    HW2 3915   0.890   0.373   9.899
 1125SOL     OW 3916   1.017   0.039  10.063
 1125SOL    HW1 3917   0.945   0.044   9.994
 1125SOL    HW2 3918   0.993  -0.030  10.132
 1126SOL     OW 3919   1.429   1.173  10.177
 1126SOL    HW1 3920   1.374   1.089  10.170
 1126SOL    HW2 3921   1.455   1.202  10.085
 1127SOL     OW 3922   1.466   0.590  10.302
 1127SOL    HW1 3923   1.436   0.495  10.309
 1127SOL    HW2 3924   1.539   0.606  10.368
 1128SOL     OW 3925   1.857   0.833   9.687
 1128SOL    HW1 3926   1.899   0.769   9.751
 1128SOL    HW2 3927   1.819   0.782   9.609
 1129SOL     OW 3928   0.488   1.385   9.484
 1129SOL    HW1 3929   0.401   1.370   9.531
 1129SOL    HW2 3930   0.471   1.411   9.389
 1130SOL     OW 3931   1.664   1.280   9.967
 1130SOL    HW1 3932   1.763   1.288   9.981
 1130SOL    HW2 3933   1.619   1.364   9.998
 1131SOL     OW 3934   1.390   0.575   9.388
 1131SOL    HW1 3935   1.336   0.554   9.469
 1131SOL    HW2 3936   1.481   0.534   9.397
 1132SOL     OW 3937   0.527   0.256   9.638
 1132SOL    HW1 3938   0.554   0.197   9.563
 1132SOL    HW2 3939   0.527   0.351   9.607
 1133SOL     OW 3940   1.754   1.223  10.898
 1133SOL    HW1 3941   1.845   1.184  10.885
 1133SOL    HW2 3942   1.762   1.319  10.922
 1134SOL     OW 3943   1.064   1.347  10.650
 1134SOL    HW1 3944   0.984   1.324  10.705
 1134SOL    HW2 3945   1.147   1.321  10.699
 1135SOL     OW 3946   1.592   1.629  10.935
 1135SOL    HW1 3947   1.619   1.663  10.845
 1135SOL    HW2 3948   1.671   1.591  10.981
 1136SOL     OW 3949   1.111   1.195  10.410
 1136SOL    HW1 3950   1.071   1.239  10.491
 1136SOL    HW2 3951   1.070   1.232  10.327
 1137SOL     OW 3952   1.638   1.099  10.389
 1137SOL    HW1 3953   1.643   1.180  10.448
 1137SOL    HW2 3954   1.552   1.101  10.338
 1138SOL     OW 3955   0.915   0.089  10.712
 1138SOL    HW1 3956   0.940   0.069  10.617
 1138SOL    HW2 3957   0.987   0.145  10.754
 1139SOL     OW 3958   0.980   1.116  11.029
 1139SOL    HW1 3959   0.881   1.122  11.039
 1139SOL    HW2 3960   1.003   1.036  10.973
 1140SOL     OW 3961   0.705   1.050   9.678
 1140SOL    HW1 3962   0.691   1.057   9.777
 1140SOL    HW2 3963   0.789   0.999   9.660
 1141SOL     OW 3964   0.410   0.813  10.561
 1141SOL    HW1 3965   0.496   0.825  10.611
 1141SOL    HW2 3966   0.368   0.726  10.588
 1142SOL     OW 3967   1.274   0.386  10.572
 1142SOL    HW1 3968   1.295   0.460  10.636
 1142SOL    HW2 3969   1.185   0.403  10.529
 1143SOL     OW 3970   0.064   1.564  10.641
 1143SOL    HW1 3971   0.018   1.646  10.607
 1143SOL    HW2 3972   0.162   1.583  10.650
 1144SOL     OW 3973   0.367   1.100   9.811
 1144SOL    HW1 3974   0.360   1.183   9.755
 1144SOL    HW2 3975   0.371   1.020   9.751
 1145SOL     OW 3976   0.566   0.537  10.175
 1145SOL    HW1 3977   0.578   0.603  10.101
 1145SOL    HW2 3978   0.612   0.571  10.258
 1146SOL     OW 3979   1.252   1.348   9.698
 1146SOL    HW1 3980   1.302   1.425   9.738
 1146SOL    HW2 3981   1.157   1.350   9.730
 1147SOL     OW 3982   1.272   1.445  10.452
 1147SOL    HW1 3983   1.319   1.458  10.539
 1147SOL    HW2 3984   1.206   1.371  10.461
 1148SOL     OW 3985   1.582   0.639   9.782
 1148SOL    HW1 3986   1.551   0.700   9.855
 1148SOL    HW2 3987   1.632   0.691   9.713
 1149SOL     OW 3988   0.354   1.510  10.639
 1149SOL    HW1 3989   0.333   1.466  10.552
 1149SOL    HW2 3990   0.451   1.536  10.642
 1150SOL     OW 3991   0.402   0.751  10.908
 1150SOL    HW1 3992   0.470   0.806  10.861
 1150SOL    HW2 3993   0.442   0.663  10.935
 1151SOL     OW 3994   1.587   0.779  10.980
 1151SOL    HW1 3995   1.495   0.817  10.975
 1151SOL    HW2 3996   1.647   0.826  10.915
 1152SOL     OW 3997   1.013   0.105  11.080
 1152SOL    HW1 3998   1.019   0.190  11.028
 1152SOL    HW2 3999   1.045   0.029  11.023
 1153SOL     OW 4000   0.504   0.050  11.050
 1153SOL    HW1 4001   0.462  -0.007  10.980
 1153SOL    HW2 4002   0.438   0.119  11.082
 1154SOL     OW 4003   0.573   0.870  10.339
 1154SOL    HW1 4004   0.617   0.959  10.330
 1154SOL    HW2 4005   0.510   0.870  10.416
 1155SOL     OW 4006   1.360   0.862  10.355
 1155SOL    HW1 4007   1.285   0.862  10.289
 1155SOL    HW2 4008   1.397   0.770  10.364
 1156SOL     OW 4009   1.209   0.525   9.585
 1156SOL    HW1 4010   1.222   0.441   9.639
 1156SOL    HW2 4011   1.180   0.599   9.645
 1157SOL     OW 4012   0.307   0.213  10.541
 1157SOL    HW1 4013   0.284   0.250  10.631
 1157SOL    HW2 4014   0.277   0.118  10.535
 1158SOL     OW 4015   0.037   1.310  10.592
 1158SOL    HW1 4016   0.090   1.261  10.660
 1158SOL    HW2 4017   0.059   1.408  10.597
 1159SOL     OW 4018   0.732   0.634  10.374
 1159SOL    HW1 4019   0.791   0.608  10.298
 1159SOL    HW2 4020   0.704   0.730  10.363
 1160SOL     OW 4021   1.728   0.935  11.164
 1160SOL    HW1 4022   1.682   0.928  11.075
 1160SOL    HW2 4023   1.666   0.979  11.230
 1161SOL     OW 4024   0.307   0.063   9.928
 1161SOL    HW1 4025   0.296   0.157   9.961
 1161SOL    HW2 4026   0.302   0.000  10.005
 1162SOL     OW 4027   1.622   0.367   9.684
 1162SOL    HW1 4028   1.624   0.291   9.748
 1162SOL    HW2 4029   1.574   0.444   9.724
 1163SOL     OW 4030   1.023   0.766  10.276
 1163SOL    HW1 4031   1.038   0.787  10.372
 1163SOL    HW2 4032   0.993   0.671  10.267
 1164SOL     OW 4033   0.980   1.573  11.010
 1164SOL    HW1 4034   0.960   1.617  10.922
 1164SOL    HW2 4035   1.019   1.482  10.994
 1165SOL     OW 4036   1.859   1.518  10.915
 1165SOL    HW1 4037   1.873   1.545  10.820
 1165SOL    HW2 4038   1.942   1.540  10.968
 1166SOL     OW 4039   0.350   0.898  11.114
 1166SOL    HW1 4040   0.426   0.942  11.162
 1166SOL    HW2 4041   0.385   0.851  11.032
 1167SOL     OW 4042   1.540   0.274   9.435
 1167SOL    HW1 4043   1.479   0.199   9.458
 1167SOL    HW2 4044   1.562   0.326   9.518
 1168SOL     OW 4045   1.303   0.838   9.352
 1168SOL    HW1 4046   1.337   0.745   9.367
 1168SOL    HW2 4047   1.321   0.865   9.257
 1169SOL     OW 4048   1.068   1.333  10.159
 1169SOL    HW1 4049   1.075   1.249  10.104
 1169SOL    HW2 4050   1.130   1.402  10.123
 1170SOL     OW 4051   0.319   0.810  10.259
 1170SOL    HW1 4052   0.412   0.846  10.264
 1170SOL    HW2 4053   0.313   0.725  10.311
 1171SOL     OW 4054   0.339   0.509  10.316
 1171SOL    HW1 4055   0.287   0.426  10.299
 1171SOL    HW2 4056   0.416   0.514  10.252
 1172SOL     OW 4057   1.138   0.380  10.988
 1172SOL    HW1 4058   1.093   0.443  11.052
 1172SOL    HW2 4059   1.231   0.411  10.971
 1173SOL     OW 4060   1.160   0.207  10.787
 1173SOL    HW1 4061   1.160   0.271  10.864
 1173SOL    HW2 4062   1.188   0.255  10.704
 1174SOL     OW 4063   0.008   1.326   9.510
 1174SOL    HW1 4064  -0.085   1.347   9.479
 1174SOL    HW2 4065   0.018   1.227   9.523
 1175SOL     OW 4066   0.088   1.801  10.237
 1175SOL    HW1 4067   0.046   1.715  10.210
 1175SOL    HW2 4068   0.182   1.804  10.203
 1176SOL     OW 4069   0.504   1.568  10.220
 1176SOL    HW1 4070   0.570   1.642  10.229
 1176SOL    HW2 4071   0.548   1.489  10.178
 1177SOL     OW 4072   1.002   0.796  10.548
 1177SOL    HW1 4073   1.043   0.764  10.634
 1177SOL    HW2 4074   0.906   0.769  10.545
 1178SOL     OW 4075   0.040   0.544  10.424
 1178SOL    HW1 4076   0.125   0.511  10.383
 1178SOL    HW2 4077   0.053   0.559  10.522
 1179SOL     OW 4078   0.189   0.520  11.032
 1179SOL    HW1 4079   0.248   0.480  10.962
 1179SOL    HW2 4080   0.131   0.591  10.991
 1180SOL     OW 4081   1.369   0.950  10.970
 1180SOL    HW1 4082   1.408   1.039  10.990
 1180SOL    HW2 4083   1.379   0.930  10.873
 1181SOL     OW 4084   0.815   0.572   9.635
 1181SOL    HW1 4085   0.822   0.483   9.589
 1181SOL    HW2 4086   0.721   0.606   9.627
 1182SOL     OW 4087   1.657   0.604  10.516
 1182SOL    HW1 4088   1.619   0.535  10.578
 1182SOL    HW2 4089   1.739   0.568  10.472
 1183SOL     OW 4090   0.252   1.564  11.054
 1183SOL    HW1 4091   0.222   1.621  11.130
 1183SOL    HW2 4092   0.245   1.467  11.080
 1184SOL     OW 4093   0.671   0.464  10.579
 1184SOL    HW1 4094   0.637   0.375  10.549
 1184SOL    HW2 4095   0.697   0.518  10.499
 1185SOL     OW 4096   0.930   1.678  10.775
 1185SOL    HW1 4097   0.906   1.660  10.680
 1185SOL    HW2 4098   0.960   1.772  10.785
 1186SOL     OW 4099   0.473   0.500   9.501
 1186SOL    HW1 4100   0.534   0.580   9.505
 1186SOL    HW2 4101   0.378   0.531   9.508
 1187SOL     OW 4102   0.159   1.137  10.776
 1187SOL    HW1 4103   0.181   1.076  10.852
 1187SOL    HW2 4104   0.169   1.088  10.690
 1188SOL     OW 4105   1.347   1.059  10.544
 1188SOL    HW1 4106   1.371   0.996  10.470
 1188SOL    HW2 4107   1.257   1.099  10.526
 1189SOL     OW 4108   1.302   0.855   9.619
 1189SOL    HW1 4109   1.216   0.824   9.661
 1189SOL    HW2 4110   1.298   0.841   9.520
 1190SOL     OW 4111   1.759   1.747  10.464
 1190SOL    HW1 4112   1.820   1.777  10.391
 1190SOL    HW2 4113   1.721   1.658  10.442
 1191SOL     OW 4114   1.252   1.731  10.438
 1191SOL    HW1 4115   1.336   1.736  10.384
 1191SOL    HW2 4116   1.229   1.635  10.456
 1192SOL     OW 4117   0.083   1.258  10.332
 1192SOL    HW1 4118   0.078   1.257  10.432
 1192SOL    HW2 4119   0.000   1.217  10.294
 1193SOL     OW 4120   0.688   1.662  11.026
 1193SOL    HW1 4121   0.632   1.743  11.035
 1193SOL    HW2 4122   0.740   1.666  10.940
 1194SOL     OW 4123   1.726   0.135   9.833
 1194SOL    HW1 4124   1.799   0.118   9.766
 1194SOL    HW2 4125   1.695   0.048   9.871
 1195SOL     OW 4126   1.388   1.573   9.787
 1195SOL    HW1 4127   1.455   1.585   9.713
 1195SOL    HW2 4128   1.348   1.662   9.810
 1196SOL     OW 4129   0.130   1.794  11.161
 1196SOL    HW1 4130   0.089   1.720  11.214
 1196SOL    HW2 4131   0.194   1.845  11.219
 1197SOL     OW 4132   1.280   0.927   9.982
 1197SOL    HW1 4133   1.340   0.846   9.984
 1197SOL    HW2 4134   1.320   0.996   9.922
 1198SOL     OW 4135   0.830   1.273  10.732
 1198SOL    HW1 4136   0.825   1.306  10.827
 1198SOL    HW2 4137   0.744   1.292  10.686
 1199SOL     OW 4138   0.672   1.616   9.464
 1199SOL    HW1 4139   0.681   1.626   9.365
 1199SOL    HW2 4140   0.632   1.527   9.485
 1200SOL     OW 4141   1.650   1.720  10.704
 1200SOL    HW1 4142   1.703   1.730  10.620
 1200SOL    HW2 4143   1.623   1.810  10.738
 1201SOL     OW 4144   1.841   0.175  10.273
 1201SOL    HW1 4145   1.880   0.090  10.237
 1201SOL    HW2 4146   1.743   0.177  10.254
 1202SOL     OW 4147   0.263   0.326  10.030
 1202SOL    HW1 4148   0.184   0.377   9.996
 1202SOL    HW2 4149   0.254   0.311  10.128
 1203SOL     OW 4150   1.194   1.612   9.341
 1203SOL    HW1 4151   1.200   1.519   9.378
 1203SOL    HW2 4152   1.135   1.612   9.261
 1204SOL     OW 4153   0.822   1.002  10.682
 1204SOL    HW1 4154   0.862   1.001  10.590
 1204SOL    HW2 4155   0.832   1.094  10.722
 1205SOL     OW 4156   0.916   0.910   9.601
 1205SOL    HW1 4157   0.979   0.948   9.533
 1205SOL    HW2 4158   0.956   0.827   9.640
 1206SOL     OW 4159   1.504   1.607   9.354
 1206SOL    HW1 4160   1.412   1.644   9.361
 1206SOL    HW2 4161   1.542   1.627   9.264
 1207SOL     OW 4162   0.372   1.288  10.800
 1207SOL    HW1 4163   0.359   1.381  10.766
 1207SOL    HW2 4164   0.288   1.236  10.787
 1208SOL     OW 4165   1.614   1.292  10.599
 1208SOL    HW1 4166   1.674   1.295  10.679
 1208SOL    HW2 4167   1.539   1.356  10.612
 1209SOL     OW 4168   1.039   1.098  10.006
 1209SOL    HW1 4169   0.969   1.051  10.060
 1209SOL    HW2 4170   1.098   1.030   9.963
 1210SOL     OW 4171   1.014   0.236  10.281
 1210SOL    HW1 4172   1.006   0.200  10.188
 1210SOL    HW2 4173   1.012   0.160  10.346
 1211SOL     OW 4174   0.590   1.487   9.801
 1211SOL    HW1 4175   0.632   1.429   9.731
 1211SOL    HW2 4176   0.546   1.566   9.757
 1212SOL     OW 4177   1.709   0.385  10.691
 1212SOL    HW1 4178   1.782   0.454  10.695
 1212SOL    HW2 4179   1.737   0.310  10.632
 1213SOL     OW 4180   0.255   1.348   9.600
 1213SOL    HW1 4181   0.159   1.349   9.573
 1213SOL    HW2 4182   0.267   1.401   9.684
 1214SOL     OW 4183   0.105   1.013  11.036
 1214SOL    HW1 4184   0.028   0.980  11.090
 1214SOL    HW2 4185   0.190   0.983  11.078
 1215SOL     OW 4186   0.672   0.203  10.799
 1215SOL    HW1 4187   0.762   0.187  10.759
 1215SOL    HW2 4188   0.680   0.208  10.898
 1216SOL     OW 4189   0.075   0.345   9.343
 1216SOL    HW1 4190  -0.017   0.317   9.314
 1216SOL    HW2 4191   0.106   0.422   9.287
 1217SOL     OW 4192   1.440   0.856  10.708
 1217SOL    HW1 4193   1.383   0.908  10.645
 1217SOL    HW2 4194   1.536   0.868  10.684
 1218SOL     OW 4195   0.072   0.166   9.628
 1218SOL    HW1 4196   0.055   0.249   9.574
 1218SOL    HW2 4197   0.162   0.129   9.606
 1219SOL     OW 4198   1.183   1.335   9.429
 1219SOL    HW1 4199   1.084   1.324   9.431
 1219SOL    HW2 4200   1.217   1.350   9.522
 1220SOL     OW 4201   0.613   0.842  10.741
 1220SOL    HW1 4202   0.669   0.923  10.724
 1220SOL    HW2 4203   0.672   0.762  10.744
 1221SOL     OW 4204   1.493   1.767  10.269
 1221SOL    HW1 4205   1.526   1.831  10.200
 1221SOL    HW2 4206   1.559   1.761  10.344
 1222SOL     OW 4207   0.716   0.565  11.018
 1222SOL    HW1 4208   0.735   0.630  11.092
 1222SOL    HW2 4209   0.776   0.485  11.027
 1223SOL     OW 4210   1.450   1.220  10.943
 1223SOL    HW1 4211   1.441   1.210  11.042
 1223SOL    HW2 4212   1.546   1.213  10.917
 1224SOL     OW 4213   0.390   1.741  10.870
 1224SOL    HW1 4214   0.299   1.782  10.868
 1224SOL    HW2 4215   0.383   1.647  10.902
 1225SOL     OW 4216   1.674   0.883  10.564
 1225SOL    HW1 4217   1.647   0.794  10.527
 1225SOL    HW2 4218   1.675   0.951  10.491
 1226SOL     OW 4219   1.225   0.325   9.759
 1226SOL    HW1 4220   1.290   0.251   9.748
 1226SOL    HW2 4221   1.245   0.375   9.843
 1227SOL     OW 4222   0.594   0.745   9.962
 1227SOL    HW1 4223   0.644   0.830   9.943
 1227SOL    HW2 4224   0.506   0.747   9.914
 1228SOL     OW 4225   1.777   0.342  10.952
 1228SOL    HW1 4226   1.760   0.373  10.858
 1228SOL    HW2 4227   1.693   0.305  10.990
 1229SOL     OW 4228   1.730   0.934  10.827
 1229SOL    HW1 4229   1.768   1.025  10.842
 1229SOL    HW2 4230   1.722   0.917  10.728
 1230SOL     OW 4231   0.859   1.374   9.326
 1230SOL    HW1 4232   0.813   1.389   9.414
 1230SOL    HW2 4233   0.903   1.459   9.296
 1231SOL     OW 4234   0.661   1.790  10.263
 1231SOL    HW1 4235   0.615   1.878  10.250
 1231SOL    HW2 4236   0.760   1.802  10.256
 1232SOL     OW 4237   0.859   0.956  10.171
 1232SOL    HW1 4238   0.913   0.887  10.219
 1232SOL    HW2 4239   0.827   1.025  10.237
 1233SOL     OW 4240   1.083   0.984   9.397
 1233SOL    HW1 4241   1.060   1.037   9.315
 1233SOL    HW2 4242   1.164   0.928   9.378
 1234SOL     OW 4243   1.861   1.569  10.161
 1234SOL    HW1 4244   1.790   1.557  10.091
 1234SOL    HW2 4245   1.862   1.490  10.221
 1235SOL     OW 4246   0.221   1.314  11.154
 1235SOL    HW1 4247   0.156   1.241  11.133
 1235SOL    HW2 4248   0.225   1.328  11.252
 1236SOL     OW 4249   0.079   1.240   9.963
 1236SOL    HW1 4250   0.078   1.193  10.051
 1236SOL    HW2 4251   0.161   1.212   9.912
 1237SOL     OW 4252   0.672   1.391  10.934
 1237SOL    HW1 4253   0.594   1.341  10.972
 1237SOL    HW2 4254   0.669   1.486  10.965
 1238SOL     OW 4255   1.824   0.192  10.537
 1238SOL    HW1 4256   1.820   0.102  10.581
 1238SOL    HW2 4257   1.827   0.181  10.438
 1239SOL     OW 4258   0.428   0.424   9.830
 1239SOL    HW1 4259   0.458   0.352   9.768
 1239SOL    HW2 4260   0.389   0.384   9.913
 1240SOL     OW 4261   1.705   1.487  10.414
 1240SOL    HW1 4262   1.612   1.462  10.387
 1240SOL    HW2 4263   1.731   1.437  10.496
 1241SOL     OW 4264   0.317   0.547  10.590
 1241SOL    HW1 4265   0.355   0.488  10.662
 1241SOL    HW2 4266   0.357   0.521  10.502
 1242SOL     OW 4267   0.812   1.586   9.997
 1242SOL    HW1 4268   0.844   1.596   9.903
 1242SOL    HW2 4269   0.733   1.524   9.999
 1243SOL     OW 4270   1.424   0.214  10.422
 1243SOL    HW1 4271   1.476   0.149  10.477
 1243SOL    HW2 4272   1.375   0.277  10.483
 1244SOL     OW 4273   1.001   0.034  10.464
 1244SOL    HW1 4274   0.938  -0.038  10.433
 1244SOL    HW2 4275   1.094  -0.002  10.464
 1245SOL     OW 4276   0.770   1.330   9.611
 1245SOL    HW1 4277   0.724   1.243   9.628
 1245SOL    HW2 4278   0.861   1.327   9.652
 1246SOL     OW 4279   0.618   1.567  10.594
 1246SOL    HW1 4280   0.613   1.649  10.651
 1246SOL    HW2 4281   0.707   1.564  10.549
 1247SOL     OW 4282   1.352   0.052   9.478
 1247SOL    HW1 4283   1.387   0.011   9.394
 1247SOL    HW2 4284   1.262   0.014   9.498
 1248SOL     OW 4285   1.300   0.453  10.001
 1248SOL    HW1 4286   1.241   0.533  10.005
 1248SOL    HW2 4287   1.315   0.418  10.094
 1249SOL     OW 4288   1.593   0.221  10.192
 1249SOL    HW1 4289   1.509   0.220  10.246
 1249SOL    HW2 4290   1.595   0.304  10.136
 1250SOL     OW 4291   0.039   1.077   9.610
 1250SOL    HW1 4292   0.138   1.066   9.601
 1250SOL    HW2 4293  -0.001   0.991   9.642
 1251SOL     OW 4294   0.875   1.646   9.647
 1251SOL    HW1 4295   0.798   1.611   9.593
 1251SOL    HW2 4296   0.843   1.717   9.709
 1252SOL     OW 4297   0.230   0.628  11.285
 1252SOL    HW1 4298   0.137   0.626  11.322
 1252SOL    HW2 4299   0.231   0.589  11.193
 1253SOL     OW 4300   0.225   0.275  12.168
 1253SOL    HW1 4301   0.260   0.258  12.260
 1253SOL    HW2 4302   0.137   0.230  12.156
 1254SOL     OW 4303   0.019   0.368  11.819
 1254SOL    HW1 4304  -0.063   0.411  11.858
 1254SOL    HW2 4305  -0.009   0.295  11.756
 1255SOL     OW 4306   0.569   1.275  12.337
 1255SOL    HW1 4307   0.476   1.268  12.300
 1255SOL    HW2 4308   0.580   1.364  12.381
 1256SOL     OW 4309   1.555   1.511  11.875
 1256SOL    HW1 4310   1.498   1.495  11.956
 1256SOL    HW2 4311   1.496   1.521  11.795
 1257SOL     OW 4312   1.135   0.703  11.889
 1257SOL    HW1 4313   1.192   0.781  11.864
 1257SOL    HW2 4314   1.075   0.729  11.965
 1258SOL     OW 4315   1.755   0.607  11.403
 1258SOL    HW1 4316   1.743   0.594  11.304
 1258SOL    HW2 4317   1.725   0.526  11.452
 1259SOL     OW 4318   0.768   1.144  12.195
 1259SOL    HW1 4319   0.690   1.161  12.255
 1259SOL    HW2 4320   0.802   1.231  12.159
 1260SOL     OW 4321   0.850   0.798  12.995
 1260SOL    HW1 4322   0.846   0.874  13.060
 1260SOL    HW2 4323   0.872   0.834  12.904
 1261SOL     OW 4324   0.685   1.012  11.837
 1261SOL    HW1 4325   0.754   0.996  11.907
 1261SOL    HW2 4326   0.612   1.069  11.875
 1262SOL     OW 4327   0.686   1.161  12.975
 1262SOL    HW1 4328   0.746   1.240  12.989
 1262SOL    HW2 4329   0.600   1.192  12.934
 1263SOL     OW 4330   0.335   1.435  12.233
 1263SOL    HW1 4331   0.257   1.404  12.180
 1263SOL    HW2 4332   0.393   1.493  12.176
 1264SOL     OW 4333   1.460   1.505  12.511
 1264SOL    HW1 4334   1.484   1.599  12.537
 1264SOL    HW2 4335   1.444   1.451  12.593
 1265SOL     OW 4336   0.438   0.392  12.671
 1265SOL    HW1 4337   0.520   0.336  12.680
 1265SOL    HW2 4338   0.357   0.334  12.675
 1266SOL     OW 4339   1.603   0.447  11.909
 1266SOL    HW1 4340   1.529   0.493  11.859
 1266SOL    HW2 4341   1.654   0.515  11.962
 1267SOL     OW 4342   0.231   1.713  11.655
 1267SOL    HW1 4343   0.265   1.790  11.709
 1267SOL    HW2 4344   0.275   1.713  11.565
 1268SOL     OW 4345   1.127   1.341  12.862
 1268SOL    HW1 4346   1.174   1.341  12.950
 1268SOL    HW2 4347   1.079   1.254  12.851
 1269SOL     OW 4348   0.230   1.434  11.710
 1269SOL    HW1 4349   0.204   1.530  11.710
 1269SOL    HW2 4350   0.159   1.380  11.755
 1270SOL     OW 4351   0.240   1.091  12.058
 1270SOL    HW1 4352   0.254   1.007  12.110
 1270SOL    HW2 4353   0.185   1.155  12.113
 1271SOL     OW 4354   0.620   1.786  12.611
 1271SOL    HW1 4355   0.528   1.769  12.646
 1271SOL    HW2 4356   0.648   1.878  12.637
 1272SOL     OW 4357   0.606   0.964  11.295
 1272SOL    HW1 4358   0.613   1.048  11.241
 1272SOL    HW2 4359   0.652   0.977  11.383
 1273SOL     OW 4360   1.594   0.114  12.652
 1273SOL    HW1 4361   1.576   0.181  12.580
 1273SOL    HW2 4362   1.591   0.160  12.741
 1274SOL     OW 4363   0.122   0.643  11.735
 1274SOL    HW1 4364   0.077   0.555  11.752
 1274SOL    HW2 4365   0.121   0.697  11.819
 1275SOL     OW 4366   0.027   1.596  11.289
 1275SOL    HW1 4367   0.008   1.500  11.310
 1275SOL    HW2 4368  -0.006   1.654  11.364
 1276SOL     OW 4369   1.689   0.922  11.784
 1276SOL    HW1 4370   1.784   0.893  11.792
 1276SOL    HW2 4371   1.681   0.987  11.709
 1277SOL     OW 4372   1.641   1.108  11.604
 1277SOL    HW1 4373   1.727   1.110  11.552
 1277SOL    HW2 4374   1.655   1.155  11.692
 1278SOL     OW 4375   0.113   0.737  12.769
 1278SOL    HW1 4376   0.201   0.724  12.814
 1278SOL    HW2 4377   0.100   0.834  12.747
 1279SOL     OW 4378   0.613   1.365  11.898
 1279SOL    HW1 4379   0.564   1.278  11.907
 1279SOL    HW2 4380   0.590   1.408  11.811
 1280SOL     OW 4381   1.293   1.228  12.595
 1280SOL    HW1 4382   1.330   1.155  12.537
 1280SOL    HW2 4383   1.345   1.233  12.680
 1281SOL     OW 4384   0.809   0.004  11.674
 1281SOL    HW1 4385   0.849   0.095  11.665
 1281SOL    HW2 4386   0.709   0.012  11.680
 1282SOL     OW 4387   0.197   0.976  12.436
 1282SOL    HW1 4388   0.286   0.931  12.422
 1282SOL    HW2 4389   0.124   0.911  12.417
 1283SOL     OW 4390   1.525   0.999  11.362
 1283SOL    HW1 4391   1.462   0.923  11.375
 1283SOL    HW2 4392   1.573   1.017  11.448
 1284SOL     OW 4393   1.187   1.792  12.788
 1284SOL    HW1 4394   1.211   1.852  12.712
 1284SOL    HW2 4395   1.194   1.697  12.758
 1285SOL     OW 4396   0.317   0.251  12.973
 1285SOL    HW1 4397   0.388   0.322  12.979
 1285SOL    HW2 4398   0.229   0.290  13.001
 1286SOL     OW 4399   1.466   1.417  12.125
 1286SOL    HW1 4400   1.407   1.423  12.205
 1286SOL    HW2 4401   1.451   1.329  12.079
 1287SOL     OW 4402   1.667   1.714  11.744
 1287SOL    HW1 4403   1.626   1.691  11.656
 1287SOL    HW2 4404   1.649   1.640  11.809
 1288SOL     OW 4405   0.598   0.729  11.442
 1288SOL    HW1 4406   0.622   0.798  11.374
 1288SOL    HW2 4407   0.520   0.762  11.496
 1289SOL     OW 4408   1.281   0.345  12.116
 1289SOL    HW1 4409   1.195   0.295  12.103
 1289SOL    HW2 4410   1.343   0.291  12.172
 1290SOL     OW 4411   1.576   1.662  11.479
 1290SOL    HW1 4412   1.665   1.708  11.482
 1290SOL    HW2 4413   1.555   1.638  11.384
 1291SOL     OW 4414   0.807   0.605  12.637
 1291SOL    HW1 4415   0.760   0.602  12.726
 1291SOL    HW2 4416   0.756   0.550  12.571
 1292SOL     OW 4417   1.394   0.469  12.846
 1292SOL    HW1 4418   1.374   0.512  12.934
 1292SOL    HW2 4419   1.472   0.407  12.855
 1293SOL     OW 4420   0.973   0.890  12.744
 1293SOL    HW1 4421   1.019   0.806  12.715
 1293SOL    HW2 4422   0.917   0.924  12.669
 1294SOL     OW 4423   0.991   0.410  12.414
 1294SOL    HW1 4424   0.914   0.444  12.468
 1294SOL    HW2 4425   0.957   0.359  12.335
 1295SOL     OW 4426   1.041   0.701  11.601
 1295SOL    HW1 4427   1.067   0.697  11.697
 1295SOL    HW2 4428   0.956   0.650  11.587
 1296SOL     OW 4429   0.076   0.811  11.961
 1296SOL    HW1 4430   0.175   0.799  11.970
 1296SOL    HW2 4431   0.052   0.906  11.982
 1297SOL     OW 4432   0.130   1.821  12.743
 1297SOL    HW1 4433   0.120   1.806  12.842
 1297SOL    HW2 4434   0.044   1.857  12.707
 1298SOL     OW 4435   0.865   0.348  11.367
 1298SOL    HW1 4436   0.924   0.411  11.318
 1298SOL    HW2 4437   0.884   0.254  11.338
 1299SOL     OW 4438   1.719   0.585  13.003
 1299SOL    HW1 4439   1.693   0.674  12.967
 1299SOL    HW2 4440   1.717   0.517  12.930
 1300SOL     OW 4441   1.362   1.144  11.717
 1300SOL    HW1 4442   1.445   1.115  11.669
 1300SOL    HW2 4443   1.313   1.211  11.661
 1301SOL     OW 4444   0.550   0.196  12.057
 1301SOL    HW1 4445   0.545   0.191  12.157
 1301SOL    HW2 4446   0.552   0.292  12.028
 1302SOL     OW 4447   1.008   1.456  11.649
 1302SOL    HW1 4448   0.962   1.528  11.597
 1302SOL    HW2 4449   1.004   1.476  11.747
 1303SOL     OW 4450   0.351   1.801  12.025
 1303SOL    HW1 4451   0.401   1.715  12.031
 1303SOL    HW2 4452   0.416   1.878  12.022
 1304SOL     OW 4453   1.795   1.066  12.045
 1304SOL    HW1 4454   1.733   1.051  11.969
 1304SOL    HW2 4455   1.743   1.077  12.130
 1305SOL     OW 4456   1.227   1.550  12.678
 1305SOL    HW1 4457   1.233   1.473  12.742
 1305SOL    HW2 4458   1.175   1.524  12.598
 1306SOL     OW 4459   0.321   0.943  11.414
 1306SOL    HW1 4460   0.403   0.982  11.372
 1306SOL    HW2 4461   0.294   0.861  11.365
 1307SOL     OW 4462   1.458   0.735  11.900
 1307SOL    HW1 4463   1.453   0.670  11.975
 1307SOL    HW2 4464   1.538   0.794  11.913
 1308SOL     OW 4465   0.461   1.266  12.899
 1308SOL    HW1 4466   0.411   1.267  12.813
 1308SOL    HW2 4467   0.398   1.248  12.975
 1309SOL     OW 4468   1.111   1.776  11.409
 1309SOL    HW1 4469   1.051   1.714  11.459
 1309SOL    HW2 4470   1.142   1.732  11.324
 1310SOL     OW 4471   0.202   0.285  12.670
 1310SOL    HW1 4472   0.122   0.345  12.657
 1310SOL    HW2 4473   0.192   0.236  12.756
 1311SOL     OW 4474   1.632   1.377  11.253
 1311SOL    HW1 4475   1.600   1.471  11.243
 1311SOL    HW2 4476   1.556   1.314  11.241
 1312SOL     OW 4477   0.464   1.743  11.495
 1312SOL    HW1 4478   0.497   1.782  11.581
 1312SOL    HW2 4479   0.540   1.736  11.430
 1313SOL     OW 4480   1.400   0.107  11.598
 1313SOL    HW1 4481   1.376   0.070  11.508
 1313SOL    HW2 4482   1.499   0.123  11.602
 1314SOL     OW 4483   0.249   1.785  12.413
 1314SOL    HW1 4484   0.306   1.720  12.463
 1314SOL    HW2 4485   0.233   1.752  12.320
 1315SOL     OW 4486   0.940   1.698  12.076
 1315SOL    HW1 4487   1.020   1.641  12.097
 1315SOL    HW2 4488   0.891   1.658  11.999
 1316SOL     OW 4489   0.382   0.700  11.652
 1316SOL    HW1 4490   0.427   0.610  11.649
 1316SOL    HW2 4491   0.288   0.689  11.685
 1317SOL     OW 4492   1.547   0.222  12.901
 1317SOL    HW1 4493   1.542   0.259  12.993
 1317SOL    HW2 4494   1.475   0.153  12.889
 1318SOL     OW 4495   0.614   0.122  11.289
 1318SOL    HW1 4496   0.712   0.100  11.296
 1318SOL    HW2 4497   0.583   0.105  11.196
 1319SOL     OW 4498   0.781   0.264  12.921
 1319SOL    HW1 4499   0.848   0.203  12.964
 1319SOL    HW2 4500   0.708   0.283  12.986
 1320SOL     OW 4501   0.888   1.514  12.367
 1320SOL    HW1 4502   0.865   1.489  12.273
 1320SOL    HW2 4503   0.949   1.445  12.406
 1321SOL     OW 4504   1.351   0.590  12.605
 1321SOL    HW1 4505   1.379   0.547  12.690
 1321SOL    HW2 4506   1.376   0.686  12.606
 1322SOL     OW 4507   0.803   1.402  12.096
 1322SOL    HW1 4508   0.893   1.416  12.054
 1322SOL    HW2 4509   0.732   1.404  12.025
 1323SOL     OW 4510   0.922   0.503  12.071
 1323SOL    HW1 4511   0.897   0.494  11.975
 1323SOL    HW2 4512   0.970   0.421  12.102
 1324SOL     OW 4513   0.539   0.064  11.684
 1324SOL    HW1 4514   0.458   0.065  11.742
 1324SOL    HW2 4515   0.542   0.147  11.629
 1325SOL     OW 4516   1.434   1.188  11.213
 1325SOL    HW1 4517   1.466   1.112  11.270
 1325SOL    HW2 4518   1.342   1.215  11.243
 1326SOL     OW 4519   0.297   0.035  11.343
 1326SOL    HW1 4520   0.346   0.119  11.322
 1326SOL    HW2 4521   0.359  -0.030  11.388
 1327SOL     OW 4522   0.935   0.236  11.652
 1327SOL    HW1 4523   0.887   0.277  11.574
 1327SOL    HW2 4524   1.034   0.234  11.633
 1328SOL     OW 4525   1.076   0.683  12.636
 1328SOL    HW1 4526   0.996   0.622  12.639
 1328SOL    HW2 4527   1.157   0.630  12.612
 1329SOL     OW 4528   1.227   1.570  11.965
 1329SOL    HW1 4529   1.248   1.644  11.900
 1329SOL    HW2 4530   1.295   1.570  12.038
 1330SOL     OW 4531   0.459   1.152  11.913
 1330SOL    HW1 4532   0.388   1.125  11.978
 1330SOL    HW2 4533   0.433   1.124  11.820
 1331SOL     OW 4534   1.271   1.797  11.763
 1331SOL    HW1 4535   1.315   1.861  11.699
 1331SOL    HW2 4536   1.221   1.849  11.833
 1332SOL     OW 4537   1.032   0.549  11.188
 1332SOL    HW1 4538   0.991   0.631  11.149
 1332SOL    HW2 4539   1.096   0.575  11.261
 1333SOL     OW 4540   0.078   0.556  12.558
 1333SOL    HW1 4541   0.170   0.555  12.517
 1333SOL    HW2 4542   0.072   0.630  12.625
 1334SOL     OW 4543   0.561   0.222  12.319
 1334SOL    HW1 4544   0.599   0.138  12.356
 1334SOL    HW2 4545   0.473   0.241  12.363
 1335SOL     OW 4546   0.866   0.454  11.814
 1335SOL    HW1 4547   0.834   0.526  11.752
 1335SOL    HW2 4548   0.890   0.373  11.761
 1336SOL     OW 4549   1.017   0.039  11.925
 1336SOL    HW1 4550   0.945   0.044  11.856
 1336SOL    HW2 4551   0.993  -0.030  11.994
 1337SOL     OW 4552   1.429   1.173  12.039
 1337SOL    HW1 4553   1.374   1.089  12.032
 1337SOL    HW2 4554   1.455   1.202  11.947
 1338SOL     OW 4555   1.466   0.590  12.164
 1338SOL    HW1 4556   1.436   0.495  12.171
 1338SOL    HW2 4557   1.539   0.606  12.230
 1339SOL     OW 4558   1.857   0.833  11.549
 1339SOL    HW1 4559   1.899   0.769  11.613
 1339SOL    HW2 4560   1.819   0.782  11.471
 1340SOL     OW 4561   0.488   1.385  11.346
 1340SOL    HW1 4562   0.401   1.370  11.393
 1340SOL    HW2 4563   0.471   1.411  11.251
 1341SOL     OW 4564   1.664   1.280  11.829
 1341SOL    HW1 4565   1.763   1.288  11.843
 1341SOL    HW2 4566   1.619   1.364  11.860
 1342SOL     OW 4567   1.390   0.575  11.250
 1342SOL    HW1 4568   1.336   0.554  11.331
 1342SOL    HW2 4569   1.481   0.534  11.259
 1343SOL     OW 4570   0.527   0.256  11.500
 1343SOL    HW1 4571   0.554   0.197  11.425
 1343SOL    HW2 4572   0.527   0.351  11.469
 1344SOL     OW 4573   1.754   1.223  12.760
 1344SOL    HW1 4574   1.845   1.184  12.747
 1344SOL    HW2 4575   1.762   1.319  12.784
 1345SOL     OW 4576   1.064   1.347  12.512
 1345SOL    HW1 4577   0.984   1.324  12.567
 1345SOL    HW2 4578   1.147   1.321  12.561
 1346SOL     OW 4579   1.592   1.629  12.797
 1346SOL    HW1 4580   1.619   1.663  12.707
 1346SOL    HW2 4581   1.671   1.591  12.843
 1347SOL     OW 4582   1.111   1.195  12.272
 1347SOL    HW1 4583   1.071   1.239  12.353
 1347SOL    HW2 4584   1.070   1.232  12.189
 1348SOL     OW 4585   1.638   1.099  12.251
 1348SOL    HW1 4586   1.643   1.180  12.310
 1348SOL    HW2 4587   1.552   1.101  12.200
 1349SOL     OW 4588   0.915   0.089  12.574
 1349SOL    HW1 4589   0.940   0.069  12.479
 1349SOL    HW2 4590   0.987   0.145  12.616
 1350SOL     OW 4591   0.980   1.116  12.891
 1350SOL    HW1 4592   0.881   1.122  12.901
 1350SOL    HW2 4593   1.003   1.036  12.835
 1351SOL     OW 4594   0.705   1.050  11.540
 1351SOL    HW1 4595   0.691   1.057  11.639
 1351SOL    HW2 4596   0.789   0.999  11.522
 1352SOL     OW 4597   0.410   0.813  12.423
 1352SOL    HW1 4598   0.496   0.825  12.473
 1352SOL    HW2 4599   0.368   0.726  12.450
 1353SOL     OW 4600   1.274   0.386  12.434
 1353SOL    HW1 4601   1.295   0.460  12.498
 1353SOL    HW2 4602   1.185   0.403  12.391
 1354SOL     OW 4603   0.064   1.564  12.503
 1354SOL    HW1 4604   0.018   1.646  12.469
 1354SOL    HW2 4605   0.162   1.583  12.512
 1355SOL     OW 4606   0.367   1.100  11.673
 1355SOL    HW1 4607   0.360   1.183  11.617
 1355SOL    HW2 4608   0.371   1.020  11.613
 1356SOL     OW 4609   0.566   0.537  12.037
 1356SOL    HW1 4610   0.578   0.603  11.963
 1356SOL    HW2 4611   0.612   0.571  12.120
 1357SOL     OW 4612   1.252   1.348  11.560
 1357SOL    HW1 4613   1.302   1.425  11.600
 1357SOL    HW2 4614   1.157   1.350  11.592
 1358SOL     OW 4615   1.272   1.445  12.314
 1358SOL    HW1 4616   1.319   1.458  12.401
 1358SOL    HW2 4617   1.206   1.371  12.323
 1359SOL     OW 4618   1.582   0.639  11.644
 1359SOL    HW1 4619   1.551   0.700  11.717
 1359SOL    HW2 4620   1.632   0.691  11.575
 1360SOL     OW 4621   0.354   1.510  12.501
 1360SOL    HW1 4622   0.333   1.466  12.414
 1360SOL    HW2 4623   0.451   1.536  12.504
 1361SOL     OW 4624   0.402   0.751  12.770
 1361SOL    HW1 4625   0.470   0.806  12.723
 1361SOL    HW2 4626   0.442   0.663  12.797
 1362SOL     OW 4627   1.587   0.779  12.842
 1362SOL    HW1 4628   1.495   0.817  12.837
 1362SOL    HW2 4629   1.647   0.826  12.777
 1363SOL     OW 4630   1.013   0.105  12.942
 1363SOL    HW1 4631   1.019   0.190  12.890
 1363SOL    HW2 4632   1.045   0.029  12.885
 1364SOL     OW 4633   0.504   0.050  12.912
 1364SOL    HW1 4634   0.462  -0.007  12.842
 1364SOL    HW2 4635   0.438   0.119  12.944
 1365SOL     OW 4636   0.573   0.870  12.201
 1365SOL    HW1 4637   0.617   0.959  12.192
 1365SOL    HW2 4638   0.510   0.870  12.278
 1366SOL     OW 4639   1.360   0.862  12.217
 1366SOL    HW1 4640   1.285   0.862  12.151
 1366SOL    HW2 4641   1.397   0.770  12.226
 1367SOL     OW 4642   1.209   0.525  11.447
 1367SOL    HW1 4643   1.222   0.441  11.501
 1367SOL    HW2 4644   1.180   0.599  11.507
 1368SOL     OW 4645   0.307   0.213  12.403
 1368SOL    HW1 4646   0.284   0.250  12.493
 1368SOL    HW2 4647   0.277   0.118  12.397
 1369SOL     OW 4648   0.037   1.310  12.454
 1369SOL    HW1 4649   0.090   1.261  12.522
 1369SOL    HW2 4650   0.059   1.408  12.459
 1370SOL     OW 4651   0.732   0.634  12.236
 1370SOL    HW1 4652   0.791   0.608  12.160
 1370SOL    HW2 4653   0.704   0.730  12.225
 1371SOL     OW 4654   1.728   0.935  13.026
 1371SOL    HW1 4655   1.682   0.928  12.937
 1371SOL    HW2 4656   1.666   0.979  13.092
 1372SOL     OW 4657   0.307   0.063  11.790
 1372SOL    HW1 4658   0.296   0.157  11.823
 1372SOL    HW2 4659   0.302   0.000  11.867
 1373SOL     OW 4660   1.622   0.367  11.546
 1373SOL    HW1 4661   1.624   0.291  11.610
 1373SOL    HW2 4662   1.574   0.444  11.586
 1374SOL     OW 4663   1.023   0.766  12.138
 1374SOL    HW1 4664   1.038   0.787  12.234
 1374SOL    HW2 4665   0.993   0.671  12.129
 1375SOL     OW 4666   0.980   1.573  12.872
 1375SOL    HW1 4667   0.960   1.617  12.784
 1375SOL    HW2 4668   1.019   1.482  12.856
 1376SOL     OW 4669   1.859   1.518  12.777
 1376SOL    HW1 4670   1.873   1.545  12.682
 1376SOL    HW2 4671   1.942   1.540  12.830
 1377SOL     OW 4672   0.350   0.898  12.976
 1377SOL    HW1 4673   0.426   0.942  13.024
 1377SOL    HW2 4674   0.385   0.851  12.894
 1378SOL     OW 4675   1.540   0.274  11.297
 1378SOL    HW1 4676   1.479   0.199  11.320
 1378SOL    HW2 4677   1.562   0.326  11.380
 1379SOL     OW 4678   1.303   0.838  11.214
 1379SOL    HW1 4679   1.337   0.745  11.229
 1379SOL    HW2 4680   1.321   0.865  11.119
 1380SOL     OW 4681   1.068   1.333  12.021
 1380SOL    HW1 4682   1.075   1.249  11.966
 1380SOL    HW2 4683   1.130   1.402  11.985
 1381SOL     OW 4684   0.319   0.810  12.121
 1381SOL    HW1 4685   0.412   0.846  12.126
 1381SOL    HW2 4686   0.313   0.725  12.173
 1382SOL     OW 4687   0.339   0.509  12.178
 1382SOL    HW1 4688   0.287   0.426  12.161
 1382SOL    HW2 4689   0.416   0.514  12.114
 1383SOL     OW 4690   1.138   0.380  12.850
 1383SOL    HW1 4691   1.093   0.443  12.914
 1383SOL    HW2 4692   1.231   0.411  12.833
 1384SOL     OW 4693   1.160   0.207  12.649
 1384SOL    HW1 4694   1.160   0.271  12.726
 1384SOL    HW2 4695   1.188   0.255  12.566
 1385SOL     OW 4696   0.008   1.326  11.372
 1385SOL    HW1 4697  -0.085   1.347  11.341
 1385SOL    HW2 4698   0.018   1.227  11.385
 1386SOL     OW 4699   0.088   1.801  12.099
 1386SOL    HW1 4700   0.046   1.715  12.072
 1386SOL    HW2 4701   0.182   1.804  12.065
 1387SOL     OW 4702   0.504   1.568  12.082
 1387SOL    HW1 4703   0.570   1.642  12.091
 1387SOL    HW2 4704   0.548   1.489  12.040
 1388SOL     OW 4705   1.002   0.796  12.410
 1388SOL    HW1 4706   1.043   0.764  12.496
 1388SOL    HW2 4707   0.906   0.769  12.407
 1389SOL     OW 4708   0.040   0.544  12.286
 1389SOL    HW1 4709   0.125   0.511  12.245
 1389SOL    HW2 4710   0.053   0.559  12.384
 1390SOL     OW 4711   0.189   0.520  12.894
 1390SOL    HW1 4712   0.248   0.480  12.824
 1390SOL    HW2 4713   0.131   0.591  12.853
 1391SOL     OW 4714   1.369   0.950  12.832
 1391SOL    HW1 4715   1.408   1.039  12.852
 1391SOL    HW2 4716   1.379   0.930  12.735
 1392SOL     OW 4717   0.815   0.572  11.497
 1392SOL    HW1 4718   0.822   0.483  11.451
 1392SOL    HW2 4719   0.721   0.606  11.489
 1393SOL     OW 4720   1.657   0.604  12.378
 1393SOL    HW1 4721   1.619   0.535  12.440
 1393SOL    HW2 4722   1.739   0.568  12.334
 1394SOL     OW 4723   0.252   1.564  12.916
 1394SOL    HW1 4724   0.222   1.621  12.992
 1394SOL    HW2 4725   0.245   1.467  12.942
 1395SOL     OW 4726   0.671   0.464  12.441
 1395SOL    HW1 4727   0.637   0.375  12.411
 1395SOL    HW2 4728   0.697   0.518  12.361
 1396SOL     OW 4729   0.930   1.678  12.637
 1396SOL    HW1 4730   0.906   1.660  12.542
 1396SOL    HW2 4731   0.960   1.772  12.647
 1397SOL     OW 4732   0.473   0.500  11.363
 1397SOL    HW1 4733   0.534   0.580  11.367
 1397SOL    HW2 4734   0.378   0.531  11.370
 1398SOL     OW 4735   0.159   1.137  12.638
 1398SOL    HW1 4736   0.181   1.076  12.714
 1398SOL    HW2 4737   0.169   1.088  12.552
 1399SOL     OW 4738   1.347   1.059  12.406
 1399SOL    HW1 4739   1.371   0.996  12.332
 1399SOL    HW2 4740   1.257   1.099  12.388
 1400SOL     OW 4741   1.302   0.855  11.481
 1400SOL    HW1 4742   1.216   0.824  11.523
 1400SOL    HW2 4743   1.298   0.841  11.382
 1401SOL     OW 4744   1.759   1.747  12.326
 1401SOL    HW1 4745   1.820   1.777  12.253
 1401SOL    HW2 4746   1.721   1.658  12.304
 1402SOL     OW 4747   1.252   1.731  12.300
 1402SOL    HW1 4748   1.336   1.736  12.246
 1402SOL    HW2 4749   1.229   1.635  12.318
 1403SOL     OW 4750   0.083   1.258  12.194
 1403SOL    HW1 4751   0.078   1.257  12.294
 1403SOL    HW2 4752   0.000   1.217  12.156
 1404SOL     OW 4753   0.688   1.662  12.888
 1404SOL    HW1 4754   0.632   1.743  12.897
 1404SOL    HW2 4755   0.740   1.666  12.802
 1405SOL     OW 4756   1.726   0.135  11.695
 1405SOL    HW1 4757   1.799   0.118  11.628
 1405SOL    HW2 4758   1.695   0.048  11.733
 1406SOL     OW 4759   1.388   1.573  11.649
 1406SOL    HW1 4760   1.455   1.585  11.575
 1406SOL    HW2 4761   1.348   1.662  11.672
 1407SOL     OW 4762   0.130   1.794  13.023
 1407SOL    HW1 4763   0.089   1.720  13.076
 1407SOL    HW2 4764   0.194   1.845  13.081
 1408SOL     OW 4765   1.280   0.927  11.844
 1408SOL    HW1 4766   1.340   0.846  11.846
 1408SOL    HW2 4767   1.320   0.996  11.784
 1409SOL     OW 4768   0.830   1.273  12.594
 1409SOL    HW1 4769   0.825   1.306  12.689
 1409SOL    HW2 4770   0.744   1.292  12.548
 1410SOL     OW 4771   0.672   1.616  11.326
 1410SOL    HW1 4772   0.681   1.626  11.227
 1410SOL    HW2 4773   0.632   1.527  11.347
 1411SOL     OW 4774   1.650   1.720  12.566
 1411SOL    HW1 4775   1.703   1.730  12.482
 1411SOL    HW2 4776   1.623   1.810  12.600
 1412SOL     OW 4777   1.841   0.175  12.135
 1412SOL    HW1 4778   1.880   0.090  12.099
 1412SOL    HW2 4779   1.743   0.177  12.116
 1413SOL     OW 4780   0.263   0.326  11.892
 1413SOL    HW1 4781   0.184   0.377  11.858
 1413SOL    HW2 4782   0.254   0.311  11.990
 1414SOL     OW 4783   1.194   1.612  11.203
 1414SOL    HW1 4784   1.200   1.519  11.240
 1414SOL    HW2 4785   1.135   1.612  11.123
 1415SOL     OW 4786   0.822   1.002  12.544
 1415SOL    HW1 4787   0.862   1.001  12.452
 1415SOL    HW2 4788   0.832   1.094  12.584
 1416SOL     OW 4789   0.916   0.910  11.463
 1416SOL    HW1 4790   0.979   0.948  11.395
 1416SOL    HW2 4791   0.956   0.827  11.502
 1417SOL     OW 4792   1.504   1.607  11.216
 1417SOL    HW1 4793   1.412   1.644  11.223
 1417SOL    HW2 4794   1.542   1.627  11.126
 1418SOL     OW 4795   0.372   1.288  12.662
 1418SOL    HW1 4796   0.359   1.381  12.628
 1418SOL    HW2 4797   0.288   1.236  12.649
 1419SOL     OW 4798   1.614   1.292  12.461
 1419SOL    HW1 4799   1.674   1.295  12.541
 1419SOL    HW2 4800   1.539   1.356  12.474
 1420SOL     OW 4801   1.039   1.098  11.868
 1420SOL    HW1 4802   0.969   1.051  11.922
 1420SOL    HW2 4803   1.098   1.030  11.825
 1421SOL     OW 4804   1.014   0.236  12.143
 1421SOL    HW1 4805   1.006   0.200  12.050
 1421SOL    HW2 4806   1.012   0.160  12.208
 1422SOL     OW 4807   0.590   1.487  11.663
 1422SOL    HW1 4808   0.632   1.429  11.593
 1422SOL    HW2 4809   0.546   1.566  11.619
 1423SOL     OW 4810   1.709   0.385  12.553
 1423SOL    HW1 4811   1.782   0.454  12.557
 1423SOL    HW2 4812   1.737   0.310  12.494
 1424SOL     OW 4813   0.255   1.348  11.462
 1424SOL    HW1 4814   0.159   1.349  11.435
 1424SOL    HW2 4815   0.267   1.401  11.546
 1425SOL     OW 4816   0.105   1.013  12.898
 1425SOL    HW1 4817   0.028   0.980  12.952
 1425SOL    HW2 4818   0.190   0.983  12.940
 1426SOL     OW 4819   0.672   0.203  12.661
 1426SOL    HW1 4820   0.762   0.187  12.621
 1426SOL    HW2 4821   0.680   0.208  12.760
 1427SOL     OW 4822   0.075   0.345  11.205
 1427SOL    HW1 4823  -0.017   0.317  11.176
 1427SOL    HW2 4824   0.106   0.422  11.149
 1428SOL     OW 4825   1.440   0.856  12.570
 1428SOL    HW1 4826   1.383   0.908  12.507
 1428SOL    HW2 4827   1.536   0.868  12.546
 1429SOL     OW 4828   0.072   0.166  11.490
 1429SOL    HW1 4829   0.055   0.249  11.436
 1429SOL    HW2 4830   0.162   0.129  11.468
 1430SOL     OW 4831   1.183   1.335  11.291
 1430SOL    HW1 4832   1.084   1.324  11.293
 1430SOL    HW2 4833   1.217   1.350  11.384
 1431SOL     OW 4834   0.613   0.842  12.603
 1431SOL    HW1 4835   0.669   0.923  12.586
 1431SOL    HW2 4836   0.672   0.762  12.606
 1432SOL     OW 4837   1.493   1.767  12.131
 1432SOL    HW1 4838   1.526   1.831  12.062
 1432SOL    HW2 4839   1.559   1.761  12.206
 1433SOL     OW 4840   0.716   0.565  12.880
 1433SOL    HW1 4841   0.735   0.630  12.954
 1433SOL    HW2 4842   0.776   0.485  12.889
 1434SOL     OW 4843   1.450   1.220  12.805
 1434SOL    HW1 4844   1.441   1.210  12.904
 1434SOL    HW2 4845   1.546   1.213  12.779
 1435SOL     OW 4846   0.390   1.741  12.732
 1435SOL    HW1 4847   0.299   1.782  12.730
 1435SOL    HW2 4848   0.383   1.647  12.764
 1436SOL     OW 4849   1.674   0.883  12.426
 1436SOL    HW1 4850   1.647   0.794  12.389
 1436SOL    HW2 4851   1.675   0.951  12.353
 1437SOL     OW 4852   1.225   0.325  11.621
 1437SOL    HW1 4853   1.290   0.251  11.610
 1437SOL    HW2 4854   1.245   0.375  11.705
 1438SOL     OW 4855   0.594   0.745  11.824
 1438SOL    HW1 4856   0.644   0.830  11.805
 1438SOL    HW2 4857   0.506   0.747  11.776
 1439SOL     OW 4858   1.777   0.342  12.814
 1439SOL    HW1 4859   1.760   0.373  12.720
 1439SOL    HW2 4860   1.693   0.305  12.852
 1440SOL     OW 4861   1.730   0.934  12.689
 1440SOL    HW1 4862   1.768   1.025  12.704
 1440SOL    HW2 4863   1.722   0.917  12.590
 1441SOL     OW 4864   0.859   1.374  11.188
 1441SOL    HW1 4865   0.813   1.389  11.276
 1441SOL    HW2 4866   0.903   1.459  11.158
 1442SOL     OW 4867   0.661   1.790  12.125
 1442SOL    HW1 4868   0.615   1.878  12.112
 1442SOL    HW2 4869   0.760   1.802  12.118
 1443SOL     OW 4870   0.859   0.956  12.033
 1443SOL    HW1 4871   0.913   0.887  12.081
 1443SOL    HW2 4872   0.827   1.025  12.099
 1444SOL     OW 4873   1.083   0.984  11.259
 1444SOL    HW1 4874   1.060   1.037  11.177
 1444SOL    HW2 4875   1.164   0.928  11.240
 1445SOL     OW 4876   1.861   1.569  12.023
 1445SOL    HW1 4877   1.790   1.557  11.953
 1445SOL    HW2 4878   1.862   1.490  12.083
 1446SOL     OW 4879   0.221   1.314  13.016
 1446SOL    HW1 4880   0.156   1.241  12.995
 1446SOL    HW2 4881   0.225   1.328  13.114
 1447SOL     OW 4882   0.079   1.240  11.825
 1447SOL    HW1 4883   0.078   1.193  11.913
 1447SOL    HW2 4884   0.161   1.212  11.774
 1448SOL     OW 4885   0.672   1.391  12.796
 1448SOL    HW1 4886   0.594   1.341  12.834
 1448SOL    HW2 4887   0.669   1.486  12.827
 1449SOL     OW 4888   1.824   0.192  12.399
 1449SOL    HW1 4889   1.820   0.102  12.443
 1449SOL    HW2 4890   1.827   0.181  12.300
 1450SOL     OW 4891   0.428   0.424  11.692
 1450SOL    HW1 4892   0.458   0.352  11.630
 1450SOL    HW2 4893   0.389   0.384  11.775
 1451SOL     OW 4894   1.705   1.487  12.276
 1451SOL    HW1 4895   1.612   1.462  12.249
 1451SOL    HW2 4896   1.731   1.437  12.358
 1452SOL     OW 4897   0.317   0.547  12.452
 1452SOL    HW1 4898   0.355   0.488  12.524
 1452SOL    HW2 4899   0.357   0.521  12.364
 1453SOL     OW 4900   0.812   1.586  11.859
 1453SOL    HW1 4901   0.844   1.596  11.765
 1453SOL    HW2 4902   0.733   1.524  11.861
 1454SOL     OW 4903   1.424   0.214  12.284
 1454SOL    HW1 4904   1.476   0.149  12.339
 1454SOL    HW2 4905   1.375   0.277  12.345
 1455SOL     OW 4906   1.001   0.034  12.326
 1455SOL    HW1 4907   0.938  -0.038  12.295
 1455SOL    HW2 4908   1.094  -0.002  12.326
 1456SOL     OW 4909   0.770   1.330  11.473
 1456SOL    HW1 4910   0.724   1.243  11.490
 1456SOL    HW2 4911   0.861   1.327  11.514
 1457SOL     OW 4912   0.618   1.567  12.456
 1457SOL    HW1 4913   0.613   1.649  12.513
 1457SOL    HW2 4914   0.707   1.564  12.411
 1458SOL     OW 4915   1.352   0.052  11.340
 1458SOL    HW1 4916   1.387   0.011  11.256
 1458SOL    HW2 4917   1.262   0.014  11.360
 1459SOL     OW 4918   1.300   0.453  11.863
 1459SOL    HW1 4919   1.241   0.533  11.867
 1459SOL    HW2 4920   1.315   0.418  11.956
 1460SOL     OW 4921   1.593   0.221  12.054
 1460SOL    HW1 4922   1.509   0.220  12.108
 1460SOL    HW2 4923   1.595   0.304  11.998
 1461SOL     OW 4924   0.039   1.077  11.472
 1461SOL    HW1 4925   0.138   1.066  11.463
 1461SOL    HW2 4926  -0.001   0.991  11.504
 1462SOL     OW 4927   0.875   1.646  11.509
 1462SOL    HW1 4928   0.798   1.611  11.455
 1462SOL    HW2 4929   0.843   1.717  11.571
 1463SOL     OW 4930   0.230   0.628  13.147
 1463SOL    HW1 4931   0.137   0.626  13.184
 1463SOL    HW2 4932   0.231   0.589  13.055
 1464SOL     OW 4933   0.225   0.275  14.030
 1464SOL    HW1 4934   0.260   0.258  14.122
 1464SOL    HW2 4935   0.137   0.230  14.018
 1465SOL     OW 4936   0.019   0.368  13.681
 1465SOL    HW1 4937  -0.063   0.411  13.720
 1465SOL    HW2 4938  -0.009   0.295  13.618
 1466SOL     OW 4939   1.555   1.511  13.737
 1466SOL    HW1 4940   1.498   1.495  13.818
 1466SOL    HW2 4941   1.496   1.521  13.657
 1467SOL     OW 4942   1.135   0.703  13.751
 1467SOL    HW1 4943   1.192   0.781  13.726
 1467SOL    HW2 4944   1.075   0.729  13.827
 1468SOL     OW 4945   1.755   0.607  13.265
 1468SOL    HW1 4946   1.743   0.594  13.166
 1468SOL    HW2 4947   1.725   0.526  13.314
 1469SOL     OW 4948   0.685   1.012  13.699
 1469SOL    HW1 4949   0.754   0.996  13.769
 1469SOL    HW2 4950   0.612   1.069  13.737
 1470SOL     OW 4951   1.603   0.447  13.771
 1470SOL    HW1 4952   1.529   0.493  13.721
 1470SOL    HW2 4953   1.654   0.515  13.824
 1471SOL     OW 4954   0.231   1.713  13.517
 1471SOL    HW1 4955   0.265   1.790  13.571
 1471SOL    HW2 4956   0.275   1.713  13.427
 1472SOL     OW 4957   0.230   1.434  13.572
 1472SOL    HW1 4958   0.204   1.530  13.572
 1472SOL    HW2 4959   0.159   1.380  13.617
 1473SOL     OW 4960   0.240   1.091  13.920
 1473SOL    HW1 4961   0.254   1.007  13.972
 1473SOL    HW2 4962   0.185   1.155  13.975
 1474SOL     OW 4963   0.606   0.964  13.157
 1474SOL    HW1 4964   0.613   1.048  13.103
 1474SOL    HW2 4965   0.652   0.977  13.245
 1475SOL     OW 4966   0.122   0.643  13.597
 1475SOL    HW1 4967   0.077   0.555  13.614
 1475SOL    HW2 4968   0.121   0.697  13.681
 1476SOL     OW 4969   0.027   1.596  13.151
 1476SOL    HW1 4970   0.008   1.500  13.172
 1476SOL    HW2 4971  -0.006   1.654  13.226
 1477SOL     OW 4972   1.689   0.922  13.646
 1477SOL    HW1 4973   1.784   0.893  13.654
 1477SOL    HW2 4974   1.681   0.987  13.571
 1478SOL     OW 4975   1.641   1.108  13.466
 1478SOL    HW1 4976   1.727   1.110  13.414
 1478SOL    HW2 4977   1.655   1.155  13.554
 1479SOL     OW 4978   0.613   1.365  13.760
 1479SOL    HW1 4979   0.564   1.278  13.769
 1479SOL    HW2 4980   0.590   1.408  13.673
 1480SOL     OW 4981   0.809   0.004  13.536
 1480SOL    HW1 4982   0.849   0.095  13.527
 1480SOL    HW2 4983   0.709   0.012  13.542
 1481SOL     OW 4984   1.525   0.999  13.224
 1481SOL    HW1 4985   1.462   0.923  13.237
 1481SOL    HW2 4986   1.573   1.017  13.310
 1482SOL     OW 4987   1.667   1.714  13.606
 1482SOL    HW1 4988   1.626   1.691  13.518
 1482SOL    HW2 4989   1.649   1.640  13.671
 1483SOL     OW 4990   0.598   0.729  13.304
 1483SOL    HW1 4991   0.622   0.798  13.236
 1483SOL    HW2 4992   0.520   0.762  13.358
 1484SOL     OW 4993   1.281   0.345  13.978
 1484SOL    HW1 4994   1.195   0.295  13.965
 1484SOL    HW2 4995   1.343   0.291  14.034
 1485SOL     OW 4996   1.576   1.662  13.341
 1485SOL    HW1 4997   1.665   1.708  13.344
 1485SOL    HW2 4998   1.555   1.638  13.246
 1486SOL     OW 4999   1.041   0.701  13.463
 1486SOL    HW1 5000   1.067   0.697  13.559
 1486SOL    HW2 5001   0.956   0.650  13.449
 1487SOL     OW 5002   0.076   0.811  13.823
 1487SOL    HW1 5003   0.175   0.799  13.832
 1487SOL    HW2 5004   0.052   0.906  13.844
 1488SOL     OW 5005   0.865   0.348  13.229
 1488SOL    HW1 5006   0.924   0.411  13.180
 1488SOL    HW2 5007   0.884   0.254  13.200
 1489SOL     OW 5008   1.362   1.144  13.579
 1489SOL    HW1 5009   1.445   1.115  13.531
 1489SOL    HW2 5010   1.313   1.211  13.523
 1490SOL     OW 5011   1.008   1.456  13.511
 1490SOL    HW1 5012   0.962   1.528  13.459
 1490SOL    HW2 5013   1.004   1.476  13.609
 1491SOL     OW 5014   0.351   1.801  13.887
 1491SOL    HW1 5015   0.401   1.715  13.893
 1491SOL    HW2 5016   0.416   1.878  13.884
 1492SOL     OW 5017   1.795   1.066  13.907
 1492SOL    HW1 5018   1.733   1.051  13.831
 1492SOL    HW2 5019   1.743   1.077  13.992
 1493SOL     OW 5020   0.321   0.943  13.276
 1493SOL    HW1 5021   0.403   0.982  13.234
 1493SOL    HW2 5022   0.294   0.861  13.227
 1494SOL     OW 5023   1.458   0.735  13.762
 1494SOL    HW1 5024   1.453   0.670  13.837
 1494SOL    HW2 5025   1.538   0.794  13.775
 1495SOL     OW 5026   1.111   1.776  13.271
 1495SOL    HW1 5027   1.051   1.714  13.321
 1495SOL    HW2 5028   1.142   1.732  13.186
 1496SOL     OW 5029   1.632   1.377  13.115
 1496SOL    HW1 5030   1.600   1.471  13.105
 1496SOL    HW2 5031   1.556   1.314  13.103
 1497SOL     OW 5032   0.464   1.743  13.357
 1497SOL    HW1 5033   0.497   1.782  13.443
 1497SOL    HW2 5034   0.540   1.736  13.292
 1498SOL     OW 5035   1.400   0.107  13.460
 1498SOL    HW1 5036   1.376   0.070  13.370
 1498SOL    HW2 5037   1.499   0.123  13.464
 1499SOL     OW 5038   0.940   1.698  13.938
 1499SOL    HW1 5039   1.020   1.641  13.959
 1499SOL    HW2 5040   0.891   1.658  13.861
 1500SOL     OW 5041   0.382   0.700  13.514
 1500SOL    HW1 5042   0.427   0.610  13.511
 1500SOL    HW2 5043   0.288   0.689  13.547
 1501SOL     OW 5044   0.614   0.122  13.151
 1501SOL    HW1 5045   0.712   0.100  13.158
 1501SOL    HW2 5046   0.583   0.105  13.058
 1502SOL     OW 5047   0.539   0.064  13.546
 1502SOL    HW1 5048   0.458   0.065  13.604
 1502SOL    HW2 5049   0.542   0.147  13.491
 1503SOL     OW 5050   1.434   1.188  13.075
 1503SOL    HW1 5051   1.466   1.112  13.132
 1503SOL    HW2 5052   1.342   1.215  13.105
 1504SOL     OW 5053   0.297   0.035  13.205
 1504SOL    HW1 5054   0.346   0.119  13.184
 1504SOL    HW2 5055   0.359  -0.030  13.250
 1505SOL     OW 5056   0.935   0.236  13.514
 1505SOL    HW1 5057   0.887   0.277  13.436
 1505SOL    HW2 5058   1.034   0.234  13.495
 1506SOL     OW 5059   0.459   1.152  13.775
 1506SOL    HW1 5060   0.388   1.125  13.840
 1506SOL    HW2 5061   0.433   1.124  13.682
 1507SOL     OW 5062   1.271   1.797  13.625
 1507SOL    HW1 5063   1.315   1.861  13.561
 1507SOL    HW2 5064   1.221   1.849  13.695
 1508SOL     OW 5065   1.032   0.549  13.050
 1508SOL    HW1 5066   0.991   0.631  13.011
 1508SOL    HW2 5067   1.096   0.575  13.123
 1509SOL     OW 5068   0.866   0.454  13.676
 1509SOL    HW1 5069   0.834   0.526  13.614
 1509SOL    HW2 5070   0.890   0.373  13.623
 1510SOL     OW 5071   1.017   0.039  13.787
 1510SOL    HW1 5072   0.945   0.044  13.718
 1510SOL    HW2 5073   0.993  -0.030  13.856
 1511SOL     OW 5074   1.857   0.833  13.411
 1511SOL    HW1 5075   1.899   0.769  13.475
 1511SOL    HW2 5076   1.819   0.782  13.333
 1512SOL     OW 5077   0.488   1.385  13.208
 1512SOL    HW1 5078   0.401   1.370  13.255
 1512SOL    HW2 5079   0.471   1.411  13.113
 1513SOL     OW 5080   1.664   1.280  13.691
 1513SOL    HW1 5081   1.763   1.288  13.705
 1513SOL    HW2 5082   1.619   1.364  13.722
 1514SOL     OW 5083   1.390   0.575  13.112
 1514SOL    HW1 5084   1.336   0.554  13.193
 1514SOL    HW2 5085   1.481   0.534  13.121
 1515SOL     OW 5086   0.527   0.256  13.362
 1515SOL    HW1 5087   0.554   0.197  13.287
 1515SOL    HW2 5088   0.527   0.351  13.331
 1516SOL     OW 5089   0.705   1.050  13.402
 1516SOL    HW1 5090   0.691   1.057  13.501
 1516SOL    HW2 5091   0.789   0.999  13.384
 1517SOL     OW 5092   0.367   1.100  13.535
 1517SOL    HW1 5093   0.360   1.183  13.479
 1517SOL    HW2 5094   0.371   1.020  13.475
 1518SOL     OW 5095   0.566   0.537  13.899
 1518SOL    HW1 5096   0.578   0.603  13.825
 1518SOL    HW2 5097   0.612   0.571  13.982
 1519SOL     OW 5098   1.252   1.348  13.422
 1519SOL    HW1 5099   1.302   1.425  13.462
 1519SOL    HW2 5100   1.157   1.350  13.454
 1520SOL     OW 5101   1.582   0.639  13.506
 1520SOL    HW1 5102   1.551   0.700  13.579
 1520SOL    HW2 5103   1.632   0.691  13.437
 1521SOL     OW 5104   1.209   0.525  13.309
 1521SOL    HW1 5105   1.222   0.441  13.363
 1521SOL    HW2 5106   1.180   0.599  13.369
 1522SOL     OW 5107   0.307   0.063  13.652
 1522SOL    HW1 5108   0.296   0.157  13.685
 1522SOL    HW2 5109   0.302   0.000  13.729
 1523SOL     OW 5110   1.622   0.367  13.408
 1523SOL    HW1 5111   1.624   0.291  13.472
 1523SOL    HW2 5112   1.574   0.444  13.448
 1524SOL     OW 5113   1.540   0.274  13.159
 1524SOL    HW1 5114   1.479   0.199  13.182
 1524SOL    HW2 5115   1.562   0.326  13.242
 1525SOL     OW 5116   1.303   0.838  13.076
 1525SOL    HW1 5117   1.337   0.745  13.091
 1525SOL    HW2 5118   1.321   0.865  12.981
 1526SOL     OW 5119   0.008   1.326  13.234
 1526SOL    HW1 5120  -0.085   1.347  13.203
 1526SOL    HW2 5121   0.018   1.227  13.247
 1527SOL     OW 5122   0.815   0.572  13.359
 1527SOL    HW1 5123   0.822   0.483  13.313
 1527SOL    HW2 5124   0.721   0.606  13.351
 1528SOL     OW 5125   0.473   0.500  13.225
 1528SOL    HW1 5126   0.534   0.580  13.229
 1528SOL    HW2 5127   0.378   0.531  13.232
 1529SOL     OW 5128   1.302   0.855  13.343
 1529SOL    HW1 5129   1.216   0.824  13.385
 1529SOL    HW2 5130   1.298   0.841  13.244
 1530SOL     OW 5131   1.726   0.135  13.557
 1530SOL    HW1 5132   1.799   0.118  13.490
 1530SOL    HW2 5133   1.695   0.048  13.595
 1531SOL     OW 5134   1.388   1.573  13.511
 1531SOL    HW1 5135   1.455   1.585  13.437
 1531SOL    HW2 5136   1.348   1.662  13.534
 1532SOL     OW 5137   1.280   0.927  13.706
 1532SOL    HW1 5138   1.340   0.846  13.708
 1532SOL    HW2 5139   1.320   0.996  13.646
 1533SOL     OW 5140   0.672   1.616  13.188
 1533SOL    HW1 5141   0.681   1.626  13.089
 1533SOL    HW2 5142   0.632   1.527  13.209
 1534SOL     OW 5143   1.841   0.175  13.997
 1534SOL    HW1 5144   1.880   0.090  13.961
 1534SOL    HW2 5145   1.743   0.177  13.978
 1535SOL     OW 5146   0.263   0.326  13.754
 1535SOL    HW1 5147   0.184   0.377  13.720
 1535SOL    HW2 5148   0.254   0.311  13.852
 1536SOL     OW 5149   1.194   1.612  13.065
 1536SOL    HW1 5150   1.200   1.519  13.102
 1536SOL    HW2 5151   1.135   1.612  12.985
 1537SOL     OW 5152   0.916   0.910  13.325
 1537SOL    HW1 5153   0.979   0.948  13.257
 1537SOL    HW2 5154   0.956   0.827  13.364
 1538SOL     OW 5155   1.504   1.607  13.078
 1538SOL    HW1 5156   1.412   1.644  13.085
 1538SOL    HW2 5157   1.542   1.627  12.988
 1539SOL     OW 5158   1.039   1.098  13.730
 1539SOL    HW1 5159   0.969   1.051  13.784
 1539SOL    HW2 5160   1.098   1.030  13.687
 1540SOL     OW 5161   0.590   1.487  13.525
 1540SOL    HW1 5162   0.632   1.429  13.455
 1540SOL    HW2 5163   0.546   1.566  13.481
 1541SOL     OW 5164   0.255   1.348  13.324
 1541SOL    HW1 5165   0.159   1.349  13.297
 1541SOL    HW2 5166   0.267   1.401  13.408
 1542SOL     OW 5167   0.075   0.345  13.067
 1542SOL    HW1 5168  -0.017   0.317  13.038
 1542SOL    HW2 5169   0.106   0.422  13.011
 1543SOL     OW 5170   0.072   0.166  13.352
 1543SOL    HW1 5171   0.055   0.249  13.298
 1543SOL    HW2 5172   0.162   0.129  13.330
 1544SOL     OW 5173   1.183   1.335  13.153
 1544SOL    HW1 5174   1.084   1.324  13.155
 1544SOL    HW2 5175   1.217   1.350  13.246
 1545SOL     OW 5176   1.225   0.325  13.483
 1545SOL    HW1 5177   1.290   0.251  13.472
 1545SOL    HW2 5178   1.245   0.375  13.567
 1546SOL     OW 5179   0.594   0.745  13.686
 1546SOL    HW1 5180   0.644   0.830  13.667
 1546SOL    HW2 5181   0.506   0.747  13.638
 1547SOL     OW 5182   0.859   1.374  13.050
 1547SOL    HW1 5183   0.813   1.389  13.138
 1547SOL    HW2 5184   0.903   1.459  13.020
 1548SOL     OW 5185   0.661   1.790  13.987
 1548SOL    HW1 5186   0.615   1.878  13.974
 1548SOL    HW2 5187   0.760   1.802  13.980
 1549SOL     OW 5188   0.859   0.956  13.895
 1549SOL    HW1 5189   0.913   0.887  13.943
 1549SOL    HW2 5190   0.827   1.025  13.961
 1550SOL     OW 5191   1.083   0.984  13.121
 1550SOL    HW1 5192   1.060   1.037  13.039
 1550SOL    HW2 5193   1.164   0.928  13.102
 1551SOL     OW 5194   0.079   1.240  13.687
 1551SOL    HW1 5195   0.078   1.193  13.775
 1551SOL    HW2 5196   0.161   1.212  13.636
 1552SOL     OW 5197   0.428   0.424  13.554
 1552SOL    HW1 5198   0.458   0.352  13.492
 1552SOL    HW2 5199   0.389   0.384  13.637
 1553SOL     OW 5200   1.705   1.487  14.138
 1553SOL    HW1 5201   1.612   1.462  14.111
 1553SOL    HW2 5202   1.731   1.437  14.220
 1554SOL     OW 5203   0.812   1.586  13.721
 1554SOL    HW1 5204   0.844   1.596  13.627
 1554SOL    HW2 5205   0.733   1.524  13.723
 1555SOL     OW 5206   0.770   1.330  13.335
 1555SOL    HW1 5207   0.724   1.243  13.352
 1555SOL    HW2 5208   0.861   1.327  13.376
 1556SOL     OW 5209   1.352   0.052  13.202
 1556SOL    HW1 5210   1.387   0.011  13.118
 1556SOL    HW2 5211   1.262   0.014  13.222
 1557SOL     OW 5212   1.300   0.453  13.725
 1557SOL    HW1 5213   1.241   0.533  13.729
 1557SOL    HW2 5214   1.315   0.418  13.818
 1558SOL     OW 5215   0.039   1.077  13.334
 1558SOL    HW1 5216   0.138   1.066  13.325
 1558SOL    HW2 5217  -0.001   0.991  13.366
 1559SOL     OW 5218   0.875   1.646  13.371
 1559SOL    HW1 5219   0.798   1.611  13.317
 1559SOL    HW2 5220   0.843   1.717  13.433
 1560SOL     OW 5221   0.230   2.490   0.113
 1560SOL    HW1 5222   0.137   2.488   0.150
 1560SOL    HW2 5223   0.231   2.451   0.021
 1561SOL     OW 5224   0.225   2.137   0.996
 1561SOL    HW1 5225   0.260   2.120   1.088
 1561SOL    HW2 5226   0.137   2.092   0.984
 1562SOL     OW 5227   0.019   2.230   0.647
 1562SOL    HW1 5228  -0.063   2.273   0.686
 1562SOL    HW2 5229  -0.009   2.157   0.584
 1563SOL     OW 5230   0.569   3.137   1.165
 1563SOL    HW1 5231   0.476   3.130   1.128
 1563SOL    HW2 5232   0.580   3.226   1.209
 1564SOL     OW 5233   1.555   3.373   0.703
 1564SOL    HW1 5234   1.498   3.357   0.784
 1564SOL    HW2 5235   1.496   3.383   0.623
 1565SOL     OW 5236   1.135   2.565   0.717
 1565SOL    HW1 5237   1.192   2.643   0.692
 1565SOL    HW2 5238   1.075   2.591   0.793
 1566SOL     OW 5239   1.755   2.469   0.231
 1566SOL    HW1 5240   1.743   2.456   0.132
 1566SOL    HW2 5241   1.725   2.388   0.280
 1567SOL     OW 5242   0.768   3.006   1.023
 1567SOL    HW1 5243   0.690   3.023   1.083
 1567SOL    HW2 5244   0.802   3.093   0.987
 1568SOL     OW 5245   0.850   2.660   1.823
 1568SOL    HW1 5246   0.846   2.736   1.888
 1568SOL    HW2 5247   0.872   2.696   1.732
 1569SOL     OW 5248   0.685   2.874   0.665
 1569SOL    HW1 5249   0.754   2.858   0.735
 1569SOL    HW2 5250   0.612   2.931   0.703
 1570SOL     OW 5251   0.686   3.023   1.803
 1570SOL    HW1 5252   0.746   3.102   1.817
 1570SOL    HW2 5253   0.600   3.054   1.762
 1571SOL     OW 5254   0.335   3.297   1.061
 1571SOL    HW1 5255   0.257   3.266   1.008
 1571SOL    HW2 5256   0.393   3.355   1.004
 1572SOL     OW 5257   1.460   3.367   1.339
 1572SOL    HW1 5258   1.484   3.461   1.365
 1572SOL    HW2 5259   1.444   3.313   1.421
 1573SOL     OW 5260   0.438   2.254   1.499
 1573SOL    HW1 5261   0.520   2.198   1.508
 1573SOL    HW2 5262   0.357   2.196   1.503
 1574SOL     OW 5263   1.603   2.309   0.737
 1574SOL    HW1 5264   1.529   2.355   0.687
 1574SOL    HW2 5265   1.654   2.377   0.790
 1575SOL     OW 5266   0.231   3.575   0.483
 1575SOL    HW1 5267   0.265   3.652   0.537
 1575SOL    HW2 5268   0.275   3.575   0.393
 1576SOL     OW 5269   1.127   3.203   1.690
 1576SOL    HW1 5270   1.174   3.203   1.778
 1576SOL    HW2 5271   1.079   3.116   1.679
 1577SOL     OW 5272   0.230   3.296   0.538
 1577SOL    HW1 5273   0.204   3.392   0.538
 1577SOL    HW2 5274   0.159   3.242   0.583
 1578SOL     OW 5275   0.240   2.953   0.886
 1578SOL    HW1 5276   0.254   2.869   0.938
 1578SOL    HW2 5277   0.185   3.017   0.941
 1579SOL     OW 5278   0.620   3.648   1.439
 1579SOL    HW1 5279   0.528   3.631   1.474
 1579SOL    HW2 5280   0.648   3.740   1.465
 1580SOL     OW 5281   0.606   2.826   0.123
 1580SOL    HW1 5282   0.613   2.910   0.069
 1580SOL    HW2 5283   0.652   2.839   0.211
 1581SOL     OW 5284   1.594   1.976   1.480
 1581SOL    HW1 5285   1.576   2.043   1.408
 1581SOL    HW2 5286   1.591   2.022   1.569
 1582SOL     OW 5287   0.122   2.505   0.563
 1582SOL    HW1 5288   0.077   2.417   0.580
 1582SOL    HW2 5289   0.121   2.559   0.647
 1583SOL     OW 5290   1.842   3.629   0.359
 1583SOL    HW1 5291   1.896   3.600   0.439
 1583SOL    HW2 5292   1.872   3.719   0.330
 1584SOL     OW 5293   0.027   3.458   0.117
 1584SOL    HW1 5294   0.008   3.362   0.138
 1584SOL    HW2 5295  -0.006   3.516   0.192
 1585SOL     OW 5296   1.689   2.784   0.612
 1585SOL    HW1 5297   1.784   2.755   0.620
 1585SOL    HW2 5298   1.681   2.849   0.537
 1586SOL     OW 5299   1.641   2.970   0.432
 1586SOL    HW1 5300   1.727   2.972   0.380
 1586SOL    HW2 5301   1.655   3.017   0.520
 1587SOL     OW 5302   0.113   2.599   1.597
 1587SOL    HW1 5303   0.201   2.586   1.642
 1587SOL    HW2 5304   0.100   2.696   1.575
 1588SOL     OW 5305   0.613   3.227   0.726
 1588SOL    HW1 5306   0.564   3.140   0.735
 1588SOL    HW2 5307   0.590   3.270   0.639
 1589SOL     OW 5308   1.293   3.090   1.423
 1589SOL    HW1 5309   1.330   3.017   1.365
 1589SOL    HW2 5310   1.345   3.095   1.508
 1590SOL     OW 5311   0.809   1.866   0.502
 1590SOL    HW1 5312   0.849   1.957   0.493
 1590SOL    HW2 5313   0.709   1.874   0.508
 1591SOL     OW 5314   0.197   2.838   1.264
 1591SOL    HW1 5315   0.286   2.793   1.250
 1591SOL    HW2 5316   0.124   2.773   1.245
 1592SOL     OW 5317   1.525   2.861   0.190
 1592SOL    HW1 5318   1.462   2.785   0.203
 1592SOL    HW2 5319   1.573   2.879   0.276
 1593SOL     OW 5320   1.187   3.654   1.616
 1593SOL    HW1 5321   1.211   3.714   1.540
 1593SOL    HW2 5322   1.194   3.559   1.586
 1594SOL     OW 5323   0.317   2.113   1.801
 1594SOL    HW1 5324   0.388   2.184   1.807
 1594SOL    HW2 5325   0.229   2.152   1.829
 1595SOL     OW 5326   1.466   3.279   0.953
 1595SOL    HW1 5327   1.407   3.285   1.033
 1595SOL    HW2 5328   1.451   3.191   0.907
 1596SOL     OW 5329   1.667   3.576   0.572
 1596SOL    HW1 5330   1.626   3.553   0.484
 1596SOL    HW2 5331   1.649   3.502   0.637
 1597SOL     OW 5332   0.598   2.591   0.270
 1597SOL    HW1 5333   0.622   2.660   0.202
 1597SOL    HW2 5334   0.520   2.624   0.324
 1598SOL     OW 5335   1.281   2.207   0.944
 1598SOL    HW1 5336   1.195   2.157   0.931
 1598SOL    HW2 5337   1.343   2.153   1.000
 1599SOL     OW 5338   1.576   3.524   0.307
 1599SOL    HW1 5339   1.665   3.570   0.310
 1599SOL    HW2 5340   1.555   3.500   0.212
 1600SOL     OW 5341   0.807   2.467   1.465
 1600SOL    HW1 5342   0.760   2.464   1.554
 1600SOL    HW2 5343   0.756   2.412   1.399
 1601SOL     OW 5344   1.394   2.331   1.674
 1601SOL    HW1 5345   1.374   2.374   1.762
 1601SOL    HW2 5346   1.472   2.269   1.683
 1602SOL     OW 5347   0.973   2.752   1.572
 1602SOL    HW1 5348   1.019   2.668   1.543
 1602SOL    HW2 5349   0.917   2.786   1.497
 1603SOL     OW 5350   0.991   2.272   1.242
 1603SOL    HW1 5351   0.914   2.306   1.296
 1603SOL    HW2 5352   0.957   2.221   1.163
 1604SOL     OW 5353   1.041   2.563   0.429
 1604SOL    HW1 5354   1.067   2.559   0.525
 1604SOL    HW2 5355   0.956   2.512   0.415
 1605SOL     OW 5356   0.076   2.673   0.789
 1605SOL    HW1 5357   0.175   2.661   0.798
 1605SOL    HW2 5358   0.052   2.768   0.810
 1606SOL     OW 5359   0.130   3.683   1.571
 1606SOL    HW1 5360   0.120   3.668   1.670
 1606SOL    HW2 5361   0.044   3.719   1.535
 1607SOL     OW 5362   0.865   2.210   0.195
 1607SOL    HW1 5363   0.924   2.273   0.146
 1607SOL    HW2 5364   0.884   2.116   0.166
 1608SOL     OW 5365   1.719   2.447   1.831
 1608SOL    HW1 5366   1.693   2.536   1.795
 1608SOL    HW2 5367   1.717   2.379   1.758
 1609SOL     OW 5368   1.362   3.006   0.545
 1609SOL    HW1 5369   1.445   2.977   0.497
 1609SOL    HW2 5370   1.313   3.073   0.489
 1610SOL     OW 5371   0.550   2.058   0.885
 1610SOL    HW1 5372   0.545   2.053   0.985
 1610SOL    HW2 5373   0.552   2.154   0.856
 1611SOL     OW 5374   1.008   3.318   0.477
 1611SOL    HW1 5375   0.962   3.390   0.425
 1611SOL    HW2 5376   1.004   3.338   0.575
 1612SOL     OW 5377   0.351   3.663   0.853
 1612SOL    HW1 5378   0.401   3.577   0.859
 1612SOL    HW2 5379   0.416   3.740   0.850
 1613SOL     OW 5380   1.795   2.928   0.873
 1613SOL    HW1 5381   1.733   2.913   0.797
 1613SOL    HW2 5382   1.743   2.939   0.958
 1614SOL     OW 5383   1.227   3.412   1.506
 1614SOL    HW1 5384   1.233   3.335   1.570
 1614SOL    HW2 5385   1.175   3.386   1.426
 1615SOL     OW 5386   0.321   2.805   0.242
 1615SOL    HW1 5387   0.403   2.844   0.200
 1615SOL    HW2 5388   0.294   2.723   0.193
 1616SOL     OW 5389   1.458   2.597   0.728
 1616SOL    HW1 5390   1.453   2.532   0.803
 1616SOL    HW2 5391   1.538   2.656   0.741
 1617SOL     OW 5392   0.461   3.128   1.727
 1617SOL    HW1 5393   0.411   3.129   1.641
 1617SOL    HW2 5394   0.398   3.110   1.803
 1618SOL     OW 5395   1.111   3.638   0.237
 1618SOL    HW1 5396   1.051   3.576   0.287
 1618SOL    HW2 5397   1.142   3.594   0.152
 1619SOL     OW 5398   0.202   2.147   1.498
 1619SOL    HW1 5399   0.122   2.207   1.485
 1619SOL    HW2 5400   0.192   2.098   1.584
 1620SOL     OW 5401   1.632   3.239   0.081
 1620SOL    HW1 5402   1.600   3.333   0.071
 1620SOL    HW2 5403   1.556   3.176   0.069
 1621SOL     OW 5404   0.464   3.605   0.323
 1621SOL    HW1 5405   0.497   3.644   0.409
 1621SOL    HW2 5406   0.540   3.598   0.258
 1622SOL     OW 5407   1.400   1.969   0.426
 1622SOL    HW1 5408   1.376   1.932   0.336
 1622SOL    HW2 5409   1.499   1.985   0.430
 1623SOL     OW 5410   0.249   3.647   1.241
 1623SOL    HW1 5411   0.306   3.582   1.291
 1623SOL    HW2 5412   0.233   3.614   1.148
 1624SOL     OW 5413   0.940   3.560   0.904
 1624SOL    HW1 5414   1.020   3.503   0.925
 1624SOL    HW2 5415   0.891   3.520   0.827
 1625SOL     OW 5416   0.382   2.562   0.480
 1625SOL    HW1 5417   0.427   2.472   0.477
 1625SOL    HW2 5418   0.288   2.551   0.513
 1626SOL     OW 5419   1.547   2.084   1.729
 1626SOL    HW1 5420   1.542   2.121   1.821
 1626SOL    HW2 5421   1.475   2.015   1.717
 1627SOL     OW 5422   0.781   2.126   1.749
 1627SOL    HW1 5423   0.848   2.065   1.792
 1627SOL    HW2 5424   0.708   2.145   1.814
 1628SOL     OW 5425   0.888   3.376   1.195
 1628SOL    HW1 5426   0.865   3.351   1.101
 1628SOL    HW2 5427   0.949   3.307   1.234
 1629SOL     OW 5428   1.351   2.452   1.433
 1629SOL    HW1 5429   1.379   2.409   1.518
 1629SOL    HW2 5430   1.376   2.548   1.434
 1630SOL     OW 5431   0.803   3.264   0.924
 1630SOL    HW1 5432   0.893   3.278   0.882
 1630SOL    HW2 5433   0.732   3.266   0.853
 1631SOL     OW 5434   0.922   2.365   0.899
 1631SOL    HW1 5435   0.897   2.356   0.803
 1631SOL    HW2 5436   0.970   2.283   0.930
 1632SOL     OW 5437   0.539   1.926   0.512
 1632SOL    HW1 5438   0.458   1.927   0.570
 1632SOL    HW2 5439   0.542   2.009   0.457
 1633SOL     OW 5440   1.434   3.050   0.041
 1633SOL    HW1 5441   1.466   2.974   0.098
 1633SOL    HW2 5442   1.342   3.077   0.071
 1634SOL     OW 5443   0.297   1.897   0.171
 1634SOL    HW1 5444   0.346   1.981   0.150
 1634SOL    HW2 5445   0.359   1.832   0.216
 1635SOL     OW 5446   0.935   2.098   0.480
 1635SOL    HW1 5447   0.887   2.139   0.402
 1635SOL    HW2 5448   1.034   2.096   0.461
 1636SOL     OW 5449   1.076   2.545   1.464
 1636SOL    HW1 5450   0.996   2.484   1.467
 1636SOL    HW2 5451   1.157   2.492   1.440
 1637SOL     OW 5452   1.227   3.432   0.793
 1637SOL    HW1 5453   1.248   3.506   0.728
 1637SOL    HW2 5454   1.295   3.432   0.866
 1638SOL     OW 5455   0.459   3.014   0.741
 1638SOL    HW1 5456   0.388   2.987   0.806
 1638SOL    HW2 5457   0.433   2.986   0.648
 1639SOL     OW 5458   1.271   3.659   0.591
 1639SOL    HW1 5459   1.315   3.723   0.527
 1639SOL    HW2 5460   1.221   3.711   0.661
 1640SOL     OW 5461   1.032   2.411   0.016
 1640SOL    HW1 5462   0.991   2.493  -0.023
 1640SOL    HW2 5463   1.096   2.437   0.089
 1641SOL     OW 5464   0.078   2.418   1.386
 1641SOL    HW1 5465   0.170   2.417   1.345
 1641SOL    HW2 5466   0.072   2.492   1.453
 1642SOL     OW 5467   0.561   2.084   1.147
 1642SOL    HW1 5468   0.599   2.000   1.184
 1642SOL    HW2 5469   0.473   2.103   1.191
 1643SOL     OW 5470   0.866   2.316   0.642
 1643SOL    HW1 5471   0.834   2.388   0.580
 1643SOL    HW2 5472   0.890   2.235   0.589
 1644SOL     OW 5473   1.017   1.901   0.753
 1644SOL    HW1 5474   0.945   1.906   0.684
 1644SOL    HW2 5475   0.993   1.832   0.822
 1645SOL     OW 5476   1.429   3.035   0.867
 1645SOL    HW1 5477   1.374   2.951   0.860
 1645SOL    HW2 5478   1.455   3.064   0.775
 1646SOL     OW 5479   1.466   2.452   0.992
 1646SOL    HW1 5480   1.436   2.357   0.999
 1646SOL    HW2 5481   1.539   2.468   1.058
 1647SOL     OW 5482   1.857   2.695   0.377
 1647SOL    HW1 5483   1.899   2.631   0.441
 1647SOL    HW2 5484   1.819   2.644   0.299
 1648SOL     OW 5485   0.488   3.247   0.174
 1648SOL    HW1 5486   0.401   3.232   0.221
 1648SOL    HW2 5487   0.471   3.273   0.079
 1649SOL     OW 5488   1.664   3.142   0.657
 1649SOL    HW1 5489   1.763   3.150   0.671
 1649SOL    HW2 5490   1.619   3.226   0.688
 1650SOL     OW 5491   1.390   2.437   0.078
 1650SOL    HW1 5492   1.336   2.416   0.159
 1650SOL    HW2 5493   1.481   2.396   0.087
 1651SOL     OW 5494   0.527   2.118   0.328
 1651SOL    HW1 5495   0.554   2.059   0.253
 1651SOL    HW2 5496   0.527   2.213   0.297
 1652SOL     OW 5497   1.754   3.085   1.588
 1652SOL    HW1 5498   1.845   3.046   1.575
 1652SOL    HW2 5499   1.762   3.181   1.612
 1653SOL     OW 5500   1.064   3.209   1.340
 1653SOL    HW1 5501   0.984   3.186   1.395
 1653SOL    HW2 5502   1.147   3.183   1.389
 1654SOL     OW 5503   1.592   3.491   1.625
 1654SOL    HW1 5504   1.619   3.525   1.535
 1654SOL    HW2 5505   1.671   3.453   1.671
 1655SOL     OW 5506   1.111   3.057   1.100
 1655SOL    HW1 5507   1.071   3.101   1.181
 1655SOL    HW2 5508   1.070   3.094   1.017
 1656SOL     OW 5509   1.638   2.961   1.079
 1656SOL    HW1 5510   1.643   3.042   1.138
 1656SOL    HW2 5511   1.552   2.963   1.028
 1657SOL     OW 5512   0.915   1.951   1.402
 1657SOL    HW1 5513   0.940   1.931   1.307
 1657SOL    HW2 5514   0.987   2.007   1.444
 1658SOL     OW 5515   0.980   2.978   1.719
 1658SOL    HW1 5516   0.881   2.984   1.729
 1658SOL    HW2 5517   1.003   2.898   1.663
 1659SOL     OW 5518   0.705   2.912   0.368
 1659SOL    HW1 5519   0.691   2.919   0.467
 1659SOL    HW2 5520   0.789   2.861   0.350
 1660SOL     OW 5521   0.410   2.675   1.251
 1660SOL    HW1 5522   0.496   2.687   1.301
 1660SOL    HW2 5523   0.368   2.588   1.278
 1661SOL     OW 5524   1.274   2.248   1.262
 1661SOL    HW1 5525   1.295   2.322   1.326
 1661SOL    HW2 5526   1.185   2.265   1.219
 1662SOL     OW 5527   0.064   3.426   1.331
 1662SOL    HW1 5528   0.018   3.508   1.297
 1662SOL    HW2 5529   0.162   3.445   1.340
 1663SOL     OW 5530   0.367   2.962   0.501
 1663SOL    HW1 5531   0.360   3.045   0.445
 1663SOL    HW2 5532   0.371   2.882   0.441
 1664SOL     OW 5533   0.566   2.399   0.865
 1664SOL    HW1 5534   0.578   2.465   0.791
 1664SOL    HW2 5535   0.612   2.433   0.948
 1665SOL     OW 5536   1.252   3.210   0.388
 1665SOL    HW1 5537   1.302   3.287   0.428
 1665SOL    HW2 5538   1.157   3.212   0.420
 1666SOL     OW 5539   1.272   3.307   1.142
 1666SOL    HW1 5540   1.319   3.320   1.229
 1666SOL    HW2 5541   1.206   3.233   1.151
 1667SOL     OW 5542   1.582   2.501   0.472
 1667SOL    HW1 5543   1.551   2.562   0.545
 1667SOL    HW2 5544   1.632   2.553   0.403
 1668SOL     OW 5545   0.354   3.372   1.329
 1668SOL    HW1 5546   0.333   3.328   1.242
 1668SOL    HW2 5547   0.451   3.398   1.332
 1669SOL     OW 5548   0.402   2.613   1.598
 1669SOL    HW1 5549   0.470   2.668   1.551
 1669SOL    HW2 5550   0.442   2.525   1.625
 1670SOL     OW 5551   1.587   2.641   1.670
 1670SOL    HW1 5552   1.495   2.679   1.665
 1670SOL    HW2 5553   1.647   2.688   1.605
 1671SOL     OW 5554   1.013   1.967   1.770
 1671SOL    HW1 5555   1.019   2.052   1.718
 1671SOL    HW2 5556   1.045   1.891   1.713
 1672SOL     OW 5557   0.504   1.912   1.740
 1672SOL    HW1 5558   0.462   1.855   1.670
 1672SOL    HW2 5559   0.438   1.981   1.772
 1673SOL     OW 5560   0.573   2.732   1.029
 1673SOL    HW1 5561   0.617   2.821   1.020
 1673SOL    HW2 5562   0.510   2.732   1.106
 1674SOL     OW 5563   1.360   2.724   1.045
 1674SOL    HW1 5564   1.285   2.724   0.979
 1674SOL    HW2 5565   1.397   2.632   1.054
 1675SOL     OW 5566   1.209   2.387   0.275
 1675SOL    HW1 5567   1.222   2.303   0.329
 1675SOL    HW2 5568   1.180   2.461   0.335
 1676SOL     OW 5569   0.307   2.075   1.231
 1676SOL    HW1 5570   0.284   2.112   1.321
 1676SOL    HW2 5571   0.277   1.980   1.225
 1677SOL     OW 5572   0.037   3.172   1.282
 1677SOL    HW1 5573   0.090   3.123   1.350
 1677SOL    HW2 5574   0.059   3.270   1.287
 1678SOL     OW 5575   0.732   2.496   1.064
 1678SOL    HW1 5576   0.791   2.470   0.988
 1678SOL    HW2 5577   0.704   2.592   1.053
 1679SOL     OW 5578   1.728   2.797   1.854
 1679SOL    HW1 5579   1.682   2.790   1.765
 1679SOL    HW2 5580   1.666   2.841   1.920
 1680SOL     OW 5581   0.307   1.925   0.618
 1680SOL    HW1 5582   0.296   2.019   0.651
 1680SOL    HW2 5583   0.302   1.862   0.695
 1681SOL     OW 5584   1.622   2.229   0.374
 1681SOL    HW1 5585   1.624   2.153   0.438
 1681SOL    HW2 5586   1.574   2.306   0.414
 1682SOL     OW 5587   1.023   2.628   0.966
 1682SOL    HW1 5588   1.038   2.649   1.062
 1682SOL    HW2 5589   0.993   2.533   0.957
 1683SOL     OW 5590   0.980   3.435   1.700
 1683SOL    HW1 5591   0.960   3.479   1.612
 1683SOL    HW2 5592   1.019   3.344   1.684
 1684SOL     OW 5593   1.859   3.380   1.605
 1684SOL    HW1 5594   1.873   3.407   1.510
 1684SOL    HW2 5595   1.942   3.402   1.658
 1685SOL     OW 5596   0.350   2.760   1.804
 1685SOL    HW1 5597   0.426   2.804   1.852
 1685SOL    HW2 5598   0.385   2.713   1.722
 1686SOL     OW 5599   1.540   2.136   0.125
 1686SOL    HW1 5600   1.479   2.061   0.148
 1686SOL    HW2 5601   1.562   2.188   0.208
 1687SOL     OW 5602   1.303   2.700   0.042
 1687SOL    HW1 5603   1.337   2.607   0.057
 1687SOL    HW2 5604   1.321   2.727  -0.053
 1688SOL     OW 5605   1.068   3.195   0.849
 1688SOL    HW1 5606   1.075   3.111   0.794
 1688SOL    HW2 5607   1.130   3.264   0.813
 1689SOL     OW 5608   0.319   2.672   0.949
 1689SOL    HW1 5609   0.412   2.708   0.954
 1689SOL    HW2 5610   0.313   2.587   1.001
 1690SOL     OW 5611   0.339   2.371   1.006
 1690SOL    HW1 5612   0.287   2.288   0.989
 1690SOL    HW2 5613   0.416   2.376   0.942
 1691SOL     OW 5614   1.138   2.242   1.678
 1691SOL    HW1 5615   1.093   2.305   1.742
 1691SOL    HW2 5616   1.231   2.273   1.661
 1692SOL     OW 5617   1.160   2.069   1.477
 1692SOL    HW1 5618   1.160   2.133   1.554
 1692SOL    HW2 5619   1.188   2.117   1.394
 1693SOL     OW 5620   0.008   3.188   0.200
 1693SOL    HW1 5621  -0.085   3.209   0.169
 1693SOL    HW2 5622   0.018   3.089   0.213
 1694SOL     OW 5623   0.088   3.663   0.927
 1694SOL    HW1 5624   0.046   3.577   0.900
 1694SOL    HW2 5625   0.182   3.666   0.893
 1695SOL     OW 5626   0.504   3.430   0.910
 1695SOL    HW1 5627   0.570   3.504   0.919
 1695SOL    HW2 5628   0.548   3.351   0.868
 1696SOL     OW 5629   1.002   2.658   1.238
 1696SOL    HW1 5630   1.043   2.626   1.324
 1696SOL    HW2 5631   0.906   2.631   1.235
 1697SOL     OW 5632   0.040   2.406   1.114
 1697SOL    HW1 5633   0.125   2.373   1.073
 1697SOL    HW2 5634   0.053   2.421   1.212
 1698SOL     OW 5635   0.189   2.382   1.722
 1698SOL    HW1 5636   0.248   2.342   1.652
 1698SOL    HW2 5637   0.131   2.453   1.681
 1699SOL     OW 5638   1.369   2.812   1.660
 1699SOL    HW1 5639   1.408   2.901   1.680
 1699SOL    HW2 5640   1.379   2.792   1.563
 1700SOL     OW 5641   0.815   2.434   0.325
 1700SOL    HW1 5642   0.822   2.345   0.279
 1700SOL    HW2 5643   0.721   2.468   0.317
 1701SOL     OW 5644   1.657   2.466   1.206
 1701SOL    HW1 5645   1.619   2.397   1.268
 1701SOL    HW2 5646   1.739   2.430   1.162
 1702SOL     OW 5647   0.252   3.426   1.744
 1702SOL    HW1 5648   0.222   3.483   1.820
 1702SOL    HW2 5649   0.245   3.329   1.770
 1703SOL     OW 5650   0.671   2.326   1.269
 1703SOL    HW1 5651   0.637   2.237   1.239
 1703SOL    HW2 5652   0.697   2.380   1.189
 1704SOL     OW 5653   0.930   3.540   1.465
 1704SOL    HW1 5654   0.906   3.522   1.370
 1704SOL    HW2 5655   0.960   3.634   1.475
 1705SOL     OW 5656   0.473   2.362   0.191
 1705SOL    HW1 5657   0.534   2.442   0.195
 1705SOL    HW2 5658   0.378   2.393   0.198
 1706SOL     OW 5659   0.159   2.999   1.466
 1706SOL    HW1 5660   0.181   2.938   1.542
 1706SOL    HW2 5661   0.169   2.950   1.380
 1707SOL     OW 5662   1.347   2.921   1.234
 1707SOL    HW1 5663   1.371   2.858   1.160
 1707SOL    HW2 5664   1.257   2.961   1.216
 1708SOL     OW 5665   1.302   2.717   0.309
 1708SOL    HW1 5666   1.216   2.686   0.351
 1708SOL    HW2 5667   1.298   2.703   0.210
 1709SOL     OW 5668   1.759   3.609   1.154
 1709SOL    HW1 5669   1.820   3.639   1.081
 1709SOL    HW2 5670   1.721   3.520   1.132
 1710SOL     OW 5671   1.252   3.593   1.128
 1710SOL    HW1 5672   1.336   3.598   1.074
 1710SOL    HW2 5673   1.229   3.497   1.146
 1711SOL     OW 5674   0.083   3.120   1.022
 1711SOL    HW1 5675   0.078   3.119   1.122
 1711SOL    HW2 5676   0.000   3.079   0.984
 1712SOL     OW 5677   0.688   3.524   1.716
 1712SOL    HW1 5678   0.632   3.605   1.725
 1712SOL    HW2 5679   0.740   3.528   1.630
 1713SOL     OW 5680   0.903   1.948   0.133
 1713SOL    HW1 5681   0.954   1.949   0.047
 1713SOL    HW2 5682   0.959   1.906   0.204
 1714SOL     OW 5683   1.388   3.435   0.477
 1714SOL    HW1 5684   1.455   3.447   0.403
 1714SOL    HW2 5685   1.348   3.524   0.500
 1715SOL     OW 5686   0.130   3.656   1.851
 1715SOL    HW1 5687   0.089   3.582   1.904
 1715SOL    HW2 5688   0.194   3.707   1.909
 1716SOL     OW 5689   1.280   2.789   0.672
 1716SOL    HW1 5690   1.340   2.708   0.674
 1716SOL    HW2 5691   1.320   2.858   0.612
 1717SOL     OW 5692   0.830   3.135   1.422
 1717SOL    HW1 5693   0.825   3.168   1.517
 1717SOL    HW2 5694   0.744   3.154   1.376
 1718SOL     OW 5695   0.672   3.478   0.154
 1718SOL    HW1 5696   0.681   3.488   0.055
 1718SOL    HW2 5697   0.632   3.389   0.175
 1719SOL     OW 5698   1.650   3.582   1.394
 1719SOL    HW1 5699   1.703   3.592   1.310
 1719SOL    HW2 5700   1.623   3.672   1.428
 1720SOL     OW 5701   0.263   2.188   0.720
 1720SOL    HW1 5702   0.184   2.239   0.686
 1720SOL    HW2 5703   0.254   2.173   0.818
 1721SOL     OW 5704   1.194   3.474   0.031
 1721SOL    HW1 5705   1.200   3.381   0.068
 1721SOL    HW2 5706   1.135   3.474  -0.049
 1722SOL     OW 5707   0.822   2.864   1.372
 1722SOL    HW1 5708   0.862   2.863   1.280
 1722SOL    HW2 5709   0.832   2.956   1.412
 1723SOL     OW 5710   0.916   2.772   0.291
 1723SOL    HW1 5711   0.979   2.810   0.223
 1723SOL    HW2 5712   0.956   2.689   0.330
 1724SOL     OW 5713   1.504   3.469   0.044
 1724SOL    HW1 5714   1.412   3.506   0.051
 1724SOL    HW2 5715   1.542   3.489  -0.046
 1725SOL     OW 5716   0.372   3.150   1.490
 1725SOL    HW1 5717   0.359   3.243   1.456
 1725SOL    HW2 5718   0.288   3.098   1.477
 1726SOL     OW 5719   1.614   3.154   1.289
 1726SOL    HW1 5720   1.674   3.157   1.369
 1726SOL    HW2 5721   1.539   3.218   1.302
 1727SOL     OW 5722   1.039   2.960   0.696
 1727SOL    HW1 5723   0.969   2.913   0.750
 1727SOL    HW2 5724   1.098   2.892   0.653
 1728SOL     OW 5725   1.014   2.098   0.971
 1728SOL    HW1 5726   1.006   2.062   0.878
 1728SOL    HW2 5727   1.012   2.022   1.036
 1729SOL     OW 5728   0.590   3.349   0.491
 1729SOL    HW1 5729   0.632   3.291   0.421
 1729SOL    HW2 5730   0.546   3.428   0.447
 1730SOL     OW 5731   1.709   2.247   1.381
 1730SOL    HW1 5732   1.782   2.316   1.385
 1730SOL    HW2 5733   1.737   2.172   1.322
 1731SOL     OW 5734   0.255   3.210   0.290
 1731SOL    HW1 5735   0.159   3.211   0.263
 1731SOL    HW2 5736   0.267   3.263   0.374
 1732SOL     OW 5737   0.105   2.875   1.726
 1732SOL    HW1 5738   0.028   2.842   1.780
 1732SOL    HW2 5739   0.190   2.845   1.768
 1733SOL     OW 5740   0.672   2.065   1.489
 1733SOL    HW1 5741   0.762   2.049   1.449
 1733SOL    HW2 5742   0.680   2.070   1.588
 1734SOL     OW 5743   0.075   2.207   0.033
 1734SOL    HW1 5744  -0.017   2.179   0.004
 1734SOL    HW2 5745   0.106   2.284  -0.023
 1735SOL     OW 5746   1.440   2.718   1.398
 1735SOL    HW1 5747   1.383   2.770   1.335
 1735SOL    HW2 5748   1.536   2.730   1.374
 1736SOL     OW 5749   0.072   2.028   0.318
 1736SOL    HW1 5750   0.055   2.111   0.264
 1736SOL    HW2 5751   0.162   1.991   0.296
 1737SOL     OW 5752   1.183   3.197   0.119
 1737SOL    HW1 5753   1.084   3.186   0.121
 1737SOL    HW2 5754   1.217   3.212   0.212
 1738SOL     OW 5755   0.613   2.704   1.431
 1738SOL    HW1 5756   0.669   2.785   1.414
 1738SOL    HW2 5757   0.672   2.624   1.434
 1739SOL     OW 5758   1.493   3.629   0.959
 1739SOL    HW1 5759   1.526   3.693   0.890
 1739SOL    HW2 5760   1.559   3.623   1.034
 1740SOL     OW 5761   0.716   2.427   1.708
 1740SOL    HW1 5762   0.735   2.492   1.782
 1740SOL    HW2 5763   0.776   2.347   1.717
 1741SOL     OW 5764   1.450   3.082   1.633
 1741SOL    HW1 5765   1.441   3.072   1.732
 1741SOL    HW2 5766   1.546   3.075   1.607
 1742SOL     OW 5767   0.390   3.603   1.560
 1742SOL    HW1 5768   0.299   3.644   1.558
 1742SOL    HW2 5769   0.383   3.509   1.592
 1743SOL     OW 5770   1.674   2.745   1.254
 1743SOL    HW1 5771   1.647   2.656   1.217
 1743SOL    HW2 5772   1.675   2.813   1.181
 1744SOL     OW 5773   1.225   2.187   0.449
 1744SOL    HW1 5774   1.290   2.113   0.438
 1744SOL    HW2 5775   1.245   2.237   0.533
 1745SOL     OW 5776   0.594   2.607   0.652
 1745SOL    HW1 5777   0.644   2.692   0.633
 1745SOL    HW2 5778   0.506   2.609   0.604
 1746SOL     OW 5779   1.777   2.204   1.642
 1746SOL    HW1 5780   1.760   2.235   1.548
 1746SOL    HW2 5781   1.693   2.167   1.680
 1747SOL     OW 5782   1.730   2.796   1.517
 1747SOL    HW1 5783   1.768   2.887   1.532
 1747SOL    HW2 5784   1.722   2.779   1.418
 1748SOL     OW 5785   0.859   3.236   0.016
 1748SOL    HW1 5786   0.813   3.251   0.104
 1748SOL    HW2 5787   0.903   3.321  -0.014
 1749SOL     OW 5788   0.661   3.652   0.953
 1749SOL    HW1 5789   0.615   3.740   0.940
 1749SOL    HW2 5790   0.760   3.664   0.946
 1750SOL     OW 5791   0.859   2.818   0.861
 1750SOL    HW1 5792   0.913   2.749   0.909
 1750SOL    HW2 5793   0.827   2.887   0.927
 1751SOL     OW 5794   1.083   2.846   0.087
 1751SOL    HW1 5795   1.060   2.899   0.005
 1751SOL    HW2 5796   1.164   2.790   0.068
 1752SOL     OW 5797   1.861   3.431   0.851
 1752SOL    HW1 5798   1.790   3.419   0.781
 1752SOL    HW2 5799   1.862   3.352   0.911
 1753SOL     OW 5800   0.221   3.176   1.844
 1753SOL    HW1 5801   0.156   3.103   1.823
 1753SOL    HW2 5802   0.225   3.190   1.942
 1754SOL     OW 5803   0.079   3.102   0.653
 1754SOL    HW1 5804   0.078   3.055   0.741
 1754SOL    HW2 5805   0.161   3.074   0.602
 1755SOL     OW 5806   0.672   3.253   1.624
 1755SOL    HW1 5807   0.594   3.203   1.662
 1755SOL    HW2 5808   0.669   3.348   1.655
 1756SOL     OW 5809   0.428   2.286   0.520
 1756SOL    HW1 5810   0.458   2.214   0.458
 1756SOL    HW2 5811   0.389   2.246   0.603
 1757SOL     OW 5812   1.705   3.349   1.104
 1757SOL    HW1 5813   1.612   3.324   1.077
 1757SOL    HW2 5814   1.731   3.299   1.186
 1758SOL     OW 5815   0.317   2.409   1.280
 1758SOL    HW1 5816   0.355   2.350   1.352
 1758SOL    HW2 5817   0.357   2.383   1.192
 1759SOL     OW 5818   0.812   3.448   0.687
 1759SOL    HW1 5819   0.844   3.458   0.593
 1759SOL    HW2 5820   0.733   3.386   0.689
 1760SOL     OW 5821   1.424   2.076   1.112
 1760SOL    HW1 5822   1.476   2.011   1.167
 1760SOL    HW2 5823   1.375   2.139   1.173
 1761SOL     OW 5824   1.001   1.896   1.154
 1761SOL    HW1 5825   0.938   1.824   1.123
 1761SOL    HW2 5826   1.094   1.860   1.154
 1762SOL     OW 5827   0.770   3.192   0.301
 1762SOL    HW1 5828   0.724   3.105   0.318
 1762SOL    HW2 5829   0.861   3.189   0.342
 1763SOL     OW 5830   0.618   3.429   1.284
 1763SOL    HW1 5831   0.613   3.511   1.341
 1763SOL    HW2 5832   0.707   3.426   1.239
 1764SOL     OW 5833   1.352   1.914   0.168
 1764SOL    HW1 5834   1.387   1.873   0.084
 1764SOL    HW2 5835   1.262   1.876   0.188
 1765SOL     OW 5836   1.300   2.315   0.691
 1765SOL    HW1 5837   1.241   2.395   0.695
 1765SOL    HW2 5838   1.315   2.280   0.784
 1766SOL     OW 5839   1.593   2.083   0.882
 1766SOL    HW1 5840   1.509   2.082   0.936
 1766SOL    HW2 5841   1.595   2.166   0.826
 1767SOL     OW 5842   0.039   2.939   0.300
 1767SOL    HW1 5843   0.138   2.928   0.291
 1767SOL    HW2 5844  -0.001   2.853   0.332
 1768SOL     OW 5845   0.875   3.508   0.337
 1768SOL    HW1 5846   0.798   3.473   0.283
 1768SOL    HW2 5847   0.843   3.579   0.399
 1769SOL     OW 5848   0.230   2.490   1.975
 1769SOL    HW1 5849   0.137   2.488   2.012
 1769SOL    HW2 5850   0.231   2.451   1.883
 1770SOL     OW 5851   0.225   2.137   2.858
 1770SOL    HW1 5852   0.260   2.120   2.950
 1770SOL    HW2 5853   0.137   2.092   2.846
 1771SOL     OW 5854   0.019   2.230   2.509
 1771SOL    HW1 5855  -0.063   2.273   2.548
 1771SOL    HW2 5856  -0.009   2.157   2.446
 1772SOL     OW 5857   0.569   3.137   3.027
 1772SOL    HW1 5858   0.476   3.130   2.990
 1772SOL    HW2 5859   0.580   3.226   3.071
 1773SOL     OW 5860   1.555   3.373   2.565
 1773SOL    HW1 5861   1.498   3.357   2.646
 1773SOL    HW2 5862   1.496   3.383   2.485
 1774SOL     OW 5863   1.135   2.565   2.579
 1774SOL    HW1 5864   1.192   2.643   2.554
 1774SOL    HW2 5865   1.075   2.591   2.655
 1775SOL     OW 5866   1.755   2.469   2.093
 1775SOL    HW1 5867   1.743   2.456   1.994
 1775SOL    HW2 5868   1.725   2.388   2.142
 1776SOL     OW 5869   0.768   3.006   2.885
 1776SOL    HW1 5870   0.690   3.023   2.945
 1776SOL    HW2 5871   0.802   3.093   2.849
 1777SOL     OW 5872   0.850   2.660   3.685
 1777SOL    HW1 5873   0.846   2.736   3.750
 1777SOL    HW2 5874   0.872   2.696   3.594
 1778SOL     OW 5875   0.685   2.874   2.527
 1778SOL    HW1 5876   0.754   2.858   2.597
 1778SOL    HW2 5877   0.612   2.931   2.565
 1779SOL     OW 5878   0.686   3.023   3.665
 1779SOL    HW1 5879   0.746   3.102   3.679
 1779SOL    HW2 5880   0.600   3.054   3.624
 1780SOL     OW 5881   0.335   3.297   2.923
 1780SOL    HW1 5882   0.257   3.266   2.870
 1780SOL    HW2 5883   0.393   3.355   2.866
 1781SOL     OW 5884   1.460   3.367   3.201
 1781SOL    HW1 5885   1.484   3.461   3.227
 1781SOL    HW2 5886   1.444   3.313   3.283
 1782SOL     OW 5887   0.438   2.254   3.361
 1782SOL    HW1 5888   0.520   2.198   3.370
 1782SOL    HW2 5889   0.357   2.196   3.365
 1783SOL     OW 5890   1.603   2.309   2.599
 1783SOL    HW1 5891   1.529   2.355   2.549
 1783SOL    HW2 5892   1.654   2.377   2.652
 1784SOL     OW 5893   0.231   3.575   2.345
 1784SOL    HW1 5894   0.265   3.652   2.399
 1784SOL    HW2 5895   0.275   3.575   2.255
 1785SOL     OW 5896   1.127   3.203   3.552
 1785SOL    HW1 5897   1.174   3.203   3.640
 1785SOL    HW2 5898   1.079   3.116   3.541
 1786SOL     OW 5899   0.230   3.296   2.400
 1786SOL    HW1 5900   0.204   3.392   2.400
 1786SOL    HW2 5901   0.159   3.242   2.445
 1787SOL     OW 5902   0.240   2.953   2.748
 1787SOL    HW1 5903   0.254   2.869   2.800
 1787SOL    HW2 5904   0.185   3.017   2.803
 1788SOL     OW 5905   0.620   3.648   3.301
 1788SOL    HW1 5906   0.528   3.631   3.336
 1788SOL    HW2 5907   0.648   3.740   3.327
 1789SOL     OW 5908   0.606   2.826   1.985
 1789SOL    HW1 5909   0.613   2.910   1.931
 1789SOL    HW2 5910   0.652   2.839   2.073
 1790SOL     OW 5911   1.594   1.976   3.342
 1790SOL    HW1 5912   1.576   2.043   3.270
 1790SOL    HW2 5913   1.591   2.022   3.431
 1791SOL     OW 5914   0.122   2.505   2.425
 1791SOL    HW1 5915   0.077   2.417   2.442
 1791SOL    HW2 5916   0.121   2.559   2.509
 1792SOL     OW 5917   1.842   3.629   2.221
 1792SOL    HW1 5918   1.896   3.600   2.301
 1792SOL    HW2 5919   1.872   3.719   2.192
 1793SOL     OW 5920   0.027   3.458   1.979
 1793SOL    HW1 5921   0.008   3.362   2.000
 1793SOL    HW2 5922  -0.006   3.516   2.054
 1794SOL     OW 5923   1.689   2.784   2.474
 1794SOL    HW1 5924   1.784   2.755   2.482
 1794SOL    HW2 5925   1.681   2.849   2.399
 1795SOL     OW 5926   1.641   2.970   2.294
 1795SOL    HW1 5927   1.727   2.972   2.242
 1795SOL    HW2 5928   1.655   3.017   2.382
 1796SOL     OW 5929   0.113   2.599   3.459
 1796SOL    HW1 5930   0.201   2.586   3.504
 1796SOL    HW2 5931   0.100   2.696   3.437
 1797SOL     OW 5932   0.613   3.227   2.588
 1797SOL    HW1 5933   0.564   3.140   2.597
 1797SOL    HW2 5934   0.590   3.270   2.501
 1798SOL     OW 5935   1.293   3.090   3.285
 1798SOL    HW1 5936   1.330   3.017   3.227
 1798SOL    HW2 5937   1.345   3.095   3.370
 1799SOL     OW 5938   0.809   1.866   2.364
 1799SOL    HW1 5939   0.849   1.957   2.355
 1799SOL    HW2 5940   0.709   1.874   2.370
 1800SOL     OW 5941   0.197   2.838   3.126
 1800SOL    HW1 5942   0.286   2.793   3.112
 1800SOL    HW2 5943   0.124   2.773   3.107
 1801SOL     OW 5944   1.525   2.861   2.052
 1801SOL    HW1 5945   1.462   2.785   2.065
 1801SOL    HW2 5946   1.573   2.879   2.138
 1802SOL     OW 5947   1.187   3.654   3.478
 1802SOL    HW1 5948   1.211   3.714   3.402
 1802SOL    HW2 5949   1.194   3.559   3.448
 1803SOL     OW 5950   0.317   2.113   3.663
 1803SOL    HW1 5951   0.388   2.184   3.669
 1803SOL    HW2 5952   0.229   2.152   3.691
 1804SOL     OW 5953   1.466   3.279   2.815
 1804SOL    HW1 5954   1.407   3.285   2.895
 1804SOL    HW2 5955   1.451   3.191   2.769
 1805SOL     OW 5956   1.667   3.576   2.434
 1805SOL    HW1 5957   1.626   3.553   2.346
 1805SOL    HW2 5958   1.649   3.502   2.499
 1806SOL     OW 5959   0.598   2.591   2.132
 1806SOL    HW1 5960   0.622   2.660   2.064
 1806SOL    HW2 5961   0.520   2.624   2.186
 1807SOL     OW 5962   1.281   2.207   2.806
 1807SOL    HW1 5963   1.195   2.157   2.793
 1807SOL    HW2 5964   1.343   2.153   2.862
 1808SOL     OW 5965   1.576   3.524   2.169
 1808SOL    HW1 5966   1.665   3.570   2.172
 1808SOL    HW2 5967   1.555   3.500   2.074
 1809SOL     OW 5968   0.807   2.467   3.327
 1809SOL    HW1 5969   0.760   2.464   3.416
 1809SOL    HW2 5970   0.756   2.412   3.261
 1810SOL     OW 5971   1.394   2.331   3.536
 1810SOL    HW1 5972   1.374   2.374   3.624
 1810SOL    HW2 5973   1.472   2.269   3.545
 1811SOL     OW 5974   0.973   2.752   3.434
 1811SOL    HW1 5975   1.019   2.668   3.405
 1811SOL    HW2 5976   0.917   2.786   3.359
 1812SOL     OW 5977   0.991   2.272   3.104
 1812SOL    HW1 5978   0.914   2.306   3.158
 1812SOL    HW2 5979   0.957   2.221   3.025
 1813SOL     OW 5980   1.041   2.563   2.291
 1813SOL    HW1 5981   1.067   2.559   2.387
 1813SOL    HW2 5982   0.956   2.512   2.277
 1814SOL     OW 5983   0.076   2.673   2.651
 1814SOL    HW1 5984   0.175   2.661   2.660
 1814SOL    HW2 5985   0.052   2.768   2.672
 1815SOL     OW 5986   0.130   3.683   3.433
 1815SOL    HW1 5987   0.120   3.668   3.532
 1815SOL    HW2 5988   0.044   3.719   3.397
 1816SOL     OW 5989   0.865   2.210   2.057
 1816SOL    HW1 5990   0.924   2.273   2.008
 1816SOL    HW2 5991   0.884   2.116   2.028
 1817SOL     OW 5992   1.719   2.447   3.693
 1817SOL    HW1 5993   1.693   2.536   3.657
 1817SOL    HW2 5994   1.717   2.379   3.620
 1818SOL     OW 5995   1.362   3.006   2.407
 1818SOL    HW1 5996   1.445   2.977   2.359
 1818SOL    HW2 5997   1.313   3.073   2.351
 1819SOL     OW 5998   0.550   2.058   2.747
 1819SOL    HW1 5999   0.545   2.053   2.847
 1819SOL    HW2 6000   0.552   2.154   2.718
 1820SOL     OW 6001   1.008   3.318   2.339
 1820SOL    HW1 6002   0.962   3.390   2.287
 1820SOL    HW2 6003   1.004   3.338   2.437
 1821SOL     OW 6004   0.351   3.663   2.715
 1821SOL    HW1 6005   0.401   3.577   2.721
 1821SOL    HW2 6006   0.416   3.740   2.712
 1822SOL     OW 6007   1.795   2.928   2.735
 1822SOL    HW1 6008   1.733   2.913   2.659
 1822SOL    HW2 6009   1.743   2.939   2.820
 1823SOL     OW 6010   1.227   3.412   3.368
 1823SOL    HW1 6011   1.233   3.335   3.432
 1823SOL    HW2 6012   1.175   3.386   3.288
 1824SOL     OW 6013   0.321   2.805   2.104
 1824SOL    HW1 6014   0.403   2.844   2.062
 1824SOL    HW2 6015   0.294   2.723   2.055
 1825SOL     OW 6016   1.458   2.597   2.590
 1825SOL    HW1 6017   1.453   2.532   2.665
 1825SOL    HW2 6018   1.538   2.656   2.603
 1826SOL     OW 6019   0.461   3.128   3.589
 1826SOL    HW1 6020   0.411   3.129   3.503
 1826SOL    HW2 6021   0.398   3.110   3.665
 1827SOL     OW 6022   1.111   3.638   2.099
 1827SOL    HW1 6023   1.051   3.576   2.149
 1827SOL    HW2 6024   1.142   3.594   2.014
 1828SOL     OW 6025   0.202   2.147   3.360
 1828SOL    HW1 6026   0.122   2.207   3.347
 1828SOL    HW2 6027   0.192   2.098   3.446
 1829SOL     OW 6028   1.632   3.239   1.943
 1829SOL    HW1 6029   1.600   3.333   1.933
 1829SOL    HW2 6030   1.556   3.176   1.931
 1830SOL     OW 6031   0.464   3.605   2.185
 1830SOL    HW1 6032   0.497   3.644   2.271
 1830SOL    HW2 6033   0.540   3.598   2.120
 1831SOL     OW 6034   1.400   1.969   2.288
 1831SOL    HW1 6035   1.376   1.932   2.198
 1831SOL    HW2 6036   1.499   1.985   2.292
 1832SOL     OW 6037   0.249   3.647   3.103
 1832SOL    HW1 6038   0.306   3.582   3.153
 1832SOL    HW2 6039   0.233   3.614   3.010
 1833SOL     OW 6040   0.940   3.560   2.766
 1833SOL    HW1 6041   1.020   3.503   2.787
 1833SOL    HW2 6042   0.891   3.520   2.689
 1834SOL     OW 6043   0.382   2.562   2.342
 1834SOL    HW1 6044   0.427   2.472   2.339
 1834SOL    HW2 6045   0.288   2.551   2.375
 1835SOL     OW 6046   1.547   2.084   3.591
 1835SOL    HW1 6047   1.542   2.121   3.683
 1835SOL    HW2 6048   1.475   2.015   3.579
 1836SOL     OW 6049   0.614   1.984   1.979
 1836SOL    HW1 6050   0.712   1.962   1.986
 1836SOL    HW2 6051   0.583   1.967   1.886
 1837SOL     OW 6052   0.781   2.126   3.611
 1837SOL    HW1 6053   0.848   2.065   3.654
 1837SOL    HW2 6054   0.708   2.145   3.676
 1838SOL     OW 6055   0.888   3.376   3.057
 1838SOL    HW1 6056   0.865   3.351   2.963
 1838SOL    HW2 6057   0.949   3.307   3.096
 1839SOL     OW 6058   1.351   2.452   3.295
 1839SOL    HW1 6059   1.379   2.409   3.380
 1839SOL    HW2 6060   1.376   2.548   3.296
 1840SOL     OW 6061   0.803   3.264   2.786
 1840SOL    HW1 6062   0.893   3.278   2.744
 1840SOL    HW2 6063   0.732   3.266   2.715
 1841SOL     OW 6064   0.922   2.365   2.761
 1841SOL    HW1 6065   0.897   2.356   2.665
 1841SOL    HW2 6066   0.970   2.283   2.792
 1842SOL     OW 6067   0.539   1.926   2.374
 1842SOL    HW1 6068   0.458   1.927   2.432
 1842SOL    HW2 6069   0.542   2.009   2.319
 1843SOL     OW 6070   1.434   3.050   1.903
 1843SOL    HW1 6071   1.466   2.974   1.960
 1843SOL    HW2 6072   1.342   3.077   1.933
 1844SOL     OW 6073   0.297   1.897   2.033
 1844SOL    HW1 6074   0.346   1.981   2.012
 1844SOL    HW2 6075   0.359   1.832   2.078
 1845SOL     OW 6076   0.935   2.098   2.342
 1845SOL    HW1 6077   0.887   2.139   2.264
 1845SOL    HW2 6078   1.034   2.096   2.323
 1846SOL     OW 6079   1.076   2.545   3.326
 1846SOL    HW1 6080   0.996   2.484   3.329
 1846SOL    HW2 6081   1.157   2.492   3.302
 1847SOL     OW 6082   1.227   3.432   2.655
 1847SOL    HW1 6083   1.248   3.506   2.590
 1847SOL    HW2 6084   1.295   3.432   2.728
 1848SOL     OW 6085   0.459   3.014   2.603
 1848SOL    HW1 6086   0.388   2.987   2.668
 1848SOL    HW2 6087   0.433   2.986   2.510
 1849SOL     OW 6088   1.271   3.659   2.453
 1849SOL    HW1 6089   1.315   3.723   2.389
 1849SOL    HW2 6090   1.221   3.711   2.523
 1850SOL     OW 6091   1.032   2.411   1.878
 1850SOL    HW1 6092   0.991   2.493   1.839
 1850SOL    HW2 6093   1.096   2.437   1.951
 1851SOL     OW 6094   0.078   2.418   3.248
 1851SOL    HW1 6095   0.170   2.417   3.207
 1851SOL    HW2 6096   0.072   2.492   3.315
 1852SOL     OW 6097   0.561   2.084   3.009
 1852SOL    HW1 6098   0.599   2.000   3.046
 1852SOL    HW2 6099   0.473   2.103   3.053
 1853SOL     OW 6100   0.866   2.316   2.504
 1853SOL    HW1 6101   0.834   2.388   2.442
 1853SOL    HW2 6102   0.890   2.235   2.451
 1854SOL     OW 6103   1.017   1.901   2.615
 1854SOL    HW1 6104   0.945   1.906   2.546
 1854SOL    HW2 6105   0.993   1.832   2.684
 1855SOL     OW 6106   1.429   3.035   2.729
 1855SOL    HW1 6107   1.374   2.951   2.722
 1855SOL    HW2 6108   1.455   3.064   2.637
 1856SOL     OW 6109   1.466   2.452   2.854
 1856SOL    HW1 6110   1.436   2.357   2.861
 1856SOL    HW2 6111   1.539   2.468   2.920
 1857SOL     OW 6112   1.857   2.695   2.239
 1857SOL    HW1 6113   1.899   2.631   2.303
 1857SOL    HW2 6114   1.819   2.644   2.161
 1858SOL     OW 6115   0.488   3.247   2.036
 1858SOL    HW1 6116   0.401   3.232   2.083
 1858SOL    HW2 6117   0.471   3.273   1.941
 1859SOL     OW 6118   1.664   3.142   2.519
 1859SOL    HW1 6119   1.763   3.150   2.533
 1859SOL    HW2 6120   1.619   3.226   2.550
 1860SOL     OW 6121   1.390   2.437   1.940
 1860SOL    HW1 6122   1.336   2.416   2.021
 1860SOL    HW2 6123   1.481   2.396   1.949
 1861SOL     OW 6124   0.527   2.118   2.190
 1861SOL    HW1 6125   0.554   2.059   2.115
 1861SOL    HW2 6126   0.527   2.213   2.159
 1862SOL     OW 6127   1.754   3.085   3.450
 1862SOL    HW1 6128   1.845   3.046   3.437
 1862SOL    HW2 6129   1.762   3.181   3.474
 1863SOL     OW 6130   1.064   3.209   3.202
 1863SOL    HW1 6131   0.984   3.186   3.257
 1863SOL    HW2 6132   1.147   3.183   3.251
 1864SOL     OW 6133   1.592   3.491   3.487
 1864SOL    HW1 6134   1.619   3.525   3.397
 1864SOL    HW2 6135   1.671   3.453   3.533
 1865SOL     OW 6136   1.111   3.057   2.962
 1865SOL    HW1 6137   1.071   3.101   3.043
 1865SOL    HW2 6138   1.070   3.094   2.879
 1866SOL     OW 6139   1.638   2.961   2.941
 1866SOL    HW1 6140   1.643   3.042   3.000
 1866SOL    HW2 6141   1.552   2.963   2.890
 1867SOL     OW 6142   0.915   1.951   3.264
 1867SOL    HW1 6143   0.940   1.931   3.169
 1867SOL    HW2 6144   0.987   2.007   3.306
 1868SOL     OW 6145   0.980   2.978   3.581
 1868SOL    HW1 6146   0.881   2.984   3.591
 1868SOL    HW2 6147   1.003   2.898   3.525
 1869SOL     OW 6148   0.705   2.912   2.230
 1869SOL    HW1 6149   0.691   2.919   2.329
 1869SOL    HW2 6150   0.789   2.861   2.212
 1870SOL     OW 6151   0.410   2.675   3.113
 1870SOL    HW1 6152   0.496   2.687   3.163
 1870SOL    HW2 6153   0.368   2.588   3.140
 1871SOL     OW 6154   1.274   2.248   3.124
 1871SOL    HW1 6155   1.295   2.322   3.188
 1871SOL    HW2 6156   1.185   2.265   3.081
 1872SOL     OW 6157   0.064   3.426   3.193
 1872SOL    HW1 6158   0.018   3.508   3.159
 1872SOL    HW2 6159   0.162   3.445   3.202
 1873SOL     OW 6160   0.367   2.962   2.363
 1873SOL    HW1 6161   0.360   3.045   2.307
 1873SOL    HW2 6162   0.371   2.882   2.303
 1874SOL     OW 6163   0.566   2.399   2.727
 1874SOL    HW1 6164   0.578   2.465   2.653
 1874SOL    HW2 6165   0.612   2.433   2.810
 1875SOL     OW 6166   1.252   3.210   2.250
 1875SOL    HW1 6167   1.302   3.287   2.290
 1875SOL    HW2 6168   1.157   3.212   2.282
 1876SOL     OW 6169   1.272   3.307   3.004
 1876SOL    HW1 6170   1.319   3.320   3.091
 1876SOL    HW2 6171   1.206   3.233   3.013
 1877SOL     OW 6172   1.582   2.501   2.334
 1877SOL    HW1 6173   1.551   2.562   2.407
 1877SOL    HW2 6174   1.632   2.553   2.265
 1878SOL     OW 6175   0.354   3.372   3.191
 1878SOL    HW1 6176   0.333   3.328   3.104
 1878SOL    HW2 6177   0.451   3.398   3.194
 1879SOL     OW 6178   0.402   2.613   3.460
 1879SOL    HW1 6179   0.470   2.668   3.413
 1879SOL    HW2 6180   0.442   2.525   3.487
 1880SOL     OW 6181   1.587   2.641   3.532
 1880SOL    HW1 6182   1.495   2.679   3.527
 1880SOL    HW2 6183   1.647   2.688   3.467
 1881SOL     OW 6184   1.013   1.967   3.632
 1881SOL    HW1 6185   1.019   2.052   3.580
 1881SOL    HW2 6186   1.045   1.891   3.575
 1882SOL     OW 6187   0.504   1.912   3.602
 1882SOL    HW1 6188   0.462   1.855   3.532
 1882SOL    HW2 6189   0.438   1.981   3.634
 1883SOL     OW 6190   0.573   2.732   2.891
 1883SOL    HW1 6191   0.617   2.821   2.882
 1883SOL    HW2 6192   0.510   2.732   2.968
 1884SOL     OW 6193   1.360   2.724   2.907
 1884SOL    HW1 6194   1.285   2.724   2.841
 1884SOL    HW2 6195   1.397   2.632   2.916
 1885SOL     OW 6196   1.209   2.387   2.137
 1885SOL    HW1 6197   1.222   2.303   2.191
 1885SOL    HW2 6198   1.180   2.461   2.197
 1886SOL     OW 6199   0.307   2.075   3.093
 1886SOL    HW1 6200   0.284   2.112   3.183
 1886SOL    HW2 6201   0.277   1.980   3.087
 1887SOL     OW 6202   0.037   3.172   3.144
 1887SOL    HW1 6203   0.090   3.123   3.212
 1887SOL    HW2 6204   0.059   3.270   3.149
 1888SOL     OW 6205   0.732   2.496   2.926
 1888SOL    HW1 6206   0.791   2.470   2.850
 1888SOL    HW2 6207   0.704   2.592   2.915
 1889SOL     OW 6208   1.728   2.797   3.716
 1889SOL    HW1 6209   1.682   2.790   3.627
 1889SOL    HW2 6210   1.666   2.841   3.782
 1890SOL     OW 6211   0.307   1.925   2.480
 1890SOL    HW1 6212   0.296   2.019   2.513
 1890SOL    HW2 6213   0.302   1.862   2.557
 1891SOL     OW 6214   1.622   2.229   2.236
 1891SOL    HW1 6215   1.624   2.153   2.300
 1891SOL    HW2 6216   1.574   2.306   2.276
 1892SOL     OW 6217   1.023   2.628   2.828
 1892SOL    HW1 6218   1.038   2.649   2.924
 1892SOL    HW2 6219   0.993   2.533   2.819
 1893SOL     OW 6220   0.980   3.435   3.562
 1893SOL    HW1 6221   0.960   3.479   3.474
 1893SOL    HW2 6222   1.019   3.344   3.546
 1894SOL     OW 6223   1.859   3.380   3.467
 1894SOL    HW1 6224   1.873   3.407   3.372
 1894SOL    HW2 6225   1.942   3.402   3.520
 1895SOL     OW 6226   0.350   2.760   3.666
 1895SOL    HW1 6227   0.426   2.804   3.714
 1895SOL    HW2 6228   0.385   2.713   3.584
 1896SOL     OW 6229   1.540   2.136   1.987
 1896SOL    HW1 6230   1.479   2.061   2.010
 1896SOL    HW2 6231   1.562   2.188   2.070
 1897SOL     OW 6232   1.303   2.700   1.904
 1897SOL    HW1 6233   1.337   2.607   1.919
 1897SOL    HW2 6234   1.321   2.727   1.809
 1898SOL     OW 6235   1.068   3.195   2.711
 1898SOL    HW1 6236   1.075   3.111   2.656
 1898SOL    HW2 6237   1.130   3.264   2.675
 1899SOL     OW 6238   0.319   2.672   2.811
 1899SOL    HW1 6239   0.412   2.708   2.816
 1899SOL    HW2 6240   0.313   2.587   2.863
 1900SOL     OW 6241   0.339   2.371   2.868
 1900SOL    HW1 6242   0.287   2.288   2.851
 1900SOL    HW2 6243   0.416   2.376   2.804
 1901SOL     OW 6244   1.138   2.242   3.540
 1901SOL    HW1 6245   1.093   2.305   3.604
 1901SOL    HW2 6246   1.231   2.273   3.523
 1902SOL     OW 6247   1.160   2.069   3.339
 1902SOL    HW1 6248   1.160   2.133   3.416
 1902SOL    HW2 6249   1.188   2.117   3.256
 1903SOL     OW 6250   0.008   3.188   2.062
 1903SOL    HW1 6251  -0.085   3.209   2.031
 1903SOL    HW2 6252   0.018   3.089   2.075
 1904SOL     OW 6253   0.088   3.663   2.789
 1904SOL    HW1 6254   0.046   3.577   2.762
 1904SOL    HW2 6255   0.182   3.666   2.755
 1905SOL     OW 6256   0.504   3.430   2.772
 1905SOL    HW1 6257   0.570   3.504   2.781
 1905SOL    HW2 6258   0.548   3.351   2.730
 1906SOL     OW 6259   1.002   2.658   3.100
 1906SOL    HW1 6260   1.043   2.626   3.186
 1906SOL    HW2 6261   0.906   2.631   3.097
 1907SOL     OW 6262   0.040   2.406   2.976
 1907SOL    HW1 6263   0.125   2.373   2.935
 1907SOL    HW2 6264   0.053   2.421   3.074
 1908SOL     OW 6265   0.189   2.382   3.584
 1908SOL    HW1 6266   0.248   2.342   3.514
 1908SOL    HW2 6267   0.131   2.453   3.543
 1909SOL     OW 6268   1.369   2.812   3.522
 1909SOL    HW1 6269   1.408   2.901   3.542
 1909SOL    HW2 6270   1.379   2.792   3.425
 1910SOL     OW 6271   0.815   2.434   2.187
 1910SOL    HW1 6272   0.822   2.345   2.141
 1910SOL    HW2 6273   0.721   2.468   2.179
 1911SOL     OW 6274   1.657   2.466   3.068
 1911SOL    HW1 6275   1.619   2.397   3.130
 1911SOL    HW2 6276   1.739   2.430   3.024
 1912SOL     OW 6277   0.252   3.426   3.606
 1912SOL    HW1 6278   0.222   3.483   3.682
 1912SOL    HW2 6279   0.245   3.329   3.632
 1913SOL     OW 6280   0.671   2.326   3.131
 1913SOL    HW1 6281   0.637   2.237   3.101
 1913SOL    HW2 6282   0.697   2.380   3.051
 1914SOL     OW 6283   0.930   3.540   3.327
 1914SOL    HW1 6284   0.906   3.522   3.232
 1914SOL    HW2 6285   0.960   3.634   3.337
 1915SOL     OW 6286   0.473   2.362   2.053
 1915SOL    HW1 6287   0.534   2.442   2.057
 1915SOL    HW2 6288   0.378   2.393   2.060
 1916SOL     OW 6289   0.159   2.999   3.328
 1916SOL    HW1 6290   0.181   2.938   3.404
 1916SOL    HW2 6291   0.169   2.950   3.242
 1917SOL     OW 6292   1.347   2.921   3.096
 1917SOL    HW1 6293   1.371   2.858   3.022
 1917SOL    HW2 6294   1.257   2.961   3.078
 1918SOL     OW 6295   1.302   2.717   2.171
 1918SOL    HW1 6296   1.216   2.686   2.213
 1918SOL    HW2 6297   1.298   2.703   2.072
 1919SOL     OW 6298   1.759   3.609   3.016
 1919SOL    HW1 6299   1.820   3.639   2.943
 1919SOL    HW2 6300   1.721   3.520   2.994
 1920SOL     OW 6301   1.252   3.593   2.990
 1920SOL    HW1 6302   1.336   3.598   2.936
 1920SOL    HW2 6303   1.229   3.497   3.008
 1921SOL     OW 6304   0.083   3.120   2.884
 1921SOL    HW1 6305   0.078   3.119   2.984
 1921SOL    HW2 6306   0.000   3.079   2.846
 1922SOL     OW 6307   0.688   3.524   3.578
 1922SOL    HW1 6308   0.632   3.605   3.587
 1922SOL    HW2 6309   0.740   3.528   3.492
 1923SOL     OW 6310   1.388   3.435   2.339
 1923SOL    HW1 6311   1.455   3.447   2.265
 1923SOL    HW2 6312   1.348   3.524   2.362
 1924SOL     OW 6313   0.130   3.656   3.713
 1924SOL    HW1 6314   0.089   3.582   3.766
 1924SOL    HW2 6315   0.194   3.707   3.771
 1925SOL     OW 6316   1.280   2.789   2.534
 1925SOL    HW1 6317   1.340   2.708   2.536
 1925SOL    HW2 6318   1.320   2.858   2.474
 1926SOL     OW 6319   0.830   3.135   3.284
 1926SOL    HW1 6320   0.825   3.168   3.379
 1926SOL    HW2 6321   0.744   3.154   3.238
 1927SOL     OW 6322   0.672   3.478   2.016
 1927SOL    HW1 6323   0.681   3.488   1.917
 1927SOL    HW2 6324   0.632   3.389   2.037
 1928SOL     OW 6325   1.650   3.582   3.256
 1928SOL    HW1 6326   1.703   3.592   3.172
 1928SOL    HW2 6327   1.623   3.672   3.290
 1929SOL     OW 6328   0.263   2.188   2.582
 1929SOL    HW1 6329   0.184   2.239   2.548
 1929SOL    HW2 6330   0.254   2.173   2.680
 1930SOL     OW 6331   1.194   3.474   1.893
 1930SOL    HW1 6332   1.200   3.381   1.930
 1930SOL    HW2 6333   1.135   3.474   1.813
 1931SOL     OW 6334   0.822   2.864   3.234
 1931SOL    HW1 6335   0.862   2.863   3.142
 1931SOL    HW2 6336   0.832   2.956   3.274
 1932SOL     OW 6337   0.916   2.772   2.153
 1932SOL    HW1 6338   0.979   2.810   2.085
 1932SOL    HW2 6339   0.956   2.689   2.192
 1933SOL     OW 6340   1.504   3.469   1.906
 1933SOL    HW1 6341   1.412   3.506   1.913
 1933SOL    HW2 6342   1.542   3.489   1.816
 1934SOL     OW 6343   0.372   3.150   3.352
 1934SOL    HW1 6344   0.359   3.243   3.318
 1934SOL    HW2 6345   0.288   3.098   3.339
 1935SOL     OW 6346   1.614   3.154   3.151
 1935SOL    HW1 6347   1.674   3.157   3.231
 1935SOL    HW2 6348   1.539   3.218   3.164
 1936SOL     OW 6349   1.039   2.960   2.558
 1936SOL    HW1 6350   0.969   2.913   2.612
 1936SOL    HW2 6351   1.098   2.892   2.515
 1937SOL     OW 6352   1.014   2.098   2.833
 1937SOL    HW1 6353   1.006   2.062   2.740
 1937SOL    HW2 6354   1.012   2.022   2.898
 1938SOL     OW 6355   0.590   3.349   2.353
 1938SOL    HW1 6356   0.632   3.291   2.283
 1938SOL    HW2 6357   0.546   3.428   2.309
 1939SOL     OW 6358   1.709   2.247   3.243
 1939SOL    HW1 6359   1.782   2.316   3.247
 1939SOL    HW2 6360   1.737   2.172   3.184
 1940SOL     OW 6361   0.255   3.210   2.152
 1940SOL    HW1 6362   0.159   3.211   2.125
 1940SOL    HW2 6363   0.267   3.263   2.236
 1941SOL     OW 6364   0.105   2.875   3.588
 1941SOL    HW1 6365   0.028   2.842   3.642
 1941SOL    HW2 6366   0.190   2.845   3.630
 1942SOL     OW 6367   0.672   2.065   3.351
 1942SOL    HW1 6368   0.762   2.049   3.311
 1942SOL    HW2 6369   0.680   2.070   3.450
 1943SOL     OW 6370   0.075   2.207   1.895
 1943SOL    HW1 6371  -0.017   2.179   1.866
 1943SOL    HW2 6372   0.106   2.284   1.839
 1944SOL     OW 6373   1.440   2.718   3.260
 1944SOL    HW1 6374   1.383   2.770   3.197
 1944SOL    HW2 6375   1.536   2.730   3.236
 1945SOL     OW 6376   0.072   2.028   2.180
 1945SOL    HW1 6377   0.055   2.111   2.126
 1945SOL    HW2 6378   0.162   1.991   2.158
 1946SOL     OW 6379   1.183   3.197   1.981
 1946SOL    HW1 6380   1.084   3.186   1.983
 1946SOL    HW2 6381   1.217   3.212   2.074
 1947SOL     OW 6382   0.613   2.704   3.293
 1947SOL    HW1 6383   0.669   2.785   3.276
 1947SOL    HW2 6384   0.672   2.624   3.296
 1948SOL     OW 6385   1.493   3.629   2.821
 1948SOL    HW1 6386   1.526   3.693   2.752
 1948SOL    HW2 6387   1.559   3.623   2.896
 1949SOL     OW 6388   0.716   2.427   3.570
 1949SOL    HW1 6389   0.735   2.492   3.644
 1949SOL    HW2 6390   0.776   2.347   3.579
 1950SOL     OW 6391   1.450   3.082   3.495
 1950SOL    HW1 6392   1.441   3.072   3.594
 1950SOL    HW2 6393   1.546   3.075   3.469
 1951SOL     OW 6394   0.390   3.603   3.422
 1951SOL    HW1 6395   0.299   3.644   3.420
 1951SOL    HW2 6396   0.383   3.509   3.454
 1952SOL     OW 6397   1.674   2.745   3.116
 1952SOL    HW1 6398   1.647   2.656   3.079
 1952SOL    HW2 6399   1.675   2.813   3.043
 1953SOL     OW 6400   1.225   2.187   2.311
 1953SOL    HW1 6401   1.290   2.113   2.300
 1953SOL    HW2 6402   1.245   2.237   2.395
 1954SOL     OW 6403   0.594   2.607   2.514
 1954SOL    HW1 6404   0.644   2.692   2.495
 1954SOL    HW2 6405   0.506   2.609   2.466
 1955SOL     OW 6406   1.777   2.204   3.504
 1955SOL    HW1 6407   1.760   2.235   3.410
 1955SOL    HW2 6408   1.693   2.167   3.542
 1956SOL     OW 6409   1.730   2.796   3.379
 1956SOL    HW1 6410   1.768   2.887   3.394
 1956SOL    HW2 6411   1.722   2.779   3.280
 1957SOL     OW 6412   0.859   3.236   1.878
 1957SOL    HW1 6413   0.813   3.251   1.966
 1957SOL    HW2 6414   0.903   3.321   1.848
 1958SOL     OW 6415   0.661   3.652   2.815
 1958SOL    HW1 6416   0.615   3.740   2.802
 1958SOL    HW2 6417   0.760   3.664   2.808
 1959SOL     OW 6418   0.859   2.818   2.723
 1959SOL    HW1 6419   0.913   2.749   2.771
 1959SOL    HW2 6420   0.827   2.887   2.789
 1960SOL     OW 6421   1.083   2.846   1.949
 1960SOL    HW1 6422   1.060   2.899   1.867
 1960SOL    HW2 6423   1.164   2.790   1.930
 1961SOL     OW 6424   1.861   3.431   2.713
 1961SOL    HW1 6425   1.790   3.419   2.643
 1961SOL    HW2 6426   1.862   3.352   2.773
 1962SOL     OW 6427   0.221   3.176   3.706
 1962SOL    HW1 6428   0.156   3.103   3.685
 1962SOL    HW2 6429   0.225   3.190   3.804
 1963SOL     OW 6430   0.079   3.102   2.515
 1963SOL    HW1 6431   0.078   3.055   2.603
 1963SOL    HW2 6432   0.161   3.074   2.464
 1964SOL     OW 6433   0.672   3.253   3.486
 1964SOL    HW1 6434   0.594   3.203   3.524
 1964SOL    HW2 6435   0.669   3.348   3.517
 1965SOL     OW 6436   0.428   2.286   2.382
 1965SOL    HW1 6437   0.458   2.214   2.320
 1965SOL    HW2 6438   0.389   2.246   2.465
 1966SOL     OW 6439   1.705   3.349   2.966
 1966SOL    HW1 6440   1.612   3.324   2.939
 1966SOL    HW2 6441   1.731   3.299   3.048
 1967SOL     OW 6442   0.317   2.409   3.142
 1967SOL    HW1 6443   0.355   2.350   3.214
 1967SOL    HW2 6444   0.357   2.383   3.054
 1968SOL     OW 6445   0.812   3.448   2.549
 1968SOL    HW1 6446   0.844   3.458   2.455
 1968SOL    HW2 6447   0.733   3.386   2.551
 1969SOL     OW 6448   1.424   2.076   2.974
 1969SOL    HW1 6449   1.476   2.011   3.029
 1969SOL    HW2 6450   1.375   2.139   3.035
 1970SOL     OW 6451   1.001   1.896   3.016
 1970SOL    HW1 6452   0.938   1.824   2.985
 1970SOL    HW2 6453   1.094   1.860   3.016
 1971SOL     OW 6454   0.770   3.192   2.163
 1971SOL    HW1 6455   0.724   3.105   2.180
 1971SOL    HW2 6456   0.861   3.189   2.204
 1972SOL     OW 6457   0.618   3.429   3.146
 1972SOL    HW1 6458   0.613   3.511   3.203
 1972SOL    HW2 6459   0.707   3.426   3.101
 1973SOL     OW 6460   1.352   1.914   2.030
 1973SOL    HW1 6461   1.387   1.873   1.946
 1973SOL    HW2 6462   1.262   1.876   2.050
 1974SOL     OW 6463   1.300   2.315   2.553
 1974SOL    HW1 6464   1.241   2.395   2.557
 1974SOL    HW2 6465   1.315   2.280   2.646
 1975SOL     OW 6466   1.593   2.083   2.744
 1975SOL    HW1 6467   1.509   2.082   2.798
 1975SOL    HW2 6468   1.595   2.166   2.688
 1976SOL     OW 6469   0.039   2.939   2.162
 1976SOL    HW1 6470   0.138   2.928   2.153
 1976SOL    HW2 6471  -0.001   2.853   2.194
 1977SOL     OW 6472   0.875   3.508   2.199
 1977SOL    HW1 6473   0.798   3.473   2.145
 1977SOL    HW2 6474   0.843   3.579   2.261
 1978SOL     OW 6475   0.230   2.490   3.837
 1978SOL    HW1 6476   0.137   2.488   3.874
 1978SOL    HW2 6477   0.231   2.451   3.745
 1979SOL     OW 6478   0.225   2.137   4.720
 1979SOL    HW1 6479   0.260   2.120   4.812
 1979SOL    HW2 6480   0.137   2.092   4.708
 1980SOL     OW 6481   0.019   2.230   4.371
 1980SOL    HW1 6482  -0.063   2.273   4.410
 1980SOL    HW2 6483  -0.009   2.157   4.308
 1981SOL     OW 6484   0.569   3.137   4.889
 1981SOL    HW1 6485   0.476   3.130   4.852
 1981SOL    HW2 6486   0.580   3.226   4.933
 1982SOL     OW 6487   1.555   3.373   4.427
 1982SOL    HW1 6488   1.498   3.357   4.508
 1982SOL    HW2 6489   1.496   3.383   4.347
 1983SOL     OW 6490   1.135   2.565   4.441
 1983SOL    HW1 6491   1.192   2.643   4.416
 1983SOL    HW2 6492   1.075   2.591   4.517
 1984SOL     OW 6493   1.755   2.469   3.955
 1984SOL    HW1 6494   1.743   2.456   3.856
 1984SOL    HW2 6495   1.725   2.388   4.004
 1985SOL     OW 6496   0.768   3.006   4.747
 1985SOL    HW1 6497   0.690   3.023   4.807
 1985SOL    HW2 6498   0.802   3.093   4.711
 1986SOL     OW 6499   0.850   2.660   5.547
 1986SOL    HW1 6500   0.846   2.736   5.612
 1986SOL    HW2 6501   0.872   2.696   5.456
 1987SOL     OW 6502   0.685   2.874   4.389
 1987SOL    HW1 6503   0.754   2.858   4.459
 1987SOL    HW2 6504   0.612   2.931   4.427
 1988SOL     OW 6505   0.686   3.023   5.527
 1988SOL    HW1 6506   0.746   3.102   5.541
 1988SOL    HW2 6507   0.600   3.054   5.486
 1989SOL     OW 6508   0.335   3.297   4.785
 1989SOL    HW1 6509   0.257   3.266   4.732
 1989SOL    HW2 6510   0.393   3.355   4.728
 1990SOL     OW 6511   1.460   3.367   5.063
 1990SOL    HW1 6512   1.484   3.461   5.089
 1990SOL    HW2 6513   1.444   3.313   5.145
 1991SOL     OW 6514   0.438   2.254   5.223
 1991SOL    HW1 6515   0.520   2.198   5.232
 1991SOL    HW2 6516   0.357   2.196   5.227
 1992SOL     OW 6517   1.603   2.309   4.461
 1992SOL    HW1 6518   1.529   2.355   4.411
 1992SOL    HW2 6519   1.654   2.377   4.514
 1993SOL     OW 6520   0.231   3.575   4.207
 1993SOL    HW1 6521   0.265   3.652   4.261
 1993SOL    HW2 6522   0.275   3.575   4.117
 1994SOL     OW 6523   1.127   3.203   5.414
 1994SOL    HW1 6524   1.174   3.203   5.502
 1994SOL    HW2 6525   1.079   3.116   5.403
 1995SOL     OW 6526   0.230   3.296   4.262
 1995SOL    HW1 6527   0.204   3.392   4.262
 1995SOL    HW2 6528   0.159   3.242   4.307
 1996SOL     OW 6529   0.240   2.953   4.610
 1996SOL    HW1 6530   0.254   2.869   4.662
 1996SOL    HW2 6531   0.185   3.017   4.665
 1997SOL     OW 6532   0.620   3.648   5.163
 1997SOL    HW1 6533   0.528   3.631   5.198
 1997SOL    HW2 6534   0.648   3.740   5.189
 1998SOL     OW 6535   0.606   2.826   3.847
 1998SOL    HW1 6536   0.613   2.910   3.793
 1998SOL    HW2 6537   0.652   2.839   3.935
 1999SOL     OW 6538   1.594   1.976   5.204
 1999SOL    HW1 6539   1.576   2.043   5.132
 1999SOL    HW2 6540   1.591   2.022   5.293
 2000SOL     OW 6541   0.122   2.505   4.287
 2000SOL    HW1 6542   0.077   2.417   4.304
 2000SOL    HW2 6543   0.121   2.559   4.371
 2001SOL     OW 6544   1.842   3.629   4.083
 2001SOL    HW1 6545   1.896   3.600   4.163
 2001SOL    HW2 6546   1.872   3.719   4.054
 2002SOL     OW 6547   0.027   3.458   3.841
 2002SOL    HW1 6548   0.008   3.362   3.862
 2002SOL    HW2 6549  -0.006   3.516   3.916
 2003SOL     OW 6550   1.689   2.784   4.336
 2003SOL    HW1 6551   1.784   2.755   4.344
 2003SOL    HW2 6552   1.681   2.849   4.261
 2004SOL     OW 6553   1.641   2.970   4.156
 2004SOL    HW1 6554   1.727   2.972   4.104
 2004SOL    HW2 6555   1.655   3.017   4.244
 2005SOL     OW 6556   0.113   2.599   5.321
 2005SOL    HW1 6557   0.201   2.586   5.366
 2005SOL    HW2 6558   0.100   2.696   5.299
 2006SOL     OW 6559   0.613   3.227   4.450
 2006SOL    HW1 6560   0.564   3.140   4.459
 2006SOL    HW2 6561   0.590   3.270   4.363
 2007SOL     OW 6562   1.293   3.090   5.147
 2007SOL    HW1 6563   1.330   3.017   5.089
 2007SOL    HW2 6564   1.345   3.095   5.232
 2008SOL     OW 6565   0.809   1.866   4.226
 2008SOL    HW1 6566   0.849   1.957   4.217
 2008SOL    HW2 6567   0.709   1.874   4.232
 2009SOL     OW 6568   0.197   2.838   4.988
 2009SOL    HW1 6569   0.286   2.793   4.974
 2009SOL    HW2 6570   0.124   2.773   4.969
 2010SOL     OW 6571   1.525   2.861   3.914
 2010SOL    HW1 6572   1.462   2.785   3.927
 2010SOL    HW2 6573   1.573   2.879   4.000
 2011SOL     OW 6574   1.187   3.654   5.340
 2011SOL    HW1 6575   1.211   3.714   5.264
 2011SOL    HW2 6576   1.194   3.559   5.310
 2012SOL     OW 6577   0.317   2.113   5.525
 2012SOL    HW1 6578   0.388   2.184   5.531
 2012SOL    HW2 6579   0.229   2.152   5.553
 2013SOL     OW 6580   1.466   3.279   4.677
 2013SOL    HW1 6581   1.407   3.285   4.757
 2013SOL    HW2 6582   1.451   3.191   4.631
 2014SOL     OW 6583   1.667   3.576   4.296
 2014SOL    HW1 6584   1.626   3.553   4.208
 2014SOL    HW2 6585   1.649   3.502   4.361
 2015SOL     OW 6586   0.598   2.591   3.994
 2015SOL    HW1 6587   0.622   2.660   3.926
 2015SOL    HW2 6588   0.520   2.624   4.048
 2016SOL     OW 6589   1.281   2.207   4.668
 2016SOL    HW1 6590   1.195   2.157   4.655
 2016SOL    HW2 6591   1.343   2.153   4.724
 2017SOL     OW 6592   1.576   3.524   4.031
 2017SOL    HW1 6593   1.665   3.570   4.034
 2017SOL    HW2 6594   1.555   3.500   3.936
 2018SOL     OW 6595   0.807   2.467   5.189
 2018SOL    HW1 6596   0.760   2.464   5.278
 2018SOL    HW2 6597   0.756   2.412   5.123
 2019SOL     OW 6598   1.394   2.331   5.398
 2019SOL    HW1 6599   1.374   2.374   5.486
 2019SOL    HW2 6600   1.472   2.269   5.407
 2020SOL     OW 6601   0.973   2.752   5.296
 2020SOL    HW1 6602   1.019   2.668   5.267
 2020SOL    HW2 6603   0.917   2.786   5.221
 2021SOL     OW 6604   0.991   2.272   4.966
 2021SOL    HW1 6605   0.914   2.306   5.020
 2021SOL    HW2 6606   0.957   2.221   4.887
 2022SOL     OW 6607   1.041   2.563   4.153
 2022SOL    HW1 6608   1.067   2.559   4.249
 2022SOL    HW2 6609   0.956   2.512   4.139
 2023SOL     OW 6610   0.076   2.673   4.513
 2023SOL    HW1 6611   0.175   2.661   4.522
 2023SOL    HW2 6612   0.052   2.768   4.534
 2024SOL     OW 6613   0.130   3.683   5.295
 2024SOL    HW1 6614   0.120   3.668   5.394
 2024SOL    HW2 6615   0.044   3.719   5.259
 2025SOL     OW 6616   0.865   2.210   3.919
 2025SOL    HW1 6617   0.924   2.273   3.870
 2025SOL    HW2 6618   0.884   2.116   3.890
 2026SOL     OW 6619   1.719   2.447   5.555
 2026SOL    HW1 6620   1.693   2.536   5.519
 2026SOL    HW2 6621   1.717   2.379   5.482
 2027SOL     OW 6622   1.362   3.006   4.269
 2027SOL    HW1 6623   1.445   2.977   4.221
 2027SOL    HW2 6624   1.313   3.073   4.213
 2028SOL     OW 6625   0.550   2.058   4.609
 2028SOL    HW1 6626   0.545   2.053   4.709
 2028SOL    HW2 6627   0.552   2.154   4.580
 2029SOL     OW 6628   1.008   3.318   4.201
 2029SOL    HW1 6629   0.962   3.390   4.149
 2029SOL    HW2 6630   1.004   3.338   4.299
 2030SOL     OW 6631   0.351   3.663   4.577
 2030SOL    HW1 6632   0.401   3.577   4.583
 2030SOL    HW2 6633   0.416   3.740   4.574
 2031SOL     OW 6634   1.795   2.928   4.597
 2031SOL    HW1 6635   1.733   2.913   4.521
 2031SOL    HW2 6636   1.743   2.939   4.682
 2032SOL     OW 6637   1.227   3.412   5.230
 2032SOL    HW1 6638   1.233   3.335   5.294
 2032SOL    HW2 6639   1.175   3.386   5.150
 2033SOL     OW 6640   0.321   2.805   3.966
 2033SOL    HW1 6641   0.403   2.844   3.924
 2033SOL    HW2 6642   0.294   2.723   3.917
 2034SOL     OW 6643   1.458   2.597   4.452
 2034SOL    HW1 6644   1.453   2.532   4.527
 2034SOL    HW2 6645   1.538   2.656   4.465
 2035SOL     OW 6646   0.461   3.128   5.451
 2035SOL    HW1 6647   0.411   3.129   5.365
 2035SOL    HW2 6648   0.398   3.110   5.527
 2036SOL     OW 6649   1.111   3.638   3.961
 2036SOL    HW1 6650   1.051   3.576   4.011
 2036SOL    HW2 6651   1.142   3.594   3.876
 2037SOL     OW 6652   0.202   2.147   5.222
 2037SOL    HW1 6653   0.122   2.207   5.209
 2037SOL    HW2 6654   0.192   2.098   5.308
 2038SOL     OW 6655   1.632   3.239   3.805
 2038SOL    HW1 6656   1.600   3.333   3.795
 2038SOL    HW2 6657   1.556   3.176   3.793
 2039SOL     OW 6658   0.464   3.605   4.047
 2039SOL    HW1 6659   0.497   3.644   4.133
 2039SOL    HW2 6660   0.540   3.598   3.982
 2040SOL     OW 6661   1.400   1.969   4.150
 2040SOL    HW1 6662   1.376   1.932   4.060
 2040SOL    HW2 6663   1.499   1.985   4.154
 2041SOL     OW 6664   0.249   3.647   4.965
 2041SOL    HW1 6665   0.306   3.582   5.015
 2041SOL    HW2 6666   0.233   3.614   4.872
 2042SOL     OW 6667   0.940   3.560   4.628
 2042SOL    HW1 6668   1.020   3.503   4.649
 2042SOL    HW2 6669   0.891   3.520   4.551
 2043SOL     OW 6670   0.382   2.562   4.204
 2043SOL    HW1 6671   0.427   2.472   4.201
 2043SOL    HW2 6672   0.288   2.551   4.237
 2044SOL     OW 6673   1.547   2.084   5.453
 2044SOL    HW1 6674   1.542   2.121   5.545
 2044SOL    HW2 6675   1.475   2.015   5.441
 2045SOL     OW 6676   0.614   1.984   3.841
 2045SOL    HW1 6677   0.712   1.962   3.848
 2045SOL    HW2 6678   0.583   1.967   3.748
 2046SOL     OW 6679   0.781   2.126   5.473
 2046SOL    HW1 6680   0.848   2.065   5.516
 2046SOL    HW2 6681   0.708   2.145   5.538
 2047SOL     OW 6682   0.888   3.376   4.919
 2047SOL    HW1 6683   0.865   3.351   4.825
 2047SOL    HW2 6684   0.949   3.307   4.958
 2048SOL     OW 6685   1.351   2.452   5.157
 2048SOL    HW1 6686   1.379   2.409   5.242
 2048SOL    HW2 6687   1.376   2.548   5.158
 2049SOL     OW 6688   0.803   3.264   4.648
 2049SOL    HW1 6689   0.893   3.278   4.606
 2049SOL    HW2 6690   0.732   3.266   4.577
 2050SOL     OW 6691   0.922   2.365   4.623
 2050SOL    HW1 6692   0.897   2.356   4.527
 2050SOL    HW2 6693   0.970   2.283   4.654
 2051SOL     OW 6694   0.539   1.926   4.236
 2051SOL    HW1 6695   0.458   1.927   4.294
 2051SOL    HW2 6696   0.542   2.009   4.181
 2052SOL     OW 6697   1.434   3.050   3.765
 2052SOL    HW1 6698   1.466   2.974   3.822
 2052SOL    HW2 6699   1.342   3.077   3.795
 2053SOL     OW 6700   0.297   1.897   3.895
 2053SOL    HW1 6701   0.346   1.981   3.874
 2053SOL    HW2 6702   0.359   1.832   3.940
 2054SOL     OW 6703   0.935   2.098   4.204
 2054SOL    HW1 6704   0.887   2.139   4.126
 2054SOL    HW2 6705   1.034   2.096   4.185
 2055SOL     OW 6706   1.076   2.545   5.188
 2055SOL    HW1 6707   0.996   2.484   5.191
 2055SOL    HW2 6708   1.157   2.492   5.164
 2056SOL     OW 6709   1.227   3.432   4.517
 2056SOL    HW1 6710   1.248   3.506   4.452
 2056SOL    HW2 6711   1.295   3.432   4.590
 2057SOL     OW 6712   0.459   3.014   4.465
 2057SOL    HW1 6713   0.388   2.987   4.530
 2057SOL    HW2 6714   0.433   2.986   4.372
 2058SOL     OW 6715   1.271   3.659   4.315
 2058SOL    HW1 6716   1.315   3.723   4.251
 2058SOL    HW2 6717   1.221   3.711   4.385
 2059SOL     OW 6718   1.032   2.411   3.740
 2059SOL    HW1 6719   0.991   2.493   3.701
 2059SOL    HW2 6720   1.096   2.437   3.813
 2060SOL     OW 6721   0.078   2.418   5.110
 2060SOL    HW1 6722   0.170   2.417   5.069
 2060SOL    HW2 6723   0.072   2.492   5.177
 2061SOL     OW 6724   0.561   2.084   4.871
 2061SOL    HW1 6725   0.599   2.000   4.908
 2061SOL    HW2 6726   0.473   2.103   4.915
 2062SOL     OW 6727   0.866   2.316   4.366
 2062SOL    HW1 6728   0.834   2.388   4.304
 2062SOL    HW2 6729   0.890   2.235   4.313
 2063SOL     OW 6730   1.017   1.901   4.477
 2063SOL    HW1 6731   0.945   1.906   4.408
 2063SOL    HW2 6732   0.993   1.832   4.546
 2064SOL     OW 6733   1.429   3.035   4.591
 2064SOL    HW1 6734   1.374   2.951   4.584
 2064SOL    HW2 6735   1.455   3.064   4.499
 2065SOL     OW 6736   1.466   2.452   4.716
 2065SOL    HW1 6737   1.436   2.357   4.723
 2065SOL    HW2 6738   1.539   2.468   4.782
 2066SOL     OW 6739   1.857   2.695   4.101
 2066SOL    HW1 6740   1.899   2.631   4.165
 2066SOL    HW2 6741   1.819   2.644   4.023
 2067SOL     OW 6742   0.488   3.247   3.898
 2067SOL    HW1 6743   0.401   3.232   3.945
 2067SOL    HW2 6744   0.471   3.273   3.803
 2068SOL     OW 6745   1.664   3.142   4.381
 2068SOL    HW1 6746   1.763   3.150   4.395
 2068SOL    HW2 6747   1.619   3.226   4.412
 2069SOL     OW 6748   1.390   2.437   3.802
 2069SOL    HW1 6749   1.336   2.416   3.883
 2069SOL    HW2 6750   1.481   2.396   3.811
 2070SOL     OW 6751   0.527   2.118   4.052
 2070SOL    HW1 6752   0.554   2.059   3.977
 2070SOL    HW2 6753   0.527   2.213   4.021
 2071SOL     OW 6754   1.754   3.085   5.312
 2071SOL    HW1 6755   1.845   3.046   5.299
 2071SOL    HW2 6756   1.762   3.181   5.336
 2072SOL     OW 6757   1.064   3.209   5.064
 2072SOL    HW1 6758   0.984   3.186   5.119
 2072SOL    HW2 6759   1.147   3.183   5.113
 2073SOL     OW 6760   1.592   3.491   5.349
 2073SOL    HW1 6761   1.619   3.525   5.259
 2073SOL    HW2 6762   1.671   3.453   5.395
 2074SOL     OW 6763   1.111   3.057   4.824
 2074SOL    HW1 6764   1.071   3.101   4.905
 2074SOL    HW2 6765   1.070   3.094   4.741
 2075SOL     OW 6766   1.638   2.961   4.803
 2075SOL    HW1 6767   1.643   3.042   4.862
 2075SOL    HW2 6768   1.552   2.963   4.752
 2076SOL     OW 6769   0.915   1.951   5.126
 2076SOL    HW1 6770   0.940   1.931   5.031
 2076SOL    HW2 6771   0.987   2.007   5.168
 2077SOL     OW 6772   0.980   2.978   5.443
 2077SOL    HW1 6773   0.881   2.984   5.453
 2077SOL    HW2 6774   1.003   2.898   5.387
 2078SOL     OW 6775   0.705   2.912   4.092
 2078SOL    HW1 6776   0.691   2.919   4.191
 2078SOL    HW2 6777   0.789   2.861   4.074
 2079SOL     OW 6778   0.410   2.675   4.975
 2079SOL    HW1 6779   0.496   2.687   5.025
 2079SOL    HW2 6780   0.368   2.588   5.002
 2080SOL     OW 6781   1.274   2.248   4.986
 2080SOL    HW1 6782   1.295   2.322   5.050
 2080SOL    HW2 6783   1.185   2.265   4.943
 2081SOL     OW 6784   0.064   3.426   5.055
 2081SOL    HW1 6785   0.018   3.508   5.021
 2081SOL    HW2 6786   0.162   3.445   5.064
 2082SOL     OW 6787   0.367   2.962   4.225
 2082SOL    HW1 6788   0.360   3.045   4.169
 2082SOL    HW2 6789   0.371   2.882   4.165
 2083SOL     OW 6790   0.566   2.399   4.589
 2083SOL    HW1 6791   0.578   2.465   4.515
 2083SOL    HW2 6792   0.612   2.433   4.672
 2084SOL     OW 6793   1.252   3.210   4.112
 2084SOL    HW1 6794   1.302   3.287   4.152
 2084SOL    HW2 6795   1.157   3.212   4.144
 2085SOL     OW 6796   1.272   3.307   4.866
 2085SOL    HW1 6797   1.319   3.320   4.953
 2085SOL    HW2 6798   1.206   3.233   4.875
 2086SOL     OW 6799   1.582   2.501   4.196
 2086SOL    HW1 6800   1.551   2.562   4.269
 2086SOL    HW2 6801   1.632   2.553   4.127
 2087SOL     OW 6802   0.354   3.372   5.053
 2087SOL    HW1 6803   0.333   3.328   4.966
 2087SOL    HW2 6804   0.451   3.398   5.056
 2088SOL     OW 6805   0.402   2.613   5.322
 2088SOL    HW1 6806   0.470   2.668   5.275
 2088SOL    HW2 6807   0.442   2.525   5.349
 2089SOL     OW 6808   1.587   2.641   5.394
 2089SOL    HW1 6809   1.495   2.679   5.389
 2089SOL    HW2 6810   1.647   2.688   5.329
 2090SOL     OW 6811   1.013   1.967   5.494
 2090SOL    HW1 6812   1.019   2.052   5.442
 2090SOL    HW2 6813   1.045   1.891   5.437
 2091SOL     OW 6814   0.504   1.912   5.464
 2091SOL    HW1 6815   0.462   1.855   5.394
 2091SOL    HW2 6816   0.438   1.981   5.496
 2092SOL     OW 6817   0.573   2.732   4.753
 2092SOL    HW1 6818   0.617   2.821   4.744
 2092SOL    HW2 6819   0.510   2.732   4.830
 2093SOL     OW 6820   1.360   2.724   4.769
 2093SOL    HW1 6821   1.285   2.724   4.703
 2093SOL    HW2 6822   1.397   2.632   4.778
 2094SOL     OW 6823   1.209   2.387   3.999
 2094SOL    HW1 6824   1.222   2.303   4.053
 2094SOL    HW2 6825   1.180   2.461   4.059
 2095SOL     OW 6826   0.307   2.075   4.955
 2095SOL    HW1 6827   0.284   2.112   5.045
 2095SOL    HW2 6828   0.277   1.980   4.949
 2096SOL     OW 6829   0.037   3.172   5.006
 2096SOL    HW1 6830   0.090   3.123   5.074
 2096SOL    HW2 6831   0.059   3.270   5.011
 2097SOL     OW 6832   0.732   2.496   4.788
 2097SOL    HW1 6833   0.791   2.470   4.712
 2097SOL    HW2 6834   0.704   2.592   4.777
 2098SOL     OW 6835   1.728   2.797   5.578
 2098SOL    HW1 6836   1.682   2.790   5.489
 2098SOL    HW2 6837   1.666   2.841   5.644
 2099SOL     OW 6838   0.307   1.925   4.342
 2099SOL    HW1 6839   0.296   2.019   4.375
 2099SOL    HW2 6840   0.302   1.862   4.419
 2100SOL     OW 6841   1.622   2.229   4.098
 2100SOL    HW1 6842   1.624   2.153   4.162
 2100SOL    HW2 6843   1.574   2.306   4.138
 2101SOL     OW 6844   1.023   2.628   4.690
 2101SOL    HW1 6845   1.038   2.649   4.786
 2101SOL    HW2 6846   0.993   2.533   4.681
 2102SOL     OW 6847   0.980   3.435   5.424
 2102SOL    HW1 6848   0.960   3.479   5.336
 2102SOL    HW2 6849   1.019   3.344   5.408
 2103SOL     OW 6850   1.859   3.380   5.329
 2103SOL    HW1 6851   1.873   3.407   5.234
 2103SOL    HW2 6852   1.942   3.402   5.382
 2104SOL     OW 6853   0.350   2.760   5.528
 2104SOL    HW1 6854   0.426   2.804   5.576
 2104SOL    HW2 6855   0.385   2.713   5.446
 2105SOL     OW 6856   1.540   2.136   3.849
 2105SOL    HW1 6857   1.479   2.061   3.872
 2105SOL    HW2 6858   1.562   2.188   3.932
 2106SOL     OW 6859   1.303   2.700   3.766
 2106SOL    HW1 6860   1.337   2.607   3.781
 2106SOL    HW2 6861   1.321   2.727   3.671
 2107SOL     OW 6862   1.068   3.195   4.573
 2107SOL    HW1 6863   1.075   3.111   4.518
 2107SOL    HW2 6864   1.130   3.264   4.537
 2108SOL     OW 6865   0.319   2.672   4.673
 2108SOL    HW1 6866   0.412   2.708   4.678
 2108SOL    HW2 6867   0.313   2.587   4.725
 2109SOL     OW 6868   0.339   2.371   4.730
 2109SOL    HW1 6869   0.287   2.288   4.713
 2109SOL    HW2 6870   0.416   2.376   4.666
 2110SOL     OW 6871   1.138   2.242   5.402
 2110SOL    HW1 6872   1.093   2.305   5.466
 2110SOL    HW2 6873   1.231   2.273   5.385
 2111SOL     OW 6874   1.160   2.069   5.201
 2111SOL    HW1 6875   1.160   2.133   5.278
 2111SOL    HW2 6876   1.188   2.117   5.118
 2112SOL     OW 6877   0.008   3.188   3.924
 2112SOL    HW1 6878  -0.085   3.209   3.893
 2112SOL    HW2 6879   0.018   3.089   3.937
 2113SOL     OW 6880   0.088   3.663   4.651
 2113SOL    HW1 6881   0.046   3.577   4.624
 2113SOL    HW2 6882   0.182   3.666   4.617
 2114SOL     OW 6883   0.504   3.430   4.634
 2114SOL    HW1 6884   0.570   3.504   4.643
 2114SOL    HW2 6885   0.548   3.351   4.592
 2115SOL     OW 6886   1.002   2.658   4.962
 2115SOL    HW1 6887   1.043   2.626   5.048
 2115SOL    HW2 6888   0.906   2.631   4.959
 2116SOL     OW 6889   0.040   2.406   4.838
 2116SOL    HW1 6890   0.125   2.373   4.797
 2116SOL    HW2 6891   0.053   2.421   4.936
 2117SOL     OW 6892   0.189   2.382   5.446
 2117SOL    HW1 6893   0.248   2.342   5.376
 2117SOL    HW2 6894   0.131   2.453   5.405
 2118SOL     OW 6895   1.369   2.812   5.384
 2118SOL    HW1 6896   1.408   2.901   5.404
 2118SOL    HW2 6897   1.379   2.792   5.287
 2119SOL     OW 6898   0.815   2.434   4.049
 2119SOL    HW1 6899   0.822   2.345   4.003
 2119SOL    HW2 6900   0.721   2.468   4.041
 2120SOL     OW 6901   1.657   2.466   4.930
 2120SOL    HW1 6902   1.619   2.397   4.992
 2120SOL    HW2 6903   1.739   2.430   4.886
 2121SOL     OW 6904   0.252   3.426   5.468
 2121SOL    HW1 6905   0.222   3.483   5.544
 2121SOL    HW2 6906   0.245   3.329   5.494
 2122SOL     OW 6907   0.671   2.326   4.993
 2122SOL    HW1 6908   0.637   2.237   4.963
 2122SOL    HW2 6909   0.697   2.380   4.913
 2123SOL     OW 6910   0.930   3.540   5.189
 2123SOL    HW1 6911   0.906   3.522   5.094
 2123SOL    HW2 6912   0.960   3.634   5.199
 2124SOL     OW 6913   0.473   2.362   3.915
 2124SOL    HW1 6914   0.534   2.442   3.919
 2124SOL    HW2 6915   0.378   2.393   3.922
 2125SOL     OW 6916   0.159   2.999   5.190
 2125SOL    HW1 6917   0.181   2.938   5.266
 2125SOL    HW2 6918   0.169   2.950   5.104
 2126SOL     OW 6919   1.347   2.921   4.958
 2126SOL    HW1 6920   1.371   2.858   4.884
 2126SOL    HW2 6921   1.257   2.961   4.940
 2127SOL     OW 6922   1.302   2.717   4.033
 2127SOL    HW1 6923   1.216   2.686   4.075
 2127SOL    HW2 6924   1.298   2.703   3.934
 2128SOL     OW 6925   1.759   3.609   4.878
 2128SOL    HW1 6926   1.820   3.639   4.805
 2128SOL    HW2 6927   1.721   3.520   4.856
 2129SOL     OW 6928   1.252   3.593   4.852
 2129SOL    HW1 6929   1.336   3.598   4.798
 2129SOL    HW2 6930   1.229   3.497   4.870
 2130SOL     OW 6931   0.083   3.120   4.746
 2130SOL    HW1 6932   0.078   3.119   4.846
 2130SOL    HW2 6933   0.000   3.079   4.708
 2131SOL     OW 6934   0.688   3.524   5.440
 2131SOL    HW1 6935   0.632   3.605   5.449
 2131SOL    HW2 6936   0.740   3.528   5.354
 2132SOL     OW 6937   1.388   3.435   4.201
 2132SOL    HW1 6938   1.455   3.447   4.127
 2132SOL    HW2 6939   1.348   3.524   4.224
 2133SOL     OW 6940   0.130   3.656   5.575
 2133SOL    HW1 6941   0.089   3.582   5.628
 2133SOL    HW2 6942   0.194   3.707   5.633
 2134SOL     OW 6943   1.280   2.789   4.396
 2134SOL    HW1 6944   1.340   2.708   4.398
 2134SOL    HW2 6945   1.320   2.858   4.336
 2135SOL     OW 6946   0.830   3.135   5.146
 2135SOL    HW1 6947   0.825   3.168   5.241
 2135SOL    HW2 6948   0.744   3.154   5.100
 2136SOL     OW 6949   0.672   3.478   3.878
 2136SOL    HW1 6950   0.681   3.488   3.779
 2136SOL    HW2 6951   0.632   3.389   3.899
 2137SOL     OW 6952   1.650   3.582   5.118
 2137SOL    HW1 6953   1.703   3.592   5.034
 2137SOL    HW2 6954   1.623   3.672   5.152
 2138SOL     OW 6955   0.263   2.188   4.444
 2138SOL    HW1 6956   0.184   2.239   4.410
 2138SOL    HW2 6957   0.254   2.173   4.542
 2139SOL     OW 6958   1.194   3.474   3.755
 2139SOL    HW1 6959   1.200   3.381   3.792
 2139SOL    HW2 6960   1.135   3.474   3.675
 2140SOL     OW 6961   0.822   2.864   5.096
 2140SOL    HW1 6962   0.862   2.863   5.004
 2140SOL    HW2 6963   0.832   2.956   5.136
 2141SOL     OW 6964   0.916   2.772   4.015
 2141SOL    HW1 6965   0.979   2.810   3.947
 2141SOL    HW2 6966   0.956   2.689   4.054
 2142SOL     OW 6967   1.504   3.469   3.768
 2142SOL    HW1 6968   1.412   3.506   3.775
 2142SOL    HW2 6969   1.542   3.489   3.678
 2143SOL     OW 6970   0.372   3.150   5.214
 2143SOL    HW1 6971   0.359   3.243   5.180
 2143SOL    HW2 6972   0.288   3.098   5.201
 2144SOL     OW 6973   1.614   3.154   5.013
 2144SOL    HW1 6974   1.674   3.157   5.093
 2144SOL    HW2 6975   1.539   3.218   5.026
 2145SOL     OW 6976   1.039   2.960   4.420
 2145SOL    HW1 6977   0.969   2.913   4.474
 2145SOL    HW2 6978   1.098   2.892   4.377
 2146SOL     OW 6979   1.014   2.098   4.695
 2146SOL    HW1 6980   1.006   2.062   4.602
 2146SOL    HW2 6981   1.012   2.022   4.760
 2147SOL     OW 6982   0.590   3.349   4.215
 2147SOL    HW1 6983   0.632   3.291   4.145
 2147SOL    HW2 6984   0.546   3.428   4.171
 2148SOL     OW 6985   1.709   2.247   5.105
 2148SOL    HW1 6986   1.782   2.316   5.109
 2148SOL    HW2 6987   1.737   2.172   5.046
 2149SOL     OW 6988   0.255   3.210   4.014
 2149SOL    HW1 6989   0.159   3.211   3.987
 2149SOL    HW2 6990   0.267   3.263   4.098
 2150SOL     OW 6991   0.105   2.875   5.450
 2150SOL    HW1 6992   0.028   2.842   5.504
 2150SOL    HW2 6993   0.190   2.845   5.492
 2151SOL     OW 6994   0.672   2.065   5.213
 2151SOL    HW1 6995   0.762   2.049   5.173
 2151SOL    HW2 6996   0.680   2.070   5.312
 2152SOL     OW 6997   0.075   2.207   3.757
 2152SOL    HW1 6998  -0.017   2.179   3.728
 2152SOL    HW2 6999   0.106   2.284   3.701
 2153SOL     OW 7000   1.440   2.718   5.122
 2153SOL    HW1 7001   1.383   2.770   5.059
 2153SOL    HW2 7002   1.536   2.730   5.098
 2154SOL     OW 7003   0.072   2.028   4.042
 2154SOL    HW1 7004   0.055   2.111   3.988
 2154SOL    HW2 7005   0.162   1.991   4.020
 2155SOL     OW 7006   1.183   3.197   3.843
 2155SOL    HW1 7007   1.084   3.186   3.845
 2155SOL    HW2 7008   1.217   3.212   3.936
 2156SOL     OW 7009   0.613   2.704   5.155
 2156SOL    HW1 7010   0.669   2.785   5.138
 2156SOL    HW2 7011   0.672   2.624   5.158
 2157SOL     OW 7012   1.493   3.629   4.683
 2157SOL    HW1 7013   1.526   3.693   4.614
 2157SOL    HW2 7014   1.559   3.623   4.758
 2158SOL     OW 7015   0.716   2.427   5.432
 2158SOL    HW1 7016   0.735   2.492   5.506
 2158SOL    HW2 7017   0.776   2.347   5.441
 2159SOL     OW 7018   1.450   3.082   5.357
 2159SOL    HW1 7019   1.441   3.072   5.456
 2159SOL    HW2 7020   1.546   3.075   5.331
 2160SOL     OW 7021   0.390   3.603   5.284
 2160SOL    HW1 7022   0.299   3.644   5.282
 2160SOL    HW2 7023   0.383   3.509   5.316
 2161SOL     OW 7024   1.674   2.745   4.978
 2161SOL    HW1 7025   1.647   2.656   4.941
 2161SOL    HW2 7026   1.675   2.813   4.905
 2162SOL     OW 7027   1.225   2.187   4.173
 2162SOL    HW1 7028   1.290   2.113   4.162
 2162SOL    HW2 7029   1.245   2.237   4.257
 2163SOL     OW 7030   0.594   2.607   4.376
 2163SOL    HW1 7031   0.644   2.692   4.357
 2163SOL    HW2 7032   0.506   2.609   4.328
 2164SOL     OW 7033   1.777   2.204   5.366
 2164SOL    HW1 7034   1.760   2.235   5.272
 2164SOL    HW2 7035   1.693   2.167   5.404
 2165SOL     OW 7036   1.730   2.796   5.241
 2165SOL    HW1 7037   1.768   2.887   5.256
 2165SOL    HW2 7038   1.722   2.779   5.142
 2166SOL     OW 7039   0.859   3.236   3.740
 2166SOL    HW1 7040   0.813   3.251   3.828
 2166SOL    HW2 7041   0.903   3.321   3.710
 2167SOL     OW 7042   0.661   3.652   4.677
 2167SOL    HW1 7043   0.615   3.740   4.664
 2167SOL    HW2 7044   0.760   3.664   4.670
 2168SOL     OW 7045   0.859   2.818   4.585
 2168SOL    HW1 7046   0.913   2.749   4.633
 2168SOL    HW2 7047   0.827   2.887   4.651
 2169SOL     OW 7048   1.083   2.846   3.811
 2169SOL    HW1 7049   1.060   2.899   3.729
 2169SOL    HW2 7050   1.164   2.790   3.792
 2170SOL     OW 7051   1.861   3.431   4.575
 2170SOL    HW1 7052   1.790   3.419   4.505
 2170SOL    HW2 7053   1.862   3.352   4.635
 2171SOL     OW 7054   0.221   3.176   5.568
 2171SOL    HW1 7055   0.156   3.103   5.547
 2171SOL    HW2 7056   0.225   3.190   5.666
 2172SOL     OW 7057   0.079   3.102   4.377
 2172SOL    HW1 7058   0.078   3.055   4.465
 2172SOL    HW2 7059   0.161   3.074   4.326
 2173SOL     OW 7060   0.672   3.253   5.348
 2173SOL    HW1 7061   0.594   3.203   5.386
 2173SOL    HW2 7062   0.669   3.348   5.379
 2174SOL     OW 7063   0.428   2.286   4.244
 2174SOL    HW1 7064   0.458   2.214   4.182
 2174SOL    HW2 7065   0.389   2.246   4.327
 2175SOL     OW 7066   1.705   3.349   4.828
 2175SOL    HW1 7067   1.612   3.324   4.801
 2175SOL    HW2 7068   1.731   3.299   4.910
 2176SOL     OW 7069   0.317   2.409   5.004
 2176SOL    HW1 7070   0.355   2.350   5.076
 2176SOL    HW2 7071   0.357   2.383   4.916
 2177SOL     OW 7072   0.812   3.448   4.411
 2177SOL    HW1 7073   0.844   3.458   4.317
 2177SOL    HW2 7074   0.733   3.386   4.413
 2178SOL     OW 7075   1.424   2.076   4.836
 2178SOL    HW1 7076   1.476   2.011   4.891
 2178SOL    HW2 7077   1.375   2.139   4.897
 2179SOL     OW 7078   1.001   1.896   4.878
 2179SOL    HW1 7079   0.938   1.824   4.847
 2179SOL    HW2 7080   1.094   1.860   4.878
 2180SOL     OW 7081   0.770   3.192   4.025
 2180SOL    HW1 7082   0.724   3.105   4.042
 2180SOL    HW2 7083   0.861   3.189   4.066
 2181SOL     OW 7084   0.618   3.429   5.008
 2181SOL    HW1 7085   0.613   3.511   5.065
 2181SOL    HW2 7086   0.707   3.426   4.963
 2182SOL     OW 7087   1.352   1.914   3.892
 2182SOL    HW1 7088   1.387   1.873   3.808
 2182SOL    HW2 7089   1.262   1.876   3.912
 2183SOL     OW 7090   1.300   2.315   4.415
 2183SOL    HW1 7091   1.241   2.395   4.419
 2183SOL    HW2 7092   1.315   2.280   4.508
 2184SOL     OW 7093   1.593   2.083   4.606
 2184SOL    HW1 7094   1.509   2.082   4.660
 2184SOL    HW2 7095   1.595   2.166   4.550
 2185SOL     OW 7096   0.039   2.939   4.024
 2185SOL    HW1 7097   0.138   2.928   4.015
 2185SOL    HW2 7098  -0.001   2.853   4.056
 2186SOL     OW 7099   0.875   3.508   4.061
 2186SOL    HW1 7100   0.798   3.473   4.007
 2186SOL    HW2 7101   0.843   3.579   4.123
 2187SOL     OW 7102   0.230   2.490   5.699
 2187SOL    HW1 7103   0.137   2.488   5.736
 2187SOL    HW2 7104   0.231   2.451   5.607
 2188SOL     OW 7105   0.225   2.137   6.582
 2188SOL    HW1 7106   0.260   2.120   6.674
 2188SOL    HW2 7107   0.137   2.092   6.570
 2189SOL     OW 7108   0.019   2.230   6.233
 2189SOL    HW1 7109  -0.063   2.273   6.272
 2189SOL    HW2 7110  -0.009   2.157   6.170
 2190SOL     OW 7111   0.569   3.137   6.751
 2190SOL    HW1 7112   0.476   3.130   6.714
 2190SOL    HW2 7113   0.580   3.226   6.795
 2191SOL     OW 7114   1.555   3.373   6.289
 2191SOL    HW1 7115   1.498   3.357   6.370
 2191SOL    HW2 7116   1.496   3.383   6.209
 2192SOL     OW 7117   1.135   2.565   6.303
 2192SOL    HW1 7118   1.192   2.643   6.278
 2192SOL    HW2 7119   1.075   2.591   6.379
 2193SOL     OW 7120   1.755   2.469   5.817
 2193SOL    HW1 7121   1.743   2.456   5.718
 2193SOL    HW2 7122   1.725   2.388   5.866
 2194SOL     OW 7123   0.768   3.006   6.609
 2194SOL    HW1 7124   0.690   3.023   6.669
 2194SOL    HW2 7125   0.802   3.093   6.573
 2195SOL     OW 7126   0.850   2.660   7.409
 2195SOL    HW1 7127   0.846   2.736   7.474
 2195SOL    HW2 7128   0.872   2.696   7.318
 2196SOL     OW 7129   0.685   2.874   6.251
 2196SOL    HW1 7130   0.754   2.858   6.321
 2196SOL    HW2 7131   0.612   2.931   6.289
 2197SOL     OW 7132   0.686   3.023   7.389
 2197SOL    HW1 7133   0.746   3.102   7.403
 2197SOL    HW2 7134   0.600   3.054   7.348
 2198SOL     OW 7135   0.335   3.297   6.647
 2198SOL    HW1 7136   0.257   3.266   6.594
 2198SOL    HW2 7137   0.393   3.355   6.590
 2199SOL     OW 7138   1.460   3.367   6.925
 2199SOL    HW1 7139   1.484   3.461   6.951
 2199SOL    HW2 7140   1.444   3.313   7.007
 2200SOL     OW 7141   0.438   2.254   7.085
 2200SOL    HW1 7142   0.520   2.198   7.094
 2200SOL    HW2 7143   0.357   2.196   7.089
 2201SOL     OW 7144   0.231   3.575   6.069
 2201SOL    HW1 7145   0.265   3.652   6.123
 2201SOL    HW2 7146   0.275   3.575   5.979
 2202SOL     OW 7147   1.127   3.203   7.276
 2202SOL    HW1 7148   1.174   3.203   7.364
 2202SOL    HW2 7149   1.079   3.116   7.265
 2203SOL     OW 7150   0.230   3.296   6.124
 2203SOL    HW1 7151   0.204   3.392   6.124
 2203SOL    HW2 7152   0.159   3.242   6.169
 2204SOL     OW 7153   0.240   2.953   6.472
 2204SOL    HW1 7154   0.254   2.869   6.524
 2204SOL    HW2 7155   0.185   3.017   6.527
 2205SOL     OW 7156   0.620   3.648   7.025
 2205SOL    HW1 7157   0.528   3.631   7.060
 2205SOL    HW2 7158   0.648   3.740   7.051
 2206SOL     OW 7159   0.606   2.826   5.709
 2206SOL    HW1 7160   0.613   2.910   5.655
 2206SOL    HW2 7161   0.652   2.839   5.797
 2207SOL     OW 7162   1.594   1.976   7.066
 2207SOL    HW1 7163   1.576   2.043   6.994
 2207SOL    HW2 7164   1.591   2.022   7.155
 2208SOL     OW 7165   0.122   2.505   6.149
 2208SOL    HW1 7166   0.077   2.417   6.166
 2208SOL    HW2 7167   0.121   2.559   6.233
 2209SOL     OW 7168   1.842   3.629   5.945
 2209SOL    HW1 7169   1.896   3.600   6.025
 2209SOL    HW2 7170   1.872   3.719   5.916
 2210SOL     OW 7171   0.027   3.458   5.703
 2210SOL    HW1 7172   0.008   3.362   5.724
 2210SOL    HW2 7173  -0.006   3.516   5.778
 2211SOL     OW 7174   1.689   2.784   6.198
 2211SOL    HW1 7175   1.784   2.755   6.206
 2211SOL    HW2 7176   1.681   2.849   6.123
 2212SOL     OW 7177   1.641   2.970   6.018
 2212SOL    HW1 7178   1.727   2.972   5.966
 2212SOL    HW2 7179   1.655   3.017   6.106
 2213SOL     OW 7180   0.113   2.599   7.183
 2213SOL    HW1 7181   0.201   2.586   7.228
 2213SOL    HW2 7182   0.100   2.696   7.161
 2214SOL     OW 7183   0.613   3.227   6.312
 2214SOL    HW1 7184   0.564   3.140   6.321
 2214SOL    HW2 7185   0.590   3.270   6.225
 2215SOL     OW 7186   1.293   3.090   7.009
 2215SOL    HW1 7187   1.330   3.017   6.951
 2215SOL    HW2 7188   1.345   3.095   7.094
 2216SOL     OW 7189   0.809   1.866   6.088
 2216SOL    HW1 7190   0.849   1.957   6.079
 2216SOL    HW2 7191   0.709   1.874   6.094
 2217SOL     OW 7192   0.197   2.838   6.850
 2217SOL    HW1 7193   0.286   2.793   6.836
 2217SOL    HW2 7194   0.124   2.773   6.831
 2218SOL     OW 7195   1.525   2.861   5.776
 2218SOL    HW1 7196   1.462   2.785   5.789
 2218SOL    HW2 7197   1.573   2.879   5.862
 2219SOL     OW 7198   1.187   3.654   7.202
 2219SOL    HW1 7199   1.211   3.714   7.126
 2219SOL    HW2 7200   1.194   3.559   7.172
 2220SOL     OW 7201   0.317   2.113   7.387
 2220SOL    HW1 7202   0.388   2.184   7.393
 2220SOL    HW2 7203   0.229   2.152   7.415
 2221SOL     OW 7204   1.466   3.279   6.539
 2221SOL    HW1 7205   1.407   3.285   6.619
 2221SOL    HW2 7206   1.451   3.191   6.493
 2222SOL     OW 7207   1.667   3.576   6.158
 2222SOL    HW1 7208   1.626   3.553   6.070
 2222SOL    HW2 7209   1.649   3.502   6.223
 2223SOL     OW 7210   0.598   2.591   5.856
 2223SOL    HW1 7211   0.622   2.660   5.788
 2223SOL    HW2 7212   0.520   2.624   5.910
 2224SOL     OW 7213   1.576   3.524   5.893
 2224SOL    HW1 7214   1.665   3.570   5.896
 2224SOL    HW2 7215   1.555   3.500   5.798
 2225SOL     OW 7216   0.807   2.467   7.051
 2225SOL    HW1 7217   0.760   2.464   7.140
 2225SOL    HW2 7218   0.756   2.412   6.985
 2226SOL     OW 7219   0.973   2.752   7.158
 2226SOL    HW1 7220   1.019   2.668   7.129
 2226SOL    HW2 7221   0.917   2.786   7.083
 2227SOL     OW 7222   0.991   2.272   6.828
 2227SOL    HW1 7223   0.914   2.306   6.882
 2227SOL    HW2 7224   0.957   2.221   6.749
 2228SOL     OW 7225   1.041   2.563   6.015
 2228SOL    HW1 7226   1.067   2.559   6.111
 2228SOL    HW2 7227   0.956   2.512   6.001
 2229SOL     OW 7228   0.076   2.673   6.375
 2229SOL    HW1 7229   0.175   2.661   6.384
 2229SOL    HW2 7230   0.052   2.768   6.396
 2230SOL     OW 7231   0.130   3.683   7.157
 2230SOL    HW1 7232   0.120   3.668   7.256
 2230SOL    HW2 7233   0.044   3.719   7.121
 2231SOL     OW 7234   0.865   2.210   5.781
 2231SOL    HW1 7235   0.924   2.273   5.732
 2231SOL    HW2 7236   0.884   2.116   5.752
 2232SOL     OW 7237   1.362   3.006   6.131
 2232SOL    HW1 7238   1.445   2.977   6.083
 2232SOL    HW2 7239   1.313   3.073   6.075
 2233SOL     OW 7240   0.550   2.058   6.471
 2233SOL    HW1 7241   0.545   2.053   6.571
 2233SOL    HW2 7242   0.552   2.154   6.442
 2234SOL     OW 7243   1.008   3.318   6.063
 2234SOL    HW1 7244   0.962   3.390   6.011
 2234SOL    HW2 7245   1.004   3.338   6.161
 2235SOL     OW 7246   0.351   3.663   6.439
 2235SOL    HW1 7247   0.401   3.577   6.445
 2235SOL    HW2 7248   0.416   3.740   6.436
 2236SOL     OW 7249   1.795   2.928   6.459
 2236SOL    HW1 7250   1.733   2.913   6.383
 2236SOL    HW2 7251   1.743   2.939   6.544
 2237SOL     OW 7252   1.227   3.412   7.092
 2237SOL    HW1 7253   1.233   3.335   7.156
 2237SOL    HW2 7254   1.175   3.386   7.012
 2238SOL     OW 7255   0.321   2.805   5.828
 2238SOL    HW1 7256   0.403   2.844   5.786
 2238SOL    HW2 7257   0.294   2.723   5.779
 2239SOL     OW 7258   0.461   3.128   7.313
 2239SOL    HW1 7259   0.411   3.129   7.227
 2239SOL    HW2 7260   0.398   3.110   7.389
 2240SOL     OW 7261   1.111   3.638   5.823
 2240SOL    HW1 7262   1.051   3.576   5.873
 2240SOL    HW2 7263   1.142   3.594   5.738
 2241SOL     OW 7264   0.202   2.147   7.084
 2241SOL    HW1 7265   0.122   2.207   7.071
 2241SOL    HW2 7266   0.192   2.098   7.170
 2242SOL     OW 7267   1.632   3.239   5.667
 2242SOL    HW1 7268   1.600   3.333   5.657
 2242SOL    HW2 7269   1.556   3.176   5.655
 2243SOL     OW 7270   0.464   3.605   5.909
 2243SOL    HW1 7271   0.497   3.644   5.995
 2243SOL    HW2 7272   0.540   3.598   5.844
 2244SOL     OW 7273   1.400   1.969   6.012
 2244SOL    HW1 7274   1.376   1.932   5.922
 2244SOL    HW2 7275   1.499   1.985   6.016
 2245SOL     OW 7276   0.249   3.647   6.827
 2245SOL    HW1 7277   0.306   3.582   6.877
 2245SOL    HW2 7278   0.233   3.614   6.734
 2246SOL     OW 7279   0.940   3.560   6.490
 2246SOL    HW1 7280   1.020   3.503   6.511
 2246SOL    HW2 7281   0.891   3.520   6.413
 2247SOL     OW 7282   0.382   2.562   6.066
 2247SOL    HW1 7283   0.427   2.472   6.063
 2247SOL    HW2 7284   0.288   2.551   6.099
 2248SOL     OW 7285   0.614   1.984   5.703
 2248SOL    HW1 7286   0.712   1.962   5.710
 2248SOL    HW2 7287   0.583   1.967   5.610
 2249SOL     OW 7288   0.781   2.126   7.335
 2249SOL    HW1 7289   0.848   2.065   7.378
 2249SOL    HW2 7290   0.708   2.145   7.400
 2250SOL     OW 7291   0.888   3.376   6.781
 2250SOL    HW1 7292   0.865   3.351   6.687
 2250SOL    HW2 7293   0.949   3.307   6.820
 2251SOL     OW 7294   0.803   3.264   6.510
 2251SOL    HW1 7295   0.893   3.278   6.468
 2251SOL    HW2 7296   0.732   3.266   6.439
 2252SOL     OW 7297   0.922   2.365   6.485
 2252SOL    HW1 7298   0.897   2.356   6.389
 2252SOL    HW2 7299   0.970   2.283   6.516
 2253SOL     OW 7300   0.539   1.926   6.098
 2253SOL    HW1 7301   0.458   1.927   6.156
 2253SOL    HW2 7302   0.542   2.009   6.043
 2254SOL     OW 7303   1.434   3.050   5.627
 2254SOL    HW1 7304   1.466   2.974   5.684
 2254SOL    HW2 7305   1.342   3.077   5.657
 2255SOL     OW 7306   0.297   1.897   5.757
 2255SOL    HW1 7307   0.346   1.981   5.736
 2255SOL    HW2 7308   0.359   1.832   5.802
 2256SOL     OW 7309   0.935   2.098   6.066
 2256SOL    HW1 7310   0.887   2.139   5.988
 2256SOL    HW2 7311   1.034   2.096   6.047
 2257SOL     OW 7312   1.076   2.545   7.050
 2257SOL    HW1 7313   0.996   2.484   7.053
 2257SOL    HW2 7314   1.157   2.492   7.026
 2258SOL     OW 7315   1.227   3.432   6.379
 2258SOL    HW1 7316   1.248   3.506   6.314
 2258SOL    HW2 7317   1.295   3.432   6.452
 2259SOL     OW 7318   0.459   3.014   6.327
 2259SOL    HW1 7319   0.388   2.987   6.392
 2259SOL    HW2 7320   0.433   2.986   6.234
 2260SOL     OW 7321   1.271   3.659   6.177
 2260SOL    HW1 7322   1.315   3.723   6.113
 2260SOL    HW2 7323   1.221   3.711   6.247
 2261SOL     OW 7324   1.032   2.411   5.602
 2261SOL    HW1 7325   0.991   2.493   5.563
 2261SOL    HW2 7326   1.096   2.437   5.675
 2262SOL     OW 7327   0.078   2.418   6.972
 2262SOL    HW1 7328   0.170   2.417   6.931
 2262SOL    HW2 7329   0.072   2.492   7.039
 2263SOL     OW 7330   0.561   2.084   6.733
 2263SOL    HW1 7331   0.599   2.000   6.770
 2263SOL    HW2 7332   0.473   2.103   6.777
 2264SOL     OW 7333   0.866   2.316   6.228
 2264SOL    HW1 7334   0.834   2.388   6.166
 2264SOL    HW2 7335   0.890   2.235   6.175
 2265SOL     OW 7336   1.017   1.901   6.339
 2265SOL    HW1 7337   0.945   1.906   6.270
 2265SOL    HW2 7338   0.993   1.832   6.408
 2266SOL     OW 7339   1.429   3.035   6.453
 2266SOL    HW1 7340   1.374   2.951   6.446
 2266SOL    HW2 7341   1.455   3.064   6.361
 2267SOL     OW 7342   0.488   3.247   5.760
 2267SOL    HW1 7343   0.401   3.232   5.807
 2267SOL    HW2 7344   0.471   3.273   5.665
 2268SOL     OW 7345   1.664   3.142   6.243
 2268SOL    HW1 7346   1.763   3.150   6.257
 2268SOL    HW2 7347   1.619   3.226   6.274
 2269SOL     OW 7348   1.390   2.437   5.664
 2269SOL    HW1 7349   1.336   2.416   5.745
 2269SOL    HW2 7350   1.481   2.396   5.673
 2270SOL     OW 7351   0.527   2.118   5.914
 2270SOL    HW1 7352   0.554   2.059   5.839
 2270SOL    HW2 7353   0.527   2.213   5.883
 2271SOL     OW 7354   1.754   3.085   7.174
 2271SOL    HW1 7355   1.845   3.046   7.161
 2271SOL    HW2 7356   1.762   3.181   7.198
 2272SOL     OW 7357   1.064   3.209   6.926
 2272SOL    HW1 7358   0.984   3.186   6.981
 2272SOL    HW2 7359   1.147   3.183   6.975
 2273SOL     OW 7360   1.592   3.491   7.211
 2273SOL    HW1 7361   1.619   3.525   7.121
 2273SOL    HW2 7362   1.671   3.453   7.257
 2274SOL     OW 7363   1.111   3.057   6.686
 2274SOL    HW1 7364   1.071   3.101   6.767
 2274SOL    HW2 7365   1.070   3.094   6.603
 2275SOL     OW 7366   1.638   2.961   6.665
 2275SOL    HW1 7367   1.643   3.042   6.724
 2275SOL    HW2 7368   1.552   2.963   6.614
 2276SOL     OW 7369   0.915   1.951   6.988
 2276SOL    HW1 7370   0.940   1.931   6.893
 2276SOL    HW2 7371   0.987   2.007   7.030
 2277SOL     OW 7372   0.980   2.978   7.305
 2277SOL    HW1 7373   0.881   2.984   7.315
 2277SOL    HW2 7374   1.003   2.898   7.249
 2278SOL     OW 7375   0.705   2.912   5.954
 2278SOL    HW1 7376   0.691   2.919   6.053
 2278SOL    HW2 7377   0.789   2.861   5.936
 2279SOL     OW 7378   0.410   2.675   6.837
 2279SOL    HW1 7379   0.496   2.687   6.887
 2279SOL    HW2 7380   0.368   2.588   6.864
 2280SOL     OW 7381   0.064   3.426   6.917
 2280SOL    HW1 7382   0.018   3.508   6.883
 2280SOL    HW2 7383   0.162   3.445   6.926
 2281SOL     OW 7384   0.367   2.962   6.087
 2281SOL    HW1 7385   0.360   3.045   6.031
 2281SOL    HW2 7386   0.371   2.882   6.027
 2282SOL     OW 7387   0.566   2.399   6.451
 2282SOL    HW1 7388   0.578   2.465   6.377
 2282SOL    HW2 7389   0.612   2.433   6.534
 2283SOL     OW 7390   1.252   3.210   5.974
 2283SOL    HW1 7391   1.302   3.287   6.014
 2283SOL    HW2 7392   1.157   3.212   6.006
 2284SOL     OW 7393   1.272   3.307   6.728
 2284SOL    HW1 7394   1.319   3.320   6.815
 2284SOL    HW2 7395   1.206   3.233   6.737
 2285SOL     OW 7396   0.354   3.372   6.915
 2285SOL    HW1 7397   0.333   3.328   6.828
 2285SOL    HW2 7398   0.451   3.398   6.918
 2286SOL     OW 7399   0.402   2.613   7.184
 2286SOL    HW1 7400   0.470   2.668   7.137
 2286SOL    HW2 7401   0.442   2.525   7.211
 2287SOL     OW 7402   1.013   1.967   7.356
 2287SOL    HW1 7403   1.019   2.052   7.304
 2287SOL    HW2 7404   1.045   1.891   7.299
 2288SOL     OW 7405   0.504   1.912   7.326
 2288SOL    HW1 7406   0.462   1.855   7.256
 2288SOL    HW2 7407   0.438   1.981   7.358
 2289SOL     OW 7408   0.573   2.732   6.615
 2289SOL    HW1 7409   0.617   2.821   6.606
 2289SOL    HW2 7410   0.510   2.732   6.692
 2290SOL     OW 7411   1.360   2.724   6.631
 2290SOL    HW1 7412   1.285   2.724   6.565
 2290SOL    HW2 7413   1.397   2.632   6.640
 2291SOL     OW 7414   1.209   2.387   5.861
 2291SOL    HW1 7415   1.222   2.303   5.915
 2291SOL    HW2 7416   1.180   2.461   5.921
 2292SOL     OW 7417   0.307   2.075   6.817
 2292SOL    HW1 7418   0.284   2.112   6.907
 2292SOL    HW2 7419   0.277   1.980   6.811
 2293SOL     OW 7420   0.037   3.172   6.868
 2293SOL    HW1 7421   0.090   3.123   6.936
 2293SOL    HW2 7422   0.059   3.270   6.873
 2294SOL     OW 7423   0.732   2.496   6.650
 2294SOL    HW1 7424   0.791   2.470   6.574
 2294SOL    HW2 7425   0.704   2.592   6.639
 2295SOL     OW 7426   0.307   1.925   6.204
 2295SOL    HW1 7427   0.296   2.019   6.237
 2295SOL    HW2 7428   0.302   1.862   6.281
 2296SOL     OW 7429   1.622   2.229   5.960
 2296SOL    HW1 7430   1.624   2.153   6.024
 2296SOL    HW2 7431   1.574   2.306   6.000
 2297SOL     OW 7432   1.023   2.628   6.552
 2297SOL    HW1 7433   1.038   2.649   6.648
 2297SOL    HW2 7434   0.993   2.533   6.543
 2298SOL     OW 7435   0.980   3.435   7.286
 2298SOL    HW1 7436   0.960   3.479   7.198
 2298SOL    HW2 7437   1.019   3.344   7.270
 2299SOL     OW 7438   1.859   3.380   7.191
 2299SOL    HW1 7439   1.873   3.407   7.096
 2299SOL    HW2 7440   1.942   3.402   7.244
 2300SOL     OW 7441   0.350   2.760   7.390
 2300SOL    HW1 7442   0.426   2.804   7.438
 2300SOL    HW2 7443   0.385   2.713   7.308
 2301SOL     OW 7444   1.540   2.136   5.711
 2301SOL    HW1 7445   1.479   2.061   5.734
 2301SOL    HW2 7446   1.562   2.188   5.794
 2302SOL     OW 7447   1.303   2.700   5.628
 2302SOL    HW1 7448   1.337   2.607   5.643
 2302SOL    HW2 7449   1.321   2.727   5.533
 2303SOL     OW 7450   1.068   3.195   6.435
 2303SOL    HW1 7451   1.075   3.111   6.380
 2303SOL    HW2 7452   1.130   3.264   6.399
 2304SOL     OW 7453   0.319   2.672   6.535
 2304SOL    HW1 7454   0.412   2.708   6.540
 2304SOL    HW2 7455   0.313   2.587   6.587
 2305SOL     OW 7456   0.339   2.371   6.592
 2305SOL    HW1 7457   0.287   2.288   6.575
 2305SOL    HW2 7458   0.416   2.376   6.528
 2306SOL     OW 7459   1.160   2.069   7.063
 2306SOL    HW1 7460   1.160   2.133   7.140
 2306SOL    HW2 7461   1.188   2.117   6.980
 2307SOL     OW 7462   0.008   3.188   5.786
 2307SOL    HW1 7463  -0.085   3.209   5.755
 2307SOL    HW2 7464   0.018   3.089   5.799
 2308SOL     OW 7465   0.088   3.663   6.513
 2308SOL    HW1 7466   0.046   3.577   6.486
 2308SOL    HW2 7467   0.182   3.666   6.479
 2309SOL     OW 7468   0.504   3.430   6.496
 2309SOL    HW1 7469   0.570   3.504   6.505
 2309SOL    HW2 7470   0.548   3.351   6.454
 2310SOL     OW 7471   1.002   2.658   6.824
 2310SOL    HW1 7472   1.043   2.626   6.910
 2310SOL    HW2 7473   0.906   2.631   6.821
 2311SOL     OW 7474   0.040   2.406   6.700
 2311SOL    HW1 7475   0.125   2.373   6.659
 2311SOL    HW2 7476   0.053   2.421   6.798
 2312SOL     OW 7477   0.189   2.382   7.308
 2312SOL    HW1 7478   0.248   2.342   7.238
 2312SOL    HW2 7479   0.131   2.453   7.267
 2313SOL     OW 7480   1.369   2.812   7.246
 2313SOL    HW1 7481   1.408   2.901   7.266
 2313SOL    HW2 7482   1.379   2.792   7.149
 2314SOL     OW 7483   0.815   2.434   5.911
 2314SOL    HW1 7484   0.822   2.345   5.865
 2314SOL    HW2 7485   0.721   2.468   5.903
 2315SOL     OW 7486   0.252   3.426   7.330
 2315SOL    HW1 7487   0.222   3.483   7.406
 2315SOL    HW2 7488   0.245   3.329   7.356
 2316SOL     OW 7489   0.671   2.326   6.855
 2316SOL    HW1 7490   0.637   2.237   6.825
 2316SOL    HW2 7491   0.697   2.380   6.775
 2317SOL     OW 7492   0.930   3.540   7.051
 2317SOL    HW1 7493   0.906   3.522   6.956
 2317SOL    HW2 7494   0.960   3.634   7.061
 2318SOL     OW 7495   0.473   2.362   5.777
 2318SOL    HW1 7496   0.534   2.442   5.781
 2318SOL    HW2 7497   0.378   2.393   5.784
 2319SOL     OW 7498   0.159   2.999   7.052
 2319SOL    HW1 7499   0.181   2.938   7.128
 2319SOL    HW2 7500   0.169   2.950   6.966
 2320SOL     OW 7501   1.347   2.921   6.820
 2320SOL    HW1 7502   1.371   2.858   6.746
 2320SOL    HW2 7503   1.257   2.961   6.802
 2321SOL     OW 7504   1.302   2.717   5.895
 2321SOL    HW1 7505   1.216   2.686   5.937
 2321SOL    HW2 7506   1.298   2.703   5.796
 2322SOL     OW 7507   1.759   3.609   6.740
 2322SOL    HW1 7508   1.820   3.639   6.667
 2322SOL    HW2 7509   1.721   3.520   6.718
 2323SOL     OW 7510   1.252   3.593   6.714
 2323SOL    HW1 7511   1.336   3.598   6.660
 2323SOL    HW2 7512   1.229   3.497   6.732
 2324SOL     OW 7513   0.083   3.120   6.608
 2324SOL    HW1 7514   0.078   3.119   6.708
 2324SOL    HW2 7515   0.000   3.079   6.570
 2325SOL     OW 7516   0.688   3.524   7.302
 2325SOL    HW1 7517   0.632   3.605   7.311
 2325SOL    HW2 7518   0.740   3.528   7.216
 2326SOL     OW 7519   1.726   1.997   6.109
 2326SOL    HW1 7520   1.799   1.980   6.042
 2326SOL    HW2 7521   1.695   1.910   6.147
 2327SOL     OW 7522   1.388   3.435   6.063
 2327SOL    HW1 7523   1.455   3.447   5.989
 2327SOL    HW2 7524   1.348   3.524   6.086
 2328SOL     OW 7525   0.130   3.656   7.437
 2328SOL    HW1 7526   0.089   3.582   7.490
 2328SOL    HW2 7527   0.194   3.707   7.495
 2329SOL     OW 7528   1.280   2.789   6.258
 2329SOL    HW1 7529   1.340   2.708   6.260
 2329SOL    HW2 7530   1.320   2.858   6.198
 2330SOL     OW 7531   0.830   3.135   7.008
 2330SOL    HW1 7532   0.825   3.168   7.103
 2330SOL    HW2 7533   0.744   3.154   6.962
 2331SOL     OW 7534   0.672   3.478   5.740
 2331SOL    HW1 7535   0.681   3.488   5.641
 2331SOL    HW2 7536   0.632   3.389   5.761
 2332SOL     OW 7537   1.650   3.582   6.980
 2332SOL    HW1 7538   1.703   3.592   6.896
 2332SOL    HW2 7539   1.623   3.672   7.014
 2333SOL     OW 7540   0.263   2.188   6.306
 2333SOL    HW1 7541   0.184   2.239   6.272
 2333SOL    HW2 7542   0.254   2.173   6.404
 2334SOL     OW 7543   1.194   3.474   5.617
 2334SOL    HW1 7544   1.200   3.381   5.654
 2334SOL    HW2 7545   1.135   3.474   5.537
 2335SOL     OW 7546   0.822   2.864   6.958
 2335SOL    HW1 7547   0.862   2.863   6.866
 2335SOL    HW2 7548   0.832   2.956   6.998
 2336SOL     OW 7549   0.916   2.772   5.877
 2336SOL    HW1 7550   0.979   2.810   5.809
 2336SOL    HW2 7551   0.956   2.689   5.916
 2337SOL     OW 7552   1.504   3.469   5.630
 2337SOL    HW1 7553   1.412   3.506   5.637
 2337SOL    HW2 7554   1.542   3.489   5.540
 2338SOL     OW 7555   0.372   3.150   7.076
 2338SOL    HW1 7556   0.359   3.243   7.042
 2338SOL    HW2 7557   0.288   3.098   7.063
 2339SOL     OW 7558   1.614   3.154   6.875
 2339SOL    HW1 7559   1.674   3.157   6.955
 2339SOL    HW2 7560   1.539   3.218   6.888
 2340SOL     OW 7561   1.039   2.960   6.282
 2340SOL    HW1 7562   0.969   2.913   6.336
 2340SOL    HW2 7563   1.098   2.892   6.239
 2341SOL     OW 7564   1.014   2.098   6.557
 2341SOL    HW1 7565   1.006   2.062   6.464
 2341SOL    HW2 7566   1.012   2.022   6.622
 2342SOL     OW 7567   0.590   3.349   6.077
 2342SOL    HW1 7568   0.632   3.291   6.007
 2342SOL    HW2 7569   0.546   3.428   6.033
 2343SOL     OW 7570   1.709   2.247   6.967
 2343SOL    HW1 7571   1.782   2.316   6.971
 2343SOL    HW2 7572   1.737   2.172   6.908
 2344SOL     OW 7573   0.255   3.210   5.876
 2344SOL    HW1 7574   0.159   3.211   5.849
 2344SOL    HW2 7575   0.267   3.263   5.960
 2345SOL     OW 7576   0.105   2.875   7.312
 2345SOL    HW1 7577   0.028   2.842   7.366
 2345SOL    HW2 7578   0.190   2.845   7.354
 2346SOL     OW 7579   0.672   2.065   7.075
 2346SOL    HW1 7580   0.762   2.049   7.035
 2346SOL    HW2 7581   0.680   2.070   7.174
 2347SOL     OW 7582   0.075   2.207   5.619
 2347SOL    HW1 7583  -0.017   2.179   5.590
 2347SOL    HW2 7584   0.106   2.284   5.563
 2348SOL     OW 7585   1.440   2.718   6.984
 2348SOL    HW1 7586   1.383   2.770   6.921
 2348SOL    HW2 7587   1.536   2.730   6.960
 2349SOL     OW 7588   0.072   2.028   5.904
 2349SOL    HW1 7589   0.055   2.111   5.850
 2349SOL    HW2 7590   0.162   1.991   5.882
 2350SOL     OW 7591   1.183   3.197   5.705
 2350SOL    HW1 7592   1.084   3.186   5.707
 2350SOL    HW2 7593   1.217   3.212   5.798
 2351SOL     OW 7594   0.613   2.704   7.017
 2351SOL    HW1 7595   0.669   2.785   7.000
 2351SOL    HW2 7596   0.672   2.624   7.020
 2352SOL     OW 7597   1.493   3.629   6.545
 2352SOL    HW1 7598   1.526   3.693   6.476
 2352SOL    HW2 7599   1.559   3.623   6.620
 2353SOL     OW 7600   0.716   2.427   7.294
 2353SOL    HW1 7601   0.735   2.492   7.368
 2353SOL    HW2 7602   0.776   2.347   7.303
 2354SOL     OW 7603   1.450   3.082   7.219
 2354SOL    HW1 7604   1.441   3.072   7.318
 2354SOL    HW2 7605   1.546   3.075   7.193
 2355SOL     OW 7606   0.390   3.603   7.146
 2355SOL    HW1 7607   0.299   3.644   7.144
 2355SOL    HW2 7608   0.383   3.509   7.178
 2356SOL     OW 7609   1.225   2.187   6.035
 2356SOL    HW1 7610   1.290   2.113   6.024
 2356SOL    HW2 7611   1.245   2.237   6.119
 2357SOL     OW 7612   0.594   2.607   6.238
 2357SOL    HW1 7613   0.644   2.692   6.219
 2357SOL    HW2 7614   0.506   2.609   6.190
 2358SOL     OW 7615   1.777   2.204   7.228
 2358SOL    HW1 7616   1.760   2.235   7.134
 2358SOL    HW2 7617   1.693   2.167   7.266
 2359SOL     OW 7618   1.730   2.796   7.103
 2359SOL    HW1 7619   1.768   2.887   7.118
 2359SOL    HW2 7620   1.722   2.779   7.004
 2360SOL     OW 7621   0.859   3.236   5.602
 2360SOL    HW1 7622   0.813   3.251   5.690
 2360SOL    HW2 7623   0.903   3.321   5.572
 2361SOL     OW 7624   0.661   3.652   6.539
 2361SOL    HW1 7625   0.615   3.740   6.526
 2361SOL    HW2 7626   0.760   3.664   6.532
 2362SOL     OW 7627   0.859   2.818   6.447
 2362SOL    HW1 7628   0.913   2.749   6.495
 2362SOL    HW2 7629   0.827   2.887   6.513
 2363SOL     OW 7630   1.083   2.846   5.673
 2363SOL    HW1 7631   1.060   2.899   5.591
 2363SOL    HW2 7632   1.164   2.790   5.654
 2364SOL     OW 7633   1.861   3.431   6.437
 2364SOL    HW1 7634   1.790   3.419   6.367
 2364SOL    HW2 7635   1.862   3.352   6.497
 2365SOL     OW 7636   0.221   3.176   7.430
 2365SOL    HW1 7637   0.156   3.103   7.409
 2365SOL    HW2 7638   0.225   3.190   7.528
 2366SOL     OW 7639   0.079   3.102   6.239
 2366SOL    HW1 7640   0.078   3.055   6.327
 2366SOL    HW2 7641   0.161   3.074   6.188
 2367SOL     OW 7642   0.672   3.253   7.210
 2367SOL    HW1 7643   0.594   3.203   7.248
 2367SOL    HW2 7644   0.669   3.348   7.241
 2368SOL     OW 7645   0.428   2.286   6.106
 2368SOL    HW1 7646   0.458   2.214   6.044
 2368SOL    HW2 7647   0.389   2.246   6.189
 2369SOL     OW 7648   1.705   3.349   6.690
 2369SOL    HW1 7649   1.612   3.324   6.663
 2369SOL    HW2 7650   1.731   3.299   6.772
 2370SOL     OW 7651   0.317   2.409   6.866
 2370SOL    HW1 7652   0.355   2.350   6.938
 2370SOL    HW2 7653   0.357   2.383   6.778
 2371SOL     OW 7654   0.812   3.448   6.273
 2371SOL    HW1 7655   0.844   3.458   6.179
 2371SOL    HW2 7656   0.733   3.386   6.275
 2372SOL     OW 7657   1.001   1.896   6.740
 2372SOL    HW1 7658   0.938   1.824   6.709
 2372SOL    HW2 7659   1.094   1.860   6.740
 2373SOL     OW 7660   0.770   3.192   5.887
 2373SOL    HW1 7661   0.724   3.105   5.904
 2373SOL    HW2 7662   0.861   3.189   5.928
 2374SOL     OW 7663   0.618   3.429   6.870
 2374SOL    HW1 7664   0.613   3.511   6.927
 2374SOL    HW2 7665   0.707   3.426   6.825
 2375SOL     OW 7666   1.352   1.914   5.754
 2375SOL    HW1 7667   1.387   1.873   5.670
 2375SOL    HW2 7668   1.262   1.876   5.774
 2376SOL     OW 7669   0.039   2.939   5.886
 2376SOL    HW1 7670   0.138   2.928   5.877
 2376SOL    HW2 7671  -0.001   2.853   5.918
 2377SOL     OW 7672   0.875   3.508   5.923
 2377SOL    HW1 7673   0.798   3.473   5.869
 2377SOL    HW2 7674   0.843   3.579   5.985
 2378SOL     OW 7675   0.230   2.490   7.561
 2378SOL    HW1 7676   0.137   2.488   7.598
 2378SOL    HW2 7677   0.231   2.451   7.469
 2379SOL     OW 7678   0.225   2.137   8.444
 2379SOL    HW1 7679   0.260   2.120   8.536
 2379SOL    HW2 7680   0.137   2.092   8.432
 2380SOL     OW 7681   0.019   2.230   8.095
 2380SOL    HW1 7682  -0.063   2.273   8.134
 2380SOL    HW2 7683  -0.009   2.157   8.032
 2381SOL     OW 7684   0.569   3.137   8.613
 2381SOL    HW1 7685   0.476   3.130   8.576
 2381SOL    HW2 7686   0.580   3.226   8.657
 2382SOL     OW 7687   1.555   3.373   8.151
 2382SOL    HW1 7688   1.498   3.357   8.232
 2382SOL    HW2 7689   1.496   3.383   8.071
 2383SOL     OW 7690   1.135   2.565   8.165
 2383SOL    HW1 7691   1.192   2.643   8.140
 2383SOL    HW2 7692   1.075   2.591   8.241
 2384SOL     OW 7693   0.768   3.006   8.471
 2384SOL    HW1 7694   0.690   3.023   8.531
 2384SOL    HW2 7695   0.802   3.093   8.435
 2385SOL     OW 7696   0.850   2.660   9.271
 2385SOL    HW1 7697   0.846   2.736   9.336
 2385SOL    HW2 7698   0.872   2.696   9.180
 2386SOL     OW 7699   0.685   2.874   8.113
 2386SOL    HW1 7700   0.754   2.858   8.183
 2386SOL    HW2 7701   0.612   2.931   8.151
 2387SOL     OW 7702   0.686   3.023   9.251
 2387SOL    HW1 7703   0.746   3.102   9.265
 2387SOL    HW2 7704   0.600   3.054   9.210
 2388SOL     OW 7705   0.335   3.297   8.509
 2388SOL    HW1 7706   0.257   3.266   8.456
 2388SOL    HW2 7707   0.393   3.355   8.452
 2389SOL     OW 7708   1.460   3.367   8.787
 2389SOL    HW1 7709   1.484   3.461   8.813
 2389SOL    HW2 7710   1.444   3.313   8.869
 2390SOL     OW 7711   0.438   2.254   8.947
 2390SOL    HW1 7712   0.520   2.198   8.956
 2390SOL    HW2 7713   0.357   2.196   8.951
 2391SOL     OW 7714   1.603   2.309   8.185
 2391SOL    HW1 7715   1.529   2.355   8.135
 2391SOL    HW2 7716   1.654   2.377   8.238
 2392SOL     OW 7717   0.231   3.575   7.931
 2392SOL    HW1 7718   0.265   3.652   7.985
 2392SOL    HW2 7719   0.275   3.575   7.841
 2393SOL     OW 7720   1.127   3.203   9.138
 2393SOL    HW1 7721   1.174   3.203   9.226
 2393SOL    HW2 7722   1.079   3.116   9.127
 2394SOL     OW 7723   0.230   3.296   7.986
 2394SOL    HW1 7724   0.204   3.392   7.986
 2394SOL    HW2 7725   0.159   3.242   8.031
 2395SOL     OW 7726   0.240   2.953   8.334
 2395SOL    HW1 7727   0.254   2.869   8.386
 2395SOL    HW2 7728   0.185   3.017   8.389
 2396SOL     OW 7729   0.620   3.648   8.887
 2396SOL    HW1 7730   0.528   3.631   8.922
 2396SOL    HW2 7731   0.648   3.740   8.913
 2397SOL     OW 7732   0.606   2.826   7.571
 2397SOL    HW1 7733   0.613   2.910   7.517
 2397SOL    HW2 7734   0.652   2.839   7.659
 2398SOL     OW 7735   1.594   1.976   8.928
 2398SOL    HW1 7736   1.576   2.043   8.856
 2398SOL    HW2 7737   1.591   2.022   9.017
 2399SOL     OW 7738   0.122   2.505   8.011
 2399SOL    HW1 7739   0.077   2.417   8.028
 2399SOL    HW2 7740   0.121   2.559   8.095
 2400SOL     OW 7741   1.842   3.629   7.807
 2400SOL    HW1 7742   1.896   3.600   7.887
 2400SOL    HW2 7743   1.872   3.719   7.778
 2401SOL     OW 7744   0.027   3.458   7.565
 2401SOL    HW1 7745   0.008   3.362   7.586
 2401SOL    HW2 7746  -0.006   3.516   7.640
 2402SOL     OW 7747   1.689   2.784   8.060
 2402SOL    HW1 7748   1.784   2.755   8.068
 2402SOL    HW2 7749   1.681   2.849   7.985
 2403SOL     OW 7750   1.641   2.970   7.880
 2403SOL    HW1 7751   1.727   2.972   7.828
 2403SOL    HW2 7752   1.655   3.017   7.968
 2404SOL     OW 7753   0.113   2.599   9.045
 2404SOL    HW1 7754   0.201   2.586   9.090
 2404SOL    HW2 7755   0.100   2.696   9.023
 2405SOL     OW 7756   0.613   3.227   8.174
 2405SOL    HW1 7757   0.564   3.140   8.183
 2405SOL    HW2 7758   0.590   3.270   8.087
 2406SOL     OW 7759   1.293   3.090   8.871
 2406SOL    HW1 7760   1.330   3.017   8.813
 2406SOL    HW2 7761   1.345   3.095   8.956
 2407SOL     OW 7762   0.809   1.866   7.950
 2407SOL    HW1 7763   0.849   1.957   7.941
 2407SOL    HW2 7764   0.709   1.874   7.956
 2408SOL     OW 7765   0.197   2.838   8.712
 2408SOL    HW1 7766   0.286   2.793   8.698
 2408SOL    HW2 7767   0.124   2.773   8.693
 2409SOL     OW 7768   1.525   2.861   7.638
 2409SOL    HW1 7769   1.462   2.785   7.651
 2409SOL    HW2 7770   1.573   2.879   7.724
 2410SOL     OW 7771   1.187   3.654   9.064
 2410SOL    HW1 7772   1.211   3.714   8.988
 2410SOL    HW2 7773   1.194   3.559   9.034
 2411SOL     OW 7774   0.317   2.113   9.249
 2411SOL    HW1 7775   0.388   2.184   9.255
 2411SOL    HW2 7776   0.229   2.152   9.277
 2412SOL     OW 7777   1.466   3.279   8.401
 2412SOL    HW1 7778   1.407   3.285   8.481
 2412SOL    HW2 7779   1.451   3.191   8.355
 2413SOL     OW 7780   1.667   3.576   8.020
 2413SOL    HW1 7781   1.626   3.553   7.932
 2413SOL    HW2 7782   1.649   3.502   8.085
 2414SOL     OW 7783   0.598   2.591   7.718
 2414SOL    HW1 7784   0.622   2.660   7.650
 2414SOL    HW2 7785   0.520   2.624   7.772
 2415SOL     OW 7786   1.281   2.207   8.392
 2415SOL    HW1 7787   1.195   2.157   8.379
 2415SOL    HW2 7788   1.343   2.153   8.448
 2416SOL     OW 7789   1.576   3.524   7.755
 2416SOL    HW1 7790   1.665   3.570   7.758
 2416SOL    HW2 7791   1.555   3.500   7.660
 2417SOL     OW 7792   0.807   2.467   8.913
 2417SOL    HW1 7793   0.760   2.464   9.002
 2417SOL    HW2 7794   0.756   2.412   8.847
 2418SOL     OW 7795   1.394   2.331   9.122
 2418SOL    HW1 7796   1.374   2.374   9.210
 2418SOL    HW2 7797   1.472   2.269   9.131
 2419SOL     OW 7798   0.973   2.752   9.020
 2419SOL    HW1 7799   1.019   2.668   8.991
 2419SOL    HW2 7800   0.917   2.786   8.945
 2420SOL     OW 7801   0.991   2.272   8.690
 2420SOL    HW1 7802   0.914   2.306   8.744
 2420SOL    HW2 7803   0.957   2.221   8.611
 2421SOL     OW 7804   1.041   2.563   7.877
 2421SOL    HW1 7805   1.067   2.559   7.973
 2421SOL    HW2 7806   0.956   2.512   7.863
 2422SOL     OW 7807   0.076   2.673   8.237
 2422SOL    HW1 7808   0.175   2.661   8.246
 2422SOL    HW2 7809   0.052   2.768   8.258
 2423SOL     OW 7810   0.130   3.683   9.019
 2423SOL    HW1 7811   0.120   3.668   9.118
 2423SOL    HW2 7812   0.044   3.719   8.983
 2424SOL     OW 7813   0.865   2.210   7.643
 2424SOL    HW1 7814   0.924   2.273   7.594
 2424SOL    HW2 7815   0.884   2.116   7.614
 2425SOL     OW 7816   1.719   2.447   9.279
 2425SOL    HW1 7817   1.693   2.536   9.243
 2425SOL    HW2 7818   1.717   2.379   9.206
 2426SOL     OW 7819   1.362   3.006   7.993
 2426SOL    HW1 7820   1.445   2.977   7.945
 2426SOL    HW2 7821   1.313   3.073   7.937
 2427SOL     OW 7822   0.550   2.058   8.333
 2427SOL    HW1 7823   0.545   2.053   8.433
 2427SOL    HW2 7824   0.552   2.154   8.304
 2428SOL     OW 7825   1.008   3.318   7.925
 2428SOL    HW1 7826   0.962   3.390   7.873
 2428SOL    HW2 7827   1.004   3.338   8.023
 2429SOL     OW 7828   0.351   3.663   8.301
 2429SOL    HW1 7829   0.401   3.577   8.307
 2429SOL    HW2 7830   0.416   3.740   8.298
 2430SOL     OW 7831   1.795   2.928   8.321
 2430SOL    HW1 7832   1.733   2.913   8.245
 2430SOL    HW2 7833   1.743   2.939   8.406
 2431SOL     OW 7834   1.227   3.412   8.954
 2431SOL    HW1 7835   1.233   3.335   9.018
 2431SOL    HW2 7836   1.175   3.386   8.874
 2432SOL     OW 7837   0.321   2.805   7.690
 2432SOL    HW1 7838   0.403   2.844   7.648
 2432SOL    HW2 7839   0.294   2.723   7.641
 2433SOL     OW 7840   1.458   2.597   8.176
 2433SOL    HW1 7841   1.453   2.532   8.251
 2433SOL    HW2 7842   1.538   2.656   8.189
 2434SOL     OW 7843   0.461   3.128   9.175
 2434SOL    HW1 7844   0.411   3.129   9.089
 2434SOL    HW2 7845   0.398   3.110   9.251
 2435SOL     OW 7846   1.111   3.638   7.685
 2435SOL    HW1 7847   1.051   3.576   7.735
 2435SOL    HW2 7848   1.142   3.594   7.600
 2436SOL     OW 7849   0.202   2.147   8.946
 2436SOL    HW1 7850   0.122   2.207   8.933
 2436SOL    HW2 7851   0.192   2.098   9.032
 2437SOL     OW 7852   1.632   3.239   7.529
 2437SOL    HW1 7853   1.600   3.333   7.519
 2437SOL    HW2 7854   1.556   3.176   7.517
 2438SOL     OW 7855   0.464   3.605   7.771
 2438SOL    HW1 7856   0.497   3.644   7.857
 2438SOL    HW2 7857   0.540   3.598   7.706
 2439SOL     OW 7858   0.249   3.647   8.689
 2439SOL    HW1 7859   0.306   3.582   8.739
 2439SOL    HW2 7860   0.233   3.614   8.596
 2440SOL     OW 7861   0.940   3.560   8.352
 2440SOL    HW1 7862   1.020   3.503   8.373
 2440SOL    HW2 7863   0.891   3.520   8.275
 2441SOL     OW 7864   0.382   2.562   7.928
 2441SOL    HW1 7865   0.427   2.472   7.925
 2441SOL    HW2 7866   0.288   2.551   7.961
 2442SOL     OW 7867   1.547   2.084   9.177
 2442SOL    HW1 7868   1.542   2.121   9.269
 2442SOL    HW2 7869   1.475   2.015   9.165
 2443SOL     OW 7870   0.614   1.984   7.565
 2443SOL    HW1 7871   0.712   1.962   7.572
 2443SOL    HW2 7872   0.583   1.967   7.472
 2444SOL     OW 7873   0.781   2.126   9.197
 2444SOL    HW1 7874   0.848   2.065   9.240
 2444SOL    HW2 7875   0.708   2.145   9.262
 2445SOL     OW 7876   0.888   3.376   8.643
 2445SOL    HW1 7877   0.865   3.351   8.549
 2445SOL    HW2 7878   0.949   3.307   8.682
 2446SOL     OW 7879   1.351   2.452   8.881
 2446SOL    HW1 7880   1.379   2.409   8.966
 2446SOL    HW2 7881   1.376   2.548   8.882
 2447SOL     OW 7882   0.803   3.264   8.372
 2447SOL    HW1 7883   0.893   3.278   8.330
 2447SOL    HW2 7884   0.732   3.266   8.301
 2448SOL     OW 7885   0.922   2.365   8.347
 2448SOL    HW1 7886   0.897   2.356   8.251
 2448SOL    HW2 7887   0.970   2.283   8.378
 2449SOL     OW 7888   0.539   1.926   7.960
 2449SOL    HW1 7889   0.458   1.927   8.018
 2449SOL    HW2 7890   0.542   2.009   7.905
 2450SOL     OW 7891   1.434   3.050   7.489
 2450SOL    HW1 7892   1.466   2.974   7.546
 2450SOL    HW2 7893   1.342   3.077   7.519
 2451SOL     OW 7894   0.297   1.897   7.619
 2451SOL    HW1 7895   0.346   1.981   7.598
 2451SOL    HW2 7896   0.359   1.832   7.664
 2452SOL     OW 7897   0.935   2.098   7.928
 2452SOL    HW1 7898   0.887   2.139   7.850
 2452SOL    HW2 7899   1.034   2.096   7.909
 2453SOL     OW 7900   1.076   2.545   8.912
 2453SOL    HW1 7901   0.996   2.484   8.915
 2453SOL    HW2 7902   1.157   2.492   8.888
 2454SOL     OW 7903   1.227   3.432   8.241
 2454SOL    HW1 7904   1.248   3.506   8.176
 2454SOL    HW2 7905   1.295   3.432   8.314
 2455SOL     OW 7906   0.459   3.014   8.189
 2455SOL    HW1 7907   0.388   2.987   8.254
 2455SOL    HW2 7908   0.433   2.986   8.096
 2456SOL     OW 7909   1.271   3.659   8.039
 2456SOL    HW1 7910   1.315   3.723   7.975
 2456SOL    HW2 7911   1.221   3.711   8.109
 2457SOL     OW 7912   1.032   2.411   7.464
 2457SOL    HW1 7913   0.991   2.493   7.425
 2457SOL    HW2 7914   1.096   2.437   7.537
 2458SOL     OW 7915   0.078   2.418   8.834
 2458SOL    HW1 7916   0.170   2.417   8.793
 2458SOL    HW2 7917   0.072   2.492   8.901
 2459SOL     OW 7918   0.561   2.084   8.595
 2459SOL    HW1 7919   0.599   2.000   8.632
 2459SOL    HW2 7920   0.473   2.103   8.639
 2460SOL     OW 7921   0.866   2.316   8.090
 2460SOL    HW1 7922   0.834   2.388   8.028
 2460SOL    HW2 7923   0.890   2.235   8.037
 2461SOL     OW 7924   1.017   1.901   8.201
 2461SOL    HW1 7925   0.945   1.906   8.132
 2461SOL    HW2 7926   0.993   1.832   8.270
 2462SOL     OW 7927   1.429   3.035   8.315
 2462SOL    HW1 7928   1.374   2.951   8.308
 2462SOL    HW2 7929   1.455   3.064   8.223
 2463SOL     OW 7930   1.466   2.452   8.440
 2463SOL    HW1 7931   1.436   2.357   8.447
 2463SOL    HW2 7932   1.539   2.468   8.506
 2464SOL     OW 7933   1.857   2.695   7.825
 2464SOL    HW1 7934   1.899   2.631   7.889
 2464SOL    HW2 7935   1.819   2.644   7.747
 2465SOL     OW 7936   0.488   3.247   7.622
 2465SOL    HW1 7937   0.401   3.232   7.669
 2465SOL    HW2 7938   0.471   3.273   7.527
 2466SOL     OW 7939   1.664   3.142   8.105
 2466SOL    HW1 7940   1.763   3.150   8.119
 2466SOL    HW2 7941   1.619   3.226   8.136
 2467SOL     OW 7942   0.527   2.118   7.776
 2467SOL    HW1 7943   0.554   2.059   7.701
 2467SOL    HW2 7944   0.527   2.213   7.745
 2468SOL     OW 7945   1.754   3.085   9.036
 2468SOL    HW1 7946   1.845   3.046   9.023
 2468SOL    HW2 7947   1.762   3.181   9.060
 2469SOL     OW 7948   1.064   3.209   8.788
 2469SOL    HW1 7949   0.984   3.186   8.843
 2469SOL    HW2 7950   1.147   3.183   8.837
 2470SOL     OW 7951   1.592   3.491   9.073
 2470SOL    HW1 7952   1.619   3.525   8.983
 2470SOL    HW2 7953   1.671   3.453   9.119
 2471SOL     OW 7954   1.111   3.057   8.548
 2471SOL    HW1 7955   1.071   3.101   8.629
 2471SOL    HW2 7956   1.070   3.094   8.465
 2472SOL     OW 7957   1.638   2.961   8.527
 2472SOL    HW1 7958   1.643   3.042   8.586
 2472SOL    HW2 7959   1.552   2.963   8.476
 2473SOL     OW 7960   0.915   1.951   8.850
 2473SOL    HW1 7961   0.940   1.931   8.755
 2473SOL    HW2 7962   0.987   2.007   8.892
 2474SOL     OW 7963   0.980   2.978   9.167
 2474SOL    HW1 7964   0.881   2.984   9.177
 2474SOL    HW2 7965   1.003   2.898   9.111
 2475SOL     OW 7966   0.705   2.912   7.816
 2475SOL    HW1 7967   0.691   2.919   7.915
 2475SOL    HW2 7968   0.789   2.861   7.798
 2476SOL     OW 7969   0.410   2.675   8.699
 2476SOL    HW1 7970   0.496   2.687   8.749
 2476SOL    HW2 7971   0.368   2.588   8.726
 2477SOL     OW 7972   1.274   2.248   8.710
 2477SOL    HW1 7973   1.295   2.322   8.774
 2477SOL    HW2 7974   1.185   2.265   8.667
 2478SOL     OW 7975   0.064   3.426   8.779
 2478SOL    HW1 7976   0.018   3.508   8.745
 2478SOL    HW2 7977   0.162   3.445   8.788
 2479SOL     OW 7978   0.367   2.962   7.949
 2479SOL    HW1 7979   0.360   3.045   7.893
 2479SOL    HW2 7980   0.371   2.882   7.889
 2480SOL     OW 7981   0.566   2.399   8.313
 2480SOL    HW1 7982   0.578   2.465   8.239
 2480SOL    HW2 7983   0.612   2.433   8.396
 2481SOL     OW 7984   1.252   3.210   7.836
 2481SOL    HW1 7985   1.302   3.287   7.876
 2481SOL    HW2 7986   1.157   3.212   7.868
 2482SOL     OW 7987   1.272   3.307   8.590
 2482SOL    HW1 7988   1.319   3.320   8.677
 2482SOL    HW2 7989   1.206   3.233   8.599
 2483SOL     OW 7990   1.582   2.501   7.920
 2483SOL    HW1 7991   1.551   2.562   7.993
 2483SOL    HW2 7992   1.632   2.553   7.851
 2484SOL     OW 7993   0.354   3.372   8.777
 2484SOL    HW1 7994   0.333   3.328   8.690
 2484SOL    HW2 7995   0.451   3.398   8.780
 2485SOL     OW 7996   0.402   2.613   9.046
 2485SOL    HW1 7997   0.470   2.668   8.999
 2485SOL    HW2 7998   0.442   2.525   9.073
 2486SOL     OW 7999   1.587   2.641   9.118
 2486SOL    HW1 8000   1.495   2.679   9.113
 2486SOL    HW2 8001   1.647   2.688   9.053
 2487SOL     OW 8002   1.013   1.967   9.218
 2487SOL    HW1 8003   1.019   2.052   9.166
 2487SOL    HW2 8004   1.045   1.891   9.161
 2488SOL     OW 8005   0.504   1.912   9.188
 2488SOL    HW1 8006   0.462   1.855   9.118
 2488SOL    HW2 8007   0.438   1.981   9.220
 2489SOL     OW 8008   0.573   2.732   8.477
 2489SOL    HW1 8009   0.617   2.821   8.468
 2489SOL    HW2 8010   0.510   2.732   8.554
 2490SOL     OW 8011   1.360   2.724   8.493
 2490SOL    HW1 8012   1.285   2.724   8.427
 2490SOL    HW2 8013   1.397   2.632   8.502
 2491SOL     OW 8014   1.209   2.387   7.723
 2491SOL    HW1 8015   1.222   2.303   7.777
 2491SOL    HW2 8016   1.180   2.461   7.783
 2492SOL     OW 8017   0.307   2.075   8.679
 2492SOL    HW1 8018   0.284   2.112   8.769
 2492SOL    HW2 8019   0.277   1.980   8.673
 2493SOL     OW 8020   0.037   3.172   8.730
 2493SOL    HW1 8021   0.090   3.123   8.798
 2493SOL    HW2 8022   0.059   3.270   8.735
 2494SOL     OW 8023   0.732   2.496   8.512
 2494SOL    HW1 8024   0.791   2.470   8.436
 2494SOL    HW2 8025   0.704   2.592   8.501
 2495SOL     OW 8026   1.728   2.797   9.302
 2495SOL    HW1 8027   1.682   2.790   9.213
 2495SOL    HW2 8028   1.666   2.841   9.368
 2496SOL     OW 8029   0.307   1.925   8.066
 2496SOL    HW1 8030   0.296   2.019   8.099
 2496SOL    HW2 8031   0.302   1.862   8.143
 2497SOL     OW 8032   1.023   2.628   8.414
 2497SOL    HW1 8033   1.038   2.649   8.510
 2497SOL    HW2 8034   0.993   2.533   8.405
 2498SOL     OW 8035   0.980   3.435   9.148
 2498SOL    HW1 8036   0.960   3.479   9.060
 2498SOL    HW2 8037   1.019   3.344   9.132
 2499SOL     OW 8038   1.859   3.380   9.053
 2499SOL    HW1 8039   1.873   3.407   8.958
 2499SOL    HW2 8040   1.942   3.402   9.106
 2500SOL     OW 8041   0.350   2.760   9.252
 2500SOL    HW1 8042   0.426   2.804   9.300
 2500SOL    HW2 8043   0.385   2.713   9.170
 2501SOL     OW 8044   1.303   2.700   7.490
 2501SOL    HW1 8045   1.337   2.607   7.505
 2501SOL    HW2 8046   1.321   2.727   7.395
 2502SOL     OW 8047   1.068   3.195   8.297
 2502SOL    HW1 8048   1.075   3.111   8.242
 2502SOL    HW2 8049   1.130   3.264   8.261
 2503SOL     OW 8050   0.319   2.672   8.397
 2503SOL    HW1 8051   0.412   2.708   8.402
 2503SOL    HW2 8052   0.313   2.587   8.449
 2504SOL     OW 8053   0.339   2.371   8.454
 2504SOL    HW1 8054   0.287   2.288   8.437
 2504SOL    HW2 8055   0.416   2.376   8.390
 2505SOL     OW 8056   1.138   2.242   9.126
 2505SOL    HW1 8057   1.093   2.305   9.190
 2505SOL    HW2 8058   1.231   2.273   9.109
 2506SOL     OW 8059   1.160   2.069   8.925
 2506SOL    HW1 8060   1.160   2.133   9.002
 2506SOL    HW2 8061   1.188   2.117   8.842
 2507SOL     OW 8062   0.008   3.188   7.648
 2507SOL    HW1 8063  -0.085   3.209   7.617
 2507SOL    HW2 8064   0.018   3.089   7.661
 2508SOL     OW 8065   0.088   3.663   8.375
 2508SOL    HW1 8066   0.046   3.577   8.348
 2508SOL    HW2 8067   0.182   3.666   8.341
 2509SOL     OW 8068   0.504   3.430   8.358
 2509SOL    HW1 8069   0.570   3.504   8.367
 2509SOL    HW2 8070   0.548   3.351   8.316
 2510SOL     OW 8071   1.002   2.658   8.686
 2510SOL    HW1 8072   1.043   2.626   8.772
 2510SOL    HW2 8073   0.906   2.631   8.683
 2511SOL     OW 8074   0.040   2.406   8.562
 2511SOL    HW1 8075   0.125   2.373   8.521
 2511SOL    HW2 8076   0.053   2.421   8.660
 2512SOL     OW 8077   0.189   2.382   9.170
 2512SOL    HW1 8078   0.248   2.342   9.100
 2512SOL    HW2 8079   0.131   2.453   9.129
 2513SOL     OW 8080   1.369   2.812   9.108
 2513SOL    HW1 8081   1.408   2.901   9.128
 2513SOL    HW2 8082   1.379   2.792   9.011
 2514SOL     OW 8083   0.815   2.434   7.773
 2514SOL    HW1 8084   0.822   2.345   7.727
 2514SOL    HW2 8085   0.721   2.468   7.765
 2515SOL     OW 8086   1.657   2.466   8.654
 2515SOL    HW1 8087   1.619   2.397   8.716
 2515SOL    HW2 8088   1.739   2.430   8.610
 2516SOL     OW 8089   0.252   3.426   9.192
 2516SOL    HW1 8090   0.222   3.483   9.268
 2516SOL    HW2 8091   0.245   3.329   9.218
 2517SOL     OW 8092   0.671   2.326   8.717
 2517SOL    HW1 8093   0.637   2.237   8.687
 2517SOL    HW2 8094   0.697   2.380   8.637
 2518SOL     OW 8095   0.930   3.540   8.913
 2518SOL    HW1 8096   0.906   3.522   8.818
 2518SOL    HW2 8097   0.960   3.634   8.923
 2519SOL     OW 8098   0.473   2.362   7.639
 2519SOL    HW1 8099   0.534   2.442   7.643
 2519SOL    HW2 8100   0.378   2.393   7.646
 2520SOL     OW 8101   0.159   2.999   8.914
 2520SOL    HW1 8102   0.181   2.938   8.990
 2520SOL    HW2 8103   0.169   2.950   8.828
 2521SOL     OW 8104   1.347   2.921   8.682
 2521SOL    HW1 8105   1.371   2.858   8.608
 2521SOL    HW2 8106   1.257   2.961   8.664
 2522SOL     OW 8107   1.302   2.717   7.757
 2522SOL    HW1 8108   1.216   2.686   7.799
 2522SOL    HW2 8109   1.298   2.703   7.658
 2523SOL     OW 8110   1.759   3.609   8.602
 2523SOL    HW1 8111   1.820   3.639   8.529
 2523SOL    HW2 8112   1.721   3.520   8.580
 2524SOL     OW 8113   1.252   3.593   8.576
 2524SOL    HW1 8114   1.336   3.598   8.522
 2524SOL    HW2 8115   1.229   3.497   8.594
 2525SOL     OW 8116   0.083   3.120   8.470
 2525SOL    HW1 8117   0.078   3.119   8.570
 2525SOL    HW2 8118   0.000   3.079   8.432
 2526SOL     OW 8119   0.688   3.524   9.164
 2526SOL    HW1 8120   0.632   3.605   9.173
 2526SOL    HW2 8121   0.740   3.528   9.078
 2527SOL     OW 8122   1.726   1.997   7.971
 2527SOL    HW1 8123   1.799   1.980   7.904
 2527SOL    HW2 8124   1.695   1.910   8.009
 2528SOL     OW 8125   1.388   3.435   7.925
 2528SOL    HW1 8126   1.455   3.447   7.851
 2528SOL    HW2 8127   1.348   3.524   7.948
 2529SOL     OW 8128   0.130   3.656   9.299
 2529SOL    HW1 8129   0.089   3.582   9.352
 2529SOL    HW2 8130   0.194   3.707   9.357
 2530SOL     OW 8131   1.280   2.789   8.120
 2530SOL    HW1 8132   1.340   2.708   8.122
 2530SOL    HW2 8133   1.320   2.858   8.060
 2531SOL     OW 8134   0.830   3.135   8.870
 2531SOL    HW1 8135   0.825   3.168   8.965
 2531SOL    HW2 8136   0.744   3.154   8.824
 2532SOL     OW 8137   0.672   3.478   7.602
 2532SOL    HW1 8138   0.681   3.488   7.503
 2532SOL    HW2 8139   0.632   3.389   7.623
 2533SOL     OW 8140   1.650   3.582   8.842
 2533SOL    HW1 8141   1.703   3.592   8.758
 2533SOL    HW2 8142   1.623   3.672   8.876
 2534SOL     OW 8143   0.263   2.188   8.168
 2534SOL    HW1 8144   0.184   2.239   8.134
 2534SOL    HW2 8145   0.254   2.173   8.266
 2535SOL     OW 8146   1.194   3.474   7.479
 2535SOL    HW1 8147   1.200   3.381   7.516
 2535SOL    HW2 8148   1.135   3.474   7.399
 2536SOL     OW 8149   0.822   2.864   8.820
 2536SOL    HW1 8150   0.862   2.863   8.728
 2536SOL    HW2 8151   0.832   2.956   8.860
 2537SOL     OW 8152   0.916   2.772   7.739
 2537SOL    HW1 8153   0.979   2.810   7.671
 2537SOL    HW2 8154   0.956   2.689   7.778
 2538SOL     OW 8155   1.504   3.469   7.492
 2538SOL    HW1 8156   1.412   3.506   7.499
 2538SOL    HW2 8157   1.542   3.489   7.402
 2539SOL     OW 8158   0.372   3.150   8.938
 2539SOL    HW1 8159   0.359   3.243   8.904
 2539SOL    HW2 8160   0.288   3.098   8.925
 2540SOL     OW 8161   1.614   3.154   8.737
 2540SOL    HW1 8162   1.674   3.157   8.817
 2540SOL    HW2 8163   1.539   3.218   8.750
 2541SOL     OW 8164   1.039   2.960   8.144
 2541SOL    HW1 8165   0.969   2.913   8.198
 2541SOL    HW2 8166   1.098   2.892   8.101
 2542SOL     OW 8167   1.014   2.098   8.419
 2542SOL    HW1 8168   1.006   2.062   8.326
 2542SOL    HW2 8169   1.012   2.022   8.484
 2543SOL     OW 8170   0.590   3.349   7.939
 2543SOL    HW1 8171   0.632   3.291   7.869
 2543SOL    HW2 8172   0.546   3.428   7.895
 2544SOL     OW 8173   1.709   2.247   8.829
 2544SOL    HW1 8174   1.782   2.316   8.833
 2544SOL    HW2 8175   1.737   2.172   8.770
 2545SOL     OW 8176   0.255   3.210   7.738
 2545SOL    HW1 8177   0.159   3.211   7.711
 2545SOL    HW2 8178   0.267   3.263   7.822
 2546SOL     OW 8179   0.105   2.875   9.174
 2546SOL    HW1 8180   0.028   2.842   9.228
 2546SOL    HW2 8181   0.190   2.845   9.216
 2547SOL     OW 8182   0.672   2.065   8.937
 2547SOL    HW1 8183   0.762   2.049   8.897
 2547SOL    HW2 8184   0.680   2.070   9.036
 2548SOL     OW 8185   0.075   2.207   7.481
 2548SOL    HW1 8186  -0.017   2.179   7.452
 2548SOL    HW2 8187   0.106   2.284   7.425
 2549SOL     OW 8188   1.440   2.718   8.846
 2549SOL    HW1 8189   1.383   2.770   8.783
 2549SOL    HW2 8190   1.536   2.730   8.822
 2550SOL     OW 8191   0.072   2.028   7.766
 2550SOL    HW1 8192   0.055   2.111   7.712
 2550SOL    HW2 8193   0.162   1.991   7.744
 2551SOL     OW 8194   1.183   3.197   7.567
 2551SOL    HW1 8195   1.084   3.186   7.569
 2551SOL    HW2 8196   1.217   3.212   7.660
 2552SOL     OW 8197   0.613   2.704   8.879
 2552SOL    HW1 8198   0.669   2.785   8.862
 2552SOL    HW2 8199   0.672   2.624   8.882
 2553SOL     OW 8200   1.493   3.629   8.407
 2553SOL    HW1 8201   1.526   3.693   8.338
 2553SOL    HW2 8202   1.559   3.623   8.482
 2554SOL     OW 8203   0.716   2.427   9.156
 2554SOL    HW1 8204   0.735   2.492   9.230
 2554SOL    HW2 8205   0.776   2.347   9.165
 2555SOL     OW 8206   1.450   3.082   9.081
 2555SOL    HW1 8207   1.441   3.072   9.180
 2555SOL    HW2 8208   1.546   3.075   9.055
 2556SOL     OW 8209   0.390   3.603   9.008
 2556SOL    HW1 8210   0.299   3.644   9.006
 2556SOL    HW2 8211   0.383   3.509   9.040
 2557SOL     OW 8212   1.674   2.745   8.702
 2557SOL    HW1 8213   1.647   2.656   8.665
 2557SOL    HW2 8214   1.675   2.813   8.629
 2558SOL     OW 8215   1.225   2.187   7.897
 2558SOL    HW1 8216   1.290   2.113   7.886
 2558SOL    HW2 8217   1.245   2.237   7.981
 2559SOL     OW 8218   0.594   2.607   8.100
 2559SOL    HW1 8219   0.644   2.692   8.081
 2559SOL    HW2 8220   0.506   2.609   8.052
 2560SOL     OW 8221   1.777   2.204   9.090
 2560SOL    HW1 8222   1.760   2.235   8.996
 2560SOL    HW2 8223   1.693   2.167   9.128
 2561SOL     OW 8224   1.730   2.796   8.965
 2561SOL    HW1 8225   1.768   2.887   8.980
 2561SOL    HW2 8226   1.722   2.779   8.866
 2562SOL     OW 8227   0.859   3.236   7.464
 2562SOL    HW1 8228   0.813   3.251   7.552
 2562SOL    HW2 8229   0.903   3.321   7.434
 2563SOL     OW 8230   0.661   3.652   8.401
 2563SOL    HW1 8231   0.615   3.740   8.388
 2563SOL    HW2 8232   0.760   3.664   8.394
 2564SOL     OW 8233   0.859   2.818   8.309
 2564SOL    HW1 8234   0.913   2.749   8.357
 2564SOL    HW2 8235   0.827   2.887   8.375
 2565SOL     OW 8236   1.083   2.846   7.535
 2565SOL    HW1 8237   1.060   2.899   7.453
 2565SOL    HW2 8238   1.164   2.790   7.516
 2566SOL     OW 8239   1.861   3.431   8.299
 2566SOL    HW1 8240   1.790   3.419   8.229
 2566SOL    HW2 8241   1.862   3.352   8.359
 2567SOL     OW 8242   0.221   3.176   9.292
 2567SOL    HW1 8243   0.156   3.103   9.271
 2567SOL    HW2 8244   0.225   3.190   9.390
 2568SOL     OW 8245   0.079   3.102   8.101
 2568SOL    HW1 8246   0.078   3.055   8.189
 2568SOL    HW2 8247   0.161   3.074   8.050
 2569SOL     OW 8248   0.672   3.253   9.072
 2569SOL    HW1 8249   0.594   3.203   9.110
 2569SOL    HW2 8250   0.669   3.348   9.103
 2570SOL     OW 8251   0.428   2.286   7.968
 2570SOL    HW1 8252   0.458   2.214   7.906
 2570SOL    HW2 8253   0.389   2.246   8.051
 2571SOL     OW 8254   1.705   3.349   8.552
 2571SOL    HW1 8255   1.612   3.324   8.525
 2571SOL    HW2 8256   1.731   3.299   8.634
 2572SOL     OW 8257   0.317   2.409   8.728
 2572SOL    HW1 8258   0.355   2.350   8.800
 2572SOL    HW2 8259   0.357   2.383   8.640
 2573SOL     OW 8260   0.812   3.448   8.135
 2573SOL    HW1 8261   0.844   3.458   8.041
 2573SOL    HW2 8262   0.733   3.386   8.137
 2574SOL     OW 8263   1.424   2.076   8.560
 2574SOL    HW1 8264   1.476   2.011   8.615
 2574SOL    HW2 8265   1.375   2.139   8.621
 2575SOL     OW 8266   1.001   1.896   8.602
 2575SOL    HW1 8267   0.938   1.824   8.571
 2575SOL    HW2 8268   1.094   1.860   8.602
 2576SOL     OW 8269   0.770   3.192   7.749
 2576SOL    HW1 8270   0.724   3.105   7.766
 2576SOL    HW2 8271   0.861   3.189   7.790
 2577SOL     OW 8272   0.618   3.429   8.732
 2577SOL    HW1 8273   0.613   3.511   8.789
 2577SOL    HW2 8274   0.707   3.426   8.687
 2578SOL     OW 8275   1.300   2.315   8.139
 2578SOL    HW1 8276   1.241   2.395   8.143
 2578SOL    HW2 8277   1.315   2.280   8.232
 2579SOL     OW 8278   1.593   2.083   8.330
 2579SOL    HW1 8279   1.509   2.082   8.384
 2579SOL    HW2 8280   1.595   2.166   8.274
 2580SOL     OW 8281   0.039   2.939   7.748
 2580SOL    HW1 8282   0.138   2.928   7.739
 2580SOL    HW2 8283  -0.001   2.853   7.780
 2581SOL     OW 8284   0.875   3.508   7.785
 2581SOL    HW1 8285   0.798   3.473   7.731
 2581SOL    HW2 8286   0.843   3.579   7.847
 2582SOL     OW 8287   0.230   2.490   9.423
 2582SOL    HW1 8288   0.137   2.488   9.460
 2582SOL    HW2 8289   0.231   2.451   9.331
 2583SOL     OW 8290   0.225   2.137  10.306
 2583SOL    HW1 8291   0.260   2.120  10.398
 2583SOL    HW2 8292   0.137   2.092  10.294
 2584SOL     OW 8293   0.019   2.230   9.957
 2584SOL    HW1 8294  -0.063   2.273   9.996
 2584SOL    HW2 8295  -0.009   2.157   9.894
 2585SOL     OW 8296   0.569   3.137  10.475
 2585SOL    HW1 8297   0.476   3.130  10.438
 2585SOL    HW2 8298   0.580   3.226  10.519
 2586SOL     OW 8299   1.555   3.373  10.013
 2586SOL    HW1 8300   1.498   3.357  10.094
 2586SOL    HW2 8301   1.496   3.383   9.933
 2587SOL     OW 8302   1.135   2.565  10.027
 2587SOL    HW1 8303   1.192   2.643  10.002
 2587SOL    HW2 8304   1.075   2.591  10.103
 2588SOL     OW 8305   1.755   2.469   9.541
 2588SOL    HW1 8306   1.743   2.456   9.442
 2588SOL    HW2 8307   1.725   2.388   9.590
 2589SOL     OW 8308   0.768   3.006  10.333
 2589SOL    HW1 8309   0.690   3.023  10.393
 2589SOL    HW2 8310   0.802   3.093  10.297
 2590SOL     OW 8311   0.850   2.660  11.133
 2590SOL    HW1 8312   0.846   2.736  11.198
 2590SOL    HW2 8313   0.872   2.696  11.042
 2591SOL     OW 8314   0.685   2.874   9.975
 2591SOL    HW1 8315   0.754   2.858  10.045
 2591SOL    HW2 8316   0.612   2.931  10.013
 2592SOL     OW 8317   0.686   3.023  11.113
 2592SOL    HW1 8318   0.746   3.102  11.127
 2592SOL    HW2 8319   0.600   3.054  11.072
 2593SOL     OW 8320   0.335   3.297  10.371
 2593SOL    HW1 8321   0.257   3.266  10.318
 2593SOL    HW2 8322   0.393   3.355  10.314
 2594SOL     OW 8323   1.460   3.367  10.649
 2594SOL    HW1 8324   1.484   3.461  10.675
 2594SOL    HW2 8325   1.444   3.313  10.731
 2595SOL     OW 8326   0.438   2.254  10.809
 2595SOL    HW1 8327   0.520   2.198  10.818
 2595SOL    HW2 8328   0.357   2.196  10.813
 2596SOL     OW 8329   1.603   2.309  10.047
 2596SOL    HW1 8330   1.529   2.355   9.997
 2596SOL    HW2 8331   1.654   2.377  10.100
 2597SOL     OW 8332   0.231   3.575   9.793
 2597SOL    HW1 8333   0.265   3.652   9.847
 2597SOL    HW2 8334   0.275   3.575   9.703
 2598SOL     OW 8335   1.127   3.203  11.000
 2598SOL    HW1 8336   1.174   3.203  11.088
 2598SOL    HW2 8337   1.079   3.116  10.989
 2599SOL     OW 8338   0.230   3.296   9.848
 2599SOL    HW1 8339   0.204   3.392   9.848
 2599SOL    HW2 8340   0.159   3.242   9.893
 2600SOL     OW 8341   0.240   2.953  10.196
 2600SOL    HW1 8342   0.254   2.869  10.248
 2600SOL    HW2 8343   0.185   3.017  10.251
 2601SOL     OW 8344   0.620   3.648  10.749
 2601SOL    HW1 8345   0.528   3.631  10.784
 2601SOL    HW2 8346   0.648   3.740  10.775
 2602SOL     OW 8347   0.606   2.826   9.433
 2602SOL    HW1 8348   0.613   2.910   9.379
 2602SOL    HW2 8349   0.652   2.839   9.521
 2603SOL     OW 8350   1.594   1.976  10.790
 2603SOL    HW1 8351   1.576   2.043  10.718
 2603SOL    HW2 8352   1.591   2.022  10.879
 2604SOL     OW 8353   0.122   2.505   9.873
 2604SOL    HW1 8354   0.077   2.417   9.890
 2604SOL    HW2 8355   0.121   2.559   9.957
 2605SOL     OW 8356   1.842   3.629   9.669
 2605SOL    HW1 8357   1.896   3.600   9.749
 2605SOL    HW2 8358   1.872   3.719   9.640
 2606SOL     OW 8359   0.027   3.458   9.427
 2606SOL    HW1 8360   0.008   3.362   9.448
 2606SOL    HW2 8361  -0.006   3.516   9.502
 2607SOL     OW 8362   1.689   2.784   9.922
 2607SOL    HW1 8363   1.784   2.755   9.930
 2607SOL    HW2 8364   1.681   2.849   9.847
 2608SOL     OW 8365   1.641   2.970   9.742
 2608SOL    HW1 8366   1.727   2.972   9.690
 2608SOL    HW2 8367   1.655   3.017   9.830
 2609SOL     OW 8368   0.113   2.599  10.907
 2609SOL    HW1 8369   0.201   2.586  10.952
 2609SOL    HW2 8370   0.100   2.696  10.885
 2610SOL     OW 8371   0.613   3.227  10.036
 2610SOL    HW1 8372   0.564   3.140  10.045
 2610SOL    HW2 8373   0.590   3.270   9.949
 2611SOL     OW 8374   1.293   3.090  10.733
 2611SOL    HW1 8375   1.330   3.017  10.675
 2611SOL    HW2 8376   1.345   3.095  10.818
 2612SOL     OW 8377   0.809   1.866   9.812
 2612SOL    HW1 8378   0.849   1.957   9.803
 2612SOL    HW2 8379   0.709   1.874   9.818
 2613SOL     OW 8380   0.197   2.838  10.574
 2613SOL    HW1 8381   0.286   2.793  10.560
 2613SOL    HW2 8382   0.124   2.773  10.555
 2614SOL     OW 8383   1.525   2.861   9.500
 2614SOL    HW1 8384   1.462   2.785   9.513
 2614SOL    HW2 8385   1.573   2.879   9.586
 2615SOL     OW 8386   1.187   3.654  10.926
 2615SOL    HW1 8387   1.211   3.714  10.850
 2615SOL    HW2 8388   1.194   3.559  10.896
 2616SOL     OW 8389   0.317   2.113  11.111
 2616SOL    HW1 8390   0.388   2.184  11.117
 2616SOL    HW2 8391   0.229   2.152  11.139
 2617SOL     OW 8392   1.466   3.279  10.263
 2617SOL    HW1 8393   1.407   3.285  10.343
 2617SOL    HW2 8394   1.451   3.191  10.217
 2618SOL     OW 8395   1.667   3.576   9.882
 2618SOL    HW1 8396   1.626   3.553   9.794
 2618SOL    HW2 8397   1.649   3.502   9.947
 2619SOL     OW 8398   0.598   2.591   9.580
 2619SOL    HW1 8399   0.622   2.660   9.512
 2619SOL    HW2 8400   0.520   2.624   9.634
 2620SOL     OW 8401   1.281   2.207  10.254
 2620SOL    HW1 8402   1.195   2.157  10.241
 2620SOL    HW2 8403   1.343   2.153  10.310
 2621SOL     OW 8404   1.576   3.524   9.617
 2621SOL    HW1 8405   1.665   3.570   9.620
 2621SOL    HW2 8406   1.555   3.500   9.522
 2622SOL     OW 8407   0.807   2.467  10.775
 2622SOL    HW1 8408   0.760   2.464  10.864
 2622SOL    HW2 8409   0.756   2.412  10.709
 2623SOL     OW 8410   1.394   2.331  10.984
 2623SOL    HW1 8411   1.374   2.374  11.072
 2623SOL    HW2 8412   1.472   2.269  10.993
 2624SOL     OW 8413   0.973   2.752  10.882
 2624SOL    HW1 8414   1.019   2.668  10.853
 2624SOL    HW2 8415   0.917   2.786  10.807
 2625SOL     OW 8416   0.991   2.272  10.552
 2625SOL    HW1 8417   0.914   2.306  10.606
 2625SOL    HW2 8418   0.957   2.221  10.473
 2626SOL     OW 8419   1.041   2.563   9.739
 2626SOL    HW1 8420   1.067   2.559   9.835
 2626SOL    HW2 8421   0.956   2.512   9.725
 2627SOL     OW 8422   0.076   2.673  10.099
 2627SOL    HW1 8423   0.175   2.661  10.108
 2627SOL    HW2 8424   0.052   2.768  10.120
 2628SOL     OW 8425   0.130   3.683  10.881
 2628SOL    HW1 8426   0.120   3.668  10.980
 2628SOL    HW2 8427   0.044   3.719  10.845
 2629SOL     OW 8428   0.865   2.210   9.505
 2629SOL    HW1 8429   0.924   2.273   9.456
 2629SOL    HW2 8430   0.884   2.116   9.476
 2630SOL     OW 8431   1.719   2.447  11.141
 2630SOL    HW1 8432   1.693   2.536  11.105
 2630SOL    HW2 8433   1.717   2.379  11.068
 2631SOL     OW 8434   1.362   3.006   9.855
 2631SOL    HW1 8435   1.445   2.977   9.807
 2631SOL    HW2 8436   1.313   3.073   9.799
 2632SOL     OW 8437   0.550   2.058  10.195
 2632SOL    HW1 8438   0.545   2.053  10.295
 2632SOL    HW2 8439   0.552   2.154  10.166
 2633SOL     OW 8440   1.008   3.318   9.787
 2633SOL    HW1 8441   0.962   3.390   9.735
 2633SOL    HW2 8442   1.004   3.338   9.885
 2634SOL     OW 8443   0.351   3.663  10.163
 2634SOL    HW1 8444   0.401   3.577  10.169
 2634SOL    HW2 8445   0.416   3.740  10.160
 2635SOL     OW 8446   1.795   2.928  10.183
 2635SOL    HW1 8447   1.733   2.913  10.107
 2635SOL    HW2 8448   1.743   2.939  10.268
 2636SOL     OW 8449   1.227   3.412  10.816
 2636SOL    HW1 8450   1.233   3.335  10.880
 2636SOL    HW2 8451   1.175   3.386  10.736
 2637SOL     OW 8452   0.321   2.805   9.552
 2637SOL    HW1 8453   0.403   2.844   9.510
 2637SOL    HW2 8454   0.294   2.723   9.503
 2638SOL     OW 8455   1.458   2.597  10.038
 2638SOL    HW1 8456   1.453   2.532  10.113
 2638SOL    HW2 8457   1.538   2.656  10.051
 2639SOL     OW 8458   0.461   3.128  11.037
 2639SOL    HW1 8459   0.411   3.129  10.951
 2639SOL    HW2 8460   0.398   3.110  11.113
 2640SOL     OW 8461   1.111   3.638   9.547
 2640SOL    HW1 8462   1.051   3.576   9.597
 2640SOL    HW2 8463   1.142   3.594   9.462
 2641SOL     OW 8464   0.202   2.147  10.808
 2641SOL    HW1 8465   0.122   2.207  10.795
 2641SOL    HW2 8466   0.192   2.098  10.894
 2642SOL     OW 8467   1.632   3.239   9.391
 2642SOL    HW1 8468   1.600   3.333   9.381
 2642SOL    HW2 8469   1.556   3.176   9.379
 2643SOL     OW 8470   0.464   3.605   9.633
 2643SOL    HW1 8471   0.497   3.644   9.719
 2643SOL    HW2 8472   0.540   3.598   9.568
 2644SOL     OW 8473   1.400   1.969   9.736
 2644SOL    HW1 8474   1.376   1.932   9.646
 2644SOL    HW2 8475   1.499   1.985   9.740
 2645SOL     OW 8476   0.249   3.647  10.551
 2645SOL    HW1 8477   0.306   3.582  10.601
 2645SOL    HW2 8478   0.233   3.614  10.458
 2646SOL     OW 8479   0.940   3.560  10.214
 2646SOL    HW1 8480   1.020   3.503  10.235
 2646SOL    HW2 8481   0.891   3.520  10.137
 2647SOL     OW 8482   0.382   2.562   9.790
 2647SOL    HW1 8483   0.427   2.472   9.787
 2647SOL    HW2 8484   0.288   2.551   9.823
 2648SOL     OW 8485   1.547   2.084  11.039
 2648SOL    HW1 8486   1.542   2.121  11.131
 2648SOL    HW2 8487   1.475   2.015  11.027
 2649SOL     OW 8488   0.614   1.984   9.427
 2649SOL    HW1 8489   0.712   1.962   9.434
 2649SOL    HW2 8490   0.583   1.967   9.334
 2650SOL     OW 8491   0.781   2.126  11.059
 2650SOL    HW1 8492   0.848   2.065  11.102
 2650SOL    HW2 8493   0.708   2.145  11.124
 2651SOL     OW 8494   0.888   3.376  10.505
 2651SOL    HW1 8495   0.865   3.351  10.411
 2651SOL    HW2 8496   0.949   3.307  10.544
 2652SOL     OW 8497   1.351   2.452  10.743
 2652SOL    HW1 8498   1.379   2.409  10.828
 2652SOL    HW2 8499   1.376   2.548  10.744
 2653SOL     OW 8500   0.803   3.264  10.234
 2653SOL    HW1 8501   0.893   3.278  10.192
 2653SOL    HW2 8502   0.732   3.266  10.163
 2654SOL     OW 8503   0.922   2.365  10.209
 2654SOL    HW1 8504   0.897   2.356  10.113
 2654SOL    HW2 8505   0.970   2.283  10.240
 2655SOL     OW 8506   0.539   1.926   9.822
 2655SOL    HW1 8507   0.458   1.927   9.880
 2655SOL    HW2 8508   0.542   2.009   9.767
 2656SOL     OW 8509   1.434   3.050   9.351
 2656SOL    HW1 8510   1.466   2.974   9.408
 2656SOL    HW2 8511   1.342   3.077   9.381
 2657SOL     OW 8512   0.297   1.897   9.481
 2657SOL    HW1 8513   0.346   1.981   9.460
 2657SOL    HW2 8514   0.359   1.832   9.526
 2658SOL     OW 8515   0.935   2.098   9.790
 2658SOL    HW1 8516   0.887   2.139   9.712
 2658SOL    HW2 8517   1.034   2.096   9.771
 2659SOL     OW 8518   1.076   2.545  10.774
 2659SOL    HW1 8519   0.996   2.484  10.777
 2659SOL    HW2 8520   1.157   2.492  10.750
 2660SOL     OW 8521   1.227   3.432  10.103
 2660SOL    HW1 8522   1.248   3.506  10.038
 2660SOL    HW2 8523   1.295   3.432  10.176
 2661SOL     OW 8524   0.459   3.014  10.051
 2661SOL    HW1 8525   0.388   2.987  10.116
 2661SOL    HW2 8526   0.433   2.986   9.958
 2662SOL     OW 8527   1.271   3.659   9.901
 2662SOL    HW1 8528   1.315   3.723   9.837
 2662SOL    HW2 8529   1.221   3.711   9.971
 2663SOL     OW 8530   1.032   2.411   9.326
 2663SOL    HW1 8531   0.991   2.493   9.287
 2663SOL    HW2 8532   1.096   2.437   9.399
 2664SOL     OW 8533   0.078   2.418  10.696
 2664SOL    HW1 8534   0.170   2.417  10.655
 2664SOL    HW2 8535   0.072   2.492  10.763
 2665SOL     OW 8536   0.561   2.084  10.457
 2665SOL    HW1 8537   0.599   2.000  10.494
 2665SOL    HW2 8538   0.473   2.103  10.501
 2666SOL     OW 8539   0.866   2.316   9.952
 2666SOL    HW1 8540   0.834   2.388   9.890
 2666SOL    HW2 8541   0.890   2.235   9.899
 2667SOL     OW 8542   1.017   1.901  10.063
 2667SOL    HW1 8543   0.945   1.906   9.994
 2667SOL    HW2 8544   0.993   1.832  10.132
 2668SOL     OW 8545   1.429   3.035  10.177
 2668SOL    HW1 8546   1.374   2.951  10.170
 2668SOL    HW2 8547   1.455   3.064  10.085
 2669SOL     OW 8548   1.466   2.452  10.302
 2669SOL    HW1 8549   1.436   2.357  10.309
 2669SOL    HW2 8550   1.539   2.468  10.368
 2670SOL     OW 8551   1.857   2.695   9.687
 2670SOL    HW1 8552   1.899   2.631   9.751
 2670SOL    HW2 8553   1.819   2.644   9.609
 2671SOL     OW 8554   0.488   3.247   9.484
 2671SOL    HW1 8555   0.401   3.232   9.531
 2671SOL    HW2 8556   0.471   3.273   9.389
 2672SOL     OW 8557   1.664   3.142   9.967
 2672SOL    HW1 8558   1.763   3.150   9.981
 2672SOL    HW2 8559   1.619   3.226   9.998
 2673SOL     OW 8560   1.390   2.437   9.388
 2673SOL    HW1 8561   1.336   2.416   9.469
 2673SOL    HW2 8562   1.481   2.396   9.397
 2674SOL     OW 8563   0.527   2.118   9.638
 2674SOL    HW1 8564   0.554   2.059   9.563
 2674SOL    HW2 8565   0.527   2.213   9.607
 2675SOL     OW 8566   1.754   3.085  10.898
 2675SOL    HW1 8567   1.845   3.046  10.885
 2675SOL    HW2 8568   1.762   3.181  10.922
 2676SOL     OW 8569   1.064   3.209  10.650
 2676SOL    HW1 8570   0.984   3.186  10.705
 2676SOL    HW2 8571   1.147   3.183  10.699
 2677SOL     OW 8572   1.592   3.491  10.935
 2677SOL    HW1 8573   1.619   3.525  10.845
 2677SOL    HW2 8574   1.671   3.453  10.981
 2678SOL     OW 8575   1.111   3.057  10.410
 2678SOL    HW1 8576   1.071   3.101  10.491
 2678SOL    HW2 8577   1.070   3.094  10.327
 2679SOL     OW 8578   1.638   2.961  10.389
 2679SOL    HW1 8579   1.643   3.042  10.448
 2679SOL    HW2 8580   1.552   2.963  10.338
 2680SOL     OW 8581   0.915   1.951  10.712
 2680SOL    HW1 8582   0.940   1.931  10.617
 2680SOL    HW2 8583   0.987   2.007  10.754
 2681SOL     OW 8584   0.980   2.978  11.029
 2681SOL    HW1 8585   0.881   2.984  11.039
 2681SOL    HW2 8586   1.003   2.898  10.973
 2682SOL     OW 8587   0.705   2.912   9.678
 2682SOL    HW1 8588   0.691   2.919   9.777
 2682SOL    HW2 8589   0.789   2.861   9.660
 2683SOL     OW 8590   0.410   2.675  10.561
 2683SOL    HW1 8591   0.496   2.687  10.611
 2683SOL    HW2 8592   0.368   2.588  10.588
 2684SOL     OW 8593   1.274   2.248  10.572
 2684SOL    HW1 8594   1.295   2.322  10.636
 2684SOL    HW2 8595   1.185   2.265  10.529
 2685SOL     OW 8596   0.064   3.426  10.641
 2685SOL    HW1 8597   0.018   3.508  10.607
 2685SOL    HW2 8598   0.162   3.445  10.650
 2686SOL     OW 8599   0.367   2.962   9.811
 2686SOL    HW1 8600   0.360   3.045   9.755
 2686SOL    HW2 8601   0.371   2.882   9.751
 2687SOL     OW 8602   0.566   2.399  10.175
 2687SOL    HW1 8603   0.578   2.465  10.101
 2687SOL    HW2 8604   0.612   2.433  10.258
 2688SOL     OW 8605   1.252   3.210   9.698
 2688SOL    HW1 8606   1.302   3.287   9.738
 2688SOL    HW2 8607   1.157   3.212   9.730
 2689SOL     OW 8608   1.272   3.307  10.452
 2689SOL    HW1 8609   1.319   3.320  10.539
 2689SOL    HW2 8610   1.206   3.233  10.461
 2690SOL     OW 8611   1.582   2.501   9.782
 2690SOL    HW1 8612   1.551   2.562   9.855
 2690SOL    HW2 8613   1.632   2.553   9.713
 2691SOL     OW 8614   0.354   3.372  10.639
 2691SOL    HW1 8615   0.333   3.328  10.552
 2691SOL    HW2 8616   0.451   3.398  10.642
 2692SOL     OW 8617   0.402   2.613  10.908
 2692SOL    HW1 8618   0.470   2.668  10.861
 2692SOL    HW2 8619   0.442   2.525  10.935
 2693SOL     OW 8620   1.587   2.641  10.980
 2693SOL    HW1 8621   1.495   2.679  10.975
 2693SOL    HW2 8622   1.647   2.688  10.915
 2694SOL     OW 8623   1.013   1.967  11.080
 2694SOL    HW1 8624   1.019   2.052  11.028
 2694SOL    HW2 8625   1.045   1.891  11.023
 2695SOL     OW 8626   0.504   1.912  11.050
 2695SOL    HW1 8627   0.462   1.855  10.980
 2695SOL    HW2 8628   0.438   1.981  11.082
 2696SOL     OW 8629   0.573   2.732  10.339
 2696SOL    HW1 8630   0.617   2.821  10.330
 2696SOL    HW2 8631   0.510   2.732  10.416
 2697SOL     OW 8632   1.360   2.724  10.355
 2697SOL    HW1 8633   1.285   2.724  10.289
 2697SOL    HW2 8634   1.397   2.632  10.364
 2698SOL     OW 8635   1.209   2.387   9.585
 2698SOL    HW1 8636   1.222   2.303   9.639
 2698SOL    HW2 8637   1.180   2.461   9.645
 2699SOL     OW 8638   0.307   2.075  10.541
 2699SOL    HW1 8639   0.284   2.112  10.631
 2699SOL    HW2 8640   0.277   1.980  10.535
 2700SOL     OW 8641   0.037   3.172  10.592
 2700SOL    HW1 8642   0.090   3.123  10.660
 2700SOL    HW2 8643   0.059   3.270  10.597
 2701SOL     OW 8644   0.732   2.496  10.374
 2701SOL    HW1 8645   0.791   2.470  10.298
 2701SOL    HW2 8646   0.704   2.592  10.363
 2702SOL     OW 8647   1.728   2.797  11.164
 2702SOL    HW1 8648   1.682   2.790  11.075
 2702SOL    HW2 8649   1.666   2.841  11.230
 2703SOL     OW 8650   0.307   1.925   9.928
 2703SOL    HW1 8651   0.296   2.019   9.961
 2703SOL    HW2 8652   0.302   1.862  10.005
 2704SOL     OW 8653   1.622   2.229   9.684
 2704SOL    HW1 8654   1.624   2.153   9.748
 2704SOL    HW2 8655   1.574   2.306   9.724
 2705SOL     OW 8656   1.023   2.628  10.276
 2705SOL    HW1 8657   1.038   2.649  10.372
 2705SOL    HW2 8658   0.993   2.533  10.267
 2706SOL     OW 8659   0.980   3.435  11.010
 2706SOL    HW1 8660   0.960   3.479  10.922
 2706SOL    HW2 8661   1.019   3.344  10.994
 2707SOL     OW 8662   1.859   3.380  10.915
 2707SOL    HW1 8663   1.873   3.407  10.820
 2707SOL    HW2 8664   1.942   3.402  10.968
 2708SOL     OW 8665   0.350   2.760  11.114
 2708SOL    HW1 8666   0.426   2.804  11.162
 2708SOL    HW2 8667   0.385   2.713  11.032
 2709SOL     OW 8668   1.540   2.136   9.435
 2709SOL    HW1 8669   1.479   2.061   9.458
 2709SOL    HW2 8670   1.562   2.188   9.518
 2710SOL     OW 8671   1.303   2.700   9.352
 2710SOL    HW1 8672   1.337   2.607   9.367
 2710SOL    HW2 8673   1.321   2.727   9.257
 2711SOL     OW 8674   1.068   3.195  10.159
 2711SOL    HW1 8675   1.075   3.111  10.104
 2711SOL    HW2 8676   1.130   3.264  10.123
 2712SOL     OW 8677   0.319   2.672  10.259
 2712SOL    HW1 8678   0.412   2.708  10.264
 2712SOL    HW2 8679   0.313   2.587  10.311
 2713SOL     OW 8680   0.339   2.371  10.316
 2713SOL    HW1 8681   0.287   2.288  10.299
 2713SOL    HW2 8682   0.416   2.376  10.252
 2714SOL     OW 8683   1.138   2.242  10.988
 2714SOL    HW1 8684   1.093   2.305  11.052
 2714SOL    HW2 8685   1.231   2.273  10.971
 2715SOL     OW 8686   1.160   2.069  10.787
 2715SOL    HW1 8687   1.160   2.133  10.864
 2715SOL    HW2 8688   1.188   2.117  10.704
 2716SOL     OW 8689   0.008   3.188   9.510
 2716SOL    HW1 8690  -0.085   3.209   9.479
 2716SOL    HW2 8691   0.018   3.089   9.523
 2717SOL     OW 8692   0.088   3.663  10.237
 2717SOL    HW1 8693   0.046   3.577  10.210
 2717SOL    HW2 8694   0.182   3.666  10.203
 2718SOL     OW 8695   0.504   3.430  10.220
 2718SOL    HW1 8696   0.570   3.504  10.229
 2718SOL    HW2 8697   0.548   3.351  10.178
 2719SOL     OW 8698   1.002   2.658  10.548
 2719SOL    HW1 8699   1.043   2.626  10.634
 2719SOL    HW2 8700   0.906   2.631  10.545
 2720SOL     OW 8701   0.040   2.406  10.424
 2720SOL    HW1 8702   0.125   2.373  10.383
 2720SOL    HW2 8703   0.053   2.421  10.522
 2721SOL     OW 8704   0.189   2.382  11.032
 2721SOL    HW1 8705   0.248   2.342  10.962
 2721SOL    HW2 8706   0.131   2.453  10.991
 2722SOL     OW 8707   1.369   2.812  10.970
 2722SOL    HW1 8708   1.408   2.901  10.990
 2722SOL    HW2 8709   1.379   2.792  10.873
 2723SOL     OW 8710   0.815   2.434   9.635
 2723SOL    HW1 8711   0.822   2.345   9.589
 2723SOL    HW2 8712   0.721   2.468   9.627
 2724SOL     OW 8713   1.657   2.466  10.516
 2724SOL    HW1 8714   1.619   2.397  10.578
 2724SOL    HW2 8715   1.739   2.430  10.472
 2725SOL     OW 8716   0.252   3.426  11.054
 2725SOL    HW1 8717   0.222   3.483  11.130
 2725SOL    HW2 8718   0.245   3.329  11.080
 2726SOL     OW 8719   0.671   2.326  10.579
 2726SOL    HW1 8720   0.637   2.237  10.549
 2726SOL    HW2 8721   0.697   2.380  10.499
 2727SOL     OW 8722   0.930   3.540  10.775
 2727SOL    HW1 8723   0.906   3.522  10.680
 2727SOL    HW2 8724   0.960   3.634  10.785
 2728SOL     OW 8725   0.473   2.362   9.501
 2728SOL    HW1 8726   0.534   2.442   9.505
 2728SOL    HW2 8727   0.378   2.393   9.508
 2729SOL     OW 8728   0.159   2.999  10.776
 2729SOL    HW1 8729   0.181   2.938  10.852
 2729SOL    HW2 8730   0.169   2.950  10.690
 2730SOL     OW 8731   1.347   2.921  10.544
 2730SOL    HW1 8732   1.371   2.858  10.470
 2730SOL    HW2 8733   1.257   2.961  10.526
 2731SOL     OW 8734   1.302   2.717   9.619
 2731SOL    HW1 8735   1.216   2.686   9.661
 2731SOL    HW2 8736   1.298   2.703   9.520
 2732SOL     OW 8737   1.759   3.609  10.464
 2732SOL    HW1 8738   1.820   3.639  10.391
 2732SOL    HW2 8739   1.721   3.520  10.442
 2733SOL     OW 8740   1.252   3.593  10.438
 2733SOL    HW1 8741   1.336   3.598  10.384
 2733SOL    HW2 8742   1.229   3.497  10.456
 2734SOL     OW 8743   0.083   3.120  10.332
 2734SOL    HW1 8744   0.078   3.119  10.432
 2734SOL    HW2 8745   0.000   3.079  10.294
 2735SOL     OW 8746   0.688   3.524  11.026
 2735SOL    HW1 8747   0.632   3.605  11.035
 2735SOL    HW2 8748   0.740   3.528  10.940
 2736SOL     OW 8749   1.388   3.435   9.787
 2736SOL    HW1 8750   1.455   3.447   9.713
 2736SOL    HW2 8751   1.348   3.524   9.810
 2737SOL     OW 8752   0.130   3.656  11.161
 2737SOL    HW1 8753   0.089   3.582  11.214
 2737SOL    HW2 8754   0.194   3.707  11.219
 2738SOL     OW 8755   1.280   2.789   9.982
 2738SOL    HW1 8756   1.340   2.708   9.984
 2738SOL    HW2 8757   1.320   2.858   9.922
 2739SOL     OW 8758   0.830   3.135  10.732
 2739SOL    HW1 8759   0.825   3.168  10.827
 2739SOL    HW2 8760   0.744   3.154  10.686
 2740SOL     OW 8761   0.672   3.478   9.464
 2740SOL    HW1 8762   0.681   3.488   9.365
 2740SOL    HW2 8763   0.632   3.389   9.485
 2741SOL     OW 8764   1.650   3.582  10.704
 2741SOL    HW1 8765   1.703   3.592  10.620
 2741SOL    HW2 8766   1.623   3.672  10.738
 2742SOL     OW 8767   0.263   2.188  10.030
 2742SOL    HW1 8768   0.184   2.239   9.996
 2742SOL    HW2 8769   0.254   2.173  10.128
 2743SOL     OW 8770   1.194   3.474   9.341
 2743SOL    HW1 8771   1.200   3.381   9.378
 2743SOL    HW2 8772   1.135   3.474   9.261
 2744SOL     OW 8773   0.822   2.864  10.682
 2744SOL    HW1 8774   0.862   2.863  10.590
 2744SOL    HW2 8775   0.832   2.956  10.722
 2745SOL     OW 8776   0.916   2.772   9.601
 2745SOL    HW1 8777   0.979   2.810   9.533
 2745SOL    HW2 8778   0.956   2.689   9.640
 2746SOL     OW 8779   1.504   3.469   9.354
 2746SOL    HW1 8780   1.412   3.506   9.361
 2746SOL    HW2 8781   1.542   3.489   9.264
 2747SOL     OW 8782   0.372   3.150  10.800
 2747SOL    HW1 8783   0.359   3.243  10.766
 2747SOL    HW2 8784   0.288   3.098  10.787
 2748SOL     OW 8785   1.614   3.154  10.599
 2748SOL    HW1 8786   1.674   3.157  10.679
 2748SOL    HW2 8787   1.539   3.218  10.612
 2749SOL     OW 8788   1.039   2.960  10.006
 2749SOL    HW1 8789   0.969   2.913  10.060
 2749SOL    HW2 8790   1.098   2.892   9.963
 2750SOL     OW 8791   1.014   2.098  10.281
 2750SOL    HW1 8792   1.006   2.062  10.188
 2750SOL    HW2 8793   1.012   2.022  10.346
 2751SOL     OW 8794   0.590   3.349   9.801
 2751SOL    HW1 8795   0.632   3.291   9.731
 2751SOL    HW2 8796   0.546   3.428   9.757
 2752SOL     OW 8797   1.709   2.247  10.691
 2752SOL    HW1 8798   1.782   2.316  10.695
 2752SOL    HW2 8799   1.737   2.172  10.632
 2753SOL     OW 8800   0.255   3.210   9.600
 2753SOL    HW1 8801   0.159   3.211   9.573
 2753SOL    HW2 8802   0.267   3.263   9.684
 2754SOL     OW 8803   0.105   2.875  11.036
 2754SOL    HW1 8804   0.028   2.842  11.090
 2754SOL    HW2 8805   0.190   2.845  11.078
 2755SOL     OW 8806   0.672   2.065  10.799
 2755SOL    HW1 8807   0.762   2.049  10.759
 2755SOL    HW2 8808   0.680   2.070  10.898
 2756SOL     OW 8809   0.075   2.207   9.343
 2756SOL    HW1 8810  -0.017   2.179   9.314
 2756SOL    HW2 8811   0.106   2.284   9.287
 2757SOL     OW 8812   1.440   2.718  10.708
 2757SOL    HW1 8813   1.383   2.770  10.645
 2757SOL    HW2 8814   1.536   2.730  10.684
 2758SOL     OW 8815   0.072   2.028   9.628
 2758SOL    HW1 8816   0.055   2.111   9.574
 2758SOL    HW2 8817   0.162   1.991   9.606
 2759SOL     OW 8818   1.183   3.197   9.429
 2759SOL    HW1 8819   1.084   3.186   9.431
 2759SOL    HW2 8820   1.217   3.212   9.522
 2760SOL     OW 8821   0.613   2.704  10.741
 2760SOL    HW1 8822   0.669   2.785  10.724
 2760SOL    HW2 8823   0.672   2.624  10.744
 2761SOL     OW 8824   1.493   3.629  10.269
 2761SOL    HW1 8825   1.526   3.693  10.200
 2761SOL    HW2 8826   1.559   3.623  10.344
 2762SOL     OW 8827   0.716   2.427  11.018
 2762SOL    HW1 8828   0.735   2.492  11.092
 2762SOL    HW2 8829   0.776   2.347  11.027
 2763SOL     OW 8830   1.450   3.082  10.943
 2763SOL    HW1 8831   1.441   3.072  11.042
 2763SOL    HW2 8832   1.546   3.075  10.917
 2764SOL     OW 8833   0.390   3.603  10.870
 2764SOL    HW1 8834   0.299   3.644  10.868
 2764SOL    HW2 8835   0.383   3.509  10.902
 2765SOL     OW 8836   1.674   2.745  10.564
 2765SOL    HW1 8837   1.647   2.656  10.527
 2765SOL    HW2 8838   1.675   2.813  10.491
 2766SOL     OW 8839   1.225   2.187   9.759
 2766SOL    HW1 8840   1.290   2.113   9.748
 2766SOL    HW2 8841   1.245   2.237   9.843
 2767SOL     OW 8842   0.594   2.607   9.962
 2767SOL    HW1 8843   0.644   2.692   9.943
 2767SOL    HW2 8844   0.506   2.609   9.914
 2768SOL     OW 8845   1.777   2.204  10.952
 2768SOL    HW1 8846   1.760   2.235  10.858
 2768SOL    HW2 8847   1.693   2.167  10.990
 2769SOL     OW 8848   1.730   2.796  10.827
 2769SOL    HW1 8849   1.768   2.887  10.842
 2769SOL    HW2 8850   1.722   2.779  10.728
 2770SOL     OW 8851   0.859   3.236   9.326
 2770SOL    HW1 8852   0.813   3.251   9.414
 2770SOL    HW2 8853   0.903   3.321   9.296
 2771SOL     OW 8854   0.661   3.652  10.263
 2771SOL    HW1 8855   0.615   3.740  10.250
 2771SOL    HW2 8856   0.760   3.664  10.256
 2772SOL     OW 8857   0.859   2.818  10.171
 2772SOL    HW1 8858   0.913   2.749  10.219
 2772SOL    HW2 8859   0.827   2.887  10.237
 2773SOL     OW 8860   1.083   2.846   9.397
 2773SOL    HW1 8861   1.060   2.899   9.315
 2773SOL    HW2 8862   1.164   2.790   9.378
 2774SOL     OW 8863   1.861   3.431  10.161
 2774SOL    HW1 8864   1.790   3.419  10.091
 2774SOL    HW2 8865   1.862   3.352  10.221
 2775SOL     OW 8866   0.221   3.176  11.154
 2775SOL    HW1 8867   0.156   3.103  11.133
 2775SOL    HW2 8868   0.225   3.190  11.252
 2776SOL     OW 8869   0.079   3.102   9.963
 2776SOL    HW1 8870   0.078   3.055  10.051
 2776SOL    HW2 8871   0.161   3.074   9.912
 2777SOL     OW 8872   0.672   3.253  10.934
 2777SOL    HW1 8873   0.594   3.203  10.972
 2777SOL    HW2 8874   0.669   3.348  10.965
 2778SOL     OW 8875   0.428   2.286   9.830
 2778SOL    HW1 8876   0.458   2.214   9.768
 2778SOL    HW2 8877   0.389   2.246   9.913
 2779SOL     OW 8878   1.705   3.349  10.414
 2779SOL    HW1 8879   1.612   3.324  10.387
 2779SOL    HW2 8880   1.731   3.299  10.496
 2780SOL     OW 8881   0.317   2.409  10.590
 2780SOL    HW1 8882   0.355   2.350  10.662
 2780SOL    HW2 8883   0.357   2.383  10.502
 2781SOL     OW 8884   0.812   3.448   9.997
 2781SOL    HW1 8885   0.844   3.458   9.903
 2781SOL    HW2 8886   0.733   3.386   9.999
 2782SOL     OW 8887   1.424   2.076  10.422
 2782SOL    HW1 8888   1.476   2.011  10.477
 2782SOL    HW2 8889   1.375   2.139  10.483
 2783SOL     OW 8890   1.001   1.896  10.464
 2783SOL    HW1 8891   0.938   1.824  10.433
 2783SOL    HW2 8892   1.094   1.860  10.464
 2784SOL     OW 8893   0.770   3.192   9.611
 2784SOL    HW1 8894   0.724   3.105   9.628
 2784SOL    HW2 8895   0.861   3.189   9.652
 2785SOL     OW 8896   0.618   3.429  10.594
 2785SOL    HW1 8897   0.613   3.511  10.651
 2785SOL    HW2 8898   0.707   3.426  10.549
 2786SOL     OW 8899   1.352   1.914   9.478
 2786SOL    HW1 8900   1.387   1.873   9.394
 2786SOL    HW2 8901   1.262   1.876   9.498
 2787SOL     OW 8902   1.300   2.315  10.001
 2787SOL    HW1 8903   1.241   2.395  10.005
 2787SOL    HW2 8904   1.315   2.280  10.094
 2788SOL     OW 8905   1.593   2.083  10.192
 2788SOL    HW1 8906   1.509   2.082  10.246
 2788SOL    HW2 8907   1.595   2.166  10.136
 2789SOL     OW 8908   0.039   2.939   9.610
 2789SOL    HW1 8909   0.138   2.928   9.601
 2789SOL    HW2 8910  -0.001   2.853   9.642
 2790SOL     OW 8911   0.875   3.508   9.647
 2790SOL    HW1 8912   0.798   3.473   9.593
 2790SOL    HW2 8913   0.843   3.579   9.709
 2791SOL     OW 8914   0.230   2.490  11.285
 2791SOL    HW1 8915   0.137   2.488  11.322
 2791SOL    HW2 8916   0.231   2.451  11.193
 2792SOL     OW 8917   0.225   2.137  12.168
 2792SOL    HW1 8918   0.260   2.120  12.260
 2792SOL    HW2 8919   0.137   2.092  12.156
 2793SOL     OW 8920   0.019   2.230  11.819
 2793SOL    HW1 8921  -0.063   2.273  11.858
 2793SOL    HW2 8922  -0.009   2.157  11.756
 2794SOL     OW 8923   0.569   3.137  12.337
 2794SOL    HW1 8924   0.476   3.130  12.300
 2794SOL    HW2 8925   0.580   3.226  12.381
 2795SOL     OW 8926   1.555   3.373  11.875
 2795SOL    HW1 8927   1.498   3.357  11.956
 2795SOL    HW2 8928   1.496   3.383  11.795
 2796SOL     OW 8929   1.135   2.565  11.889
 2796SOL    HW1 8930   1.192   2.643  11.864
 2796SOL    HW2 8931   1.075   2.591  11.965
 2797SOL     OW 8932   1.755   2.469  11.403
 2797SOL    HW1 8933   1.743   2.456  11.304
 2797SOL    HW2 8934   1.725   2.388  11.452
 2798SOL     OW 8935   0.768   3.006  12.195
 2798SOL    HW1 8936   0.690   3.023  12.255
 2798SOL    HW2 8937   0.802   3.093  12.159
 2799SOL     OW 8938   0.850   2.660  12.995
 2799SOL    HW1 8939   0.846   2.736  13.060
 2799SOL    HW2 8940   0.872   2.696  12.904
 2800SOL     OW 8941   0.685   2.874  11.837
 2800SOL    HW1 8942   0.754   2.858  11.907
 2800SOL    HW2 8943   0.612   2.931  11.875
 2801SOL     OW 8944   0.686   3.023  12.975
 2801SOL    HW1 8945   0.746   3.102  12.989
 2801SOL    HW2 8946   0.600   3.054  12.934
 2802SOL     OW 8947   0.335   3.297  12.233
 2802SOL    HW1 8948   0.257   3.266  12.180
 2802SOL    HW2 8949   0.393   3.355  12.176
 2803SOL     OW 8950   1.460   3.367  12.511
 2803SOL    HW1 8951   1.484   3.461  12.537
 2803SOL    HW2 8952   1.444   3.313  12.593
 2804SOL     OW 8953   0.438   2.254  12.671
 2804SOL    HW1 8954   0.520   2.198  12.680
 2804SOL    HW2 8955   0.357   2.196  12.675
 2805SOL     OW 8956   1.603   2.309  11.909
 2805SOL    HW1 8957   1.529   2.355  11.859
 2805SOL    HW2 8958   1.654   2.377  11.962
 2806SOL     OW 8959   0.231   3.575  11.655
 2806SOL    HW1 8960   0.265   3.652  11.709
 2806SOL    HW2 8961   0.275   3.575  11.565
 2807SOL     OW 8962   1.127   3.203  12.862
 2807SOL    HW1 8963   1.174   3.203  12.950
 2807SOL    HW2 8964   1.079   3.116  12.851
 2808SOL     OW 8965   0.230   3.296  11.710
 2808SOL    HW1 8966   0.204   3.392  11.710
 2808SOL    HW2 8967   0.159   3.242  11.755
 2809SOL     OW 8968   0.240   2.953  12.058
 2809SOL    HW1 8969   0.254   2.869  12.110
 2809SOL    HW2 8970   0.185   3.017  12.113
 2810SOL     OW 8971   0.620   3.648  12.611
 2810SOL    HW1 8972   0.528   3.631  12.646
 2810SOL    HW2 8973   0.648   3.740  12.637
 2811SOL     OW 8974   0.606   2.826  11.295
 2811SOL    HW1 8975   0.613   2.910  11.241
 2811SOL    HW2 8976   0.652   2.839  11.383
 2812SOL     OW 8977   1.594   1.976  12.652
 2812SOL    HW1 8978   1.576   2.043  12.580
 2812SOL    HW2 8979   1.591   2.022  12.741
 2813SOL     OW 8980   0.122   2.505  11.735
 2813SOL    HW1 8981   0.077   2.417  11.752
 2813SOL    HW2 8982   0.121   2.559  11.819
 2814SOL     OW 8983   1.842   3.629  11.531
 2814SOL    HW1 8984   1.896   3.600  11.611
 2814SOL    HW2 8985   1.872   3.719  11.502
 2815SOL     OW 8986   0.027   3.458  11.289
 2815SOL    HW1 8987   0.008   3.362  11.310
 2815SOL    HW2 8988  -0.006   3.516  11.364
 2816SOL     OW 8989   1.689   2.784  11.784
 2816SOL    HW1 8990   1.784   2.755  11.792
 2816SOL    HW2 8991   1.681   2.849  11.709
 2817SOL     OW 8992   1.641   2.970  11.604
 2817SOL    HW1 8993   1.727   2.972  11.552
 2817SOL    HW2 8994   1.655   3.017  11.692
 2818SOL     OW 8995   0.113   2.599  12.769
 2818SOL    HW1 8996   0.201   2.586  12.814
 2818SOL    HW2 8997   0.100   2.696  12.747
 2819SOL     OW 8998   0.613   3.227  11.898
 2819SOL    HW1 8999   0.564   3.140  11.907
 2819SOL    HW2 9000   0.590   3.270  11.811
 2820SOL     OW 9001   1.293   3.090  12.595
 2820SOL    HW1 9002   1.330   3.017  12.537
 2820SOL    HW2 9003   1.345   3.095  12.680
 2821SOL     OW 9004   0.809   1.866  11.674
 2821SOL    HW1 9005   0.849   1.957  11.665
 2821SOL    HW2 9006   0.709   1.874  11.680
 2822SOL     OW 9007   0.197   2.838  12.436
 2822SOL    HW1 9008   0.286   2.793  12.422
 2822SOL    HW2 9009   0.124   2.773  12.417
 2823SOL     OW 9010   1.525   2.861  11.362
 2823SOL    HW1 9011   1.462   2.785  11.375
 2823SOL    HW2 9012   1.573   2.879  11.448
 2824SOL     OW 9013   1.187   3.654  12.788
 2824SOL    HW1 9014   1.211   3.714  12.712
 2824SOL    HW2 9015   1.194   3.559  12.758
 2825SOL     OW 9016   0.317   2.113  12.973
 2825SOL    HW1 9017   0.388   2.184  12.979
 2825SOL    HW2 9018   0.229   2.152  13.001
 2826SOL     OW 9019   1.466   3.279  12.125
 2826SOL    HW1 9020   1.407   3.285  12.205
 2826SOL    HW2 9021   1.451   3.191  12.079
 2827SOL     OW 9022   1.667   3.576  11.744
 2827SOL    HW1 9023   1.626   3.553  11.656
 2827SOL    HW2 9024   1.649   3.502  11.809
 2828SOL     OW 9025   0.598   2.591  11.442
 2828SOL    HW1 9026   0.622   2.660  11.374
 2828SOL    HW2 9027   0.520   2.624  11.496
 2829SOL     OW 9028   1.281   2.207  12.116
 2829SOL    HW1 9029   1.195   2.157  12.103
 2829SOL    HW2 9030   1.343   2.153  12.172
 2830SOL     OW 9031   1.576   3.524  11.479
 2830SOL    HW1 9032   1.665   3.570  11.482
 2830SOL    HW2 9033   1.555   3.500  11.384
 2831SOL     OW 9034   0.807   2.467  12.637
 2831SOL    HW1 9035   0.760   2.464  12.726
 2831SOL    HW2 9036   0.756   2.412  12.571
 2832SOL     OW 9037   1.394   2.331  12.846
 2832SOL    HW1 9038   1.374   2.374  12.934
 2832SOL    HW2 9039   1.472   2.269  12.855
 2833SOL     OW 9040   0.973   2.752  12.744
 2833SOL    HW1 9041   1.019   2.668  12.715
 2833SOL    HW2 9042   0.917   2.786  12.669
 2834SOL     OW 9043   0.991   2.272  12.414
 2834SOL    HW1 9044   0.914   2.306  12.468
 2834SOL    HW2 9045   0.957   2.221  12.335
 2835SOL     OW 9046   1.041   2.563  11.601
 2835SOL    HW1 9047   1.067   2.559  11.697
 2835SOL    HW2 9048   0.956   2.512  11.587
 2836SOL     OW 9049   0.076   2.673  11.961
 2836SOL    HW1 9050   0.175   2.661  11.970
 2836SOL    HW2 9051   0.052   2.768  11.982
 2837SOL     OW 9052   0.130   3.683  12.743
 2837SOL    HW1 9053   0.120   3.668  12.842
 2837SOL    HW2 9054   0.044   3.719  12.707
 2838SOL     OW 9055   0.865   2.210  11.367
 2838SOL    HW1 9056   0.924   2.273  11.318
 2838SOL    HW2 9057   0.884   2.116  11.338
 2839SOL     OW 9058   1.719   2.447  13.003
 2839SOL    HW1 9059   1.693   2.536  12.967
 2839SOL    HW2 9060   1.717   2.379  12.930
 2840SOL     OW 9061   1.362   3.006  11.717
 2840SOL    HW1 9062   1.445   2.977  11.669
 2840SOL    HW2 9063   1.313   3.073  11.661
 2841SOL     OW 9064   0.550   2.058  12.057
 2841SOL    HW1 9065   0.545   2.053  12.157
 2841SOL    HW2 9066   0.552   2.154  12.028
 2842SOL     OW 9067   1.008   3.318  11.649
 2842SOL    HW1 9068   0.962   3.390  11.597
 2842SOL    HW2 9069   1.004   3.338  11.747
 2843SOL     OW 9070   0.351   3.663  12.025
 2843SOL    HW1 9071   0.401   3.577  12.031
 2843SOL    HW2 9072   0.416   3.740  12.022
 2844SOL     OW 9073   1.795   2.928  12.045
 2844SOL    HW1 9074   1.733   2.913  11.969
 2844SOL    HW2 9075   1.743   2.939  12.130
 2845SOL     OW 9076   1.227   3.412  12.678
 2845SOL    HW1 9077   1.233   3.335  12.742
 2845SOL    HW2 9078   1.175   3.386  12.598
 2846SOL     OW 9079   0.321   2.805  11.414
 2846SOL    HW1 9080   0.403   2.844  11.372
 2846SOL    HW2 9081   0.294   2.723  11.365
 2847SOL     OW 9082   1.458   2.597  11.900
 2847SOL    HW1 9083   1.453   2.532  11.975
 2847SOL    HW2 9084   1.538   2.656  11.913
 2848SOL     OW 9085   0.461   3.128  12.899
 2848SOL    HW1 9086   0.411   3.129  12.813
 2848SOL    HW2 9087   0.398   3.110  12.975
 2849SOL     OW 9088   1.111   3.638  11.409
 2849SOL    HW1 9089   1.051   3.576  11.459
 2849SOL    HW2 9090   1.142   3.594  11.324
 2850SOL     OW 9091   0.202   2.147  12.670
 2850SOL    HW1 9092   0.122   2.207  12.657
 2850SOL    HW2 9093   0.192   2.098  12.756
 2851SOL     OW 9094   1.632   3.239  11.253
 2851SOL    HW1 9095   1.600   3.333  11.243
 2851SOL    HW2 9096   1.556   3.176  11.241
 2852SOL     OW 9097   0.464   3.605  11.495
 2852SOL    HW1 9098   0.497   3.644  11.581
 2852SOL    HW2 9099   0.540   3.598  11.430
 2853SOL     OW 9100   1.400   1.969  11.598
 2853SOL    HW1 9101   1.376   1.932  11.508
 2853SOL    HW2 9102   1.499   1.985  11.602
 2854SOL     OW 9103   0.249   3.647  12.413
 2854SOL    HW1 9104   0.306   3.582  12.463
 2854SOL    HW2 9105   0.233   3.614  12.320
 2855SOL     OW 9106   0.940   3.560  12.076
 2855SOL    HW1 9107   1.020   3.503  12.097
 2855SOL    HW2 9108   0.891   3.520  11.999
 2856SOL     OW 9109   0.382   2.562  11.652
 2856SOL    HW1 9110   0.427   2.472  11.649
 2856SOL    HW2 9111   0.288   2.551  11.685
 2857SOL     OW 9112   1.547   2.084  12.901
 2857SOL    HW1 9113   1.542   2.121  12.993
 2857SOL    HW2 9114   1.475   2.015  12.889
 2858SOL     OW 9115   0.614   1.984  11.289
 2858SOL    HW1 9116   0.712   1.962  11.296
 2858SOL    HW2 9117   0.583   1.967  11.196
 2859SOL     OW 9118   0.781   2.126  12.921
 2859SOL    HW1 9119   0.848   2.065  12.964
 2859SOL    HW2 9120   0.708   2.145  12.986
 2860SOL     OW 9121   0.888   3.376  12.367
 2860SOL    HW1 9122   0.865   3.351  12.273
 2860SOL    HW2 9123   0.949   3.307  12.406
 2861SOL     OW 9124   1.351   2.452  12.605
 2861SOL    HW1 9125   1.379   2.409  12.690
 2861SOL    HW2 9126   1.376   2.548  12.606
 2862SOL     OW 9127   0.803   3.264  12.096
 2862SOL    HW1 9128   0.893   3.278  12.054
 2862SOL    HW2 9129   0.732   3.266  12.025
 2863SOL     OW 9130   0.922   2.365  12.071
 2863SOL    HW1 9131   0.897   2.356  11.975
 2863SOL    HW2 9132   0.970   2.283  12.102
 2864SOL     OW 9133   0.539   1.926  11.684
 2864SOL    HW1 9134   0.458   1.927  11.742
 2864SOL    HW2 9135   0.542   2.009  11.629
 2865SOL     OW 9136   1.434   3.050  11.213
 2865SOL    HW1 9137   1.466   2.974  11.270
 2865SOL    HW2 9138   1.342   3.077  11.243
 2866SOL     OW 9139   0.297   1.897  11.343
 2866SOL    HW1 9140   0.346   1.981  11.322
 2866SOL    HW2 9141   0.359   1.832  11.388
 2867SOL     OW 9142   0.935   2.098  11.652
 2867SOL    HW1 9143   0.887   2.139  11.574
 2867SOL    HW2 9144   1.034   2.096  11.633
 2868SOL     OW 9145   1.076   2.545  12.636
 2868SOL    HW1 9146   0.996   2.484  12.639
 2868SOL    HW2 9147   1.157   2.492  12.612
 2869SOL     OW 9148   1.227   3.432  11.965
 2869SOL    HW1 9149   1.248   3.506  11.900
 2869SOL    HW2 9150   1.295   3.432  12.038
 2870SOL     OW 9151   0.459   3.014  11.913
 2870SOL    HW1 9152   0.388   2.987  11.978
 2870SOL    HW2 9153   0.433   2.986  11.820
 2871SOL     OW 9154   1.271   3.659  11.763
 2871SOL    HW1 9155   1.315   3.723  11.699
 2871SOL    HW2 9156   1.221   3.711  11.833
 2872SOL     OW 9157   1.032   2.411  11.188
 2872SOL    HW1 9158   0.991   2.493  11.149
 2872SOL    HW2 9159   1.096   2.437  11.261
 2873SOL     OW 9160   0.078   2.418  12.558
 2873SOL    HW1 9161   0.170   2.417  12.517
 2873SOL    HW2 9162   0.072   2.492  12.625
 2874SOL     OW 9163   0.561   2.084  12.319
 2874SOL    HW1 9164   0.599   2.000  12.356
 2874SOL    HW2 9165   0.473   2.103  12.363
 2875SOL     OW 9166   0.866   2.316  11.814
 2875SOL    HW1 9167   0.834   2.388  11.752
 2875SOL    HW2 9168   0.890   2.235  11.761
 2876SOL     OW 9169   1.017   1.901  11.925
 2876SOL    HW1 9170   0.945   1.906  11.856
 2876SOL    HW2 9171   0.993   1.832  11.994
 2877SOL     OW 9172   1.429   3.035  12.039
 2877SOL    HW1 9173   1.374   2.951  12.032
 2877SOL    HW2 9174   1.455   3.064  11.947
 2878SOL     OW 9175   1.466   2.452  12.164
 2878SOL    HW1 9176   1.436   2.357  12.171
 2878SOL    HW2 9177   1.539   2.468  12.230
 2879SOL     OW 9178   1.857   2.695  11.549
 2879SOL    HW1 9179   1.899   2.631  11.613
 2879SOL    HW2 9180   1.819   2.644  11.471
 2880SOL     OW 9181   0.488   3.247  11.346
 2880SOL    HW1 9182   0.401   3.232  11.393
 2880SOL    HW2 9183   0.471   3.273  11.251
 2881SOL     OW 9184   1.664   3.142  11.829
 2881SOL    HW1 9185   1.763   3.150  11.843
 2881SOL    HW2 9186   1.619   3.226  11.860
 2882SOL     OW 9187   1.390   2.437  11.250
 2882SOL    HW1 9188   1.336   2.416  11.331
 2882SOL    HW2 9189   1.481   2.396  11.259
 2883SOL     OW 9190   0.527   2.118  11.500
 2883SOL    HW1 9191   0.554   2.059  11.425
 2883SOL    HW2 9192   0.527   2.213  11.469
 2884SOL     OW 9193   1.754   3.085  12.760
 2884SOL    HW1 9194   1.845   3.046  12.747
 2884SOL    HW2 9195   1.762   3.181  12.784
 2885SOL     OW 9196   1.064   3.209  12.512
 2885SOL    HW1 9197   0.984   3.186  12.567
 2885SOL    HW2 9198   1.147   3.183  12.561
 2886SOL     OW 9199   1.592   3.491  12.797
 2886SOL    HW1 9200   1.619   3.525  12.707
 2886SOL    HW2 9201   1.671   3.453  12.843
 2887SOL     OW 9202   1.111   3.057  12.272
 2887SOL    HW1 9203   1.071   3.101  12.353
 2887SOL    HW2 9204   1.070   3.094  12.189
 2888SOL     OW 9205   1.638   2.961  12.251
 2888SOL    HW1 9206   1.643   3.042  12.310
 2888SOL    HW2 9207   1.552   2.963  12.200
 2889SOL     OW 9208   0.915   1.951  12.574
 2889SOL    HW1 9209   0.940   1.931  12.479
 2889SOL    HW2 9210   0.987   2.007  12.616
 2890SOL     OW 9211   0.980   2.978  12.891
 2890SOL    HW1 9212   0.881   2.984  12.901
 2890SOL    HW2 9213   1.003   2.898  12.835
 2891SOL     OW 9214   0.705   2.912  11.540
 2891SOL    HW1 9215   0.691   2.919  11.639
 2891SOL    HW2 9216   0.789   2.861  11.522
 2892SOL     OW 9217   0.410   2.675  12.423
 2892SOL    HW1 9218   0.496   2.687  12.473
 2892SOL    HW2 9219   0.368   2.588  12.450
 2893SOL     OW 9220   1.274   2.248  12.434
 2893SOL    HW1 9221   1.295   2.322  12.498
 2893SOL    HW2 9222   1.185   2.265  12.391
 2894SOL     OW 9223   0.064   3.426  12.503
 2894SOL    HW1 9224   0.018   3.508  12.469
 2894SOL    HW2 9225   0.162   3.445  12.512
 2895SOL     OW 9226   0.367   2.962  11.673
 2895SOL    HW1 9227   0.360   3.045  11.617
 2895SOL    HW2 9228   0.371   2.882  11.613
 2896SOL     OW 9229   0.566   2.399  12.037
 2896SOL    HW1 9230   0.578   2.465  11.963
 2896SOL    HW2 9231   0.612   2.433  12.120
 2897SOL     OW 9232   1.252   3.210  11.560
 2897SOL    HW1 9233   1.302   3.287  11.600
 2897SOL    HW2 9234   1.157   3.212  11.592
 2898SOL     OW 9235   1.272   3.307  12.314
 2898SOL    HW1 9236   1.319   3.320  12.401
 2898SOL    HW2 9237   1.206   3.233  12.323
 2899SOL     OW 9238   1.582   2.501  11.644
 2899SOL    HW1 9239   1.551   2.562  11.717
 2899SOL    HW2 9240   1.632   2.553  11.575
 2900SOL     OW 9241   0.354   3.372  12.501
 2900SOL    HW1 9242   0.333   3.328  12.414
 2900SOL    HW2 9243   0.451   3.398  12.504
 2901SOL     OW 9244   0.402   2.613  12.770
 2901SOL    HW1 9245   0.470   2.668  12.723
 2901SOL    HW2 9246   0.442   2.525  12.797
 2902SOL     OW 9247   1.587   2.641  12.842
 2902SOL    HW1 9248   1.495   2.679  12.837
 2902SOL    HW2 9249   1.647   2.688  12.777
 2903SOL     OW 9250   1.013   1.967  12.942
 2903SOL    HW1 9251   1.019   2.052  12.890
 2903SOL    HW2 9252   1.045   1.891  12.885
 2904SOL     OW 9253   0.504   1.912  12.912
 2904SOL    HW1 9254   0.462   1.855  12.842
 2904SOL    HW2 9255   0.438   1.981  12.944
 2905SOL     OW 9256   0.573   2.732  12.201
 2905SOL    HW1 9257   0.617   2.821  12.192
 2905SOL    HW2 9258   0.510   2.732  12.278
 2906SOL     OW 9259   1.360   2.724  12.217
 2906SOL    HW1 9260   1.285   2.724  12.151
 2906SOL    HW2 9261   1.397   2.632  12.226
 2907SOL     OW 9262   1.209   2.387  11.447
 2907SOL    HW1 9263   1.222   2.303  11.501
 2907SOL    HW2 9264   1.180   2.461  11.507
 2908SOL     OW 9265   0.307   2.075  12.403
 2908SOL    HW1 9266   0.284   2.112  12.493
 2908SOL    HW2 9267   0.277   1.980  12.397
 2909SOL     OW 9268   0.037   3.172  12.454
 2909SOL    HW1 9269   0.090   3.123  12.522
 2909SOL    HW2 9270   0.059   3.270  12.459
 2910SOL     OW 9271   0.732   2.496  12.236
 2910SOL    HW1 9272   0.791   2.470  12.160
 2910SOL    HW2 9273   0.704   2.592  12.225
 2911SOL     OW 9274   1.728   2.797  13.026
 2911SOL    HW1 9275   1.682   2.790  12.937
 2911SOL    HW2 9276   1.666   2.841  13.092
 2912SOL     OW 9277   0.307   1.925  11.790
 2912SOL    HW1 9278   0.296   2.019  11.823
 2912SOL    HW2 9279   0.302   1.862  11.867
 2913SOL     OW 9280   1.622   2.229  11.546
 2913SOL    HW1 9281   1.624   2.153  11.610
 2913SOL    HW2 9282   1.574   2.306  11.586
 2914SOL     OW 9283   1.023   2.628  12.138
 2914SOL    HW1 9284   1.038   2.649  12.234
 2914SOL    HW2 9285   0.993   2.533  12.129
 2915SOL     OW 9286   0.980   3.435  12.872
 2915SOL    HW1 9287   0.960   3.479  12.784
 2915SOL    HW2 9288   1.019   3.344  12.856
 2916SOL     OW 9289   1.859   3.380  12.777
 2916SOL    HW1 9290   1.873   3.407  12.682
 2916SOL    HW2 9291   1.942   3.402  12.830
 2917SOL     OW 9292   0.350   2.760  12.976
 2917SOL    HW1 9293   0.426   2.804  13.024
 2917SOL    HW2 9294   0.385   2.713  12.894
 2918SOL     OW 9295   1.540   2.136  11.297
 2918SOL    HW1 9296   1.479   2.061  11.320
 2918SOL    HW2 9297   1.562   2.188  11.380
 2919SOL     OW 9298   1.303   2.700  11.214
 2919SOL    HW1 9299   1.337   2.607  11.229
 2919SOL    HW2 9300   1.321   2.727  11.119
 2920SOL     OW 9301   1.068   3.195  12.021
 2920SOL    HW1 9302   1.075   3.111  11.966
 2920SOL    HW2 9303   1.130   3.264  11.985
 2921SOL     OW 9304   0.319   2.672  12.121
 2921SOL    HW1 9305   0.412   2.708  12.126
 2921SOL    HW2 9306   0.313   2.587  12.173
 2922SOL     OW 9307   0.339   2.371  12.178
 2922SOL    HW1 9308   0.287   2.288  12.161
 2922SOL    HW2 9309   0.416   2.376  12.114
 2923SOL     OW 9310   1.138   2.242  12.850
 2923SOL    HW1 9311   1.093   2.305  12.914
 2923SOL    HW2 9312   1.231   2.273  12.833
 2924SOL     OW 9313   1.160   2.069  12.649
 2924SOL    HW1 9314   1.160   2.133  12.726
 2924SOL    HW2 9315   1.188   2.117  12.566
 2925SOL     OW 9316   0.008   3.188  11.372
 2925SOL    HW1 9317  -0.085   3.209  11.341
 2925SOL    HW2 9318   0.018   3.089  11.385
 2926SOL     OW 9319   0.088   3.663  12.099
 2926SOL    HW1 9320   0.046   3.577  12.072
 2926SOL    HW2 9321   0.182   3.666  12.065
 2927SOL     OW 9322   0.504   3.430  12.082
 2927SOL    HW1 9323   0.570   3.504  12.091
 2927SOL    HW2 9324   0.548   3.351  12.040
 2928SOL     OW 9325   1.002   2.658  12.410
 2928SOL    HW1 9326   1.043   2.626  12.496
 2928SOL    HW2 9327   0.906   2.631  12.407
 2929SOL     OW 9328   0.040   2.406  12.286
 2929SOL    HW1 9329   0.125   2.373  12.245
 2929SOL    HW2 9330   0.053   2.421  12.384
 2930SOL     OW 9331   0.189   2.382  12.894
 2930SOL    HW1 9332   0.248   2.342  12.824
 2930SOL    HW2 9333   0.131   2.453  12.853
 2931SOL     OW 9334   1.369   2.812  12.832
 2931SOL    HW1 9335   1.408   2.901  12.852
 2931SOL    HW2 9336   1.379   2.792  12.735
 2932SOL     OW 9337   0.815   2.434  11.497
 2932SOL    HW1 9338   0.822   2.345  11.451
 2932SOL    HW2 9339   0.721   2.468  11.489
 2933SOL     OW 9340   1.657   2.466  12.378
 2933SOL    HW1 9341   1.619   2.397  12.440
 2933SOL    HW2 9342   1.739   2.430  12.334
 2934SOL     OW 9343   0.252   3.426  12.916
 2934SOL    HW1 9344   0.222   3.483  12.992
 2934SOL    HW2 9345   0.245   3.329  12.942
 2935SOL     OW 9346   0.671   2.326  12.441
 2935SOL    HW1 9347   0.637   2.237  12.411
 2935SOL    HW2 9348   0.697   2.380  12.361
 2936SOL     OW 9349   0.930   3.540  12.637
 2936SOL    HW1 9350   0.906   3.522  12.542
 2936SOL    HW2 9351   0.960   3.634  12.647
 2937SOL     OW 9352   0.473   2.362  11.363
 2937SOL    HW1 9353   0.534   2.442  11.367
 2937SOL    HW2 9354   0.378   2.393  11.370
 2938SOL     OW 9355   0.159   2.999  12.638
 2938SOL    HW1 9356   0.181   2.938  12.714
 2938SOL    HW2 9357   0.169   2.950  12.552
 2939SOL     OW 9358   1.347   2.921  12.406
 2939SOL    HW1 9359   1.371   2.858  12.332
 2939SOL    HW2 9360   1.257   2.961  12.388
 2940SOL     OW 9361   1.302   2.717  11.481
 2940SOL    HW1 9362   1.216   2.686  11.523
 2940SOL    HW2 9363   1.298   2.703  11.382
 2941SOL     OW 9364   1.759   3.609  12.326
 2941SOL    HW1 9365   1.820   3.639  12.253
 2941SOL    HW2 9366   1.721   3.520  12.304
 2942SOL     OW 9367   1.252   3.593  12.300
 2942SOL    HW1 9368   1.336   3.598  12.246
 2942SOL    HW2 9369   1.229   3.497  12.318
 2943SOL     OW 9370   0.083   3.120  12.194
 2943SOL    HW1 9371   0.078   3.119  12.294
 2943SOL    HW2 9372   0.000   3.079  12.156
 2944SOL     OW 9373   0.688   3.524  12.888
 2944SOL    HW1 9374   0.632   3.605  12.897
 2944SOL    HW2 9375   0.740   3.528  12.802
 2945SOL     OW 9376   1.388   3.435  11.649
 2945SOL    HW1 9377   1.455   3.447  11.575
 2945SOL    HW2 9378   1.348   3.524  11.672
 2946SOL     OW 9379   0.130   3.656  13.023
 2946SOL    HW1 9380   0.089   3.582  13.076
 2946SOL    HW2 9381   0.194   3.707  13.081
 2947SOL     OW 9382   1.280   2.789  11.844
 2947SOL    HW1 9383   1.340   2.708  11.846
 2947SOL    HW2 9384   1.320   2.858  11.784
 2948SOL     OW 9385   0.830   3.135  12.594
 2948SOL    HW1 9386   0.825   3.168  12.689
 2948SOL    HW2 9387   0.744   3.154  12.548
 2949SOL     OW 9388   0.672   3.478  11.326
 2949SOL    HW1 9389   0.681   3.488  11.227
 2949SOL    HW2 9390   0.632   3.389  11.347
 2950SOL     OW 9391   1.650   3.582  12.566
 2950SOL    HW1 9392   1.703   3.592  12.482
 2950SOL    HW2 9393   1.623   3.672  12.600
 2951SOL     OW 9394   0.263   2.188  11.892
 2951SOL    HW1 9395   0.184   2.239  11.858
 2951SOL    HW2 9396   0.254   2.173  11.990
 2952SOL     OW 9397   1.194   3.474  11.203
 2952SOL    HW1 9398   1.200   3.381  11.240
 2952SOL    HW2 9399   1.135   3.474  11.123
 2953SOL     OW 9400   0.822   2.864  12.544
 2953SOL    HW1 9401   0.862   2.863  12.452
 2953SOL    HW2 9402   0.832   2.956  12.584
 2954SOL     OW 9403   0.916   2.772  11.463
 2954SOL    HW1 9404   0.979   2.810  11.395
 2954SOL    HW2 9405   0.956   2.689  11.502
 2955SOL     OW 9406   1.504   3.469  11.216
 2955SOL    HW1 9407   1.412   3.506  11.223
 2955SOL    HW2 9408   1.542   3.489  11.126
 2956SOL     OW 9409   0.372   3.150  12.662
 2956SOL    HW1 9410   0.359   3.243  12.628
 2956SOL    HW2 9411   0.288   3.098  12.649
 2957SOL     OW 9412   1.614   3.154  12.461
 2957SOL    HW1 9413   1.674   3.157  12.541
 2957SOL    HW2 9414   1.539   3.218  12.474
 2958SOL     OW 9415   1.039   2.960  11.868
 2958SOL    HW1 9416   0.969   2.913  11.922
 2958SOL    HW2 9417   1.098   2.892  11.825
 2959SOL     OW 9418   1.014   2.098  12.143
 2959SOL    HW1 9419   1.006   2.062  12.050
 2959SOL    HW2 9420   1.012   2.022  12.208
 2960SOL     OW 9421   0.590   3.349  11.663
 2960SOL    HW1 9422   0.632   3.291  11.593
 2960SOL    HW2 9423   0.546   3.428  11.619
 2961SOL     OW 9424   1.709   2.247  12.553
 2961SOL    HW1 9425   1.782   2.316  12.557
 2961SOL    HW2 9426   1.737   2.172  12.494
 2962SOL     OW 9427   0.255   3.210  11.462
 2962SOL    HW1 9428   0.159   3.211  11.435
 2962SOL    HW2 9429   0.267   3.263  11.546
 2963SOL     OW 9430   0.105   2.875  12.898
 2963SOL    HW1 9431   0.028   2.842  12.952
 2963SOL    HW2 9432   0.190   2.845  12.940
 2964SOL     OW 9433   0.672   2.065  12.661
 2964SOL    HW1 9434   0.762   2.049  12.621
 2964SOL    HW2 9435   0.680   2.070  12.760
 2965SOL     OW 9436   0.075   2.207  11.205
 2965SOL    HW1 9437  -0.017   2.179  11.176
 2965SOL    HW2 9438   0.106   2.284  11.149
 2966SOL     OW 9439   1.440   2.718  12.570
 2966SOL    HW1 9440   1.383   2.770  12.507
 2966SOL    HW2 9441   1.536   2.730  12.546
 2967SOL     OW 9442   0.072   2.028  11.490
 2967SOL    HW1 9443   0.055   2.111  11.436
 2967SOL    HW2 9444   0.162   1.991  11.468
 2968SOL     OW 9445   1.183   3.197  11.291
 2968SOL    HW1 9446   1.084   3.186  11.293
 2968SOL    HW2 9447   1.217   3.212  11.384
 2969SOL     OW 9448   0.613   2.704  12.603
 2969SOL    HW1 9449   0.669   2.785  12.586
 2969SOL    HW2 9450   0.672   2.624  12.606
 2970SOL     OW 9451   1.493   3.629  12.131
 2970SOL    HW1 9452   1.526   3.693  12.062
 2970SOL    HW2 9453   1.559   3.623  12.206
 2971SOL     OW 9454   0.716   2.427  12.880
 2971SOL    HW1 9455   0.735   2.492  12.954
 2971SOL    HW2 9456   0.776   2.347  12.889
 2972SOL     OW 9457   1.450   3.082  12.805
 2972SOL    HW1 9458   1.441   3.072  12.904
 2972SOL    HW2 9459   1.546   3.075  12.779
 2973SOL     OW 9460   0.390   3.603  12.732
 2973SOL    HW1 9461   0.299   3.644  12.730
 2973SOL    HW2 9462   0.383   3.509  12.764
 2974SOL     OW 9463   1.674   2.745  12.426
 2974SOL    HW1 9464   1.647   2.656  12.389
 2974SOL    HW2 9465   1.675   2.813  12.353
 2975SOL     OW 9466   1.225   2.187  11.621
 2975SOL    HW1 9467   1.290   2.113  11.610
 2975SOL    HW2 9468   1.245   2.237  11.705
 2976SOL     OW 9469   0.594   2.607  11.824
 2976SOL    HW1 9470   0.644   2.692  11.805
 2976SOL    HW2 9471   0.506   2.609  11.776
 2977SOL     OW 9472   1.777   2.204  12.814
 2977SOL    HW1 9473   1.760   2.235  12.720
 2977SOL    HW2 9474   1.693   2.167  12.852
 2978SOL     OW 9475   1.730   2.796  12.689
 2978SOL    HW1 9476   1.768   2.887  12.704
 2978SOL    HW2 9477   1.722   2.779  12.590
 2979SOL     OW 9478   0.859   3.236  11.188
 2979SOL    HW1 9479   0.813   3.251  11.276
 2979SOL    HW2 9480   0.903   3.321  11.158
 2980SOL     OW 9481   0.661   3.652  12.125
 2980SOL    HW1 9482   0.615   3.740  12.112
 2980SOL    HW2 9483   0.760   3.664  12.118
 2981SOL     OW 9484   0.859   2.818  12.033
 2981SOL    HW1 9485   0.913   2.749  12.081
 2981SOL    HW2 9486   0.827   2.887  12.099
 2982SOL     OW 9487   1.083   2.846  11.259
 2982SOL    HW1 9488   1.060   2.899  11.177
 2982SOL    HW2 9489   1.164   2.790  11.240
 2983SOL     OW 9490   1.861   3.431  12.023
 2983SOL    HW1 9491   1.790   3.419  11.953
 2983SOL    HW2 9492   1.862   3.352  12.083
 2984SOL     OW 9493   0.221   3.176  13.016
 2984SOL    HW1 9494   0.156   3.103  12.995
 2984SOL    HW2 9495   0.225   3.190  13.114
 2985SOL     OW 9496   0.079   3.102  11.825
 2985SOL    HW1 9497   0.078   3.055  11.913
 2985SOL    HW2 9498   0.161   3.074  11.774
 2986SOL     OW 9499   0.672   3.253  12.796
 2986SOL    HW1 9500   0.594   3.203  12.834
 2986SOL    HW2 9501   0.669   3.348  12.827
 2987SOL     OW 9502   0.428   2.286  11.692
 2987SOL    HW1 9503   0.458   2.214  11.630
 2987SOL    HW2 9504   0.389   2.246  11.775
 2988SOL     OW 9505   1.705   3.349  12.276
 2988SOL    HW1 9506   1.612   3.324  12.249
 2988SOL    HW2 9507   1.731   3.299  12.358
 2989SOL     OW 9508   0.317   2.409  12.452
 2989SOL    HW1 9509   0.355   2.350  12.524
 2989SOL    HW2 9510   0.357   2.383  12.364
 2990SOL     OW 9511   0.812   3.448  11.859
 2990SOL    HW1 9512   0.844   3.458  11.765
 2990SOL    HW2 9513   0.733   3.386  11.861
 2991SOL     OW 9514   1.424   2.076  12.284
 2991SOL    HW1 9515   1.476   2.011  12.339
 2991SOL    HW2 9516   1.375   2.139  12.345
 2992SOL     OW 9517   1.001   1.896  12.326
 2992SOL    HW1 9518   0.938   1.824  12.295
 2992SOL    HW2 9519   1.094   1.860  12.326
 2993SOL     OW 9520   0.770   3.192  11.473
 2993SOL    HW1 9521   0.724   3.105  11.490
 2993SOL    HW2 9522   0.861   3.189  11.514
 2994SOL     OW 9523   0.618   3.429  12.456
 2994SOL    HW1 9524   0.613   3.511  12.513
 2994SOL    HW2 9525   0.707   3.426  12.411
 2995SOL     OW 9526   1.352   1.914  11.340
 2995SOL    HW1 9527   1.387   1.873  11.256
 2995SOL    HW2 9528   1.262   1.876  11.360
 2996SOL     OW 9529   1.300   2.315  11.863
 2996SOL    HW1 9530   1.241   2.395  11.867
 2996SOL    HW2 9531   1.315   2.280  11.956
 2997SOL     OW 9532   1.593   2.083  12.054
 2997SOL    HW1 9533   1.509   2.082  12.108
 2997SOL    HW2 9534   1.595   2.166  11.998
 2998SOL     OW 9535   0.039   2.939  11.472
 2998SOL    HW1 9536   0.138   2.928  11.463
 2998SOL    HW2 9537  -0.001   2.853  11.504
 2999SOL     OW 9538   0.875   3.508  11.509
 2999SOL    HW1 9539   0.798   3.473  11.455
 2999SOL    HW2 9540   0.843   3.579  11.571
 3000SOL     OW 9541   0.230   2.490  13.147
 3000SOL    HW1 9542   0.137   2.488  13.184
 3000SOL    HW2 9543   0.231   2.451  13.055
 3001SOL     OW 9544   0.225   2.137  14.030
 3001SOL    HW1 9545   0.260   2.120  14.122
 3001SOL    HW2 9546   0.137   2.092  14.018
 3002SOL     OW 9547   0.019   2.230  13.681
 3002SOL    HW1 9548  -0.063   2.273  13.720
 3002SOL    HW2 9549  -0.009   2.157  13.618
 3003SOL     OW 9550   1.555   3.373  13.737
 3003SOL    HW1 9551   1.498   3.357  13.818
 3003SOL    HW2 9552   1.496   3.383  13.657
 3004SOL     OW 9553   1.135   2.565  13.751
 3004SOL    HW1 9554   1.192   2.643  13.726
 3004SOL    HW2 9555   1.075   2.591  13.827
 3005SOL     OW 9556   1.755   2.469  13.265
 3005SOL    HW1 9557   1.743   2.456  13.166
 3005SOL    HW2 9558   1.725   2.388  13.314
 3006SOL     OW 9559   0.685   2.874  13.699
 3006SOL    HW1 9560   0.754   2.858  13.769
 3006SOL    HW2 9561   0.612   2.931  13.737
 3007SOL     OW 9562   1.603   2.309  13.771
 3007SOL    HW1 9563   1.529   2.355  13.721
 3007SOL    HW2 9564   1.654   2.377  13.824
 3008SOL     OW 9565   0.231   3.575  13.517
 3008SOL    HW1 9566   0.265   3.652  13.571
 3008SOL    HW2 9567   0.275   3.575  13.427
 3009SOL     OW 9568   0.230   3.296  13.572
 3009SOL    HW1 9569   0.204   3.392  13.572
 3009SOL    HW2 9570   0.159   3.242  13.617
 3010SOL     OW 9571   0.240   2.953  13.920
 3010SOL    HW1 9572   0.254   2.869  13.972
 3010SOL    HW2 9573   0.185   3.017  13.975
 3011SOL     OW 9574   0.606   2.826  13.157
 3011SOL    HW1 9575   0.613   2.910  13.103
 3011SOL    HW2 9576   0.652   2.839  13.245
 3012SOL     OW 9577   0.122   2.505  13.597
 3012SOL    HW1 9578   0.077   2.417  13.614
 3012SOL    HW2 9579   0.121   2.559  13.681
 3013SOL     OW 9580   1.842   3.629  13.393
 3013SOL    HW1 9581   1.896   3.600  13.473
 3013SOL    HW2 9582   1.872   3.719  13.364
 3014SOL     OW 9583   0.027   3.458  13.151
 3014SOL    HW1 9584   0.008   3.362  13.172
 3014SOL    HW2 9585  -0.006   3.516  13.226
 3015SOL     OW 9586   1.689   2.784  13.646
 3015SOL    HW1 9587   1.784   2.755  13.654
 3015SOL    HW2 9588   1.681   2.849  13.571
 3016SOL     OW 9589   1.641   2.970  13.466
 3016SOL    HW1 9590   1.727   2.972  13.414
 3016SOL    HW2 9591   1.655   3.017  13.554
 3017SOL     OW 9592   0.613   3.227  13.760
 3017SOL    HW1 9593   0.564   3.140  13.769
 3017SOL    HW2 9594   0.590   3.270  13.673
 3018SOL     OW 9595   0.809   1.866  13.536
 3018SOL    HW1 9596   0.849   1.957  13.527
 3018SOL    HW2 9597   0.709   1.874  13.542
 3019SOL     OW 9598   1.525   2.861  13.224
 3019SOL    HW1 9599   1.462   2.785  13.237
 3019SOL    HW2 9600   1.573   2.879  13.310
 3020SOL     OW 9601   1.667   3.576  13.606
 3020SOL    HW1 9602   1.626   3.553  13.518
 3020SOL    HW2 9603   1.649   3.502  13.671
 3021SOL     OW 9604   0.598   2.591  13.304
 3021SOL    HW1 9605   0.622   2.660  13.236
 3021SOL    HW2 9606   0.520   2.624  13.358
 3022SOL     OW 9607   1.281   2.207  13.978
 3022SOL    HW1 9608   1.195   2.157  13.965
 3022SOL    HW2 9609   1.343   2.153  14.034
 3023SOL     OW 9610   1.576   3.524  13.341
 3023SOL    HW1 9611   1.665   3.570  13.344
 3023SOL    HW2 9612   1.555   3.500  13.246
 3024SOL     OW 9613   1.041   2.563  13.463
 3024SOL    HW1 9614   1.067   2.559  13.559
 3024SOL    HW2 9615   0.956   2.512  13.449
 3025SOL     OW 9616   0.076   2.673  13.823
 3025SOL    HW1 9617   0.175   2.661  13.832
 3025SOL    HW2 9618   0.052   2.768  13.844
 3026SOL     OW 9619   0.865   2.210  13.229
 3026SOL    HW1 9620   0.924   2.273  13.180
 3026SOL    HW2 9621   0.884   2.116  13.200
 3027SOL     OW 9622   1.362   3.006  13.579
 3027SOL    HW1 9623   1.445   2.977  13.531
 3027SOL    HW2 9624   1.313   3.073  13.523
 3028SOL     OW 9625   1.008   3.318  13.511
 3028SOL    HW1 9626   0.962   3.390  13.459
 3028SOL    HW2 9627   1.004   3.338  13.609
 3029SOL     OW 9628   0.351   3.663  13.887
 3029SOL    HW1 9629   0.401   3.577  13.893
 3029SOL    HW2 9630   0.416   3.740  13.884
 3030SOL     OW 9631   1.795   2.928  13.907
 3030SOL    HW1 9632   1.733   2.913  13.831
 3030SOL    HW2 9633   1.743   2.939  13.992
 3031SOL     OW 9634   0.321   2.805  13.276
 3031SOL    HW1 9635   0.403   2.844  13.234
 3031SOL    HW2 9636   0.294   2.723  13.227
 3032SOL     OW 9637   1.458   2.597  13.762
 3032SOL    HW1 9638   1.453   2.532  13.837
 3032SOL    HW2 9639   1.538   2.656  13.775
 3033SOL     OW 9640   1.111   3.638  13.271
 3033SOL    HW1 9641   1.051   3.576  13.321
 3033SOL    HW2 9642   1.142   3.594  13.186
 3034SOL     OW 9643   1.632   3.239  13.115
 3034SOL    HW1 9644   1.600   3.333  13.105
 3034SOL    HW2 9645   1.556   3.176  13.103
 3035SOL     OW 9646   0.464   3.605  13.357
 3035SOL    HW1 9647   0.497   3.644  13.443
 3035SOL    HW2 9648   0.540   3.598  13.292
 3036SOL     OW 9649   1.400   1.969  13.460
 3036SOL    HW1 9650   1.376   1.932  13.370
 3036SOL    HW2 9651   1.499   1.985  13.464
 3037SOL     OW 9652   0.940   3.560  13.938
 3037SOL    HW1 9653   1.020   3.503  13.959
 3037SOL    HW2 9654   0.891   3.520  13.861
 3038SOL     OW 9655   0.382   2.562  13.514
 3038SOL    HW1 9656   0.427   2.472  13.511
 3038SOL    HW2 9657   0.288   2.551  13.547
 3039SOL     OW 9658   0.614   1.984  13.151
 3039SOL    HW1 9659   0.712   1.962  13.158
 3039SOL    HW2 9660   0.583   1.967  13.058
 3040SOL     OW 9661   0.539   1.926  13.546
 3040SOL    HW1 9662   0.458   1.927  13.604
 3040SOL    HW2 9663   0.542   2.009  13.491
 3041SOL     OW 9664   1.434   3.050  13.075
 3041SOL    HW1 9665   1.466   2.974  13.132
 3041SOL    HW2 9666   1.342   3.077  13.105
 3042SOL     OW 9667   0.297   1.897  13.205
 3042SOL    HW1 9668   0.346   1.981  13.184
 3042SOL    HW2 9669   0.359   1.832  13.250
 3043SOL     OW 9670   0.935   2.098  13.514
 3043SOL    HW1 9671   0.887   2.139  13.436
 3043SOL    HW2 9672   1.034   2.096  13.495
 3044SOL     OW 9673   0.459   3.014  13.775
 3044SOL    HW1 9674   0.388   2.987  13.840
 3044SOL    HW2 9675   0.433   2.986  13.682
 3045SOL     OW 9676   1.271   3.659  13.625
 3045SOL    HW1 9677   1.315   3.723  13.561
 3045SOL    HW2 9678   1.221   3.711  13.695
 3046SOL     OW 9679   1.032   2.411  13.050
 3046SOL    HW1 9680   0.991   2.493  13.011
 3046SOL    HW2 9681   1.096   2.437  13.123
 3047SOL     OW 9682   0.866   2.316  13.676
 3047SOL    HW1 9683   0.834   2.388  13.614
 3047SOL    HW2 9684   0.890   2.235  13.623
 3048SOL     OW 9685   1.017   1.901  13.787
 3048SOL    HW1 9686   0.945   1.906  13.718
 3048SOL    HW2 9687   0.993   1.832  13.856
 3049SOL     OW 9688   1.857   2.695  13.411
 3049SOL    HW1 9689   1.899   2.631  13.475
 3049SOL    HW2 9690   1.819   2.644  13.333
 3050SOL     OW 9691   0.488   3.247  13.208
 3050SOL    HW1 9692   0.401   3.232  13.255
 3050SOL    HW2 9693   0.471   3.273  13.113
 3051SOL     OW 9694   1.664   3.142  13.691
 3051SOL    HW1 9695   1.763   3.150  13.705
 3051SOL    HW2 9696   1.619   3.226  13.722
 3052SOL     OW 9697   1.390   2.437  13.112
 3052SOL    HW1 9698   1.336   2.416  13.193
 3052SOL    HW2 9699   1.481   2.396  13.121
 3053SOL     OW 9700   0.527   2.118  13.362
 3053SOL    HW1 9701   0.554   2.059  13.287
 3053SOL    HW2 9702   0.527   2.213  13.331
 3054SOL     OW 9703   0.705   2.912  13.402
 3054SOL    HW1 9704   0.691   2.919  13.501
 3054SOL    HW2 9705   0.789   2.861  13.384
 3055SOL     OW 9706   0.367   2.962  13.535
 3055SOL    HW1 9707   0.360   3.045  13.479
 3055SOL    HW2 9708   0.371   2.882  13.475
 3056SOL     OW 9709   0.566   2.399  13.899
 3056SOL    HW1 9710   0.578   2.465  13.825
 3056SOL    HW2 9711   0.612   2.433  13.982
 3057SOL     OW 9712   1.252   3.210  13.422
 3057SOL    HW1 9713   1.302   3.287  13.462
 3057SOL    HW2 9714   1.157   3.212  13.454
 3058SOL     OW 9715   1.582   2.501  13.506
 3058SOL    HW1 9716   1.551   2.562  13.579
 3058SOL    HW2 9717   1.632   2.553  13.437
 3059SOL     OW 9718   1.209   2.387  13.309
 3059SOL    HW1 9719   1.222   2.303  13.363
 3059SOL    HW2 9720   1.180   2.461  13.369
 3060SOL     OW 9721   0.307   1.925  13.652
 3060SOL    HW1 9722   0.296   2.019  13.685
 3060SOL    HW2 9723   0.302   1.862  13.729
 3061SOL     OW 9724   1.622   2.229  13.408
 3061SOL    HW1 9725   1.624   2.153  13.472
 3061SOL    HW2 9726   1.574   2.306  13.448
 3062SOL     OW 9727   1.540   2.136  13.159
 3062SOL    HW1 9728   1.479   2.061  13.182
 3062SOL    HW2 9729   1.562   2.188  13.242
 3063SOL     OW 9730   1.303   2.700  13.076
 3063SOL    HW1 9731   1.337   2.607  13.091
 3063SOL    HW2 9732   1.321   2.727  12.981
 3064SOL     OW 9733   0.008   3.188  13.234
 3064SOL    HW1 9734  -0.085   3.209  13.203
 3064SOL    HW2 9735   0.018   3.089  13.247
 3065SOL     OW 9736   0.815   2.434  13.359
 3065SOL    HW1 9737   0.822   2.345  13.313
 3065SOL    HW2 9738   0.721   2.468  13.351
 3066SOL     OW 9739   0.473   2.362  13.225
 3066SOL    HW1 9740   0.534   2.442  13.229
 3066SOL    HW2 9741   0.378   2.393  13.232
 3067SOL     OW 9742   1.302   2.717  13.343
 3067SOL    HW1 9743   1.216   2.686  13.385
 3067SOL    HW2 9744   1.298   2.703  13.244
 3068SOL     OW 9745   1.388   3.435  13.511
 3068SOL    HW1 9746   1.455   3.447  13.437
 3068SOL    HW2 9747   1.348   3.524  13.534
 3069SOL     OW 9748   1.280   2.789  13.706
 3069SOL    HW1 9749   1.340   2.708  13.708
 3069SOL    HW2 9750   1.320   2.858  13.646
 3070SOL     OW 9751   0.672   3.478  13.188
 3070SOL    HW1 9752   0.681   3.488  13.089
 3070SOL    HW2 9753   0.632   3.389  13.209
 3071SOL     OW 9754   0.263   2.188  13.754
 3071SOL    HW1 9755   0.184   2.239  13.720
 3071SOL    HW2 9756   0.254   2.173  13.852
 3072SOL     OW 9757   1.194   3.474  13.065
 3072SOL    HW1 9758   1.200   3.381  13.102
 3072SOL    HW2 9759   1.135   3.474  12.985
 3073SOL     OW 9760   0.916   2.772  13.325
 3073SOL    HW1 9761   0.979   2.810  13.257
 3073SOL    HW2 9762   0.956   2.689  13.364
 3074SOL     OW 9763   1.504   3.469  13.078
 3074SOL    HW1 9764   1.412   3.506  13.085
 3074SOL    HW2 9765   1.542   3.489  12.988
 3075SOL     OW 9766   1.039   2.960  13.730
 3075SOL    HW1 9767   0.969   2.913  13.784
 3075SOL    HW2 9768   1.098   2.892  13.687
 3076SOL     OW 9769   0.590   3.349  13.525
 3076SOL    HW1 9770   0.632   3.291  13.455
 3076SOL    HW2 9771   0.546   3.428  13.481
 3077SOL     OW 9772   0.255   3.210  13.324
 3077SOL    HW1 9773   0.159   3.211  13.297
 3077SOL    HW2 9774   0.267   3.263  13.408
 3078SOL     OW 9775   0.075   2.207  13.067
 3078SOL    HW1 9776  -0.017   2.179  13.038
 3078SOL    HW2 9777   0.106   2.284  13.011
 3079SOL     OW 9778   0.072   2.028  13.352
 3079SOL    HW1 9779   0.055   2.111  13.298
 3079SOL    HW2 9780   0.162   1.991  13.330
 3080SOL     OW 9781   1.183   3.197  13.153
 3080SOL    HW1 9782   1.084   3.186  13.155
 3080SOL    HW2 9783   1.217   3.212  13.246
 3081SOL     OW 9784   1.225   2.187  13.483
 3081SOL    HW1 9785   1.290   2.113  13.472
 3081SOL    HW2 9786   1.245   2.237  13.567
 3082SOL     OW 9787   0.594   2.607  13.686
 3082SOL    HW1 9788   0.644   2.692  13.667
 3082SOL    HW2 9789   0.506   2.609  13.638
 3083SOL     OW 9790   0.859   3.236  13.050
 3083SOL    HW1 9791   0.813   3.251  13.138
 3083SOL    HW2 9792   0.903   3.321  13.020
 3084SOL     OW 9793   0.661   3.652  13.987
 3084SOL    HW1 9794   0.615   3.740  13.974
 3084SOL    HW2 9795   0.760   3.664  13.980
 3085SOL     OW 9796   0.859   2.818  13.895
 3085SOL    HW1 9797   0.913   2.749  13.943
 3085SOL    HW2 9798   0.827   2.887  13.961
 3086SOL     OW 9799   1.083   2.846  13.121
 3086SOL    HW1 9800   1.060   2.899  13.039
 3086SOL    HW2 9801   1.164   2.790  13.102
 3087SOL     OW 9802   0.079   3.102  13.687
 3087SOL    HW1 9803   0.078   3.055  13.775
 3087SOL    HW2 9804   0.161   3.074  13.636
 3088SOL     OW 9805   0.428   2.286  13.554
 3088SOL    HW1 9806   0.458   2.214  13.492
 3088SOL    HW2 9807   0.389   2.246  13.637
 3089SOL     OW 9808   1.705   3.349  14.138
 3089SOL    HW1 9809   1.612   3.324  14.111
 3089SOL    HW2 9810   1.731   3.299  14.220
 3090SOL     OW 9811   0.812   3.448  13.721
 3090SOL    HW1 9812   0.844   3.458  13.627
 3090SOL    HW2 9813   0.733   3.386  13.723
 3091SOL     OW 9814   0.770   3.192  13.335
 3091SOL    HW1 9815   0.724   3.105  13.352
 3091SOL    HW2 9816   0.861   3.189  13.376
 3092SOL     OW 9817   1.352   1.914  13.202
 3092SOL    HW1 9818   1.387   1.873  13.118
 3092SOL    HW2 9819   1.262   1.876  13.222
 3093SOL     OW 9820   1.300   2.315  13.725
 3093SOL    HW1 9821   1.241   2.395  13.729
 3093SOL    HW2 9822   1.315   2.280  13.818
 3094SOL     OW 9823   0.039   2.939  13.334
 3094SOL    HW1 9824   0.138   2.928  13.325
 3094SOL    HW2 9825  -0.001   2.853  13.366
 3095SOL     OW 9826   0.875   3.508  13.371
 3095SOL    HW1 9827   0.798   3.473  13.317
 3095SOL    HW2 9828   0.843   3.579  13.433
 3096SOL     OW 9829   0.225   3.999   0.996
 3096SOL    HW1 9830   0.260   3.982   1.088
 3096SOL    HW2 9831   0.137   3.954   0.984
 3097SOL     OW 9832   0.019   4.092   0.647
 3097SOL    HW1 9833  -0.063   4.135   0.686
 3097SOL    HW2 9834  -0.009   4.019   0.584
 3098SOL     OW 9835   1.755   4.331   0.231
 3098SOL    HW1 9836   1.743   4.318   0.132
 3098SOL    HW2 9837   1.725   4.250   0.280
 3099SOL     OW 9838   0.438   4.116   1.499
 3099SOL    HW1 9839   0.520   4.060   1.508
 3099SOL    HW2 9840   0.357   4.058   1.503
 3100SOL     OW 9841   1.594   3.838   1.480
 3100SOL    HW1 9842   1.576   3.905   1.408
 3100SOL    HW2 9843   1.591   3.884   1.569
 3101SOL     OW 9844   0.809   3.728   0.502
 3101SOL    HW1 9845   0.849   3.819   0.493
 3101SOL    HW2 9846   0.709   3.736   0.508
 3102SOL     OW 9847   1.281   4.069   0.944
 3102SOL    HW1 9848   1.195   4.019   0.931
 3102SOL    HW2 9849   1.343   4.015   1.000
 3103SOL     OW 9850   0.550   3.920   0.885
 3103SOL    HW1 9851   0.545   3.915   0.985
 3103SOL    HW2 9852   0.552   4.016   0.856
 3104SOL     OW 9853   0.202   4.009   1.498
 3104SOL    HW1 9854   0.122   4.069   1.485
 3104SOL    HW2 9855   0.192   3.960   1.584
 3105SOL     OW 9856   1.400   3.831   0.426
 3105SOL    HW1 9857   1.376   3.794   0.336
 3105SOL    HW2 9858   1.499   3.847   0.430
 3106SOL     OW 9859   1.547   3.946   1.729
 3106SOL    HW1 9860   1.542   3.983   1.821
 3106SOL    HW2 9861   1.475   3.877   1.717
 3107SOL     OW 9862   0.781   3.988   1.749
 3107SOL    HW1 9863   0.848   3.927   1.792
 3107SOL    HW2 9864   0.708   4.007   1.814
 3108SOL     OW 9865   0.539   3.788   0.512
 3108SOL    HW1 9866   0.458   3.789   0.570
 3108SOL    HW2 9867   0.542   3.871   0.457
 3109SOL     OW 9868   0.297   3.759   0.171
 3109SOL    HW1 9869   0.346   3.843   0.150
 3109SOL    HW2 9870   0.359   3.694   0.216
 3110SOL     OW 9871   0.561   3.946   1.147
 3110SOL    HW1 9872   0.599   3.862   1.184
 3110SOL    HW2 9873   0.473   3.965   1.191
 3111SOL     OW 9874   1.017   3.763   0.753
 3111SOL    HW1 9875   0.945   3.768   0.684
 3111SOL    HW2 9876   0.993   3.694   0.822
 3112SOL     OW 9877   0.915   3.813   1.402
 3112SOL    HW1 9878   0.940   3.793   1.307
 3112SOL    HW2 9879   0.987   3.869   1.444
 3113SOL     OW 9880   1.274   4.110   1.262
 3113SOL    HW1 9881   1.295   4.184   1.326
 3113SOL    HW2 9882   1.185   4.127   1.219
 3114SOL     OW 9883   0.504   3.774   1.740
 3114SOL    HW1 9884   0.462   3.717   1.670
 3114SOL    HW2 9885   0.438   3.843   1.772
 3115SOL     OW 9886   0.307   3.937   1.231
 3115SOL    HW1 9887   0.284   3.974   1.321
 3115SOL    HW2 9888   0.277   3.842   1.225
 3116SOL     OW 9889   1.540   3.998   0.125
 3116SOL    HW1 9890   1.479   3.923   0.148
 3116SOL    HW2 9891   1.562   4.050   0.208
 3117SOL     OW 9892   1.160   3.931   1.477
 3117SOL    HW1 9893   1.160   3.995   1.554
 3117SOL    HW2 9894   1.188   3.979   1.394
 3118SOL     OW 9895   0.903   3.810   0.133
 3118SOL    HW1 9896   0.954   3.811   0.047
 3118SOL    HW2 9897   0.959   3.768   0.204
 3119SOL     OW 9898   1.726   3.859   0.523
 3119SOL    HW1 9899   1.799   3.842   0.456
 3119SOL    HW2 9900   1.695   3.772   0.561
 3120SOL     OW 9901   1.841   3.899   0.963
 3120SOL    HW1 9902   1.880   3.814   0.927
 3120SOL    HW2 9903   1.743   3.901   0.944
 3121SOL     OW 9904   0.672   3.927   1.489
 3121SOL    HW1 9905   0.762   3.911   1.449
 3121SOL    HW2 9906   0.680   3.932   1.588
 3122SOL     OW 9907   0.075   4.069   0.033
 3122SOL    HW1 9908  -0.017   4.041   0.004
 3122SOL    HW2 9909   0.106   4.146  -0.023
 3123SOL     OW 9910   0.072   3.890   0.318
 3123SOL    HW1 9911   0.055   3.973   0.264
 3123SOL    HW2 9912   0.162   3.853   0.296
 3124SOL     OW 9913   1.225   4.049   0.449
 3124SOL    HW1 9914   1.290   3.975   0.438
 3124SOL    HW2 9915   1.245   4.099   0.533
 3125SOL     OW 9916   1.777   4.066   1.642
 3125SOL    HW1 9917   1.760   4.097   1.548
 3125SOL    HW2 9918   1.693   4.029   1.680
 3126SOL     OW 9919   1.824   3.916   1.227
 3126SOL    HW1 9920   1.820   3.826   1.271
 3126SOL    HW2 9921   1.827   3.905   1.128
 3127SOL     OW 9922   1.424   3.938   1.112
 3127SOL    HW1 9923   1.476   3.873   1.167
 3127SOL    HW2 9924   1.375   4.001   1.173
 3128SOL     OW 9925   1.001   3.758   1.154
 3128SOL    HW1 9926   0.938   3.686   1.123
 3128SOL    HW2 9927   1.094   3.722   1.154
 3129SOL     OW 9928   1.352   3.776   0.168
 3129SOL    HW1 9929   1.387   3.735   0.084
 3129SOL    HW2 9930   1.262   3.738   0.188
 3130SOL     OW 9931   1.300   4.177   0.691
 3130SOL    HW1 9932   1.241   4.257   0.695
 3130SOL    HW2 9933   1.315   4.142   0.784
 3131SOL     OW 9934   1.593   3.945   0.882
 3131SOL    HW1 9935   1.509   3.944   0.936
 3131SOL    HW2 9936   1.595   4.028   0.826
 3132SOL     OW 9937   0.225   3.999   2.858
 3132SOL    HW1 9938   0.260   3.982   2.950
 3132SOL    HW2 9939   0.137   3.954   2.846
 3133SOL     OW 9940   0.019   4.092   2.509
 3133SOL    HW1 9941  -0.063   4.135   2.548
 3133SOL    HW2 9942  -0.009   4.019   2.446
 3134SOL     OW 9943   1.755   4.331   2.093
 3134SOL    HW1 9944   1.743   4.318   1.994
 3134SOL    HW2 9945   1.725   4.250   2.142
 3135SOL     OW 9946   0.438   4.116   3.361
 3135SOL    HW1 9947   0.520   4.060   3.370
 3135SOL    HW2 9948   0.357   4.058   3.365
 3136SOL     OW 9949   1.594   3.838   3.342
 3136SOL    HW1 9950   1.576   3.905   3.270
 3136SOL    HW2 9951   1.591   3.884   3.431
 3137SOL     OW 9952   0.809   3.728   2.364
 3137SOL    HW1 9953   0.849   3.819   2.355
 3137SOL    HW2 9954   0.709   3.736   2.370
 3138SOL     OW 9955   1.281   4.069   2.806
 3138SOL    HW1 9956   1.195   4.019   2.793
 3138SOL    HW2 9957   1.343   4.015   2.862
 3139SOL     OW 9958   0.550   3.920   2.747
 3139SOL    HW1 9959   0.545   3.915   2.847
 3139SOL    HW2 9960   0.552   4.016   2.718
 3140SOL     OW 9961   0.202   4.009   3.360
 3140SOL    HW1 9962   0.122   4.069   3.347
 3140SOL    HW2 9963   0.192   3.960   3.446
 3141SOL     OW 9964   1.400   3.831   2.288
 3141SOL    HW1 9965   1.376   3.794   2.198
 3141SOL    HW2 9966   1.499   3.847   2.292
 3142SOL     OW 9967   1.547   3.946   3.591
 3142SOL    HW1 9968   1.542   3.983   3.683
 3142SOL    HW2 9969   1.475   3.877   3.579
 3143SOL     OW 9970   0.614   3.846   1.979
 3143SOL    HW1 9971   0.712   3.824   1.986
 3143SOL    HW2 9972   0.583   3.829   1.886
 3144SOL     OW 9973   0.781   3.988   3.611
 3144SOL    HW1 9974   0.848   3.927   3.654
 3144SOL    HW2 9975   0.708   4.007   3.676
 3145SOL     OW 9976   0.539   3.788   2.374
 3145SOL    HW1 9977   0.458   3.789   2.432
 3145SOL    HW2 9978   0.542   3.871   2.319
 3146SOL     OW 9979   0.297   3.759   2.033
 3146SOL    HW1 9980   0.346   3.843   2.012
 3146SOL    HW2 9981   0.359   3.694   2.078
 3147SOL     OW 9982   0.561   3.946   3.009
 3147SOL    HW1 9983   0.599   3.862   3.046
 3147SOL    HW2 9984   0.473   3.965   3.053
 3148SOL     OW 9985   1.017   3.763   2.615
 3148SOL    HW1 9986   0.945   3.768   2.546
 3148SOL    HW2 9987   0.993   3.694   2.684
 3149SOL     OW 9988   0.915   3.813   3.264
 3149SOL    HW1 9989   0.940   3.793   3.169
 3149SOL    HW2 9990   0.987   3.869   3.306
 3150SOL     OW 9991   1.274   4.110   3.124
 3150SOL    HW1 9992   1.295   4.184   3.188
 3150SOL    HW2 9993   1.185   4.127   3.081
 3151SOL     OW 9994   0.504   3.774   3.602
 3151SOL    HW1 9995   0.462   3.717   3.532
 3151SOL    HW2 9996   0.438   3.843   3.634
 3152SOL     OW 9997   0.307   3.937   3.093
 3152SOL    HW1 9998   0.284   3.974   3.183
 3152SOL    HW2 9999   0.277   3.842   3.087
 3153SOL     OW10000   1.540   3.998   1.987
 3153SOL    HW110001   1.479   3.923   2.010
 3153SOL    HW210002   1.562   4.050   2.070
 3154SOL     OW10003   1.160   3.931   3.339
 3154SOL    HW110004   1.160   3.995   3.416
 3154SOL    HW210005   1.188   3.979   3.256
 3155SOL     OW10006   0.903   3.810   1.995
 3155SOL    HW110007   0.954   3.811   1.909
 3155SOL    HW210008   0.959   3.768   2.066
 3156SOL     OW10009   1.726   3.859   2.385
 3156SOL    HW110010   1.799   3.842   2.318
 3156SOL    HW210011   1.695   3.772   2.423
 3157SOL     OW10012   1.841   3.899   2.825
 3157SOL    HW110013   1.880   3.814   2.789
 3157SOL    HW210014   1.743   3.901   2.806
 3158SOL     OW10015   0.672   3.927   3.351
 3158SOL    HW110016   0.762   3.911   3.311
 3158SOL    HW210017   0.680   3.932   3.450
 3159SOL     OW10018   0.075   4.069   1.895
 3159SOL    HW110019  -0.017   4.041   1.866
 3159SOL    HW210020   0.106   4.146   1.839
 3160SOL     OW10021   0.072   3.890   2.180
 3160SOL    HW110022   0.055   3.973   2.126
 3160SOL    HW210023   0.162   3.853   2.158
 3161SOL     OW10024   1.225   4.049   2.311
 3161SOL    HW110025   1.290   3.975   2.300
 3161SOL    HW210026   1.245   4.099   2.395
 3162SOL     OW10027   1.777   4.066   3.504
 3162SOL    HW110028   1.760   4.097   3.410
 3162SOL    HW210029   1.693   4.029   3.542
 3163SOL     OW10030   1.824   3.916   3.089
 3163SOL    HW110031   1.820   3.826   3.133
 3163SOL    HW210032   1.827   3.905   2.990
 3164SOL     OW10033   1.424   3.938   2.974
 3164SOL    HW110034   1.476   3.873   3.029
 3164SOL    HW210035   1.375   4.001   3.035
 3165SOL     OW10036   1.001   3.758   3.016
 3165SOL    HW110037   0.938   3.686   2.985
 3165SOL    HW210038   1.094   3.722   3.016
 3166SOL     OW10039   1.352   3.776   2.030
 3166SOL    HW110040   1.387   3.735   1.946
 3166SOL    HW210041   1.262   3.738   2.050
 3167SOL     OW10042   1.300   4.177   2.553
 3167SOL    HW110043   1.241   4.257   2.557
 3167SOL    HW210044   1.315   4.142   2.646
 3168SOL     OW10045   1.593   3.945   2.744
 3168SOL    HW110046   1.509   3.944   2.798
 3168SOL    HW210047   1.595   4.028   2.688
 3169SOL     OW10048   0.225   3.999   4.720
 3169SOL    HW110049   0.260   3.982   4.812
 3169SOL    HW210050   0.137   3.954   4.708
 3170SOL     OW10051   0.019   4.092   4.371
 3170SOL    HW110052  -0.063   4.135   4.410
 3170SOL    HW210053  -0.009   4.019   4.308
 3171SOL     OW10054   1.755   4.331   3.955
 3171SOL    HW110055   1.743   4.318   3.856
 3171SOL    HW210056   1.725   4.250   4.004
 3172SOL     OW10057   0.438   4.116   5.223
 3172SOL    HW110058   0.520   4.060   5.232
 3172SOL    HW210059   0.357   4.058   5.227
 3173SOL     OW10060   1.594   3.838   5.204
 3173SOL    HW110061   1.576   3.905   5.132
 3173SOL    HW210062   1.591   3.884   5.293
 3174SOL     OW10063   0.809   3.728   4.226
 3174SOL    HW110064   0.849   3.819   4.217
 3174SOL    HW210065   0.709   3.736   4.232
 3175SOL     OW10066   1.281   4.069   4.668
 3175SOL    HW110067   1.195   4.019   4.655
 3175SOL    HW210068   1.343   4.015   4.724
 3176SOL     OW10069   0.550   3.920   4.609
 3176SOL    HW110070   0.545   3.915   4.709
 3176SOL    HW210071   0.552   4.016   4.580
 3177SOL     OW10072   0.202   4.009   5.222
 3177SOL    HW110073   0.122   4.069   5.209
 3177SOL    HW210074   0.192   3.960   5.308
 3178SOL     OW10075   1.400   3.831   4.150
 3178SOL    HW110076   1.376   3.794   4.060
 3178SOL    HW210077   1.499   3.847   4.154
 3179SOL     OW10078   1.547   3.946   5.453
 3179SOL    HW110079   1.542   3.983   5.545
 3179SOL    HW210080   1.475   3.877   5.441
 3180SOL     OW10081   0.614   3.846   3.841
 3180SOL    HW110082   0.712   3.824   3.848
 3180SOL    HW210083   0.583   3.829   3.748
 3181SOL     OW10084   0.781   3.988   5.473
 3181SOL    HW110085   0.848   3.927   5.516
 3181SOL    HW210086   0.708   4.007   5.538
 3182SOL     OW10087   0.539   3.788   4.236
 3182SOL    HW110088   0.458   3.789   4.294
 3182SOL    HW210089   0.542   3.871   4.181
 3183SOL     OW10090   0.297   3.759   3.895
 3183SOL    HW110091   0.346   3.843   3.874
 3183SOL    HW210092   0.359   3.694   3.940
 3184SOL     OW10093   0.561   3.946   4.871
 3184SOL    HW110094   0.599   3.862   4.908
 3184SOL    HW210095   0.473   3.965   4.915
 3185SOL     OW10096   1.017   3.763   4.477
 3185SOL    HW110097   0.945   3.768   4.408
 3185SOL    HW210098   0.993   3.694   4.546
 3186SOL     OW10099   0.915   3.813   5.126
 3186SOL    HW110100   0.940   3.793   5.031
 3186SOL    HW210101   0.987   3.869   5.168
 3187SOL     OW10102   1.274   4.110   4.986
 3187SOL    HW110103   1.295   4.184   5.050
 3187SOL    HW210104   1.185   4.127   4.943
 3188SOL     OW10105   0.504   3.774   5.464
 3188SOL    HW110106   0.462   3.717   5.394
 3188SOL    HW210107   0.438   3.843   5.496
 3189SOL     OW10108   0.307   3.937   4.955
 3189SOL    HW110109   0.284   3.974   5.045
 3189SOL    HW210110   0.277   3.842   4.949
 3190SOL     OW10111   1.540   3.998   3.849
 3190SOL    HW110112   1.479   3.923   3.872
 3190SOL    HW210113   1.562   4.050   3.932
 3191SOL     OW10114   1.160   3.931   5.201
 3191SOL    HW110115   1.160   3.995   5.278
 3191SOL    HW210116   1.188   3.979   5.118
 3192SOL     OW10117   0.903   3.810   3.857
 3192SOL    HW110118   0.954   3.811   3.771
 3192SOL    HW210119   0.959   3.768   3.928
 3193SOL     OW10120   1.726   3.859   4.247
 3193SOL    HW110121   1.799   3.842   4.180
 3193SOL    HW210122   1.695   3.772   4.285
 3194SOL     OW10123   1.841   3.899   4.687
 3194SOL    HW110124   1.880   3.814   4.651
 3194SOL    HW210125   1.743   3.901   4.668
 3195SOL     OW10126   0.672   3.927   5.213
 3195SOL    HW110127   0.762   3.911   5.173
 3195SOL    HW210128   0.680   3.932   5.312
 3196SOL     OW10129   0.075   4.069   3.757
 3196SOL    HW110130  -0.017   4.041   3.728
 3196SOL    HW210131   0.106   4.146   3.701
 3197SOL     OW10132   0.072   3.890   4.042
 3197SOL    HW110133   0.055   3.973   3.988
 3197SOL    HW210134   0.162   3.853   4.020
 3198SOL     OW10135   1.225   4.049   4.173
 3198SOL    HW110136   1.290   3.975   4.162
 3198SOL    HW210137   1.245   4.099   4.257
 3199SOL     OW10138   1.777   4.066   5.366
 3199SOL    HW110139   1.760   4.097   5.272
 3199SOL    HW210140   1.693   4.029   5.404
 3200SOL     OW10141   1.824   3.916   4.951
 3200SOL    HW110142   1.820   3.826   4.995
 3200SOL    HW210143   1.827   3.905   4.852
 3201SOL     OW10144   1.424   3.938   4.836
 3201SOL    HW110145   1.476   3.873   4.891
 3201SOL    HW210146   1.375   4.001   4.897
 3202SOL     OW10147   1.001   3.758   4.878
 3202SOL    HW110148   0.938   3.686   4.847
 3202SOL    HW210149   1.094   3.722   4.878
 3203SOL     OW10150   1.352   3.776   3.892
 3203SOL    HW110151   1.387   3.735   3.808
 3203SOL    HW210152   1.262   3.738   3.912
 3204SOL     OW10153   1.300   4.177   4.415
 3204SOL    HW110154   1.241   4.257   4.419
 3204SOL    HW210155   1.315   4.142   4.508
 3205SOL     OW10156   1.593   3.945   4.606
 3205SOL    HW110157   1.509   3.944   4.660
 3205SOL    HW210158   1.595   4.028   4.550
 3206SOL     OW10159   0.225   3.999   6.582
 3206SOL    HW110160   0.260   3.982   6.674
 3206SOL    HW210161   0.137   3.954   6.570
 3207SOL     OW10162   0.019   4.092   6.233
 3207SOL    HW110163  -0.063   4.135   6.272
 3207SOL    HW210164  -0.009   4.019   6.170
 3208SOL     OW10165   1.755   4.331   5.817
 3208SOL    HW110166   1.743   4.318   5.718
 3208SOL    HW210167   1.725   4.250   5.866
 3209SOL     OW10168   0.438   4.116   7.085
 3209SOL    HW110169   0.520   4.060   7.094
 3209SOL    HW210170   0.357   4.058   7.089
 3210SOL     OW10171   1.594   3.838   7.066
 3210SOL    HW110172   1.576   3.905   6.994
 3210SOL    HW210173   1.591   3.884   7.155
 3211SOL     OW10174   0.809   3.728   6.088
 3211SOL    HW110175   0.849   3.819   6.079
 3211SOL    HW210176   0.709   3.736   6.094
 3212SOL     OW10177   1.281   4.069   6.530
 3212SOL    HW110178   1.195   4.019   6.517
 3212SOL    HW210179   1.343   4.015   6.586
 3213SOL     OW10180   0.550   3.920   6.471
 3213SOL    HW110181   0.545   3.915   6.571
 3213SOL    HW210182   0.552   4.016   6.442
 3214SOL     OW10183   0.202   4.009   7.084
 3214SOL    HW110184   0.122   4.069   7.071
 3214SOL    HW210185   0.192   3.960   7.170
 3215SOL     OW10186   1.400   3.831   6.012
 3215SOL    HW110187   1.376   3.794   5.922
 3215SOL    HW210188   1.499   3.847   6.016
 3216SOL     OW10189   1.547   3.946   7.315
 3216SOL    HW110190   1.542   3.983   7.407
 3216SOL    HW210191   1.475   3.877   7.303
 3217SOL     OW10192   0.614   3.846   5.703
 3217SOL    HW110193   0.712   3.824   5.710
 3217SOL    HW210194   0.583   3.829   5.610
 3218SOL     OW10195   0.781   3.988   7.335
 3218SOL    HW110196   0.848   3.927   7.378
 3218SOL    HW210197   0.708   4.007   7.400
 3219SOL     OW10198   0.539   3.788   6.098
 3219SOL    HW110199   0.458   3.789   6.156
 3219SOL    HW210200   0.542   3.871   6.043
 3220SOL     OW10201   0.297   3.759   5.757
 3220SOL    HW110202   0.346   3.843   5.736
 3220SOL    HW210203   0.359   3.694   5.802
 3221SOL     OW10204   0.561   3.946   6.733
 3221SOL    HW110205   0.599   3.862   6.770
 3221SOL    HW210206   0.473   3.965   6.777
 3222SOL     OW10207   1.017   3.763   6.339
 3222SOL    HW110208   0.945   3.768   6.270
 3222SOL    HW210209   0.993   3.694   6.408
 3223SOL     OW10210   0.915   3.813   6.988
 3223SOL    HW110211   0.940   3.793   6.893
 3223SOL    HW210212   0.987   3.869   7.030
 3224SOL     OW10213   1.274   4.110   6.848
 3224SOL    HW110214   1.295   4.184   6.912
 3224SOL    HW210215   1.185   4.127   6.805
 3225SOL     OW10216   0.504   3.774   7.326
 3225SOL    HW110217   0.462   3.717   7.256
 3225SOL    HW210218   0.438   3.843   7.358
 3226SOL     OW10219   0.307   3.937   6.817
 3226SOL    HW110220   0.284   3.974   6.907
 3226SOL    HW210221   0.277   3.842   6.811
 3227SOL     OW10222   1.540   3.998   5.711
 3227SOL    HW110223   1.479   3.923   5.734
 3227SOL    HW210224   1.562   4.050   5.794
 3228SOL     OW10225   1.160   3.931   7.063
 3228SOL    HW110226   1.160   3.995   7.140
 3228SOL    HW210227   1.188   3.979   6.980
 3229SOL     OW10228   0.903   3.810   5.719
 3229SOL    HW110229   0.954   3.811   5.633
 3229SOL    HW210230   0.959   3.768   5.790
 3230SOL     OW10231   1.726   3.859   6.109
 3230SOL    HW110232   1.799   3.842   6.042
 3230SOL    HW210233   1.695   3.772   6.147
 3231SOL     OW10234   1.841   3.899   6.549
 3231SOL    HW110235   1.880   3.814   6.513
 3231SOL    HW210236   1.743   3.901   6.530
 3232SOL     OW10237   0.672   3.927   7.075
 3232SOL    HW110238   0.762   3.911   7.035
 3232SOL    HW210239   0.680   3.932   7.174
 3233SOL     OW10240   0.075   4.069   5.619
 3233SOL    HW110241  -0.017   4.041   5.590
 3233SOL    HW210242   0.106   4.146   5.563
 3234SOL     OW10243   0.072   3.890   5.904
 3234SOL    HW110244   0.055   3.973   5.850
 3234SOL    HW210245   0.162   3.853   5.882
 3235SOL     OW10246   1.225   4.049   6.035
 3235SOL    HW110247   1.290   3.975   6.024
 3235SOL    HW210248   1.245   4.099   6.119
 3236SOL     OW10249   1.777   4.066   7.228
 3236SOL    HW110250   1.760   4.097   7.134
 3236SOL    HW210251   1.693   4.029   7.266
 3237SOL     OW10252   1.824   3.916   6.813
 3237SOL    HW110253   1.820   3.826   6.857
 3237SOL    HW210254   1.827   3.905   6.714
 3238SOL     OW10255   1.424   3.938   6.698
 3238SOL    HW110256   1.476   3.873   6.753
 3238SOL    HW210257   1.375   4.001   6.759
 3239SOL     OW10258   1.001   3.758   6.740
 3239SOL    HW110259   0.938   3.686   6.709
 3239SOL    HW210260   1.094   3.722   6.740
 3240SOL     OW10261   1.352   3.776   5.754
 3240SOL    HW110262   1.387   3.735   5.670
 3240SOL    HW210263   1.262   3.738   5.774
 3241SOL     OW10264   1.300   4.177   6.277
 3241SOL    HW110265   1.241   4.257   6.281
 3241SOL    HW210266   1.315   4.142   6.370
 3242SOL     OW10267   1.593   3.945   6.468
 3242SOL    HW110268   1.509   3.944   6.522
 3242SOL    HW210269   1.595   4.028   6.412
 3243SOL     OW10270   0.225   3.999   8.444
 3243SOL    HW110271   0.260   3.982   8.536
 3243SOL    HW210272   0.137   3.954   8.432
 3244SOL     OW10273   0.019   4.092   8.095
 3244SOL    HW110274  -0.063   4.135   8.134
 3244SOL    HW210275  -0.009   4.019   8.032
 3245SOL     OW10276   1.755   4.331   7.679
 3245SOL    HW110277   1.743   4.318   7.580
 3245SOL    HW210278   1.725   4.250   7.728
 3246SOL     OW10279   0.438   4.116   8.947
 3246SOL    HW110280   0.520   4.060   8.956
 3246SOL    HW210281   0.357   4.058   8.951
 3247SOL     OW10282   1.594   3.838   8.928
 3247SOL    HW110283   1.576   3.905   8.856
 3247SOL    HW210284   1.591   3.884   9.017
 3248SOL     OW10285   0.809   3.728   7.950
 3248SOL    HW110286   0.849   3.819   7.941
 3248SOL    HW210287   0.709   3.736   7.956
 3249SOL     OW10288   1.281   4.069   8.392
 3249SOL    HW110289   1.195   4.019   8.379
 3249SOL    HW210290   1.343   4.015   8.448
 3250SOL     OW10291   0.550   3.920   8.333
 3250SOL    HW110292   0.545   3.915   8.433
 3250SOL    HW210293   0.552   4.016   8.304
 3251SOL     OW10294   0.202   4.009   8.946
 3251SOL    HW110295   0.122   4.069   8.933
 3251SOL    HW210296   0.192   3.960   9.032
 3252SOL     OW10297   1.400   3.831   7.874
 3252SOL    HW110298   1.376   3.794   7.784
 3252SOL    HW210299   1.499   3.847   7.878
 3253SOL     OW10300   1.547   3.946   9.177
 3253SOL    HW110301   1.542   3.983   9.269
 3253SOL    HW210302   1.475   3.877   9.165
 3254SOL     OW10303   0.614   3.846   7.565
 3254SOL    HW110304   0.712   3.824   7.572
 3254SOL    HW210305   0.583   3.829   7.472
 3255SOL     OW10306   0.781   3.988   9.197
 3255SOL    HW110307   0.848   3.927   9.240
 3255SOL    HW210308   0.708   4.007   9.262
 3256SOL     OW10309   0.539   3.788   7.960
 3256SOL    HW110310   0.458   3.789   8.018
 3256SOL    HW210311   0.542   3.871   7.905
 3257SOL     OW10312   0.297   3.759   7.619
 3257SOL    HW110313   0.346   3.843   7.598
 3257SOL    HW210314   0.359   3.694   7.664
 3258SOL     OW10315   0.561   3.946   8.595
 3258SOL    HW110316   0.599   3.862   8.632
 3258SOL    HW210317   0.473   3.965   8.639
 3259SOL     OW10318   1.017   3.763   8.201
 3259SOL    HW110319   0.945   3.768   8.132
 3259SOL    HW210320   0.993   3.694   8.270
 3260SOL     OW10321   0.915   3.813   8.850
 3260SOL    HW110322   0.940   3.793   8.755
 3260SOL    HW210323   0.987   3.869   8.892
 3261SOL     OW10324   1.274   4.110   8.710
 3261SOL    HW110325   1.295   4.184   8.774
 3261SOL    HW210326   1.185   4.127   8.667
 3262SOL     OW10327   0.504   3.774   9.188
 3262SOL    HW110328   0.462   3.717   9.118
 3262SOL    HW210329   0.438   3.843   9.220
 3263SOL     OW10330   0.307   3.937   8.679
 3263SOL    HW110331   0.284   3.974   8.769
 3263SOL    HW210332   0.277   3.842   8.673
 3264SOL     OW10333   1.540   3.998   7.573
 3264SOL    HW110334   1.479   3.923   7.596
 3264SOL    HW210335   1.562   4.050   7.656
 3265SOL     OW10336   1.160   3.931   8.925
 3265SOL    HW110337   1.160   3.995   9.002
 3265SOL    HW210338   1.188   3.979   8.842
 3266SOL     OW10339   0.903   3.810   7.581
 3266SOL    HW110340   0.954   3.811   7.495
 3266SOL    HW210341   0.959   3.768   7.652
 3267SOL     OW10342   1.726   3.859   7.971
 3267SOL    HW110343   1.799   3.842   7.904
 3267SOL    HW210344   1.695   3.772   8.009
 3268SOL     OW10345   1.841   3.899   8.411
 3268SOL    HW110346   1.880   3.814   8.375
 3268SOL    HW210347   1.743   3.901   8.392
 3269SOL     OW10348   0.672   3.927   8.937
 3269SOL    HW110349   0.762   3.911   8.897
 3269SOL    HW210350   0.680   3.932   9.036
 3270SOL     OW10351   0.075   4.069   7.481
 3270SOL    HW110352  -0.017   4.041   7.452
 3270SOL    HW210353   0.106   4.146   7.425
 3271SOL     OW10354   0.072   3.890   7.766
 3271SOL    HW110355   0.055   3.973   7.712
 3271SOL    HW210356   0.162   3.853   7.744
 3272SOL     OW10357   1.225   4.049   7.897
 3272SOL    HW110358   1.290   3.975   7.886
 3272SOL    HW210359   1.245   4.099   7.981
 3273SOL     OW10360   1.777   4.066   9.090
 3273SOL    HW110361   1.760   4.097   8.996
 3273SOL    HW210362   1.693   4.029   9.128
 3274SOL     OW10363   1.824   3.916   8.675
 3274SOL    HW110364   1.820   3.826   8.719
 3274SOL    HW210365   1.827   3.905   8.576
 3275SOL     OW10366   1.424   3.938   8.560
 3275SOL    HW110367   1.476   3.873   8.615
 3275SOL    HW210368   1.375   4.001   8.621
 3276SOL     OW10369   1.001   3.758   8.602
 3276SOL    HW110370   0.938   3.686   8.571
 3276SOL    HW210371   1.094   3.722   8.602
 3277SOL     OW10372   1.352   3.776   7.616
 3277SOL    HW110373   1.387   3.735   7.532
 3277SOL    HW210374   1.262   3.738   7.636
 3278SOL     OW10375   1.300   4.177   8.139
 3278SOL    HW110376   1.241   4.257   8.143
 3278SOL    HW210377   1.315   4.142   8.232
 3279SOL     OW10378   1.593   3.945   8.330
 3279SOL    HW110379   1.509   3.944   8.384
 3279SOL    HW210380   1.595   4.028   8.274
 3280SOL     OW10381   0.225   3.999  10.306
 3280SOL    HW110382   0.260   3.982  10.398
 3280SOL    HW210383   0.137   3.954  10.294
 3281SOL     OW10384   0.019   4.092   9.957
 3281SOL    HW110385  -0.063   4.135   9.996
 3281SOL    HW210386  -0.009   4.019   9.894
 3282SOL     OW10387   1.755   4.331   9.541
 3282SOL    HW110388   1.743   4.318   9.442
 3282SOL    HW210389   1.725   4.250   9.590
 3283SOL     OW10390   0.438   4.116  10.809
 3283SOL    HW110391   0.520   4.060  10.818
 3283SOL    HW210392   0.357   4.058  10.813
 3284SOL     OW10393   1.594   3.838  10.790
 3284SOL    HW110394   1.576   3.905  10.718
 3284SOL    HW210395   1.591   3.884  10.879
 3285SOL     OW10396   0.809   3.728   9.812
 3285SOL    HW110397   0.849   3.819   9.803
 3285SOL    HW210398   0.709   3.736   9.818
 3286SOL     OW10399   1.281   4.069  10.254
 3286SOL    HW110400   1.195   4.019  10.241
 3286SOL    HW210401   1.343   4.015  10.310
 3287SOL     OW10402   0.550   3.920  10.195
 3287SOL    HW110403   0.545   3.915  10.295
 3287SOL    HW210404   0.552   4.016  10.166
 3288SOL     OW10405   0.202   4.009  10.808
 3288SOL    HW110406   0.122   4.069  10.795
 3288SOL    HW210407   0.192   3.960  10.894
 3289SOL     OW10408   1.400   3.831   9.736
 3289SOL    HW110409   1.376   3.794   9.646
 3289SOL    HW210410   1.499   3.847   9.740
 3290SOL     OW10411   1.547   3.946  11.039
 3290SOL    HW110412   1.542   3.983  11.131
 3290SOL    HW210413   1.475   3.877  11.027
 3291SOL     OW10414   0.614   3.846   9.427
 3291SOL    HW110415   0.712   3.824   9.434
 3291SOL    HW210416   0.583   3.829   9.334
 3292SOL     OW10417   0.781   3.988  11.059
 3292SOL    HW110418   0.848   3.927  11.102
 3292SOL    HW210419   0.708   4.007  11.124
 3293SOL     OW10420   0.539   3.788   9.822
 3293SOL    HW110421   0.458   3.789   9.880
 3293SOL    HW210422   0.542   3.871   9.767
 3294SOL     OW10423   0.297   3.759   9.481
 3294SOL    HW110424   0.346   3.843   9.460
 3294SOL    HW210425   0.359   3.694   9.526
 3295SOL     OW10426   0.561   3.946  10.457
 3295SOL    HW110427   0.599   3.862  10.494
 3295SOL    HW210428   0.473   3.965  10.501
 3296SOL     OW10429   1.017   3.763  10.063
 3296SOL    HW110430   0.945   3.768   9.994
 3296SOL    HW210431   0.993   3.694  10.132
 3297SOL     OW10432   0.915   3.813  10.712
 3297SOL    HW110433   0.940   3.793  10.617
 3297SOL    HW210434   0.987   3.869  10.754
 3298SOL     OW10435   1.274   4.110  10.572
 3298SOL    HW110436   1.295   4.184  10.636
 3298SOL    HW210437   1.185   4.127  10.529
 3299SOL     OW10438   0.504   3.774  11.050
 3299SOL    HW110439   0.462   3.717  10.980
 3299SOL    HW210440   0.438   3.843  11.082
 3300SOL     OW10441   0.307   3.937  10.541
 3300SOL    HW110442   0.284   3.974  10.631
 3300SOL    HW210443   0.277   3.842  10.535
 3301SOL     OW10444   1.540   3.998   9.435
 3301SOL    HW110445   1.479   3.923   9.458
 3301SOL    HW210446   1.562   4.050   9.518
 3302SOL     OW10447   1.160   3.931  10.787
 3302SOL    HW110448   1.160   3.995  10.864
 3302SOL    HW210449   1.188   3.979  10.704
 3303SOL     OW10450   0.903   3.810   9.443
 3303SOL    HW110451   0.954   3.811   9.357
 3303SOL    HW210452   0.959   3.768   9.514
 3304SOL     OW10453   1.726   3.859   9.833
 3304SOL    HW110454   1.799   3.842   9.766
 3304SOL    HW210455   1.695   3.772   9.871
 3305SOL     OW10456   1.841   3.899  10.273
 3305SOL    HW110457   1.880   3.814  10.237
 3305SOL    HW210458   1.743   3.901  10.254
 3306SOL     OW10459   0.672   3.927  10.799
 3306SOL    HW110460   0.762   3.911  10.759
 3306SOL    HW210461   0.680   3.932  10.898
 3307SOL     OW10462   0.075   4.069   9.343
 3307SOL    HW110463  -0.017   4.041   9.314
 3307SOL    HW210464   0.106   4.146   9.287
 3308SOL     OW10465   0.072   3.890   9.628
 3308SOL    HW110466   0.055   3.973   9.574
 3308SOL    HW210467   0.162   3.853   9.606
 3309SOL     OW10468   1.225   4.049   9.759
 3309SOL    HW110469   1.290   3.975   9.748
 3309SOL    HW210470   1.245   4.099   9.843
 3310SOL     OW10471   1.777   4.066  10.952
 3310SOL    HW110472   1.760   4.097  10.858
 3310SOL    HW210473   1.693   4.029  10.990
 3311SOL     OW10474   1.824   3.916  10.537
 3311SOL    HW110475   1.820   3.826  10.581
 3311SOL    HW210476   1.827   3.905  10.438
 3312SOL     OW10477   1.424   3.938  10.422
 3312SOL    HW110478   1.476   3.873  10.477
 3312SOL    HW210479   1.375   4.001  10.483
 3313SOL     OW10480   1.001   3.758  10.464
 3313SOL    HW110481   0.938   3.686  10.433
 3313SOL    HW210482   1.094   3.722  10.464
 3314SOL     OW10483   1.352   3.776   9.478
 3314SOL    HW110484   1.387   3.735   9.394
 3314SOL    HW210485   1.262   3.738   9.498
 3315SOL     OW10486   1.300   4.177  10.001
 3315SOL    HW110487   1.241   4.257  10.005
 3315SOL    HW210488   1.315   4.142  10.094
 3316SOL     OW10489   1.593   3.945  10.192
 3316SOL    HW110490   1.509   3.944  10.246
 3316SOL    HW210491   1.595   4.028  10.136
 3317SOL     OW10492   0.225   3.999  12.168
 3317SOL    HW110493   0.260   3.982  12.260
 3317SOL    HW210494   0.137   3.954  12.156
 3318SOL     OW10495   0.019   4.092  11.819
 3318SOL    HW110496  -0.063   4.135  11.858
 3318SOL    HW210497  -0.009   4.019  11.756
 3319SOL     OW10498   1.755   4.331  11.403
 3319SOL    HW110499   1.743   4.318  11.304
 3319SOL    HW210500   1.725   4.250  11.452
 3320SOL     OW10501   0.438   4.116  12.671
 3320SOL    HW110502   0.520   4.060  12.680
 3320SOL    HW210503   0.357   4.058  12.675
 3321SOL     OW10504   1.594   3.838  12.652
 3321SOL    HW110505   1.576   3.905  12.580
 3321SOL    HW210506   1.591   3.884  12.741
 3322SOL     OW10507   0.809   3.728  11.674
 3322SOL    HW110508   0.849   3.819  11.665
 3322SOL    HW210509   0.709   3.736  11.680
 3323SOL     OW10510   1.281   4.069  12.116
 3323SOL    HW110511   1.195   4.019  12.103
 3323SOL    HW210512   1.343   4.015  12.172
 3324SOL     OW10513   0.550   3.920  12.057
 3324SOL    HW110514   0.545   3.915  12.157
 3324SOL    HW210515   0.552   4.016  12.028
 3325SOL     OW10516   0.202   4.009  12.670
 3325SOL    HW110517   0.122   4.069  12.657
 3325SOL    HW210518   0.192   3.960  12.756
 3326SOL     OW10519   1.400   3.831  11.598
 3326SOL    HW110520   1.376   3.794  11.508
 3326SOL    HW210521   1.499   3.847  11.602
 3327SOL     OW10522   1.547   3.946  12.901
 3327SOL    HW110523   1.542   3.983  12.993
 3327SOL    HW210524   1.475   3.877  12.889
 3328SOL     OW10525   0.614   3.846  11.289
 3328SOL    HW110526   0.712   3.824  11.296
 3328SOL    HW210527   0.583   3.829  11.196
 3329SOL     OW10528   0.781   3.988  12.921
 3329SOL    HW110529   0.848   3.927  12.964
 3329SOL    HW210530   0.708   4.007  12.986
 3330SOL     OW10531   0.539   3.788  11.684
 3330SOL    HW110532   0.458   3.789  11.742
 3330SOL    HW210533   0.542   3.871  11.629
 3331SOL     OW10534   0.297   3.759  11.343
 3331SOL    HW110535   0.346   3.843  11.322
 3331SOL    HW210536   0.359   3.694  11.388
 3332SOL     OW10537   0.561   3.946  12.319
 3332SOL    HW110538   0.599   3.862  12.356
 3332SOL    HW210539   0.473   3.965  12.363
 3333SOL     OW10540   1.017   3.763  11.925
 3333SOL    HW110541   0.945   3.768  11.856
 3333SOL    HW210542   0.993   3.694  11.994
 3334SOL     OW10543   0.915   3.813  12.574
 3334SOL    HW110544   0.940   3.793  12.479
 3334SOL    HW210545   0.987   3.869  12.616
 3335SOL     OW10546   1.274   4.110  12.434
 3335SOL    HW110547   1.295   4.184  12.498
 3335SOL    HW210548   1.185   4.127  12.391
 3336SOL     OW10549   0.504   3.774  12.912
 3336SOL    HW110550   0.462   3.717  12.842
 3336SOL    HW210551   0.438   3.843  12.944
 3337SOL     OW10552   0.307   3.937  12.403
 3337SOL    HW110553   0.284   3.974  12.493
 3337SOL    HW210554   0.277   3.842  12.397
 3338SOL     OW10555   1.540   3.998  11.297
 3338SOL    HW110556   1.479   3.923  11.320
 3338SOL    HW210557   1.562   4.050  11.380
 3339SOL     OW10558   1.160   3.931  12.649
 3339SOL    HW110559   1.160   3.995  12.726
 3339SOL    HW210560   1.188   3.979  12.566
 3340SOL     OW10561   0.903   3.810  11.305
 3340SOL    HW110562   0.954   3.811  11.219
 3340SOL    HW210563   0.959   3.768  11.376
 3341SOL     OW10564   1.726   3.859  11.695
 3341SOL    HW110565   1.799   3.842  11.628
 3341SOL    HW210566   1.695   3.772  11.733
 3342SOL     OW10567   1.841   3.899  12.135
 3342SOL    HW110568   1.880   3.814  12.099
 3342SOL    HW210569   1.743   3.901  12.116
 3343SOL     OW10570   0.672   3.927  12.661
 3343SOL    HW110571   0.762   3.911  12.621
 3343SOL    HW210572   0.680   3.932  12.760
 3344SOL     OW10573   0.075   4.069  11.205
 3344SOL    HW110574  -0.017   4.041  11.176
 3344SOL    HW210575   0.106   4.146  11.149
 3345SOL     OW10576   0.072   3.890  11.490
 3345SOL    HW110577   0.055   3.973  11.436
 3345SOL    HW210578   0.162   3.853  11.468
 3346SOL     OW10579   1.225   4.049  11.621
 3346SOL    HW110580   1.290   3.975  11.610
 3346SOL    HW210581   1.245   4.099  11.705
 3347SOL     OW10582   1.777   4.066  12.814
 3347SOL    HW110583   1.760   4.097  12.720
 3347SOL    HW210584   1.693   4.029  12.852
 3348SOL     OW10585   1.824   3.916  12.399
 3348SOL    HW110586   1.820   3.826  12.443
 3348SOL    HW210587   1.827   3.905  12.300
 3349SOL     OW10588   1.424   3.938  12.284
 3349SOL    HW110589   1.476   3.873  12.339
 3349SOL    HW210590   1.375   4.001  12.345
 3350SOL     OW10591   1.001   3.758  12.326
 3350SOL    HW110592   0.938   3.686  12.295
 3350SOL    HW210593   1.094   3.722  12.326
 3351SOL     OW10594   1.352   3.776  11.340
 3351SOL    HW110595   1.387   3.735  11.256
 3351SOL    HW210596   1.262   3.738  11.360
 3352SOL     OW10597   1.300   4.177  11.863
 3352SOL    HW110598   1.241   4.257  11.867
 3352SOL    HW210599   1.315   4.142  11.956
 3353SOL     OW10600   1.593   3.945  12.054
 3353SOL    HW110601   1.509   3.944  12.108
 3353SOL    HW210602   1.595   4.028  11.998
 3354SOL     OW10603   0.019   4.092  13.681
 3354SOL    HW110604  -0.063   4.135  13.720
 3354SOL    HW210605  -0.009   4.019  13.618
 3355SOL     OW10606   1.755   4.331  13.265
 3355SOL    HW110607   1.743   4.318  13.166
 3355SOL    HW210608   1.725   4.250  13.314
 3356SOL     OW10609   1.603   4.171  13.771
 3356SOL    HW110610   1.529   4.217  13.721
 3356SOL    HW210611   1.654   4.239  13.824
 3357SOL     OW10612   0.809   3.728  13.536
 3357SOL    HW110613   0.849   3.819  13.527
 3357SOL    HW210614   0.709   3.736  13.542
 3358SOL     OW10615   1.400   3.831  13.460
 3358SOL    HW110616   1.376   3.794  13.370
 3358SOL    HW210617   1.499   3.847  13.464
 3359SOL     OW10618   0.614   3.846  13.151
 3359SOL    HW110619   0.712   3.824  13.158
 3359SOL    HW210620   0.583   3.829  13.058
 3360SOL     OW10621   0.539   3.788  13.546
 3360SOL    HW110622   0.458   3.789  13.604
 3360SOL    HW210623   0.542   3.871  13.491
 3361SOL     OW10624   0.297   3.759  13.205
 3361SOL    HW110625   0.346   3.843  13.184
 3361SOL    HW210626   0.359   3.694  13.250
 3362SOL     OW10627   1.017   3.763  13.787
 3362SOL    HW110628   0.945   3.768  13.718
 3362SOL    HW210629   0.993   3.694  13.856
 3363SOL     OW10630   1.540   3.998  13.159
 3363SOL    HW110631   1.479   3.923  13.182
 3363SOL    HW210632   1.562   4.050  13.242
 3364SOL     OW10633   0.903   3.810  13.167
 3364SOL    HW110634   0.954   3.811  13.081
 3364SOL    HW210635   0.959   3.768  13.238
 3365SOL     OW10636   1.726   3.859  13.557
 3365SOL    HW110637   1.799   3.842  13.490
 3365SOL    HW210638   1.695   3.772  13.595
 3366SOL     OW10639   1.841   3.899  13.997
 3366SOL    HW110640   1.880   3.814  13.961
 3366SOL    HW210641   1.743   3.901  13.978
 3367SOL     OW10642   0.075   4.069  13.067
 3367SOL    HW110643  -0.017   4.041  13.038
 3367SOL    HW210644   0.106   4.146  13.011
 3368SOL     OW10645   0.072   3.890  13.352
 3368SOL    HW110646   0.055   3.973  13.298
 3368SOL    HW210647   0.162   3.853  13.330
 3369SOL     OW10648   1.225   4.049  13.483
 3369SOL    HW110649   1.290   3.975  13.472
 3369SOL    HW210650   1.245   4.099  13.567
 3370SOL     OW10651   1.352   3.776  13.202
 3370SOL    HW110652   1.387   3.735  13.118
 3370SOL    HW210653   1.262   3.738  13.222
 3371SOL     OW10654   1.300   4.177  13.725
 3371SOL    HW110655   1.241   4.257  13.729
 3371SOL    HW210656   1.315   4.142  13.818
 3372SOL     OW10657   2.092   0.628   0.113
 3372SOL    HW110658   1.999   0.626   0.150
 3372SOL    HW210659   2.093   0.589   0.021
 3373SOL     OW10660   2.087   0.275   0.996
 3373SOL    HW110661   2.122   0.258   1.088
 3373SOL    HW210662   1.999   0.230   0.984
 3374SOL     OW10663   1.881   0.368   0.647
 3374SOL    HW110664   1.799   0.411   0.686
 3374SOL    HW210665   1.853   0.295   0.584
 3375SOL     OW10666   2.431   1.275   1.165
 3375SOL    HW110667   2.338   1.268   1.128
 3375SOL    HW210668   2.442   1.364   1.209
 3376SOL     OW10669   3.417   1.511   0.703
 3376SOL    HW110670   3.360   1.495   0.784
 3376SOL    HW210671   3.358   1.521   0.623
 3377SOL     OW10672   2.997   0.703   0.717
 3377SOL    HW110673   3.054   0.781   0.692
 3377SOL    HW210674   2.937   0.729   0.793
 3378SOL     OW10675   3.617   0.607   0.231
 3378SOL    HW110676   3.605   0.594   0.132
 3378SOL    HW210677   3.587   0.526   0.280
 3379SOL     OW10678   2.630   1.144   1.023
 3379SOL    HW110679   2.552   1.161   1.083
 3379SOL    HW210680   2.664   1.231   0.987
 3380SOL     OW10681   2.712   0.798   1.823
 3380SOL    HW110682   2.708   0.874   1.888
 3380SOL    HW210683   2.734   0.834   1.732
 3381SOL     OW10684   2.547   1.012   0.665
 3381SOL    HW110685   2.616   0.996   0.735
 3381SOL    HW210686   2.474   1.069   0.703
 3382SOL     OW10687   2.548   1.161   1.803
 3382SOL    HW110688   2.608   1.240   1.817
 3382SOL    HW210689   2.462   1.192   1.762
 3383SOL     OW10690   2.197   1.435   1.061
 3383SOL    HW110691   2.119   1.404   1.008
 3383SOL    HW210692   2.255   1.493   1.004
 3384SOL     OW10693   3.322   1.505   1.339
 3384SOL    HW110694   3.346   1.599   1.365
 3384SOL    HW210695   3.306   1.451   1.421
 3385SOL     OW10696   2.300   0.392   1.499
 3385SOL    HW110697   2.382   0.336   1.508
 3385SOL    HW210698   2.219   0.334   1.503
 3386SOL     OW10699   3.465   0.447   0.737
 3386SOL    HW110700   3.391   0.493   0.687
 3386SOL    HW210701   3.516   0.515   0.790
 3387SOL     OW10702   2.093   1.713   0.483
 3387SOL    HW110703   2.127   1.790   0.537
 3387SOL    HW210704   2.137   1.713   0.393
 3388SOL     OW10705   2.989   1.341   1.690
 3388SOL    HW110706   3.036   1.341   1.778
 3388SOL    HW210707   2.941   1.254   1.679
 3389SOL     OW10708   2.092   1.434   0.538
 3389SOL    HW110709   2.066   1.530   0.538
 3389SOL    HW210710   2.021   1.380   0.583
 3390SOL     OW10711   2.102   1.091   0.886
 3390SOL    HW110712   2.116   1.007   0.938
 3390SOL    HW210713   2.047   1.155   0.941
 3391SOL     OW10714   2.482   1.786   1.439
 3391SOL    HW110715   2.390   1.769   1.474
 3391SOL    HW210716   2.510   1.878   1.465
 3392SOL     OW10717   2.468   0.964   0.123
 3392SOL    HW110718   2.475   1.048   0.069
 3392SOL    HW210719   2.514   0.977   0.211
 3393SOL     OW10720   3.456   0.114   1.480
 3393SOL    HW110721   3.438   0.181   1.408
 3393SOL    HW210722   3.453   0.160   1.569
 3394SOL     OW10723   1.984   0.643   0.563
 3394SOL    HW110724   1.939   0.555   0.580
 3394SOL    HW210725   1.983   0.697   0.647
 3395SOL     OW10726   3.704   1.767   0.359
 3395SOL    HW110727   3.758   1.738   0.439
 3395SOL    HW210728   3.734   1.857   0.330
 3396SOL     OW10729   1.889   1.596   0.117
 3396SOL    HW110730   1.870   1.500   0.138
 3396SOL    HW210731   1.856   1.654   0.192
 3397SOL     OW10732   3.551   0.922   0.612
 3397SOL    HW110733   3.646   0.893   0.620
 3397SOL    HW210734   3.543   0.987   0.537
 3398SOL     OW10735   3.503   1.108   0.432
 3398SOL    HW110736   3.589   1.110   0.380
 3398SOL    HW210737   3.517   1.155   0.520
 3399SOL     OW10738   1.975   0.737   1.597
 3399SOL    HW110739   2.063   0.724   1.642
 3399SOL    HW210740   1.962   0.834   1.575
 3400SOL     OW10741   2.475   1.365   0.726
 3400SOL    HW110742   2.426   1.278   0.735
 3400SOL    HW210743   2.452   1.408   0.639
 3401SOL     OW10744   3.155   1.228   1.423
 3401SOL    HW110745   3.192   1.155   1.365
 3401SOL    HW210746   3.207   1.233   1.508
 3402SOL     OW10747   2.671   0.004   0.502
 3402SOL    HW110748   2.711   0.095   0.493
 3402SOL    HW210749   2.571   0.012   0.508
 3403SOL     OW10750   2.059   0.976   1.264
 3403SOL    HW110751   2.148   0.931   1.250
 3403SOL    HW210752   1.986   0.911   1.245
 3404SOL     OW10753   3.387   0.999   0.190
 3404SOL    HW110754   3.324   0.923   0.203
 3404SOL    HW210755   3.435   1.017   0.276
 3405SOL     OW10756   3.049   1.792   1.616
 3405SOL    HW110757   3.073   1.852   1.540
 3405SOL    HW210758   3.056   1.697   1.586
 3406SOL     OW10759   2.179   0.251   1.801
 3406SOL    HW110760   2.250   0.322   1.807
 3406SOL    HW210761   2.091   0.290   1.829
 3407SOL     OW10762   3.328   1.417   0.953
 3407SOL    HW110763   3.269   1.423   1.033
 3407SOL    HW210764   3.313   1.329   0.907
 3408SOL     OW10765   3.529   1.714   0.572
 3408SOL    HW110766   3.488   1.691   0.484
 3408SOL    HW210767   3.511   1.640   0.637
 3409SOL     OW10768   2.460   0.729   0.270
 3409SOL    HW110769   2.484   0.798   0.202
 3409SOL    HW210770   2.382   0.762   0.324
 3410SOL     OW10771   3.143   0.345   0.944
 3410SOL    HW110772   3.057   0.295   0.931
 3410SOL    HW210773   3.205   0.291   1.000
 3411SOL     OW10774   3.438   1.662   0.307
 3411SOL    HW110775   3.527   1.708   0.310
 3411SOL    HW210776   3.417   1.638   0.212
 3412SOL     OW10777   2.669   0.605   1.465
 3412SOL    HW110778   2.622   0.602   1.554
 3412SOL    HW210779   2.618   0.550   1.399
 3413SOL     OW10780   3.256   0.469   1.674
 3413SOL    HW110781   3.236   0.512   1.762
 3413SOL    HW210782   3.334   0.407   1.683
 3414SOL     OW10783   2.835   0.890   1.572
 3414SOL    HW110784   2.881   0.806   1.543
 3414SOL    HW210785   2.779   0.924   1.497
 3415SOL     OW10786   2.853   0.410   1.242
 3415SOL    HW110787   2.776   0.444   1.296
 3415SOL    HW210788   2.819   0.359   1.163
 3416SOL     OW10789   2.903   0.701   0.429
 3416SOL    HW110790   2.929   0.697   0.525
 3416SOL    HW210791   2.818   0.650   0.415
 3417SOL     OW10792   1.938   0.811   0.789
 3417SOL    HW110793   2.037   0.799   0.798
 3417SOL    HW210794   1.914   0.906   0.810
 3418SOL     OW10795   2.727   0.348   0.195
 3418SOL    HW110796   2.786   0.411   0.146
 3418SOL    HW210797   2.746   0.254   0.166
 3419SOL     OW10798   3.581   0.585   1.831
 3419SOL    HW110799   3.555   0.674   1.795
 3419SOL    HW210800   3.579   0.517   1.758
 3420SOL     OW10801   3.224   1.144   0.545
 3420SOL    HW110802   3.307   1.115   0.497
 3420SOL    HW210803   3.175   1.211   0.489
 3421SOL     OW10804   2.412   0.196   0.885
 3421SOL    HW110805   2.407   0.191   0.985
 3421SOL    HW210806   2.414   0.292   0.856
 3422SOL     OW10807   2.870   1.456   0.477
 3422SOL    HW110808   2.824   1.528   0.425
 3422SOL    HW210809   2.866   1.476   0.575
 3423SOL     OW10810   2.213   1.801   0.853
 3423SOL    HW110811   2.263   1.715   0.859
 3423SOL    HW210812   2.278   1.878   0.850
 3424SOL     OW10813   3.657   1.066   0.873
 3424SOL    HW110814   3.595   1.051   0.797
 3424SOL    HW210815   3.605   1.077   0.958
 3425SOL     OW10816   3.089   1.550   1.506
 3425SOL    HW110817   3.095   1.473   1.570
 3425SOL    HW210818   3.037   1.524   1.426
 3426SOL     OW10819   2.183   0.943   0.242
 3426SOL    HW110820   2.265   0.982   0.200
 3426SOL    HW210821   2.156   0.861   0.193
 3427SOL     OW10822   3.320   0.735   0.728
 3427SOL    HW110823   3.315   0.670   0.803
 3427SOL    HW210824   3.400   0.794   0.741
 3428SOL     OW10825   2.323   1.266   1.727
 3428SOL    HW110826   2.273   1.267   1.641
 3428SOL    HW210827   2.260   1.248   1.803
 3429SOL     OW10828   2.973   1.776   0.237
 3429SOL    HW110829   2.913   1.714   0.287
 3429SOL    HW210830   3.004   1.732   0.152
 3430SOL     OW10831   2.064   0.285   1.498
 3430SOL    HW110832   1.984   0.345   1.485
 3430SOL    HW210833   2.054   0.236   1.584
 3431SOL     OW10834   3.494   1.377   0.081
 3431SOL    HW110835   3.462   1.471   0.071
 3431SOL    HW210836   3.418   1.314   0.069
 3432SOL     OW10837   2.326   1.743   0.323
 3432SOL    HW110838   2.359   1.782   0.409
 3432SOL    HW210839   2.402   1.736   0.258
 3433SOL     OW10840   3.262   0.107   0.426
 3433SOL    HW110841   3.238   0.070   0.336
 3433SOL    HW210842   3.361   0.123   0.430
 3434SOL     OW10843   2.111   1.785   1.241
 3434SOL    HW110844   2.168   1.720   1.291
 3434SOL    HW210845   2.095   1.752   1.148
 3435SOL     OW10846   2.802   1.698   0.904
 3435SOL    HW110847   2.882   1.641   0.925
 3435SOL    HW210848   2.753   1.658   0.827
 3436SOL     OW10849   2.244   0.700   0.480
 3436SOL    HW110850   2.289   0.610   0.477
 3436SOL    HW210851   2.150   0.689   0.513
 3437SOL     OW10852   3.409   0.222   1.729
 3437SOL    HW110853   3.404   0.259   1.821
 3437SOL    HW210854   3.337   0.153   1.717
 3438SOL     OW10855   2.476   0.122   0.117
 3438SOL    HW110856   2.574   0.100   0.124
 3438SOL    HW210857   2.445   0.105   0.024
 3439SOL     OW10858   2.643   0.264   1.749
 3439SOL    HW110859   2.710   0.203   1.792
 3439SOL    HW210860   2.570   0.283   1.814
 3440SOL     OW10861   2.750   1.514   1.195
 3440SOL    HW110862   2.727   1.489   1.101
 3440SOL    HW210863   2.811   1.445   1.234
 3441SOL     OW10864   3.213   0.590   1.433
 3441SOL    HW110865   3.241   0.547   1.518
 3441SOL    HW210866   3.238   0.686   1.434
 3442SOL     OW10867   2.665   1.402   0.924
 3442SOL    HW110868   2.755   1.416   0.882
 3442SOL    HW210869   2.594   1.404   0.853
 3443SOL     OW10870   2.784   0.503   0.899
 3443SOL    HW110871   2.759   0.494   0.803
 3443SOL    HW210872   2.832   0.421   0.930
 3444SOL     OW10873   2.401   0.064   0.512
 3444SOL    HW110874   2.320   0.065   0.570
 3444SOL    HW210875   2.404   0.147   0.457
 3445SOL     OW10876   3.296   1.188   0.041
 3445SOL    HW110877   3.328   1.112   0.098
 3445SOL    HW210878   3.204   1.215   0.071
 3446SOL     OW10879   2.159   0.035   0.171
 3446SOL    HW110880   2.208   0.119   0.150
 3446SOL    HW210881   2.221  -0.030   0.216
 3447SOL     OW10882   2.797   0.236   0.480
 3447SOL    HW110883   2.749   0.277   0.402
 3447SOL    HW210884   2.896   0.234   0.461
 3448SOL     OW10885   2.938   0.683   1.464
 3448SOL    HW110886   2.858   0.622   1.467
 3448SOL    HW210887   3.019   0.630   1.440
 3449SOL     OW10888   3.089   1.570   0.793
 3449SOL    HW110889   3.110   1.644   0.728
 3449SOL    HW210890   3.157   1.570   0.866
 3450SOL     OW10891   2.321   1.152   0.741
 3450SOL    HW110892   2.250   1.125   0.806
 3450SOL    HW210893   2.295   1.124   0.648
 3451SOL     OW10894   3.133   1.797   0.591
 3451SOL    HW110895   3.177   1.861   0.527
 3451SOL    HW210896   3.083   1.849   0.661
 3452SOL     OW10897   2.894   0.549   0.016
 3452SOL    HW110898   2.853   0.631  -0.023
 3452SOL    HW210899   2.958   0.575   0.089
 3453SOL     OW10900   1.940   0.556   1.386
 3453SOL    HW110901   2.032   0.555   1.345
 3453SOL    HW210902   1.934   0.630   1.453
 3454SOL     OW10903   2.423   0.222   1.147
 3454SOL    HW110904   2.461   0.138   1.184
 3454SOL    HW210905   2.335   0.241   1.191
 3455SOL     OW10906   2.728   0.454   0.642
 3455SOL    HW110907   2.696   0.526   0.580
 3455SOL    HW210908   2.752   0.373   0.589
 3456SOL     OW10909   2.879   0.039   0.753
 3456SOL    HW110910   2.807   0.044   0.684
 3456SOL    HW210911   2.855  -0.030   0.822
 3457SOL     OW10912   3.291   1.173   0.867
 3457SOL    HW110913   3.236   1.089   0.860
 3457SOL    HW210914   3.317   1.202   0.775
 3458SOL     OW10915   3.328   0.590   0.992
 3458SOL    HW110916   3.298   0.495   0.999
 3458SOL    HW210917   3.401   0.606   1.058
 3459SOL     OW10918   3.719   0.833   0.377
 3459SOL    HW110919   3.761   0.769   0.441
 3459SOL    HW210920   3.681   0.782   0.299
 3460SOL     OW10921   2.350   1.385   0.174
 3460SOL    HW110922   2.263   1.370   0.221
 3460SOL    HW210923   2.333   1.411   0.079
 3461SOL     OW10924   3.526   1.280   0.657
 3461SOL    HW110925   3.625   1.288   0.671
 3461SOL    HW210926   3.481   1.364   0.688
 3462SOL     OW10927   3.252   0.575   0.078
 3462SOL    HW110928   3.198   0.554   0.159
 3462SOL    HW210929   3.343   0.534   0.087
 3463SOL     OW10930   2.389   0.256   0.328
 3463SOL    HW110931   2.416   0.197   0.253
 3463SOL    HW210932   2.389   0.351   0.297
 3464SOL     OW10933   3.616   1.223   1.588
 3464SOL    HW110934   3.707   1.184   1.575
 3464SOL    HW210935   3.624   1.319   1.612
 3465SOL     OW10936   2.926   1.347   1.340
 3465SOL    HW110937   2.846   1.324   1.395
 3465SOL    HW210938   3.009   1.321   1.389
 3466SOL     OW10939   3.454   1.629   1.625
 3466SOL    HW110940   3.481   1.663   1.535
 3466SOL    HW210941   3.533   1.591   1.671
 3467SOL     OW10942   2.973   1.195   1.100
 3467SOL    HW110943   2.933   1.239   1.181
 3467SOL    HW210944   2.932   1.232   1.017
 3468SOL     OW10945   3.500   1.099   1.079
 3468SOL    HW110946   3.505   1.180   1.138
 3468SOL    HW210947   3.414   1.101   1.028
 3469SOL     OW10948   2.777   0.089   1.402
 3469SOL    HW110949   2.802   0.069   1.307
 3469SOL    HW210950   2.849   0.145   1.444
 3470SOL     OW10951   2.842   1.116   1.719
 3470SOL    HW110952   2.743   1.122   1.729
 3470SOL    HW210953   2.865   1.036   1.663
 3471SOL     OW10954   2.567   1.050   0.368
 3471SOL    HW110955   2.553   1.057   0.467
 3471SOL    HW210956   2.651   0.999   0.350
 3472SOL     OW10957   2.272   0.813   1.251
 3472SOL    HW110958   2.358   0.825   1.301
 3472SOL    HW210959   2.230   0.726   1.278
 3473SOL     OW10960   3.136   0.386   1.262
 3473SOL    HW110961   3.157   0.460   1.326
 3473SOL    HW210962   3.047   0.403   1.219
 3474SOL     OW10963   1.926   1.564   1.331
 3474SOL    HW110964   1.880   1.646   1.297
 3474SOL    HW210965   2.024   1.583   1.340
 3475SOL     OW10966   2.229   1.100   0.501
 3475SOL    HW110967   2.222   1.183   0.445
 3475SOL    HW210968   2.233   1.020   0.441
 3476SOL     OW10969   2.428   0.537   0.865
 3476SOL    HW110970   2.440   0.603   0.791
 3476SOL    HW210971   2.474   0.571   0.948
 3477SOL     OW10972   3.114   1.348   0.388
 3477SOL    HW110973   3.164   1.425   0.428
 3477SOL    HW210974   3.019   1.350   0.420
 3478SOL     OW10975   3.134   1.445   1.142
 3478SOL    HW110976   3.181   1.458   1.229
 3478SOL    HW210977   3.068   1.371   1.151
 3479SOL     OW10978   3.444   0.639   0.472
 3479SOL    HW110979   3.413   0.700   0.545
 3479SOL    HW210980   3.494   0.691   0.403
 3480SOL     OW10981   2.216   1.510   1.329
 3480SOL    HW110982   2.195   1.466   1.242
 3480SOL    HW210983   2.313   1.536   1.332
 3481SOL     OW10984   2.264   0.751   1.598
 3481SOL    HW110985   2.332   0.806   1.551
 3481SOL    HW210986   2.304   0.663   1.625
 3482SOL     OW10987   3.449   0.779   1.670
 3482SOL    HW110988   3.357   0.817   1.665
 3482SOL    HW210989   3.509   0.826   1.605
 3483SOL     OW10990   2.875   0.105   1.770
 3483SOL    HW110991   2.881   0.190   1.718
 3483SOL    HW210992   2.907   0.029   1.713
 3484SOL     OW10993   2.366   0.050   1.740
 3484SOL    HW110994   2.324  -0.007   1.670
 3484SOL    HW210995   2.300   0.119   1.772
 3485SOL     OW10996   2.435   0.870   1.029
 3485SOL    HW110997   2.479   0.959   1.020
 3485SOL    HW210998   2.372   0.870   1.106
 3486SOL     OW10999   3.222   0.862   1.045
 3486SOL    HW111000   3.147   0.862   0.979
 3486SOL    HW211001   3.259   0.770   1.054
 3487SOL     OW11002   3.071   0.525   0.275
 3487SOL    HW111003   3.084   0.441   0.329
 3487SOL    HW211004   3.042   0.599   0.335
 3488SOL     OW11005   2.169   0.213   1.231
 3488SOL    HW111006   2.146   0.250   1.321
 3488SOL    HW211007   2.139   0.118   1.225
 3489SOL     OW11008   1.899   1.310   1.282
 3489SOL    HW111009   1.952   1.261   1.350
 3489SOL    HW211010   1.921   1.408   1.287
 3490SOL     OW11011   2.594   0.634   1.064
 3490SOL    HW111012   2.653   0.608   0.988
 3490SOL    HW211013   2.566   0.730   1.053
 3491SOL     OW11014   3.590   0.935   1.854
 3491SOL    HW111015   3.544   0.928   1.765
 3491SOL    HW211016   3.528   0.979   1.920
 3492SOL     OW11017   2.169   0.063   0.618
 3492SOL    HW111018   2.158   0.157   0.651
 3492SOL    HW211019   2.164   0.000   0.695
 3493SOL     OW11020   3.484   0.367   0.374
 3493SOL    HW111021   3.486   0.291   0.438
 3493SOL    HW211022   3.436   0.444   0.414
 3494SOL     OW11023   2.885   0.766   0.966
 3494SOL    HW111024   2.900   0.787   1.062
 3494SOL    HW211025   2.855   0.671   0.957
 3495SOL     OW11026   2.842   1.573   1.700
 3495SOL    HW111027   2.822   1.617   1.612
 3495SOL    HW211028   2.881   1.482   1.684
 3496SOL     OW11029   3.721   1.518   1.605
 3496SOL    HW111030   3.735   1.545   1.510
 3496SOL    HW211031   3.804   1.540   1.658
 3497SOL     OW11032   2.212   0.898   1.804
 3497SOL    HW111033   2.288   0.942   1.852
 3497SOL    HW211034   2.247   0.851   1.722
 3498SOL     OW11035   3.402   0.274   0.125
 3498SOL    HW111036   3.341   0.199   0.148
 3498SOL    HW211037   3.424   0.326   0.208
 3499SOL     OW11038   3.165   0.838   0.042
 3499SOL    HW111039   3.199   0.745   0.057
 3499SOL    HW211040   3.183   0.865  -0.053
 3500SOL     OW11041   2.930   1.333   0.849
 3500SOL    HW111042   2.937   1.249   0.794
 3500SOL    HW211043   2.992   1.402   0.813
 3501SOL     OW11044   2.181   0.810   0.949
 3501SOL    HW111045   2.274   0.846   0.954
 3501SOL    HW211046   2.175   0.725   1.001
 3502SOL     OW11047   2.201   0.509   1.006
 3502SOL    HW111048   2.149   0.426   0.989
 3502SOL    HW211049   2.278   0.514   0.942
 3503SOL     OW11050   3.000   0.380   1.678
 3503SOL    HW111051   2.955   0.443   1.742
 3503SOL    HW211052   3.093   0.411   1.661
 3504SOL     OW11053   3.022   0.207   1.477
 3504SOL    HW111054   3.022   0.271   1.554
 3504SOL    HW211055   3.050   0.255   1.394
 3505SOL     OW11056   1.870   1.326   0.200
 3505SOL    HW111057   1.777   1.347   0.169
 3505SOL    HW211058   1.880   1.227   0.213
 3506SOL     OW11059   1.950   1.801   0.927
 3506SOL    HW111060   1.908   1.715   0.900
 3506SOL    HW211061   2.044   1.804   0.893
 3507SOL     OW11062   2.366   1.568   0.910
 3507SOL    HW111063   2.432   1.642   0.919
 3507SOL    HW211064   2.410   1.489   0.868
 3508SOL     OW11065   2.864   0.796   1.238
 3508SOL    HW111066   2.905   0.764   1.324
 3508SOL    HW211067   2.768   0.769   1.235
 3509SOL     OW11068   1.902   0.544   1.114
 3509SOL    HW111069   1.987   0.511   1.073
 3509SOL    HW211070   1.915   0.559   1.212
 3510SOL     OW11071   2.051   0.520   1.722
 3510SOL    HW111072   2.110   0.480   1.652
 3510SOL    HW211073   1.993   0.591   1.681
 3511SOL     OW11074   3.231   0.950   1.660
 3511SOL    HW111075   3.270   1.039   1.680
 3511SOL    HW211076   3.241   0.930   1.563
 3512SOL     OW11077   2.677   0.572   0.325
 3512SOL    HW111078   2.684   0.483   0.279
 3512SOL    HW211079   2.583   0.606   0.317
 3513SOL     OW11080   3.519   0.604   1.206
 3513SOL    HW111081   3.481   0.535   1.268
 3513SOL    HW211082   3.601   0.568   1.162
 3514SOL     OW11083   2.114   1.564   1.744
 3514SOL    HW111084   2.084   1.621   1.820
 3514SOL    HW211085   2.107   1.467   1.770
 3515SOL     OW11086   2.533   0.464   1.269
 3515SOL    HW111087   2.499   0.375   1.239
 3515SOL    HW211088   2.559   0.518   1.189
 3516SOL     OW11089   2.792   1.678   1.465
 3516SOL    HW111090   2.768   1.660   1.370
 3516SOL    HW211091   2.822   1.772   1.475
 3517SOL     OW11092   2.335   0.500   0.191
 3517SOL    HW111093   2.396   0.580   0.195
 3517SOL    HW211094   2.240   0.531   0.198
 3518SOL     OW11095   2.021   1.137   1.466
 3518SOL    HW111096   2.043   1.076   1.542
 3518SOL    HW211097   2.031   1.088   1.380
 3519SOL     OW11098   3.209   1.059   1.234
 3519SOL    HW111099   3.233   0.996   1.160
 3519SOL    HW211100   3.119   1.099   1.216
 3520SOL     OW11101   3.164   0.855   0.309
 3520SOL    HW111102   3.078   0.824   0.351
 3520SOL    HW211103   3.160   0.841   0.210
 3521SOL     OW11104   3.621   1.747   1.154
 3521SOL    HW111105   3.682   1.777   1.081
 3521SOL    HW211106   3.583   1.658   1.132
 3522SOL     OW11107   3.114   1.731   1.128
 3522SOL    HW111108   3.198   1.736   1.074
 3522SOL    HW211109   3.091   1.635   1.146
 3523SOL     OW11110   1.945   1.258   1.022
 3523SOL    HW111111   1.940   1.257   1.122
 3523SOL    HW211112   1.862   1.217   0.984
 3524SOL     OW11113   2.550   1.662   1.716
 3524SOL    HW111114   2.494   1.743   1.725
 3524SOL    HW211115   2.602   1.666   1.630
 3525SOL     OW11116   2.765   0.086   0.133
 3525SOL    HW111117   2.816   0.087   0.047
 3525SOL    HW211118   2.821   0.044   0.204
 3526SOL     OW11119   3.588   0.135   0.523
 3526SOL    HW111120   3.661   0.118   0.456
 3526SOL    HW211121   3.557   0.048   0.561
 3527SOL     OW11122   3.250   1.573   0.477
 3527SOL    HW111123   3.317   1.585   0.403
 3527SOL    HW211124   3.210   1.662   0.500
 3528SOL     OW11125   1.992   1.794   1.851
 3528SOL    HW111126   1.951   1.720   1.904
 3528SOL    HW211127   2.056   1.845   1.909
 3529SOL     OW11128   3.142   0.927   0.672
 3529SOL    HW111129   3.202   0.846   0.674
 3529SOL    HW211130   3.182   0.996   0.612
 3530SOL     OW11131   2.692   1.273   1.422
 3530SOL    HW111132   2.687   1.306   1.517
 3530SOL    HW211133   2.606   1.292   1.376
 3531SOL     OW11134   2.534   1.616   0.154
 3531SOL    HW111135   2.543   1.626   0.055
 3531SOL    HW211136   2.494   1.527   0.175
 3532SOL     OW11137   3.512   1.720   1.394
 3532SOL    HW111138   3.565   1.730   1.310
 3532SOL    HW211139   3.485   1.810   1.428
 3533SOL     OW11140   3.703   0.175   0.963
 3533SOL    HW111141   3.742   0.090   0.927
 3533SOL    HW211142   3.605   0.177   0.944
 3534SOL     OW11143   2.125   0.326   0.720
 3534SOL    HW111144   2.046   0.377   0.686
 3534SOL    HW211145   2.116   0.311   0.818
 3535SOL     OW11146   3.056   1.612   0.031
 3535SOL    HW111147   3.062   1.519   0.068
 3535SOL    HW211148   2.997   1.612  -0.049
 3536SOL     OW11149   2.684   1.002   1.372
 3536SOL    HW111150   2.724   1.001   1.280
 3536SOL    HW211151   2.694   1.094   1.412
 3537SOL     OW11152   2.778   0.910   0.291
 3537SOL    HW111153   2.841   0.948   0.223
 3537SOL    HW211154   2.818   0.827   0.330
 3538SOL     OW11155   3.366   1.607   0.044
 3538SOL    HW111156   3.274   1.644   0.051
 3538SOL    HW211157   3.404   1.627  -0.046
 3539SOL     OW11158   2.234   1.288   1.490
 3539SOL    HW111159   2.221   1.381   1.456
 3539SOL    HW211160   2.150   1.236   1.477
 3540SOL     OW11161   3.476   1.292   1.289
 3540SOL    HW111162   3.536   1.295   1.369
 3540SOL    HW211163   3.401   1.356   1.302
 3541SOL     OW11164   2.901   1.098   0.696
 3541SOL    HW111165   2.831   1.051   0.750
 3541SOL    HW211166   2.960   1.030   0.653
 3542SOL     OW11167   2.876   0.236   0.971
 3542SOL    HW111168   2.868   0.200   0.878
 3542SOL    HW211169   2.874   0.160   1.036
 3543SOL     OW11170   2.452   1.487   0.491
 3543SOL    HW111171   2.494   1.429   0.421
 3543SOL    HW211172   2.408   1.566   0.447
 3544SOL     OW11173   3.571   0.385   1.381
 3544SOL    HW111174   3.644   0.454   1.385
 3544SOL    HW211175   3.599   0.310   1.322
 3545SOL     OW11176   2.117   1.348   0.290
 3545SOL    HW111177   2.021   1.349   0.263
 3545SOL    HW211178   2.129   1.401   0.374
 3546SOL     OW11179   1.967   1.013   1.726
 3546SOL    HW111180   1.890   0.980   1.780
 3546SOL    HW211181   2.052   0.983   1.768
 3547SOL     OW11182   2.534   0.203   1.489
 3547SOL    HW111183   2.624   0.187   1.449
 3547SOL    HW211184   2.542   0.208   1.588
 3548SOL     OW11185   1.937   0.345   0.033
 3548SOL    HW111186   1.845   0.317   0.004
 3548SOL    HW211187   1.968   0.422  -0.023
 3549SOL     OW11188   3.302   0.856   1.398
 3549SOL    HW111189   3.245   0.908   1.335
 3549SOL    HW211190   3.398   0.868   1.374
 3550SOL     OW11191   1.934   0.166   0.318
 3550SOL    HW111192   1.917   0.249   0.264
 3550SOL    HW211193   2.024   0.129   0.296
 3551SOL     OW11194   3.045   1.335   0.119
 3551SOL    HW111195   2.946   1.324   0.121
 3551SOL    HW211196   3.079   1.350   0.212
 3552SOL     OW11197   2.475   0.842   1.431
 3552SOL    HW111198   2.531   0.923   1.414
 3552SOL    HW211199   2.534   0.762   1.434
 3553SOL     OW11200   3.355   1.767   0.959
 3553SOL    HW111201   3.388   1.831   0.890
 3553SOL    HW211202   3.421   1.761   1.034
 3554SOL     OW11203   2.578   0.565   1.708
 3554SOL    HW111204   2.597   0.630   1.782
 3554SOL    HW211205   2.638   0.485   1.717
 3555SOL     OW11206   3.312   1.220   1.633
 3555SOL    HW111207   3.303   1.210   1.732
 3555SOL    HW211208   3.408   1.213   1.607
 3556SOL     OW11209   2.252   1.741   1.560
 3556SOL    HW111210   2.161   1.782   1.558
 3556SOL    HW211211   2.245   1.647   1.592
 3557SOL     OW11212   3.536   0.883   1.254
 3557SOL    HW111213   3.509   0.794   1.217
 3557SOL    HW211214   3.537   0.951   1.181
 3558SOL     OW11215   3.087   0.325   0.449
 3558SOL    HW111216   3.152   0.251   0.438
 3558SOL    HW211217   3.107   0.375   0.533
 3559SOL     OW11218   2.456   0.745   0.652
 3559SOL    HW111219   2.506   0.830   0.633
 3559SOL    HW211220   2.368   0.747   0.604
 3560SOL     OW11221   3.639   0.342   1.642
 3560SOL    HW111222   3.622   0.373   1.548
 3560SOL    HW211223   3.555   0.305   1.680
 3561SOL     OW11224   3.592   0.934   1.517
 3561SOL    HW111225   3.630   1.025   1.532
 3561SOL    HW211226   3.584   0.917   1.418
 3562SOL     OW11227   2.721   1.374   0.016
 3562SOL    HW111228   2.675   1.389   0.104
 3562SOL    HW211229   2.765   1.459  -0.014
 3563SOL     OW11230   2.523   1.790   0.953
 3563SOL    HW111231   2.477   1.878   0.940
 3563SOL    HW211232   2.622   1.802   0.946
 3564SOL     OW11233   2.721   0.956   0.861
 3564SOL    HW111234   2.775   0.887   0.909
 3564SOL    HW211235   2.689   1.025   0.927
 3565SOL     OW11236   2.945   0.984   0.087
 3565SOL    HW111237   2.922   1.037   0.005
 3565SOL    HW211238   3.026   0.928   0.068
 3566SOL     OW11239   3.723   1.569   0.851
 3566SOL    HW111240   3.652   1.557   0.781
 3566SOL    HW211241   3.724   1.490   0.911
 3567SOL     OW11242   2.083   1.314   1.844
 3567SOL    HW111243   2.018   1.241   1.823
 3567SOL    HW211244   2.087   1.328   1.942
 3568SOL     OW11245   1.941   1.240   0.653
 3568SOL    HW111246   1.940   1.193   0.741
 3568SOL    HW211247   2.023   1.212   0.602
 3569SOL     OW11248   2.534   1.391   1.624
 3569SOL    HW111249   2.456   1.341   1.662
 3569SOL    HW211250   2.531   1.486   1.655
 3570SOL     OW11251   3.686   0.192   1.227
 3570SOL    HW111252   3.682   0.102   1.271
 3570SOL    HW211253   3.689   0.181   1.128
 3571SOL     OW11254   2.290   0.424   0.520
 3571SOL    HW111255   2.320   0.352   0.458
 3571SOL    HW211256   2.251   0.384   0.603
 3572SOL     OW11257   3.567   1.487   1.104
 3572SOL    HW111258   3.474   1.462   1.077
 3572SOL    HW211259   3.593   1.437   1.186
 3573SOL     OW11260   2.179   0.547   1.280
 3573SOL    HW111261   2.217   0.488   1.352
 3573SOL    HW211262   2.219   0.521   1.192
 3574SOL     OW11263   2.674   1.586   0.687
 3574SOL    HW111264   2.706   1.596   0.593
 3574SOL    HW211265   2.595   1.524   0.689
 3575SOL     OW11266   3.286   0.214   1.112
 3575SOL    HW111267   3.338   0.149   1.167
 3575SOL    HW211268   3.237   0.277   1.173
 3576SOL     OW11269   2.863   0.034   1.154
 3576SOL    HW111270   2.800  -0.038   1.123
 3576SOL    HW211271   2.956  -0.002   1.154
 3577SOL     OW11272   2.632   1.330   0.301
 3577SOL    HW111273   2.586   1.243   0.318
 3577SOL    HW211274   2.723   1.327   0.342
 3578SOL     OW11275   2.480   1.567   1.284
 3578SOL    HW111276   2.475   1.649   1.341
 3578SOL    HW211277   2.569   1.564   1.239
 3579SOL     OW11278   3.214   0.052   0.168
 3579SOL    HW111279   3.249   0.011   0.084
 3579SOL    HW211280   3.124   0.014   0.188
 3580SOL     OW11281   3.162   0.453   0.691
 3580SOL    HW111282   3.103   0.533   0.695
 3580SOL    HW211283   3.177   0.418   0.784
 3581SOL     OW11284   3.455   0.221   0.882
 3581SOL    HW111285   3.371   0.220   0.936
 3581SOL    HW211286   3.457   0.304   0.826
 3582SOL     OW11287   1.901   1.077   0.300
 3582SOL    HW111288   2.000   1.066   0.291
 3582SOL    HW211289   1.861   0.991   0.332
 3583SOL     OW11290   2.737   1.646   0.337
 3583SOL    HW111291   2.660   1.611   0.283
 3583SOL    HW211292   2.705   1.717   0.399
 3584SOL     OW11293   2.092   0.628   1.975
 3584SOL    HW111294   1.999   0.626   2.012
 3584SOL    HW211295   2.093   0.589   1.883
 3585SOL     OW11296   2.087   0.275   2.858
 3585SOL    HW111297   2.122   0.258   2.950
 3585SOL    HW211298   1.999   0.230   2.846
 3586SOL     OW11299   1.881   0.368   2.509
 3586SOL    HW111300   1.799   0.411   2.548
 3586SOL    HW211301   1.853   0.295   2.446
 3587SOL     OW11302   2.431   1.275   3.027
 3587SOL    HW111303   2.338   1.268   2.990
 3587SOL    HW211304   2.442   1.364   3.071
 3588SOL     OW11305   3.417   1.511   2.565
 3588SOL    HW111306   3.360   1.495   2.646
 3588SOL    HW211307   3.358   1.521   2.485
 3589SOL     OW11308   2.997   0.703   2.579
 3589SOL    HW111309   3.054   0.781   2.554
 3589SOL    HW211310   2.937   0.729   2.655
 3590SOL     OW11311   3.617   0.607   2.093
 3590SOL    HW111312   3.605   0.594   1.994
 3590SOL    HW211313   3.587   0.526   2.142
 3591SOL     OW11314   2.630   1.144   2.885
 3591SOL    HW111315   2.552   1.161   2.945
 3591SOL    HW211316   2.664   1.231   2.849
 3592SOL     OW11317   2.712   0.798   3.685
 3592SOL    HW111318   2.708   0.874   3.750
 3592SOL    HW211319   2.734   0.834   3.594
 3593SOL     OW11320   2.547   1.012   2.527
 3593SOL    HW111321   2.616   0.996   2.597
 3593SOL    HW211322   2.474   1.069   2.565
 3594SOL     OW11323   2.548   1.161   3.665
 3594SOL    HW111324   2.608   1.240   3.679
 3594SOL    HW211325   2.462   1.192   3.624
 3595SOL     OW11326   2.197   1.435   2.923
 3595SOL    HW111327   2.119   1.404   2.870
 3595SOL    HW211328   2.255   1.493   2.866
 3596SOL     OW11329   3.322   1.505   3.201
 3596SOL    HW111330   3.346   1.599   3.227
 3596SOL    HW211331   3.306   1.451   3.283
 3597SOL     OW11332   2.300   0.392   3.361
 3597SOL    HW111333   2.382   0.336   3.370
 3597SOL    HW211334   2.219   0.334   3.365
 3598SOL     OW11335   3.465   0.447   2.599
 3598SOL    HW111336   3.391   0.493   2.549
 3598SOL    HW211337   3.516   0.515   2.652
 3599SOL     OW11338   2.093   1.713   2.345
 3599SOL    HW111339   2.127   1.790   2.399
 3599SOL    HW211340   2.137   1.713   2.255
 3600SOL     OW11341   2.989   1.341   3.552
 3600SOL    HW111342   3.036   1.341   3.640
 3600SOL    HW211343   2.941   1.254   3.541
 3601SOL     OW11344   2.092   1.434   2.400
 3601SOL    HW111345   2.066   1.530   2.400
 3601SOL    HW211346   2.021   1.380   2.445
 3602SOL     OW11347   2.102   1.091   2.748
 3602SOL    HW111348   2.116   1.007   2.800
 3602SOL    HW211349   2.047   1.155   2.803
 3603SOL     OW11350   2.482   1.786   3.301
 3603SOL    HW111351   2.390   1.769   3.336
 3603SOL    HW211352   2.510   1.878   3.327
 3604SOL     OW11353   2.468   0.964   1.985
 3604SOL    HW111354   2.475   1.048   1.931
 3604SOL    HW211355   2.514   0.977   2.073
 3605SOL     OW11356   3.456   0.114   3.342
 3605SOL    HW111357   3.438   0.181   3.270
 3605SOL    HW211358   3.453   0.160   3.431
 3606SOL     OW11359   1.984   0.643   2.425
 3606SOL    HW111360   1.939   0.555   2.442
 3606SOL    HW211361   1.983   0.697   2.509
 3607SOL     OW11362   3.704   1.767   2.221
 3607SOL    HW111363   3.758   1.738   2.301
 3607SOL    HW211364   3.734   1.857   2.192
 3608SOL     OW11365   1.889   1.596   1.979
 3608SOL    HW111366   1.870   1.500   2.000
 3608SOL    HW211367   1.856   1.654   2.054
 3609SOL     OW11368   3.551   0.922   2.474
 3609SOL    HW111369   3.646   0.893   2.482
 3609SOL    HW211370   3.543   0.987   2.399
 3610SOL     OW11371   3.503   1.108   2.294
 3610SOL    HW111372   3.589   1.110   2.242
 3610SOL    HW211373   3.517   1.155   2.382
 3611SOL     OW11374   1.975   0.737   3.459
 3611SOL    HW111375   2.063   0.724   3.504
 3611SOL    HW211376   1.962   0.834   3.437
 3612SOL     OW11377   2.475   1.365   2.588
 3612SOL    HW111378   2.426   1.278   2.597
 3612SOL    HW211379   2.452   1.408   2.501
 3613SOL     OW11380   3.155   1.228   3.285
 3613SOL    HW111381   3.192   1.155   3.227
 3613SOL    HW211382   3.207   1.233   3.370
 3614SOL     OW11383   2.671   0.004   2.364
 3614SOL    HW111384   2.711   0.095   2.355
 3614SOL    HW211385   2.571   0.012   2.370
 3615SOL     OW11386   2.059   0.976   3.126
 3615SOL    HW111387   2.148   0.931   3.112
 3615SOL    HW211388   1.986   0.911   3.107
 3616SOL     OW11389   3.387   0.999   2.052
 3616SOL    HW111390   3.324   0.923   2.065
 3616SOL    HW211391   3.435   1.017   2.138
 3617SOL     OW11392   3.049   1.792   3.478
 3617SOL    HW111393   3.073   1.852   3.402
 3617SOL    HW211394   3.056   1.697   3.448
 3618SOL     OW11395   2.179   0.251   3.663
 3618SOL    HW111396   2.250   0.322   3.669
 3618SOL    HW211397   2.091   0.290   3.691
 3619SOL     OW11398   3.328   1.417   2.815
 3619SOL    HW111399   3.269   1.423   2.895
 3619SOL    HW211400   3.313   1.329   2.769
 3620SOL     OW11401   3.529   1.714   2.434
 3620SOL    HW111402   3.488   1.691   2.346
 3620SOL    HW211403   3.511   1.640   2.499
 3621SOL     OW11404   2.460   0.729   2.132
 3621SOL    HW111405   2.484   0.798   2.064
 3621SOL    HW211406   2.382   0.762   2.186
 3622SOL     OW11407   3.143   0.345   2.806
 3622SOL    HW111408   3.057   0.295   2.793
 3622SOL    HW211409   3.205   0.291   2.862
 3623SOL     OW11410   3.438   1.662   2.169
 3623SOL    HW111411   3.527   1.708   2.172
 3623SOL    HW211412   3.417   1.638   2.074
 3624SOL     OW11413   2.669   0.605   3.327
 3624SOL    HW111414   2.622   0.602   3.416
 3624SOL    HW211415   2.618   0.550   3.261
 3625SOL     OW11416   3.256   0.469   3.536
 3625SOL    HW111417   3.236   0.512   3.624
 3625SOL    HW211418   3.334   0.407   3.545
 3626SOL     OW11419   2.835   0.890   3.434
 3626SOL    HW111420   2.881   0.806   3.405
 3626SOL    HW211421   2.779   0.924   3.359
 3627SOL     OW11422   2.853   0.410   3.104
 3627SOL    HW111423   2.776   0.444   3.158
 3627SOL    HW211424   2.819   0.359   3.025
 3628SOL     OW11425   2.903   0.701   2.291
 3628SOL    HW111426   2.929   0.697   2.387
 3628SOL    HW211427   2.818   0.650   2.277
 3629SOL     OW11428   1.938   0.811   2.651
 3629SOL    HW111429   2.037   0.799   2.660
 3629SOL    HW211430   1.914   0.906   2.672
 3630SOL     OW11431   2.727   0.348   2.057
 3630SOL    HW111432   2.786   0.411   2.008
 3630SOL    HW211433   2.746   0.254   2.028
 3631SOL     OW11434   3.581   0.585   3.693
 3631SOL    HW111435   3.555   0.674   3.657
 3631SOL    HW211436   3.579   0.517   3.620
 3632SOL     OW11437   3.224   1.144   2.407
 3632SOL    HW111438   3.307   1.115   2.359
 3632SOL    HW211439   3.175   1.211   2.351
 3633SOL     OW11440   2.412   0.196   2.747
 3633SOL    HW111441   2.407   0.191   2.847
 3633SOL    HW211442   2.414   0.292   2.718
 3634SOL     OW11443   2.870   1.456   2.339
 3634SOL    HW111444   2.824   1.528   2.287
 3634SOL    HW211445   2.866   1.476   2.437
 3635SOL     OW11446   2.213   1.801   2.715
 3635SOL    HW111447   2.263   1.715   2.721
 3635SOL    HW211448   2.278   1.878   2.712
 3636SOL     OW11449   3.657   1.066   2.735
 3636SOL    HW111450   3.595   1.051   2.659
 3636SOL    HW211451   3.605   1.077   2.820
 3637SOL     OW11452   3.089   1.550   3.368
 3637SOL    HW111453   3.095   1.473   3.432
 3637SOL    HW211454   3.037   1.524   3.288
 3638SOL     OW11455   2.183   0.943   2.104
 3638SOL    HW111456   2.265   0.982   2.062
 3638SOL    HW211457   2.156   0.861   2.055
 3639SOL     OW11458   3.320   0.735   2.590
 3639SOL    HW111459   3.315   0.670   2.665
 3639SOL    HW211460   3.400   0.794   2.603
 3640SOL     OW11461   2.323   1.266   3.589
 3640SOL    HW111462   2.273   1.267   3.503
 3640SOL    HW211463   2.260   1.248   3.665
 3641SOL     OW11464   2.973   1.776   2.099
 3641SOL    HW111465   2.913   1.714   2.149
 3641SOL    HW211466   3.004   1.732   2.014
 3642SOL     OW11467   2.064   0.285   3.360
 3642SOL    HW111468   1.984   0.345   3.347
 3642SOL    HW211469   2.054   0.236   3.446
 3643SOL     OW11470   3.494   1.377   1.943
 3643SOL    HW111471   3.462   1.471   1.933
 3643SOL    HW211472   3.418   1.314   1.931
 3644SOL     OW11473   2.326   1.743   2.185
 3644SOL    HW111474   2.359   1.782   2.271
 3644SOL    HW211475   2.402   1.736   2.120
 3645SOL     OW11476   3.262   0.107   2.288
 3645SOL    HW111477   3.238   0.070   2.198
 3645SOL    HW211478   3.361   0.123   2.292
 3646SOL     OW11479   2.111   1.785   3.103
 3646SOL    HW111480   2.168   1.720   3.153
 3646SOL    HW211481   2.095   1.752   3.010
 3647SOL     OW11482   2.802   1.698   2.766
 3647SOL    HW111483   2.882   1.641   2.787
 3647SOL    HW211484   2.753   1.658   2.689
 3648SOL     OW11485   2.244   0.700   2.342
 3648SOL    HW111486   2.289   0.610   2.339
 3648SOL    HW211487   2.150   0.689   2.375
 3649SOL     OW11488   3.409   0.222   3.591
 3649SOL    HW111489   3.404   0.259   3.683
 3649SOL    HW211490   3.337   0.153   3.579
 3650SOL     OW11491   2.476   0.122   1.979
 3650SOL    HW111492   2.574   0.100   1.986
 3650SOL    HW211493   2.445   0.105   1.886
 3651SOL     OW11494   2.643   0.264   3.611
 3651SOL    HW111495   2.710   0.203   3.654
 3651SOL    HW211496   2.570   0.283   3.676
 3652SOL     OW11497   2.750   1.514   3.057
 3652SOL    HW111498   2.727   1.489   2.963
 3652SOL    HW211499   2.811   1.445   3.096
 3653SOL     OW11500   3.213   0.590   3.295
 3653SOL    HW111501   3.241   0.547   3.380
 3653SOL    HW211502   3.238   0.686   3.296
 3654SOL     OW11503   2.665   1.402   2.786
 3654SOL    HW111504   2.755   1.416   2.744
 3654SOL    HW211505   2.594   1.404   2.715
 3655SOL     OW11506   2.784   0.503   2.761
 3655SOL    HW111507   2.759   0.494   2.665
 3655SOL    HW211508   2.832   0.421   2.792
 3656SOL     OW11509   2.401   0.064   2.374
 3656SOL    HW111510   2.320   0.065   2.432
 3656SOL    HW211511   2.404   0.147   2.319
 3657SOL     OW11512   3.296   1.188   1.903
 3657SOL    HW111513   3.328   1.112   1.960
 3657SOL    HW211514   3.204   1.215   1.933
 3658SOL     OW11515   2.159   0.035   2.033
 3658SOL    HW111516   2.208   0.119   2.012
 3658SOL    HW211517   2.221  -0.030   2.078
 3659SOL     OW11518   2.797   0.236   2.342
 3659SOL    HW111519   2.749   0.277   2.264
 3659SOL    HW211520   2.896   0.234   2.323
 3660SOL     OW11521   2.938   0.683   3.326
 3660SOL    HW111522   2.858   0.622   3.329
 3660SOL    HW211523   3.019   0.630   3.302
 3661SOL     OW11524   3.089   1.570   2.655
 3661SOL    HW111525   3.110   1.644   2.590
 3661SOL    HW211526   3.157   1.570   2.728
 3662SOL     OW11527   2.321   1.152   2.603
 3662SOL    HW111528   2.250   1.125   2.668
 3662SOL    HW211529   2.295   1.124   2.510
 3663SOL     OW11530   3.133   1.797   2.453
 3663SOL    HW111531   3.177   1.861   2.389
 3663SOL    HW211532   3.083   1.849   2.523
 3664SOL     OW11533   2.894   0.549   1.878
 3664SOL    HW111534   2.853   0.631   1.839
 3664SOL    HW211535   2.958   0.575   1.951
 3665SOL     OW11536   1.940   0.556   3.248
 3665SOL    HW111537   2.032   0.555   3.207
 3665SOL    HW211538   1.934   0.630   3.315
 3666SOL     OW11539   2.423   0.222   3.009
 3666SOL    HW111540   2.461   0.138   3.046
 3666SOL    HW211541   2.335   0.241   3.053
 3667SOL     OW11542   2.728   0.454   2.504
 3667SOL    HW111543   2.696   0.526   2.442
 3667SOL    HW211544   2.752   0.373   2.451
 3668SOL     OW11545   2.879   0.039   2.615
 3668SOL    HW111546   2.807   0.044   2.546
 3668SOL    HW211547   2.855  -0.030   2.684
 3669SOL     OW11548   3.291   1.173   2.729
 3669SOL    HW111549   3.236   1.089   2.722
 3669SOL    HW211550   3.317   1.202   2.637
 3670SOL     OW11551   3.328   0.590   2.854
 3670SOL    HW111552   3.298   0.495   2.861
 3670SOL    HW211553   3.401   0.606   2.920
 3671SOL     OW11554   3.719   0.833   2.239
 3671SOL    HW111555   3.761   0.769   2.303
 3671SOL    HW211556   3.681   0.782   2.161
 3672SOL     OW11557   2.350   1.385   2.036
 3672SOL    HW111558   2.263   1.370   2.083
 3672SOL    HW211559   2.333   1.411   1.941
 3673SOL     OW11560   3.526   1.280   2.519
 3673SOL    HW111561   3.625   1.288   2.533
 3673SOL    HW211562   3.481   1.364   2.550
 3674SOL     OW11563   3.252   0.575   1.940
 3674SOL    HW111564   3.198   0.554   2.021
 3674SOL    HW211565   3.343   0.534   1.949
 3675SOL     OW11566   2.389   0.256   2.190
 3675SOL    HW111567   2.416   0.197   2.115
 3675SOL    HW211568   2.389   0.351   2.159
 3676SOL     OW11569   3.616   1.223   3.450
 3676SOL    HW111570   3.707   1.184   3.437
 3676SOL    HW211571   3.624   1.319   3.474
 3677SOL     OW11572   2.926   1.347   3.202
 3677SOL    HW111573   2.846   1.324   3.257
 3677SOL    HW211574   3.009   1.321   3.251
 3678SOL     OW11575   3.454   1.629   3.487
 3678SOL    HW111576   3.481   1.663   3.397
 3678SOL    HW211577   3.533   1.591   3.533
 3679SOL     OW11578   2.973   1.195   2.962
 3679SOL    HW111579   2.933   1.239   3.043
 3679SOL    HW211580   2.932   1.232   2.879
 3680SOL     OW11581   3.500   1.099   2.941
 3680SOL    HW111582   3.505   1.180   3.000
 3680SOL    HW211583   3.414   1.101   2.890
 3681SOL     OW11584   2.777   0.089   3.264
 3681SOL    HW111585   2.802   0.069   3.169
 3681SOL    HW211586   2.849   0.145   3.306
 3682SOL     OW11587   2.842   1.116   3.581
 3682SOL    HW111588   2.743   1.122   3.591
 3682SOL    HW211589   2.865   1.036   3.525
 3683SOL     OW11590   2.567   1.050   2.230
 3683SOL    HW111591   2.553   1.057   2.329
 3683SOL    HW211592   2.651   0.999   2.212
 3684SOL     OW11593   2.272   0.813   3.113
 3684SOL    HW111594   2.358   0.825   3.163
 3684SOL    HW211595   2.230   0.726   3.140
 3685SOL     OW11596   3.136   0.386   3.124
 3685SOL    HW111597   3.157   0.460   3.188
 3685SOL    HW211598   3.047   0.403   3.081
 3686SOL     OW11599   1.926   1.564   3.193
 3686SOL    HW111600   1.880   1.646   3.159
 3686SOL    HW211601   2.024   1.583   3.202
 3687SOL     OW11602   2.229   1.100   2.363
 3687SOL    HW111603   2.222   1.183   2.307
 3687SOL    HW211604   2.233   1.020   2.303
 3688SOL     OW11605   2.428   0.537   2.727
 3688SOL    HW111606   2.440   0.603   2.653
 3688SOL    HW211607   2.474   0.571   2.810
 3689SOL     OW11608   3.114   1.348   2.250
 3689SOL    HW111609   3.164   1.425   2.290
 3689SOL    HW211610   3.019   1.350   2.282
 3690SOL     OW11611   3.134   1.445   3.004
 3690SOL    HW111612   3.181   1.458   3.091
 3690SOL    HW211613   3.068   1.371   3.013
 3691SOL     OW11614   3.444   0.639   2.334
 3691SOL    HW111615   3.413   0.700   2.407
 3691SOL    HW211616   3.494   0.691   2.265
 3692SOL     OW11617   2.216   1.510   3.191
 3692SOL    HW111618   2.195   1.466   3.104
 3692SOL    HW211619   2.313   1.536   3.194
 3693SOL     OW11620   2.264   0.751   3.460
 3693SOL    HW111621   2.332   0.806   3.413
 3693SOL    HW211622   2.304   0.663   3.487
 3694SOL     OW11623   3.449   0.779   3.532
 3694SOL    HW111624   3.357   0.817   3.527
 3694SOL    HW211625   3.509   0.826   3.467
 3695SOL     OW11626   2.875   0.105   3.632
 3695SOL    HW111627   2.881   0.190   3.580
 3695SOL    HW211628   2.907   0.029   3.575
 3696SOL     OW11629   2.366   0.050   3.602
 3696SOL    HW111630   2.324  -0.007   3.532
 3696SOL    HW211631   2.300   0.119   3.634
 3697SOL     OW11632   2.435   0.870   2.891
 3697SOL    HW111633   2.479   0.959   2.882
 3697SOL    HW211634   2.372   0.870   2.968
 3698SOL     OW11635   3.222   0.862   2.907
 3698SOL    HW111636   3.147   0.862   2.841
 3698SOL    HW211637   3.259   0.770   2.916
 3699SOL     OW11638   3.071   0.525   2.137
 3699SOL    HW111639   3.084   0.441   2.191
 3699SOL    HW211640   3.042   0.599   2.197
 3700SOL     OW11641   2.169   0.213   3.093
 3700SOL    HW111642   2.146   0.250   3.183
 3700SOL    HW211643   2.139   0.118   3.087
 3701SOL     OW11644   1.899   1.310   3.144
 3701SOL    HW111645   1.952   1.261   3.212
 3701SOL    HW211646   1.921   1.408   3.149
 3702SOL     OW11647   2.594   0.634   2.926
 3702SOL    HW111648   2.653   0.608   2.850
 3702SOL    HW211649   2.566   0.730   2.915
 3703SOL     OW11650   3.590   0.935   3.716
 3703SOL    HW111651   3.544   0.928   3.627
 3703SOL    HW211652   3.528   0.979   3.782
 3704SOL     OW11653   2.169   0.063   2.480
 3704SOL    HW111654   2.158   0.157   2.513
 3704SOL    HW211655   2.164   0.000   2.557
 3705SOL     OW11656   3.484   0.367   2.236
 3705SOL    HW111657   3.486   0.291   2.300
 3705SOL    HW211658   3.436   0.444   2.276
 3706SOL     OW11659   2.885   0.766   2.828
 3706SOL    HW111660   2.900   0.787   2.924
 3706SOL    HW211661   2.855   0.671   2.819
 3707SOL     OW11662   2.842   1.573   3.562
 3707SOL    HW111663   2.822   1.617   3.474
 3707SOL    HW211664   2.881   1.482   3.546
 3708SOL     OW11665   3.721   1.518   3.467
 3708SOL    HW111666   3.735   1.545   3.372
 3708SOL    HW211667   3.804   1.540   3.520
 3709SOL     OW11668   2.212   0.898   3.666
 3709SOL    HW111669   2.288   0.942   3.714
 3709SOL    HW211670   2.247   0.851   3.584
 3710SOL     OW11671   3.402   0.274   1.987
 3710SOL    HW111672   3.341   0.199   2.010
 3710SOL    HW211673   3.424   0.326   2.070
 3711SOL     OW11674   3.165   0.838   1.904
 3711SOL    HW111675   3.199   0.745   1.919
 3711SOL    HW211676   3.183   0.865   1.809
 3712SOL     OW11677   2.930   1.333   2.711
 3712SOL    HW111678   2.937   1.249   2.656
 3712SOL    HW211679   2.992   1.402   2.675
 3713SOL     OW11680   2.181   0.810   2.811
 3713SOL    HW111681   2.274   0.846   2.816
 3713SOL    HW211682   2.175   0.725   2.863
 3714SOL     OW11683   2.201   0.509   2.868
 3714SOL    HW111684   2.149   0.426   2.851
 3714SOL    HW211685   2.278   0.514   2.804
 3715SOL     OW11686   3.000   0.380   3.540
 3715SOL    HW111687   2.955   0.443   3.604
 3715SOL    HW211688   3.093   0.411   3.523
 3716SOL     OW11689   3.022   0.207   3.339
 3716SOL    HW111690   3.022   0.271   3.416
 3716SOL    HW211691   3.050   0.255   3.256
 3717SOL     OW11692   1.870   1.326   2.062
 3717SOL    HW111693   1.777   1.347   2.031
 3717SOL    HW211694   1.880   1.227   2.075
 3718SOL     OW11695   1.950   1.801   2.789
 3718SOL    HW111696   1.908   1.715   2.762
 3718SOL    HW211697   2.044   1.804   2.755
 3719SOL     OW11698   2.366   1.568   2.772
 3719SOL    HW111699   2.432   1.642   2.781
 3719SOL    HW211700   2.410   1.489   2.730
 3720SOL     OW11701   2.864   0.796   3.100
 3720SOL    HW111702   2.905   0.764   3.186
 3720SOL    HW211703   2.768   0.769   3.097
 3721SOL     OW11704   1.902   0.544   2.976
 3721SOL    HW111705   1.987   0.511   2.935
 3721SOL    HW211706   1.915   0.559   3.074
 3722SOL     OW11707   2.051   0.520   3.584
 3722SOL    HW111708   2.110   0.480   3.514
 3722SOL    HW211709   1.993   0.591   3.543
 3723SOL     OW11710   3.231   0.950   3.522
 3723SOL    HW111711   3.270   1.039   3.542
 3723SOL    HW211712   3.241   0.930   3.425
 3724SOL     OW11713   2.677   0.572   2.187
 3724SOL    HW111714   2.684   0.483   2.141
 3724SOL    HW211715   2.583   0.606   2.179
 3725SOL     OW11716   3.519   0.604   3.068
 3725SOL    HW111717   3.481   0.535   3.130
 3725SOL    HW211718   3.601   0.568   3.024
 3726SOL     OW11719   2.114   1.564   3.606
 3726SOL    HW111720   2.084   1.621   3.682
 3726SOL    HW211721   2.107   1.467   3.632
 3727SOL     OW11722   2.533   0.464   3.131
 3727SOL    HW111723   2.499   0.375   3.101
 3727SOL    HW211724   2.559   0.518   3.051
 3728SOL     OW11725   2.792   1.678   3.327
 3728SOL    HW111726   2.768   1.660   3.232
 3728SOL    HW211727   2.822   1.772   3.337
 3729SOL     OW11728   2.335   0.500   2.053
 3729SOL    HW111729   2.396   0.580   2.057
 3729SOL    HW211730   2.240   0.531   2.060
 3730SOL     OW11731   2.021   1.137   3.328
 3730SOL    HW111732   2.043   1.076   3.404
 3730SOL    HW211733   2.031   1.088   3.242
 3731SOL     OW11734   3.209   1.059   3.096
 3731SOL    HW111735   3.233   0.996   3.022
 3731SOL    HW211736   3.119   1.099   3.078
 3732SOL     OW11737   3.164   0.855   2.171
 3732SOL    HW111738   3.078   0.824   2.213
 3732SOL    HW211739   3.160   0.841   2.072
 3733SOL     OW11740   3.621   1.747   3.016
 3733SOL    HW111741   3.682   1.777   2.943
 3733SOL    HW211742   3.583   1.658   2.994
 3734SOL     OW11743   3.114   1.731   2.990
 3734SOL    HW111744   3.198   1.736   2.936
 3734SOL    HW211745   3.091   1.635   3.008
 3735SOL     OW11746   1.945   1.258   2.884
 3735SOL    HW111747   1.940   1.257   2.984
 3735SOL    HW211748   1.862   1.217   2.846
 3736SOL     OW11749   2.550   1.662   3.578
 3736SOL    HW111750   2.494   1.743   3.587
 3736SOL    HW211751   2.602   1.666   3.492
 3737SOL     OW11752   3.588   0.135   2.385
 3737SOL    HW111753   3.661   0.118   2.318
 3737SOL    HW211754   3.557   0.048   2.423
 3738SOL     OW11755   3.250   1.573   2.339
 3738SOL    HW111756   3.317   1.585   2.265
 3738SOL    HW211757   3.210   1.662   2.362
 3739SOL     OW11758   1.992   1.794   3.713
 3739SOL    HW111759   1.951   1.720   3.766
 3739SOL    HW211760   2.056   1.845   3.771
 3740SOL     OW11761   3.142   0.927   2.534
 3740SOL    HW111762   3.202   0.846   2.536
 3740SOL    HW211763   3.182   0.996   2.474
 3741SOL     OW11764   2.692   1.273   3.284
 3741SOL    HW111765   2.687   1.306   3.379
 3741SOL    HW211766   2.606   1.292   3.238
 3742SOL     OW11767   2.534   1.616   2.016
 3742SOL    HW111768   2.543   1.626   1.917
 3742SOL    HW211769   2.494   1.527   2.037
 3743SOL     OW11770   3.512   1.720   3.256
 3743SOL    HW111771   3.565   1.730   3.172
 3743SOL    HW211772   3.485   1.810   3.290
 3744SOL     OW11773   3.703   0.175   2.825
 3744SOL    HW111774   3.742   0.090   2.789
 3744SOL    HW211775   3.605   0.177   2.806
 3745SOL     OW11776   2.125   0.326   2.582
 3745SOL    HW111777   2.046   0.377   2.548
 3745SOL    HW211778   2.116   0.311   2.680
 3746SOL     OW11779   3.056   1.612   1.893
 3746SOL    HW111780   3.062   1.519   1.930
 3746SOL    HW211781   2.997   1.612   1.813
 3747SOL     OW11782   2.684   1.002   3.234
 3747SOL    HW111783   2.724   1.001   3.142
 3747SOL    HW211784   2.694   1.094   3.274
 3748SOL     OW11785   2.778   0.910   2.153
 3748SOL    HW111786   2.841   0.948   2.085
 3748SOL    HW211787   2.818   0.827   2.192
 3749SOL     OW11788   3.366   1.607   1.906
 3749SOL    HW111789   3.274   1.644   1.913
 3749SOL    HW211790   3.404   1.627   1.816
 3750SOL     OW11791   2.234   1.288   3.352
 3750SOL    HW111792   2.221   1.381   3.318
 3750SOL    HW211793   2.150   1.236   3.339
 3751SOL     OW11794   3.476   1.292   3.151
 3751SOL    HW111795   3.536   1.295   3.231
 3751SOL    HW211796   3.401   1.356   3.164
 3752SOL     OW11797   2.901   1.098   2.558
 3752SOL    HW111798   2.831   1.051   2.612
 3752SOL    HW211799   2.960   1.030   2.515
 3753SOL     OW11800   2.876   0.236   2.833
 3753SOL    HW111801   2.868   0.200   2.740
 3753SOL    HW211802   2.874   0.160   2.898
 3754SOL     OW11803   2.452   1.487   2.353
 3754SOL    HW111804   2.494   1.429   2.283
 3754SOL    HW211805   2.408   1.566   2.309
 3755SOL     OW11806   3.571   0.385   3.243
 3755SOL    HW111807   3.644   0.454   3.247
 3755SOL    HW211808   3.599   0.310   3.184
 3756SOL     OW11809   2.117   1.348   2.152
 3756SOL    HW111810   2.021   1.349   2.125
 3756SOL    HW211811   2.129   1.401   2.236
 3757SOL     OW11812   1.967   1.013   3.588
 3757SOL    HW111813   1.890   0.980   3.642
 3757SOL    HW211814   2.052   0.983   3.630
 3758SOL     OW11815   2.534   0.203   3.351
 3758SOL    HW111816   2.624   0.187   3.311
 3758SOL    HW211817   2.542   0.208   3.450
 3759SOL     OW11818   1.937   0.345   1.895
 3759SOL    HW111819   1.845   0.317   1.866
 3759SOL    HW211820   1.968   0.422   1.839
 3760SOL     OW11821   3.302   0.856   3.260
 3760SOL    HW111822   3.245   0.908   3.197
 3760SOL    HW211823   3.398   0.868   3.236
 3761SOL     OW11824   1.934   0.166   2.180
 3761SOL    HW111825   1.917   0.249   2.126
 3761SOL    HW211826   2.024   0.129   2.158
 3762SOL     OW11827   3.045   1.335   1.981
 3762SOL    HW111828   2.946   1.324   1.983
 3762SOL    HW211829   3.079   1.350   2.074
 3763SOL     OW11830   2.475   0.842   3.293
 3763SOL    HW111831   2.531   0.923   3.276
 3763SOL    HW211832   2.534   0.762   3.296
 3764SOL     OW11833   3.355   1.767   2.821
 3764SOL    HW111834   3.388   1.831   2.752
 3764SOL    HW211835   3.421   1.761   2.896
 3765SOL     OW11836   2.578   0.565   3.570
 3765SOL    HW111837   2.597   0.630   3.644
 3765SOL    HW211838   2.638   0.485   3.579
 3766SOL     OW11839   3.312   1.220   3.495
 3766SOL    HW111840   3.303   1.210   3.594
 3766SOL    HW211841   3.408   1.213   3.469
 3767SOL     OW11842   2.252   1.741   3.422
 3767SOL    HW111843   2.161   1.782   3.420
 3767SOL    HW211844   2.245   1.647   3.454
 3768SOL     OW11845   3.536   0.883   3.116
 3768SOL    HW111846   3.509   0.794   3.079
 3768SOL    HW211847   3.537   0.951   3.043
 3769SOL     OW11848   3.087   0.325   2.311
 3769SOL    HW111849   3.152   0.251   2.300
 3769SOL    HW211850   3.107   0.375   2.395
 3770SOL     OW11851   2.456   0.745   2.514
 3770SOL    HW111852   2.506   0.830   2.495
 3770SOL    HW211853   2.368   0.747   2.466
 3771SOL     OW11854   3.639   0.342   3.504
 3771SOL    HW111855   3.622   0.373   3.410
 3771SOL    HW211856   3.555   0.305   3.542
 3772SOL     OW11857   3.592   0.934   3.379
 3772SOL    HW111858   3.630   1.025   3.394
 3772SOL    HW211859   3.584   0.917   3.280
 3773SOL     OW11860   2.721   1.374   1.878
 3773SOL    HW111861   2.675   1.389   1.966
 3773SOL    HW211862   2.765   1.459   1.848
 3774SOL     OW11863   2.523   1.790   2.815
 3774SOL    HW111864   2.477   1.878   2.802
 3774SOL    HW211865   2.622   1.802   2.808
 3775SOL     OW11866   2.721   0.956   2.723
 3775SOL    HW111867   2.775   0.887   2.771
 3775SOL    HW211868   2.689   1.025   2.789
 3776SOL     OW11869   2.945   0.984   1.949
 3776SOL    HW111870   2.922   1.037   1.867
 3776SOL    HW211871   3.026   0.928   1.930
 3777SOL     OW11872   3.723   1.569   2.713
 3777SOL    HW111873   3.652   1.557   2.643
 3777SOL    HW211874   3.724   1.490   2.773
 3778SOL     OW11875   2.083   1.314   3.706
 3778SOL    HW111876   2.018   1.241   3.685
 3778SOL    HW211877   2.087   1.328   3.804
 3779SOL     OW11878   1.941   1.240   2.515
 3779SOL    HW111879   1.940   1.193   2.603
 3779SOL    HW211880   2.023   1.212   2.464
 3780SOL     OW11881   2.534   1.391   3.486
 3780SOL    HW111882   2.456   1.341   3.524
 3780SOL    HW211883   2.531   1.486   3.517
 3781SOL     OW11884   3.686   0.192   3.089
 3781SOL    HW111885   3.682   0.102   3.133
 3781SOL    HW211886   3.689   0.181   2.990
 3782SOL     OW11887   2.290   0.424   2.382
 3782SOL    HW111888   2.320   0.352   2.320
 3782SOL    HW211889   2.251   0.384   2.465
 3783SOL     OW11890   3.567   1.487   2.966
 3783SOL    HW111891   3.474   1.462   2.939
 3783SOL    HW211892   3.593   1.437   3.048
 3784SOL     OW11893   2.179   0.547   3.142
 3784SOL    HW111894   2.217   0.488   3.214
 3784SOL    HW211895   2.219   0.521   3.054
 3785SOL     OW11896   2.674   1.586   2.549
 3785SOL    HW111897   2.706   1.596   2.455
 3785SOL    HW211898   2.595   1.524   2.551
 3786SOL     OW11899   3.286   0.214   2.974
 3786SOL    HW111900   3.338   0.149   3.029
 3786SOL    HW211901   3.237   0.277   3.035
 3787SOL     OW11902   2.863   0.034   3.016
 3787SOL    HW111903   2.800  -0.038   2.985
 3787SOL    HW211904   2.956  -0.002   3.016
 3788SOL     OW11905   2.632   1.330   2.163
 3788SOL    HW111906   2.586   1.243   2.180
 3788SOL    HW211907   2.723   1.327   2.204
 3789SOL     OW11908   2.480   1.567   3.146
 3789SOL    HW111909   2.475   1.649   3.203
 3789SOL    HW211910   2.569   1.564   3.101
 3790SOL     OW11911   3.214   0.052   2.030
 3790SOL    HW111912   3.249   0.011   1.946
 3790SOL    HW211913   3.124   0.014   2.050
 3791SOL     OW11914   3.162   0.453   2.553
 3791SOL    HW111915   3.103   0.533   2.557
 3791SOL    HW211916   3.177   0.418   2.646
 3792SOL     OW11917   3.455   0.221   2.744
 3792SOL    HW111918   3.371   0.220   2.798
 3792SOL    HW211919   3.457   0.304   2.688
 3793SOL     OW11920   1.901   1.077   2.162
 3793SOL    HW111921   2.000   1.066   2.153
 3793SOL    HW211922   1.861   0.991   2.194
 3794SOL     OW11923   2.737   1.646   2.199
 3794SOL    HW111924   2.660   1.611   2.145
 3794SOL    HW211925   2.705   1.717   2.261
 3795SOL     OW11926   2.092   0.628   3.837
 3795SOL    HW111927   1.999   0.626   3.874
 3795SOL    HW211928   2.093   0.589   3.745
 3796SOL     OW11929   2.087   0.275   4.720
 3796SOL    HW111930   2.122   0.258   4.812
 3796SOL    HW211931   1.999   0.230   4.708
 3797SOL     OW11932   1.881   0.368   4.371
 3797SOL    HW111933   1.799   0.411   4.410
 3797SOL    HW211934   1.853   0.295   4.308
 3798SOL     OW11935   2.431   1.275   4.889
 3798SOL    HW111936   2.338   1.268   4.852
 3798SOL    HW211937   2.442   1.364   4.933
 3799SOL     OW11938   3.417   1.511   4.427
 3799SOL    HW111939   3.360   1.495   4.508
 3799SOL    HW211940   3.358   1.521   4.347
 3800SOL     OW11941   2.997   0.703   4.441
 3800SOL    HW111942   3.054   0.781   4.416
 3800SOL    HW211943   2.937   0.729   4.517
 3801SOL     OW11944   3.617   0.607   3.955
 3801SOL    HW111945   3.605   0.594   3.856
 3801SOL    HW211946   3.587   0.526   4.004
 3802SOL     OW11947   2.630   1.144   4.747
 3802SOL    HW111948   2.552   1.161   4.807
 3802SOL    HW211949   2.664   1.231   4.711
 3803SOL     OW11950   2.712   0.798   5.547
 3803SOL    HW111951   2.708   0.874   5.612
 3803SOL    HW211952   2.734   0.834   5.456
 3804SOL     OW11953   2.547   1.012   4.389
 3804SOL    HW111954   2.616   0.996   4.459
 3804SOL    HW211955   2.474   1.069   4.427
 3805SOL     OW11956   2.548   1.161   5.527
 3805SOL    HW111957   2.608   1.240   5.541
 3805SOL    HW211958   2.462   1.192   5.486
 3806SOL     OW11959   2.197   1.435   4.785
 3806SOL    HW111960   2.119   1.404   4.732
 3806SOL    HW211961   2.255   1.493   4.728
 3807SOL     OW11962   3.322   1.505   5.063
 3807SOL    HW111963   3.346   1.599   5.089
 3807SOL    HW211964   3.306   1.451   5.145
 3808SOL     OW11965   2.300   0.392   5.223
 3808SOL    HW111966   2.382   0.336   5.232
 3808SOL    HW211967   2.219   0.334   5.227
 3809SOL     OW11968   3.465   0.447   4.461
 3809SOL    HW111969   3.391   0.493   4.411
 3809SOL    HW211970   3.516   0.515   4.514
 3810SOL     OW11971   2.093   1.713   4.207
 3810SOL    HW111972   2.127   1.790   4.261
 3810SOL    HW211973   2.137   1.713   4.117
 3811SOL     OW11974   2.989   1.341   5.414
 3811SOL    HW111975   3.036   1.341   5.502
 3811SOL    HW211976   2.941   1.254   5.403
 3812SOL     OW11977   2.092   1.434   4.262
 3812SOL    HW111978   2.066   1.530   4.262
 3812SOL    HW211979   2.021   1.380   4.307
 3813SOL     OW11980   2.102   1.091   4.610
 3813SOL    HW111981   2.116   1.007   4.662
 3813SOL    HW211982   2.047   1.155   4.665
 3814SOL     OW11983   2.482   1.786   5.163
 3814SOL    HW111984   2.390   1.769   5.198
 3814SOL    HW211985   2.510   1.878   5.189
 3815SOL     OW11986   2.468   0.964   3.847
 3815SOL    HW111987   2.475   1.048   3.793
 3815SOL    HW211988   2.514   0.977   3.935
 3816SOL     OW11989   3.456   0.114   5.204
 3816SOL    HW111990   3.438   0.181   5.132
 3816SOL    HW211991   3.453   0.160   5.293
 3817SOL     OW11992   1.984   0.643   4.287
 3817SOL    HW111993   1.939   0.555   4.304
 3817SOL    HW211994   1.983   0.697   4.371
 3818SOL     OW11995   3.704   1.767   4.083
 3818SOL    HW111996   3.758   1.738   4.163
 3818SOL    HW211997   3.734   1.857   4.054
 3819SOL     OW11998   1.889   1.596   3.841
 3819SOL    HW111999   1.870   1.500   3.862
 3819SOL    HW212000   1.856   1.654   3.916
 3820SOL     OW12001   3.551   0.922   4.336
 3820SOL    HW112002   3.646   0.893   4.344
 3820SOL    HW212003   3.543   0.987   4.261
 3821SOL     OW12004   3.503   1.108   4.156
 3821SOL    HW112005   3.589   1.110   4.104
 3821SOL    HW212006   3.517   1.155   4.244
 3822SOL     OW12007   1.975   0.737   5.321
 3822SOL    HW112008   2.063   0.724   5.366
 3822SOL    HW212009   1.962   0.834   5.299
 3823SOL     OW12010   2.475   1.365   4.450
 3823SOL    HW112011   2.426   1.278   4.459
 3823SOL    HW212012   2.452   1.408   4.363
 3824SOL     OW12013   3.155   1.228   5.147
 3824SOL    HW112014   3.192   1.155   5.089
 3824SOL    HW212015   3.207   1.233   5.232
 3825SOL     OW12016   2.671   0.004   4.226
 3825SOL    HW112017   2.711   0.095   4.217
 3825SOL    HW212018   2.571   0.012   4.232
 3826SOL     OW12019   2.059   0.976   4.988
 3826SOL    HW112020   2.148   0.931   4.974
 3826SOL    HW212021   1.986   0.911   4.969
 3827SOL     OW12022   3.387   0.999   3.914
 3827SOL    HW112023   3.324   0.923   3.927
 3827SOL    HW212024   3.435   1.017   4.000
 3828SOL     OW12025   3.049   1.792   5.340
 3828SOL    HW112026   3.073   1.852   5.264
 3828SOL    HW212027   3.056   1.697   5.310
 3829SOL     OW12028   2.179   0.251   5.525
 3829SOL    HW112029   2.250   0.322   5.531
 3829SOL    HW212030   2.091   0.290   5.553
 3830SOL     OW12031   3.328   1.417   4.677
 3830SOL    HW112032   3.269   1.423   4.757
 3830SOL    HW212033   3.313   1.329   4.631
 3831SOL     OW12034   3.529   1.714   4.296
 3831SOL    HW112035   3.488   1.691   4.208
 3831SOL    HW212036   3.511   1.640   4.361
 3832SOL     OW12037   2.460   0.729   3.994
 3832SOL    HW112038   2.484   0.798   3.926
 3832SOL    HW212039   2.382   0.762   4.048
 3833SOL     OW12040   3.143   0.345   4.668
 3833SOL    HW112041   3.057   0.295   4.655
 3833SOL    HW212042   3.205   0.291   4.724
 3834SOL     OW12043   3.438   1.662   4.031
 3834SOL    HW112044   3.527   1.708   4.034
 3834SOL    HW212045   3.417   1.638   3.936
 3835SOL     OW12046   2.669   0.605   5.189
 3835SOL    HW112047   2.622   0.602   5.278
 3835SOL    HW212048   2.618   0.550   5.123
 3836SOL     OW12049   3.256   0.469   5.398
 3836SOL    HW112050   3.236   0.512   5.486
 3836SOL    HW212051   3.334   0.407   5.407
 3837SOL     OW12052   2.835   0.890   5.296
 3837SOL    HW112053   2.881   0.806   5.267
 3837SOL    HW212054   2.779   0.924   5.221
 3838SOL     OW12055   2.853   0.410   4.966
 3838SOL    HW112056   2.776   0.444   5.020
 3838SOL    HW212057   2.819   0.359   4.887
 3839SOL     OW12058   2.903   0.701   4.153
 3839SOL    HW112059   2.929   0.697   4.249
 3839SOL    HW212060   2.818   0.650   4.139
 3840SOL     OW12061   1.938   0.811   4.513
 3840SOL    HW112062   2.037   0.799   4.522
 3840SOL    HW212063   1.914   0.906   4.534
 3841SOL     OW12064   2.727   0.348   3.919
 3841SOL    HW112065   2.786   0.411   3.870
 3841SOL    HW212066   2.746   0.254   3.890
 3842SOL     OW12067   3.581   0.585   5.555
 3842SOL    HW112068   3.555   0.674   5.519
 3842SOL    HW212069   3.579   0.517   5.482
 3843SOL     OW12070   3.224   1.144   4.269
 3843SOL    HW112071   3.307   1.115   4.221
 3843SOL    HW212072   3.175   1.211   4.213
 3844SOL     OW12073   2.412   0.196   4.609
 3844SOL    HW112074   2.407   0.191   4.709
 3844SOL    HW212075   2.414   0.292   4.580
 3845SOL     OW12076   2.870   1.456   4.201
 3845SOL    HW112077   2.824   1.528   4.149
 3845SOL    HW212078   2.866   1.476   4.299
 3846SOL     OW12079   2.213   1.801   4.577
 3846SOL    HW112080   2.263   1.715   4.583
 3846SOL    HW212081   2.278   1.878   4.574
 3847SOL     OW12082   3.657   1.066   4.597
 3847SOL    HW112083   3.595   1.051   4.521
 3847SOL    HW212084   3.605   1.077   4.682
 3848SOL     OW12085   3.089   1.550   5.230
 3848SOL    HW112086   3.095   1.473   5.294
 3848SOL    HW212087   3.037   1.524   5.150
 3849SOL     OW12088   2.183   0.943   3.966
 3849SOL    HW112089   2.265   0.982   3.924
 3849SOL    HW212090   2.156   0.861   3.917
 3850SOL     OW12091   3.320   0.735   4.452
 3850SOL    HW112092   3.315   0.670   4.527
 3850SOL    HW212093   3.400   0.794   4.465
 3851SOL     OW12094   2.323   1.266   5.451
 3851SOL    HW112095   2.273   1.267   5.365
 3851SOL    HW212096   2.260   1.248   5.527
 3852SOL     OW12097   2.973   1.776   3.961
 3852SOL    HW112098   2.913   1.714   4.011
 3852SOL    HW212099   3.004   1.732   3.876
 3853SOL     OW12100   2.064   0.285   5.222
 3853SOL    HW112101   1.984   0.345   5.209
 3853SOL    HW212102   2.054   0.236   5.308
 3854SOL     OW12103   3.494   1.377   3.805
 3854SOL    HW112104   3.462   1.471   3.795
 3854SOL    HW212105   3.418   1.314   3.793
 3855SOL     OW12106   2.326   1.743   4.047
 3855SOL    HW112107   2.359   1.782   4.133
 3855SOL    HW212108   2.402   1.736   3.982
 3856SOL     OW12109   3.262   0.107   4.150
 3856SOL    HW112110   3.238   0.070   4.060
 3856SOL    HW212111   3.361   0.123   4.154
 3857SOL     OW12112   2.111   1.785   4.965
 3857SOL    HW112113   2.168   1.720   5.015
 3857SOL    HW212114   2.095   1.752   4.872
 3858SOL     OW12115   2.802   1.698   4.628
 3858SOL    HW112116   2.882   1.641   4.649
 3858SOL    HW212117   2.753   1.658   4.551
 3859SOL     OW12118   2.244   0.700   4.204
 3859SOL    HW112119   2.289   0.610   4.201
 3859SOL    HW212120   2.150   0.689   4.237
 3860SOL     OW12121   3.409   0.222   5.453
 3860SOL    HW112122   3.404   0.259   5.545
 3860SOL    HW212123   3.337   0.153   5.441
 3861SOL     OW12124   2.476   0.122   3.841
 3861SOL    HW112125   2.574   0.100   3.848
 3861SOL    HW212126   2.445   0.105   3.748
 3862SOL     OW12127   2.643   0.264   5.473
 3862SOL    HW112128   2.710   0.203   5.516
 3862SOL    HW212129   2.570   0.283   5.538
 3863SOL     OW12130   2.750   1.514   4.919
 3863SOL    HW112131   2.727   1.489   4.825
 3863SOL    HW212132   2.811   1.445   4.958
 3864SOL     OW12133   3.213   0.590   5.157
 3864SOL    HW112134   3.241   0.547   5.242
 3864SOL    HW212135   3.238   0.686   5.158
 3865SOL     OW12136   2.665   1.402   4.648
 3865SOL    HW112137   2.755   1.416   4.606
 3865SOL    HW212138   2.594   1.404   4.577
 3866SOL     OW12139   2.784   0.503   4.623
 3866SOL    HW112140   2.759   0.494   4.527
 3866SOL    HW212141   2.832   0.421   4.654
 3867SOL     OW12142   2.401   0.064   4.236
 3867SOL    HW112143   2.320   0.065   4.294
 3867SOL    HW212144   2.404   0.147   4.181
 3868SOL     OW12145   3.296   1.188   3.765
 3868SOL    HW112146   3.328   1.112   3.822
 3868SOL    HW212147   3.204   1.215   3.795
 3869SOL     OW12148   2.159   0.035   3.895
 3869SOL    HW112149   2.208   0.119   3.874
 3869SOL    HW212150   2.221  -0.030   3.940
 3870SOL     OW12151   2.797   0.236   4.204
 3870SOL    HW112152   2.749   0.277   4.126
 3870SOL    HW212153   2.896   0.234   4.185
 3871SOL     OW12154   2.938   0.683   5.188
 3871SOL    HW112155   2.858   0.622   5.191
 3871SOL    HW212156   3.019   0.630   5.164
 3872SOL     OW12157   3.089   1.570   4.517
 3872SOL    HW112158   3.110   1.644   4.452
 3872SOL    HW212159   3.157   1.570   4.590
 3873SOL     OW12160   2.321   1.152   4.465
 3873SOL    HW112161   2.250   1.125   4.530
 3873SOL    HW212162   2.295   1.124   4.372
 3874SOL     OW12163   3.133   1.797   4.315
 3874SOL    HW112164   3.177   1.861   4.251
 3874SOL    HW212165   3.083   1.849   4.385
 3875SOL     OW12166   2.894   0.549   3.740
 3875SOL    HW112167   2.853   0.631   3.701
 3875SOL    HW212168   2.958   0.575   3.813
 3876SOL     OW12169   1.940   0.556   5.110
 3876SOL    HW112170   2.032   0.555   5.069
 3876SOL    HW212171   1.934   0.630   5.177
 3877SOL     OW12172   2.423   0.222   4.871
 3877SOL    HW112173   2.461   0.138   4.908
 3877SOL    HW212174   2.335   0.241   4.915
 3878SOL     OW12175   2.728   0.454   4.366
 3878SOL    HW112176   2.696   0.526   4.304
 3878SOL    HW212177   2.752   0.373   4.313
 3879SOL     OW12178   2.879   0.039   4.477
 3879SOL    HW112179   2.807   0.044   4.408
 3879SOL    HW212180   2.855  -0.030   4.546
 3880SOL     OW12181   3.291   1.173   4.591
 3880SOL    HW112182   3.236   1.089   4.584
 3880SOL    HW212183   3.317   1.202   4.499
 3881SOL     OW12184   3.328   0.590   4.716
 3881SOL    HW112185   3.298   0.495   4.723
 3881SOL    HW212186   3.401   0.606   4.782
 3882SOL     OW12187   3.719   0.833   4.101
 3882SOL    HW112188   3.761   0.769   4.165
 3882SOL    HW212189   3.681   0.782   4.023
 3883SOL     OW12190   2.350   1.385   3.898
 3883SOL    HW112191   2.263   1.370   3.945
 3883SOL    HW212192   2.333   1.411   3.803
 3884SOL     OW12193   3.526   1.280   4.381
 3884SOL    HW112194   3.625   1.288   4.395
 3884SOL    HW212195   3.481   1.364   4.412
 3885SOL     OW12196   3.252   0.575   3.802
 3885SOL    HW112197   3.198   0.554   3.883
 3885SOL    HW212198   3.343   0.534   3.811
 3886SOL     OW12199   2.389   0.256   4.052
 3886SOL    HW112200   2.416   0.197   3.977
 3886SOL    HW212201   2.389   0.351   4.021
 3887SOL     OW12202   3.616   1.223   5.312
 3887SOL    HW112203   3.707   1.184   5.299
 3887SOL    HW212204   3.624   1.319   5.336
 3888SOL     OW12205   2.926   1.347   5.064
 3888SOL    HW112206   2.846   1.324   5.119
 3888SOL    HW212207   3.009   1.321   5.113
 3889SOL     OW12208   3.454   1.629   5.349
 3889SOL    HW112209   3.481   1.663   5.259
 3889SOL    HW212210   3.533   1.591   5.395
 3890SOL     OW12211   2.973   1.195   4.824
 3890SOL    HW112212   2.933   1.239   4.905
 3890SOL    HW212213   2.932   1.232   4.741
 3891SOL     OW12214   3.500   1.099   4.803
 3891SOL    HW112215   3.505   1.180   4.862
 3891SOL    HW212216   3.414   1.101   4.752
 3892SOL     OW12217   2.777   0.089   5.126
 3892SOL    HW112218   2.802   0.069   5.031
 3892SOL    HW212219   2.849   0.145   5.168
 3893SOL     OW12220   2.842   1.116   5.443
 3893SOL    HW112221   2.743   1.122   5.453
 3893SOL    HW212222   2.865   1.036   5.387
 3894SOL     OW12223   2.567   1.050   4.092
 3894SOL    HW112224   2.553   1.057   4.191
 3894SOL    HW212225   2.651   0.999   4.074
 3895SOL     OW12226   2.272   0.813   4.975
 3895SOL    HW112227   2.358   0.825   5.025
 3895SOL    HW212228   2.230   0.726   5.002
 3896SOL     OW12229   3.136   0.386   4.986
 3896SOL    HW112230   3.157   0.460   5.050
 3896SOL    HW212231   3.047   0.403   4.943
 3897SOL     OW12232   1.926   1.564   5.055
 3897SOL    HW112233   1.880   1.646   5.021
 3897SOL    HW212234   2.024   1.583   5.064
 3898SOL     OW12235   2.229   1.100   4.225
 3898SOL    HW112236   2.222   1.183   4.169
 3898SOL    HW212237   2.233   1.020   4.165
 3899SOL     OW12238   2.428   0.537   4.589
 3899SOL    HW112239   2.440   0.603   4.515
 3899SOL    HW212240   2.474   0.571   4.672
 3900SOL     OW12241   3.114   1.348   4.112
 3900SOL    HW112242   3.164   1.425   4.152
 3900SOL    HW212243   3.019   1.350   4.144
 3901SOL     OW12244   3.134   1.445   4.866
 3901SOL    HW112245   3.181   1.458   4.953
 3901SOL    HW212246   3.068   1.371   4.875
 3902SOL     OW12247   3.444   0.639   4.196
 3902SOL    HW112248   3.413   0.700   4.269
 3902SOL    HW212249   3.494   0.691   4.127
 3903SOL     OW12250   2.216   1.510   5.053
 3903SOL    HW112251   2.195   1.466   4.966
 3903SOL    HW212252   2.313   1.536   5.056
 3904SOL     OW12253   2.264   0.751   5.322
 3904SOL    HW112254   2.332   0.806   5.275
 3904SOL    HW212255   2.304   0.663   5.349
 3905SOL     OW12256   3.449   0.779   5.394
 3905SOL    HW112257   3.357   0.817   5.389
 3905SOL    HW212258   3.509   0.826   5.329
 3906SOL     OW12259   2.875   0.105   5.494
 3906SOL    HW112260   2.881   0.190   5.442
 3906SOL    HW212261   2.907   0.029   5.437
 3907SOL     OW12262   2.366   0.050   5.464
 3907SOL    HW112263   2.324  -0.007   5.394
 3907SOL    HW212264   2.300   0.119   5.496
 3908SOL     OW12265   2.435   0.870   4.753
 3908SOL    HW112266   2.479   0.959   4.744
 3908SOL    HW212267   2.372   0.870   4.830
 3909SOL     OW12268   3.222   0.862   4.769
 3909SOL    HW112269   3.147   0.862   4.703
 3909SOL    HW212270   3.259   0.770   4.778
 3910SOL     OW12271   3.071   0.525   3.999
 3910SOL    HW112272   3.084   0.441   4.053
 3910SOL    HW212273   3.042   0.599   4.059
 3911SOL     OW12274   2.169   0.213   4.955
 3911SOL    HW112275   2.146   0.250   5.045
 3911SOL    HW212276   2.139   0.118   4.949
 3912SOL     OW12277   1.899   1.310   5.006
 3912SOL    HW112278   1.952   1.261   5.074
 3912SOL    HW212279   1.921   1.408   5.011
 3913SOL     OW12280   2.594   0.634   4.788
 3913SOL    HW112281   2.653   0.608   4.712
 3913SOL    HW212282   2.566   0.730   4.777
 3914SOL     OW12283   3.590   0.935   5.578
 3914SOL    HW112284   3.544   0.928   5.489
 3914SOL    HW212285   3.528   0.979   5.644
 3915SOL     OW12286   2.169   0.063   4.342
 3915SOL    HW112287   2.158   0.157   4.375
 3915SOL    HW212288   2.164   0.000   4.419
 3916SOL     OW12289   3.484   0.367   4.098
 3916SOL    HW112290   3.486   0.291   4.162
 3916SOL    HW212291   3.436   0.444   4.138
 3917SOL     OW12292   2.885   0.766   4.690
 3917SOL    HW112293   2.900   0.787   4.786
 3917SOL    HW212294   2.855   0.671   4.681
 3918SOL     OW12295   2.842   1.573   5.424
 3918SOL    HW112296   2.822   1.617   5.336
 3918SOL    HW212297   2.881   1.482   5.408
 3919SOL     OW12298   3.721   1.518   5.329
 3919SOL    HW112299   3.735   1.545   5.234
 3919SOL    HW212300   3.804   1.540   5.382
 3920SOL     OW12301   2.212   0.898   5.528
 3920SOL    HW112302   2.288   0.942   5.576
 3920SOL    HW212303   2.247   0.851   5.446
 3921SOL     OW12304   3.402   0.274   3.849
 3921SOL    HW112305   3.341   0.199   3.872
 3921SOL    HW212306   3.424   0.326   3.932
 3922SOL     OW12307   3.165   0.838   3.766
 3922SOL    HW112308   3.199   0.745   3.781
 3922SOL    HW212309   3.183   0.865   3.671
 3923SOL     OW12310   2.930   1.333   4.573
 3923SOL    HW112311   2.937   1.249   4.518
 3923SOL    HW212312   2.992   1.402   4.537
 3924SOL     OW12313   2.181   0.810   4.673
 3924SOL    HW112314   2.274   0.846   4.678
 3924SOL    HW212315   2.175   0.725   4.725
 3925SOL     OW12316   2.201   0.509   4.730
 3925SOL    HW112317   2.149   0.426   4.713
 3925SOL    HW212318   2.278   0.514   4.666
 3926SOL     OW12319   3.000   0.380   5.402
 3926SOL    HW112320   2.955   0.443   5.466
 3926SOL    HW212321   3.093   0.411   5.385
 3927SOL     OW12322   3.022   0.207   5.201
 3927SOL    HW112323   3.022   0.271   5.278
 3927SOL    HW212324   3.050   0.255   5.118
 3928SOL     OW12325   1.870   1.326   3.924
 3928SOL    HW112326   1.777   1.347   3.893
 3928SOL    HW212327   1.880   1.227   3.937
 3929SOL     OW12328   1.950   1.801   4.651
 3929SOL    HW112329   1.908   1.715   4.624
 3929SOL    HW212330   2.044   1.804   4.617
 3930SOL     OW12331   2.366   1.568   4.634
 3930SOL    HW112332   2.432   1.642   4.643
 3930SOL    HW212333   2.410   1.489   4.592
 3931SOL     OW12334   2.864   0.796   4.962
 3931SOL    HW112335   2.905   0.764   5.048
 3931SOL    HW212336   2.768   0.769   4.959
 3932SOL     OW12337   1.902   0.544   4.838
 3932SOL    HW112338   1.987   0.511   4.797
 3932SOL    HW212339   1.915   0.559   4.936
 3933SOL     OW12340   2.051   0.520   5.446
 3933SOL    HW112341   2.110   0.480   5.376
 3933SOL    HW212342   1.993   0.591   5.405
 3934SOL     OW12343   3.231   0.950   5.384
 3934SOL    HW112344   3.270   1.039   5.404
 3934SOL    HW212345   3.241   0.930   5.287
 3935SOL     OW12346   2.677   0.572   4.049
 3935SOL    HW112347   2.684   0.483   4.003
 3935SOL    HW212348   2.583   0.606   4.041
 3936SOL     OW12349   3.519   0.604   4.930
 3936SOL    HW112350   3.481   0.535   4.992
 3936SOL    HW212351   3.601   0.568   4.886
 3937SOL     OW12352   2.114   1.564   5.468
 3937SOL    HW112353   2.084   1.621   5.544
 3937SOL    HW212354   2.107   1.467   5.494
 3938SOL     OW12355   2.533   0.464   4.993
 3938SOL    HW112356   2.499   0.375   4.963
 3938SOL    HW212357   2.559   0.518   4.913
 3939SOL     OW12358   2.792   1.678   5.189
 3939SOL    HW112359   2.768   1.660   5.094
 3939SOL    HW212360   2.822   1.772   5.199
 3940SOL     OW12361   2.335   0.500   3.915
 3940SOL    HW112362   2.396   0.580   3.919
 3940SOL    HW212363   2.240   0.531   3.922
 3941SOL     OW12364   2.021   1.137   5.190
 3941SOL    HW112365   2.043   1.076   5.266
 3941SOL    HW212366   2.031   1.088   5.104
 3942SOL     OW12367   3.209   1.059   4.958
 3942SOL    HW112368   3.233   0.996   4.884
 3942SOL    HW212369   3.119   1.099   4.940
 3943SOL     OW12370   3.164   0.855   4.033
 3943SOL    HW112371   3.078   0.824   4.075
 3943SOL    HW212372   3.160   0.841   3.934
 3944SOL     OW12373   3.621   1.747   4.878
 3944SOL    HW112374   3.682   1.777   4.805
 3944SOL    HW212375   3.583   1.658   4.856
 3945SOL     OW12376   3.114   1.731   4.852
 3945SOL    HW112377   3.198   1.736   4.798
 3945SOL    HW212378   3.091   1.635   4.870
 3946SOL     OW12379   1.945   1.258   4.746
 3946SOL    HW112380   1.940   1.257   4.846
 3946SOL    HW212381   1.862   1.217   4.708
 3947SOL     OW12382   2.550   1.662   5.440
 3947SOL    HW112383   2.494   1.743   5.449
 3947SOL    HW212384   2.602   1.666   5.354
 3948SOL     OW12385   3.588   0.135   4.247
 3948SOL    HW112386   3.661   0.118   4.180
 3948SOL    HW212387   3.557   0.048   4.285
 3949SOL     OW12388   3.250   1.573   4.201
 3949SOL    HW112389   3.317   1.585   4.127
 3949SOL    HW212390   3.210   1.662   4.224
 3950SOL     OW12391   1.992   1.794   5.575
 3950SOL    HW112392   1.951   1.720   5.628
 3950SOL    HW212393   2.056   1.845   5.633
 3951SOL     OW12394   3.142   0.927   4.396
 3951SOL    HW112395   3.202   0.846   4.398
 3951SOL    HW212396   3.182   0.996   4.336
 3952SOL     OW12397   2.692   1.273   5.146
 3952SOL    HW112398   2.687   1.306   5.241
 3952SOL    HW212399   2.606   1.292   5.100
 3953SOL     OW12400   2.534   1.616   3.878
 3953SOL    HW112401   2.543   1.626   3.779
 3953SOL    HW212402   2.494   1.527   3.899
 3954SOL     OW12403   3.512   1.720   5.118
 3954SOL    HW112404   3.565   1.730   5.034
 3954SOL    HW212405   3.485   1.810   5.152
 3955SOL     OW12406   3.703   0.175   4.687
 3955SOL    HW112407   3.742   0.090   4.651
 3955SOL    HW212408   3.605   0.177   4.668
 3956SOL     OW12409   2.125   0.326   4.444
 3956SOL    HW112410   2.046   0.377   4.410
 3956SOL    HW212411   2.116   0.311   4.542
 3957SOL     OW12412   3.056   1.612   3.755
 3957SOL    HW112413   3.062   1.519   3.792
 3957SOL    HW212414   2.997   1.612   3.675
 3958SOL     OW12415   2.684   1.002   5.096
 3958SOL    HW112416   2.724   1.001   5.004
 3958SOL    HW212417   2.694   1.094   5.136
 3959SOL     OW12418   2.778   0.910   4.015
 3959SOL    HW112419   2.841   0.948   3.947
 3959SOL    HW212420   2.818   0.827   4.054
 3960SOL     OW12421   3.366   1.607   3.768
 3960SOL    HW112422   3.274   1.644   3.775
 3960SOL    HW212423   3.404   1.627   3.678
 3961SOL     OW12424   2.234   1.288   5.214
 3961SOL    HW112425   2.221   1.381   5.180
 3961SOL    HW212426   2.150   1.236   5.201
 3962SOL     OW12427   3.476   1.292   5.013
 3962SOL    HW112428   3.536   1.295   5.093
 3962SOL    HW212429   3.401   1.356   5.026
 3963SOL     OW12430   2.901   1.098   4.420
 3963SOL    HW112431   2.831   1.051   4.474
 3963SOL    HW212432   2.960   1.030   4.377
 3964SOL     OW12433   2.876   0.236   4.695
 3964SOL    HW112434   2.868   0.200   4.602
 3964SOL    HW212435   2.874   0.160   4.760
 3965SOL     OW12436   2.452   1.487   4.215
 3965SOL    HW112437   2.494   1.429   4.145
 3965SOL    HW212438   2.408   1.566   4.171
 3966SOL     OW12439   3.571   0.385   5.105
 3966SOL    HW112440   3.644   0.454   5.109
 3966SOL    HW212441   3.599   0.310   5.046
 3967SOL     OW12442   2.117   1.348   4.014
 3967SOL    HW112443   2.021   1.349   3.987
 3967SOL    HW212444   2.129   1.401   4.098
 3968SOL     OW12445   1.967   1.013   5.450
 3968SOL    HW112446   1.890   0.980   5.504
 3968SOL    HW212447   2.052   0.983   5.492
 3969SOL     OW12448   2.534   0.203   5.213
 3969SOL    HW112449   2.624   0.187   5.173
 3969SOL    HW212450   2.542   0.208   5.312
 3970SOL     OW12451   1.937   0.345   3.757
 3970SOL    HW112452   1.845   0.317   3.728
 3970SOL    HW212453   1.968   0.422   3.701
 3971SOL     OW12454   3.302   0.856   5.122
 3971SOL    HW112455   3.245   0.908   5.059
 3971SOL    HW212456   3.398   0.868   5.098
 3972SOL     OW12457   1.934   0.166   4.042
 3972SOL    HW112458   1.917   0.249   3.988
 3972SOL    HW212459   2.024   0.129   4.020
 3973SOL     OW12460   3.045   1.335   3.843
 3973SOL    HW112461   2.946   1.324   3.845
 3973SOL    HW212462   3.079   1.350   3.936
 3974SOL     OW12463   2.475   0.842   5.155
 3974SOL    HW112464   2.531   0.923   5.138
 3974SOL    HW212465   2.534   0.762   5.158
 3975SOL     OW12466   3.355   1.767   4.683
 3975SOL    HW112467   3.388   1.831   4.614
 3975SOL    HW212468   3.421   1.761   4.758
 3976SOL     OW12469   2.578   0.565   5.432
 3976SOL    HW112470   2.597   0.630   5.506
 3976SOL    HW212471   2.638   0.485   5.441
 3977SOL     OW12472   3.312   1.220   5.357
 3977SOL    HW112473   3.303   1.210   5.456
 3977SOL    HW212474   3.408   1.213   5.331
 3978SOL     OW12475   2.252   1.741   5.284
 3978SOL    HW112476   2.161   1.782   5.282
 3978SOL    HW212477   2.245   1.647   5.316
 3979SOL     OW12478   3.536   0.883   4.978
 3979SOL    HW112479   3.509   0.794   4.941
 3979SOL    HW212480   3.537   0.951   4.905
 3980SOL     OW12481   3.087   0.325   4.173
 3980SOL    HW112482   3.152   0.251   4.162
 3980SOL    HW212483   3.107   0.375   4.257
 3981SOL     OW12484   2.456   0.745   4.376
 3981SOL    HW112485   2.506   0.830   4.357
 3981SOL    HW212486   2.368   0.747   4.328
 3982SOL     OW12487   3.639   0.342   5.366
 3982SOL    HW112488   3.622   0.373   5.272
 3982SOL    HW212489   3.555   0.305   5.404
 3983SOL     OW12490   3.592   0.934   5.241
 3983SOL    HW112491   3.630   1.025   5.256
 3983SOL    HW212492   3.584   0.917   5.142
 3984SOL     OW12493   2.721   1.374   3.740
 3984SOL    HW112494   2.675   1.389   3.828
 3984SOL    HW212495   2.765   1.459   3.710
 3985SOL     OW12496   2.523   1.790   4.677
 3985SOL    HW112497   2.477   1.878   4.664
 3985SOL    HW212498   2.622   1.802   4.670
 3986SOL     OW12499   2.721   0.956   4.585
 3986SOL    HW112500   2.775   0.887   4.633
 3986SOL    HW212501   2.689   1.025   4.651
 3987SOL     OW12502   2.945   0.984   3.811
 3987SOL    HW112503   2.922   1.037   3.729
 3987SOL    HW212504   3.026   0.928   3.792
 3988SOL     OW12505   3.723   1.569   4.575
 3988SOL    HW112506   3.652   1.557   4.505
 3988SOL    HW212507   3.724   1.490   4.635
 3989SOL     OW12508   2.083   1.314   5.568
 3989SOL    HW112509   2.018   1.241   5.547
 3989SOL    HW212510   2.087   1.328   5.666
 3990SOL     OW12511   1.941   1.240   4.377
 3990SOL    HW112512   1.940   1.193   4.465
 3990SOL    HW212513   2.023   1.212   4.326
 3991SOL     OW12514   2.534   1.391   5.348
 3991SOL    HW112515   2.456   1.341   5.386
 3991SOL    HW212516   2.531   1.486   5.379
 3992SOL     OW12517   3.686   0.192   4.951
 3992SOL    HW112518   3.682   0.102   4.995
 3992SOL    HW212519   3.689   0.181   4.852
 3993SOL     OW12520   2.290   0.424   4.244
 3993SOL    HW112521   2.320   0.352   4.182
 3993SOL    HW212522   2.251   0.384   4.327
 3994SOL     OW12523   3.567   1.487   4.828
 3994SOL    HW112524   3.474   1.462   4.801
 3994SOL    HW212525   3.593   1.437   4.910
 3995SOL     OW12526   2.179   0.547   5.004
 3995SOL    HW112527   2.217   0.488   5.076
 3995SOL    HW212528   2.219   0.521   4.916
 3996SOL     OW12529   2.674   1.586   4.411
 3996SOL    HW112530   2.706   1.596   4.317
 3996SOL    HW212531   2.595   1.524   4.413
 3997SOL     OW12532   3.286   0.214   4.836
 3997SOL    HW112533   3.338   0.149   4.891
 3997SOL    HW212534   3.237   0.277   4.897
 3998SOL     OW12535   2.863   0.034   4.878
 3998SOL    HW112536   2.800  -0.038   4.847
 3998SOL    HW212537   2.956  -0.002   4.878
 3999SOL     OW12538   2.632   1.330   4.025
 3999SOL    HW112539   2.586   1.243   4.042
 3999SOL    HW212540   2.723   1.327   4.066
 4000SOL     OW12541   2.480   1.567   5.008
 4000SOL    HW112542   2.475   1.649   5.065
 4000SOL    HW212543   2.569   1.564   4.963
 4001SOL     OW12544   3.214   0.052   3.892
 4001SOL    HW112545   3.249   0.011   3.808
 4001SOL    HW212546   3.124   0.014   3.912
 4002SOL     OW12547   3.162   0.453   4.415
 4002SOL    HW112548   3.103   0.533   4.419
 4002SOL    HW212549   3.177   0.418   4.508
 4003SOL     OW12550   3.455   0.221   4.606
 4003SOL    HW112551   3.371   0.220   4.660
 4003SOL    HW212552   3.457   0.304   4.550
 4004SOL     OW12553   1.901   1.077   4.024
 4004SOL    HW112554   2.000   1.066   4.015
 4004SOL    HW212555   1.861   0.991   4.056
 4005SOL     OW12556   2.737   1.646   4.061
 4005SOL    HW112557   2.660   1.611   4.007
 4005SOL    HW212558   2.705   1.717   4.123
 4006SOL     OW12559   2.092   0.628   5.699
 4006SOL    HW112560   1.999   0.626   5.736
 4006SOL    HW212561   2.093   0.589   5.607
 4007SOL     OW12562   2.087   0.275   6.582
 4007SOL    HW112563   2.122   0.258   6.674
 4007SOL    HW212564   1.999   0.230   6.570
 4008SOL     OW12565   1.881   0.368   6.233
 4008SOL    HW112566   1.799   0.411   6.272
 4008SOL    HW212567   1.853   0.295   6.170
 4009SOL     OW12568   3.417   1.511   6.289
 4009SOL    HW112569   3.360   1.495   6.370
 4009SOL    HW212570   3.358   1.521   6.209
 4010SOL     OW12571   2.997   0.703   6.303
 4010SOL    HW112572   3.054   0.781   6.278
 4010SOL    HW212573   2.937   0.729   6.379
 4011SOL     OW12574   3.617   0.607   5.817
 4011SOL    HW112575   3.605   0.594   5.718
 4011SOL    HW212576   3.587   0.526   5.866
 4012SOL     OW12577   2.630   1.144   6.609
 4012SOL    HW112578   2.552   1.161   6.669
 4012SOL    HW212579   2.664   1.231   6.573
 4013SOL     OW12580   2.712   0.798   7.409
 4013SOL    HW112581   2.708   0.874   7.474
 4013SOL    HW212582   2.734   0.834   7.318
 4014SOL     OW12583   2.547   1.012   6.251
 4014SOL    HW112584   2.616   0.996   6.321
 4014SOL    HW212585   2.474   1.069   6.289
 4015SOL     OW12586   2.548   1.161   7.389
 4015SOL    HW112587   2.608   1.240   7.403
 4015SOL    HW212588   2.462   1.192   7.348
 4016SOL     OW12589   3.322   1.505   6.925
 4016SOL    HW112590   3.346   1.599   6.951
 4016SOL    HW212591   3.306   1.451   7.007
 4017SOL     OW12592   2.300   0.392   7.085
 4017SOL    HW112593   2.382   0.336   7.094
 4017SOL    HW212594   2.219   0.334   7.089
 4018SOL     OW12595   3.465   0.447   6.323
 4018SOL    HW112596   3.391   0.493   6.273
 4018SOL    HW212597   3.516   0.515   6.376
 4019SOL     OW12598   2.093   1.713   6.069
 4019SOL    HW112599   2.127   1.790   6.123
 4019SOL    HW212600   2.137   1.713   5.979
 4020SOL     OW12601   2.989   1.341   7.276
 4020SOL    HW112602   3.036   1.341   7.364
 4020SOL    HW212603   2.941   1.254   7.265
 4021SOL     OW12604   2.102   1.091   6.472
 4021SOL    HW112605   2.116   1.007   6.524
 4021SOL    HW212606   2.047   1.155   6.527
 4022SOL     OW12607   2.482   1.786   7.025
 4022SOL    HW112608   2.390   1.769   7.060
 4022SOL    HW212609   2.510   1.878   7.051
 4023SOL     OW12610   2.468   0.964   5.709
 4023SOL    HW112611   2.475   1.048   5.655
 4023SOL    HW212612   2.514   0.977   5.797
 4024SOL     OW12613   3.456   0.114   7.066
 4024SOL    HW112614   3.438   0.181   6.994
 4024SOL    HW212615   3.453   0.160   7.155
 4025SOL     OW12616   1.984   0.643   6.149
 4025SOL    HW112617   1.939   0.555   6.166
 4025SOL    HW212618   1.983   0.697   6.233
 4026SOL     OW12619   3.704   1.767   5.945
 4026SOL    HW112620   3.758   1.738   6.025
 4026SOL    HW212621   3.734   1.857   5.916
 4027SOL     OW12622   1.889   1.596   5.703
 4027SOL    HW112623   1.870   1.500   5.724
 4027SOL    HW212624   1.856   1.654   5.778
 4028SOL     OW12625   3.551   0.922   6.198
 4028SOL    HW112626   3.646   0.893   6.206
 4028SOL    HW212627   3.543   0.987   6.123
 4029SOL     OW12628   3.503   1.108   6.018
 4029SOL    HW112629   3.589   1.110   5.966
 4029SOL    HW212630   3.517   1.155   6.106
 4030SOL     OW12631   1.975   0.737   7.183
 4030SOL    HW112632   2.063   0.724   7.228
 4030SOL    HW212633   1.962   0.834   7.161
 4031SOL     OW12634   3.155   1.228   7.009
 4031SOL    HW112635   3.192   1.155   6.951
 4031SOL    HW212636   3.207   1.233   7.094
 4032SOL     OW12637   2.671   0.004   6.088
 4032SOL    HW112638   2.711   0.095   6.079
 4032SOL    HW212639   2.571   0.012   6.094
 4033SOL     OW12640   2.059   0.976   6.850
 4033SOL    HW112641   2.148   0.931   6.836
 4033SOL    HW212642   1.986   0.911   6.831
 4034SOL     OW12643   3.387   0.999   5.776
 4034SOL    HW112644   3.324   0.923   5.789
 4034SOL    HW212645   3.435   1.017   5.862
 4035SOL     OW12646   3.049   1.792   7.202
 4035SOL    HW112647   3.073   1.852   7.126
 4035SOL    HW212648   3.056   1.697   7.172
 4036SOL     OW12649   2.179   0.251   7.387
 4036SOL    HW112650   2.250   0.322   7.393
 4036SOL    HW212651   2.091   0.290   7.415
 4037SOL     OW12652   3.328   1.417   6.539
 4037SOL    HW112653   3.269   1.423   6.619
 4037SOL    HW212654   3.313   1.329   6.493
 4038SOL     OW12655   3.529   1.714   6.158
 4038SOL    HW112656   3.488   1.691   6.070
 4038SOL    HW212657   3.511   1.640   6.223
 4039SOL     OW12658   2.460   0.729   5.856
 4039SOL    HW112659   2.484   0.798   5.788
 4039SOL    HW212660   2.382   0.762   5.910
 4040SOL     OW12661   3.143   0.345   6.530
 4040SOL    HW112662   3.057   0.295   6.517
 4040SOL    HW212663   3.205   0.291   6.586
 4041SOL     OW12664   3.438   1.662   5.893
 4041SOL    HW112665   3.527   1.708   5.896
 4041SOL    HW212666   3.417   1.638   5.798
 4042SOL     OW12667   2.669   0.605   7.051
 4042SOL    HW112668   2.622   0.602   7.140
 4042SOL    HW212669   2.618   0.550   6.985
 4043SOL     OW12670   3.256   0.469   7.260
 4043SOL    HW112671   3.236   0.512   7.348
 4043SOL    HW212672   3.334   0.407   7.269
 4044SOL     OW12673   2.835   0.890   7.158
 4044SOL    HW112674   2.881   0.806   7.129
 4044SOL    HW212675   2.779   0.924   7.083
 4045SOL     OW12676   2.853   0.410   6.828
 4045SOL    HW112677   2.776   0.444   6.882
 4045SOL    HW212678   2.819   0.359   6.749
 4046SOL     OW12679   2.903   0.701   6.015
 4046SOL    HW112680   2.929   0.697   6.111
 4046SOL    HW212681   2.818   0.650   6.001
 4047SOL     OW12682   1.938   0.811   6.375
 4047SOL    HW112683   2.037   0.799   6.384
 4047SOL    HW212684   1.914   0.906   6.396
 4048SOL     OW12685   2.727   0.348   5.781
 4048SOL    HW112686   2.786   0.411   5.732
 4048SOL    HW212687   2.746   0.254   5.752
 4049SOL     OW12688   3.581   0.585   7.417
 4049SOL    HW112689   3.555   0.674   7.381
 4049SOL    HW212690   3.579   0.517   7.344
 4050SOL     OW12691   3.224   1.144   6.131
 4050SOL    HW112692   3.307   1.115   6.083
 4050SOL    HW212693   3.175   1.211   6.075
 4051SOL     OW12694   2.412   0.196   6.471
 4051SOL    HW112695   2.407   0.191   6.571
 4051SOL    HW212696   2.414   0.292   6.442
 4052SOL     OW12697   2.870   1.456   6.063
 4052SOL    HW112698   2.824   1.528   6.011
 4052SOL    HW212699   2.866   1.476   6.161
 4053SOL     OW12700   2.213   1.801   6.439
 4053SOL    HW112701   2.263   1.715   6.445
 4053SOL    HW212702   2.278   1.878   6.436
 4054SOL     OW12703   3.657   1.066   6.459
 4054SOL    HW112704   3.595   1.051   6.383
 4054SOL    HW212705   3.605   1.077   6.544
 4055SOL     OW12706   3.089   1.550   7.092
 4055SOL    HW112707   3.095   1.473   7.156
 4055SOL    HW212708   3.037   1.524   7.012
 4056SOL     OW12709   2.183   0.943   5.828
 4056SOL    HW112710   2.265   0.982   5.786
 4056SOL    HW212711   2.156   0.861   5.779
 4057SOL     OW12712   3.320   0.735   6.314
 4057SOL    HW112713   3.315   0.670   6.389
 4057SOL    HW212714   3.400   0.794   6.327
 4058SOL     OW12715   2.973   1.776   5.823
 4058SOL    HW112716   2.913   1.714   5.873
 4058SOL    HW212717   3.004   1.732   5.738
 4059SOL     OW12718   2.064   0.285   7.084
 4059SOL    HW112719   1.984   0.345   7.071
 4059SOL    HW212720   2.054   0.236   7.170
 4060SOL     OW12721   3.494   1.377   5.667
 4060SOL    HW112722   3.462   1.471   5.657
 4060SOL    HW212723   3.418   1.314   5.655
 4061SOL     OW12724   2.326   1.743   5.909
 4061SOL    HW112725   2.359   1.782   5.995
 4061SOL    HW212726   2.402   1.736   5.844
 4062SOL     OW12727   3.262   0.107   6.012
 4062SOL    HW112728   3.238   0.070   5.922
 4062SOL    HW212729   3.361   0.123   6.016
 4063SOL     OW12730   2.111   1.785   6.827
 4063SOL    HW112731   2.168   1.720   6.877
 4063SOL    HW212732   2.095   1.752   6.734
 4064SOL     OW12733   2.244   0.700   6.066
 4064SOL    HW112734   2.289   0.610   6.063
 4064SOL    HW212735   2.150   0.689   6.099
 4065SOL     OW12736   3.409   0.222   7.315
 4065SOL    HW112737   3.404   0.259   7.407
 4065SOL    HW212738   3.337   0.153   7.303
 4066SOL     OW12739   2.476   0.122   5.703
 4066SOL    HW112740   2.574   0.100   5.710
 4066SOL    HW212741   2.445   0.105   5.610
 4067SOL     OW12742   2.643   0.264   7.335
 4067SOL    HW112743   2.710   0.203   7.378
 4067SOL    HW212744   2.570   0.283   7.400
 4068SOL     OW12745   2.750   1.514   6.781
 4068SOL    HW112746   2.727   1.489   6.687
 4068SOL    HW212747   2.811   1.445   6.820
 4069SOL     OW12748   3.213   0.590   7.019
 4069SOL    HW112749   3.241   0.547   7.104
 4069SOL    HW212750   3.238   0.686   7.020
 4070SOL     OW12751   2.784   0.503   6.485
 4070SOL    HW112752   2.759   0.494   6.389
 4070SOL    HW212753   2.832   0.421   6.516
 4071SOL     OW12754   2.401   0.064   6.098
 4071SOL    HW112755   2.320   0.065   6.156
 4071SOL    HW212756   2.404   0.147   6.043
 4072SOL     OW12757   3.296   1.188   5.627
 4072SOL    HW112758   3.328   1.112   5.684
 4072SOL    HW212759   3.204   1.215   5.657
 4073SOL     OW12760   2.159   0.035   5.757
 4073SOL    HW112761   2.208   0.119   5.736
 4073SOL    HW212762   2.221  -0.030   5.802
 4074SOL     OW12763   2.797   0.236   6.066
 4074SOL    HW112764   2.749   0.277   5.988
 4074SOL    HW212765   2.896   0.234   6.047
 4075SOL     OW12766   2.938   0.683   7.050
 4075SOL    HW112767   2.858   0.622   7.053
 4075SOL    HW212768   3.019   0.630   7.026
 4076SOL     OW12769   3.089   1.570   6.379
 4076SOL    HW112770   3.110   1.644   6.314
 4076SOL    HW212771   3.157   1.570   6.452
 4077SOL     OW12772   2.321   1.152   6.327
 4077SOL    HW112773   2.250   1.125   6.392
 4077SOL    HW212774   2.295   1.124   6.234
 4078SOL     OW12775   3.133   1.797   6.177
 4078SOL    HW112776   3.177   1.861   6.113
 4078SOL    HW212777   3.083   1.849   6.247
 4079SOL     OW12778   2.894   0.549   5.602
 4079SOL    HW112779   2.853   0.631   5.563
 4079SOL    HW212780   2.958   0.575   5.675
 4080SOL     OW12781   1.940   0.556   6.972
 4080SOL    HW112782   2.032   0.555   6.931
 4080SOL    HW212783   1.934   0.630   7.039
 4081SOL     OW12784   2.423   0.222   6.733
 4081SOL    HW112785   2.461   0.138   6.770
 4081SOL    HW212786   2.335   0.241   6.777
 4082SOL     OW12787   2.728   0.454   6.228
 4082SOL    HW112788   2.696   0.526   6.166
 4082SOL    HW212789   2.752   0.373   6.175
 4083SOL     OW12790   2.879   0.039   6.339
 4083SOL    HW112791   2.807   0.044   6.270
 4083SOL    HW212792   2.855  -0.030   6.408
 4084SOL     OW12793   3.291   1.173   6.453
 4084SOL    HW112794   3.236   1.089   6.446
 4084SOL    HW212795   3.317   1.202   6.361
 4085SOL     OW12796   3.328   0.590   6.578
 4085SOL    HW112797   3.298   0.495   6.585
 4085SOL    HW212798   3.401   0.606   6.644
 4086SOL     OW12799   3.719   0.833   5.963
 4086SOL    HW112800   3.761   0.769   6.027
 4086SOL    HW212801   3.681   0.782   5.885
 4087SOL     OW12802   2.350   1.385   5.760
 4087SOL    HW112803   2.263   1.370   5.807
 4087SOL    HW212804   2.333   1.411   5.665
 4088SOL     OW12805   3.526   1.280   6.243
 4088SOL    HW112806   3.625   1.288   6.257
 4088SOL    HW212807   3.481   1.364   6.274
 4089SOL     OW12808   3.252   0.575   5.664
 4089SOL    HW112809   3.198   0.554   5.745
 4089SOL    HW212810   3.343   0.534   5.673
 4090SOL     OW12811   2.389   0.256   5.914
 4090SOL    HW112812   2.416   0.197   5.839
 4090SOL    HW212813   2.389   0.351   5.883
 4091SOL     OW12814   3.616   1.223   7.174
 4091SOL    HW112815   3.707   1.184   7.161
 4091SOL    HW212816   3.624   1.319   7.198
 4092SOL     OW12817   2.926   1.347   6.926
 4092SOL    HW112818   2.846   1.324   6.981
 4092SOL    HW212819   3.009   1.321   6.975
 4093SOL     OW12820   3.454   1.629   7.211
 4093SOL    HW112821   3.481   1.663   7.121
 4093SOL    HW212822   3.533   1.591   7.257
 4094SOL     OW12823   2.973   1.195   6.686
 4094SOL    HW112824   2.933   1.239   6.767
 4094SOL    HW212825   2.932   1.232   6.603
 4095SOL     OW12826   3.500   1.099   6.665
 4095SOL    HW112827   3.505   1.180   6.724
 4095SOL    HW212828   3.414   1.101   6.614
 4096SOL     OW12829   2.777   0.089   6.988
 4096SOL    HW112830   2.802   0.069   6.893
 4096SOL    HW212831   2.849   0.145   7.030
 4097SOL     OW12832   2.842   1.116   7.305
 4097SOL    HW112833   2.743   1.122   7.315
 4097SOL    HW212834   2.865   1.036   7.249
 4098SOL     OW12835   2.567   1.050   5.954
 4098SOL    HW112836   2.553   1.057   6.053
 4098SOL    HW212837   2.651   0.999   5.936
 4099SOL     OW12838   2.272   0.813   6.837
 4099SOL    HW112839   2.358   0.825   6.887
 4099SOL    HW212840   2.230   0.726   6.864
 4100SOL     OW12841   3.136   0.386   6.848
 4100SOL    HW112842   3.157   0.460   6.912
 4100SOL    HW212843   3.047   0.403   6.805
 4101SOL     OW12844   1.926   1.564   6.917
 4101SOL    HW112845   1.880   1.646   6.883
 4101SOL    HW212846   2.024   1.583   6.926
 4102SOL     OW12847   2.229   1.100   6.087
 4102SOL    HW112848   2.222   1.183   6.031
 4102SOL    HW212849   2.233   1.020   6.027
 4103SOL     OW12850   2.428   0.537   6.451
 4103SOL    HW112851   2.440   0.603   6.377
 4103SOL    HW212852   2.474   0.571   6.534
 4104SOL     OW12853   3.114   1.348   5.974
 4104SOL    HW112854   3.164   1.425   6.014
 4104SOL    HW212855   3.019   1.350   6.006
 4105SOL     OW12856   3.134   1.445   6.728
 4105SOL    HW112857   3.181   1.458   6.815
 4105SOL    HW212858   3.068   1.371   6.737
 4106SOL     OW12859   3.444   0.639   6.058
 4106SOL    HW112860   3.413   0.700   6.131
 4106SOL    HW212861   3.494   0.691   5.989
 4107SOL     OW12862   2.216   1.510   6.915
 4107SOL    HW112863   2.195   1.466   6.828
 4107SOL    HW212864   2.313   1.536   6.918
 4108SOL     OW12865   2.264   0.751   7.184
 4108SOL    HW112866   2.332   0.806   7.137
 4108SOL    HW212867   2.304   0.663   7.211
 4109SOL     OW12868   3.449   0.779   7.256
 4109SOL    HW112869   3.357   0.817   7.251
 4109SOL    HW212870   3.509   0.826   7.191
 4110SOL     OW12871   2.875   0.105   7.356
 4110SOL    HW112872   2.881   0.190   7.304
 4110SOL    HW212873   2.907   0.029   7.299
 4111SOL     OW12874   2.366   0.050   7.326
 4111SOL    HW112875   2.324  -0.007   7.256
 4111SOL    HW212876   2.300   0.119   7.358
 4112SOL     OW12877   2.435   0.870   6.615
 4112SOL    HW112878   2.479   0.959   6.606
 4112SOL    HW212879   2.372   0.870   6.692
 4113SOL     OW12880   3.222   0.862   6.631
 4113SOL    HW112881   3.147   0.862   6.565
 4113SOL    HW212882   3.259   0.770   6.640
 4114SOL     OW12883   3.071   0.525   5.861
 4114SOL    HW112884   3.084   0.441   5.915
 4114SOL    HW212885   3.042   0.599   5.921
 4115SOL     OW12886   2.169   0.213   6.817
 4115SOL    HW112887   2.146   0.250   6.907
 4115SOL    HW212888   2.139   0.118   6.811
 4116SOL     OW12889   1.899   1.310   6.868
 4116SOL    HW112890   1.952   1.261   6.936
 4116SOL    HW212891   1.921   1.408   6.873
 4117SOL     OW12892   2.594   0.634   6.650
 4117SOL    HW112893   2.653   0.608   6.574
 4117SOL    HW212894   2.566   0.730   6.639
 4118SOL     OW12895   3.590   0.935   7.440
 4118SOL    HW112896   3.544   0.928   7.351
 4118SOL    HW212897   3.528   0.979   7.506
 4119SOL     OW12898   2.169   0.063   6.204
 4119SOL    HW112899   2.158   0.157   6.237
 4119SOL    HW212900   2.164   0.000   6.281
 4120SOL     OW12901   3.484   0.367   5.960
 4120SOL    HW112902   3.486   0.291   6.024
 4120SOL    HW212903   3.436   0.444   6.000
 4121SOL     OW12904   2.885   0.766   6.552
 4121SOL    HW112905   2.900   0.787   6.648
 4121SOL    HW212906   2.855   0.671   6.543
 4122SOL     OW12907   3.721   1.518   7.191
 4122SOL    HW112908   3.735   1.545   7.096
 4122SOL    HW212909   3.804   1.540   7.244
 4123SOL     OW12910   2.212   0.898   7.390
 4123SOL    HW112911   2.288   0.942   7.438
 4123SOL    HW212912   2.247   0.851   7.308
 4124SOL     OW12913   3.402   0.274   5.711
 4124SOL    HW112914   3.341   0.199   5.734
 4124SOL    HW212915   3.424   0.326   5.794
 4125SOL     OW12916   3.165   0.838   5.628
 4125SOL    HW112917   3.199   0.745   5.643
 4125SOL    HW212918   3.183   0.865   5.533
 4126SOL     OW12919   2.930   1.333   6.435
 4126SOL    HW112920   2.937   1.249   6.380
 4126SOL    HW212921   2.992   1.402   6.399
 4127SOL     OW12922   2.181   0.810   6.535
 4127SOL    HW112923   2.274   0.846   6.540
 4127SOL    HW212924   2.175   0.725   6.587
 4128SOL     OW12925   2.201   0.509   6.592
 4128SOL    HW112926   2.149   0.426   6.575
 4128SOL    HW212927   2.278   0.514   6.528
 4129SOL     OW12928   3.000   0.380   7.264
 4129SOL    HW112929   2.955   0.443   7.328
 4129SOL    HW212930   3.093   0.411   7.247
 4130SOL     OW12931   3.022   0.207   7.063
 4130SOL    HW112932   3.022   0.271   7.140
 4130SOL    HW212933   3.050   0.255   6.980
 4131SOL     OW12934   1.870   1.326   5.786
 4131SOL    HW112935   1.777   1.347   5.755
 4131SOL    HW212936   1.880   1.227   5.799
 4132SOL     OW12937   1.950   1.801   6.513
 4132SOL    HW112938   1.908   1.715   6.486
 4132SOL    HW212939   2.044   1.804   6.479
 4133SOL     OW12940   2.864   0.796   6.824
 4133SOL    HW112941   2.905   0.764   6.910
 4133SOL    HW212942   2.768   0.769   6.821
 4134SOL     OW12943   1.902   0.544   6.700
 4134SOL    HW112944   1.987   0.511   6.659
 4134SOL    HW212945   1.915   0.559   6.798
 4135SOL     OW12946   2.051   0.520   7.308
 4135SOL    HW112947   2.110   0.480   7.238
 4135SOL    HW212948   1.993   0.591   7.267
 4136SOL     OW12949   3.231   0.950   7.246
 4136SOL    HW112950   3.270   1.039   7.266
 4136SOL    HW212951   3.241   0.930   7.149
 4137SOL     OW12952   2.677   0.572   5.911
 4137SOL    HW112953   2.684   0.483   5.865
 4137SOL    HW212954   2.583   0.606   5.903
 4138SOL     OW12955   3.519   0.604   6.792
 4138SOL    HW112956   3.481   0.535   6.854
 4138SOL    HW212957   3.601   0.568   6.748
 4139SOL     OW12958   2.533   0.464   6.855
 4139SOL    HW112959   2.499   0.375   6.825
 4139SOL    HW212960   2.559   0.518   6.775
 4140SOL     OW12961   2.792   1.678   7.051
 4140SOL    HW112962   2.768   1.660   6.956
 4140SOL    HW212963   2.822   1.772   7.061
 4141SOL     OW12964   2.335   0.500   5.777
 4141SOL    HW112965   2.396   0.580   5.781
 4141SOL    HW212966   2.240   0.531   5.784
 4142SOL     OW12967   2.021   1.137   7.052
 4142SOL    HW112968   2.043   1.076   7.128
 4142SOL    HW212969   2.031   1.088   6.966
 4143SOL     OW12970   3.209   1.059   6.820
 4143SOL    HW112971   3.233   0.996   6.746
 4143SOL    HW212972   3.119   1.099   6.802
 4144SOL     OW12973   3.164   0.855   5.895
 4144SOL    HW112974   3.078   0.824   5.937
 4144SOL    HW212975   3.160   0.841   5.796
 4145SOL     OW12976   3.621   1.747   6.740
 4145SOL    HW112977   3.682   1.777   6.667
 4145SOL    HW212978   3.583   1.658   6.718
 4146SOL     OW12979   3.114   1.731   6.714
 4146SOL    HW112980   3.198   1.736   6.660
 4146SOL    HW212981   3.091   1.635   6.732
 4147SOL     OW12982   3.588   0.135   6.109
 4147SOL    HW112983   3.661   0.118   6.042
 4147SOL    HW212984   3.557   0.048   6.147
 4148SOL     OW12985   3.250   1.573   6.063
 4148SOL    HW112986   3.317   1.585   5.989
 4148SOL    HW212987   3.210   1.662   6.086
 4149SOL     OW12988   1.992   1.794   7.437
 4149SOL    HW112989   1.951   1.720   7.490
 4149SOL    HW212990   2.056   1.845   7.495
 4150SOL     OW12991   3.142   0.927   6.258
 4150SOL    HW112992   3.202   0.846   6.260
 4150SOL    HW212993   3.182   0.996   6.198
 4151SOL     OW12994   2.692   1.273   7.008
 4151SOL    HW112995   2.687   1.306   7.103
 4151SOL    HW212996   2.606   1.292   6.962
 4152SOL     OW12997   2.534   1.616   5.740
 4152SOL    HW112998   2.543   1.626   5.641
 4152SOL    HW212999   2.494   1.527   5.761
 4153SOL     OW13000   3.512   1.720   6.980
 4153SOL    HW113001   3.565   1.730   6.896
 4153SOL    HW213002   3.485   1.810   7.014
 4154SOL     OW13003   3.703   0.175   6.549
 4154SOL    HW113004   3.742   0.090   6.513
 4154SOL    HW213005   3.605   0.177   6.530
 4155SOL     OW13006   2.125   0.326   6.306
 4155SOL    HW113007   2.046   0.377   6.272
 4155SOL    HW213008   2.116   0.311   6.404
 4156SOL     OW13009   3.056   1.612   5.617
 4156SOL    HW113010   3.062   1.519   5.654
 4156SOL    HW213011   2.997   1.612   5.537
 4157SOL     OW13012   2.684   1.002   6.958
 4157SOL    HW113013   2.724   1.001   6.866
 4157SOL    HW213014   2.694   1.094   6.998
 4158SOL     OW13015   2.778   0.910   5.877
 4158SOL    HW113016   2.841   0.948   5.809
 4158SOL    HW213017   2.818   0.827   5.916
 4159SOL     OW13018   3.366   1.607   5.630
 4159SOL    HW113019   3.274   1.644   5.637
 4159SOL    HW213020   3.404   1.627   5.540
 4160SOL     OW13021   2.234   1.288   7.076
 4160SOL    HW113022   2.221   1.381   7.042
 4160SOL    HW213023   2.150   1.236   7.063
 4161SOL     OW13024   3.476   1.292   6.875
 4161SOL    HW113025   3.536   1.295   6.955
 4161SOL    HW213026   3.401   1.356   6.888
 4162SOL     OW13027   2.901   1.098   6.282
 4162SOL    HW113028   2.831   1.051   6.336
 4162SOL    HW213029   2.960   1.030   6.239
 4163SOL     OW13030   2.876   0.236   6.557
 4163SOL    HW113031   2.868   0.200   6.464
 4163SOL    HW213032   2.874   0.160   6.622
 4164SOL     OW13033   3.571   0.385   6.967
 4164SOL    HW113034   3.644   0.454   6.971
 4164SOL    HW213035   3.599   0.310   6.908
 4165SOL     OW13036   2.117   1.348   5.876
 4165SOL    HW113037   2.021   1.349   5.849
 4165SOL    HW213038   2.129   1.401   5.960
 4166SOL     OW13039   1.967   1.013   7.312
 4166SOL    HW113040   1.890   0.980   7.366
 4166SOL    HW213041   2.052   0.983   7.354
 4167SOL     OW13042   2.534   0.203   7.075
 4167SOL    HW113043   2.624   0.187   7.035
 4167SOL    HW213044   2.542   0.208   7.174
 4168SOL     OW13045   1.937   0.345   5.619
 4168SOL    HW113046   1.845   0.317   5.590
 4168SOL    HW213047   1.968   0.422   5.563
 4169SOL     OW13048   3.302   0.856   6.984
 4169SOL    HW113049   3.245   0.908   6.921
 4169SOL    HW213050   3.398   0.868   6.960
 4170SOL     OW13051   1.934   0.166   5.904
 4170SOL    HW113052   1.917   0.249   5.850
 4170SOL    HW213053   2.024   0.129   5.882
 4171SOL     OW13054   3.045   1.335   5.705
 4171SOL    HW113055   2.946   1.324   5.707
 4171SOL    HW213056   3.079   1.350   5.798
 4172SOL     OW13057   2.475   0.842   7.017
 4172SOL    HW113058   2.531   0.923   7.000
 4172SOL    HW213059   2.534   0.762   7.020
 4173SOL     OW13060   3.355   1.767   6.545
 4173SOL    HW113061   3.388   1.831   6.476
 4173SOL    HW213062   3.421   1.761   6.620
 4174SOL     OW13063   2.578   0.565   7.294
 4174SOL    HW113064   2.597   0.630   7.368
 4174SOL    HW213065   2.638   0.485   7.303
 4175SOL     OW13066   3.312   1.220   7.219
 4175SOL    HW113067   3.303   1.210   7.318
 4175SOL    HW213068   3.408   1.213   7.193
 4176SOL     OW13069   2.252   1.741   7.146
 4176SOL    HW113070   2.161   1.782   7.144
 4176SOL    HW213071   2.245   1.647   7.178
 4177SOL     OW13072   3.536   0.883   6.840
 4177SOL    HW113073   3.509   0.794   6.803
 4177SOL    HW213074   3.537   0.951   6.767
 4178SOL     OW13075   3.087   0.325   6.035
 4178SOL    HW113076   3.152   0.251   6.024
 4178SOL    HW213077   3.107   0.375   6.119
 4179SOL     OW13078   2.456   0.745   6.238
 4179SOL    HW113079   2.506   0.830   6.219
 4179SOL    HW213080   2.368   0.747   6.190
 4180SOL     OW13081   3.639   0.342   7.228
 4180SOL    HW113082   3.622   0.373   7.134
 4180SOL    HW213083   3.555   0.305   7.266
 4181SOL     OW13084   3.592   0.934   7.103
 4181SOL    HW113085   3.630   1.025   7.118
 4181SOL    HW213086   3.584   0.917   7.004
 4182SOL     OW13087   2.721   1.374   5.602
 4182SOL    HW113088   2.675   1.389   5.690
 4182SOL    HW213089   2.765   1.459   5.572
 4183SOL     OW13090   2.721   0.956   6.447
 4183SOL    HW113091   2.775   0.887   6.495
 4183SOL    HW213092   2.689   1.025   6.513
 4184SOL     OW13093   2.945   0.984   5.673
 4184SOL    HW113094   2.922   1.037   5.591
 4184SOL    HW213095   3.026   0.928   5.654
 4185SOL     OW13096   3.723   1.569   6.437
 4185SOL    HW113097   3.652   1.557   6.367
 4185SOL    HW213098   3.724   1.490   6.497
 4186SOL     OW13099   3.686   0.192   6.813
 4186SOL    HW113100   3.682   0.102   6.857
 4186SOL    HW213101   3.689   0.181   6.714
 4187SOL     OW13102   2.290   0.424   6.106
 4187SOL    HW113103   2.320   0.352   6.044
 4187SOL    HW213104   2.251   0.384   6.189
 4188SOL     OW13105   3.567   1.487   6.690
 4188SOL    HW113106   3.474   1.462   6.663
 4188SOL    HW213107   3.593   1.437   6.772
 4189SOL     OW13108   2.179   0.547   6.866
 4189SOL    HW113109   2.217   0.488   6.938
 4189SOL    HW213110   2.219   0.521   6.778
 4190SOL     OW13111   2.674   1.586   6.273
 4190SOL    HW113112   2.706   1.596   6.179
 4190SOL    HW213113   2.595   1.524   6.275
 4191SOL     OW13114   3.286   0.214   6.698
 4191SOL    HW113115   3.338   0.149   6.753
 4191SOL    HW213116   3.237   0.277   6.759
 4192SOL     OW13117   2.863   0.034   6.740
 4192SOL    HW113118   2.800  -0.038   6.709
 4192SOL    HW213119   2.956  -0.002   6.740
 4193SOL     OW13120   2.632   1.330   5.887
 4193SOL    HW113121   2.586   1.243   5.904
 4193SOL    HW213122   2.723   1.327   5.928
 4194SOL     OW13123   3.214   0.052   5.754
 4194SOL    HW113124   3.249   0.011   5.670
 4194SOL    HW213125   3.124   0.014   5.774
 4195SOL     OW13126   3.162   0.453   6.277
 4195SOL    HW113127   3.103   0.533   6.281
 4195SOL    HW213128   3.177   0.418   6.370
 4196SOL     OW13129   3.455   0.221   6.468
 4196SOL    HW113130   3.371   0.220   6.522
 4196SOL    HW213131   3.457   0.304   6.412
 4197SOL     OW13132   1.901   1.077   5.886
 4197SOL    HW113133   2.000   1.066   5.877
 4197SOL    HW213134   1.861   0.991   5.918
 4198SOL     OW13135   2.737   1.646   5.923
 4198SOL    HW113136   2.660   1.611   5.869
 4198SOL    HW213137   2.705   1.717   5.985
 4199SOL     OW13138   2.092   0.628   7.561
 4199SOL    HW113139   1.999   0.626   7.598
 4199SOL    HW213140   2.093   0.589   7.469
 4200SOL     OW13141   2.087   0.275   8.444
 4200SOL    HW113142   2.122   0.258   8.536
 4200SOL    HW213143   1.999   0.230   8.432
 4201SOL     OW13144   1.881   0.368   8.095
 4201SOL    HW113145   1.799   0.411   8.134
 4201SOL    HW213146   1.853   0.295   8.032
 4202SOL     OW13147   2.431   1.275   8.613
 4202SOL    HW113148   2.338   1.268   8.576
 4202SOL    HW213149   2.442   1.364   8.657
 4203SOL     OW13150   3.417   1.511   8.151
 4203SOL    HW113151   3.360   1.495   8.232
 4203SOL    HW213152   3.358   1.521   8.071
 4204SOL     OW13153   2.997   0.703   8.165
 4204SOL    HW113154   3.054   0.781   8.140
 4204SOL    HW213155   2.937   0.729   8.241
 4205SOL     OW13156   3.617   0.607   7.679
 4205SOL    HW113157   3.605   0.594   7.580
 4205SOL    HW213158   3.587   0.526   7.728
 4206SOL     OW13159   2.630   1.144   8.471
 4206SOL    HW113160   2.552   1.161   8.531
 4206SOL    HW213161   2.664   1.231   8.435
 4207SOL     OW13162   2.712   0.798   9.271
 4207SOL    HW113163   2.708   0.874   9.336
 4207SOL    HW213164   2.734   0.834   9.180
 4208SOL     OW13165   2.547   1.012   8.113
 4208SOL    HW113166   2.616   0.996   8.183
 4208SOL    HW213167   2.474   1.069   8.151
 4209SOL     OW13168   2.548   1.161   9.251
 4209SOL    HW113169   2.608   1.240   9.265
 4209SOL    HW213170   2.462   1.192   9.210
 4210SOL     OW13171   2.197   1.435   8.509
 4210SOL    HW113172   2.119   1.404   8.456
 4210SOL    HW213173   2.255   1.493   8.452
 4211SOL     OW13174   3.322   1.505   8.787
 4211SOL    HW113175   3.346   1.599   8.813
 4211SOL    HW213176   3.306   1.451   8.869
 4212SOL     OW13177   2.300   0.392   8.947
 4212SOL    HW113178   2.382   0.336   8.956
 4212SOL    HW213179   2.219   0.334   8.951
 4213SOL     OW13180   3.465   0.447   8.185
 4213SOL    HW113181   3.391   0.493   8.135
 4213SOL    HW213182   3.516   0.515   8.238
 4214SOL     OW13183   2.093   1.713   7.931
 4214SOL    HW113184   2.127   1.790   7.985
 4214SOL    HW213185   2.137   1.713   7.841
 4215SOL     OW13186   2.989   1.341   9.138
 4215SOL    HW113187   3.036   1.341   9.226
 4215SOL    HW213188   2.941   1.254   9.127
 4216SOL     OW13189   2.092   1.434   7.986
 4216SOL    HW113190   2.066   1.530   7.986
 4216SOL    HW213191   2.021   1.380   8.031
 4217SOL     OW13192   2.102   1.091   8.334
 4217SOL    HW113193   2.116   1.007   8.386
 4217SOL    HW213194   2.047   1.155   8.389
 4218SOL     OW13195   2.482   1.786   8.887
 4218SOL    HW113196   2.390   1.769   8.922
 4218SOL    HW213197   2.510   1.878   8.913
 4219SOL     OW13198   2.468   0.964   7.571
 4219SOL    HW113199   2.475   1.048   7.517
 4219SOL    HW213200   2.514   0.977   7.659
 4220SOL     OW13201   3.456   0.114   8.928
 4220SOL    HW113202   3.438   0.181   8.856
 4220SOL    HW213203   3.453   0.160   9.017
 4221SOL     OW13204   1.984   0.643   8.011
 4221SOL    HW113205   1.939   0.555   8.028
 4221SOL    HW213206   1.983   0.697   8.095
 4222SOL     OW13207   3.704   1.767   7.807
 4222SOL    HW113208   3.758   1.738   7.887
 4222SOL    HW213209   3.734   1.857   7.778
 4223SOL     OW13210   3.551   0.922   8.060
 4223SOL    HW113211   3.646   0.893   8.068
 4223SOL    HW213212   3.543   0.987   7.985
 4224SOL     OW13213   3.503   1.108   7.880
 4224SOL    HW113214   3.589   1.110   7.828
 4224SOL    HW213215   3.517   1.155   7.968
 4225SOL     OW13216   1.975   0.737   9.045
 4225SOL    HW113217   2.063   0.724   9.090
 4225SOL    HW213218   1.962   0.834   9.023
 4226SOL     OW13219   2.475   1.365   8.174
 4226SOL    HW113220   2.426   1.278   8.183
 4226SOL    HW213221   2.452   1.408   8.087
 4227SOL     OW13222   3.155   1.228   8.871
 4227SOL    HW113223   3.192   1.155   8.813
 4227SOL    HW213224   3.207   1.233   8.956
 4228SOL     OW13225   2.671   0.004   7.950
 4228SOL    HW113226   2.711   0.095   7.941
 4228SOL    HW213227   2.571   0.012   7.956
 4229SOL     OW13228   2.059   0.976   8.712
 4229SOL    HW113229   2.148   0.931   8.698
 4229SOL    HW213230   1.986   0.911   8.693
 4230SOL     OW13231   3.387   0.999   7.638
 4230SOL    HW113232   3.324   0.923   7.651
 4230SOL    HW213233   3.435   1.017   7.724
 4231SOL     OW13234   3.049   1.792   9.064
 4231SOL    HW113235   3.073   1.852   8.988
 4231SOL    HW213236   3.056   1.697   9.034
 4232SOL     OW13237   2.179   0.251   9.249
 4232SOL    HW113238   2.250   0.322   9.255
 4232SOL    HW213239   2.091   0.290   9.277
 4233SOL     OW13240   3.328   1.417   8.401
 4233SOL    HW113241   3.269   1.423   8.481
 4233SOL    HW213242   3.313   1.329   8.355
 4234SOL     OW13243   3.529   1.714   8.020
 4234SOL    HW113244   3.488   1.691   7.932
 4234SOL    HW213245   3.511   1.640   8.085
 4235SOL     OW13246   2.460   0.729   7.718
 4235SOL    HW113247   2.484   0.798   7.650
 4235SOL    HW213248   2.382   0.762   7.772
 4236SOL     OW13249   3.143   0.345   8.392
 4236SOL    HW113250   3.057   0.295   8.379
 4236SOL    HW213251   3.205   0.291   8.448
 4237SOL     OW13252   3.438   1.662   7.755
 4237SOL    HW113253   3.527   1.708   7.758
 4237SOL    HW213254   3.417   1.638   7.660
 4238SOL     OW13255   2.669   0.605   8.913
 4238SOL    HW113256   2.622   0.602   9.002
 4238SOL    HW213257   2.618   0.550   8.847
 4239SOL     OW13258   3.256   0.469   9.122
 4239SOL    HW113259   3.236   0.512   9.210
 4239SOL    HW213260   3.334   0.407   9.131
 4240SOL     OW13261   2.835   0.890   9.020
 4240SOL    HW113262   2.881   0.806   8.991
 4240SOL    HW213263   2.779   0.924   8.945
 4241SOL     OW13264   2.853   0.410   8.690
 4241SOL    HW113265   2.776   0.444   8.744
 4241SOL    HW213266   2.819   0.359   8.611
 4242SOL     OW13267   2.903   0.701   7.877
 4242SOL    HW113268   2.929   0.697   7.973
 4242SOL    HW213269   2.818   0.650   7.863
 4243SOL     OW13270   1.938   0.811   8.237
 4243SOL    HW113271   2.037   0.799   8.246
 4243SOL    HW213272   1.914   0.906   8.258
 4244SOL     OW13273   2.727   0.348   7.643
 4244SOL    HW113274   2.786   0.411   7.594
 4244SOL    HW213275   2.746   0.254   7.614
 4245SOL     OW13276   3.581   0.585   9.279
 4245SOL    HW113277   3.555   0.674   9.243
 4245SOL    HW213278   3.579   0.517   9.206
 4246SOL     OW13279   3.224   1.144   7.993
 4246SOL    HW113280   3.307   1.115   7.945
 4246SOL    HW213281   3.175   1.211   7.937
 4247SOL     OW13282   2.412   0.196   8.333
 4247SOL    HW113283   2.407   0.191   8.433
 4247SOL    HW213284   2.414   0.292   8.304
 4248SOL     OW13285   2.870   1.456   7.925
 4248SOL    HW113286   2.824   1.528   7.873
 4248SOL    HW213287   2.866   1.476   8.023
 4249SOL     OW13288   2.213   1.801   8.301
 4249SOL    HW113289   2.263   1.715   8.307
 4249SOL    HW213290   2.278   1.878   8.298
 4250SOL     OW13291   3.657   1.066   8.321
 4250SOL    HW113292   3.595   1.051   8.245
 4250SOL    HW213293   3.605   1.077   8.406
 4251SOL     OW13294   3.089   1.550   8.954
 4251SOL    HW113295   3.095   1.473   9.018
 4251SOL    HW213296   3.037   1.524   8.874
 4252SOL     OW13297   2.183   0.943   7.690
 4252SOL    HW113298   2.265   0.982   7.648
 4252SOL    HW213299   2.156   0.861   7.641
 4253SOL     OW13300   3.320   0.735   8.176
 4253SOL    HW113301   3.315   0.670   8.251
 4253SOL    HW213302   3.400   0.794   8.189
 4254SOL     OW13303   2.323   1.266   9.175
 4254SOL    HW113304   2.273   1.267   9.089
 4254SOL    HW213305   2.260   1.248   9.251
 4255SOL     OW13306   2.973   1.776   7.685
 4255SOL    HW113307   2.913   1.714   7.735
 4255SOL    HW213308   3.004   1.732   7.600
 4256SOL     OW13309   2.064   0.285   8.946
 4256SOL    HW113310   1.984   0.345   8.933
 4256SOL    HW213311   2.054   0.236   9.032
 4257SOL     OW13312   3.494   1.377   7.529
 4257SOL    HW113313   3.462   1.471   7.519
 4257SOL    HW213314   3.418   1.314   7.517
 4258SOL     OW13315   3.262   0.107   7.874
 4258SOL    HW113316   3.238   0.070   7.784
 4258SOL    HW213317   3.361   0.123   7.878
 4259SOL     OW13318   2.111   1.785   8.689
 4259SOL    HW113319   2.168   1.720   8.739
 4259SOL    HW213320   2.095   1.752   8.596
 4260SOL     OW13321   2.802   1.698   8.352
 4260SOL    HW113322   2.882   1.641   8.373
 4260SOL    HW213323   2.753   1.658   8.275
 4261SOL     OW13324   2.244   0.700   7.928
 4261SOL    HW113325   2.289   0.610   7.925
 4261SOL    HW213326   2.150   0.689   7.961
 4262SOL     OW13327   3.409   0.222   9.177
 4262SOL    HW113328   3.404   0.259   9.269
 4262SOL    HW213329   3.337   0.153   9.165
 4263SOL     OW13330   2.476   0.122   7.565
 4263SOL    HW113331   2.574   0.100   7.572
 4263SOL    HW213332   2.445   0.105   7.472
 4264SOL     OW13333   2.643   0.264   9.197
 4264SOL    HW113334   2.710   0.203   9.240
 4264SOL    HW213335   2.570   0.283   9.262
 4265SOL     OW13336   2.750   1.514   8.643
 4265SOL    HW113337   2.727   1.489   8.549
 4265SOL    HW213338   2.811   1.445   8.682
 4266SOL     OW13339   3.213   0.590   8.881
 4266SOL    HW113340   3.241   0.547   8.966
 4266SOL    HW213341   3.238   0.686   8.882
 4267SOL     OW13342   2.665   1.402   8.372
 4267SOL    HW113343   2.755   1.416   8.330
 4267SOL    HW213344   2.594   1.404   8.301
 4268SOL     OW13345   2.784   0.503   8.347
 4268SOL    HW113346   2.759   0.494   8.251
 4268SOL    HW213347   2.832   0.421   8.378
 4269SOL     OW13348   2.401   0.064   7.960
 4269SOL    HW113349   2.320   0.065   8.018
 4269SOL    HW213350   2.404   0.147   7.905
 4270SOL     OW13351   3.296   1.188   7.489
 4270SOL    HW113352   3.328   1.112   7.546
 4270SOL    HW213353   3.204   1.215   7.519
 4271SOL     OW13354   2.159   0.035   7.619
 4271SOL    HW113355   2.208   0.119   7.598
 4271SOL    HW213356   2.221  -0.030   7.664
 4272SOL     OW13357   2.797   0.236   7.928
 4272SOL    HW113358   2.749   0.277   7.850
 4272SOL    HW213359   2.896   0.234   7.909
 4273SOL     OW13360   2.938   0.683   8.912
 4273SOL    HW113361   2.858   0.622   8.915
 4273SOL    HW213362   3.019   0.630   8.888
 4274SOL     OW13363   3.089   1.570   8.241
 4274SOL    HW113364   3.110   1.644   8.176
 4274SOL    HW213365   3.157   1.570   8.314
 4275SOL     OW13366   2.321   1.152   8.189
 4275SOL    HW113367   2.250   1.125   8.254
 4275SOL    HW213368   2.295   1.124   8.096
 4276SOL     OW13369   3.133   1.797   8.039
 4276SOL    HW113370   3.177   1.861   7.975
 4276SOL    HW213371   3.083   1.849   8.109
 4277SOL     OW13372   2.894   0.549   7.464
 4277SOL    HW113373   2.853   0.631   7.425
 4277SOL    HW213374   2.958   0.575   7.537
 4278SOL     OW13375   1.940   0.556   8.834
 4278SOL    HW113376   2.032   0.555   8.793
 4278SOL    HW213377   1.934   0.630   8.901
 4279SOL     OW13378   2.423   0.222   8.595
 4279SOL    HW113379   2.461   0.138   8.632
 4279SOL    HW213380   2.335   0.241   8.639
 4280SOL     OW13381   2.728   0.454   8.090
 4280SOL    HW113382   2.696   0.526   8.028
 4280SOL    HW213383   2.752   0.373   8.037
 4281SOL     OW13384   2.879   0.039   8.201
 4281SOL    HW113385   2.807   0.044   8.132
 4281SOL    HW213386   2.855  -0.030   8.270
 4282SOL     OW13387   3.291   1.173   8.315
 4282SOL    HW113388   3.236   1.089   8.308
 4282SOL    HW213389   3.317   1.202   8.223
 4283SOL     OW13390   3.328   0.590   8.440
 4283SOL    HW113391   3.298   0.495   8.447
 4283SOL    HW213392   3.401   0.606   8.506
 4284SOL     OW13393   3.719   0.833   7.825
 4284SOL    HW113394   3.761   0.769   7.889
 4284SOL    HW213395   3.681   0.782   7.747
 4285SOL     OW13396   3.526   1.280   8.105
 4285SOL    HW113397   3.625   1.288   8.119
 4285SOL    HW213398   3.481   1.364   8.136
 4286SOL     OW13399   3.252   0.575   7.526
 4286SOL    HW113400   3.198   0.554   7.607
 4286SOL    HW213401   3.343   0.534   7.535
 4287SOL     OW13402   2.389   0.256   7.776
 4287SOL    HW113403   2.416   0.197   7.701
 4287SOL    HW213404   2.389   0.351   7.745
 4288SOL     OW13405   3.616   1.223   9.036
 4288SOL    HW113406   3.707   1.184   9.023
 4288SOL    HW213407   3.624   1.319   9.060
 4289SOL     OW13408   2.926   1.347   8.788
 4289SOL    HW113409   2.846   1.324   8.843
 4289SOL    HW213410   3.009   1.321   8.837
 4290SOL     OW13411   3.454   1.629   9.073
 4290SOL    HW113412   3.481   1.663   8.983
 4290SOL    HW213413   3.533   1.591   9.119
 4291SOL     OW13414   2.973   1.195   8.548
 4291SOL    HW113415   2.933   1.239   8.629
 4291SOL    HW213416   2.932   1.232   8.465
 4292SOL     OW13417   3.500   1.099   8.527
 4292SOL    HW113418   3.505   1.180   8.586
 4292SOL    HW213419   3.414   1.101   8.476
 4293SOL     OW13420   2.777   0.089   8.850
 4293SOL    HW113421   2.802   0.069   8.755
 4293SOL    HW213422   2.849   0.145   8.892
 4294SOL     OW13423   2.842   1.116   9.167
 4294SOL    HW113424   2.743   1.122   9.177
 4294SOL    HW213425   2.865   1.036   9.111
 4295SOL     OW13426   2.567   1.050   7.816
 4295SOL    HW113427   2.553   1.057   7.915
 4295SOL    HW213428   2.651   0.999   7.798
 4296SOL     OW13429   2.272   0.813   8.699
 4296SOL    HW113430   2.358   0.825   8.749
 4296SOL    HW213431   2.230   0.726   8.726
 4297SOL     OW13432   3.136   0.386   8.710
 4297SOL    HW113433   3.157   0.460   8.774
 4297SOL    HW213434   3.047   0.403   8.667
 4298SOL     OW13435   1.926   1.564   8.779
 4298SOL    HW113436   1.880   1.646   8.745
 4298SOL    HW213437   2.024   1.583   8.788
 4299SOL     OW13438   2.229   1.100   7.949
 4299SOL    HW113439   2.222   1.183   7.893
 4299SOL    HW213440   2.233   1.020   7.889
 4300SOL     OW13441   2.428   0.537   8.313
 4300SOL    HW113442   2.440   0.603   8.239
 4300SOL    HW213443   2.474   0.571   8.396
 4301SOL     OW13444   3.114   1.348   7.836
 4301SOL    HW113445   3.164   1.425   7.876
 4301SOL    HW213446   3.019   1.350   7.868
 4302SOL     OW13447   3.134   1.445   8.590
 4302SOL    HW113448   3.181   1.458   8.677
 4302SOL    HW213449   3.068   1.371   8.599
 4303SOL     OW13450   3.444   0.639   7.920
 4303SOL    HW113451   3.413   0.700   7.993
 4303SOL    HW213452   3.494   0.691   7.851
 4304SOL     OW13453   2.216   1.510   8.777
 4304SOL    HW113454   2.195   1.466   8.690
 4304SOL    HW213455   2.313   1.536   8.780
 4305SOL     OW13456   2.264   0.751   9.046
 4305SOL    HW113457   2.332   0.806   8.999
 4305SOL    HW213458   2.304   0.663   9.073
 4306SOL     OW13459   3.449   0.779   9.118
 4306SOL    HW113460   3.357   0.817   9.113
 4306SOL    HW213461   3.509   0.826   9.053
 4307SOL     OW13462   2.875   0.105   9.218
 4307SOL    HW113463   2.881   0.190   9.166
 4307SOL    HW213464   2.907   0.029   9.161
 4308SOL     OW13465   2.366   0.050   9.188
 4308SOL    HW113466   2.324  -0.007   9.118
 4308SOL    HW213467   2.300   0.119   9.220
 4309SOL     OW13468   2.435   0.870   8.477
 4309SOL    HW113469   2.479   0.959   8.468
 4309SOL    HW213470   2.372   0.870   8.554
 4310SOL     OW13471   3.222   0.862   8.493
 4310SOL    HW113472   3.147   0.862   8.427
 4310SOL    HW213473   3.259   0.770   8.502
 4311SOL     OW13474   3.071   0.525   7.723
 4311SOL    HW113475   3.084   0.441   7.777
 4311SOL    HW213476   3.042   0.599   7.783
 4312SOL     OW13477   2.169   0.213   8.679
 4312SOL    HW113478   2.146   0.250   8.769
 4312SOL    HW213479   2.139   0.118   8.673
 4313SOL     OW13480   1.899   1.310   8.730
 4313SOL    HW113481   1.952   1.261   8.798
 4313SOL    HW213482   1.921   1.408   8.735
 4314SOL     OW13483   2.594   0.634   8.512
 4314SOL    HW113484   2.653   0.608   8.436
 4314SOL    HW213485   2.566   0.730   8.501
 4315SOL     OW13486   3.590   0.935   9.302
 4315SOL    HW113487   3.544   0.928   9.213
 4315SOL    HW213488   3.528   0.979   9.368
 4316SOL     OW13489   2.169   0.063   8.066
 4316SOL    HW113490   2.158   0.157   8.099
 4316SOL    HW213491   2.164   0.000   8.143
 4317SOL     OW13492   3.484   0.367   7.822
 4317SOL    HW113493   3.486   0.291   7.886
 4317SOL    HW213494   3.436   0.444   7.862
 4318SOL     OW13495   2.885   0.766   8.414
 4318SOL    HW113496   2.900   0.787   8.510
 4318SOL    HW213497   2.855   0.671   8.405
 4319SOL     OW13498   2.842   1.573   9.148
 4319SOL    HW113499   2.822   1.617   9.060
 4319SOL    HW213500   2.881   1.482   9.132
 4320SOL     OW13501   3.721   1.518   9.053
 4320SOL    HW113502   3.735   1.545   8.958
 4320SOL    HW213503   3.804   1.540   9.106
 4321SOL     OW13504   2.212   0.898   9.252
 4321SOL    HW113505   2.288   0.942   9.300
 4321SOL    HW213506   2.247   0.851   9.170
 4322SOL     OW13507   3.402   0.274   7.573
 4322SOL    HW113508   3.341   0.199   7.596
 4322SOL    HW213509   3.424   0.326   7.656
 4323SOL     OW13510   3.165   0.838   7.490
 4323SOL    HW113511   3.199   0.745   7.505
 4323SOL    HW213512   3.183   0.865   7.395
 4324SOL     OW13513   2.930   1.333   8.297
 4324SOL    HW113514   2.937   1.249   8.242
 4324SOL    HW213515   2.992   1.402   8.261
 4325SOL     OW13516   2.181   0.810   8.397
 4325SOL    HW113517   2.274   0.846   8.402
 4325SOL    HW213518   2.175   0.725   8.449
 4326SOL     OW13519   2.201   0.509   8.454
 4326SOL    HW113520   2.149   0.426   8.437
 4326SOL    HW213521   2.278   0.514   8.390
 4327SOL     OW13522   3.000   0.380   9.126
 4327SOL    HW113523   2.955   0.443   9.190
 4327SOL    HW213524   3.093   0.411   9.109
 4328SOL     OW13525   3.022   0.207   8.925
 4328SOL    HW113526   3.022   0.271   9.002
 4328SOL    HW213527   3.050   0.255   8.842
 4329SOL     OW13528   1.950   1.801   8.375
 4329SOL    HW113529   1.908   1.715   8.348
 4329SOL    HW213530   2.044   1.804   8.341
 4330SOL     OW13531   2.366   1.568   8.358
 4330SOL    HW113532   2.432   1.642   8.367
 4330SOL    HW213533   2.410   1.489   8.316
 4331SOL     OW13534   2.864   0.796   8.686
 4331SOL    HW113535   2.905   0.764   8.772
 4331SOL    HW213536   2.768   0.769   8.683
 4332SOL     OW13537   1.902   0.544   8.562
 4332SOL    HW113538   1.987   0.511   8.521
 4332SOL    HW213539   1.915   0.559   8.660
 4333SOL     OW13540   2.051   0.520   9.170
 4333SOL    HW113541   2.110   0.480   9.100
 4333SOL    HW213542   1.993   0.591   9.129
 4334SOL     OW13543   3.231   0.950   9.108
 4334SOL    HW113544   3.270   1.039   9.128
 4334SOL    HW213545   3.241   0.930   9.011
 4335SOL     OW13546   2.677   0.572   7.773
 4335SOL    HW113547   2.684   0.483   7.727
 4335SOL    HW213548   2.583   0.606   7.765
 4336SOL     OW13549   3.519   0.604   8.654
 4336SOL    HW113550   3.481   0.535   8.716
 4336SOL    HW213551   3.601   0.568   8.610
 4337SOL     OW13552   2.114   1.564   9.192
 4337SOL    HW113553   2.084   1.621   9.268
 4337SOL    HW213554   2.107   1.467   9.218
 4338SOL     OW13555   2.533   0.464   8.717
 4338SOL    HW113556   2.499   0.375   8.687
 4338SOL    HW213557   2.559   0.518   8.637
 4339SOL     OW13558   2.792   1.678   8.913
 4339SOL    HW113559   2.768   1.660   8.818
 4339SOL    HW213560   2.822   1.772   8.923
 4340SOL     OW13561   2.335   0.500   7.639
 4340SOL    HW113562   2.396   0.580   7.643
 4340SOL    HW213563   2.240   0.531   7.646
 4341SOL     OW13564   2.021   1.137   8.914
 4341SOL    HW113565   2.043   1.076   8.990
 4341SOL    HW213566   2.031   1.088   8.828
 4342SOL     OW13567   3.209   1.059   8.682
 4342SOL    HW113568   3.233   0.996   8.608
 4342SOL    HW213569   3.119   1.099   8.664
 4343SOL     OW13570   3.164   0.855   7.757
 4343SOL    HW113571   3.078   0.824   7.799
 4343SOL    HW213572   3.160   0.841   7.658
 4344SOL     OW13573   3.621   1.747   8.602
 4344SOL    HW113574   3.682   1.777   8.529
 4344SOL    HW213575   3.583   1.658   8.580
 4345SOL     OW13576   3.114   1.731   8.576
 4345SOL    HW113577   3.198   1.736   8.522
 4345SOL    HW213578   3.091   1.635   8.594
 4346SOL     OW13579   1.945   1.258   8.470
 4346SOL    HW113580   1.940   1.257   8.570
 4346SOL    HW213581   1.862   1.217   8.432
 4347SOL     OW13582   2.550   1.662   9.164
 4347SOL    HW113583   2.494   1.743   9.173
 4347SOL    HW213584   2.602   1.666   9.078
 4348SOL     OW13585   3.588   0.135   7.971
 4348SOL    HW113586   3.661   0.118   7.904
 4348SOL    HW213587   3.557   0.048   8.009
 4349SOL     OW13588   3.250   1.573   7.925
 4349SOL    HW113589   3.317   1.585   7.851
 4349SOL    HW213590   3.210   1.662   7.948
 4350SOL     OW13591   1.992   1.794   9.299
 4350SOL    HW113592   1.951   1.720   9.352
 4350SOL    HW213593   2.056   1.845   9.357
 4351SOL     OW13594   3.142   0.927   8.120
 4351SOL    HW113595   3.202   0.846   8.122
 4351SOL    HW213596   3.182   0.996   8.060
 4352SOL     OW13597   2.692   1.273   8.870
 4352SOL    HW113598   2.687   1.306   8.965
 4352SOL    HW213599   2.606   1.292   8.824
 4353SOL     OW13600   3.512   1.720   8.842
 4353SOL    HW113601   3.565   1.730   8.758
 4353SOL    HW213602   3.485   1.810   8.876
 4354SOL     OW13603   3.703   0.175   8.411
 4354SOL    HW113604   3.742   0.090   8.375
 4354SOL    HW213605   3.605   0.177   8.392
 4355SOL     OW13606   2.125   0.326   8.168
 4355SOL    HW113607   2.046   0.377   8.134
 4355SOL    HW213608   2.116   0.311   8.266
 4356SOL     OW13609   3.056   1.612   7.479
 4356SOL    HW113610   3.062   1.519   7.516
 4356SOL    HW213611   2.997   1.612   7.399
 4357SOL     OW13612   2.684   1.002   8.820
 4357SOL    HW113613   2.724   1.001   8.728
 4357SOL    HW213614   2.694   1.094   8.860
 4358SOL     OW13615   2.778   0.910   7.739
 4358SOL    HW113616   2.841   0.948   7.671
 4358SOL    HW213617   2.818   0.827   7.778
 4359SOL     OW13618   3.366   1.607   7.492
 4359SOL    HW113619   3.274   1.644   7.499
 4359SOL    HW213620   3.404   1.627   7.402
 4360SOL     OW13621   2.234   1.288   8.938
 4360SOL    HW113622   2.221   1.381   8.904
 4360SOL    HW213623   2.150   1.236   8.925
 4361SOL     OW13624   3.476   1.292   8.737
 4361SOL    HW113625   3.536   1.295   8.817
 4361SOL    HW213626   3.401   1.356   8.750
 4362SOL     OW13627   2.901   1.098   8.144
 4362SOL    HW113628   2.831   1.051   8.198
 4362SOL    HW213629   2.960   1.030   8.101
 4363SOL     OW13630   2.876   0.236   8.419
 4363SOL    HW113631   2.868   0.200   8.326
 4363SOL    HW213632   2.874   0.160   8.484
 4364SOL     OW13633   3.571   0.385   8.829
 4364SOL    HW113634   3.644   0.454   8.833
 4364SOL    HW213635   3.599   0.310   8.770
 4365SOL     OW13636   1.967   1.013   9.174
 4365SOL    HW113637   1.890   0.980   9.228
 4365SOL    HW213638   2.052   0.983   9.216
 4366SOL     OW13639   2.534   0.203   8.937
 4366SOL    HW113640   2.624   0.187   8.897
 4366SOL    HW213641   2.542   0.208   9.036
 4367SOL     OW13642   1.937   0.345   7.481
 4367SOL    HW113643   1.845   0.317   7.452
 4367SOL    HW213644   1.968   0.422   7.425
 4368SOL     OW13645   3.302   0.856   8.846
 4368SOL    HW113646   3.245   0.908   8.783
 4368SOL    HW213647   3.398   0.868   8.822
 4369SOL     OW13648   1.934   0.166   7.766
 4369SOL    HW113649   1.917   0.249   7.712
 4369SOL    HW213650   2.024   0.129   7.744
 4370SOL     OW13651   3.045   1.335   7.567
 4370SOL    HW113652   2.946   1.324   7.569
 4370SOL    HW213653   3.079   1.350   7.660
 4371SOL     OW13654   2.475   0.842   8.879
 4371SOL    HW113655   2.531   0.923   8.862
 4371SOL    HW213656   2.534   0.762   8.882
 4372SOL     OW13657   3.355   1.767   8.407
 4372SOL    HW113658   3.388   1.831   8.338
 4372SOL    HW213659   3.421   1.761   8.482
 4373SOL     OW13660   2.578   0.565   9.156
 4373SOL    HW113661   2.597   0.630   9.230
 4373SOL    HW213662   2.638   0.485   9.165
 4374SOL     OW13663   3.312   1.220   9.081
 4374SOL    HW113664   3.303   1.210   9.180
 4374SOL    HW213665   3.408   1.213   9.055
 4375SOL     OW13666   2.252   1.741   9.008
 4375SOL    HW113667   2.161   1.782   9.006
 4375SOL    HW213668   2.245   1.647   9.040
 4376SOL     OW13669   3.536   0.883   8.702
 4376SOL    HW113670   3.509   0.794   8.665
 4376SOL    HW213671   3.537   0.951   8.629
 4377SOL     OW13672   3.087   0.325   7.897
 4377SOL    HW113673   3.152   0.251   7.886
 4377SOL    HW213674   3.107   0.375   7.981
 4378SOL     OW13675   2.456   0.745   8.100
 4378SOL    HW113676   2.506   0.830   8.081
 4378SOL    HW213677   2.368   0.747   8.052
 4379SOL     OW13678   3.639   0.342   9.090
 4379SOL    HW113679   3.622   0.373   8.996
 4379SOL    HW213680   3.555   0.305   9.128
 4380SOL     OW13681   3.592   0.934   8.965
 4380SOL    HW113682   3.630   1.025   8.980
 4380SOL    HW213683   3.584   0.917   8.866
 4381SOL     OW13684   2.721   1.374   7.464
 4381SOL    HW113685   2.675   1.389   7.552
 4381SOL    HW213686   2.765   1.459   7.434
 4382SOL     OW13687   2.523   1.790   8.401
 4382SOL    HW113688   2.477   1.878   8.388
 4382SOL    HW213689   2.622   1.802   8.394
 4383SOL     OW13690   2.721   0.956   8.309
 4383SOL    HW113691   2.775   0.887   8.357
 4383SOL    HW213692   2.689   1.025   8.375
 4384SOL     OW13693   2.945   0.984   7.535
 4384SOL    HW113694   2.922   1.037   7.453
 4384SOL    HW213695   3.026   0.928   7.516
 4385SOL     OW13696   3.723   1.569   8.299
 4385SOL    HW113697   3.652   1.557   8.229
 4385SOL    HW213698   3.724   1.490   8.359
 4386SOL     OW13699   2.083   1.314   9.292
 4386SOL    HW113700   2.018   1.241   9.271
 4386SOL    HW213701   2.087   1.328   9.390
 4387SOL     OW13702   1.941   1.240   8.101
 4387SOL    HW113703   1.940   1.193   8.189
 4387SOL    HW213704   2.023   1.212   8.050
 4388SOL     OW13705   2.534   1.391   9.072
 4388SOL    HW113706   2.456   1.341   9.110
 4388SOL    HW213707   2.531   1.486   9.103
 4389SOL     OW13708   3.686   0.192   8.675
 4389SOL    HW113709   3.682   0.102   8.719
 4389SOL    HW213710   3.689   0.181   8.576
 4390SOL     OW13711   2.290   0.424   7.968
 4390SOL    HW113712   2.320   0.352   7.906
 4390SOL    HW213713   2.251   0.384   8.051
 4391SOL     OW13714   3.567   1.487   8.552
 4391SOL    HW113715   3.474   1.462   8.525
 4391SOL    HW213716   3.593   1.437   8.634
 4392SOL     OW13717   2.179   0.547   8.728
 4392SOL    HW113718   2.217   0.488   8.800
 4392SOL    HW213719   2.219   0.521   8.640
 4393SOL     OW13720   2.674   1.586   8.135
 4393SOL    HW113721   2.706   1.596   8.041
 4393SOL    HW213722   2.595   1.524   8.137
 4394SOL     OW13723   3.286   0.214   8.560
 4394SOL    HW113724   3.338   0.149   8.615
 4394SOL    HW213725   3.237   0.277   8.621
 4395SOL     OW13726   2.863   0.034   8.602
 4395SOL    HW113727   2.800  -0.038   8.571
 4395SOL    HW213728   2.956  -0.002   8.602
 4396SOL     OW13729   2.632   1.330   7.749
 4396SOL    HW113730   2.586   1.243   7.766
 4396SOL    HW213731   2.723   1.327   7.790
 4397SOL     OW13732   2.480   1.567   8.732
 4397SOL    HW113733   2.475   1.649   8.789
 4397SOL    HW213734   2.569   1.564   8.687
 4398SOL     OW13735   3.214   0.052   7.616
 4398SOL    HW113736   3.249   0.011   7.532
 4398SOL    HW213737   3.124   0.014   7.636
 4399SOL     OW13738   3.162   0.453   8.139
 4399SOL    HW113739   3.103   0.533   8.143
 4399SOL    HW213740   3.177   0.418   8.232
 4400SOL     OW13741   3.455   0.221   8.330
 4400SOL    HW113742   3.371   0.220   8.384
 4400SOL    HW213743   3.457   0.304   8.274
 4401SOL     OW13744   1.901   1.077   7.748
 4401SOL    HW113745   2.000   1.066   7.739
 4401SOL    HW213746   1.861   0.991   7.780
 4402SOL     OW13747   2.092   0.628   9.423
 4402SOL    HW113748   1.999   0.626   9.460
 4402SOL    HW213749   2.093   0.589   9.331
 4403SOL     OW13750   2.087   0.275  10.306
 4403SOL    HW113751   2.122   0.258  10.398
 4403SOL    HW213752   1.999   0.230  10.294
 4404SOL     OW13753   1.881   0.368   9.957
 4404SOL    HW113754   1.799   0.411   9.996
 4404SOL    HW213755   1.853   0.295   9.894
 4405SOL     OW13756   2.431   1.275  10.475
 4405SOL    HW113757   2.338   1.268  10.438
 4405SOL    HW213758   2.442   1.364  10.519
 4406SOL     OW13759   3.417   1.511  10.013
 4406SOL    HW113760   3.360   1.495  10.094
 4406SOL    HW213761   3.358   1.521   9.933
 4407SOL     OW13762   2.997   0.703  10.027
 4407SOL    HW113763   3.054   0.781  10.002
 4407SOL    HW213764   2.937   0.729  10.103
 4408SOL     OW13765   3.617   0.607   9.541
 4408SOL    HW113766   3.605   0.594   9.442
 4408SOL    HW213767   3.587   0.526   9.590
 4409SOL     OW13768   2.630   1.144  10.333
 4409SOL    HW113769   2.552   1.161  10.393
 4409SOL    HW213770   2.664   1.231  10.297
 4410SOL     OW13771   2.712   0.798  11.133
 4410SOL    HW113772   2.708   0.874  11.198
 4410SOL    HW213773   2.734   0.834  11.042
 4411SOL     OW13774   2.547   1.012   9.975
 4411SOL    HW113775   2.616   0.996  10.045
 4411SOL    HW213776   2.474   1.069  10.013
 4412SOL     OW13777   2.548   1.161  11.113
 4412SOL    HW113778   2.608   1.240  11.127
 4412SOL    HW213779   2.462   1.192  11.072
 4413SOL     OW13780   2.197   1.435  10.371
 4413SOL    HW113781   2.119   1.404  10.318
 4413SOL    HW213782   2.255   1.493  10.314
 4414SOL     OW13783   3.322   1.505  10.649
 4414SOL    HW113784   3.346   1.599  10.675
 4414SOL    HW213785   3.306   1.451  10.731
 4415SOL     OW13786   2.300   0.392  10.809
 4415SOL    HW113787   2.382   0.336  10.818
 4415SOL    HW213788   2.219   0.334  10.813
 4416SOL     OW13789   3.465   0.447  10.047
 4416SOL    HW113790   3.391   0.493   9.997
 4416SOL    HW213791   3.516   0.515  10.100
 4417SOL     OW13792   2.093   1.713   9.793
 4417SOL    HW113793   2.127   1.790   9.847
 4417SOL    HW213794   2.137   1.713   9.703
 4418SOL     OW13795   2.989   1.341  11.000
 4418SOL    HW113796   3.036   1.341  11.088
 4418SOL    HW213797   2.941   1.254  10.989
 4419SOL     OW13798   2.092   1.434   9.848
 4419SOL    HW113799   2.066   1.530   9.848
 4419SOL    HW213800   2.021   1.380   9.893
 4420SOL     OW13801   2.102   1.091  10.196
 4420SOL    HW113802   2.116   1.007  10.248
 4420SOL    HW213803   2.047   1.155  10.251
 4421SOL     OW13804   2.482   1.786  10.749
 4421SOL    HW113805   2.390   1.769  10.784
 4421SOL    HW213806   2.510   1.878  10.775
 4422SOL     OW13807   2.468   0.964   9.433
 4422SOL    HW113808   2.475   1.048   9.379
 4422SOL    HW213809   2.514   0.977   9.521
 4423SOL     OW13810   3.456   0.114  10.790
 4423SOL    HW113811   3.438   0.181  10.718
 4423SOL    HW213812   3.453   0.160  10.879
 4424SOL     OW13813   1.984   0.643   9.873
 4424SOL    HW113814   1.939   0.555   9.890
 4424SOL    HW213815   1.983   0.697   9.957
 4425SOL     OW13816   3.704   1.767   9.669
 4425SOL    HW113817   3.758   1.738   9.749
 4425SOL    HW213818   3.734   1.857   9.640
 4426SOL     OW13819   1.889   1.596   9.427
 4426SOL    HW113820   1.870   1.500   9.448
 4426SOL    HW213821   1.856   1.654   9.502
 4427SOL     OW13822   3.551   0.922   9.922
 4427SOL    HW113823   3.646   0.893   9.930
 4427SOL    HW213824   3.543   0.987   9.847
 4428SOL     OW13825   3.503   1.108   9.742
 4428SOL    HW113826   3.589   1.110   9.690
 4428SOL    HW213827   3.517   1.155   9.830
 4429SOL     OW13828   1.975   0.737  10.907
 4429SOL    HW113829   2.063   0.724  10.952
 4429SOL    HW213830   1.962   0.834  10.885
 4430SOL     OW13831   2.475   1.365  10.036
 4430SOL    HW113832   2.426   1.278  10.045
 4430SOL    HW213833   2.452   1.408   9.949
 4431SOL     OW13834   3.155   1.228  10.733
 4431SOL    HW113835   3.192   1.155  10.675
 4431SOL    HW213836   3.207   1.233  10.818
 4432SOL     OW13837   2.671   0.004   9.812
 4432SOL    HW113838   2.711   0.095   9.803
 4432SOL    HW213839   2.571   0.012   9.818
 4433SOL     OW13840   2.059   0.976  10.574
 4433SOL    HW113841   2.148   0.931  10.560
 4433SOL    HW213842   1.986   0.911  10.555
 4434SOL     OW13843   3.387   0.999   9.500
 4434SOL    HW113844   3.324   0.923   9.513
 4434SOL    HW213845   3.435   1.017   9.586
 4435SOL     OW13846   3.049   1.792  10.926
 4435SOL    HW113847   3.073   1.852  10.850
 4435SOL    HW213848   3.056   1.697  10.896
 4436SOL     OW13849   2.179   0.251  11.111
 4436SOL    HW113850   2.250   0.322  11.117
 4436SOL    HW213851   2.091   0.290  11.139
 4437SOL     OW13852   3.328   1.417  10.263
 4437SOL    HW113853   3.269   1.423  10.343
 4437SOL    HW213854   3.313   1.329  10.217
 4438SOL     OW13855   3.529   1.714   9.882
 4438SOL    HW113856   3.488   1.691   9.794
 4438SOL    HW213857   3.511   1.640   9.947
 4439SOL     OW13858   2.460   0.729   9.580
 4439SOL    HW113859   2.484   0.798   9.512
 4439SOL    HW213860   2.382   0.762   9.634
 4440SOL     OW13861   3.143   0.345  10.254
 4440SOL    HW113862   3.057   0.295  10.241
 4440SOL    HW213863   3.205   0.291  10.310
 4441SOL     OW13864   3.438   1.662   9.617
 4441SOL    HW113865   3.527   1.708   9.620
 4441SOL    HW213866   3.417   1.638   9.522
 4442SOL     OW13867   2.669   0.605  10.775
 4442SOL    HW113868   2.622   0.602  10.864
 4442SOL    HW213869   2.618   0.550  10.709
 4443SOL     OW13870   3.256   0.469  10.984
 4443SOL    HW113871   3.236   0.512  11.072
 4443SOL    HW213872   3.334   0.407  10.993
 4444SOL     OW13873   2.835   0.890  10.882
 4444SOL    HW113874   2.881   0.806  10.853
 4444SOL    HW213875   2.779   0.924  10.807
 4445SOL     OW13876   2.853   0.410  10.552
 4445SOL    HW113877   2.776   0.444  10.606
 4445SOL    HW213878   2.819   0.359  10.473
 4446SOL     OW13879   2.903   0.701   9.739
 4446SOL    HW113880   2.929   0.697   9.835
 4446SOL    HW213881   2.818   0.650   9.725
 4447SOL     OW13882   1.938   0.811  10.099
 4447SOL    HW113883   2.037   0.799  10.108
 4447SOL    HW213884   1.914   0.906  10.120
 4448SOL     OW13885   2.727   0.348   9.505
 4448SOL    HW113886   2.786   0.411   9.456
 4448SOL    HW213887   2.746   0.254   9.476
 4449SOL     OW13888   3.581   0.585  11.141
 4449SOL    HW113889   3.555   0.674  11.105
 4449SOL    HW213890   3.579   0.517  11.068
 4450SOL     OW13891   3.224   1.144   9.855
 4450SOL    HW113892   3.307   1.115   9.807
 4450SOL    HW213893   3.175   1.211   9.799
 4451SOL     OW13894   2.412   0.196  10.195
 4451SOL    HW113895   2.407   0.191  10.295
 4451SOL    HW213896   2.414   0.292  10.166
 4452SOL     OW13897   2.870   1.456   9.787
 4452SOL    HW113898   2.824   1.528   9.735
 4452SOL    HW213899   2.866   1.476   9.885
 4453SOL     OW13900   2.213   1.801  10.163
 4453SOL    HW113901   2.263   1.715  10.169
 4453SOL    HW213902   2.278   1.878  10.160
 4454SOL     OW13903   3.657   1.066  10.183
 4454SOL    HW113904   3.595   1.051  10.107
 4454SOL    HW213905   3.605   1.077  10.268
 4455SOL     OW13906   3.089   1.550  10.816
 4455SOL    HW113907   3.095   1.473  10.880
 4455SOL    HW213908   3.037   1.524  10.736
 4456SOL     OW13909   2.183   0.943   9.552
 4456SOL    HW113910   2.265   0.982   9.510
 4456SOL    HW213911   2.156   0.861   9.503
 4457SOL     OW13912   3.320   0.735  10.038
 4457SOL    HW113913   3.315   0.670  10.113
 4457SOL    HW213914   3.400   0.794  10.051
 4458SOL     OW13915   2.323   1.266  11.037
 4458SOL    HW113916   2.273   1.267  10.951
 4458SOL    HW213917   2.260   1.248  11.113
 4459SOL     OW13918   2.973   1.776   9.547
 4459SOL    HW113919   2.913   1.714   9.597
 4459SOL    HW213920   3.004   1.732   9.462
 4460SOL     OW13921   2.064   0.285  10.808
 4460SOL    HW113922   1.984   0.345  10.795
 4460SOL    HW213923   2.054   0.236  10.894
 4461SOL     OW13924   3.494   1.377   9.391
 4461SOL    HW113925   3.462   1.471   9.381
 4461SOL    HW213926   3.418   1.314   9.379
 4462SOL     OW13927   2.326   1.743   9.633
 4462SOL    HW113928   2.359   1.782   9.719
 4462SOL    HW213929   2.402   1.736   9.568
 4463SOL     OW13930   3.262   0.107   9.736
 4463SOL    HW113931   3.238   0.070   9.646
 4463SOL    HW213932   3.361   0.123   9.740
 4464SOL     OW13933   2.111   1.785  10.551
 4464SOL    HW113934   2.168   1.720  10.601
 4464SOL    HW213935   2.095   1.752  10.458
 4465SOL     OW13936   2.802   1.698  10.214
 4465SOL    HW113937   2.882   1.641  10.235
 4465SOL    HW213938   2.753   1.658  10.137
 4466SOL     OW13939   2.244   0.700   9.790
 4466SOL    HW113940   2.289   0.610   9.787
 4466SOL    HW213941   2.150   0.689   9.823
 4467SOL     OW13942   3.409   0.222  11.039
 4467SOL    HW113943   3.404   0.259  11.131
 4467SOL    HW213944   3.337   0.153  11.027
 4468SOL     OW13945   2.476   0.122   9.427
 4468SOL    HW113946   2.574   0.100   9.434
 4468SOL    HW213947   2.445   0.105   9.334
 4469SOL     OW13948   2.643   0.264  11.059
 4469SOL    HW113949   2.710   0.203  11.102
 4469SOL    HW213950   2.570   0.283  11.124
 4470SOL     OW13951   2.750   1.514  10.505
 4470SOL    HW113952   2.727   1.489  10.411
 4470SOL    HW213953   2.811   1.445  10.544
 4471SOL     OW13954   3.213   0.590  10.743
 4471SOL    HW113955   3.241   0.547  10.828
 4471SOL    HW213956   3.238   0.686  10.744
 4472SOL     OW13957   2.665   1.402  10.234
 4472SOL    HW113958   2.755   1.416  10.192
 4472SOL    HW213959   2.594   1.404  10.163
 4473SOL     OW13960   2.784   0.503  10.209
 4473SOL    HW113961   2.759   0.494  10.113
 4473SOL    HW213962   2.832   0.421  10.240
 4474SOL     OW13963   2.401   0.064   9.822
 4474SOL    HW113964   2.320   0.065   9.880
 4474SOL    HW213965   2.404   0.147   9.767
 4475SOL     OW13966   3.296   1.188   9.351
 4475SOL    HW113967   3.328   1.112   9.408
 4475SOL    HW213968   3.204   1.215   9.381
 4476SOL     OW13969   2.159   0.035   9.481
 4476SOL    HW113970   2.208   0.119   9.460
 4476SOL    HW213971   2.221  -0.030   9.526
 4477SOL     OW13972   2.797   0.236   9.790
 4477SOL    HW113973   2.749   0.277   9.712
 4477SOL    HW213974   2.896   0.234   9.771
 4478SOL     OW13975   2.938   0.683  10.774
 4478SOL    HW113976   2.858   0.622  10.777
 4478SOL    HW213977   3.019   0.630  10.750
 4479SOL     OW13978   3.089   1.570  10.103
 4479SOL    HW113979   3.110   1.644  10.038
 4479SOL    HW213980   3.157   1.570  10.176
 4480SOL     OW13981   2.321   1.152  10.051
 4480SOL    HW113982   2.250   1.125  10.116
 4480SOL    HW213983   2.295   1.124   9.958
 4481SOL     OW13984   3.133   1.797   9.901
 4481SOL    HW113985   3.177   1.861   9.837
 4481SOL    HW213986   3.083   1.849   9.971
 4482SOL     OW13987   2.894   0.549   9.326
 4482SOL    HW113988   2.853   0.631   9.287
 4482SOL    HW213989   2.958   0.575   9.399
 4483SOL     OW13990   1.940   0.556  10.696
 4483SOL    HW113991   2.032   0.555  10.655
 4483SOL    HW213992   1.934   0.630  10.763
 4484SOL     OW13993   2.423   0.222  10.457
 4484SOL    HW113994   2.461   0.138  10.494
 4484SOL    HW213995   2.335   0.241  10.501
 4485SOL     OW13996   2.728   0.454   9.952
 4485SOL    HW113997   2.696   0.526   9.890
 4485SOL    HW213998   2.752   0.373   9.899
 4486SOL     OW13999   2.879   0.039  10.063
 4486SOL    HW114000   2.807   0.044   9.994
 4486SOL    HW214001   2.855  -0.030  10.132
 4487SOL     OW14002   3.291   1.173  10.177
 4487SOL    HW114003   3.236   1.089  10.170
 4487SOL    HW214004   3.317   1.202  10.085
 4488SOL     OW14005   3.328   0.590  10.302
 4488SOL    HW114006   3.298   0.495  10.309
 4488SOL    HW214007   3.401   0.606  10.368
 4489SOL     OW14008   3.719   0.833   9.687
 4489SOL    HW114009   3.761   0.769   9.751
 4489SOL    HW214010   3.681   0.782   9.609
 4490SOL     OW14011   2.350   1.385   9.484
 4490SOL    HW114012   2.263   1.370   9.531
 4490SOL    HW214013   2.333   1.411   9.389
 4491SOL     OW14014   3.526   1.280   9.967
 4491SOL    HW114015   3.625   1.288   9.981
 4491SOL    HW214016   3.481   1.364   9.998
 4492SOL     OW14017   3.252   0.575   9.388
 4492SOL    HW114018   3.198   0.554   9.469
 4492SOL    HW214019   3.343   0.534   9.397
 4493SOL     OW14020   2.389   0.256   9.638
 4493SOL    HW114021   2.416   0.197   9.563
 4493SOL    HW214022   2.389   0.351   9.607
 4494SOL     OW14023   3.616   1.223  10.898
 4494SOL    HW114024   3.707   1.184  10.885
 4494SOL    HW214025   3.624   1.319  10.922
 4495SOL     OW14026   2.926   1.347  10.650
 4495SOL    HW114027   2.846   1.324  10.705
 4495SOL    HW214028   3.009   1.321  10.699
 4496SOL     OW14029   3.454   1.629  10.935
 4496SOL    HW114030   3.481   1.663  10.845
 4496SOL    HW214031   3.533   1.591  10.981
 4497SOL     OW14032   2.973   1.195  10.410
 4497SOL    HW114033   2.933   1.239  10.491
 4497SOL    HW214034   2.932   1.232  10.327
 4498SOL     OW14035   3.500   1.099  10.389
 4498SOL    HW114036   3.505   1.180  10.448
 4498SOL    HW214037   3.414   1.101  10.338
 4499SOL     OW14038   2.777   0.089  10.712
 4499SOL    HW114039   2.802   0.069  10.617
 4499SOL    HW214040   2.849   0.145  10.754
 4500SOL     OW14041   2.842   1.116  11.029
 4500SOL    HW114042   2.743   1.122  11.039
 4500SOL    HW214043   2.865   1.036  10.973
 4501SOL     OW14044   2.567   1.050   9.678
 4501SOL    HW114045   2.553   1.057   9.777
 4501SOL    HW214046   2.651   0.999   9.660
 4502SOL     OW14047   2.272   0.813  10.561
 4502SOL    HW114048   2.358   0.825  10.611
 4502SOL    HW214049   2.230   0.726  10.588
 4503SOL     OW14050   3.136   0.386  10.572
 4503SOL    HW114051   3.157   0.460  10.636
 4503SOL    HW214052   3.047   0.403  10.529
 4504SOL     OW14053   1.926   1.564  10.641
 4504SOL    HW114054   1.880   1.646  10.607
 4504SOL    HW214055   2.024   1.583  10.650
 4505SOL     OW14056   2.229   1.100   9.811
 4505SOL    HW114057   2.222   1.183   9.755
 4505SOL    HW214058   2.233   1.020   9.751
 4506SOL     OW14059   2.428   0.537  10.175
 4506SOL    HW114060   2.440   0.603  10.101
 4506SOL    HW214061   2.474   0.571  10.258
 4507SOL     OW14062   3.114   1.348   9.698
 4507SOL    HW114063   3.164   1.425   9.738
 4507SOL    HW214064   3.019   1.350   9.730
 4508SOL     OW14065   3.134   1.445  10.452
 4508SOL    HW114066   3.181   1.458  10.539
 4508SOL    HW214067   3.068   1.371  10.461
 4509SOL     OW14068   3.444   0.639   9.782
 4509SOL    HW114069   3.413   0.700   9.855
 4509SOL    HW214070   3.494   0.691   9.713
 4510SOL     OW14071   2.216   1.510  10.639
 4510SOL    HW114072   2.195   1.466  10.552
 4510SOL    HW214073   2.313   1.536  10.642
 4511SOL     OW14074   2.264   0.751  10.908
 4511SOL    HW114075   2.332   0.806  10.861
 4511SOL    HW214076   2.304   0.663  10.935
 4512SOL     OW14077   3.449   0.779  10.980
 4512SOL    HW114078   3.357   0.817  10.975
 4512SOL    HW214079   3.509   0.826  10.915
 4513SOL     OW14080   2.875   0.105  11.080
 4513SOL    HW114081   2.881   0.190  11.028
 4513SOL    HW214082   2.907   0.029  11.023
 4514SOL     OW14083   2.366   0.050  11.050
 4514SOL    HW114084   2.324  -0.007  10.980
 4514SOL    HW214085   2.300   0.119  11.082
 4515SOL     OW14086   2.435   0.870  10.339
 4515SOL    HW114087   2.479   0.959  10.330
 4515SOL    HW214088   2.372   0.870  10.416
 4516SOL     OW14089   3.222   0.862  10.355
 4516SOL    HW114090   3.147   0.862  10.289
 4516SOL    HW214091   3.259   0.770  10.364
 4517SOL     OW14092   3.071   0.525   9.585
 4517SOL    HW114093   3.084   0.441   9.639
 4517SOL    HW214094   3.042   0.599   9.645
 4518SOL     OW14095   2.169   0.213  10.541
 4518SOL    HW114096   2.146   0.250  10.631
 4518SOL    HW214097   2.139   0.118  10.535
 4519SOL     OW14098   1.899   1.310  10.592
 4519SOL    HW114099   1.952   1.261  10.660
 4519SOL    HW214100   1.921   1.408  10.597
 4520SOL     OW14101   2.594   0.634  10.374
 4520SOL    HW114102   2.653   0.608  10.298
 4520SOL    HW214103   2.566   0.730  10.363
 4521SOL     OW14104   3.590   0.935  11.164
 4521SOL    HW114105   3.544   0.928  11.075
 4521SOL    HW214106   3.528   0.979  11.230
 4522SOL     OW14107   2.169   0.063   9.928
 4522SOL    HW114108   2.158   0.157   9.961
 4522SOL    HW214109   2.164   0.000  10.005
 4523SOL     OW14110   3.484   0.367   9.684
 4523SOL    HW114111   3.486   0.291   9.748
 4523SOL    HW214112   3.436   0.444   9.724
 4524SOL     OW14113   2.885   0.766  10.276
 4524SOL    HW114114   2.900   0.787  10.372
 4524SOL    HW214115   2.855   0.671  10.267
 4525SOL     OW14116   2.842   1.573  11.010
 4525SOL    HW114117   2.822   1.617  10.922
 4525SOL    HW214118   2.881   1.482  10.994
 4526SOL     OW14119   3.721   1.518  10.915
 4526SOL    HW114120   3.735   1.545  10.820
 4526SOL    HW214121   3.804   1.540  10.968
 4527SOL     OW14122   2.212   0.898  11.114
 4527SOL    HW114123   2.288   0.942  11.162
 4527SOL    HW214124   2.247   0.851  11.032
 4528SOL     OW14125   3.402   0.274   9.435
 4528SOL    HW114126   3.341   0.199   9.458
 4528SOL    HW214127   3.424   0.326   9.518
 4529SOL     OW14128   3.165   0.838   9.352
 4529SOL    HW114129   3.199   0.745   9.367
 4529SOL    HW214130   3.183   0.865   9.257
 4530SOL     OW14131   2.930   1.333  10.159
 4530SOL    HW114132   2.937   1.249  10.104
 4530SOL    HW214133   2.992   1.402  10.123
 4531SOL     OW14134   2.181   0.810  10.259
 4531SOL    HW114135   2.274   0.846  10.264
 4531SOL    HW214136   2.175   0.725  10.311
 4532SOL     OW14137   2.201   0.509  10.316
 4532SOL    HW114138   2.149   0.426  10.299
 4532SOL    HW214139   2.278   0.514  10.252
 4533SOL     OW14140   3.000   0.380  10.988
 4533SOL    HW114141   2.955   0.443  11.052
 4533SOL    HW214142   3.093   0.411  10.971
 4534SOL     OW14143   3.022   0.207  10.787
 4534SOL    HW114144   3.022   0.271  10.864
 4534SOL    HW214145   3.050   0.255  10.704
 4535SOL     OW14146   1.870   1.326   9.510
 4535SOL    HW114147   1.777   1.347   9.479
 4535SOL    HW214148   1.880   1.227   9.523
 4536SOL     OW14149   1.950   1.801  10.237
 4536SOL    HW114150   1.908   1.715  10.210
 4536SOL    HW214151   2.044   1.804  10.203
 4537SOL     OW14152   2.366   1.568  10.220
 4537SOL    HW114153   2.432   1.642  10.229
 4537SOL    HW214154   2.410   1.489  10.178
 4538SOL     OW14155   2.864   0.796  10.548
 4538SOL    HW114156   2.905   0.764  10.634
 4538SOL    HW214157   2.768   0.769  10.545
 4539SOL     OW14158   1.902   0.544  10.424
 4539SOL    HW114159   1.987   0.511  10.383
 4539SOL    HW214160   1.915   0.559  10.522
 4540SOL     OW14161   2.051   0.520  11.032
 4540SOL    HW114162   2.110   0.480  10.962
 4540SOL    HW214163   1.993   0.591  10.991
 4541SOL     OW14164   3.231   0.950  10.970
 4541SOL    HW114165   3.270   1.039  10.990
 4541SOL    HW214166   3.241   0.930  10.873
 4542SOL     OW14167   2.677   0.572   9.635
 4542SOL    HW114168   2.684   0.483   9.589
 4542SOL    HW214169   2.583   0.606   9.627
 4543SOL     OW14170   3.519   0.604  10.516
 4543SOL    HW114171   3.481   0.535  10.578
 4543SOL    HW214172   3.601   0.568  10.472
 4544SOL     OW14173   2.114   1.564  11.054
 4544SOL    HW114174   2.084   1.621  11.130
 4544SOL    HW214175   2.107   1.467  11.080
 4545SOL     OW14176   2.533   0.464  10.579
 4545SOL    HW114177   2.499   0.375  10.549
 4545SOL    HW214178   2.559   0.518  10.499
 4546SOL     OW14179   2.792   1.678  10.775
 4546SOL    HW114180   2.768   1.660  10.680
 4546SOL    HW214181   2.822   1.772  10.785
 4547SOL     OW14182   2.335   0.500   9.501
 4547SOL    HW114183   2.396   0.580   9.505
 4547SOL    HW214184   2.240   0.531   9.508
 4548SOL     OW14185   2.021   1.137  10.776
 4548SOL    HW114186   2.043   1.076  10.852
 4548SOL    HW214187   2.031   1.088  10.690
 4549SOL     OW14188   3.209   1.059  10.544
 4549SOL    HW114189   3.233   0.996  10.470
 4549SOL    HW214190   3.119   1.099  10.526
 4550SOL     OW14191   3.164   0.855   9.619
 4550SOL    HW114192   3.078   0.824   9.661
 4550SOL    HW214193   3.160   0.841   9.520
 4551SOL     OW14194   3.621   1.747  10.464
 4551SOL    HW114195   3.682   1.777  10.391
 4551SOL    HW214196   3.583   1.658  10.442
 4552SOL     OW14197   3.114   1.731  10.438
 4552SOL    HW114198   3.198   1.736  10.384
 4552SOL    HW214199   3.091   1.635  10.456
 4553SOL     OW14200   1.945   1.258  10.332
 4553SOL    HW114201   1.940   1.257  10.432
 4553SOL    HW214202   1.862   1.217  10.294
 4554SOL     OW14203   2.550   1.662  11.026
 4554SOL    HW114204   2.494   1.743  11.035
 4554SOL    HW214205   2.602   1.666  10.940
 4555SOL     OW14206   3.588   0.135   9.833
 4555SOL    HW114207   3.661   0.118   9.766
 4555SOL    HW214208   3.557   0.048   9.871
 4556SOL     OW14209   3.250   1.573   9.787
 4556SOL    HW114210   3.317   1.585   9.713
 4556SOL    HW214211   3.210   1.662   9.810
 4557SOL     OW14212   1.992   1.794  11.161
 4557SOL    HW114213   1.951   1.720  11.214
 4557SOL    HW214214   2.056   1.845  11.219
 4558SOL     OW14215   3.142   0.927   9.982
 4558SOL    HW114216   3.202   0.846   9.984
 4558SOL    HW214217   3.182   0.996   9.922
 4559SOL     OW14218   2.692   1.273  10.732
 4559SOL    HW114219   2.687   1.306  10.827
 4559SOL    HW214220   2.606   1.292  10.686
 4560SOL     OW14221   2.534   1.616   9.464
 4560SOL    HW114222   2.543   1.626   9.365
 4560SOL    HW214223   2.494   1.527   9.485
 4561SOL     OW14224   3.512   1.720  10.704
 4561SOL    HW114225   3.565   1.730  10.620
 4561SOL    HW214226   3.485   1.810  10.738
 4562SOL     OW14227   3.703   0.175  10.273
 4562SOL    HW114228   3.742   0.090  10.237
 4562SOL    HW214229   3.605   0.177  10.254
 4563SOL     OW14230   2.125   0.326  10.030
 4563SOL    HW114231   2.046   0.377   9.996
 4563SOL    HW214232   2.116   0.311  10.128
 4564SOL     OW14233   3.056   1.612   9.341
 4564SOL    HW114234   3.062   1.519   9.378
 4564SOL    HW214235   2.997   1.612   9.261
 4565SOL     OW14236   2.684   1.002  10.682
 4565SOL    HW114237   2.724   1.001  10.590
 4565SOL    HW214238   2.694   1.094  10.722
 4566SOL     OW14239   2.778   0.910   9.601
 4566SOL    HW114240   2.841   0.948   9.533
 4566SOL    HW214241   2.818   0.827   9.640
 4567SOL     OW14242   3.366   1.607   9.354
 4567SOL    HW114243   3.274   1.644   9.361
 4567SOL    HW214244   3.404   1.627   9.264
 4568SOL     OW14245   2.234   1.288  10.800
 4568SOL    HW114246   2.221   1.381  10.766
 4568SOL    HW214247   2.150   1.236  10.787
 4569SOL     OW14248   3.476   1.292  10.599
 4569SOL    HW114249   3.536   1.295  10.679
 4569SOL    HW214250   3.401   1.356  10.612
 4570SOL     OW14251   2.901   1.098  10.006
 4570SOL    HW114252   2.831   1.051  10.060
 4570SOL    HW214253   2.960   1.030   9.963
 4571SOL     OW14254   2.876   0.236  10.281
 4571SOL    HW114255   2.868   0.200  10.188
 4571SOL    HW214256   2.874   0.160  10.346
 4572SOL     OW14257   2.452   1.487   9.801
 4572SOL    HW114258   2.494   1.429   9.731
 4572SOL    HW214259   2.408   1.566   9.757
 4573SOL     OW14260   3.571   0.385  10.691
 4573SOL    HW114261   3.644   0.454  10.695
 4573SOL    HW214262   3.599   0.310  10.632
 4574SOL     OW14263   2.117   1.348   9.600
 4574SOL    HW114264   2.021   1.349   9.573
 4574SOL    HW214265   2.129   1.401   9.684
 4575SOL     OW14266   1.967   1.013  11.036
 4575SOL    HW114267   1.890   0.980  11.090
 4575SOL    HW214268   2.052   0.983  11.078
 4576SOL     OW14269   2.534   0.203  10.799
 4576SOL    HW114270   2.624   0.187  10.759
 4576SOL    HW214271   2.542   0.208  10.898
 4577SOL     OW14272   1.937   0.345   9.343
 4577SOL    HW114273   1.845   0.317   9.314
 4577SOL    HW214274   1.968   0.422   9.287
 4578SOL     OW14275   3.302   0.856  10.708
 4578SOL    HW114276   3.245   0.908  10.645
 4578SOL    HW214277   3.398   0.868  10.684
 4579SOL     OW14278   1.934   0.166   9.628
 4579SOL    HW114279   1.917   0.249   9.574
 4579SOL    HW214280   2.024   0.129   9.606
 4580SOL     OW14281   3.045   1.335   9.429
 4580SOL    HW114282   2.946   1.324   9.431
 4580SOL    HW214283   3.079   1.350   9.522
 4581SOL     OW14284   2.475   0.842  10.741
 4581SOL    HW114285   2.531   0.923  10.724
 4581SOL    HW214286   2.534   0.762  10.744
 4582SOL     OW14287   3.355   1.767  10.269
 4582SOL    HW114288   3.388   1.831  10.200
 4582SOL    HW214289   3.421   1.761  10.344
 4583SOL     OW14290   2.578   0.565  11.018
 4583SOL    HW114291   2.597   0.630  11.092
 4583SOL    HW214292   2.638   0.485  11.027
 4584SOL     OW14293   3.312   1.220  10.943
 4584SOL    HW114294   3.303   1.210  11.042
 4584SOL    HW214295   3.408   1.213  10.917
 4585SOL     OW14296   2.252   1.741  10.870
 4585SOL    HW114297   2.161   1.782  10.868
 4585SOL    HW214298   2.245   1.647  10.902
 4586SOL     OW14299   3.536   0.883  10.564
 4586SOL    HW114300   3.509   0.794  10.527
 4586SOL    HW214301   3.537   0.951  10.491
 4587SOL     OW14302   3.087   0.325   9.759
 4587SOL    HW114303   3.152   0.251   9.748
 4587SOL    HW214304   3.107   0.375   9.843
 4588SOL     OW14305   2.456   0.745   9.962
 4588SOL    HW114306   2.506   0.830   9.943
 4588SOL    HW214307   2.368   0.747   9.914
 4589SOL     OW14308   3.639   0.342  10.952
 4589SOL    HW114309   3.622   0.373  10.858
 4589SOL    HW214310   3.555   0.305  10.990
 4590SOL     OW14311   3.592   0.934  10.827
 4590SOL    HW114312   3.630   1.025  10.842
 4590SOL    HW214313   3.584   0.917  10.728
 4591SOL     OW14314   2.721   1.374   9.326
 4591SOL    HW114315   2.675   1.389   9.414
 4591SOL    HW214316   2.765   1.459   9.296
 4592SOL     OW14317   2.523   1.790  10.263
 4592SOL    HW114318   2.477   1.878  10.250
 4592SOL    HW214319   2.622   1.802  10.256
 4593SOL     OW14320   2.721   0.956  10.171
 4593SOL    HW114321   2.775   0.887  10.219
 4593SOL    HW214322   2.689   1.025  10.237
 4594SOL     OW14323   2.945   0.984   9.397
 4594SOL    HW114324   2.922   1.037   9.315
 4594SOL    HW214325   3.026   0.928   9.378
 4595SOL     OW14326   3.723   1.569  10.161
 4595SOL    HW114327   3.652   1.557  10.091
 4595SOL    HW214328   3.724   1.490  10.221
 4596SOL     OW14329   2.083   1.314  11.154
 4596SOL    HW114330   2.018   1.241  11.133
 4596SOL    HW214331   2.087   1.328  11.252
 4597SOL     OW14332   1.941   1.240   9.963
 4597SOL    HW114333   1.940   1.193  10.051
 4597SOL    HW214334   2.023   1.212   9.912
 4598SOL     OW14335   2.534   1.391  10.934
 4598SOL    HW114336   2.456   1.341  10.972
 4598SOL    HW214337   2.531   1.486  10.965
 4599SOL     OW14338   3.686   0.192  10.537
 4599SOL    HW114339   3.682   0.102  10.581
 4599SOL    HW214340   3.689   0.181  10.438
 4600SOL     OW14341   2.290   0.424   9.830
 4600SOL    HW114342   2.320   0.352   9.768
 4600SOL    HW214343   2.251   0.384   9.913
 4601SOL     OW14344   3.567   1.487  10.414
 4601SOL    HW114345   3.474   1.462  10.387
 4601SOL    HW214346   3.593   1.437  10.496
 4602SOL     OW14347   2.179   0.547  10.590
 4602SOL    HW114348   2.217   0.488  10.662
 4602SOL    HW214349   2.219   0.521  10.502
 4603SOL     OW14350   2.674   1.586   9.997
 4603SOL    HW114351   2.706   1.596   9.903
 4603SOL    HW214352   2.595   1.524   9.999
 4604SOL     OW14353   3.286   0.214  10.422
 4604SOL    HW114354   3.338   0.149  10.477
 4604SOL    HW214355   3.237   0.277  10.483
 4605SOL     OW14356   2.863   0.034  10.464
 4605SOL    HW114357   2.800  -0.038  10.433
 4605SOL    HW214358   2.956  -0.002  10.464
 4606SOL     OW14359   2.632   1.330   9.611
 4606SOL    HW114360   2.586   1.243   9.628
 4606SOL    HW214361   2.723   1.327   9.652
 4607SOL     OW14362   2.480   1.567  10.594
 4607SOL    HW114363   2.475   1.649  10.651
 4607SOL    HW214364   2.569   1.564  10.549
 4608SOL     OW14365   3.214   0.052   9.478
 4608SOL    HW114366   3.249   0.011   9.394
 4608SOL    HW214367   3.124   0.014   9.498
 4609SOL     OW14368   3.162   0.453  10.001
 4609SOL    HW114369   3.103   0.533  10.005
 4609SOL    HW214370   3.177   0.418  10.094
 4610SOL     OW14371   3.455   0.221  10.192
 4610SOL    HW114372   3.371   0.220  10.246
 4610SOL    HW214373   3.457   0.304  10.136
 4611SOL     OW14374   1.901   1.077   9.610
 4611SOL    HW114375   2.000   1.066   9.601
 4611SOL    HW214376   1.861   0.991   9.642
 4612SOL     OW14377   2.737   1.646   9.647
 4612SOL    HW114378   2.660   1.611   9.593
 4612SOL    HW214379   2.705   1.717   9.709
 4613SOL     OW14380   2.092   0.628  11.285
 4613SOL    HW114381   1.999   0.626  11.322
 4613SOL    HW214382   2.093   0.589  11.193
 4614SOL     OW14383   2.087   0.275  12.168
 4614SOL    HW114384   2.122   0.258  12.260
 4614SOL    HW214385   1.999   0.230  12.156
 4615SOL     OW14386   1.881   0.368  11.819
 4615SOL    HW114387   1.799   0.411  11.858
 4615SOL    HW214388   1.853   0.295  11.756
 4616SOL     OW14389   2.431   1.275  12.337
 4616SOL    HW114390   2.338   1.268  12.300
 4616SOL    HW214391   2.442   1.364  12.381
 4617SOL     OW14392   3.417   1.511  11.875
 4617SOL    HW114393   3.360   1.495  11.956
 4617SOL    HW214394   3.358   1.521  11.795
 4618SOL     OW14395   2.997   0.703  11.889
 4618SOL    HW114396   3.054   0.781  11.864
 4618SOL    HW214397   2.937   0.729  11.965
 4619SOL     OW14398   3.617   0.607  11.403
 4619SOL    HW114399   3.605   0.594  11.304
 4619SOL    HW214400   3.587   0.526  11.452
 4620SOL     OW14401   2.630   1.144  12.195
 4620SOL    HW114402   2.552   1.161  12.255
 4620SOL    HW214403   2.664   1.231  12.159
 4621SOL     OW14404   2.712   0.798  12.995
 4621SOL    HW114405   2.708   0.874  13.060
 4621SOL    HW214406   2.734   0.834  12.904
 4622SOL     OW14407   2.547   1.012  11.837
 4622SOL    HW114408   2.616   0.996  11.907
 4622SOL    HW214409   2.474   1.069  11.875
 4623SOL     OW14410   2.548   1.161  12.975
 4623SOL    HW114411   2.608   1.240  12.989
 4623SOL    HW214412   2.462   1.192  12.934
 4624SOL     OW14413   2.197   1.435  12.233
 4624SOL    HW114414   2.119   1.404  12.180
 4624SOL    HW214415   2.255   1.493  12.176
 4625SOL     OW14416   3.322   1.505  12.511
 4625SOL    HW114417   3.346   1.599  12.537
 4625SOL    HW214418   3.306   1.451  12.593
 4626SOL     OW14419   2.300   0.392  12.671
 4626SOL    HW114420   2.382   0.336  12.680
 4626SOL    HW214421   2.219   0.334  12.675
 4627SOL     OW14422   3.465   0.447  11.909
 4627SOL    HW114423   3.391   0.493  11.859
 4627SOL    HW214424   3.516   0.515  11.962
 4628SOL     OW14425   2.093   1.713  11.655
 4628SOL    HW114426   2.127   1.790  11.709
 4628SOL    HW214427   2.137   1.713  11.565
 4629SOL     OW14428   2.989   1.341  12.862
 4629SOL    HW114429   3.036   1.341  12.950
 4629SOL    HW214430   2.941   1.254  12.851
 4630SOL     OW14431   2.092   1.434  11.710
 4630SOL    HW114432   2.066   1.530  11.710
 4630SOL    HW214433   2.021   1.380  11.755
 4631SOL     OW14434   2.102   1.091  12.058
 4631SOL    HW114435   2.116   1.007  12.110
 4631SOL    HW214436   2.047   1.155  12.113
 4632SOL     OW14437   2.482   1.786  12.611
 4632SOL    HW114438   2.390   1.769  12.646
 4632SOL    HW214439   2.510   1.878  12.637
 4633SOL     OW14440   2.468   0.964  11.295
 4633SOL    HW114441   2.475   1.048  11.241
 4633SOL    HW214442   2.514   0.977  11.383
 4634SOL     OW14443   3.456   0.114  12.652
 4634SOL    HW114444   3.438   0.181  12.580
 4634SOL    HW214445   3.453   0.160  12.741
 4635SOL     OW14446   1.984   0.643  11.735
 4635SOL    HW114447   1.939   0.555  11.752
 4635SOL    HW214448   1.983   0.697  11.819
 4636SOL     OW14449   3.704   1.767  11.531
 4636SOL    HW114450   3.758   1.738  11.611
 4636SOL    HW214451   3.734   1.857  11.502
 4637SOL     OW14452   1.889   1.596  11.289
 4637SOL    HW114453   1.870   1.500  11.310
 4637SOL    HW214454   1.856   1.654  11.364
 4638SOL     OW14455   3.551   0.922  11.784
 4638SOL    HW114456   3.646   0.893  11.792
 4638SOL    HW214457   3.543   0.987  11.709
 4639SOL     OW14458   3.503   1.108  11.604
 4639SOL    HW114459   3.589   1.110  11.552
 4639SOL    HW214460   3.517   1.155  11.692
 4640SOL     OW14461   1.975   0.737  12.769
 4640SOL    HW114462   2.063   0.724  12.814
 4640SOL    HW214463   1.962   0.834  12.747
 4641SOL     OW14464   2.475   1.365  11.898
 4641SOL    HW114465   2.426   1.278  11.907
 4641SOL    HW214466   2.452   1.408  11.811
 4642SOL     OW14467   3.155   1.228  12.595
 4642SOL    HW114468   3.192   1.155  12.537
 4642SOL    HW214469   3.207   1.233  12.680
 4643SOL     OW14470   2.671   0.004  11.674
 4643SOL    HW114471   2.711   0.095  11.665
 4643SOL    HW214472   2.571   0.012  11.680
 4644SOL     OW14473   2.059   0.976  12.436
 4644SOL    HW114474   2.148   0.931  12.422
 4644SOL    HW214475   1.986   0.911  12.417
 4645SOL     OW14476   3.387   0.999  11.362
 4645SOL    HW114477   3.324   0.923  11.375
 4645SOL    HW214478   3.435   1.017  11.448
 4646SOL     OW14479   3.049   1.792  12.788
 4646SOL    HW114480   3.073   1.852  12.712
 4646SOL    HW214481   3.056   1.697  12.758
 4647SOL     OW14482   2.179   0.251  12.973
 4647SOL    HW114483   2.250   0.322  12.979
 4647SOL    HW214484   2.091   0.290  13.001
 4648SOL     OW14485   3.328   1.417  12.125
 4648SOL    HW114486   3.269   1.423  12.205
 4648SOL    HW214487   3.313   1.329  12.079
 4649SOL     OW14488   3.529   1.714  11.744
 4649SOL    HW114489   3.488   1.691  11.656
 4649SOL    HW214490   3.511   1.640  11.809
 4650SOL     OW14491   2.460   0.729  11.442
 4650SOL    HW114492   2.484   0.798  11.374
 4650SOL    HW214493   2.382   0.762  11.496
 4651SOL     OW14494   3.143   0.345  12.116
 4651SOL    HW114495   3.057   0.295  12.103
 4651SOL    HW214496   3.205   0.291  12.172
 4652SOL     OW14497   3.438   1.662  11.479
 4652SOL    HW114498   3.527   1.708  11.482
 4652SOL    HW214499   3.417   1.638  11.384
 4653SOL     OW14500   2.669   0.605  12.637
 4653SOL    HW114501   2.622   0.602  12.726
 4653SOL    HW214502   2.618   0.550  12.571
 4654SOL     OW14503   3.256   0.469  12.846
 4654SOL    HW114504   3.236   0.512  12.934
 4654SOL    HW214505   3.334   0.407  12.855
 4655SOL     OW14506   2.835   0.890  12.744
 4655SOL    HW114507   2.881   0.806  12.715
 4655SOL    HW214508   2.779   0.924  12.669
 4656SOL     OW14509   2.853   0.410  12.414
 4656SOL    HW114510   2.776   0.444  12.468
 4656SOL    HW214511   2.819   0.359  12.335
 4657SOL     OW14512   2.903   0.701  11.601
 4657SOL    HW114513   2.929   0.697  11.697
 4657SOL    HW214514   2.818   0.650  11.587
 4658SOL     OW14515   1.938   0.811  11.961
 4658SOL    HW114516   2.037   0.799  11.970
 4658SOL    HW214517   1.914   0.906  11.982
 4659SOL     OW14518   2.727   0.348  11.367
 4659SOL    HW114519   2.786   0.411  11.318
 4659SOL    HW214520   2.746   0.254  11.338
 4660SOL     OW14521   3.581   0.585  13.003
 4660SOL    HW114522   3.555   0.674  12.967
 4660SOL    HW214523   3.579   0.517  12.930
 4661SOL     OW14524   3.224   1.144  11.717
 4661SOL    HW114525   3.307   1.115  11.669
 4661SOL    HW214526   3.175   1.211  11.661
 4662SOL     OW14527   2.412   0.196  12.057
 4662SOL    HW114528   2.407   0.191  12.157
 4662SOL    HW214529   2.414   0.292  12.028
 4663SOL     OW14530   2.870   1.456  11.649
 4663SOL    HW114531   2.824   1.528  11.597
 4663SOL    HW214532   2.866   1.476  11.747
 4664SOL     OW14533   2.213   1.801  12.025
 4664SOL    HW114534   2.263   1.715  12.031
 4664SOL    HW214535   2.278   1.878  12.022
 4665SOL     OW14536   3.657   1.066  12.045
 4665SOL    HW114537   3.595   1.051  11.969
 4665SOL    HW214538   3.605   1.077  12.130
 4666SOL     OW14539   3.089   1.550  12.678
 4666SOL    HW114540   3.095   1.473  12.742
 4666SOL    HW214541   3.037   1.524  12.598
 4667SOL     OW14542   2.183   0.943  11.414
 4667SOL    HW114543   2.265   0.982  11.372
 4667SOL    HW214544   2.156   0.861  11.365
 4668SOL     OW14545   3.320   0.735  11.900
 4668SOL    HW114546   3.315   0.670  11.975
 4668SOL    HW214547   3.400   0.794  11.913
 4669SOL     OW14548   2.323   1.266  12.899
 4669SOL    HW114549   2.273   1.267  12.813
 4669SOL    HW214550   2.260   1.248  12.975
 4670SOL     OW14551   2.973   1.776  11.409
 4670SOL    HW114552   2.913   1.714  11.459
 4670SOL    HW214553   3.004   1.732  11.324
 4671SOL     OW14554   2.064   0.285  12.670
 4671SOL    HW114555   1.984   0.345  12.657
 4671SOL    HW214556   2.054   0.236  12.756
 4672SOL     OW14557   3.494   1.377  11.253
 4672SOL    HW114558   3.462   1.471  11.243
 4672SOL    HW214559   3.418   1.314  11.241
 4673SOL     OW14560   2.326   1.743  11.495
 4673SOL    HW114561   2.359   1.782  11.581
 4673SOL    HW214562   2.402   1.736  11.430
 4674SOL     OW14563   3.262   0.107  11.598
 4674SOL    HW114564   3.238   0.070  11.508
 4674SOL    HW214565   3.361   0.123  11.602
 4675SOL     OW14566   2.111   1.785  12.413
 4675SOL    HW114567   2.168   1.720  12.463
 4675SOL    HW214568   2.095   1.752  12.320
 4676SOL     OW14569   2.802   1.698  12.076
 4676SOL    HW114570   2.882   1.641  12.097
 4676SOL    HW214571   2.753   1.658  11.999
 4677SOL     OW14572   2.244   0.700  11.652
 4677SOL    HW114573   2.289   0.610  11.649
 4677SOL    HW214574   2.150   0.689  11.685
 4678SOL     OW14575   3.409   0.222  12.901
 4678SOL    HW114576   3.404   0.259  12.993
 4678SOL    HW214577   3.337   0.153  12.889
 4679SOL     OW14578   2.476   0.122  11.289
 4679SOL    HW114579   2.574   0.100  11.296
 4679SOL    HW214580   2.445   0.105  11.196
 4680SOL     OW14581   2.643   0.264  12.921
 4680SOL    HW114582   2.710   0.203  12.964
 4680SOL    HW214583   2.570   0.283  12.986
 4681SOL     OW14584   2.750   1.514  12.367
 4681SOL    HW114585   2.727   1.489  12.273
 4681SOL    HW214586   2.811   1.445  12.406
 4682SOL     OW14587   3.213   0.590  12.605
 4682SOL    HW114588   3.241   0.547  12.690
 4682SOL    HW214589   3.238   0.686  12.606
 4683SOL     OW14590   2.665   1.402  12.096
 4683SOL    HW114591   2.755   1.416  12.054
 4683SOL    HW214592   2.594   1.404  12.025
 4684SOL     OW14593   2.784   0.503  12.071
 4684SOL    HW114594   2.759   0.494  11.975
 4684SOL    HW214595   2.832   0.421  12.102
 4685SOL     OW14596   2.401   0.064  11.684
 4685SOL    HW114597   2.320   0.065  11.742
 4685SOL    HW214598   2.404   0.147  11.629
 4686SOL     OW14599   3.296   1.188  11.213
 4686SOL    HW114600   3.328   1.112  11.270
 4686SOL    HW214601   3.204   1.215  11.243
 4687SOL     OW14602   2.159   0.035  11.343
 4687SOL    HW114603   2.208   0.119  11.322
 4687SOL    HW214604   2.221  -0.030  11.388
 4688SOL     OW14605   2.797   0.236  11.652
 4688SOL    HW114606   2.749   0.277  11.574
 4688SOL    HW214607   2.896   0.234  11.633
 4689SOL     OW14608   2.938   0.683  12.636
 4689SOL    HW114609   2.858   0.622  12.639
 4689SOL    HW214610   3.019   0.630  12.612
 4690SOL     OW14611   3.089   1.570  11.965
 4690SOL    HW114612   3.110   1.644  11.900
 4690SOL    HW214613   3.157   1.570  12.038
 4691SOL     OW14614   2.321   1.152  11.913
 4691SOL    HW114615   2.250   1.125  11.978
 4691SOL    HW214616   2.295   1.124  11.820
 4692SOL     OW14617   3.133   1.797  11.763
 4692SOL    HW114618   3.177   1.861  11.699
 4692SOL    HW214619   3.083   1.849  11.833
 4693SOL     OW14620   2.894   0.549  11.188
 4693SOL    HW114621   2.853   0.631  11.149
 4693SOL    HW214622   2.958   0.575  11.261
 4694SOL     OW14623   1.940   0.556  12.558
 4694SOL    HW114624   2.032   0.555  12.517
 4694SOL    HW214625   1.934   0.630  12.625
 4695SOL     OW14626   2.423   0.222  12.319
 4695SOL    HW114627   2.461   0.138  12.356
 4695SOL    HW214628   2.335   0.241  12.363
 4696SOL     OW14629   2.728   0.454  11.814
 4696SOL    HW114630   2.696   0.526  11.752
 4696SOL    HW214631   2.752   0.373  11.761
 4697SOL     OW14632   2.879   0.039  11.925
 4697SOL    HW114633   2.807   0.044  11.856
 4697SOL    HW214634   2.855  -0.030  11.994
 4698SOL     OW14635   3.291   1.173  12.039
 4698SOL    HW114636   3.236   1.089  12.032
 4698SOL    HW214637   3.317   1.202  11.947
 4699SOL     OW14638   3.328   0.590  12.164
 4699SOL    HW114639   3.298   0.495  12.171
 4699SOL    HW214640   3.401   0.606  12.230
 4700SOL     OW14641   3.719   0.833  11.549
 4700SOL    HW114642   3.761   0.769  11.613
 4700SOL    HW214643   3.681   0.782  11.471
 4701SOL     OW14644   2.350   1.385  11.346
 4701SOL    HW114645   2.263   1.370  11.393
 4701SOL    HW214646   2.333   1.411  11.251
 4702SOL     OW14647   3.526   1.280  11.829
 4702SOL    HW114648   3.625   1.288  11.843
 4702SOL    HW214649   3.481   1.364  11.860
 4703SOL     OW14650   3.252   0.575  11.250
 4703SOL    HW114651   3.198   0.554  11.331
 4703SOL    HW214652   3.343   0.534  11.259
 4704SOL     OW14653   2.389   0.256  11.500
 4704SOL    HW114654   2.416   0.197  11.425
 4704SOL    HW214655   2.389   0.351  11.469
 4705SOL     OW14656   3.616   1.223  12.760
 4705SOL    HW114657   3.707   1.184  12.747
 4705SOL    HW214658   3.624   1.319  12.784
 4706SOL     OW14659   2.926   1.347  12.512
 4706SOL    HW114660   2.846   1.324  12.567
 4706SOL    HW214661   3.009   1.321  12.561
 4707SOL     OW14662   3.454   1.629  12.797
 4707SOL    HW114663   3.481   1.663  12.707
 4707SOL    HW214664   3.533   1.591  12.843
 4708SOL     OW14665   2.973   1.195  12.272
 4708SOL    HW114666   2.933   1.239  12.353
 4708SOL    HW214667   2.932   1.232  12.189
 4709SOL     OW14668   3.500   1.099  12.251
 4709SOL    HW114669   3.505   1.180  12.310
 4709SOL    HW214670   3.414   1.101  12.200
 4710SOL     OW14671   2.777   0.089  12.574
 4710SOL    HW114672   2.802   0.069  12.479
 4710SOL    HW214673   2.849   0.145  12.616
 4711SOL     OW14674   2.842   1.116  12.891
 4711SOL    HW114675   2.743   1.122  12.901
 4711SOL    HW214676   2.865   1.036  12.835
 4712SOL     OW14677   2.567   1.050  11.540
 4712SOL    HW114678   2.553   1.057  11.639
 4712SOL    HW214679   2.651   0.999  11.522
 4713SOL     OW14680   2.272   0.813  12.423
 4713SOL    HW114681   2.358   0.825  12.473
 4713SOL    HW214682   2.230   0.726  12.450
 4714SOL     OW14683   3.136   0.386  12.434
 4714SOL    HW114684   3.157   0.460  12.498
 4714SOL    HW214685   3.047   0.403  12.391
 4715SOL     OW14686   1.926   1.564  12.503
 4715SOL    HW114687   1.880   1.646  12.469
 4715SOL    HW214688   2.024   1.583  12.512
 4716SOL     OW14689   2.229   1.100  11.673
 4716SOL    HW114690   2.222   1.183  11.617
 4716SOL    HW214691   2.233   1.020  11.613
 4717SOL     OW14692   2.428   0.537  12.037
 4717SOL    HW114693   2.440   0.603  11.963
 4717SOL    HW214694   2.474   0.571  12.120
 4718SOL     OW14695   3.114   1.348  11.560
 4718SOL    HW114696   3.164   1.425  11.600
 4718SOL    HW214697   3.019   1.350  11.592
 4719SOL     OW14698   3.134   1.445  12.314
 4719SOL    HW114699   3.181   1.458  12.401
 4719SOL    HW214700   3.068   1.371  12.323
 4720SOL     OW14701   3.444   0.639  11.644
 4720SOL    HW114702   3.413   0.700  11.717
 4720SOL    HW214703   3.494   0.691  11.575
 4721SOL     OW14704   2.216   1.510  12.501
 4721SOL    HW114705   2.195   1.466  12.414
 4721SOL    HW214706   2.313   1.536  12.504
 4722SOL     OW14707   2.264   0.751  12.770
 4722SOL    HW114708   2.332   0.806  12.723
 4722SOL    HW214709   2.304   0.663  12.797
 4723SOL     OW14710   3.449   0.779  12.842
 4723SOL    HW114711   3.357   0.817  12.837
 4723SOL    HW214712   3.509   0.826  12.777
 4724SOL     OW14713   2.875   0.105  12.942
 4724SOL    HW114714   2.881   0.190  12.890
 4724SOL    HW214715   2.907   0.029  12.885
 4725SOL     OW14716   2.366   0.050  12.912
 4725SOL    HW114717   2.324  -0.007  12.842
 4725SOL    HW214718   2.300   0.119  12.944
 4726SOL     OW14719   2.435   0.870  12.201
 4726SOL    HW114720   2.479   0.959  12.192
 4726SOL    HW214721   2.372   0.870  12.278
 4727SOL     OW14722   3.222   0.862  12.217
 4727SOL    HW114723   3.147   0.862  12.151
 4727SOL    HW214724   3.259   0.770  12.226
 4728SOL     OW14725   3.071   0.525  11.447
 4728SOL    HW114726   3.084   0.441  11.501
 4728SOL    HW214727   3.042   0.599  11.507
 4729SOL     OW14728   2.169   0.213  12.403
 4729SOL    HW114729   2.146   0.250  12.493
 4729SOL    HW214730   2.139   0.118  12.397
 4730SOL     OW14731   1.899   1.310  12.454
 4730SOL    HW114732   1.952   1.261  12.522
 4730SOL    HW214733   1.921   1.408  12.459
 4731SOL     OW14734   2.594   0.634  12.236
 4731SOL    HW114735   2.653   0.608  12.160
 4731SOL    HW214736   2.566   0.730  12.225
 4732SOL     OW14737   3.590   0.935  13.026
 4732SOL    HW114738   3.544   0.928  12.937
 4732SOL    HW214739   3.528   0.979  13.092
 4733SOL     OW14740   2.169   0.063  11.790
 4733SOL    HW114741   2.158   0.157  11.823
 4733SOL    HW214742   2.164   0.000  11.867
 4734SOL     OW14743   3.484   0.367  11.546
 4734SOL    HW114744   3.486   0.291  11.610
 4734SOL    HW214745   3.436   0.444  11.586
 4735SOL     OW14746   2.885   0.766  12.138
 4735SOL    HW114747   2.900   0.787  12.234
 4735SOL    HW214748   2.855   0.671  12.129
 4736SOL     OW14749   2.842   1.573  12.872
 4736SOL    HW114750   2.822   1.617  12.784
 4736SOL    HW214751   2.881   1.482  12.856
 4737SOL     OW14752   3.721   1.518  12.777
 4737SOL    HW114753   3.735   1.545  12.682
 4737SOL    HW214754   3.804   1.540  12.830
 4738SOL     OW14755   2.212   0.898  12.976
 4738SOL    HW114756   2.288   0.942  13.024
 4738SOL    HW214757   2.247   0.851  12.894
 4739SOL     OW14758   3.402   0.274  11.297
 4739SOL    HW114759   3.341   0.199  11.320
 4739SOL    HW214760   3.424   0.326  11.380
 4740SOL     OW14761   3.165   0.838  11.214
 4740SOL    HW114762   3.199   0.745  11.229
 4740SOL    HW214763   3.183   0.865  11.119
 4741SOL     OW14764   2.930   1.333  12.021
 4741SOL    HW114765   2.937   1.249  11.966
 4741SOL    HW214766   2.992   1.402  11.985
 4742SOL     OW14767   2.181   0.810  12.121
 4742SOL    HW114768   2.274   0.846  12.126
 4742SOL    HW214769   2.175   0.725  12.173
 4743SOL     OW14770   2.201   0.509  12.178
 4743SOL    HW114771   2.149   0.426  12.161
 4743SOL    HW214772   2.278   0.514  12.114
 4744SOL     OW14773   3.000   0.380  12.850
 4744SOL    HW114774   2.955   0.443  12.914
 4744SOL    HW214775   3.093   0.411  12.833
 4745SOL     OW14776   3.022   0.207  12.649
 4745SOL    HW114777   3.022   0.271  12.726
 4745SOL    HW214778   3.050   0.255  12.566
 4746SOL     OW14779   1.870   1.326  11.372
 4746SOL    HW114780   1.777   1.347  11.341
 4746SOL    HW214781   1.880   1.227  11.385
 4747SOL     OW14782   1.950   1.801  12.099
 4747SOL    HW114783   1.908   1.715  12.072
 4747SOL    HW214784   2.044   1.804  12.065
 4748SOL     OW14785   2.366   1.568  12.082
 4748SOL    HW114786   2.432   1.642  12.091
 4748SOL    HW214787   2.410   1.489  12.040
 4749SOL     OW14788   2.864   0.796  12.410
 4749SOL    HW114789   2.905   0.764  12.496
 4749SOL    HW214790   2.768   0.769  12.407
 4750SOL     OW14791   1.902   0.544  12.286
 4750SOL    HW114792   1.987   0.511  12.245
 4750SOL    HW214793   1.915   0.559  12.384
 4751SOL     OW14794   2.051   0.520  12.894
 4751SOL    HW114795   2.110   0.480  12.824
 4751SOL    HW214796   1.993   0.591  12.853
 4752SOL     OW14797   3.231   0.950  12.832
 4752SOL    HW114798   3.270   1.039  12.852
 4752SOL    HW214799   3.241   0.930  12.735
 4753SOL     OW14800   2.677   0.572  11.497
 4753SOL    HW114801   2.684   0.483  11.451
 4753SOL    HW214802   2.583   0.606  11.489
 4754SOL     OW14803   3.519   0.604  12.378
 4754SOL    HW114804   3.481   0.535  12.440
 4754SOL    HW214805   3.601   0.568  12.334
 4755SOL     OW14806   2.114   1.564  12.916
 4755SOL    HW114807   2.084   1.621  12.992
 4755SOL    HW214808   2.107   1.467  12.942
 4756SOL     OW14809   2.533   0.464  12.441
 4756SOL    HW114810   2.499   0.375  12.411
 4756SOL    HW214811   2.559   0.518  12.361
 4757SOL     OW14812   2.792   1.678  12.637
 4757SOL    HW114813   2.768   1.660  12.542
 4757SOL    HW214814   2.822   1.772  12.647
 4758SOL     OW14815   2.335   0.500  11.363
 4758SOL    HW114816   2.396   0.580  11.367
 4758SOL    HW214817   2.240   0.531  11.370
 4759SOL     OW14818   2.021   1.137  12.638
 4759SOL    HW114819   2.043   1.076  12.714
 4759SOL    HW214820   2.031   1.088  12.552
 4760SOL     OW14821   3.209   1.059  12.406
 4760SOL    HW114822   3.233   0.996  12.332
 4760SOL    HW214823   3.119   1.099  12.388
 4761SOL     OW14824   3.164   0.855  11.481
 4761SOL    HW114825   3.078   0.824  11.523
 4761SOL    HW214826   3.160   0.841  11.382
 4762SOL     OW14827   3.621   1.747  12.326
 4762SOL    HW114828   3.682   1.777  12.253
 4762SOL    HW214829   3.583   1.658  12.304
 4763SOL     OW14830   3.114   1.731  12.300
 4763SOL    HW114831   3.198   1.736  12.246
 4763SOL    HW214832   3.091   1.635  12.318
 4764SOL     OW14833   1.945   1.258  12.194
 4764SOL    HW114834   1.940   1.257  12.294
 4764SOL    HW214835   1.862   1.217  12.156
 4765SOL     OW14836   2.550   1.662  12.888
 4765SOL    HW114837   2.494   1.743  12.897
 4765SOL    HW214838   2.602   1.666  12.802
 4766SOL     OW14839   3.588   0.135  11.695
 4766SOL    HW114840   3.661   0.118  11.628
 4766SOL    HW214841   3.557   0.048  11.733
 4767SOL     OW14842   3.250   1.573  11.649
 4767SOL    HW114843   3.317   1.585  11.575
 4767SOL    HW214844   3.210   1.662  11.672
 4768SOL     OW14845   1.992   1.794  13.023
 4768SOL    HW114846   1.951   1.720  13.076
 4768SOL    HW214847   2.056   1.845  13.081
 4769SOL     OW14848   3.142   0.927  11.844
 4769SOL    HW114849   3.202   0.846  11.846
 4769SOL    HW214850   3.182   0.996  11.784
 4770SOL     OW14851   2.692   1.273  12.594
 4770SOL    HW114852   2.687   1.306  12.689
 4770SOL    HW214853   2.606   1.292  12.548
 4771SOL     OW14854   2.534   1.616  11.326
 4771SOL    HW114855   2.543   1.626  11.227
 4771SOL    HW214856   2.494   1.527  11.347
 4772SOL     OW14857   3.512   1.720  12.566
 4772SOL    HW114858   3.565   1.730  12.482
 4772SOL    HW214859   3.485   1.810  12.600
 4773SOL     OW14860   3.703   0.175  12.135
 4773SOL    HW114861   3.742   0.090  12.099
 4773SOL    HW214862   3.605   0.177  12.116
 4774SOL     OW14863   2.125   0.326  11.892
 4774SOL    HW114864   2.046   0.377  11.858
 4774SOL    HW214865   2.116   0.311  11.990
 4775SOL     OW14866   3.056   1.612  11.203
 4775SOL    HW114867   3.062   1.519  11.240
 4775SOL    HW214868   2.997   1.612  11.123
 4776SOL     OW14869   2.684   1.002  12.544
 4776SOL    HW114870   2.724   1.001  12.452
 4776SOL    HW214871   2.694   1.094  12.584
 4777SOL     OW14872   2.778   0.910  11.463
 4777SOL    HW114873   2.841   0.948  11.395
 4777SOL    HW214874   2.818   0.827  11.502
 4778SOL     OW14875   3.366   1.607  11.216
 4778SOL    HW114876   3.274   1.644  11.223
 4778SOL    HW214877   3.404   1.627  11.126
 4779SOL     OW14878   2.234   1.288  12.662
 4779SOL    HW114879   2.221   1.381  12.628
 4779SOL    HW214880   2.150   1.236  12.649
 4780SOL     OW14881   3.476   1.292  12.461
 4780SOL    HW114882   3.536   1.295  12.541
 4780SOL    HW214883   3.401   1.356  12.474
 4781SOL     OW14884   2.901   1.098  11.868
 4781SOL    HW114885   2.831   1.051  11.922
 4781SOL    HW214886   2.960   1.030  11.825
 4782SOL     OW14887   2.876   0.236  12.143
 4782SOL    HW114888   2.868   0.200  12.050
 4782SOL    HW214889   2.874   0.160  12.208
 4783SOL     OW14890   2.452   1.487  11.663
 4783SOL    HW114891   2.494   1.429  11.593
 4783SOL    HW214892   2.408   1.566  11.619
 4784SOL     OW14893   3.571   0.385  12.553
 4784SOL    HW114894   3.644   0.454  12.557
 4784SOL    HW214895   3.599   0.310  12.494
 4785SOL     OW14896   2.117   1.348  11.462
 4785SOL    HW114897   2.021   1.349  11.435
 4785SOL    HW214898   2.129   1.401  11.546
 4786SOL     OW14899   1.967   1.013  12.898
 4786SOL    HW114900   1.890   0.980  12.952
 4786SOL    HW214901   2.052   0.983  12.940
 4787SOL     OW14902   2.534   0.203  12.661
 4787SOL    HW114903   2.624   0.187  12.621
 4787SOL    HW214904   2.542   0.208  12.760
 4788SOL     OW14905   1.937   0.345  11.205
 4788SOL    HW114906   1.845   0.317  11.176
 4788SOL    HW214907   1.968   0.422  11.149
 4789SOL     OW14908   3.302   0.856  12.570
 4789SOL    HW114909   3.245   0.908  12.507
 4789SOL    HW214910   3.398   0.868  12.546
 4790SOL     OW14911   1.934   0.166  11.490
 4790SOL    HW114912   1.917   0.249  11.436
 4790SOL    HW214913   2.024   0.129  11.468
 4791SOL     OW14914   3.045   1.335  11.291
 4791SOL    HW114915   2.946   1.324  11.293
 4791SOL    HW214916   3.079   1.350  11.384
 4792SOL     OW14917   2.475   0.842  12.603
 4792SOL    HW114918   2.531   0.923  12.586
 4792SOL    HW214919   2.534   0.762  12.606
 4793SOL     OW14920   3.355   1.767  12.131
 4793SOL    HW114921   3.388   1.831  12.062
 4793SOL    HW214922   3.421   1.761  12.206
 4794SOL     OW14923   2.578   0.565  12.880
 4794SOL    HW114924   2.597   0.630  12.954
 4794SOL    HW214925   2.638   0.485  12.889
 4795SOL     OW14926   3.312   1.220  12.805
 4795SOL    HW114927   3.303   1.210  12.904
 4795SOL    HW214928   3.408   1.213  12.779
 4796SOL     OW14929   2.252   1.741  12.732
 4796SOL    HW114930   2.161   1.782  12.730
 4796SOL    HW214931   2.245   1.647  12.764
 4797SOL     OW14932   3.536   0.883  12.426
 4797SOL    HW114933   3.509   0.794  12.389
 4797SOL    HW214934   3.537   0.951  12.353
 4798SOL     OW14935   3.087   0.325  11.621
 4798SOL    HW114936   3.152   0.251  11.610
 4798SOL    HW214937   3.107   0.375  11.705
 4799SOL     OW14938   2.456   0.745  11.824
 4799SOL    HW114939   2.506   0.830  11.805
 4799SOL    HW214940   2.368   0.747  11.776
 4800SOL     OW14941   3.639   0.342  12.814
 4800SOL    HW114942   3.622   0.373  12.720
 4800SOL    HW214943   3.555   0.305  12.852
 4801SOL     OW14944   3.592   0.934  12.689
 4801SOL    HW114945   3.630   1.025  12.704
 4801SOL    HW214946   3.584   0.917  12.590
 4802SOL     OW14947   2.721   1.374  11.188
 4802SOL    HW114948   2.675   1.389  11.276
 4802SOL    HW214949   2.765   1.459  11.158
 4803SOL     OW14950   2.523   1.790  12.125
 4803SOL    HW114951   2.477   1.878  12.112
 4803SOL    HW214952   2.622   1.802  12.118
 4804SOL     OW14953   2.721   0.956  12.033
 4804SOL    HW114954   2.775   0.887  12.081
 4804SOL    HW214955   2.689   1.025  12.099
 4805SOL     OW14956   2.945   0.984  11.259
 4805SOL    HW114957   2.922   1.037  11.177
 4805SOL    HW214958   3.026   0.928  11.240
 4806SOL     OW14959   3.723   1.569  12.023
 4806SOL    HW114960   3.652   1.557  11.953
 4806SOL    HW214961   3.724   1.490  12.083
 4807SOL     OW14962   2.083   1.314  13.016
 4807SOL    HW114963   2.018   1.241  12.995
 4807SOL    HW214964   2.087   1.328  13.114
 4808SOL     OW14965   1.941   1.240  11.825
 4808SOL    HW114966   1.940   1.193  11.913
 4808SOL    HW214967   2.023   1.212  11.774
 4809SOL     OW14968   2.534   1.391  12.796
 4809SOL    HW114969   2.456   1.341  12.834
 4809SOL    HW214970   2.531   1.486  12.827
 4810SOL     OW14971   3.686   0.192  12.399
 4810SOL    HW114972   3.682   0.102  12.443
 4810SOL    HW214973   3.689   0.181  12.300
 4811SOL     OW14974   2.290   0.424  11.692
 4811SOL    HW114975   2.320   0.352  11.630
 4811SOL    HW214976   2.251   0.384  11.775
 4812SOL     OW14977   3.567   1.487  12.276
 4812SOL    HW114978   3.474   1.462  12.249
 4812SOL    HW214979   3.593   1.437  12.358
 4813SOL     OW14980   2.179   0.547  12.452
 4813SOL    HW114981   2.217   0.488  12.524
 4813SOL    HW214982   2.219   0.521  12.364
 4814SOL     OW14983   2.674   1.586  11.859
 4814SOL    HW114984   2.706   1.596  11.765
 4814SOL    HW214985   2.595   1.524  11.861
 4815SOL     OW14986   3.286   0.214  12.284
 4815SOL    HW114987   3.338   0.149  12.339
 4815SOL    HW214988   3.237   0.277  12.345
 4816SOL     OW14989   2.863   0.034  12.326
 4816SOL    HW114990   2.800  -0.038  12.295
 4816SOL    HW214991   2.956  -0.002  12.326
 4817SOL     OW14992   2.632   1.330  11.473
 4817SOL    HW114993   2.586   1.243  11.490
 4817SOL    HW214994   2.723   1.327  11.514
 4818SOL     OW14995   2.480   1.567  12.456
 4818SOL    HW114996   2.475   1.649  12.513
 4818SOL    HW214997   2.569   1.564  12.411
 4819SOL     OW14998   3.214   0.052  11.340
 4819SOL    HW114999   3.249   0.011  11.256
 4819SOL    HW215000   3.124   0.014  11.360
 4820SOL     OW15001   3.162   0.453  11.863
 4820SOL    HW115002   3.103   0.533  11.867
 4820SOL    HW215003   3.177   0.418  11.956
 4821SOL     OW15004   3.455   0.221  12.054
 4821SOL    HW115005   3.371   0.220  12.108
 4821SOL    HW215006   3.457   0.304  11.998
 4822SOL     OW15007   1.901   1.077  11.472
 4822SOL    HW115008   2.000   1.066  11.463
 4822SOL    HW215009   1.861   0.991  11.504
 4823SOL     OW15010   2.737   1.646  11.509
 4823SOL    HW115011   2.660   1.611  11.455
 4823SOL    HW215012   2.705   1.717  11.571
 4824SOL     OW15013   2.092   0.628  13.147
 4824SOL    HW115014   1.999   0.626  13.184
 4824SOL    HW215015   2.093   0.589  13.055
 4825SOL     OW15016   2.087   0.275  14.030
 4825SOL    HW115017   2.122   0.258  14.122
 4825SOL    HW215018   1.999   0.230  14.018
 4826SOL     OW15019   1.881   0.368  13.681
 4826SOL    HW115020   1.799   0.411  13.720
 4826SOL    HW215021   1.853   0.295  13.618
 4827SOL     OW15022   3.417   1.511  13.737
 4827SOL    HW115023   3.360   1.495  13.818
 4827SOL    HW215024   3.358   1.521  13.657
 4828SOL     OW15025   2.997   0.703  13.751
 4828SOL    HW115026   3.054   0.781  13.726
 4828SOL    HW215027   2.937   0.729  13.827
 4829SOL     OW15028   3.617   0.607  13.265
 4829SOL    HW115029   3.605   0.594  13.166
 4829SOL    HW215030   3.587   0.526  13.314
 4830SOL     OW15031   2.547   1.012  13.699
 4830SOL    HW115032   2.616   0.996  13.769
 4830SOL    HW215033   2.474   1.069  13.737
 4831SOL     OW15034   3.465   0.447  13.771
 4831SOL    HW115035   3.391   0.493  13.721
 4831SOL    HW215036   3.516   0.515  13.824
 4832SOL     OW15037   2.093   1.713  13.517
 4832SOL    HW115038   2.127   1.790  13.571
 4832SOL    HW215039   2.137   1.713  13.427
 4833SOL     OW15040   2.092   1.434  13.572
 4833SOL    HW115041   2.066   1.530  13.572
 4833SOL    HW215042   2.021   1.380  13.617
 4834SOL     OW15043   2.102   1.091  13.920
 4834SOL    HW115044   2.116   1.007  13.972
 4834SOL    HW215045   2.047   1.155  13.975
 4835SOL     OW15046   2.468   0.964  13.157
 4835SOL    HW115047   2.475   1.048  13.103
 4835SOL    HW215048   2.514   0.977  13.245
 4836SOL     OW15049   1.984   0.643  13.597
 4836SOL    HW115050   1.939   0.555  13.614
 4836SOL    HW215051   1.983   0.697  13.681
 4837SOL     OW15052   3.704   1.767  13.393
 4837SOL    HW115053   3.758   1.738  13.473
 4837SOL    HW215054   3.734   1.857  13.364
 4838SOL     OW15055   1.889   1.596  13.151
 4838SOL    HW115056   1.870   1.500  13.172
 4838SOL    HW215057   1.856   1.654  13.226
 4839SOL     OW15058   3.551   0.922  13.646
 4839SOL    HW115059   3.646   0.893  13.654
 4839SOL    HW215060   3.543   0.987  13.571
 4840SOL     OW15061   3.503   1.108  13.466
 4840SOL    HW115062   3.589   1.110  13.414
 4840SOL    HW215063   3.517   1.155  13.554
 4841SOL     OW15064   2.475   1.365  13.760
 4841SOL    HW115065   2.426   1.278  13.769
 4841SOL    HW215066   2.452   1.408  13.673
 4842SOL     OW15067   2.671   0.004  13.536
 4842SOL    HW115068   2.711   0.095  13.527
 4842SOL    HW215069   2.571   0.012  13.542
 4843SOL     OW15070   3.387   0.999  13.224
 4843SOL    HW115071   3.324   0.923  13.237
 4843SOL    HW215072   3.435   1.017  13.310
 4844SOL     OW15073   3.529   1.714  13.606
 4844SOL    HW115074   3.488   1.691  13.518
 4844SOL    HW215075   3.511   1.640  13.671
 4845SOL     OW15076   2.460   0.729  13.304
 4845SOL    HW115077   2.484   0.798  13.236
 4845SOL    HW215078   2.382   0.762  13.358
 4846SOL     OW15079   3.143   0.345  13.978
 4846SOL    HW115080   3.057   0.295  13.965
 4846SOL    HW215081   3.205   0.291  14.034
 4847SOL     OW15082   3.438   1.662  13.341
 4847SOL    HW115083   3.527   1.708  13.344
 4847SOL    HW215084   3.417   1.638  13.246
 4848SOL     OW15085   2.903   0.701  13.463
 4848SOL    HW115086   2.929   0.697  13.559
 4848SOL    HW215087   2.818   0.650  13.449
 4849SOL     OW15088   1.938   0.811  13.823
 4849SOL    HW115089   2.037   0.799  13.832
 4849SOL    HW215090   1.914   0.906  13.844
 4850SOL     OW15091   2.727   0.348  13.229
 4850SOL    HW115092   2.786   0.411  13.180
 4850SOL    HW215093   2.746   0.254  13.200
 4851SOL     OW15094   3.224   1.144  13.579
 4851SOL    HW115095   3.307   1.115  13.531
 4851SOL    HW215096   3.175   1.211  13.523
 4852SOL     OW15097   2.870   1.456  13.511
 4852SOL    HW115098   2.824   1.528  13.459
 4852SOL    HW215099   2.866   1.476  13.609
 4853SOL     OW15100   2.213   1.801  13.887
 4853SOL    HW115101   2.263   1.715  13.893
 4853SOL    HW215102   2.278   1.878  13.884
 4854SOL     OW15103   3.657   1.066  13.907
 4854SOL    HW115104   3.595   1.051  13.831
 4854SOL    HW215105   3.605   1.077  13.992
 4855SOL     OW15106   2.183   0.943  13.276
 4855SOL    HW115107   2.265   0.982  13.234
 4855SOL    HW215108   2.156   0.861  13.227
 4856SOL     OW15109   3.320   0.735  13.762
 4856SOL    HW115110   3.315   0.670  13.837
 4856SOL    HW215111   3.400   0.794  13.775
 4857SOL     OW15112   2.973   1.776  13.271
 4857SOL    HW115113   2.913   1.714  13.321
 4857SOL    HW215114   3.004   1.732  13.186
 4858SOL     OW15115   3.494   1.377  13.115
 4858SOL    HW115116   3.462   1.471  13.105
 4858SOL    HW215117   3.418   1.314  13.103
 4859SOL     OW15118   2.326   1.743  13.357
 4859SOL    HW115119   2.359   1.782  13.443
 4859SOL    HW215120   2.402   1.736  13.292
 4860SOL     OW15121   3.262   0.107  13.460
 4860SOL    HW115122   3.238   0.070  13.370
 4860SOL    HW215123   3.361   0.123  13.464
 4861SOL     OW15124   2.802   1.698  13.938
 4861SOL    HW115125   2.882   1.641  13.959
 4861SOL    HW215126   2.753   1.658  13.861
 4862SOL     OW15127   2.244   0.700  13.514
 4862SOL    HW115128   2.289   0.610  13.511
 4862SOL    HW215129   2.150   0.689  13.547
 4863SOL     OW15130   2.476   0.122  13.151
 4863SOL    HW115131   2.574   0.100  13.158
 4863SOL    HW215132   2.445   0.105  13.058
 4864SOL     OW15133   2.401   0.064  13.546
 4864SOL    HW115134   2.320   0.065  13.604
 4864SOL    HW215135   2.404   0.147  13.491
 4865SOL     OW15136   3.296   1.188  13.075
 4865SOL    HW115137   3.328   1.112  13.132
 4865SOL    HW215138   3.204   1.215  13.105
 4866SOL     OW15139   2.159   0.035  13.205
 4866SOL    HW115140   2.208   0.119  13.184
 4866SOL    HW215141   2.221  -0.030  13.250
 4867SOL     OW15142   2.797   0.236  13.514
 4867SOL    HW115143   2.749   0.277  13.436
 4867SOL    HW215144   2.896   0.234  13.495
 4868SOL     OW15145   2.321   1.152  13.775
 4868SOL    HW115146   2.250   1.125  13.840
 4868SOL    HW215147   2.295   1.124  13.682
 4869SOL     OW15148   3.133   1.797  13.625
 4869SOL    HW115149   3.177   1.861  13.561
 4869SOL    HW215150   3.083   1.849  13.695
 4870SOL     OW15151   2.894   0.549  13.050
 4870SOL    HW115152   2.853   0.631  13.011
 4870SOL    HW215153   2.958   0.575  13.123
 4871SOL     OW15154   2.728   0.454  13.676
 4871SOL    HW115155   2.696   0.526  13.614
 4871SOL    HW215156   2.752   0.373  13.623
 4872SOL     OW15157   2.879   0.039  13.787
 4872SOL    HW115158   2.807   0.044  13.718
 4872SOL    HW215159   2.855  -0.030  13.856
 4873SOL     OW15160   3.719   0.833  13.411
 4873SOL    HW115161   3.761   0.769  13.475
 4873SOL    HW215162   3.681   0.782  13.333
 4874SOL     OW15163   2.350   1.385  13.208
 4874SOL    HW115164   2.263   1.370  13.255
 4874SOL    HW215165   2.333   1.411  13.113
 4875SOL     OW15166   3.526   1.280  13.691
 4875SOL    HW115167   3.625   1.288  13.705
 4875SOL    HW215168   3.481   1.364  13.722
 4876SOL     OW15169   3.252   0.575  13.112
 4876SOL    HW115170   3.198   0.554  13.193
 4876SOL    HW215171   3.343   0.534  13.121
 4877SOL     OW15172   2.389   0.256  13.362
 4877SOL    HW115173   2.416   0.197  13.287
 4877SOL    HW215174   2.389   0.351  13.331
 4878SOL     OW15175   2.567   1.050  13.402
 4878SOL    HW115176   2.553   1.057  13.501
 4878SOL    HW215177   2.651   0.999  13.384
 4879SOL     OW15178   2.229   1.100  13.535
 4879SOL    HW115179   2.222   1.183  13.479
 4879SOL    HW215180   2.233   1.020  13.475
 4880SOL     OW15181   2.428   0.537  13.899
 4880SOL    HW115182   2.440   0.603  13.825
 4880SOL    HW215183   2.474   0.571  13.982
 4881SOL     OW15184   3.114   1.348  13.422
 4881SOL    HW115185   3.164   1.425  13.462
 4881SOL    HW215186   3.019   1.350  13.454
 4882SOL     OW15187   3.444   0.639  13.506
 4882SOL    HW115188   3.413   0.700  13.579
 4882SOL    HW215189   3.494   0.691  13.437
 4883SOL     OW15190   3.071   0.525  13.309
 4883SOL    HW115191   3.084   0.441  13.363
 4883SOL    HW215192   3.042   0.599  13.369
 4884SOL     OW15193   2.169   0.063  13.652
 4884SOL    HW115194   2.158   0.157  13.685
 4884SOL    HW215195   2.164   0.000  13.729
 4885SOL     OW15196   3.484   0.367  13.408
 4885SOL    HW115197   3.486   0.291  13.472
 4885SOL    HW215198   3.436   0.444  13.448
 4886SOL     OW15199   3.402   0.274  13.159
 4886SOL    HW115200   3.341   0.199  13.182
 4886SOL    HW215201   3.424   0.326  13.242
 4887SOL     OW15202   3.165   0.838  13.076
 4887SOL    HW115203   3.199   0.745  13.091
 4887SOL    HW215204   3.183   0.865  12.981
 4888SOL     OW15205   1.870   1.326  13.234
 4888SOL    HW115206   1.777   1.347  13.203
 4888SOL    HW215207   1.880   1.227  13.247
 4889SOL     OW15208   2.677   0.572  13.359
 4889SOL    HW115209   2.684   0.483  13.313
 4889SOL    HW215210   2.583   0.606  13.351
 4890SOL     OW15211   2.335   0.500  13.225
 4890SOL    HW115212   2.396   0.580  13.229
 4890SOL    HW215213   2.240   0.531  13.232
 4891SOL     OW15214   3.164   0.855  13.343
 4891SOL    HW115215   3.078   0.824  13.385
 4891SOL    HW215216   3.160   0.841  13.244
 4892SOL     OW15217   3.588   0.135  13.557
 4892SOL    HW115218   3.661   0.118  13.490
 4892SOL    HW215219   3.557   0.048  13.595
 4893SOL     OW15220   3.250   1.573  13.511
 4893SOL    HW115221   3.317   1.585  13.437
 4893SOL    HW215222   3.210   1.662  13.534
 4894SOL     OW15223   3.142   0.927  13.706
 4894SOL    HW115224   3.202   0.846  13.708
 4894SOL    HW215225   3.182   0.996  13.646
 4895SOL     OW15226   2.534   1.616  13.188
 4895SOL    HW115227   2.543   1.626  13.089
 4895SOL    HW215228   2.494   1.527  13.209
 4896SOL     OW15229   3.703   0.175  13.997
 4896SOL    HW115230   3.742   0.090  13.961
 4896SOL    HW215231   3.605   0.177  13.978
 4897SOL     OW15232   2.125   0.326  13.754
 4897SOL    HW115233   2.046   0.377  13.720
 4897SOL    HW215234   2.116   0.311  13.852
 4898SOL     OW15235   3.056   1.612  13.065
 4898SOL    HW115236   3.062   1.519  13.102
 4898SOL    HW215237   2.997   1.612  12.985
 4899SOL     OW15238   2.778   0.910  13.325
 4899SOL    HW115239   2.841   0.948  13.257
 4899SOL    HW215240   2.818   0.827  13.364
 4900SOL     OW15241   3.366   1.607  13.078
 4900SOL    HW115242   3.274   1.644  13.085
 4900SOL    HW215243   3.404   1.627  12.988
 4901SOL     OW15244   2.901   1.098  13.730
 4901SOL    HW115245   2.831   1.051  13.784
 4901SOL    HW215246   2.960   1.030  13.687
 4902SOL     OW15247   2.452   1.487  13.525
 4902SOL    HW115248   2.494   1.429  13.455
 4902SOL    HW215249   2.408   1.566  13.481
 4903SOL     OW15250   2.117   1.348  13.324
 4903SOL    HW115251   2.021   1.349  13.297
 4903SOL    HW215252   2.129   1.401  13.408
 4904SOL     OW15253   1.937   0.345  13.067
 4904SOL    HW115254   1.845   0.317  13.038
 4904SOL    HW215255   1.968   0.422  13.011
 4905SOL     OW15256   1.934   0.166  13.352
 4905SOL    HW115257   1.917   0.249  13.298
 4905SOL    HW215258   2.024   0.129  13.330
 4906SOL     OW15259   3.045   1.335  13.153
 4906SOL    HW115260   2.946   1.324  13.155
 4906SOL    HW215261   3.079   1.350  13.246
 4907SOL     OW15262   3.087   0.325  13.483
 4907SOL    HW115263   3.152   0.251  13.472
 4907SOL    HW215264   3.107   0.375  13.567
 4908SOL     OW15265   2.456   0.745  13.686
 4908SOL    HW115266   2.506   0.830  13.667
 4908SOL    HW215267   2.368   0.747  13.638
 4909SOL     OW15268   2.721   1.374  13.050
 4909SOL    HW115269   2.675   1.389  13.138
 4909SOL    HW215270   2.765   1.459  13.020
 4910SOL     OW15271   2.523   1.790  13.987
 4910SOL    HW115272   2.477   1.878  13.974
 4910SOL    HW215273   2.622   1.802  13.980
 4911SOL     OW15274   2.721   0.956  13.895
 4911SOL    HW115275   2.775   0.887  13.943
 4911SOL    HW215276   2.689   1.025  13.961
 4912SOL     OW15277   2.945   0.984  13.121
 4912SOL    HW115278   2.922   1.037  13.039
 4912SOL    HW215279   3.026   0.928  13.102
 4913SOL     OW15280   1.941   1.240  13.687
 4913SOL    HW115281   1.940   1.193  13.775
 4913SOL    HW215282   2.023   1.212  13.636
 4914SOL     OW15283   2.290   0.424  13.554
 4914SOL    HW115284   2.320   0.352  13.492
 4914SOL    HW215285   2.251   0.384  13.637
 4915SOL     OW15286   3.567   1.487  14.138
 4915SOL    HW115287   3.474   1.462  14.111
 4915SOL    HW215288   3.593   1.437  14.220
 4916SOL     OW15289   2.674   1.586  13.721
 4916SOL    HW115290   2.706   1.596  13.627
 4916SOL    HW215291   2.595   1.524  13.723
 4917SOL     OW15292   2.632   1.330  13.335
 4917SOL    HW115293   2.586   1.243  13.352
 4917SOL    HW215294   2.723   1.327  13.376
 4918SOL     OW15295   3.214   0.052  13.202
 4918SOL    HW115296   3.249   0.011  13.118
 4918SOL    HW215297   3.124   0.014  13.222
 4919SOL     OW15298   3.162   0.453  13.725
 4919SOL    HW115299   3.103   0.533  13.729
 4919SOL    HW215300   3.177   0.418  13.818
 4920SOL     OW15301   1.901   1.077  13.334
 4920SOL    HW115302   2.000   1.066  13.325
 4920SOL    HW215303   1.861   0.991  13.366
 4921SOL     OW15304   2.737   1.646  13.371
 4921SOL    HW115305   2.660   1.611  13.317
 4921SOL    HW215306   2.705   1.717  13.433
 4922SOL     OW15307   2.092   2.490   0.113
 4922SOL    HW115308   1.999   2.488   0.150
 4922SOL    HW215309   2.093   2.451   0.021
 4923SOL     OW15310   1.881   2.230   0.647
 4923SOL    HW115311   1.799   2.273   0.686
 4923SOL    HW215312   1.853   2.157   0.584
 4924SOL     OW15313   2.431   3.137   1.165
 4924SOL    HW115314   2.338   3.130   1.128
 4924SOL    HW215315   2.442   3.226   1.209
 4925SOL     OW15316   3.417   3.373   0.703
 4925SOL    HW115317   3.360   3.357   0.784
 4925SOL    HW215318   3.358   3.383   0.623
 4926SOL     OW15319   2.997   2.565   0.717
 4926SOL    HW115320   3.054   2.643   0.692
 4926SOL    HW215321   2.937   2.591   0.793
 4927SOL     OW15322   3.617   2.469   0.231
 4927SOL    HW115323   3.605   2.456   0.132
 4927SOL    HW215324   3.587   2.388   0.280
 4928SOL     OW15325   2.630   3.006   1.023
 4928SOL    HW115326   2.552   3.023   1.083
 4928SOL    HW215327   2.664   3.093   0.987
 4929SOL     OW15328   2.712   2.660   1.823
 4929SOL    HW115329   2.708   2.736   1.888
 4929SOL    HW215330   2.734   2.696   1.732
 4930SOL     OW15331   2.547   2.874   0.665
 4930SOL    HW115332   2.616   2.858   0.735
 4930SOL    HW215333   2.474   2.931   0.703
 4931SOL     OW15334   2.548   3.023   1.803
 4931SOL    HW115335   2.608   3.102   1.817
 4931SOL    HW215336   2.462   3.054   1.762
 4932SOL     OW15337   2.197   3.297   1.061
 4932SOL    HW115338   2.119   3.266   1.008
 4932SOL    HW215339   2.255   3.355   1.004
 4933SOL     OW15340   3.322   3.367   1.339
 4933SOL    HW115341   3.346   3.461   1.365
 4933SOL    HW215342   3.306   3.313   1.421
 4934SOL     OW15343   2.300   2.254   1.499
 4934SOL    HW115344   2.382   2.198   1.508
 4934SOL    HW215345   2.219   2.196   1.503
 4935SOL     OW15346   3.465   2.309   0.737
 4935SOL    HW115347   3.391   2.355   0.687
 4935SOL    HW215348   3.516   2.377   0.790
 4936SOL     OW15349   2.093   3.575   0.483
 4936SOL    HW115350   2.127   3.652   0.537
 4936SOL    HW215351   2.137   3.575   0.393
 4937SOL     OW15352   2.989   3.203   1.690
 4937SOL    HW115353   3.036   3.203   1.778
 4937SOL    HW215354   2.941   3.116   1.679
 4938SOL     OW15355   2.092   3.296   0.538
 4938SOL    HW115356   2.066   3.392   0.538
 4938SOL    HW215357   2.021   3.242   0.583
 4939SOL     OW15358   2.102   2.953   0.886
 4939SOL    HW115359   2.116   2.869   0.938
 4939SOL    HW215360   2.047   3.017   0.941
 4940SOL     OW15361   2.482   3.648   1.439
 4940SOL    HW115362   2.390   3.631   1.474
 4940SOL    HW215363   2.510   3.740   1.465
 4941SOL     OW15364   2.468   2.826   0.123
 4941SOL    HW115365   2.475   2.910   0.069
 4941SOL    HW215366   2.514   2.839   0.211
 4942SOL     OW15367   3.456   1.976   1.480
 4942SOL    HW115368   3.438   2.043   1.408
 4942SOL    HW215369   3.453   2.022   1.569
 4943SOL     OW15370   1.984   2.505   0.563
 4943SOL    HW115371   1.939   2.417   0.580
 4943SOL    HW215372   1.983   2.559   0.647
 4944SOL     OW15373   3.704   3.629   0.359
 4944SOL    HW115374   3.758   3.600   0.439
 4944SOL    HW215375   3.734   3.719   0.330
 4945SOL     OW15376   1.889   3.458   0.117
 4945SOL    HW115377   1.870   3.362   0.138
 4945SOL    HW215378   1.856   3.516   0.192
 4946SOL     OW15379   3.551   2.784   0.612
 4946SOL    HW115380   3.646   2.755   0.620
 4946SOL    HW215381   3.543   2.849   0.537
 4947SOL     OW15382   3.503   2.970   0.432
 4947SOL    HW115383   3.589   2.972   0.380
 4947SOL    HW215384   3.517   3.017   0.520
 4948SOL     OW15385   1.975   2.599   1.597
 4948SOL    HW115386   2.063   2.586   1.642
 4948SOL    HW215387   1.962   2.696   1.575
 4949SOL     OW15388   2.475   3.227   0.726
 4949SOL    HW115389   2.426   3.140   0.735
 4949SOL    HW215390   2.452   3.270   0.639
 4950SOL     OW15391   3.155   3.090   1.423
 4950SOL    HW115392   3.192   3.017   1.365
 4950SOL    HW215393   3.207   3.095   1.508
 4951SOL     OW15394   2.671   1.866   0.502
 4951SOL    HW115395   2.711   1.957   0.493
 4951SOL    HW215396   2.571   1.874   0.508
 4952SOL     OW15397   2.059   2.838   1.264
 4952SOL    HW115398   2.148   2.793   1.250
 4952SOL    HW215399   1.986   2.773   1.245
 4953SOL     OW15400   3.387   2.861   0.190
 4953SOL    HW115401   3.324   2.785   0.203
 4953SOL    HW215402   3.435   2.879   0.276
 4954SOL     OW15403   3.049   3.654   1.616
 4954SOL    HW115404   3.073   3.714   1.540
 4954SOL    HW215405   3.056   3.559   1.586
 4955SOL     OW15406   3.328   3.279   0.953
 4955SOL    HW115407   3.269   3.285   1.033
 4955SOL    HW215408   3.313   3.191   0.907
 4956SOL     OW15409   3.529   3.576   0.572
 4956SOL    HW115410   3.488   3.553   0.484
 4956SOL    HW215411   3.511   3.502   0.637
 4957SOL     OW15412   2.460   2.591   0.270
 4957SOL    HW115413   2.484   2.660   0.202
 4957SOL    HW215414   2.382   2.624   0.324
 4958SOL     OW15415   3.143   2.207   0.944
 4958SOL    HW115416   3.057   2.157   0.931
 4958SOL    HW215417   3.205   2.153   1.000
 4959SOL     OW15418   3.438   3.524   0.307
 4959SOL    HW115419   3.527   3.570   0.310
 4959SOL    HW215420   3.417   3.500   0.212
 4960SOL     OW15421   2.669   2.467   1.465
 4960SOL    HW115422   2.622   2.464   1.554
 4960SOL    HW215423   2.618   2.412   1.399
 4961SOL     OW15424   3.256   2.331   1.674
 4961SOL    HW115425   3.236   2.374   1.762
 4961SOL    HW215426   3.334   2.269   1.683
 4962SOL     OW15427   2.835   2.752   1.572
 4962SOL    HW115428   2.881   2.668   1.543
 4962SOL    HW215429   2.779   2.786   1.497
 4963SOL     OW15430   2.853   2.272   1.242
 4963SOL    HW115431   2.776   2.306   1.296
 4963SOL    HW215432   2.819   2.221   1.163
 4964SOL     OW15433   2.903   2.563   0.429
 4964SOL    HW115434   2.929   2.559   0.525
 4964SOL    HW215435   2.818   2.512   0.415
 4965SOL     OW15436   1.938   2.673   0.789
 4965SOL    HW115437   2.037   2.661   0.798
 4965SOL    HW215438   1.914   2.768   0.810
 4966SOL     OW15439   1.992   3.683   1.571
 4966SOL    HW115440   1.982   3.668   1.670
 4966SOL    HW215441   1.906   3.719   1.535
 4967SOL     OW15442   2.727   2.210   0.195
 4967SOL    HW115443   2.786   2.273   0.146
 4967SOL    HW215444   2.746   2.116   0.166
 4968SOL     OW15445   3.581   2.447   1.831
 4968SOL    HW115446   3.555   2.536   1.795
 4968SOL    HW215447   3.579   2.379   1.758
 4969SOL     OW15448   3.224   3.006   0.545
 4969SOL    HW115449   3.307   2.977   0.497
 4969SOL    HW215450   3.175   3.073   0.489
 4970SOL     OW15451   2.412   2.058   0.885
 4970SOL    HW115452   2.407   2.053   0.985
 4970SOL    HW215453   2.414   2.154   0.856
 4971SOL     OW15454   2.870   3.318   0.477
 4971SOL    HW115455   2.824   3.390   0.425
 4971SOL    HW215456   2.866   3.338   0.575
 4972SOL     OW15457   2.213   3.663   0.853
 4972SOL    HW115458   2.263   3.577   0.859
 4972SOL    HW215459   2.278   3.740   0.850
 4973SOL     OW15460   3.657   2.928   0.873
 4973SOL    HW115461   3.595   2.913   0.797
 4973SOL    HW215462   3.605   2.939   0.958
 4974SOL     OW15463   3.089   3.412   1.506
 4974SOL    HW115464   3.095   3.335   1.570
 4974SOL    HW215465   3.037   3.386   1.426
 4975SOL     OW15466   2.183   2.805   0.242
 4975SOL    HW115467   2.265   2.844   0.200
 4975SOL    HW215468   2.156   2.723   0.193
 4976SOL     OW15469   3.320   2.597   0.728
 4976SOL    HW115470   3.315   2.532   0.803
 4976SOL    HW215471   3.400   2.656   0.741
 4977SOL     OW15472   2.323   3.128   1.727
 4977SOL    HW115473   2.273   3.129   1.641
 4977SOL    HW215474   2.260   3.110   1.803
 4978SOL     OW15475   2.973   3.638   0.237
 4978SOL    HW115476   2.913   3.576   0.287
 4978SOL    HW215477   3.004   3.594   0.152
 4979SOL     OW15478   3.494   3.239   0.081
 4979SOL    HW115479   3.462   3.333   0.071
 4979SOL    HW215480   3.418   3.176   0.069
 4980SOL     OW15481   2.326   3.605   0.323
 4980SOL    HW115482   2.359   3.644   0.409
 4980SOL    HW215483   2.402   3.598   0.258
 4981SOL     OW15484   3.262   1.969   0.426
 4981SOL    HW115485   3.238   1.932   0.336
 4981SOL    HW215486   3.361   1.985   0.430
 4982SOL     OW15487   2.111   3.647   1.241
 4982SOL    HW115488   2.168   3.582   1.291
 4982SOL    HW215489   2.095   3.614   1.148
 4983SOL     OW15490   2.802   3.560   0.904
 4983SOL    HW115491   2.882   3.503   0.925
 4983SOL    HW215492   2.753   3.520   0.827
 4984SOL     OW15493   2.244   2.562   0.480
 4984SOL    HW115494   2.289   2.472   0.477
 4984SOL    HW215495   2.150   2.551   0.513
 4985SOL     OW15496   3.409   2.084   1.729
 4985SOL    HW115497   3.404   2.121   1.821
 4985SOL    HW215498   3.337   2.015   1.717
 4986SOL     OW15499   2.643   2.126   1.749
 4986SOL    HW115500   2.710   2.065   1.792
 4986SOL    HW215501   2.570   2.145   1.814
 4987SOL     OW15502   2.750   3.376   1.195
 4987SOL    HW115503   2.727   3.351   1.101
 4987SOL    HW215504   2.811   3.307   1.234
 4988SOL     OW15505   3.213   2.452   1.433
 4988SOL    HW115506   3.241   2.409   1.518
 4988SOL    HW215507   3.238   2.548   1.434
 4989SOL     OW15508   2.665   3.264   0.924
 4989SOL    HW115509   2.755   3.278   0.882
 4989SOL    HW215510   2.594   3.266   0.853
 4990SOL     OW15511   2.784   2.365   0.899
 4990SOL    HW115512   2.759   2.356   0.803
 4990SOL    HW215513   2.832   2.283   0.930
 4991SOL     OW15514   2.401   1.926   0.512
 4991SOL    HW115515   2.320   1.927   0.570
 4991SOL    HW215516   2.404   2.009   0.457
 4992SOL     OW15517   3.296   3.050   0.041
 4992SOL    HW115518   3.328   2.974   0.098
 4992SOL    HW215519   3.204   3.077   0.071
 4993SOL     OW15520   2.797   2.098   0.480
 4993SOL    HW115521   2.749   2.139   0.402
 4993SOL    HW215522   2.896   2.096   0.461
 4994SOL     OW15523   2.938   2.545   1.464
 4994SOL    HW115524   2.858   2.484   1.467
 4994SOL    HW215525   3.019   2.492   1.440
 4995SOL     OW15526   3.089   3.432   0.793
 4995SOL    HW115527   3.110   3.506   0.728
 4995SOL    HW215528   3.157   3.432   0.866
 4996SOL     OW15529   2.321   3.014   0.741
 4996SOL    HW115530   2.250   2.987   0.806
 4996SOL    HW215531   2.295   2.986   0.648
 4997SOL     OW15532   3.133   3.659   0.591
 4997SOL    HW115533   3.177   3.723   0.527
 4997SOL    HW215534   3.083   3.711   0.661
 4998SOL     OW15535   2.894   2.411   0.016
 4998SOL    HW115536   2.853   2.493  -0.023
 4998SOL    HW215537   2.958   2.437   0.089
 4999SOL     OW15538   1.940   2.418   1.386
 4999SOL    HW115539   2.032   2.417   1.345
 4999SOL    HW215540   1.934   2.492   1.453
 5000SOL     OW15541   2.423   2.084   1.147
 5000SOL    HW115542   2.461   2.000   1.184
 5000SOL    HW215543   2.335   2.103   1.191
 5001SOL     OW15544   2.728   2.316   0.642
 5001SOL    HW115545   2.696   2.388   0.580
 5001SOL    HW215546   2.752   2.235   0.589
 5002SOL     OW15547   2.879   1.901   0.753
 5002SOL    HW115548   2.807   1.906   0.684
 5002SOL    HW215549   2.855   1.832   0.822
 5003SOL     OW15550   3.291   3.035   0.867
 5003SOL    HW115551   3.236   2.951   0.860
 5003SOL    HW215552   3.317   3.064   0.775
 5004SOL     OW15553   3.328   2.452   0.992
 5004SOL    HW115554   3.298   2.357   0.999
 5004SOL    HW215555   3.401   2.468   1.058
 5005SOL     OW15556   3.719   2.695   0.377
 5005SOL    HW115557   3.761   2.631   0.441
 5005SOL    HW215558   3.681   2.644   0.299
 5006SOL     OW15559   2.350   3.247   0.174
 5006SOL    HW115560   2.263   3.232   0.221
 5006SOL    HW215561   2.333   3.273   0.079
 5007SOL     OW15562   3.526   3.142   0.657
 5007SOL    HW115563   3.625   3.150   0.671
 5007SOL    HW215564   3.481   3.226   0.688
 5008SOL     OW15565   3.252   2.437   0.078
 5008SOL    HW115566   3.198   2.416   0.159
 5008SOL    HW215567   3.343   2.396   0.087
 5009SOL     OW15568   2.389   2.118   0.328
 5009SOL    HW115569   2.416   2.059   0.253
 5009SOL    HW215570   2.389   2.213   0.297
 5010SOL     OW15571   3.616   3.085   1.588
 5010SOL    HW115572   3.707   3.046   1.575
 5010SOL    HW215573   3.624   3.181   1.612
 5011SOL     OW15574   2.926   3.209   1.340
 5011SOL    HW115575   2.846   3.186   1.395
 5011SOL    HW215576   3.009   3.183   1.389
 5012SOL     OW15577   3.454   3.491   1.625
 5012SOL    HW115578   3.481   3.525   1.535
 5012SOL    HW215579   3.533   3.453   1.671
 5013SOL     OW15580   2.973   3.057   1.100
 5013SOL    HW115581   2.933   3.101   1.181
 5013SOL    HW215582   2.932   3.094   1.017
 5014SOL     OW15583   3.500   2.961   1.079
 5014SOL    HW115584   3.505   3.042   1.138
 5014SOL    HW215585   3.414   2.963   1.028
 5015SOL     OW15586   2.777   1.951   1.402
 5015SOL    HW115587   2.802   1.931   1.307
 5015SOL    HW215588   2.849   2.007   1.444
 5016SOL     OW15589   2.842   2.978   1.719
 5016SOL    HW115590   2.743   2.984   1.729
 5016SOL    HW215591   2.865   2.898   1.663
 5017SOL     OW15592   2.567   2.912   0.368
 5017SOL    HW115593   2.553   2.919   0.467
 5017SOL    HW215594   2.651   2.861   0.350
 5018SOL     OW15595   2.272   2.675   1.251
 5018SOL    HW115596   2.358   2.687   1.301
 5018SOL    HW215597   2.230   2.588   1.278
 5019SOL     OW15598   3.136   2.248   1.262
 5019SOL    HW115599   3.157   2.322   1.326
 5019SOL    HW215600   3.047   2.265   1.219
 5020SOL     OW15601   1.926   3.426   1.331
 5020SOL    HW115602   1.880   3.508   1.297
 5020SOL    HW215603   2.024   3.445   1.340
 5021SOL     OW15604   2.229   2.962   0.501
 5021SOL    HW115605   2.222   3.045   0.445
 5021SOL    HW215606   2.233   2.882   0.441
 5022SOL     OW15607   2.428   2.399   0.865
 5022SOL    HW115608   2.440   2.465   0.791
 5022SOL    HW215609   2.474   2.433   0.948
 5023SOL     OW15610   3.114   3.210   0.388
 5023SOL    HW115611   3.164   3.287   0.428
 5023SOL    HW215612   3.019   3.212   0.420
 5024SOL     OW15613   3.134   3.307   1.142
 5024SOL    HW115614   3.181   3.320   1.229
 5024SOL    HW215615   3.068   3.233   1.151
 5025SOL     OW15616   3.444   2.501   0.472
 5025SOL    HW115617   3.413   2.562   0.545
 5025SOL    HW215618   3.494   2.553   0.403
 5026SOL     OW15619   2.216   3.372   1.329
 5026SOL    HW115620   2.195   3.328   1.242
 5026SOL    HW215621   2.313   3.398   1.332
 5027SOL     OW15622   2.264   2.613   1.598
 5027SOL    HW115623   2.332   2.668   1.551
 5027SOL    HW215624   2.304   2.525   1.625
 5028SOL     OW15625   3.449   2.641   1.670
 5028SOL    HW115626   3.357   2.679   1.665
 5028SOL    HW215627   3.509   2.688   1.605
 5029SOL     OW15628   2.875   1.967   1.770
 5029SOL    HW115629   2.881   2.052   1.718
 5029SOL    HW215630   2.907   1.891   1.713
 5030SOL     OW15631   2.366   1.912   1.740
 5030SOL    HW115632   2.324   1.855   1.670
 5030SOL    HW215633   2.300   1.981   1.772
 5031SOL     OW15634   2.435   2.732   1.029
 5031SOL    HW115635   2.479   2.821   1.020
 5031SOL    HW215636   2.372   2.732   1.106
 5032SOL     OW15637   3.222   2.724   1.045
 5032SOL    HW115638   3.147   2.724   0.979
 5032SOL    HW215639   3.259   2.632   1.054
 5033SOL     OW15640   3.071   2.387   0.275
 5033SOL    HW115641   3.084   2.303   0.329
 5033SOL    HW215642   3.042   2.461   0.335
 5034SOL     OW15643   1.899   3.172   1.282
 5034SOL    HW115644   1.952   3.123   1.350
 5034SOL    HW215645   1.921   3.270   1.287
 5035SOL     OW15646   2.594   2.496   1.064
 5035SOL    HW115647   2.653   2.470   0.988
 5035SOL    HW215648   2.566   2.592   1.053
 5036SOL     OW15649   3.590   2.797   1.854
 5036SOL    HW115650   3.544   2.790   1.765
 5036SOL    HW215651   3.528   2.841   1.920
 5037SOL     OW15652   2.169   1.925   0.618
 5037SOL    HW115653   2.158   2.019   0.651
 5037SOL    HW215654   2.164   1.862   0.695
 5038SOL     OW15655   3.484   2.229   0.374
 5038SOL    HW115656   3.486   2.153   0.438
 5038SOL    HW215657   3.436   2.306   0.414
 5039SOL     OW15658   2.885   2.628   0.966
 5039SOL    HW115659   2.900   2.649   1.062
 5039SOL    HW215660   2.855   2.533   0.957
 5040SOL     OW15661   2.842   3.435   1.700
 5040SOL    HW115662   2.822   3.479   1.612
 5040SOL    HW215663   2.881   3.344   1.684
 5041SOL     OW15664   3.721   3.380   1.605
 5041SOL    HW115665   3.735   3.407   1.510
 5041SOL    HW215666   3.804   3.402   1.658
 5042SOL     OW15667   2.212   2.760   1.804
 5042SOL    HW115668   2.288   2.804   1.852
 5042SOL    HW215669   2.247   2.713   1.722
 5043SOL     OW15670   3.402   2.136   0.125
 5043SOL    HW115671   3.341   2.061   0.148
 5043SOL    HW215672   3.424   2.188   0.208
 5044SOL     OW15673   3.165   2.700   0.042
 5044SOL    HW115674   3.199   2.607   0.057
 5044SOL    HW215675   3.183   2.727  -0.053
 5045SOL     OW15676   2.930   3.195   0.849
 5045SOL    HW115677   2.937   3.111   0.794
 5045SOL    HW215678   2.992   3.264   0.813
 5046SOL     OW15679   2.181   2.672   0.949
 5046SOL    HW115680   2.274   2.708   0.954
 5046SOL    HW215681   2.175   2.587   1.001
 5047SOL     OW15682   2.201   2.371   1.006
 5047SOL    HW115683   2.149   2.288   0.989
 5047SOL    HW215684   2.278   2.376   0.942
 5048SOL     OW15685   3.000   2.242   1.678
 5048SOL    HW115686   2.955   2.305   1.742
 5048SOL    HW215687   3.093   2.273   1.661
 5049SOL     OW15688   3.022   2.069   1.477
 5049SOL    HW115689   3.022   2.133   1.554
 5049SOL    HW215690   3.050   2.117   1.394
 5050SOL     OW15691   1.870   3.188   0.200
 5050SOL    HW115692   1.777   3.209   0.169
 5050SOL    HW215693   1.880   3.089   0.213
 5051SOL     OW15694   1.950   3.663   0.927
 5051SOL    HW115695   1.908   3.577   0.900
 5051SOL    HW215696   2.044   3.666   0.893
 5052SOL     OW15697   2.366   3.430   0.910
 5052SOL    HW115698   2.432   3.504   0.919
 5052SOL    HW215699   2.410   3.351   0.868
 5053SOL     OW15700   2.864   2.658   1.238
 5053SOL    HW115701   2.905   2.626   1.324
 5053SOL    HW215702   2.768   2.631   1.235
 5054SOL     OW15703   1.902   2.406   1.114
 5054SOL    HW115704   1.987   2.373   1.073
 5054SOL    HW215705   1.915   2.421   1.212
 5055SOL     OW15706   2.051   2.382   1.722
 5055SOL    HW115707   2.110   2.342   1.652
 5055SOL    HW215708   1.993   2.453   1.681
 5056SOL     OW15709   3.231   2.812   1.660
 5056SOL    HW115710   3.270   2.901   1.680
 5056SOL    HW215711   3.241   2.792   1.563
 5057SOL     OW15712   2.677   2.434   0.325
 5057SOL    HW115713   2.684   2.345   0.279
 5057SOL    HW215714   2.583   2.468   0.317
 5058SOL     OW15715   3.519   2.466   1.206
 5058SOL    HW115716   3.481   2.397   1.268
 5058SOL    HW215717   3.601   2.430   1.162
 5059SOL     OW15718   2.114   3.426   1.744
 5059SOL    HW115719   2.084   3.483   1.820
 5059SOL    HW215720   2.107   3.329   1.770
 5060SOL     OW15721   2.533   2.326   1.269
 5060SOL    HW115722   2.499   2.237   1.239
 5060SOL    HW215723   2.559   2.380   1.189
 5061SOL     OW15724   2.792   3.540   1.465
 5061SOL    HW115725   2.768   3.522   1.370
 5061SOL    HW215726   2.822   3.634   1.475
 5062SOL     OW15727   2.335   2.362   0.191
 5062SOL    HW115728   2.396   2.442   0.195
 5062SOL    HW215729   2.240   2.393   0.198
 5063SOL     OW15730   2.021   2.999   1.466
 5063SOL    HW115731   2.043   2.938   1.542
 5063SOL    HW215732   2.031   2.950   1.380
 5064SOL     OW15733   3.209   2.921   1.234
 5064SOL    HW115734   3.233   2.858   1.160
 5064SOL    HW215735   3.119   2.961   1.216
 5065SOL     OW15736   3.164   2.717   0.309
 5065SOL    HW115737   3.078   2.686   0.351
 5065SOL    HW215738   3.160   2.703   0.210
 5066SOL     OW15739   3.621   3.609   1.154
 5066SOL    HW115740   3.682   3.639   1.081
 5066SOL    HW215741   3.583   3.520   1.132
 5067SOL     OW15742   3.114   3.593   1.128
 5067SOL    HW115743   3.198   3.598   1.074
 5067SOL    HW215744   3.091   3.497   1.146
 5068SOL     OW15745   1.945   3.120   1.022
 5068SOL    HW115746   1.940   3.119   1.122
 5068SOL    HW215747   1.862   3.079   0.984
 5069SOL     OW15748   2.550   3.524   1.716
 5069SOL    HW115749   2.494   3.605   1.725
 5069SOL    HW215750   2.602   3.528   1.630
 5070SOL     OW15751   2.765   1.948   0.133
 5070SOL    HW115752   2.816   1.949   0.047
 5070SOL    HW215753   2.821   1.906   0.204
 5071SOL     OW15754   3.588   1.997   0.523
 5071SOL    HW115755   3.661   1.980   0.456
 5071SOL    HW215756   3.557   1.910   0.561
 5072SOL     OW15757   3.250   3.435   0.477
 5072SOL    HW115758   3.317   3.447   0.403
 5072SOL    HW215759   3.210   3.524   0.500
 5073SOL     OW15760   1.992   3.656   1.851
 5073SOL    HW115761   1.951   3.582   1.904
 5073SOL    HW215762   2.056   3.707   1.909
 5074SOL     OW15763   3.142   2.789   0.672
 5074SOL    HW115764   3.202   2.708   0.674
 5074SOL    HW215765   3.182   2.858   0.612
 5075SOL     OW15766   2.692   3.135   1.422
 5075SOL    HW115767   2.687   3.168   1.517
 5075SOL    HW215768   2.606   3.154   1.376
 5076SOL     OW15769   2.534   3.478   0.154
 5076SOL    HW115770   2.543   3.488   0.055
 5076SOL    HW215771   2.494   3.389   0.175
 5077SOL     OW15772   3.512   3.582   1.394
 5077SOL    HW115773   3.565   3.592   1.310
 5077SOL    HW215774   3.485   3.672   1.428
 5078SOL     OW15775   3.703   2.037   0.963
 5078SOL    HW115776   3.742   1.952   0.927
 5078SOL    HW215777   3.605   2.039   0.944
 5079SOL     OW15778   3.056   3.474   0.031
 5079SOL    HW115779   3.062   3.381   0.068
 5079SOL    HW215780   2.997   3.474  -0.049
 5080SOL     OW15781   2.684   2.864   1.372
 5080SOL    HW115782   2.724   2.863   1.280
 5080SOL    HW215783   2.694   2.956   1.412
 5081SOL     OW15784   2.778   2.772   0.291
 5081SOL    HW115785   2.841   2.810   0.223
 5081SOL    HW215786   2.818   2.689   0.330
 5082SOL     OW15787   3.366   3.469   0.044
 5082SOL    HW115788   3.274   3.506   0.051
 5082SOL    HW215789   3.404   3.489  -0.046
 5083SOL     OW15790   2.234   3.150   1.490
 5083SOL    HW115791   2.221   3.243   1.456
 5083SOL    HW215792   2.150   3.098   1.477
 5084SOL     OW15793   3.476   3.154   1.289
 5084SOL    HW115794   3.536   3.157   1.369
 5084SOL    HW215795   3.401   3.218   1.302
 5085SOL     OW15796   2.901   2.960   0.696
 5085SOL    HW115797   2.831   2.913   0.750
 5085SOL    HW215798   2.960   2.892   0.653
 5086SOL     OW15799   2.876   2.098   0.971
 5086SOL    HW115800   2.868   2.062   0.878
 5086SOL    HW215801   2.874   2.022   1.036
 5087SOL     OW15802   2.452   3.349   0.491
 5087SOL    HW115803   2.494   3.291   0.421
 5087SOL    HW215804   2.408   3.428   0.447
 5088SOL     OW15805   3.571   2.247   1.381
 5088SOL    HW115806   3.644   2.316   1.385
 5088SOL    HW215807   3.599   2.172   1.322
 5089SOL     OW15808   2.117   3.210   0.290
 5089SOL    HW115809   2.021   3.211   0.263
 5089SOL    HW215810   2.129   3.263   0.374
 5090SOL     OW15811   1.967   2.875   1.726
 5090SOL    HW115812   1.890   2.842   1.780
 5090SOL    HW215813   2.052   2.845   1.768
 5091SOL     OW15814   2.534   2.065   1.489
 5091SOL    HW115815   2.624   2.049   1.449
 5091SOL    HW215816   2.542   2.070   1.588
 5092SOL     OW15817   1.937   2.207   0.033
 5092SOL    HW115818   1.845   2.179   0.004
 5092SOL    HW215819   1.968   2.284  -0.023
 5093SOL     OW15820   3.302   2.718   1.398
 5093SOL    HW115821   3.245   2.770   1.335
 5093SOL    HW215822   3.398   2.730   1.374
 5094SOL     OW15823   3.045   3.197   0.119
 5094SOL    HW115824   2.946   3.186   0.121
 5094SOL    HW215825   3.079   3.212   0.212
 5095SOL     OW15826   2.475   2.704   1.431
 5095SOL    HW115827   2.531   2.785   1.414
 5095SOL    HW215828   2.534   2.624   1.434
 5096SOL     OW15829   3.355   3.629   0.959
 5096SOL    HW115830   3.388   3.693   0.890
 5096SOL    HW215831   3.421   3.623   1.034
 5097SOL     OW15832   2.578   2.427   1.708
 5097SOL    HW115833   2.597   2.492   1.782
 5097SOL    HW215834   2.638   2.347   1.717
 5098SOL     OW15835   3.312   3.082   1.633
 5098SOL    HW115836   3.303   3.072   1.732
 5098SOL    HW215837   3.408   3.075   1.607
 5099SOL     OW15838   2.252   3.603   1.560
 5099SOL    HW115839   2.161   3.644   1.558
 5099SOL    HW215840   2.245   3.509   1.592
 5100SOL     OW15841   3.536   2.745   1.254
 5100SOL    HW115842   3.509   2.656   1.217
 5100SOL    HW215843   3.537   2.813   1.181
 5101SOL     OW15844   3.087   2.187   0.449
 5101SOL    HW115845   3.152   2.113   0.438
 5101SOL    HW215846   3.107   2.237   0.533
 5102SOL     OW15847   2.456   2.607   0.652
 5102SOL    HW115848   2.506   2.692   0.633
 5102SOL    HW215849   2.368   2.609   0.604
 5103SOL     OW15850   3.639   2.204   1.642
 5103SOL    HW115851   3.622   2.235   1.548
 5103SOL    HW215852   3.555   2.167   1.680
 5104SOL     OW15853   3.592   2.796   1.517
 5104SOL    HW115854   3.630   2.887   1.532
 5104SOL    HW215855   3.584   2.779   1.418
 5105SOL     OW15856   2.721   3.236   0.016
 5105SOL    HW115857   2.675   3.251   0.104
 5105SOL    HW215858   2.765   3.321  -0.014
 5106SOL     OW15859   2.523   3.652   0.953
 5106SOL    HW115860   2.477   3.740   0.940
 5106SOL    HW215861   2.622   3.664   0.946
 5107SOL     OW15862   2.721   2.818   0.861
 5107SOL    HW115863   2.775   2.749   0.909
 5107SOL    HW215864   2.689   2.887   0.927
 5108SOL     OW15865   2.945   2.846   0.087
 5108SOL    HW115866   2.922   2.899   0.005
 5108SOL    HW215867   3.026   2.790   0.068
 5109SOL     OW15868   3.723   3.431   0.851
 5109SOL    HW115869   3.652   3.419   0.781
 5109SOL    HW215870   3.724   3.352   0.911
 5110SOL     OW15871   2.083   3.176   1.844
 5110SOL    HW115872   2.018   3.103   1.823
 5110SOL    HW215873   2.087   3.190   1.942
 5111SOL     OW15874   1.941   3.102   0.653
 5111SOL    HW115875   1.940   3.055   0.741
 5111SOL    HW215876   2.023   3.074   0.602
 5112SOL     OW15877   2.534   3.253   1.624
 5112SOL    HW115878   2.456   3.203   1.662
 5112SOL    HW215879   2.531   3.348   1.655
 5113SOL     OW15880   3.686   2.054   1.227
 5113SOL    HW115881   3.682   1.964   1.271
 5113SOL    HW215882   3.689   2.043   1.128
 5114SOL     OW15883   2.290   2.286   0.520
 5114SOL    HW115884   2.320   2.214   0.458
 5114SOL    HW215885   2.251   2.246   0.603
 5115SOL     OW15886   3.567   3.349   1.104
 5115SOL    HW115887   3.474   3.324   1.077
 5115SOL    HW215888   3.593   3.299   1.186
 5116SOL     OW15889   2.179   2.409   1.280
 5116SOL    HW115890   2.217   2.350   1.352
 5116SOL    HW215891   2.219   2.383   1.192
 5117SOL     OW15892   2.674   3.448   0.687
 5117SOL    HW115893   2.706   3.458   0.593
 5117SOL    HW215894   2.595   3.386   0.689
 5118SOL     OW15895   3.286   2.076   1.112
 5118SOL    HW115896   3.338   2.011   1.167
 5118SOL    HW215897   3.237   2.139   1.173
 5119SOL     OW15898   2.863   1.896   1.154
 5119SOL    HW115899   2.800   1.824   1.123
 5119SOL    HW215900   2.956   1.860   1.154
 5120SOL     OW15901   2.632   3.192   0.301
 5120SOL    HW115902   2.586   3.105   0.318
 5120SOL    HW215903   2.723   3.189   0.342
 5121SOL     OW15904   2.480   3.429   1.284
 5121SOL    HW115905   2.475   3.511   1.341
 5121SOL    HW215906   2.569   3.426   1.239
 5122SOL     OW15907   3.214   1.914   0.168
 5122SOL    HW115908   3.249   1.873   0.084
 5122SOL    HW215909   3.124   1.876   0.188
 5123SOL     OW15910   3.162   2.315   0.691
 5123SOL    HW115911   3.103   2.395   0.695
 5123SOL    HW215912   3.177   2.280   0.784
 5124SOL     OW15913   3.455   2.083   0.882
 5124SOL    HW115914   3.371   2.082   0.936
 5124SOL    HW215915   3.457   2.166   0.826
 5125SOL     OW15916   1.901   2.939   0.300
 5125SOL    HW115917   2.000   2.928   0.291
 5125SOL    HW215918   1.861   2.853   0.332
 5126SOL     OW15919   2.737   3.508   0.337
 5126SOL    HW115920   2.660   3.473   0.283
 5126SOL    HW215921   2.705   3.579   0.399
 5127SOL     OW15922   2.092   2.490   1.975
 5127SOL    HW115923   1.999   2.488   2.012
 5127SOL    HW215924   2.093   2.451   1.883
 5128SOL     OW15925   1.881   2.230   2.509
 5128SOL    HW115926   1.799   2.273   2.548
 5128SOL    HW215927   1.853   2.157   2.446
 5129SOL     OW15928   2.431   3.137   3.027
 5129SOL    HW115929   2.338   3.130   2.990
 5129SOL    HW215930   2.442   3.226   3.071
 5130SOL     OW15931   3.417   3.373   2.565
 5130SOL    HW115932   3.360   3.357   2.646
 5130SOL    HW215933   3.358   3.383   2.485
 5131SOL     OW15934   2.997   2.565   2.579
 5131SOL    HW115935   3.054   2.643   2.554
 5131SOL    HW215936   2.937   2.591   2.655
 5132SOL     OW15937   3.617   2.469   2.093
 5132SOL    HW115938   3.605   2.456   1.994
 5132SOL    HW215939   3.587   2.388   2.142
 5133SOL     OW15940   2.630   3.006   2.885
 5133SOL    HW115941   2.552   3.023   2.945
 5133SOL    HW215942   2.664   3.093   2.849
 5134SOL     OW15943   2.712   2.660   3.685
 5134SOL    HW115944   2.708   2.736   3.750
 5134SOL    HW215945   2.734   2.696   3.594
 5135SOL     OW15946   2.547   2.874   2.527
 5135SOL    HW115947   2.616   2.858   2.597
 5135SOL    HW215948   2.474   2.931   2.565
 5136SOL     OW15949   2.548   3.023   3.665
 5136SOL    HW115950   2.608   3.102   3.679
 5136SOL    HW215951   2.462   3.054   3.624
 5137SOL     OW15952   2.197   3.297   2.923
 5137SOL    HW115953   2.119   3.266   2.870
 5137SOL    HW215954   2.255   3.355   2.866
 5138SOL     OW15955   3.322   3.367   3.201
 5138SOL    HW115956   3.346   3.461   3.227
 5138SOL    HW215957   3.306   3.313   3.283
 5139SOL     OW15958   2.300   2.254   3.361
 5139SOL    HW115959   2.382   2.198   3.370
 5139SOL    HW215960   2.219   2.196   3.365
 5140SOL     OW15961   3.465   2.309   2.599
 5140SOL    HW115962   3.391   2.355   2.549
 5140SOL    HW215963   3.516   2.377   2.652
 5141SOL     OW15964   2.093   3.575   2.345
 5141SOL    HW115965   2.127   3.652   2.399
 5141SOL    HW215966   2.137   3.575   2.255
 5142SOL     OW15967   2.989   3.203   3.552
 5142SOL    HW115968   3.036   3.203   3.640
 5142SOL    HW215969   2.941   3.116   3.541
 5143SOL     OW15970   2.092   3.296   2.400
 5143SOL    HW115971   2.066   3.392   2.400
 5143SOL    HW215972   2.021   3.242   2.445
 5144SOL     OW15973   2.102   2.953   2.748
 5144SOL    HW115974   2.116   2.869   2.800
 5144SOL    HW215975   2.047   3.017   2.803
 5145SOL     OW15976   2.482   3.648   3.301
 5145SOL    HW115977   2.390   3.631   3.336
 5145SOL    HW215978   2.510   3.740   3.327
 5146SOL     OW15979   2.468   2.826   1.985
 5146SOL    HW115980   2.475   2.910   1.931
 5146SOL    HW215981   2.514   2.839   2.073
 5147SOL     OW15982   3.456   1.976   3.342
 5147SOL    HW115983   3.438   2.043   3.270
 5147SOL    HW215984   3.453   2.022   3.431
 5148SOL     OW15985   1.984   2.505   2.425
 5148SOL    HW115986   1.939   2.417   2.442
 5148SOL    HW215987   1.983   2.559   2.509
 5149SOL     OW15988   3.704   3.629   2.221
 5149SOL    HW115989   3.758   3.600   2.301
 5149SOL    HW215990   3.734   3.719   2.192
 5150SOL     OW15991   1.889   3.458   1.979
 5150SOL    HW115992   1.870   3.362   2.000
 5150SOL    HW215993   1.856   3.516   2.054
 5151SOL     OW15994   3.551   2.784   2.474
 5151SOL    HW115995   3.646   2.755   2.482
 5151SOL    HW215996   3.543   2.849   2.399
 5152SOL     OW15997   3.503   2.970   2.294
 5152SOL    HW115998   3.589   2.972   2.242
 5152SOL    HW215999   3.517   3.017   2.382
 5153SOL     OW16000   1.975   2.599   3.459
 5153SOL    HW116001   2.063   2.586   3.504
 5153SOL    HW216002   1.962   2.696   3.437
 5154SOL     OW16003   2.475   3.227   2.588
 5154SOL    HW116004   2.426   3.140   2.597
 5154SOL    HW216005   2.452   3.270   2.501
 5155SOL     OW16006   3.155   3.090   3.285
 5155SOL    HW116007   3.192   3.017   3.227
 5155SOL    HW216008   3.207   3.095   3.370
 5156SOL     OW16009   2.671   1.866   2.364
 5156SOL    HW116010   2.711   1.957   2.355
 5156SOL    HW216011   2.571   1.874   2.370
 5157SOL     OW16012   2.059   2.838   3.126
 5157SOL    HW116013   2.148   2.793   3.112
 5157SOL    HW216014   1.986   2.773   3.107
 5158SOL     OW16015   3.387   2.861   2.052
 5158SOL    HW116016   3.324   2.785   2.065
 5158SOL    HW216017   3.435   2.879   2.138
 5159SOL     OW16018   3.049   3.654   3.478
 5159SOL    HW116019   3.073   3.714   3.402
 5159SOL    HW216020   3.056   3.559   3.448
 5160SOL     OW16021   3.328   3.279   2.815
 5160SOL    HW116022   3.269   3.285   2.895
 5160SOL    HW216023   3.313   3.191   2.769
 5161SOL     OW16024   3.529   3.576   2.434
 5161SOL    HW116025   3.488   3.553   2.346
 5161SOL    HW216026   3.511   3.502   2.499
 5162SOL     OW16027   2.460   2.591   2.132
 5162SOL    HW116028   2.484   2.660   2.064
 5162SOL    HW216029   2.382   2.624   2.186
 5163SOL     OW16030   3.143   2.207   2.806
 5163SOL    HW116031   3.057   2.157   2.793
 5163SOL    HW216032   3.205   2.153   2.862
 5164SOL     OW16033   3.438   3.524   2.169
 5164SOL    HW116034   3.527   3.570   2.172
 5164SOL    HW216035   3.417   3.500   2.074
 5165SOL     OW16036   2.669   2.467   3.327
 5165SOL    HW116037   2.622   2.464   3.416
 5165SOL    HW216038   2.618   2.412   3.261
 5166SOL     OW16039   3.256   2.331   3.536
 5166SOL    HW116040   3.236   2.374   3.624
 5166SOL    HW216041   3.334   2.269   3.545
 5167SOL     OW16042   2.835   2.752   3.434
 5167SOL    HW116043   2.881   2.668   3.405
 5167SOL    HW216044   2.779   2.786   3.359
 5168SOL     OW16045   2.853   2.272   3.104
 5168SOL    HW116046   2.776   2.306   3.158
 5168SOL    HW216047   2.819   2.221   3.025
 5169SOL     OW16048   2.903   2.563   2.291
 5169SOL    HW116049   2.929   2.559   2.387
 5169SOL    HW216050   2.818   2.512   2.277
 5170SOL     OW16051   1.938   2.673   2.651
 5170SOL    HW116052   2.037   2.661   2.660
 5170SOL    HW216053   1.914   2.768   2.672
 5171SOL     OW16054   1.992   3.683   3.433
 5171SOL    HW116055   1.982   3.668   3.532
 5171SOL    HW216056   1.906   3.719   3.397
 5172SOL     OW16057   2.727   2.210   2.057
 5172SOL    HW116058   2.786   2.273   2.008
 5172SOL    HW216059   2.746   2.116   2.028
 5173SOL     OW16060   3.581   2.447   3.693
 5173SOL    HW116061   3.555   2.536   3.657
 5173SOL    HW216062   3.579   2.379   3.620
 5174SOL     OW16063   3.224   3.006   2.407
 5174SOL    HW116064   3.307   2.977   2.359
 5174SOL    HW216065   3.175   3.073   2.351
 5175SOL     OW16066   2.412   2.058   2.747
 5175SOL    HW116067   2.407   2.053   2.847
 5175SOL    HW216068   2.414   2.154   2.718
 5176SOL     OW16069   2.870   3.318   2.339
 5176SOL    HW116070   2.824   3.390   2.287
 5176SOL    HW216071   2.866   3.338   2.437
 5177SOL     OW16072   2.213   3.663   2.715
 5177SOL    HW116073   2.263   3.577   2.721
 5177SOL    HW216074   2.278   3.740   2.712
 5178SOL     OW16075   3.657   2.928   2.735
 5178SOL    HW116076   3.595   2.913   2.659
 5178SOL    HW216077   3.605   2.939   2.820
 5179SOL     OW16078   3.089   3.412   3.368
 5179SOL    HW116079   3.095   3.335   3.432
 5179SOL    HW216080   3.037   3.386   3.288
 5180SOL     OW16081   2.183   2.805   2.104
 5180SOL    HW116082   2.265   2.844   2.062
 5180SOL    HW216083   2.156   2.723   2.055
 5181SOL     OW16084   3.320   2.597   2.590
 5181SOL    HW116085   3.315   2.532   2.665
 5181SOL    HW216086   3.400   2.656   2.603
 5182SOL     OW16087   2.323   3.128   3.589
 5182SOL    HW116088   2.273   3.129   3.503
 5182SOL    HW216089   2.260   3.110   3.665
 5183SOL     OW16090   2.973   3.638   2.099
 5183SOL    HW116091   2.913   3.576   2.149
 5183SOL    HW216092   3.004   3.594   2.014
 5184SOL     OW16093   3.494   3.239   1.943
 5184SOL    HW116094   3.462   3.333   1.933
 5184SOL    HW216095   3.418   3.176   1.931
 5185SOL     OW16096   2.326   3.605   2.185
 5185SOL    HW116097   2.359   3.644   2.271
 5185SOL    HW216098   2.402   3.598   2.120
 5186SOL     OW16099   3.262   1.969   2.288
 5186SOL    HW116100   3.238   1.932   2.198
 5186SOL    HW216101   3.361   1.985   2.292
 5187SOL     OW16102   2.111   3.647   3.103
 5187SOL    HW116103   2.168   3.582   3.153
 5187SOL    HW216104   2.095   3.614   3.010
 5188SOL     OW16105   2.802   3.560   2.766
 5188SOL    HW116106   2.882   3.503   2.787
 5188SOL    HW216107   2.753   3.520   2.689
 5189SOL     OW16108   2.244   2.562   2.342
 5189SOL    HW116109   2.289   2.472   2.339
 5189SOL    HW216110   2.150   2.551   2.375
 5190SOL     OW16111   3.409   2.084   3.591
 5190SOL    HW116112   3.404   2.121   3.683
 5190SOL    HW216113   3.337   2.015   3.579
 5191SOL     OW16114   2.476   1.984   1.979
 5191SOL    HW116115   2.574   1.962   1.986
 5191SOL    HW216116   2.445   1.967   1.886
 5192SOL     OW16117   2.643   2.126   3.611
 5192SOL    HW116118   2.710   2.065   3.654
 5192SOL    HW216119   2.570   2.145   3.676
 5193SOL     OW16120   2.750   3.376   3.057
 5193SOL    HW116121   2.727   3.351   2.963
 5193SOL    HW216122   2.811   3.307   3.096
 5194SOL     OW16123   3.213   2.452   3.295
 5194SOL    HW116124   3.241   2.409   3.380
 5194SOL    HW216125   3.238   2.548   3.296
 5195SOL     OW16126   2.665   3.264   2.786
 5195SOL    HW116127   2.755   3.278   2.744
 5195SOL    HW216128   2.594   3.266   2.715
 5196SOL     OW16129   2.784   2.365   2.761
 5196SOL    HW116130   2.759   2.356   2.665
 5196SOL    HW216131   2.832   2.283   2.792
 5197SOL     OW16132   2.401   1.926   2.374
 5197SOL    HW116133   2.320   1.927   2.432
 5197SOL    HW216134   2.404   2.009   2.319
 5198SOL     OW16135   3.296   3.050   1.903
 5198SOL    HW116136   3.328   2.974   1.960
 5198SOL    HW216137   3.204   3.077   1.933
 5199SOL     OW16138   2.797   2.098   2.342
 5199SOL    HW116139   2.749   2.139   2.264
 5199SOL    HW216140   2.896   2.096   2.323
 5200SOL     OW16141   2.938   2.545   3.326
 5200SOL    HW116142   2.858   2.484   3.329
 5200SOL    HW216143   3.019   2.492   3.302
 5201SOL     OW16144   3.089   3.432   2.655
 5201SOL    HW116145   3.110   3.506   2.590
 5201SOL    HW216146   3.157   3.432   2.728
 5202SOL     OW16147   2.321   3.014   2.603
 5202SOL    HW116148   2.250   2.987   2.668
 5202SOL    HW216149   2.295   2.986   2.510
 5203SOL     OW16150   3.133   3.659   2.453
 5203SOL    HW116151   3.177   3.723   2.389
 5203SOL    HW216152   3.083   3.711   2.523
 5204SOL     OW16153   2.894   2.411   1.878
 5204SOL    HW116154   2.853   2.493   1.839
 5204SOL    HW216155   2.958   2.437   1.951
 5205SOL     OW16156   1.940   2.418   3.248
 5205SOL    HW116157   2.032   2.417   3.207
 5205SOL    HW216158   1.934   2.492   3.315
 5206SOL     OW16159   2.423   2.084   3.009
 5206SOL    HW116160   2.461   2.000   3.046
 5206SOL    HW216161   2.335   2.103   3.053
 5207SOL     OW16162   2.728   2.316   2.504
 5207SOL    HW116163   2.696   2.388   2.442
 5207SOL    HW216164   2.752   2.235   2.451
 5208SOL     OW16165   2.879   1.901   2.615
 5208SOL    HW116166   2.807   1.906   2.546
 5208SOL    HW216167   2.855   1.832   2.684
 5209SOL     OW16168   3.291   3.035   2.729
 5209SOL    HW116169   3.236   2.951   2.722
 5209SOL    HW216170   3.317   3.064   2.637
 5210SOL     OW16171   3.328   2.452   2.854
 5210SOL    HW116172   3.298   2.357   2.861
 5210SOL    HW216173   3.401   2.468   2.920
 5211SOL     OW16174   3.719   2.695   2.239
 5211SOL    HW116175   3.761   2.631   2.303
 5211SOL    HW216176   3.681   2.644   2.161
 5212SOL     OW16177   2.350   3.247   2.036
 5212SOL    HW116178   2.263   3.232   2.083
 5212SOL    HW216179   2.333   3.273   1.941
 5213SOL     OW16180   3.526   3.142   2.519
 5213SOL    HW116181   3.625   3.150   2.533
 5213SOL    HW216182   3.481   3.226   2.550
 5214SOL     OW16183   3.252   2.437   1.940
 5214SOL    HW116184   3.198   2.416   2.021
 5214SOL    HW216185   3.343   2.396   1.949
 5215SOL     OW16186   2.389   2.118   2.190
 5215SOL    HW116187   2.416   2.059   2.115
 5215SOL    HW216188   2.389   2.213   2.159
 5216SOL     OW16189   3.616   3.085   3.450
 5216SOL    HW116190   3.707   3.046   3.437
 5216SOL    HW216191   3.624   3.181   3.474
 5217SOL     OW16192   2.926   3.209   3.202
 5217SOL    HW116193   2.846   3.186   3.257
 5217SOL    HW216194   3.009   3.183   3.251
 5218SOL     OW16195   3.454   3.491   3.487
 5218SOL    HW116196   3.481   3.525   3.397
 5218SOL    HW216197   3.533   3.453   3.533
 5219SOL     OW16198   2.973   3.057   2.962
 5219SOL    HW116199   2.933   3.101   3.043
 5219SOL    HW216200   2.932   3.094   2.879
 5220SOL     OW16201   3.500   2.961   2.941
 5220SOL    HW116202   3.505   3.042   3.000
 5220SOL    HW216203   3.414   2.963   2.890
 5221SOL     OW16204   2.777   1.951   3.264
 5221SOL    HW116205   2.802   1.931   3.169
 5221SOL    HW216206   2.849   2.007   3.306
 5222SOL     OW16207   2.842   2.978   3.581
 5222SOL    HW116208   2.743   2.984   3.591
 5222SOL    HW216209   2.865   2.898   3.525
 5223SOL     OW16210   2.567   2.912   2.230
 5223SOL    HW116211   2.553   2.919   2.329
 5223SOL    HW216212   2.651   2.861   2.212
 5224SOL     OW16213   2.272   2.675   3.113
 5224SOL    HW116214   2.358   2.687   3.163
 5224SOL    HW216215   2.230   2.588   3.140
 5225SOL     OW16216   3.136   2.248   3.124
 5225SOL    HW116217   3.157   2.322   3.188
 5225SOL    HW216218   3.047   2.265   3.081
 5226SOL     OW16219   1.926   3.426   3.193
 5226SOL    HW116220   1.880   3.508   3.159
 5226SOL    HW216221   2.024   3.445   3.202
 5227SOL     OW16222   2.229   2.962   2.363
 5227SOL    HW116223   2.222   3.045   2.307
 5227SOL    HW216224   2.233   2.882   2.303
 5228SOL     OW16225   2.428   2.399   2.727
 5228SOL    HW116226   2.440   2.465   2.653
 5228SOL    HW216227   2.474   2.433   2.810
 5229SOL     OW16228   3.114   3.210   2.250
 5229SOL    HW116229   3.164   3.287   2.290
 5229SOL    HW216230   3.019   3.212   2.282
 5230SOL     OW16231   3.134   3.307   3.004
 5230SOL    HW116232   3.181   3.320   3.091
 5230SOL    HW216233   3.068   3.233   3.013
 5231SOL     OW16234   3.444   2.501   2.334
 5231SOL    HW116235   3.413   2.562   2.407
 5231SOL    HW216236   3.494   2.553   2.265
 5232SOL     OW16237   2.216   3.372   3.191
 5232SOL    HW116238   2.195   3.328   3.104
 5232SOL    HW216239   2.313   3.398   3.194
 5233SOL     OW16240   2.264   2.613   3.460
 5233SOL    HW116241   2.332   2.668   3.413
 5233SOL    HW216242   2.304   2.525   3.487
 5234SOL     OW16243   3.449   2.641   3.532
 5234SOL    HW116244   3.357   2.679   3.527
 5234SOL    HW216245   3.509   2.688   3.467
 5235SOL     OW16246   2.875   1.967   3.632
 5235SOL    HW116247   2.881   2.052   3.580
 5235SOL    HW216248   2.907   1.891   3.575
 5236SOL     OW16249   2.366   1.912   3.602
 5236SOL    HW116250   2.324   1.855   3.532
 5236SOL    HW216251   2.300   1.981   3.634
 5237SOL     OW16252   2.435   2.732   2.891
 5237SOL    HW116253   2.479   2.821   2.882
 5237SOL    HW216254   2.372   2.732   2.968
 5238SOL     OW16255   3.222   2.724   2.907
 5238SOL    HW116256   3.147   2.724   2.841
 5238SOL    HW216257   3.259   2.632   2.916
 5239SOL     OW16258   3.071   2.387   2.137
 5239SOL    HW116259   3.084   2.303   2.191
 5239SOL    HW216260   3.042   2.461   2.197
 5240SOL     OW16261   1.899   3.172   3.144
 5240SOL    HW116262   1.952   3.123   3.212
 5240SOL    HW216263   1.921   3.270   3.149
 5241SOL     OW16264   2.594   2.496   2.926
 5241SOL    HW116265   2.653   2.470   2.850
 5241SOL    HW216266   2.566   2.592   2.915
 5242SOL     OW16267   3.590   2.797   3.716
 5242SOL    HW116268   3.544   2.790   3.627
 5242SOL    HW216269   3.528   2.841   3.782
 5243SOL     OW16270   2.169   1.925   2.480
 5243SOL    HW116271   2.158   2.019   2.513
 5243SOL    HW216272   2.164   1.862   2.557
 5244SOL     OW16273   3.484   2.229   2.236
 5244SOL    HW116274   3.486   2.153   2.300
 5244SOL    HW216275   3.436   2.306   2.276
 5245SOL     OW16276   2.885   2.628   2.828
 5245SOL    HW116277   2.900   2.649   2.924
 5245SOL    HW216278   2.855   2.533   2.819
 5246SOL     OW16279   2.842   3.435   3.562
 5246SOL    HW116280   2.822   3.479   3.474
 5246SOL    HW216281   2.881   3.344   3.546
 5247SOL     OW16282   3.721   3.380   3.467
 5247SOL    HW116283   3.735   3.407   3.372
 5247SOL    HW216284   3.804   3.402   3.520
 5248SOL     OW16285   2.212   2.760   3.666
 5248SOL    HW116286   2.288   2.804   3.714
 5248SOL    HW216287   2.247   2.713   3.584
 5249SOL     OW16288   3.402   2.136   1.987
 5249SOL    HW116289   3.341   2.061   2.010
 5249SOL    HW216290   3.424   2.188   2.070
 5250SOL     OW16291   3.165   2.700   1.904
 5250SOL    HW116292   3.199   2.607   1.919
 5250SOL    HW216293   3.183   2.727   1.809
 5251SOL     OW16294   2.930   3.195   2.711
 5251SOL    HW116295   2.937   3.111   2.656
 5251SOL    HW216296   2.992   3.264   2.675
 5252SOL     OW16297   2.181   2.672   2.811
 5252SOL    HW116298   2.274   2.708   2.816
 5252SOL    HW216299   2.175   2.587   2.863
 5253SOL     OW16300   2.201   2.371   2.868
 5253SOL    HW116301   2.149   2.288   2.851
 5253SOL    HW216302   2.278   2.376   2.804
 5254SOL     OW16303   3.000   2.242   3.540
 5254SOL    HW116304   2.955   2.305   3.604
 5254SOL    HW216305   3.093   2.273   3.523
 5255SOL     OW16306   3.022   2.069   3.339
 5255SOL    HW116307   3.022   2.133   3.416
 5255SOL    HW216308   3.050   2.117   3.256
 5256SOL     OW16309   1.870   3.188   2.062
 5256SOL    HW116310   1.777   3.209   2.031
 5256SOL    HW216311   1.880   3.089   2.075
 5257SOL     OW16312   1.950   3.663   2.789
 5257SOL    HW116313   1.908   3.577   2.762
 5257SOL    HW216314   2.044   3.666   2.755
 5258SOL     OW16315   2.366   3.430   2.772
 5258SOL    HW116316   2.432   3.504   2.781
 5258SOL    HW216317   2.410   3.351   2.730
 5259SOL     OW16318   2.864   2.658   3.100
 5259SOL    HW116319   2.905   2.626   3.186
 5259SOL    HW216320   2.768   2.631   3.097
 5260SOL     OW16321   1.902   2.406   2.976
 5260SOL    HW116322   1.987   2.373   2.935
 5260SOL    HW216323   1.915   2.421   3.074
 5261SOL     OW16324   2.051   2.382   3.584
 5261SOL    HW116325   2.110   2.342   3.514
 5261SOL    HW216326   1.993   2.453   3.543
 5262SOL     OW16327   3.231   2.812   3.522
 5262SOL    HW116328   3.270   2.901   3.542
 5262SOL    HW216329   3.241   2.792   3.425
 5263SOL     OW16330   2.677   2.434   2.187
 5263SOL    HW116331   2.684   2.345   2.141
 5263SOL    HW216332   2.583   2.468   2.179
 5264SOL     OW16333   3.519   2.466   3.068
 5264SOL    HW116334   3.481   2.397   3.130
 5264SOL    HW216335   3.601   2.430   3.024
 5265SOL     OW16336   2.114   3.426   3.606
 5265SOL    HW116337   2.084   3.483   3.682
 5265SOL    HW216338   2.107   3.329   3.632
 5266SOL     OW16339   2.533   2.326   3.131
 5266SOL    HW116340   2.499   2.237   3.101
 5266SOL    HW216341   2.559   2.380   3.051
 5267SOL     OW16342   2.792   3.540   3.327
 5267SOL    HW116343   2.768   3.522   3.232
 5267SOL    HW216344   2.822   3.634   3.337
 5268SOL     OW16345   2.335   2.362   2.053
 5268SOL    HW116346   2.396   2.442   2.057
 5268SOL    HW216347   2.240   2.393   2.060
 5269SOL     OW16348   2.021   2.999   3.328
 5269SOL    HW116349   2.043   2.938   3.404
 5269SOL    HW216350   2.031   2.950   3.242
 5270SOL     OW16351   3.209   2.921   3.096
 5270SOL    HW116352   3.233   2.858   3.022
 5270SOL    HW216353   3.119   2.961   3.078
 5271SOL     OW16354   3.164   2.717   2.171
 5271SOL    HW116355   3.078   2.686   2.213
 5271SOL    HW216356   3.160   2.703   2.072
 5272SOL     OW16357   3.621   3.609   3.016
 5272SOL    HW116358   3.682   3.639   2.943
 5272SOL    HW216359   3.583   3.520   2.994
 5273SOL     OW16360   3.114   3.593   2.990
 5273SOL    HW116361   3.198   3.598   2.936
 5273SOL    HW216362   3.091   3.497   3.008
 5274SOL     OW16363   1.945   3.120   2.884
 5274SOL    HW116364   1.940   3.119   2.984
 5274SOL    HW216365   1.862   3.079   2.846
 5275SOL     OW16366   2.550   3.524   3.578
 5275SOL    HW116367   2.494   3.605   3.587
 5275SOL    HW216368   2.602   3.528   3.492
 5276SOL     OW16369   3.588   1.997   2.385
 5276SOL    HW116370   3.661   1.980   2.318
 5276SOL    HW216371   3.557   1.910   2.423
 5277SOL     OW16372   3.250   3.435   2.339
 5277SOL    HW116373   3.317   3.447   2.265
 5277SOL    HW216374   3.210   3.524   2.362
 5278SOL     OW16375   1.992   3.656   3.713
 5278SOL    HW116376   1.951   3.582   3.766
 5278SOL    HW216377   2.056   3.707   3.771
 5279SOL     OW16378   3.142   2.789   2.534
 5279SOL    HW116379   3.202   2.708   2.536
 5279SOL    HW216380   3.182   2.858   2.474
 5280SOL     OW16381   2.692   3.135   3.284
 5280SOL    HW116382   2.687   3.168   3.379
 5280SOL    HW216383   2.606   3.154   3.238
 5281SOL     OW16384   2.534   3.478   2.016
 5281SOL    HW116385   2.543   3.488   1.917
 5281SOL    HW216386   2.494   3.389   2.037
 5282SOL     OW16387   3.512   3.582   3.256
 5282SOL    HW116388   3.565   3.592   3.172
 5282SOL    HW216389   3.485   3.672   3.290
 5283SOL     OW16390   3.703   2.037   2.825
 5283SOL    HW116391   3.742   1.952   2.789
 5283SOL    HW216392   3.605   2.039   2.806
 5284SOL     OW16393   3.056   3.474   1.893
 5284SOL    HW116394   3.062   3.381   1.930
 5284SOL    HW216395   2.997   3.474   1.813
 5285SOL     OW16396   2.684   2.864   3.234
 5285SOL    HW116397   2.724   2.863   3.142
 5285SOL    HW216398   2.694   2.956   3.274
 5286SOL     OW16399   2.778   2.772   2.153
 5286SOL    HW116400   2.841   2.810   2.085
 5286SOL    HW216401   2.818   2.689   2.192
 5287SOL     OW16402   3.366   3.469   1.906
 5287SOL    HW116403   3.274   3.506   1.913
 5287SOL    HW216404   3.404   3.489   1.816
 5288SOL     OW16405   2.234   3.150   3.352
 5288SOL    HW116406   2.221   3.243   3.318
 5288SOL    HW216407   2.150   3.098   3.339
 5289SOL     OW16408   3.476   3.154   3.151
 5289SOL    HW116409   3.536   3.157   3.231
 5289SOL    HW216410   3.401   3.218   3.164
 5290SOL     OW16411   2.901   2.960   2.558
 5290SOL    HW116412   2.831   2.913   2.612
 5290SOL    HW216413   2.960   2.892   2.515
 5291SOL     OW16414   2.876   2.098   2.833
 5291SOL    HW116415   2.868   2.062   2.740
 5291SOL    HW216416   2.874   2.022   2.898
 5292SOL     OW16417   2.452   3.349   2.353
 5292SOL    HW116418   2.494   3.291   2.283
 5292SOL    HW216419   2.408   3.428   2.309
 5293SOL     OW16420   3.571   2.247   3.243
 5293SOL    HW116421   3.644   2.316   3.247
 5293SOL    HW216422   3.599   2.172   3.184
 5294SOL     OW16423   2.117   3.210   2.152
 5294SOL    HW116424   2.021   3.211   2.125
 5294SOL    HW216425   2.129   3.263   2.236
 5295SOL     OW16426   1.967   2.875   3.588
 5295SOL    HW116427   1.890   2.842   3.642
 5295SOL    HW216428   2.052   2.845   3.630
 5296SOL     OW16429   2.534   2.065   3.351
 5296SOL    HW116430   2.624   2.049   3.311
 5296SOL    HW216431   2.542   2.070   3.450
 5297SOL     OW16432   1.937   2.207   1.895
 5297SOL    HW116433   1.845   2.179   1.866
 5297SOL    HW216434   1.968   2.284   1.839
 5298SOL     OW16435   3.302   2.718   3.260
 5298SOL    HW116436   3.245   2.770   3.197
 5298SOL    HW216437   3.398   2.730   3.236
 5299SOL     OW16438   3.045   3.197   1.981
 5299SOL    HW116439   2.946   3.186   1.983
 5299SOL    HW216440   3.079   3.212   2.074
 5300SOL     OW16441   2.475   2.704   3.293
 5300SOL    HW116442   2.531   2.785   3.276
 5300SOL    HW216443   2.534   2.624   3.296
 5301SOL     OW16444   3.355   3.629   2.821
 5301SOL    HW116445   3.388   3.693   2.752
 5301SOL    HW216446   3.421   3.623   2.896
 5302SOL     OW16447   2.578   2.427   3.570
 5302SOL    HW116448   2.597   2.492   3.644
 5302SOL    HW216449   2.638   2.347   3.579
 5303SOL     OW16450   3.312   3.082   3.495
 5303SOL    HW116451   3.303   3.072   3.594
 5303SOL    HW216452   3.408   3.075   3.469
 5304SOL     OW16453   2.252   3.603   3.422
 5304SOL    HW116454   2.161   3.644   3.420
 5304SOL    HW216455   2.245   3.509   3.454
 5305SOL     OW16456   3.536   2.745   3.116
 5305SOL    HW116457   3.509   2.656   3.079
 5305SOL    HW216458   3.537   2.813   3.043
 5306SOL     OW16459   3.087   2.187   2.311
 5306SOL    HW116460   3.152   2.113   2.300
 5306SOL    HW216461   3.107   2.237   2.395
 5307SOL     OW16462   2.456   2.607   2.514
 5307SOL    HW116463   2.506   2.692   2.495
 5307SOL    HW216464   2.368   2.609   2.466
 5308SOL     OW16465   3.639   2.204   3.504
 5308SOL    HW116466   3.622   2.235   3.410
 5308SOL    HW216467   3.555   2.167   3.542
 5309SOL     OW16468   3.592   2.796   3.379
 5309SOL    HW116469   3.630   2.887   3.394
 5309SOL    HW216470   3.584   2.779   3.280
 5310SOL     OW16471   2.721   3.236   1.878
 5310SOL    HW116472   2.675   3.251   1.966
 5310SOL    HW216473   2.765   3.321   1.848
 5311SOL     OW16474   2.523   3.652   2.815
 5311SOL    HW116475   2.477   3.740   2.802
 5311SOL    HW216476   2.622   3.664   2.808
 5312SOL     OW16477   2.721   2.818   2.723
 5312SOL    HW116478   2.775   2.749   2.771
 5312SOL    HW216479   2.689   2.887   2.789
 5313SOL     OW16480   2.945   2.846   1.949
 5313SOL    HW116481   2.922   2.899   1.867
 5313SOL    HW216482   3.026   2.790   1.930
 5314SOL     OW16483   3.723   3.431   2.713
 5314SOL    HW116484   3.652   3.419   2.643
 5314SOL    HW216485   3.724   3.352   2.773
 5315SOL     OW16486   2.083   3.176   3.706
 5315SOL    HW116487   2.018   3.103   3.685
 5315SOL    HW216488   2.087   3.190   3.804
 5316SOL     OW16489   1.941   3.102   2.515
 5316SOL    HW116490   1.940   3.055   2.603
 5316SOL    HW216491   2.023   3.074   2.464
 5317SOL     OW16492   2.534   3.253   3.486
 5317SOL    HW116493   2.456   3.203   3.524
 5317SOL    HW216494   2.531   3.348   3.517
 5318SOL     OW16495   3.686   2.054   3.089
 5318SOL    HW116496   3.682   1.964   3.133
 5318SOL    HW216497   3.689   2.043   2.990
 5319SOL     OW16498   2.290   2.286   2.382
 5319SOL    HW116499   2.320   2.214   2.320
 5319SOL    HW216500   2.251   2.246   2.465
 5320SOL     OW16501   3.567   3.349   2.966
 5320SOL    HW116502   3.474   3.324   2.939
 5320SOL    HW216503   3.593   3.299   3.048
 5321SOL     OW16504   2.179   2.409   3.142
 5321SOL    HW116505   2.217   2.350   3.214
 5321SOL    HW216506   2.219   2.383   3.054
 5322SOL     OW16507   2.674   3.448   2.549
 5322SOL    HW116508   2.706   3.458   2.455
 5322SOL    HW216509   2.595   3.386   2.551
 5323SOL     OW16510   3.286   2.076   2.974
 5323SOL    HW116511   3.338   2.011   3.029
 5323SOL    HW216512   3.237   2.139   3.035
 5324SOL     OW16513   2.863   1.896   3.016
 5324SOL    HW116514   2.800   1.824   2.985
 5324SOL    HW216515   2.956   1.860   3.016
 5325SOL     OW16516   2.632   3.192   2.163
 5325SOL    HW116517   2.586   3.105   2.180
 5325SOL    HW216518   2.723   3.189   2.204
 5326SOL     OW16519   2.480   3.429   3.146
 5326SOL    HW116520   2.475   3.511   3.203
 5326SOL    HW216521   2.569   3.426   3.101
 5327SOL     OW16522   3.214   1.914   2.030
 5327SOL    HW116523   3.249   1.873   1.946
 5327SOL    HW216524   3.124   1.876   2.050
 5328SOL     OW16525   3.162   2.315   2.553
 5328SOL    HW116526   3.103   2.395   2.557
 5328SOL    HW216527   3.177   2.280   2.646
 5329SOL     OW16528   3.455   2.083   2.744
 5329SOL    HW116529   3.371   2.082   2.798
 5329SOL    HW216530   3.457   2.166   2.688
 5330SOL     OW16531   1.901   2.939   2.162
 5330SOL    HW116532   2.000   2.928   2.153
 5330SOL    HW216533   1.861   2.853   2.194
 5331SOL     OW16534   2.737   3.508   2.199
 5331SOL    HW116535   2.660   3.473   2.145
 5331SOL    HW216536   2.705   3.579   2.261
 5332SOL     OW16537   2.092   2.490   3.837
 5332SOL    HW116538   1.999   2.488   3.874
 5332SOL    HW216539   2.093   2.451   3.745
 5333SOL     OW16540   1.881   2.230   4.371
 5333SOL    HW116541   1.799   2.273   4.410
 5333SOL    HW216542   1.853   2.157   4.308
 5334SOL     OW16543   2.431   3.137   4.889
 5334SOL    HW116544   2.338   3.130   4.852
 5334SOL    HW216545   2.442   3.226   4.933
 5335SOL     OW16546   3.417   3.373   4.427
 5335SOL    HW116547   3.360   3.357   4.508
 5335SOL    HW216548   3.358   3.383   4.347
 5336SOL     OW16549   2.997   2.565   4.441
 5336SOL    HW116550   3.054   2.643   4.416
 5336SOL    HW216551   2.937   2.591   4.517
 5337SOL     OW16552   3.617   2.469   3.955
 5337SOL    HW116553   3.605   2.456   3.856
 5337SOL    HW216554   3.587   2.388   4.004
 5338SOL     OW16555   2.630   3.006   4.747
 5338SOL    HW116556   2.552   3.023   4.807
 5338SOL    HW216557   2.664   3.093   4.711
 5339SOL     OW16558   2.712   2.660   5.547
 5339SOL    HW116559   2.708   2.736   5.612
 5339SOL    HW216560   2.734   2.696   5.456
 5340SOL     OW16561   2.547   2.874   4.389
 5340SOL    HW116562   2.616   2.858   4.459
 5340SOL    HW216563   2.474   2.931   4.427
 5341SOL     OW16564   2.548   3.023   5.527
 5341SOL    HW116565   2.608   3.102   5.541
 5341SOL    HW216566   2.462   3.054   5.486
 5342SOL     OW16567   2.197   3.297   4.785
 5342SOL    HW116568   2.119   3.266   4.732
 5342SOL    HW216569   2.255   3.355   4.728
 5343SOL     OW16570   3.322   3.367   5.063
 5343SOL    HW116571   3.346   3.461   5.089
 5343SOL    HW216572   3.306   3.313   5.145
 5344SOL     OW16573   2.300   2.254   5.223
 5344SOL    HW116574   2.382   2.198   5.232
 5344SOL    HW216575   2.219   2.196   5.227
 5345SOL     OW16576   3.465   2.309   4.461
 5345SOL    HW116577   3.391   2.355   4.411
 5345SOL    HW216578   3.516   2.377   4.514
 5346SOL     OW16579   2.093   3.575   4.207
 5346SOL    HW116580   2.127   3.652   4.261
 5346SOL    HW216581   2.137   3.575   4.117
 5347SOL     OW16582   2.989   3.203   5.414
 5347SOL    HW116583   3.036   3.203   5.502
 5347SOL    HW216584   2.941   3.116   5.403
 5348SOL     OW16585   2.092   3.296   4.262
 5348SOL    HW116586   2.066   3.392   4.262
 5348SOL    HW216587   2.021   3.242   4.307
 5349SOL     OW16588   2.102   2.953   4.610
 5349SOL    HW116589   2.116   2.869   4.662
 5349SOL    HW216590   2.047   3.017   4.665
 5350SOL     OW16591   2.482   3.648   5.163
 5350SOL    HW116592   2.390   3.631   5.198
 5350SOL    HW216593   2.510   3.740   5.189
 5351SOL     OW16594   2.468   2.826   3.847
 5351SOL    HW116595   2.475   2.910   3.793
 5351SOL    HW216596   2.514   2.839   3.935
 5352SOL     OW16597   3.456   1.976   5.204
 5352SOL    HW116598   3.438   2.043   5.132
 5352SOL    HW216599   3.453   2.022   5.293
 5353SOL     OW16600   1.984   2.505   4.287
 5353SOL    HW116601   1.939   2.417   4.304
 5353SOL    HW216602   1.983   2.559   4.371
 5354SOL     OW16603   3.704   3.629   4.083
 5354SOL    HW116604   3.758   3.600   4.163
 5354SOL    HW216605   3.734   3.719   4.054
 5355SOL     OW16606   1.889   3.458   3.841
 5355SOL    HW116607   1.870   3.362   3.862
 5355SOL    HW216608   1.856   3.516   3.916
 5356SOL     OW16609   3.551   2.784   4.336
 5356SOL    HW116610   3.646   2.755   4.344
 5356SOL    HW216611   3.543   2.849   4.261
 5357SOL     OW16612   3.503   2.970   4.156
 5357SOL    HW116613   3.589   2.972   4.104
 5357SOL    HW216614   3.517   3.017   4.244
 5358SOL     OW16615   1.975   2.599   5.321
 5358SOL    HW116616   2.063   2.586   5.366
 5358SOL    HW216617   1.962   2.696   5.299
 5359SOL     OW16618   2.475   3.227   4.450
 5359SOL    HW116619   2.426   3.140   4.459
 5359SOL    HW216620   2.452   3.270   4.363
 5360SOL     OW16621   3.155   3.090   5.147
 5360SOL    HW116622   3.192   3.017   5.089
 5360SOL    HW216623   3.207   3.095   5.232
 5361SOL     OW16624   2.671   1.866   4.226
 5361SOL    HW116625   2.711   1.957   4.217
 5361SOL    HW216626   2.571   1.874   4.232
 5362SOL     OW16627   2.059   2.838   4.988
 5362SOL    HW116628   2.148   2.793   4.974
 5362SOL    HW216629   1.986   2.773   4.969
 5363SOL     OW16630   3.387   2.861   3.914
 5363SOL    HW116631   3.324   2.785   3.927
 5363SOL    HW216632   3.435   2.879   4.000
 5364SOL     OW16633   3.049   3.654   5.340
 5364SOL    HW116634   3.073   3.714   5.264
 5364SOL    HW216635   3.056   3.559   5.310
 5365SOL     OW16636   3.328   3.279   4.677
 5365SOL    HW116637   3.269   3.285   4.757
 5365SOL    HW216638   3.313   3.191   4.631
 5366SOL     OW16639   3.529   3.576   4.296
 5366SOL    HW116640   3.488   3.553   4.208
 5366SOL    HW216641   3.511   3.502   4.361
 5367SOL     OW16642   2.460   2.591   3.994
 5367SOL    HW116643   2.484   2.660   3.926
 5367SOL    HW216644   2.382   2.624   4.048
 5368SOL     OW16645   3.143   2.207   4.668
 5368SOL    HW116646   3.057   2.157   4.655
 5368SOL    HW216647   3.205   2.153   4.724
 5369SOL     OW16648   3.438   3.524   4.031
 5369SOL    HW116649   3.527   3.570   4.034
 5369SOL    HW216650   3.417   3.500   3.936
 5370SOL     OW16651   2.669   2.467   5.189
 5370SOL    HW116652   2.622   2.464   5.278
 5370SOL    HW216653   2.618   2.412   5.123
 5371SOL     OW16654   3.256   2.331   5.398
 5371SOL    HW116655   3.236   2.374   5.486
 5371SOL    HW216656   3.334   2.269   5.407
 5372SOL     OW16657   2.835   2.752   5.296
 5372SOL    HW116658   2.881   2.668   5.267
 5372SOL    HW216659   2.779   2.786   5.221
 5373SOL     OW16660   2.853   2.272   4.966
 5373SOL    HW116661   2.776   2.306   5.020
 5373SOL    HW216662   2.819   2.221   4.887
 5374SOL     OW16663   2.903   2.563   4.153
 5374SOL    HW116664   2.929   2.559   4.249
 5374SOL    HW216665   2.818   2.512   4.139
 5375SOL     OW16666   1.938   2.673   4.513
 5375SOL    HW116667   2.037   2.661   4.522
 5375SOL    HW216668   1.914   2.768   4.534
 5376SOL     OW16669   1.992   3.683   5.295
 5376SOL    HW116670   1.982   3.668   5.394
 5376SOL    HW216671   1.906   3.719   5.259
 5377SOL     OW16672   2.727   2.210   3.919
 5377SOL    HW116673   2.786   2.273   3.870
 5377SOL    HW216674   2.746   2.116   3.890
 5378SOL     OW16675   3.581   2.447   5.555
 5378SOL    HW116676   3.555   2.536   5.519
 5378SOL    HW216677   3.579   2.379   5.482
 5379SOL     OW16678   3.224   3.006   4.269
 5379SOL    HW116679   3.307   2.977   4.221
 5379SOL    HW216680   3.175   3.073   4.213
 5380SOL     OW16681   2.412   2.058   4.609
 5380SOL    HW116682   2.407   2.053   4.709
 5380SOL    HW216683   2.414   2.154   4.580
 5381SOL     OW16684   2.870   3.318   4.201
 5381SOL    HW116685   2.824   3.390   4.149
 5381SOL    HW216686   2.866   3.338   4.299
 5382SOL     OW16687   2.213   3.663   4.577
 5382SOL    HW116688   2.263   3.577   4.583
 5382SOL    HW216689   2.278   3.740   4.574
 5383SOL     OW16690   3.657   2.928   4.597
 5383SOL    HW116691   3.595   2.913   4.521
 5383SOL    HW216692   3.605   2.939   4.682
 5384SOL     OW16693   3.089   3.412   5.230
 5384SOL    HW116694   3.095   3.335   5.294
 5384SOL    HW216695   3.037   3.386   5.150
 5385SOL     OW16696   2.183   2.805   3.966
 5385SOL    HW116697   2.265   2.844   3.924
 5385SOL    HW216698   2.156   2.723   3.917
 5386SOL     OW16699   3.320   2.597   4.452
 5386SOL    HW116700   3.315   2.532   4.527
 5386SOL    HW216701   3.400   2.656   4.465
 5387SOL     OW16702   2.323   3.128   5.451
 5387SOL    HW116703   2.273   3.129   5.365
 5387SOL    HW216704   2.260   3.110   5.527
 5388SOL     OW16705   2.973   3.638   3.961
 5388SOL    HW116706   2.913   3.576   4.011
 5388SOL    HW216707   3.004   3.594   3.876
 5389SOL     OW16708   3.494   3.239   3.805
 5389SOL    HW116709   3.462   3.333   3.795
 5389SOL    HW216710   3.418   3.176   3.793
 5390SOL     OW16711   2.326   3.605   4.047
 5390SOL    HW116712   2.359   3.644   4.133
 5390SOL    HW216713   2.402   3.598   3.982
 5391SOL     OW16714   3.262   1.969   4.150
 5391SOL    HW116715   3.238   1.932   4.060
 5391SOL    HW216716   3.361   1.985   4.154
 5392SOL     OW16717   2.111   3.647   4.965
 5392SOL    HW116718   2.168   3.582   5.015
 5392SOL    HW216719   2.095   3.614   4.872
 5393SOL     OW16720   2.802   3.560   4.628
 5393SOL    HW116721   2.882   3.503   4.649
 5393SOL    HW216722   2.753   3.520   4.551
 5394SOL     OW16723   2.244   2.562   4.204
 5394SOL    HW116724   2.289   2.472   4.201
 5394SOL    HW216725   2.150   2.551   4.237
 5395SOL     OW16726   3.409   2.084   5.453
 5395SOL    HW116727   3.404   2.121   5.545
 5395SOL    HW216728   3.337   2.015   5.441
 5396SOL     OW16729   2.476   1.984   3.841
 5396SOL    HW116730   2.574   1.962   3.848
 5396SOL    HW216731   2.445   1.967   3.748
 5397SOL     OW16732   2.643   2.126   5.473
 5397SOL    HW116733   2.710   2.065   5.516
 5397SOL    HW216734   2.570   2.145   5.538
 5398SOL     OW16735   2.750   3.376   4.919
 5398SOL    HW116736   2.727   3.351   4.825
 5398SOL    HW216737   2.811   3.307   4.958
 5399SOL     OW16738   3.213   2.452   5.157
 5399SOL    HW116739   3.241   2.409   5.242
 5399SOL    HW216740   3.238   2.548   5.158
 5400SOL     OW16741   2.665   3.264   4.648
 5400SOL    HW116742   2.755   3.278   4.606
 5400SOL    HW216743   2.594   3.266   4.577
 5401SOL     OW16744   2.784   2.365   4.623
 5401SOL    HW116745   2.759   2.356   4.527
 5401SOL    HW216746   2.832   2.283   4.654
 5402SOL     OW16747   2.401   1.926   4.236
 5402SOL    HW116748   2.320   1.927   4.294
 5402SOL    HW216749   2.404   2.009   4.181
 5403SOL     OW16750   3.296   3.050   3.765
 5403SOL    HW116751   3.328   2.974   3.822
 5403SOL    HW216752   3.204   3.077   3.795
 5404SOL     OW16753   2.797   2.098   4.204
 5404SOL    HW116754   2.749   2.139   4.126
 5404SOL    HW216755   2.896   2.096   4.185
 5405SOL     OW16756   2.938   2.545   5.188
 5405SOL    HW116757   2.858   2.484   5.191
 5405SOL    HW216758   3.019   2.492   5.164
 5406SOL     OW16759   3.089   3.432   4.517
 5406SOL    HW116760   3.110   3.506   4.452
 5406SOL    HW216761   3.157   3.432   4.590
 5407SOL     OW16762   2.321   3.014   4.465
 5407SOL    HW116763   2.250   2.987   4.530
 5407SOL    HW216764   2.295   2.986   4.372
 5408SOL     OW16765   3.133   3.659   4.315
 5408SOL    HW116766   3.177   3.723   4.251
 5408SOL    HW216767   3.083   3.711   4.385
 5409SOL     OW16768   2.894   2.411   3.740
 5409SOL    HW116769   2.853   2.493   3.701
 5409SOL    HW216770   2.958   2.437   3.813
 5410SOL     OW16771   1.940   2.418   5.110
 5410SOL    HW116772   2.032   2.417   5.069
 5410SOL    HW216773   1.934   2.492   5.177
 5411SOL     OW16774   2.423   2.084   4.871
 5411SOL    HW116775   2.461   2.000   4.908
 5411SOL    HW216776   2.335   2.103   4.915
 5412SOL     OW16777   2.728   2.316   4.366
 5412SOL    HW116778   2.696   2.388   4.304
 5412SOL    HW216779   2.752   2.235   4.313
 5413SOL     OW16780   2.879   1.901   4.477
 5413SOL    HW116781   2.807   1.906   4.408
 5413SOL    HW216782   2.855   1.832   4.546
 5414SOL     OW16783   3.291   3.035   4.591
 5414SOL    HW116784   3.236   2.951   4.584
 5414SOL    HW216785   3.317   3.064   4.499
 5415SOL     OW16786   3.328   2.452   4.716
 5415SOL    HW116787   3.298   2.357   4.723
 5415SOL    HW216788   3.401   2.468   4.782
 5416SOL     OW16789   3.719   2.695   4.101
 5416SOL    HW116790   3.761   2.631   4.165
 5416SOL    HW216791   3.681   2.644   4.023
 5417SOL     OW16792   2.350   3.247   3.898
 5417SOL    HW116793   2.263   3.232   3.945
 5417SOL    HW216794   2.333   3.273   3.803
 5418SOL     OW16795   3.526   3.142   4.381
 5418SOL    HW116796   3.625   3.150   4.395
 5418SOL    HW216797   3.481   3.226   4.412
 5419SOL     OW16798   3.252   2.437   3.802
 5419SOL    HW116799   3.198   2.416   3.883
 5419SOL    HW216800   3.343   2.396   3.811
 5420SOL     OW16801   2.389   2.118   4.052
 5420SOL    HW116802   2.416   2.059   3.977
 5420SOL    HW216803   2.389   2.213   4.021
 5421SOL     OW16804   3.616   3.085   5.312
 5421SOL    HW116805   3.707   3.046   5.299
 5421SOL    HW216806   3.624   3.181   5.336
 5422SOL     OW16807   2.926   3.209   5.064
 5422SOL    HW116808   2.846   3.186   5.119
 5422SOL    HW216809   3.009   3.183   5.113
 5423SOL     OW16810   3.454   3.491   5.349
 5423SOL    HW116811   3.481   3.525   5.259
 5423SOL    HW216812   3.533   3.453   5.395
 5424SOL     OW16813   2.973   3.057   4.824
 5424SOL    HW116814   2.933   3.101   4.905
 5424SOL    HW216815   2.932   3.094   4.741
 5425SOL     OW16816   3.500   2.961   4.803
 5425SOL    HW116817   3.505   3.042   4.862
 5425SOL    HW216818   3.414   2.963   4.752
 5426SOL     OW16819   2.777   1.951   5.126
 5426SOL    HW116820   2.802   1.931   5.031
 5426SOL    HW216821   2.849   2.007   5.168
 5427SOL     OW16822   2.842   2.978   5.443
 5427SOL    HW116823   2.743   2.984   5.453
 5427SOL    HW216824   2.865   2.898   5.387
 5428SOL     OW16825   2.567   2.912   4.092
 5428SOL    HW116826   2.553   2.919   4.191
 5428SOL    HW216827   2.651   2.861   4.074
 5429SOL     OW16828   2.272   2.675   4.975
 5429SOL    HW116829   2.358   2.687   5.025
 5429SOL    HW216830   2.230   2.588   5.002
 5430SOL     OW16831   3.136   2.248   4.986
 5430SOL    HW116832   3.157   2.322   5.050
 5430SOL    HW216833   3.047   2.265   4.943
 5431SOL     OW16834   1.926   3.426   5.055
 5431SOL    HW116835   1.880   3.508   5.021
 5431SOL    HW216836   2.024   3.445   5.064
 5432SOL     OW16837   2.229   2.962   4.225
 5432SOL    HW116838   2.222   3.045   4.169
 5432SOL    HW216839   2.233   2.882   4.165
 5433SOL     OW16840   2.428   2.399   4.589
 5433SOL    HW116841   2.440   2.465   4.515
 5433SOL    HW216842   2.474   2.433   4.672
 5434SOL     OW16843   3.114   3.210   4.112
 5434SOL    HW116844   3.164   3.287   4.152
 5434SOL    HW216845   3.019   3.212   4.144
 5435SOL     OW16846   3.134   3.307   4.866
 5435SOL    HW116847   3.181   3.320   4.953
 5435SOL    HW216848   3.068   3.233   4.875
 5436SOL     OW16849   3.444   2.501   4.196
 5436SOL    HW116850   3.413   2.562   4.269
 5436SOL    HW216851   3.494   2.553   4.127
 5437SOL     OW16852   2.216   3.372   5.053
 5437SOL    HW116853   2.195   3.328   4.966
 5437SOL    HW216854   2.313   3.398   5.056
 5438SOL     OW16855   2.264   2.613   5.322
 5438SOL    HW116856   2.332   2.668   5.275
 5438SOL    HW216857   2.304   2.525   5.349
 5439SOL     OW16858   3.449   2.641   5.394
 5439SOL    HW116859   3.357   2.679   5.389
 5439SOL    HW216860   3.509   2.688   5.329
 5440SOL     OW16861   2.875   1.967   5.494
 5440SOL    HW116862   2.881   2.052   5.442
 5440SOL    HW216863   2.907   1.891   5.437
 5441SOL     OW16864   2.366   1.912   5.464
 5441SOL    HW116865   2.324   1.855   5.394
 5441SOL    HW216866   2.300   1.981   5.496
 5442SOL     OW16867   2.435   2.732   4.753
 5442SOL    HW116868   2.479   2.821   4.744
 5442SOL    HW216869   2.372   2.732   4.830
 5443SOL     OW16870   3.222   2.724   4.769
 5443SOL    HW116871   3.147   2.724   4.703
 5443SOL    HW216872   3.259   2.632   4.778
 5444SOL     OW16873   3.071   2.387   3.999
 5444SOL    HW116874   3.084   2.303   4.053
 5444SOL    HW216875   3.042   2.461   4.059
 5445SOL     OW16876   1.899   3.172   5.006
 5445SOL    HW116877   1.952   3.123   5.074
 5445SOL    HW216878   1.921   3.270   5.011
 5446SOL     OW16879   2.594   2.496   4.788
 5446SOL    HW116880   2.653   2.470   4.712
 5446SOL    HW216881   2.566   2.592   4.777
 5447SOL     OW16882   3.590   2.797   5.578
 5447SOL    HW116883   3.544   2.790   5.489
 5447SOL    HW216884   3.528   2.841   5.644
 5448SOL     OW16885   2.169   1.925   4.342
 5448SOL    HW116886   2.158   2.019   4.375
 5448SOL    HW216887   2.164   1.862   4.419
 5449SOL     OW16888   3.484   2.229   4.098
 5449SOL    HW116889   3.486   2.153   4.162
 5449SOL    HW216890   3.436   2.306   4.138
 5450SOL     OW16891   2.885   2.628   4.690
 5450SOL    HW116892   2.900   2.649   4.786
 5450SOL    HW216893   2.855   2.533   4.681
 5451SOL     OW16894   2.842   3.435   5.424
 5451SOL    HW116895   2.822   3.479   5.336
 5451SOL    HW216896   2.881   3.344   5.408
 5452SOL     OW16897   3.721   3.380   5.329
 5452SOL    HW116898   3.735   3.407   5.234
 5452SOL    HW216899   3.804   3.402   5.382
 5453SOL     OW16900   2.212   2.760   5.528
 5453SOL    HW116901   2.288   2.804   5.576
 5453SOL    HW216902   2.247   2.713   5.446
 5454SOL     OW16903   3.402   2.136   3.849
 5454SOL    HW116904   3.341   2.061   3.872
 5454SOL    HW216905   3.424   2.188   3.932
 5455SOL     OW16906   3.165   2.700   3.766
 5455SOL    HW116907   3.199   2.607   3.781
 5455SOL    HW216908   3.183   2.727   3.671
 5456SOL     OW16909   2.930   3.195   4.573
 5456SOL    HW116910   2.937   3.111   4.518
 5456SOL    HW216911   2.992   3.264   4.537
 5457SOL     OW16912   2.181   2.672   4.673
 5457SOL    HW116913   2.274   2.708   4.678
 5457SOL    HW216914   2.175   2.587   4.725
 5458SOL     OW16915   2.201   2.371   4.730
 5458SOL    HW116916   2.149   2.288   4.713
 5458SOL    HW216917   2.278   2.376   4.666
 5459SOL     OW16918   3.000   2.242   5.402
 5459SOL    HW116919   2.955   2.305   5.466
 5459SOL    HW216920   3.093   2.273   5.385
 5460SOL     OW16921   3.022   2.069   5.201
 5460SOL    HW116922   3.022   2.133   5.278
 5460SOL    HW216923   3.050   2.117   5.118
 5461SOL     OW16924   1.870   3.188   3.924
 5461SOL    HW116925   1.777   3.209   3.893
 5461SOL    HW216926   1.880   3.089   3.937
 5462SOL     OW16927   1.950   3.663   4.651
 5462SOL    HW116928   1.908   3.577   4.624
 5462SOL    HW216929   2.044   3.666   4.617
 5463SOL     OW16930   2.366   3.430   4.634
 5463SOL    HW116931   2.432   3.504   4.643
 5463SOL    HW216932   2.410   3.351   4.592
 5464SOL     OW16933   2.864   2.658   4.962
 5464SOL    HW116934   2.905   2.626   5.048
 5464SOL    HW216935   2.768   2.631   4.959
 5465SOL     OW16936   1.902   2.406   4.838
 5465SOL    HW116937   1.987   2.373   4.797
 5465SOL    HW216938   1.915   2.421   4.936
 5466SOL     OW16939   2.051   2.382   5.446
 5466SOL    HW116940   2.110   2.342   5.376
 5466SOL    HW216941   1.993   2.453   5.405
 5467SOL     OW16942   3.231   2.812   5.384
 5467SOL    HW116943   3.270   2.901   5.404
 5467SOL    HW216944   3.241   2.792   5.287
 5468SOL     OW16945   2.677   2.434   4.049
 5468SOL    HW116946   2.684   2.345   4.003
 5468SOL    HW216947   2.583   2.468   4.041
 5469SOL     OW16948   3.519   2.466   4.930
 5469SOL    HW116949   3.481   2.397   4.992
 5469SOL    HW216950   3.601   2.430   4.886
 5470SOL     OW16951   2.114   3.426   5.468
 5470SOL    HW116952   2.084   3.483   5.544
 5470SOL    HW216953   2.107   3.329   5.494
 5471SOL     OW16954   2.533   2.326   4.993
 5471SOL    HW116955   2.499   2.237   4.963
 5471SOL    HW216956   2.559   2.380   4.913
 5472SOL     OW16957   2.792   3.540   5.189
 5472SOL    HW116958   2.768   3.522   5.094
 5472SOL    HW216959   2.822   3.634   5.199
 5473SOL     OW16960   2.335   2.362   3.915
 5473SOL    HW116961   2.396   2.442   3.919
 5473SOL    HW216962   2.240   2.393   3.922
 5474SOL     OW16963   2.021   2.999   5.190
 5474SOL    HW116964   2.043   2.938   5.266
 5474SOL    HW216965   2.031   2.950   5.104
 5475SOL     OW16966   3.209   2.921   4.958
 5475SOL    HW116967   3.233   2.858   4.884
 5475SOL    HW216968   3.119   2.961   4.940
 5476SOL     OW16969   3.164   2.717   4.033
 5476SOL    HW116970   3.078   2.686   4.075
 5476SOL    HW216971   3.160   2.703   3.934
 5477SOL     OW16972   3.621   3.609   4.878
 5477SOL    HW116973   3.682   3.639   4.805
 5477SOL    HW216974   3.583   3.520   4.856
 5478SOL     OW16975   3.114   3.593   4.852
 5478SOL    HW116976   3.198   3.598   4.798
 5478SOL    HW216977   3.091   3.497   4.870
 5479SOL     OW16978   1.945   3.120   4.746
 5479SOL    HW116979   1.940   3.119   4.846
 5479SOL    HW216980   1.862   3.079   4.708
 5480SOL     OW16981   2.550   3.524   5.440
 5480SOL    HW116982   2.494   3.605   5.449
 5480SOL    HW216983   2.602   3.528   5.354
 5481SOL     OW16984   3.588   1.997   4.247
 5481SOL    HW116985   3.661   1.980   4.180
 5481SOL    HW216986   3.557   1.910   4.285
 5482SOL     OW16987   3.250   3.435   4.201
 5482SOL    HW116988   3.317   3.447   4.127
 5482SOL    HW216989   3.210   3.524   4.224
 5483SOL     OW16990   1.992   3.656   5.575
 5483SOL    HW116991   1.951   3.582   5.628
 5483SOL    HW216992   2.056   3.707   5.633
 5484SOL     OW16993   3.142   2.789   4.396
 5484SOL    HW116994   3.202   2.708   4.398
 5484SOL    HW216995   3.182   2.858   4.336
 5485SOL     OW16996   2.692   3.135   5.146
 5485SOL    HW116997   2.687   3.168   5.241
 5485SOL    HW216998   2.606   3.154   5.100
 5486SOL     OW16999   2.534   3.478   3.878
 5486SOL    HW117000   2.543   3.488   3.779
 5486SOL    HW217001   2.494   3.389   3.899
 5487SOL     OW17002   3.512   3.582   5.118
 5487SOL    HW117003   3.565   3.592   5.034
 5487SOL    HW217004   3.485   3.672   5.152
 5488SOL     OW17005   3.703   2.037   4.687
 5488SOL    HW117006   3.742   1.952   4.651
 5488SOL    HW217007   3.605   2.039   4.668
 5489SOL     OW17008   3.056   3.474   3.755
 5489SOL    HW117009   3.062   3.381   3.792
 5489SOL    HW217010   2.997   3.474   3.675
 5490SOL     OW17011   2.684   2.864   5.096
 5490SOL    HW117012   2.724   2.863   5.004
 5490SOL    HW217013   2.694   2.956   5.136
 5491SOL     OW17014   2.778   2.772   4.015
 5491SOL    HW117015   2.841   2.810   3.947
 5491SOL    HW217016   2.818   2.689   4.054
 5492SOL     OW17017   3.366   3.469   3.768
 5492SOL    HW117018   3.274   3.506   3.775
 5492SOL    HW217019   3.404   3.489   3.678
 5493SOL     OW17020   2.234   3.150   5.214
 5493SOL    HW117021   2.221   3.243   5.180
 5493SOL    HW217022   2.150   3.098   5.201
 5494SOL     OW17023   3.476   3.154   5.013
 5494SOL    HW117024   3.536   3.157   5.093
 5494SOL    HW217025   3.401   3.218   5.026
 5495SOL     OW17026   2.901   2.960   4.420
 5495SOL    HW117027   2.831   2.913   4.474
 5495SOL    HW217028   2.960   2.892   4.377
 5496SOL     OW17029   2.876   2.098   4.695
 5496SOL    HW117030   2.868   2.062   4.602
 5496SOL    HW217031   2.874   2.022   4.760
 5497SOL     OW17032   2.452   3.349   4.215
 5497SOL    HW117033   2.494   3.291   4.145
 5497SOL    HW217034   2.408   3.428   4.171
 5498SOL     OW17035   3.571   2.247   5.105
 5498SOL    HW117036   3.644   2.316   5.109
 5498SOL    HW217037   3.599   2.172   5.046
 5499SOL     OW17038   2.117   3.210   4.014
 5499SOL    HW117039   2.021   3.211   3.987
 5499SOL    HW217040   2.129   3.263   4.098
 5500SOL     OW17041   1.967   2.875   5.450
 5500SOL    HW117042   1.890   2.842   5.504
 5500SOL    HW217043   2.052   2.845   5.492
 5501SOL     OW17044   2.534   2.065   5.213
 5501SOL    HW117045   2.624   2.049   5.173
 5501SOL    HW217046   2.542   2.070   5.312
 5502SOL     OW17047   1.937   2.207   3.757
 5502SOL    HW117048   1.845   2.179   3.728
 5502SOL    HW217049   1.968   2.284   3.701
 5503SOL     OW17050   3.302   2.718   5.122
 5503SOL    HW117051   3.245   2.770   5.059
 5503SOL    HW217052   3.398   2.730   5.098
 5504SOL     OW17053   3.045   3.197   3.843
 5504SOL    HW117054   2.946   3.186   3.845
 5504SOL    HW217055   3.079   3.212   3.936
 5505SOL     OW17056   2.475   2.704   5.155
 5505SOL    HW117057   2.531   2.785   5.138
 5505SOL    HW217058   2.534   2.624   5.158
 5506SOL     OW17059   3.355   3.629   4.683
 5506SOL    HW117060   3.388   3.693   4.614
 5506SOL    HW217061   3.421   3.623   4.758
 5507SOL     OW17062   2.578   2.427   5.432
 5507SOL    HW117063   2.597   2.492   5.506
 5507SOL    HW217064   2.638   2.347   5.441
 5508SOL     OW17065   3.312   3.082   5.357
 5508SOL    HW117066   3.303   3.072   5.456
 5508SOL    HW217067   3.408   3.075   5.331
 5509SOL     OW17068   2.252   3.603   5.284
 5509SOL    HW117069   2.161   3.644   5.282
 5509SOL    HW217070   2.245   3.509   5.316
 5510SOL     OW17071   3.536   2.745   4.978
 5510SOL    HW117072   3.509   2.656   4.941
 5510SOL    HW217073   3.537   2.813   4.905
 5511SOL     OW17074   3.087   2.187   4.173
 5511SOL    HW117075   3.152   2.113   4.162
 5511SOL    HW217076   3.107   2.237   4.257
 5512SOL     OW17077   2.456   2.607   4.376
 5512SOL    HW117078   2.506   2.692   4.357
 5512SOL    HW217079   2.368   2.609   4.328
 5513SOL     OW17080   3.639   2.204   5.366
 5513SOL    HW117081   3.622   2.235   5.272
 5513SOL    HW217082   3.555   2.167   5.404
 5514SOL     OW17083   3.592   2.796   5.241
 5514SOL    HW117084   3.630   2.887   5.256
 5514SOL    HW217085   3.584   2.779   5.142
 5515SOL     OW17086   2.721   3.236   3.740
 5515SOL    HW117087   2.675   3.251   3.828
 5515SOL    HW217088   2.765   3.321   3.710
 5516SOL     OW17089   2.523   3.652   4.677
 5516SOL    HW117090   2.477   3.740   4.664
 5516SOL    HW217091   2.622   3.664   4.670
 5517SOL     OW17092   2.721   2.818   4.585
 5517SOL    HW117093   2.775   2.749   4.633
 5517SOL    HW217094   2.689   2.887   4.651
 5518SOL     OW17095   2.945   2.846   3.811
 5518SOL    HW117096   2.922   2.899   3.729
 5518SOL    HW217097   3.026   2.790   3.792
 5519SOL     OW17098   3.723   3.431   4.575
 5519SOL    HW117099   3.652   3.419   4.505
 5519SOL    HW217100   3.724   3.352   4.635
 5520SOL     OW17101   2.083   3.176   5.568
 5520SOL    HW117102   2.018   3.103   5.547
 5520SOL    HW217103   2.087   3.190   5.666
 5521SOL     OW17104   1.941   3.102   4.377
 5521SOL    HW117105   1.940   3.055   4.465
 5521SOL    HW217106   2.023   3.074   4.326
 5522SOL     OW17107   2.534   3.253   5.348
 5522SOL    HW117108   2.456   3.203   5.386
 5522SOL    HW217109   2.531   3.348   5.379
 5523SOL     OW17110   3.686   2.054   4.951
 5523SOL    HW117111   3.682   1.964   4.995
 5523SOL    HW217112   3.689   2.043   4.852
 5524SOL     OW17113   2.290   2.286   4.244
 5524SOL    HW117114   2.320   2.214   4.182
 5524SOL    HW217115   2.251   2.246   4.327
 5525SOL     OW17116   3.567   3.349   4.828
 5525SOL    HW117117   3.474   3.324   4.801
 5525SOL    HW217118   3.593   3.299   4.910
 5526SOL     OW17119   2.179   2.409   5.004
 5526SOL    HW117120   2.217   2.350   5.076
 5526SOL    HW217121   2.219   2.383   4.916
 5527SOL     OW17122   2.674   3.448   4.411
 5527SOL    HW117123   2.706   3.458   4.317
 5527SOL    HW217124   2.595   3.386   4.413
 5528SOL     OW17125   3.286   2.076   4.836
 5528SOL    HW117126   3.338   2.011   4.891
 5528SOL    HW217127   3.237   2.139   4.897
 5529SOL     OW17128   2.863   1.896   4.878
 5529SOL    HW117129   2.800   1.824   4.847
 5529SOL    HW217130   2.956   1.860   4.878
 5530SOL     OW17131   2.632   3.192   4.025
 5530SOL    HW117132   2.586   3.105   4.042
 5530SOL    HW217133   2.723   3.189   4.066
 5531SOL     OW17134   2.480   3.429   5.008
 5531SOL    HW117135   2.475   3.511   5.065
 5531SOL    HW217136   2.569   3.426   4.963
 5532SOL     OW17137   3.214   1.914   3.892
 5532SOL    HW117138   3.249   1.873   3.808
 5532SOL    HW217139   3.124   1.876   3.912
 5533SOL     OW17140   3.162   2.315   4.415
 5533SOL    HW117141   3.103   2.395   4.419
 5533SOL    HW217142   3.177   2.280   4.508
 5534SOL     OW17143   3.455   2.083   4.606
 5534SOL    HW117144   3.371   2.082   4.660
 5534SOL    HW217145   3.457   2.166   4.550
 5535SOL     OW17146   1.901   2.939   4.024
 5535SOL    HW117147   2.000   2.928   4.015
 5535SOL    HW217148   1.861   2.853   4.056
 5536SOL     OW17149   2.737   3.508   4.061
 5536SOL    HW117150   2.660   3.473   4.007
 5536SOL    HW217151   2.705   3.579   4.123
 5537SOL     OW17152   2.092   2.490   5.699
 5537SOL    HW117153   1.999   2.488   5.736
 5537SOL    HW217154   2.093   2.451   5.607
 5538SOL     OW17155   1.881   2.230   6.233
 5538SOL    HW117156   1.799   2.273   6.272
 5538SOL    HW217157   1.853   2.157   6.170
 5539SOL     OW17158   2.431   3.137   6.751
 5539SOL    HW117159   2.338   3.130   6.714
 5539SOL    HW217160   2.442   3.226   6.795
 5540SOL     OW17161   3.417   3.373   6.289
 5540SOL    HW117162   3.360   3.357   6.370
 5540SOL    HW217163   3.358   3.383   6.209
 5541SOL     OW17164   2.997   2.565   6.303
 5541SOL    HW117165   3.054   2.643   6.278
 5541SOL    HW217166   2.937   2.591   6.379
 5542SOL     OW17167   3.617   2.469   5.817
 5542SOL    HW117168   3.605   2.456   5.718
 5542SOL    HW217169   3.587   2.388   5.866
 5543SOL     OW17170   2.630   3.006   6.609
 5543SOL    HW117171   2.552   3.023   6.669
 5543SOL    HW217172   2.664   3.093   6.573
 5544SOL     OW17173   2.712   2.660   7.409
 5544SOL    HW117174   2.708   2.736   7.474
 5544SOL    HW217175   2.734   2.696   7.318
 5545SOL     OW17176   2.547   2.874   6.251
 5545SOL    HW117177   2.616   2.858   6.321
 5545SOL    HW217178   2.474   2.931   6.289
 5546SOL     OW17179   2.548   3.023   7.389
 5546SOL    HW117180   2.608   3.102   7.403
 5546SOL    HW217181   2.462   3.054   7.348
 5547SOL     OW17182   2.197   3.297   6.647
 5547SOL    HW117183   2.119   3.266   6.594
 5547SOL    HW217184   2.255   3.355   6.590
 5548SOL     OW17185   3.322   3.367   6.925
 5548SOL    HW117186   3.346   3.461   6.951
 5548SOL    HW217187   3.306   3.313   7.007
 5549SOL     OW17188   2.300   2.254   7.085
 5549SOL    HW117189   2.382   2.198   7.094
 5549SOL    HW217190   2.219   2.196   7.089
 5550SOL     OW17191   3.465   2.309   6.323
 5550SOL    HW117192   3.391   2.355   6.273
 5550SOL    HW217193   3.516   2.377   6.376
 5551SOL     OW17194   2.093   3.575   6.069
 5551SOL    HW117195   2.127   3.652   6.123
 5551SOL    HW217196   2.137   3.575   5.979
 5552SOL     OW17197   2.989   3.203   7.276
 5552SOL    HW117198   3.036   3.203   7.364
 5552SOL    HW217199   2.941   3.116   7.265
 5553SOL     OW17200   2.092   3.296   6.124
 5553SOL    HW117201   2.066   3.392   6.124
 5553SOL    HW217202   2.021   3.242   6.169
 5554SOL     OW17203   2.102   2.953   6.472
 5554SOL    HW117204   2.116   2.869   6.524
 5554SOL    HW217205   2.047   3.017   6.527
 5555SOL     OW17206   2.482   3.648   7.025
 5555SOL    HW117207   2.390   3.631   7.060
 5555SOL    HW217208   2.510   3.740   7.051
 5556SOL     OW17209   2.468   2.826   5.709
 5556SOL    HW117210   2.475   2.910   5.655
 5556SOL    HW217211   2.514   2.839   5.797
 5557SOL     OW17212   3.456   1.976   7.066
 5557SOL    HW117213   3.438   2.043   6.994
 5557SOL    HW217214   3.453   2.022   7.155
 5558SOL     OW17215   3.704   3.629   5.945
 5558SOL    HW117216   3.758   3.600   6.025
 5558SOL    HW217217   3.734   3.719   5.916
 5559SOL     OW17218   1.889   3.458   5.703
 5559SOL    HW117219   1.870   3.362   5.724
 5559SOL    HW217220   1.856   3.516   5.778
 5560SOL     OW17221   3.551   2.784   6.198
 5560SOL    HW117222   3.646   2.755   6.206
 5560SOL    HW217223   3.543   2.849   6.123
 5561SOL     OW17224   3.503   2.970   6.018
 5561SOL    HW117225   3.589   2.972   5.966
 5561SOL    HW217226   3.517   3.017   6.106
 5562SOL     OW17227   2.475   3.227   6.312
 5562SOL    HW117228   2.426   3.140   6.321
 5562SOL    HW217229   2.452   3.270   6.225
 5563SOL     OW17230   3.155   3.090   7.009
 5563SOL    HW117231   3.192   3.017   6.951
 5563SOL    HW217232   3.207   3.095   7.094
 5564SOL     OW17233   2.059   2.838   6.850
 5564SOL    HW117234   2.148   2.793   6.836
 5564SOL    HW217235   1.986   2.773   6.831
 5565SOL     OW17236   3.387   2.861   5.776
 5565SOL    HW117237   3.324   2.785   5.789
 5565SOL    HW217238   3.435   2.879   5.862
 5566SOL     OW17239   3.049   3.654   7.202
 5566SOL    HW117240   3.073   3.714   7.126
 5566SOL    HW217241   3.056   3.559   7.172
 5567SOL     OW17242   3.328   3.279   6.539
 5567SOL    HW117243   3.269   3.285   6.619
 5567SOL    HW217244   3.313   3.191   6.493
 5568SOL     OW17245   3.529   3.576   6.158
 5568SOL    HW117246   3.488   3.553   6.070
 5568SOL    HW217247   3.511   3.502   6.223
 5569SOL     OW17248   2.460   2.591   5.856
 5569SOL    HW117249   2.484   2.660   5.788
 5569SOL    HW217250   2.382   2.624   5.910
 5570SOL     OW17251   3.143   2.207   6.530
 5570SOL    HW117252   3.057   2.157   6.517
 5570SOL    HW217253   3.205   2.153   6.586
 5571SOL     OW17254   3.438   3.524   5.893
 5571SOL    HW117255   3.527   3.570   5.896
 5571SOL    HW217256   3.417   3.500   5.798
 5572SOL     OW17257   3.256   2.331   7.260
 5572SOL    HW117258   3.236   2.374   7.348
 5572SOL    HW217259   3.334   2.269   7.269
 5573SOL     OW17260   2.835   2.752   7.158
 5573SOL    HW117261   2.881   2.668   7.129
 5573SOL    HW217262   2.779   2.786   7.083
 5574SOL     OW17263   2.903   2.563   6.015
 5574SOL    HW117264   2.929   2.559   6.111
 5574SOL    HW217265   2.818   2.512   6.001
 5575SOL     OW17266   1.992   3.683   7.157
 5575SOL    HW117267   1.982   3.668   7.256
 5575SOL    HW217268   1.906   3.719   7.121
 5576SOL     OW17269   2.727   2.210   5.781
 5576SOL    HW117270   2.786   2.273   5.732
 5576SOL    HW217271   2.746   2.116   5.752
 5577SOL     OW17272   3.581   2.447   7.417
 5577SOL    HW117273   3.555   2.536   7.381
 5577SOL    HW217274   3.579   2.379   7.344
 5578SOL     OW17275   3.224   3.006   6.131
 5578SOL    HW117276   3.307   2.977   6.083
 5578SOL    HW217277   3.175   3.073   6.075
 5579SOL     OW17278   2.870   3.318   6.063
 5579SOL    HW117279   2.824   3.390   6.011
 5579SOL    HW217280   2.866   3.338   6.161
 5580SOL     OW17281   2.213   3.663   6.439
 5580SOL    HW117282   2.263   3.577   6.445
 5580SOL    HW217283   2.278   3.740   6.436
 5581SOL     OW17284   3.657   2.928   6.459
 5581SOL    HW117285   3.595   2.913   6.383
 5581SOL    HW217286   3.605   2.939   6.544
 5582SOL     OW17287   3.089   3.412   7.092
 5582SOL    HW117288   3.095   3.335   7.156
 5582SOL    HW217289   3.037   3.386   7.012
 5583SOL     OW17290   2.183   2.805   5.828
 5583SOL    HW117291   2.265   2.844   5.786
 5583SOL    HW217292   2.156   2.723   5.779
 5584SOL     OW17293   3.320   2.597   6.314
 5584SOL    HW117294   3.315   2.532   6.389
 5584SOL    HW217295   3.400   2.656   6.327
 5585SOL     OW17296   2.323   3.128   7.313
 5585SOL    HW117297   2.273   3.129   7.227
 5585SOL    HW217298   2.260   3.110   7.389
 5586SOL     OW17299   2.973   3.638   5.823
 5586SOL    HW117300   2.913   3.576   5.873
 5586SOL    HW217301   3.004   3.594   5.738
 5587SOL     OW17302   3.494   3.239   5.667
 5587SOL    HW117303   3.462   3.333   5.657
 5587SOL    HW217304   3.418   3.176   5.655
 5588SOL     OW17305   2.326   3.605   5.909
 5588SOL    HW117306   2.359   3.644   5.995
 5588SOL    HW217307   2.402   3.598   5.844
 5589SOL     OW17308   3.262   1.969   6.012
 5589SOL    HW117309   3.238   1.932   5.922
 5589SOL    HW217310   3.361   1.985   6.016
 5590SOL     OW17311   2.111   3.647   6.827
 5590SOL    HW117312   2.168   3.582   6.877
 5590SOL    HW217313   2.095   3.614   6.734
 5591SOL     OW17314   2.802   3.560   6.490
 5591SOL    HW117315   2.882   3.503   6.511
 5591SOL    HW217316   2.753   3.520   6.413
 5592SOL     OW17317   3.409   2.084   7.315
 5592SOL    HW117318   3.404   2.121   7.407
 5592SOL    HW217319   3.337   2.015   7.303
 5593SOL     OW17320   2.476   1.984   5.703
 5593SOL    HW117321   2.574   1.962   5.710
 5593SOL    HW217322   2.445   1.967   5.610
 5594SOL     OW17323   2.750   3.376   6.781
 5594SOL    HW117324   2.727   3.351   6.687
 5594SOL    HW217325   2.811   3.307   6.820
 5595SOL     OW17326   3.213   2.452   7.019
 5595SOL    HW117327   3.241   2.409   7.104
 5595SOL    HW217328   3.238   2.548   7.020
 5596SOL     OW17329   2.665   3.264   6.510
 5596SOL    HW117330   2.755   3.278   6.468
 5596SOL    HW217331   2.594   3.266   6.439
 5597SOL     OW17332   2.401   1.926   6.098
 5597SOL    HW117333   2.320   1.927   6.156
 5597SOL    HW217334   2.404   2.009   6.043
 5598SOL     OW17335   3.296   3.050   5.627
 5598SOL    HW117336   3.328   2.974   5.684
 5598SOL    HW217337   3.204   3.077   5.657
 5599SOL     OW17338   2.797   2.098   6.066
 5599SOL    HW117339   2.749   2.139   5.988
 5599SOL    HW217340   2.896   2.096   6.047
 5600SOL     OW17341   2.938   2.545   7.050
 5600SOL    HW117342   2.858   2.484   7.053
 5600SOL    HW217343   3.019   2.492   7.026
 5601SOL     OW17344   3.089   3.432   6.379
 5601SOL    HW117345   3.110   3.506   6.314
 5601SOL    HW217346   3.157   3.432   6.452
 5602SOL     OW17347   2.321   3.014   6.327
 5602SOL    HW117348   2.250   2.987   6.392
 5602SOL    HW217349   2.295   2.986   6.234
 5603SOL     OW17350   3.133   3.659   6.177
 5603SOL    HW117351   3.177   3.723   6.113
 5603SOL    HW217352   3.083   3.711   6.247
 5604SOL     OW17353   2.894   2.411   5.602
 5604SOL    HW117354   2.853   2.493   5.563
 5604SOL    HW217355   2.958   2.437   5.675
 5605SOL     OW17356   1.940   2.418   6.972
 5605SOL    HW117357   2.032   2.417   6.931
 5605SOL    HW217358   1.934   2.492   7.039
 5606SOL     OW17359   2.423   2.084   6.733
 5606SOL    HW117360   2.461   2.000   6.770
 5606SOL    HW217361   2.335   2.103   6.777
 5607SOL     OW17362   3.291   3.035   6.453
 5607SOL    HW117363   3.236   2.951   6.446
 5607SOL    HW217364   3.317   3.064   6.361
 5608SOL     OW17365   3.328   2.452   6.578
 5608SOL    HW117366   3.298   2.357   6.585
 5608SOL    HW217367   3.401   2.468   6.644
 5609SOL     OW17368   3.719   2.695   5.963
 5609SOL    HW117369   3.761   2.631   6.027
 5609SOL    HW217370   3.681   2.644   5.885
 5610SOL     OW17371   2.350   3.247   5.760
 5610SOL    HW117372   2.263   3.232   5.807
 5610SOL    HW217373   2.333   3.273   5.665
 5611SOL     OW17374   3.526   3.142   6.243
 5611SOL    HW117375   3.625   3.150   6.257
 5611SOL    HW217376   3.481   3.226   6.274
 5612SOL     OW17377   3.252   2.437   5.664
 5612SOL    HW117378   3.198   2.416   5.745
 5612SOL    HW217379   3.343   2.396   5.673
 5613SOL     OW17380   2.389   2.118   5.914
 5613SOL    HW117381   2.416   2.059   5.839
 5613SOL    HW217382   2.389   2.213   5.883
 5614SOL     OW17383   3.616   3.085   7.174
 5614SOL    HW117384   3.707   3.046   7.161
 5614SOL    HW217385   3.624   3.181   7.198
 5615SOL     OW17386   2.926   3.209   6.926
 5615SOL    HW117387   2.846   3.186   6.981
 5615SOL    HW217388   3.009   3.183   6.975
 5616SOL     OW17389   3.454   3.491   7.211
 5616SOL    HW117390   3.481   3.525   7.121
 5616SOL    HW217391   3.533   3.453   7.257
 5617SOL     OW17392   2.973   3.057   6.686
 5617SOL    HW117393   2.933   3.101   6.767
 5617SOL    HW217394   2.932   3.094   6.603
 5618SOL     OW17395   3.500   2.961   6.665
 5618SOL    HW117396   3.505   3.042   6.724
 5618SOL    HW217397   3.414   2.963   6.614
 5619SOL     OW17398   2.777   1.951   6.988
 5619SOL    HW117399   2.802   1.931   6.893
 5619SOL    HW217400   2.849   2.007   7.030
 5620SOL     OW17401   2.842   2.978   7.305
 5620SOL    HW117402   2.743   2.984   7.315
 5620SOL    HW217403   2.865   2.898   7.249
 5621SOL     OW17404   2.567   2.912   5.954
 5621SOL    HW117405   2.553   2.919   6.053
 5621SOL    HW217406   2.651   2.861   5.936
 5622SOL     OW17407   2.272   2.675   6.837
 5622SOL    HW117408   2.358   2.687   6.887
 5622SOL    HW217409   2.230   2.588   6.864
 5623SOL     OW17410   3.136   2.248   6.848
 5623SOL    HW117411   3.157   2.322   6.912
 5623SOL    HW217412   3.047   2.265   6.805
 5624SOL     OW17413   1.926   3.426   6.917
 5624SOL    HW117414   1.880   3.508   6.883
 5624SOL    HW217415   2.024   3.445   6.926
 5625SOL     OW17416   2.229   2.962   6.087
 5625SOL    HW117417   2.222   3.045   6.031
 5625SOL    HW217418   2.233   2.882   6.027
 5626SOL     OW17419   3.114   3.210   5.974
 5626SOL    HW117420   3.164   3.287   6.014
 5626SOL    HW217421   3.019   3.212   6.006
 5627SOL     OW17422   3.134   3.307   6.728
 5627SOL    HW117423   3.181   3.320   6.815
 5627SOL    HW217424   3.068   3.233   6.737
 5628SOL     OW17425   3.444   2.501   6.058
 5628SOL    HW117426   3.413   2.562   6.131
 5628SOL    HW217427   3.494   2.553   5.989
 5629SOL     OW17428   2.216   3.372   6.915
 5629SOL    HW117429   2.195   3.328   6.828
 5629SOL    HW217430   2.313   3.398   6.918
 5630SOL     OW17431   3.449   2.641   7.256
 5630SOL    HW117432   3.357   2.679   7.251
 5630SOL    HW217433   3.509   2.688   7.191
 5631SOL     OW17434   2.366   1.912   7.326
 5631SOL    HW117435   2.324   1.855   7.256
 5631SOL    HW217436   2.300   1.981   7.358
 5632SOL     OW17437   3.222   2.724   6.631
 5632SOL    HW117438   3.147   2.724   6.565
 5632SOL    HW217439   3.259   2.632   6.640
 5633SOL     OW17440   3.071   2.387   5.861
 5633SOL    HW117441   3.084   2.303   5.915
 5633SOL    HW217442   3.042   2.461   5.921
 5634SOL     OW17443   2.169   2.075   6.817
 5634SOL    HW117444   2.146   2.112   6.907
 5634SOL    HW217445   2.139   1.980   6.811
 5635SOL     OW17446   1.899   3.172   6.868
 5635SOL    HW117447   1.952   3.123   6.936
 5635SOL    HW217448   1.921   3.270   6.873
 5636SOL     OW17449   3.590   2.797   7.440
 5636SOL    HW117450   3.544   2.790   7.351
 5636SOL    HW217451   3.528   2.841   7.506
 5637SOL     OW17452   3.484   2.229   5.960
 5637SOL    HW117453   3.486   2.153   6.024
 5637SOL    HW217454   3.436   2.306   6.000
 5638SOL     OW17455   2.885   2.628   6.552
 5638SOL    HW117456   2.900   2.649   6.648
 5638SOL    HW217457   2.855   2.533   6.543
 5639SOL     OW17458   2.842   3.435   7.286
 5639SOL    HW117459   2.822   3.479   7.198
 5639SOL    HW217460   2.881   3.344   7.270
 5640SOL     OW17461   3.721   3.380   7.191
 5640SOL    HW117462   3.735   3.407   7.096
 5640SOL    HW217463   3.804   3.402   7.244
 5641SOL     OW17464   3.402   2.136   5.711
 5641SOL    HW117465   3.341   2.061   5.734
 5641SOL    HW217466   3.424   2.188   5.794
 5642SOL     OW17467   3.165   2.700   5.628
 5642SOL    HW117468   3.199   2.607   5.643
 5642SOL    HW217469   3.183   2.727   5.533
 5643SOL     OW17470   2.930   3.195   6.435
 5643SOL    HW117471   2.937   3.111   6.380
 5643SOL    HW217472   2.992   3.264   6.399
 5644SOL     OW17473   3.000   2.242   7.264
 5644SOL    HW117474   2.955   2.305   7.328
 5644SOL    HW217475   3.093   2.273   7.247
 5645SOL     OW17476   3.022   2.069   7.063
 5645SOL    HW117477   3.022   2.133   7.140
 5645SOL    HW217478   3.050   2.117   6.980
 5646SOL     OW17479   1.870   3.188   5.786
 5646SOL    HW117480   1.777   3.209   5.755
 5646SOL    HW217481   1.880   3.089   5.799
 5647SOL     OW17482   1.950   3.663   6.513
 5647SOL    HW117483   1.908   3.577   6.486
 5647SOL    HW217484   2.044   3.666   6.479
 5648SOL     OW17485   2.366   3.430   6.496
 5648SOL    HW117486   2.432   3.504   6.505
 5648SOL    HW217487   2.410   3.351   6.454
 5649SOL     OW17488   2.864   2.658   6.824
 5649SOL    HW117489   2.905   2.626   6.910
 5649SOL    HW217490   2.768   2.631   6.821
 5650SOL     OW17491   1.902   2.406   6.700
 5650SOL    HW117492   1.987   2.373   6.659
 5650SOL    HW217493   1.915   2.421   6.798
 5651SOL     OW17494   2.051   2.382   7.308
 5651SOL    HW117495   2.110   2.342   7.238
 5651SOL    HW217496   1.993   2.453   7.267
 5652SOL     OW17497   3.231   2.812   7.246
 5652SOL    HW117498   3.270   2.901   7.266
 5652SOL    HW217499   3.241   2.792   7.149
 5653SOL     OW17500   2.677   2.434   5.911
 5653SOL    HW117501   2.684   2.345   5.865
 5653SOL    HW217502   2.583   2.468   5.903
 5654SOL     OW17503   3.519   2.466   6.792
 5654SOL    HW117504   3.481   2.397   6.854
 5654SOL    HW217505   3.601   2.430   6.748
 5655SOL     OW17506   2.114   3.426   7.330
 5655SOL    HW117507   2.084   3.483   7.406
 5655SOL    HW217508   2.107   3.329   7.356
 5656SOL     OW17509   2.792   3.540   7.051
 5656SOL    HW117510   2.768   3.522   6.956
 5656SOL    HW217511   2.822   3.634   7.061
 5657SOL     OW17512   2.335   2.362   5.777
 5657SOL    HW117513   2.396   2.442   5.781
 5657SOL    HW217514   2.240   2.393   5.784
 5658SOL     OW17515   2.021   2.999   7.052
 5658SOL    HW117516   2.043   2.938   7.128
 5658SOL    HW217517   2.031   2.950   6.966
 5659SOL     OW17518   3.209   2.921   6.820
 5659SOL    HW117519   3.233   2.858   6.746
 5659SOL    HW217520   3.119   2.961   6.802
 5660SOL     OW17521   3.164   2.717   5.895
 5660SOL    HW117522   3.078   2.686   5.937
 5660SOL    HW217523   3.160   2.703   5.796
 5661SOL     OW17524   3.621   3.609   6.740
 5661SOL    HW117525   3.682   3.639   6.667
 5661SOL    HW217526   3.583   3.520   6.718
 5662SOL     OW17527   3.114   3.593   6.714
 5662SOL    HW117528   3.198   3.598   6.660
 5662SOL    HW217529   3.091   3.497   6.732
 5663SOL     OW17530   1.945   3.120   6.608
 5663SOL    HW117531   1.940   3.119   6.708
 5663SOL    HW217532   1.862   3.079   6.570
 5664SOL     OW17533   2.550   3.524   7.302
 5664SOL    HW117534   2.494   3.605   7.311
 5664SOL    HW217535   2.602   3.528   7.216
 5665SOL     OW17536   3.588   1.997   6.109
 5665SOL    HW117537   3.661   1.980   6.042
 5665SOL    HW217538   3.557   1.910   6.147
 5666SOL     OW17539   3.250   3.435   6.063
 5666SOL    HW117540   3.317   3.447   5.989
 5666SOL    HW217541   3.210   3.524   6.086
 5667SOL     OW17542   1.992   3.656   7.437
 5667SOL    HW117543   1.951   3.582   7.490
 5667SOL    HW217544   2.056   3.707   7.495
 5668SOL     OW17545   3.142   2.789   6.258
 5668SOL    HW117546   3.202   2.708   6.260
 5668SOL    HW217547   3.182   2.858   6.198
 5669SOL     OW17548   2.692   3.135   7.008
 5669SOL    HW117549   2.687   3.168   7.103
 5669SOL    HW217550   2.606   3.154   6.962
 5670SOL     OW17551   2.534   3.478   5.740
 5670SOL    HW117552   2.543   3.488   5.641
 5670SOL    HW217553   2.494   3.389   5.761
 5671SOL     OW17554   3.512   3.582   6.980
 5671SOL    HW117555   3.565   3.592   6.896
 5671SOL    HW217556   3.485   3.672   7.014
 5672SOL     OW17557   3.703   2.037   6.549
 5672SOL    HW117558   3.742   1.952   6.513
 5672SOL    HW217559   3.605   2.039   6.530
 5673SOL     OW17560   3.056   3.474   5.617
 5673SOL    HW117561   3.062   3.381   5.654
 5673SOL    HW217562   2.997   3.474   5.537
 5674SOL     OW17563   2.684   2.864   6.958
 5674SOL    HW117564   2.724   2.863   6.866
 5674SOL    HW217565   2.694   2.956   6.998
 5675SOL     OW17566   2.778   2.772   5.877
 5675SOL    HW117567   2.841   2.810   5.809
 5675SOL    HW217568   2.818   2.689   5.916
 5676SOL     OW17569   3.366   3.469   5.630
 5676SOL    HW117570   3.274   3.506   5.637
 5676SOL    HW217571   3.404   3.489   5.540
 5677SOL     OW17572   2.234   3.150   7.076
 5677SOL    HW117573   2.221   3.243   7.042
 5677SOL    HW217574   2.150   3.098   7.063
 5678SOL     OW17575   3.476   3.154   6.875
 5678SOL    HW117576   3.536   3.157   6.955
 5678SOL    HW217577   3.401   3.218   6.888
 5679SOL     OW17578   2.901   2.960   6.282
 5679SOL    HW117579   2.831   2.913   6.336
 5679SOL    HW217580   2.960   2.892   6.239
 5680SOL     OW17581   2.452   3.349   6.077
 5680SOL    HW117582   2.494   3.291   6.007
 5680SOL    HW217583   2.408   3.428   6.033
 5681SOL     OW17584   3.571   2.247   6.967
 5681SOL    HW117585   3.644   2.316   6.971
 5681SOL    HW217586   3.599   2.172   6.908
 5682SOL     OW17587   2.117   3.210   5.876
 5682SOL    HW117588   2.021   3.211   5.849
 5682SOL    HW217589   2.129   3.263   5.960
 5683SOL     OW17590   1.937   2.207   5.619
 5683SOL    HW117591   1.845   2.179   5.590
 5683SOL    HW217592   1.968   2.284   5.563
 5684SOL     OW17593   3.302   2.718   6.984
 5684SOL    HW117594   3.245   2.770   6.921
 5684SOL    HW217595   3.398   2.730   6.960
 5685SOL     OW17596   3.045   3.197   5.705
 5685SOL    HW117597   2.946   3.186   5.707
 5685SOL    HW217598   3.079   3.212   5.798
 5686SOL     OW17599   2.475   2.704   7.017
 5686SOL    HW117600   2.531   2.785   7.000
 5686SOL    HW217601   2.534   2.624   7.020
 5687SOL     OW17602   3.355   3.629   6.545
 5687SOL    HW117603   3.388   3.693   6.476
 5687SOL    HW217604   3.421   3.623   6.620
 5688SOL     OW17605   3.312   3.082   7.219
 5688SOL    HW117606   3.303   3.072   7.318
 5688SOL    HW217607   3.408   3.075   7.193
 5689SOL     OW17608   2.252   3.603   7.146
 5689SOL    HW117609   2.161   3.644   7.144
 5689SOL    HW217610   2.245   3.509   7.178
 5690SOL     OW17611   3.536   2.745   6.840
 5690SOL    HW117612   3.509   2.656   6.803
 5690SOL    HW217613   3.537   2.813   6.767
 5691SOL     OW17614   3.087   2.187   6.035
 5691SOL    HW117615   3.152   2.113   6.024
 5691SOL    HW217616   3.107   2.237   6.119
 5692SOL     OW17617   3.639   2.204   7.228
 5692SOL    HW117618   3.622   2.235   7.134
 5692SOL    HW217619   3.555   2.167   7.266
 5693SOL     OW17620   3.592   2.796   7.103
 5693SOL    HW117621   3.630   2.887   7.118
 5693SOL    HW217622   3.584   2.779   7.004
 5694SOL     OW17623   2.721   3.236   5.602
 5694SOL    HW117624   2.675   3.251   5.690
 5694SOL    HW217625   2.765   3.321   5.572
 5695SOL     OW17626   2.523   3.652   6.539
 5695SOL    HW117627   2.477   3.740   6.526
 5695SOL    HW217628   2.622   3.664   6.532
 5696SOL     OW17629   2.721   2.818   6.447
 5696SOL    HW117630   2.775   2.749   6.495
 5696SOL    HW217631   2.689   2.887   6.513
 5697SOL     OW17632   2.945   2.846   5.673
 5697SOL    HW117633   2.922   2.899   5.591
 5697SOL    HW217634   3.026   2.790   5.654
 5698SOL     OW17635   3.723   3.431   6.437
 5698SOL    HW117636   3.652   3.419   6.367
 5698SOL    HW217637   3.724   3.352   6.497
 5699SOL     OW17638   2.083   3.176   7.430
 5699SOL    HW117639   2.018   3.103   7.409
 5699SOL    HW217640   2.087   3.190   7.528
 5700SOL     OW17641   1.941   3.102   6.239
 5700SOL    HW117642   1.940   3.055   6.327
 5700SOL    HW217643   2.023   3.074   6.188
 5701SOL     OW17644   2.534   3.253   7.210
 5701SOL    HW117645   2.456   3.203   7.248
 5701SOL    HW217646   2.531   3.348   7.241
 5702SOL     OW17647   3.686   2.054   6.813
 5702SOL    HW117648   3.682   1.964   6.857
 5702SOL    HW217649   3.689   2.043   6.714
 5703SOL     OW17650   2.290   2.286   6.106
 5703SOL    HW117651   2.320   2.214   6.044
 5703SOL    HW217652   2.251   2.246   6.189
 5704SOL     OW17653   3.567   3.349   6.690
 5704SOL    HW117654   3.474   3.324   6.663
 5704SOL    HW217655   3.593   3.299   6.772
 5705SOL     OW17656   2.179   2.409   6.866
 5705SOL    HW117657   2.217   2.350   6.938
 5705SOL    HW217658   2.219   2.383   6.778
 5706SOL     OW17659   2.674   3.448   6.273
 5706SOL    HW117660   2.706   3.458   6.179
 5706SOL    HW217661   2.595   3.386   6.275
 5707SOL     OW17662   3.286   2.076   6.698
 5707SOL    HW117663   3.338   2.011   6.753
 5707SOL    HW217664   3.237   2.139   6.759
 5708SOL     OW17665   2.632   3.192   5.887
 5708SOL    HW117666   2.586   3.105   5.904
 5708SOL    HW217667   2.723   3.189   5.928
 5709SOL     OW17668   2.480   3.429   6.870
 5709SOL    HW117669   2.475   3.511   6.927
 5709SOL    HW217670   2.569   3.426   6.825
 5710SOL     OW17671   3.214   1.914   5.754
 5710SOL    HW117672   3.249   1.873   5.670
 5710SOL    HW217673   3.124   1.876   5.774
 5711SOL     OW17674   3.162   2.315   6.277
 5711SOL    HW117675   3.103   2.395   6.281
 5711SOL    HW217676   3.177   2.280   6.370
 5712SOL     OW17677   3.455   2.083   6.468
 5712SOL    HW117678   3.371   2.082   6.522
 5712SOL    HW217679   3.457   2.166   6.412
 5713SOL     OW17680   1.901   2.939   5.886
 5713SOL    HW117681   2.000   2.928   5.877
 5713SOL    HW217682   1.861   2.853   5.918
 5714SOL     OW17683   2.737   3.508   5.923
 5714SOL    HW117684   2.660   3.473   5.869
 5714SOL    HW217685   2.705   3.579   5.985
 5715SOL     OW17686   1.881   2.230   8.095
 5715SOL    HW117687   1.799   2.273   8.134
 5715SOL    HW217688   1.853   2.157   8.032
 5716SOL     OW17689   2.431   3.137   8.613
 5716SOL    HW117690   2.338   3.130   8.576
 5716SOL    HW217691   2.442   3.226   8.657
 5717SOL     OW17692   3.417   3.373   8.151
 5717SOL    HW117693   3.360   3.357   8.232
 5717SOL    HW217694   3.358   3.383   8.071
 5718SOL     OW17695   2.997   2.565   8.165
 5718SOL    HW117696   3.054   2.643   8.140
 5718SOL    HW217697   2.937   2.591   8.241
 5719SOL     OW17698   3.617   2.469   7.679
 5719SOL    HW117699   3.605   2.456   7.580
 5719SOL    HW217700   3.587   2.388   7.728
 5720SOL     OW17701   2.630   3.006   8.471
 5720SOL    HW117702   2.552   3.023   8.531
 5720SOL    HW217703   2.664   3.093   8.435
 5721SOL     OW17704   2.712   2.660   9.271
 5721SOL    HW117705   2.708   2.736   9.336
 5721SOL    HW217706   2.734   2.696   9.180
 5722SOL     OW17707   2.547   2.874   8.113
 5722SOL    HW117708   2.616   2.858   8.183
 5722SOL    HW217709   2.474   2.931   8.151
 5723SOL     OW17710   2.548   3.023   9.251
 5723SOL    HW117711   2.608   3.102   9.265
 5723SOL    HW217712   2.462   3.054   9.210
 5724SOL     OW17713   2.197   3.297   8.509
 5724SOL    HW117714   2.119   3.266   8.456
 5724SOL    HW217715   2.255   3.355   8.452
 5725SOL     OW17716   3.322   3.367   8.787
 5725SOL    HW117717   3.346   3.461   8.813
 5725SOL    HW217718   3.306   3.313   8.869
 5726SOL     OW17719   2.300   2.254   8.947
 5726SOL    HW117720   2.382   2.198   8.956
 5726SOL    HW217721   2.219   2.196   8.951
 5727SOL     OW17722   3.465   2.309   8.185
 5727SOL    HW117723   3.391   2.355   8.135
 5727SOL    HW217724   3.516   2.377   8.238
 5728SOL     OW17725   2.093   3.575   7.931
 5728SOL    HW117726   2.127   3.652   7.985
 5728SOL    HW217727   2.137   3.575   7.841
 5729SOL     OW17728   2.989   3.203   9.138
 5729SOL    HW117729   3.036   3.203   9.226
 5729SOL    HW217730   2.941   3.116   9.127
 5730SOL     OW17731   2.092   3.296   7.986
 5730SOL    HW117732   2.066   3.392   7.986
 5730SOL    HW217733   2.021   3.242   8.031
 5731SOL     OW17734   2.102   2.953   8.334
 5731SOL    HW117735   2.116   2.869   8.386
 5731SOL    HW217736   2.047   3.017   8.389
 5732SOL     OW17737   2.482   3.648   8.887
 5732SOL    HW117738   2.390   3.631   8.922
 5732SOL    HW217739   2.510   3.740   8.913
 5733SOL     OW17740   2.468   2.826   7.571
 5733SOL    HW117741   2.475   2.910   7.517
 5733SOL    HW217742   2.514   2.839   7.659
 5734SOL     OW17743   3.456   1.976   8.928
 5734SOL    HW117744   3.438   2.043   8.856
 5734SOL    HW217745   3.453   2.022   9.017
 5735SOL     OW17746   1.984   2.505   8.011
 5735SOL    HW117747   1.939   2.417   8.028
 5735SOL    HW217748   1.983   2.559   8.095
 5736SOL     OW17749   3.704   3.629   7.807
 5736SOL    HW117750   3.758   3.600   7.887
 5736SOL    HW217751   3.734   3.719   7.778
 5737SOL     OW17752   1.889   3.458   7.565
 5737SOL    HW117753   1.870   3.362   7.586
 5737SOL    HW217754   1.856   3.516   7.640
 5738SOL     OW17755   3.551   2.784   8.060
 5738SOL    HW117756   3.646   2.755   8.068
 5738SOL    HW217757   3.543   2.849   7.985
 5739SOL     OW17758   3.503   2.970   7.880
 5739SOL    HW117759   3.589   2.972   7.828
 5739SOL    HW217760   3.517   3.017   7.968
 5740SOL     OW17761   1.975   2.599   9.045
 5740SOL    HW117762   2.063   2.586   9.090
 5740SOL    HW217763   1.962   2.696   9.023
 5741SOL     OW17764   2.475   3.227   8.174
 5741SOL    HW117765   2.426   3.140   8.183
 5741SOL    HW217766   2.452   3.270   8.087
 5742SOL     OW17767   3.155   3.090   8.871
 5742SOL    HW117768   3.192   3.017   8.813
 5742SOL    HW217769   3.207   3.095   8.956
 5743SOL     OW17770   2.671   1.866   7.950
 5743SOL    HW117771   2.711   1.957   7.941
 5743SOL    HW217772   2.571   1.874   7.956
 5744SOL     OW17773   2.059   2.838   8.712
 5744SOL    HW117774   2.148   2.793   8.698
 5744SOL    HW217775   1.986   2.773   8.693
 5745SOL     OW17776   3.387   2.861   7.638
 5745SOL    HW117777   3.324   2.785   7.651
 5745SOL    HW217778   3.435   2.879   7.724
 5746SOL     OW17779   3.049   3.654   9.064
 5746SOL    HW117780   3.073   3.714   8.988
 5746SOL    HW217781   3.056   3.559   9.034
 5747SOL     OW17782   2.179   2.113   9.249
 5747SOL    HW117783   2.250   2.184   9.255
 5747SOL    HW217784   2.091   2.152   9.277
 5748SOL     OW17785   3.328   3.279   8.401
 5748SOL    HW117786   3.269   3.285   8.481
 5748SOL    HW217787   3.313   3.191   8.355
 5749SOL     OW17788   3.529   3.576   8.020
 5749SOL    HW117789   3.488   3.553   7.932
 5749SOL    HW217790   3.511   3.502   8.085
 5750SOL     OW17791   3.143   2.207   8.392
 5750SOL    HW117792   3.057   2.157   8.379
 5750SOL    HW217793   3.205   2.153   8.448
 5751SOL     OW17794   3.438   3.524   7.755
 5751SOL    HW117795   3.527   3.570   7.758
 5751SOL    HW217796   3.417   3.500   7.660
 5752SOL     OW17797   2.669   2.467   8.913
 5752SOL    HW117798   2.622   2.464   9.002
 5752SOL    HW217799   2.618   2.412   8.847
 5753SOL     OW17800   3.256   2.331   9.122
 5753SOL    HW117801   3.236   2.374   9.210
 5753SOL    HW217802   3.334   2.269   9.131
 5754SOL     OW17803   2.835   2.752   9.020
 5754SOL    HW117804   2.881   2.668   8.991
 5754SOL    HW217805   2.779   2.786   8.945
 5755SOL     OW17806   2.853   2.272   8.690
 5755SOL    HW117807   2.776   2.306   8.744
 5755SOL    HW217808   2.819   2.221   8.611
 5756SOL     OW17809   2.903   2.563   7.877
 5756SOL    HW117810   2.929   2.559   7.973
 5756SOL    HW217811   2.818   2.512   7.863
 5757SOL     OW17812   1.938   2.673   8.237
 5757SOL    HW117813   2.037   2.661   8.246
 5757SOL    HW217814   1.914   2.768   8.258
 5758SOL     OW17815   1.992   3.683   9.019
 5758SOL    HW117816   1.982   3.668   9.118
 5758SOL    HW217817   1.906   3.719   8.983
 5759SOL     OW17818   3.581   2.447   9.279
 5759SOL    HW117819   3.555   2.536   9.243
 5759SOL    HW217820   3.579   2.379   9.206
 5760SOL     OW17821   3.224   3.006   7.993
 5760SOL    HW117822   3.307   2.977   7.945
 5760SOL    HW217823   3.175   3.073   7.937
 5761SOL     OW17824   2.412   2.058   8.333
 5761SOL    HW117825   2.407   2.053   8.433
 5761SOL    HW217826   2.414   2.154   8.304
 5762SOL     OW17827   2.870   3.318   7.925
 5762SOL    HW117828   2.824   3.390   7.873
 5762SOL    HW217829   2.866   3.338   8.023
 5763SOL     OW17830   2.213   3.663   8.301
 5763SOL    HW117831   2.263   3.577   8.307
 5763SOL    HW217832   2.278   3.740   8.298
 5764SOL     OW17833   3.657   2.928   8.321
 5764SOL    HW117834   3.595   2.913   8.245
 5764SOL    HW217835   3.605   2.939   8.406
 5765SOL     OW17836   3.089   3.412   8.954
 5765SOL    HW117837   3.095   3.335   9.018
 5765SOL    HW217838   3.037   3.386   8.874
 5766SOL     OW17839   3.320   2.597   8.176
 5766SOL    HW117840   3.315   2.532   8.251
 5766SOL    HW217841   3.400   2.656   8.189
 5767SOL     OW17842   2.323   3.128   9.175
 5767SOL    HW117843   2.273   3.129   9.089
 5767SOL    HW217844   2.260   3.110   9.251
 5768SOL     OW17845   2.973   3.638   7.685
 5768SOL    HW117846   2.913   3.576   7.735
 5768SOL    HW217847   3.004   3.594   7.600
 5769SOL     OW17848   3.494   3.239   7.529
 5769SOL    HW117849   3.462   3.333   7.519
 5769SOL    HW217850   3.418   3.176   7.517
 5770SOL     OW17851   2.326   3.605   7.771
 5770SOL    HW117852   2.359   3.644   7.857
 5770SOL    HW217853   2.402   3.598   7.706
 5771SOL     OW17854   3.262   1.969   7.874
 5771SOL    HW117855   3.238   1.932   7.784
 5771SOL    HW217856   3.361   1.985   7.878
 5772SOL     OW17857   2.111   3.647   8.689
 5772SOL    HW117858   2.168   3.582   8.739
 5772SOL    HW217859   2.095   3.614   8.596
 5773SOL     OW17860   2.802   3.560   8.352
 5773SOL    HW117861   2.882   3.503   8.373
 5773SOL    HW217862   2.753   3.520   8.275
 5774SOL     OW17863   2.244   2.562   7.928
 5774SOL    HW117864   2.289   2.472   7.925
 5774SOL    HW217865   2.150   2.551   7.961
 5775SOL     OW17866   3.409   2.084   9.177
 5775SOL    HW117867   3.404   2.121   9.269
 5775SOL    HW217868   3.337   2.015   9.165
 5776SOL     OW17869   2.643   2.126   9.197
 5776SOL    HW117870   2.710   2.065   9.240
 5776SOL    HW217871   2.570   2.145   9.262
 5777SOL     OW17872   2.750   3.376   8.643
 5777SOL    HW117873   2.727   3.351   8.549
 5777SOL    HW217874   2.811   3.307   8.682
 5778SOL     OW17875   3.213   2.452   8.881
 5778SOL    HW117876   3.241   2.409   8.966
 5778SOL    HW217877   3.238   2.548   8.882
 5779SOL     OW17878   2.665   3.264   8.372
 5779SOL    HW117879   2.755   3.278   8.330
 5779SOL    HW217880   2.594   3.266   8.301
 5780SOL     OW17881   2.784   2.365   8.347
 5780SOL    HW117882   2.759   2.356   8.251
 5780SOL    HW217883   2.832   2.283   8.378
 5781SOL     OW17884   2.401   1.926   7.960
 5781SOL    HW117885   2.320   1.927   8.018
 5781SOL    HW217886   2.404   2.009   7.905
 5782SOL     OW17887   3.296   3.050   7.489
 5782SOL    HW117888   3.328   2.974   7.546
 5782SOL    HW217889   3.204   3.077   7.519
 5783SOL     OW17890   2.797   2.098   7.928
 5783SOL    HW117891   2.749   2.139   7.850
 5783SOL    HW217892   2.896   2.096   7.909
 5784SOL     OW17893   2.938   2.545   8.912
 5784SOL    HW117894   2.858   2.484   8.915
 5784SOL    HW217895   3.019   2.492   8.888
 5785SOL     OW17896   3.089   3.432   8.241
 5785SOL    HW117897   3.110   3.506   8.176
 5785SOL    HW217898   3.157   3.432   8.314
 5786SOL     OW17899   2.321   3.014   8.189
 5786SOL    HW117900   2.250   2.987   8.254
 5786SOL    HW217901   2.295   2.986   8.096
 5787SOL     OW17902   3.133   3.659   8.039
 5787SOL    HW117903   3.177   3.723   7.975
 5787SOL    HW217904   3.083   3.711   8.109
 5788SOL     OW17905   2.894   2.411   7.464
 5788SOL    HW117906   2.853   2.493   7.425
 5788SOL    HW217907   2.958   2.437   7.537
 5789SOL     OW17908   1.940   2.418   8.834
 5789SOL    HW117909   2.032   2.417   8.793
 5789SOL    HW217910   1.934   2.492   8.901
 5790SOL     OW17911   2.423   2.084   8.595
 5790SOL    HW117912   2.461   2.000   8.632
 5790SOL    HW217913   2.335   2.103   8.639
 5791SOL     OW17914   2.728   2.316   8.090
 5791SOL    HW117915   2.696   2.388   8.028
 5791SOL    HW217916   2.752   2.235   8.037
 5792SOL     OW17917   2.879   1.901   8.201
 5792SOL    HW117918   2.807   1.906   8.132
 5792SOL    HW217919   2.855   1.832   8.270
 5793SOL     OW17920   3.291   3.035   8.315
 5793SOL    HW117921   3.236   2.951   8.308
 5793SOL    HW217922   3.317   3.064   8.223
 5794SOL     OW17923   3.328   2.452   8.440
 5794SOL    HW117924   3.298   2.357   8.447
 5794SOL    HW217925   3.401   2.468   8.506
 5795SOL     OW17926   3.719   2.695   7.825
 5795SOL    HW117927   3.761   2.631   7.889
 5795SOL    HW217928   3.681   2.644   7.747
 5796SOL     OW17929   2.350   3.247   7.622
 5796SOL    HW117930   2.263   3.232   7.669
 5796SOL    HW217931   2.333   3.273   7.527
 5797SOL     OW17932   3.526   3.142   8.105
 5797SOL    HW117933   3.625   3.150   8.119
 5797SOL    HW217934   3.481   3.226   8.136
 5798SOL     OW17935   3.252   2.437   7.526
 5798SOL    HW117936   3.198   2.416   7.607
 5798SOL    HW217937   3.343   2.396   7.535
 5799SOL     OW17938   3.616   3.085   9.036
 5799SOL    HW117939   3.707   3.046   9.023
 5799SOL    HW217940   3.624   3.181   9.060
 5800SOL     OW17941   2.926   3.209   8.788
 5800SOL    HW117942   2.846   3.186   8.843
 5800SOL    HW217943   3.009   3.183   8.837
 5801SOL     OW17944   3.454   3.491   9.073
 5801SOL    HW117945   3.481   3.525   8.983
 5801SOL    HW217946   3.533   3.453   9.119
 5802SOL     OW17947   2.973   3.057   8.548
 5802SOL    HW117948   2.933   3.101   8.629
 5802SOL    HW217949   2.932   3.094   8.465
 5803SOL     OW17950   3.500   2.961   8.527
 5803SOL    HW117951   3.505   3.042   8.586
 5803SOL    HW217952   3.414   2.963   8.476
 5804SOL     OW17953   2.777   1.951   8.850
 5804SOL    HW117954   2.802   1.931   8.755
 5804SOL    HW217955   2.849   2.007   8.892
 5805SOL     OW17956   2.842   2.978   9.167
 5805SOL    HW117957   2.743   2.984   9.177
 5805SOL    HW217958   2.865   2.898   9.111
 5806SOL     OW17959   2.567   2.912   7.816
 5806SOL    HW117960   2.553   2.919   7.915
 5806SOL    HW217961   2.651   2.861   7.798
 5807SOL     OW17962   2.272   2.675   8.699
 5807SOL    HW117963   2.358   2.687   8.749
 5807SOL    HW217964   2.230   2.588   8.726
 5808SOL     OW17965   3.136   2.248   8.710
 5808SOL    HW117966   3.157   2.322   8.774
 5808SOL    HW217967   3.047   2.265   8.667
 5809SOL     OW17968   1.926   3.426   8.779
 5809SOL    HW117969   1.880   3.508   8.745
 5809SOL    HW217970   2.024   3.445   8.788
 5810SOL     OW17971   2.229   2.962   7.949
 5810SOL    HW117972   2.222   3.045   7.893
 5810SOL    HW217973   2.233   2.882   7.889
 5811SOL     OW17974   2.428   2.399   8.313
 5811SOL    HW117975   2.440   2.465   8.239
 5811SOL    HW217976   2.474   2.433   8.396
 5812SOL     OW17977   3.114   3.210   7.836
 5812SOL    HW117978   3.164   3.287   7.876
 5812SOL    HW217979   3.019   3.212   7.868
 5813SOL     OW17980   3.134   3.307   8.590
 5813SOL    HW117981   3.181   3.320   8.677
 5813SOL    HW217982   3.068   3.233   8.599
 5814SOL     OW17983   3.444   2.501   7.920
 5814SOL    HW117984   3.413   2.562   7.993
 5814SOL    HW217985   3.494   2.553   7.851
 5815SOL     OW17986   2.216   3.372   8.777
 5815SOL    HW117987   2.195   3.328   8.690
 5815SOL    HW217988   2.313   3.398   8.780
 5816SOL     OW17989   2.264   2.613   9.046
 5816SOL    HW117990   2.332   2.668   8.999
 5816SOL    HW217991   2.304   2.525   9.073
 5817SOL     OW17992   3.449   2.641   9.118
 5817SOL    HW117993   3.357   2.679   9.113
 5817SOL    HW217994   3.509   2.688   9.053
 5818SOL     OW17995   2.875   1.967   9.218
 5818SOL    HW117996   2.881   2.052   9.166
 5818SOL    HW217997   2.907   1.891   9.161
 5819SOL     OW17998   2.366   1.912   9.188
 5819SOL    HW117999   2.324   1.855   9.118
 5819SOL    HW218000   2.300   1.981   9.220
 5820SOL     OW18001   2.435   2.732   8.477
 5820SOL    HW118002   2.479   2.821   8.468
 5820SOL    HW218003   2.372   2.732   8.554
 5821SOL     OW18004   3.222   2.724   8.493
 5821SOL    HW118005   3.147   2.724   8.427
 5821SOL    HW218006   3.259   2.632   8.502
 5822SOL     OW18007   3.071   2.387   7.723
 5822SOL    HW118008   3.084   2.303   7.777
 5822SOL    HW218009   3.042   2.461   7.783
 5823SOL     OW18010   2.169   2.075   8.679
 5823SOL    HW118011   2.146   2.112   8.769
 5823SOL    HW218012   2.139   1.980   8.673
 5824SOL     OW18013   1.899   3.172   8.730
 5824SOL    HW118014   1.952   3.123   8.798
 5824SOL    HW218015   1.921   3.270   8.735
 5825SOL     OW18016   2.594   2.496   8.512
 5825SOL    HW118017   2.653   2.470   8.436
 5825SOL    HW218018   2.566   2.592   8.501
 5826SOL     OW18019   3.590   2.797   9.302
 5826SOL    HW118020   3.544   2.790   9.213
 5826SOL    HW218021   3.528   2.841   9.368
 5827SOL     OW18022   3.484   2.229   7.822
 5827SOL    HW118023   3.486   2.153   7.886
 5827SOL    HW218024   3.436   2.306   7.862
 5828SOL     OW18025   2.885   2.628   8.414
 5828SOL    HW118026   2.900   2.649   8.510
 5828SOL    HW218027   2.855   2.533   8.405
 5829SOL     OW18028   2.842   3.435   9.148
 5829SOL    HW118029   2.822   3.479   9.060
 5829SOL    HW218030   2.881   3.344   9.132
 5830SOL     OW18031   3.721   3.380   9.053
 5830SOL    HW118032   3.735   3.407   8.958
 5830SOL    HW218033   3.804   3.402   9.106
 5831SOL     OW18034   2.212   2.760   9.252
 5831SOL    HW118035   2.288   2.804   9.300
 5831SOL    HW218036   2.247   2.713   9.170
 5832SOL     OW18037   3.402   2.136   7.573
 5832SOL    HW118038   3.341   2.061   7.596
 5832SOL    HW218039   3.424   2.188   7.656
 5833SOL     OW18040   3.165   2.700   7.490
 5833SOL    HW118041   3.199   2.607   7.505
 5833SOL    HW218042   3.183   2.727   7.395
 5834SOL     OW18043   2.930   3.195   8.297
 5834SOL    HW118044   2.937   3.111   8.242
 5834SOL    HW218045   2.992   3.264   8.261
 5835SOL     OW18046   2.181   2.672   8.397
 5835SOL    HW118047   2.274   2.708   8.402
 5835SOL    HW218048   2.175   2.587   8.449
 5836SOL     OW18049   2.201   2.371   8.454
 5836SOL    HW118050   2.149   2.288   8.437
 5836SOL    HW218051   2.278   2.376   8.390
 5837SOL     OW18052   3.000   2.242   9.126
 5837SOL    HW118053   2.955   2.305   9.190
 5837SOL    HW218054   3.093   2.273   9.109
 5838SOL     OW18055   3.022   2.069   8.925
 5838SOL    HW118056   3.022   2.133   9.002
 5838SOL    HW218057   3.050   2.117   8.842
 5839SOL     OW18058   1.870   3.188   7.648
 5839SOL    HW118059   1.777   3.209   7.617
 5839SOL    HW218060   1.880   3.089   7.661
 5840SOL     OW18061   1.950   3.663   8.375
 5840SOL    HW118062   1.908   3.577   8.348
 5840SOL    HW218063   2.044   3.666   8.341
 5841SOL     OW18064   2.366   3.430   8.358
 5841SOL    HW118065   2.432   3.504   8.367
 5841SOL    HW218066   2.410   3.351   8.316
 5842SOL     OW18067   2.864   2.658   8.686
 5842SOL    HW118068   2.905   2.626   8.772
 5842SOL    HW218069   2.768   2.631   8.683
 5843SOL     OW18070   1.902   2.406   8.562
 5843SOL    HW118071   1.987   2.373   8.521
 5843SOL    HW218072   1.915   2.421   8.660
 5844SOL     OW18073   2.051   2.382   9.170
 5844SOL    HW118074   2.110   2.342   9.100
 5844SOL    HW218075   1.993   2.453   9.129
 5845SOL     OW18076   3.231   2.812   9.108
 5845SOL    HW118077   3.270   2.901   9.128
 5845SOL    HW218078   3.241   2.792   9.011
 5846SOL     OW18079   3.519   2.466   8.654
 5846SOL    HW118080   3.481   2.397   8.716
 5846SOL    HW218081   3.601   2.430   8.610
 5847SOL     OW18082   2.114   3.426   9.192
 5847SOL    HW118083   2.084   3.483   9.268
 5847SOL    HW218084   2.107   3.329   9.218
 5848SOL     OW18085   2.533   2.326   8.717
 5848SOL    HW118086   2.499   2.237   8.687
 5848SOL    HW218087   2.559   2.380   8.637
 5849SOL     OW18088   2.792   3.540   8.913
 5849SOL    HW118089   2.768   3.522   8.818
 5849SOL    HW218090   2.822   3.634   8.923
 5850SOL     OW18091   2.021   2.999   8.914
 5850SOL    HW118092   2.043   2.938   8.990
 5850SOL    HW218093   2.031   2.950   8.828
 5851SOL     OW18094   3.209   2.921   8.682
 5851SOL    HW118095   3.233   2.858   8.608
 5851SOL    HW218096   3.119   2.961   8.664
 5852SOL     OW18097   3.164   2.717   7.757
 5852SOL    HW118098   3.078   2.686   7.799
 5852SOL    HW218099   3.160   2.703   7.658
 5853SOL     OW18100   3.621   3.609   8.602
 5853SOL    HW118101   3.682   3.639   8.529
 5853SOL    HW218102   3.583   3.520   8.580
 5854SOL     OW18103   3.114   3.593   8.576
 5854SOL    HW118104   3.198   3.598   8.522
 5854SOL    HW218105   3.091   3.497   8.594
 5855SOL     OW18106   1.945   3.120   8.470
 5855SOL    HW118107   1.940   3.119   8.570
 5855SOL    HW218108   1.862   3.079   8.432
 5856SOL     OW18109   2.550   3.524   9.164
 5856SOL    HW118110   2.494   3.605   9.173
 5856SOL    HW218111   2.602   3.528   9.078
 5857SOL     OW18112   3.588   1.997   7.971
 5857SOL    HW118113   3.661   1.980   7.904
 5857SOL    HW218114   3.557   1.910   8.009
 5858SOL     OW18115   3.250   3.435   7.925
 5858SOL    HW118116   3.317   3.447   7.851
 5858SOL    HW218117   3.210   3.524   7.948
 5859SOL     OW18118   1.992   3.656   9.299
 5859SOL    HW118119   1.951   3.582   9.352
 5859SOL    HW218120   2.056   3.707   9.357
 5860SOL     OW18121   3.142   2.789   8.120
 5860SOL    HW118122   3.202   2.708   8.122
 5860SOL    HW218123   3.182   2.858   8.060
 5861SOL     OW18124   2.692   3.135   8.870
 5861SOL    HW118125   2.687   3.168   8.965
 5861SOL    HW218126   2.606   3.154   8.824
 5862SOL     OW18127   2.534   3.478   7.602
 5862SOL    HW118128   2.543   3.488   7.503
 5862SOL    HW218129   2.494   3.389   7.623
 5863SOL     OW18130   3.512   3.582   8.842
 5863SOL    HW118131   3.565   3.592   8.758
 5863SOL    HW218132   3.485   3.672   8.876
 5864SOL     OW18133   3.703   2.037   8.411
 5864SOL    HW118134   3.742   1.952   8.375
 5864SOL    HW218135   3.605   2.039   8.392
 5865SOL     OW18136   3.056   3.474   7.479
 5865SOL    HW118137   3.062   3.381   7.516
 5865SOL    HW218138   2.997   3.474   7.399
 5866SOL     OW18139   2.684   2.864   8.820
 5866SOL    HW118140   2.724   2.863   8.728
 5866SOL    HW218141   2.694   2.956   8.860
 5867SOL     OW18142   2.778   2.772   7.739
 5867SOL    HW118143   2.841   2.810   7.671
 5867SOL    HW218144   2.818   2.689   7.778
 5868SOL     OW18145   3.366   3.469   7.492
 5868SOL    HW118146   3.274   3.506   7.499
 5868SOL    HW218147   3.404   3.489   7.402
 5869SOL     OW18148   2.234   3.150   8.938
 5869SOL    HW118149   2.221   3.243   8.904
 5869SOL    HW218150   2.150   3.098   8.925
 5870SOL     OW18151   3.476   3.154   8.737
 5870SOL    HW118152   3.536   3.157   8.817
 5870SOL    HW218153   3.401   3.218   8.750
 5871SOL     OW18154   2.901   2.960   8.144
 5871SOL    HW118155   2.831   2.913   8.198
 5871SOL    HW218156   2.960   2.892   8.101
 5872SOL     OW18157   2.876   2.098   8.419
 5872SOL    HW118158   2.868   2.062   8.326
 5872SOL    HW218159   2.874   2.022   8.484
 5873SOL     OW18160   2.452   3.349   7.939
 5873SOL    HW118161   2.494   3.291   7.869
 5873SOL    HW218162   2.408   3.428   7.895
 5874SOL     OW18163   3.571   2.247   8.829
 5874SOL    HW118164   3.644   2.316   8.833
 5874SOL    HW218165   3.599   2.172   8.770
 5875SOL     OW18166   2.117   3.210   7.738
 5875SOL    HW118167   2.021   3.211   7.711
 5875SOL    HW218168   2.129   3.263   7.822
 5876SOL     OW18169   1.967   2.875   9.174
 5876SOL    HW118170   1.890   2.842   9.228
 5876SOL    HW218171   2.052   2.845   9.216
 5877SOL     OW18172   2.534   2.065   8.937
 5877SOL    HW118173   2.624   2.049   8.897
 5877SOL    HW218174   2.542   2.070   9.036
 5878SOL     OW18175   1.937   2.207   7.481
 5878SOL    HW118176   1.845   2.179   7.452
 5878SOL    HW218177   1.968   2.284   7.425
 5879SOL     OW18178   3.302   2.718   8.846
 5879SOL    HW118179   3.245   2.770   8.783
 5879SOL    HW218180   3.398   2.730   8.822
 5880SOL     OW18181   3.045   3.197   7.567
 5880SOL    HW118182   2.946   3.186   7.569
 5880SOL    HW218183   3.079   3.212   7.660
 5881SOL     OW18184   2.475   2.704   8.879
 5881SOL    HW118185   2.531   2.785   8.862
 5881SOL    HW218186   2.534   2.624   8.882
 5882SOL     OW18187   3.355   3.629   8.407
 5882SOL    HW118188   3.388   3.693   8.338
 5882SOL    HW218189   3.421   3.623   8.482
 5883SOL     OW18190   2.578   2.427   9.156
 5883SOL    HW118191   2.597   2.492   9.230
 5883SOL    HW218192   2.638   2.347   9.165
 5884SOL     OW18193   3.312   3.082   9.081
 5884SOL    HW118194   3.303   3.072   9.180
 5884SOL    HW218195   3.408   3.075   9.055
 5885SOL     OW18196   2.252   3.603   9.008
 5885SOL    HW118197   2.161   3.644   9.006
 5885SOL    HW218198   2.245   3.509   9.040
 5886SOL     OW18199   3.536   2.745   8.702
 5886SOL    HW118200   3.509   2.656   8.665
 5886SOL    HW218201   3.537   2.813   8.629
 5887SOL     OW18202   3.087   2.187   7.897
 5887SOL    HW118203   3.152   2.113   7.886
 5887SOL    HW218204   3.107   2.237   7.981
 5888SOL     OW18205   2.456   2.607   8.100
 5888SOL    HW118206   2.506   2.692   8.081
 5888SOL    HW218207   2.368   2.609   8.052
 5889SOL     OW18208   3.639   2.204   9.090
 5889SOL    HW118209   3.622   2.235   8.996
 5889SOL    HW218210   3.555   2.167   9.128
 5890SOL     OW18211   3.592   2.796   8.965
 5890SOL    HW118212   3.630   2.887   8.980
 5890SOL    HW218213   3.584   2.779   8.866
 5891SOL     OW18214   2.721   3.236   7.464
 5891SOL    HW118215   2.675   3.251   7.552
 5891SOL    HW218216   2.765   3.321   7.434
 5892SOL     OW18217   2.523   3.652   8.401
 5892SOL    HW118218   2.477   3.740   8.388
 5892SOL    HW218219   2.622   3.664   8.394
 5893SOL     OW18220   2.721   2.818   8.309
 5893SOL    HW118221   2.775   2.749   8.357
 5893SOL    HW218222   2.689   2.887   8.375
 5894SOL     OW18223   2.945   2.846   7.535
 5894SOL    HW118224   2.922   2.899   7.453
 5894SOL    HW218225   3.026   2.790   7.516
 5895SOL     OW18226   3.723   3.431   8.299
 5895SOL    HW118227   3.652   3.419   8.229
 5895SOL    HW218228   3.724   3.352   8.359
 5896SOL     OW18229   2.083   3.176   9.292
 5896SOL    HW118230   2.018   3.103   9.271
 5896SOL    HW218231   2.087   3.190   9.390
 5897SOL     OW18232   1.941   3.102   8.101
 5897SOL    HW118233   1.940   3.055   8.189
 5897SOL    HW218234   2.023   3.074   8.050
 5898SOL     OW18235   2.534   3.253   9.072
 5898SOL    HW118236   2.456   3.203   9.110
 5898SOL    HW218237   2.531   3.348   9.103
 5899SOL     OW18238   3.686   2.054   8.675
 5899SOL    HW118239   3.682   1.964   8.719
 5899SOL    HW218240   3.689   2.043   8.576
 5900SOL     OW18241   2.290   2.286   7.968
 5900SOL    HW118242   2.320   2.214   7.906
 5900SOL    HW218243   2.251   2.246   8.051
 5901SOL     OW18244   3.567   3.349   8.552
 5901SOL    HW118245   3.474   3.324   8.525
 5901SOL    HW218246   3.593   3.299   8.634
 5902SOL     OW18247   2.179   2.409   8.728
 5902SOL    HW118248   2.217   2.350   8.800
 5902SOL    HW218249   2.219   2.383   8.640
 5903SOL     OW18250   2.674   3.448   8.135
 5903SOL    HW118251   2.706   3.458   8.041
 5903SOL    HW218252   2.595   3.386   8.137
 5904SOL     OW18253   3.286   2.076   8.560
 5904SOL    HW118254   3.338   2.011   8.615
 5904SOL    HW218255   3.237   2.139   8.621
 5905SOL     OW18256   2.863   1.896   8.602
 5905SOL    HW118257   2.800   1.824   8.571
 5905SOL    HW218258   2.956   1.860   8.602
 5906SOL     OW18259   2.632   3.192   7.749
 5906SOL    HW118260   2.586   3.105   7.766
 5906SOL    HW218261   2.723   3.189   7.790
 5907SOL     OW18262   2.480   3.429   8.732
 5907SOL    HW118263   2.475   3.511   8.789
 5907SOL    HW218264   2.569   3.426   8.687
 5908SOL     OW18265   3.214   1.914   7.616
 5908SOL    HW118266   3.249   1.873   7.532
 5908SOL    HW218267   3.124   1.876   7.636
 5909SOL     OW18268   3.162   2.315   8.139
 5909SOL    HW118269   3.103   2.395   8.143
 5909SOL    HW218270   3.177   2.280   8.232
 5910SOL     OW18271   3.455   2.083   8.330
 5910SOL    HW118272   3.371   2.082   8.384
 5910SOL    HW218273   3.457   2.166   8.274
 5911SOL     OW18274   1.901   2.939   7.748
 5911SOL    HW118275   2.000   2.928   7.739
 5911SOL    HW218276   1.861   2.853   7.780
 5912SOL     OW18277   2.737   3.508   7.785
 5912SOL    HW118278   2.660   3.473   7.731
 5912SOL    HW218279   2.705   3.579   7.847
 5913SOL     OW18280   2.092   2.490   9.423
 5913SOL    HW118281   1.999   2.488   9.460
 5913SOL    HW218282   2.093   2.451   9.331
 5914SOL     OW18283   1.881   2.230   9.957
 5914SOL    HW118284   1.799   2.273   9.996
 5914SOL    HW218285   1.853   2.157   9.894
 5915SOL     OW18286   2.431   3.137  10.475
 5915SOL    HW118287   2.338   3.130  10.438
 5915SOL    HW218288   2.442   3.226  10.519
 5916SOL     OW18289   3.417   3.373  10.013
 5916SOL    HW118290   3.360   3.357  10.094
 5916SOL    HW218291   3.358   3.383   9.933
 5917SOL     OW18292   2.997   2.565  10.027
 5917SOL    HW118293   3.054   2.643  10.002
 5917SOL    HW218294   2.937   2.591  10.103
 5918SOL     OW18295   3.617   2.469   9.541
 5918SOL    HW118296   3.605   2.456   9.442
 5918SOL    HW218297   3.587   2.388   9.590
 5919SOL     OW18298   2.630   3.006  10.333
 5919SOL    HW118299   2.552   3.023  10.393
 5919SOL    HW218300   2.664   3.093  10.297
 5920SOL     OW18301   2.712   2.660  11.133
 5920SOL    HW118302   2.708   2.736  11.198
 5920SOL    HW218303   2.734   2.696  11.042
 5921SOL     OW18304   2.547   2.874   9.975
 5921SOL    HW118305   2.616   2.858  10.045
 5921SOL    HW218306   2.474   2.931  10.013
 5922SOL     OW18307   2.548   3.023  11.113
 5922SOL    HW118308   2.608   3.102  11.127
 5922SOL    HW218309   2.462   3.054  11.072
 5923SOL     OW18310   2.197   3.297  10.371
 5923SOL    HW118311   2.119   3.266  10.318
 5923SOL    HW218312   2.255   3.355  10.314
 5924SOL     OW18313   3.322   3.367  10.649
 5924SOL    HW118314   3.346   3.461  10.675
 5924SOL    HW218315   3.306   3.313  10.731
 5925SOL     OW18316   2.300   2.254  10.809
 5925SOL    HW118317   2.382   2.198  10.818
 5925SOL    HW218318   2.219   2.196  10.813
 5926SOL     OW18319   3.465   2.309  10.047
 5926SOL    HW118320   3.391   2.355   9.997
 5926SOL    HW218321   3.516   2.377  10.100
 5927SOL     OW18322   2.093   3.575   9.793
 5927SOL    HW118323   2.127   3.652   9.847
 5927SOL    HW218324   2.137   3.575   9.703
 5928SOL     OW18325   2.989   3.203  11.000
 5928SOL    HW118326   3.036   3.203  11.088
 5928SOL    HW218327   2.941   3.116  10.989
 5929SOL     OW18328   2.092   3.296   9.848
 5929SOL    HW118329   2.066   3.392   9.848
 5929SOL    HW218330   2.021   3.242   9.893
 5930SOL     OW18331   2.102   2.953  10.196
 5930SOL    HW118332   2.116   2.869  10.248
 5930SOL    HW218333   2.047   3.017  10.251
 5931SOL     OW18334   2.482   3.648  10.749
 5931SOL    HW118335   2.390   3.631  10.784
 5931SOL    HW218336   2.510   3.740  10.775
 5932SOL     OW18337   2.468   2.826   9.433
 5932SOL    HW118338   2.475   2.910   9.379
 5932SOL    HW218339   2.514   2.839   9.521
 5933SOL     OW18340   3.456   1.976  10.790
 5933SOL    HW118341   3.438   2.043  10.718
 5933SOL    HW218342   3.453   2.022  10.879
 5934SOL     OW18343   1.984   2.505   9.873
 5934SOL    HW118344   1.939   2.417   9.890
 5934SOL    HW218345   1.983   2.559   9.957
 5935SOL     OW18346   3.704   3.629   9.669
 5935SOL    HW118347   3.758   3.600   9.749
 5935SOL    HW218348   3.734   3.719   9.640
 5936SOL     OW18349   1.889   3.458   9.427
 5936SOL    HW118350   1.870   3.362   9.448
 5936SOL    HW218351   1.856   3.516   9.502
 5937SOL     OW18352   3.551   2.784   9.922
 5937SOL    HW118353   3.646   2.755   9.930
 5937SOL    HW218354   3.543   2.849   9.847
 5938SOL     OW18355   3.503   2.970   9.742
 5938SOL    HW118356   3.589   2.972   9.690
 5938SOL    HW218357   3.517   3.017   9.830
 5939SOL     OW18358   1.975   2.599  10.907
 5939SOL    HW118359   2.063   2.586  10.952
 5939SOL    HW218360   1.962   2.696  10.885
 5940SOL     OW18361   2.475   3.227  10.036
 5940SOL    HW118362   2.426   3.140  10.045
 5940SOL    HW218363   2.452   3.270   9.949
 5941SOL     OW18364   3.155   3.090  10.733
 5941SOL    HW118365   3.192   3.017  10.675
 5941SOL    HW218366   3.207   3.095  10.818
 5942SOL     OW18367   2.671   1.866   9.812
 5942SOL    HW118368   2.711   1.957   9.803
 5942SOL    HW218369   2.571   1.874   9.818
 5943SOL     OW18370   2.059   2.838  10.574
 5943SOL    HW118371   2.148   2.793  10.560
 5943SOL    HW218372   1.986   2.773  10.555
 5944SOL     OW18373   3.387   2.861   9.500
 5944SOL    HW118374   3.324   2.785   9.513
 5944SOL    HW218375   3.435   2.879   9.586
 5945SOL     OW18376   3.049   3.654  10.926
 5945SOL    HW118377   3.073   3.714  10.850
 5945SOL    HW218378   3.056   3.559  10.896
 5946SOL     OW18379   2.179   2.113  11.111
 5946SOL    HW118380   2.250   2.184  11.117
 5946SOL    HW218381   2.091   2.152  11.139
 5947SOL     OW18382   3.328   3.279  10.263
 5947SOL    HW118383   3.269   3.285  10.343
 5947SOL    HW218384   3.313   3.191  10.217
 5948SOL     OW18385   3.529   3.576   9.882
 5948SOL    HW118386   3.488   3.553   9.794
 5948SOL    HW218387   3.511   3.502   9.947
 5949SOL     OW18388   2.460   2.591   9.580
 5949SOL    HW118389   2.484   2.660   9.512
 5949SOL    HW218390   2.382   2.624   9.634
 5950SOL     OW18391   3.143   2.207  10.254
 5950SOL    HW118392   3.057   2.157  10.241
 5950SOL    HW218393   3.205   2.153  10.310
 5951SOL     OW18394   3.438   3.524   9.617
 5951SOL    HW118395   3.527   3.570   9.620
 5951SOL    HW218396   3.417   3.500   9.522
 5952SOL     OW18397   2.669   2.467  10.775
 5952SOL    HW118398   2.622   2.464  10.864
 5952SOL    HW218399   2.618   2.412  10.709
 5953SOL     OW18400   3.256   2.331  10.984
 5953SOL    HW118401   3.236   2.374  11.072
 5953SOL    HW218402   3.334   2.269  10.993
 5954SOL     OW18403   2.835   2.752  10.882
 5954SOL    HW118404   2.881   2.668  10.853
 5954SOL    HW218405   2.779   2.786  10.807
 5955SOL     OW18406   2.853   2.272  10.552
 5955SOL    HW118407   2.776   2.306  10.606
 5955SOL    HW218408   2.819   2.221  10.473
 5956SOL     OW18409   2.903   2.563   9.739
 5956SOL    HW118410   2.929   2.559   9.835
 5956SOL    HW218411   2.818   2.512   9.725
 5957SOL     OW18412   1.938   2.673  10.099
 5957SOL    HW118413   2.037   2.661  10.108
 5957SOL    HW218414   1.914   2.768  10.120
 5958SOL     OW18415   1.992   3.683  10.881
 5958SOL    HW118416   1.982   3.668  10.980
 5958SOL    HW218417   1.906   3.719  10.845
 5959SOL     OW18418   2.727   2.210   9.505
 5959SOL    HW118419   2.786   2.273   9.456
 5959SOL    HW218420   2.746   2.116   9.476
 5960SOL     OW18421   3.581   2.447  11.141
 5960SOL    HW118422   3.555   2.536  11.105
 5960SOL    HW218423   3.579   2.379  11.068
 5961SOL     OW18424   3.224   3.006   9.855
 5961SOL    HW118425   3.307   2.977   9.807
 5961SOL    HW218426   3.175   3.073   9.799
 5962SOL     OW18427   2.412   2.058  10.195
 5962SOL    HW118428   2.407   2.053  10.295
 5962SOL    HW218429   2.414   2.154  10.166
 5963SOL     OW18430   2.870   3.318   9.787
 5963SOL    HW118431   2.824   3.390   9.735
 5963SOL    HW218432   2.866   3.338   9.885
 5964SOL     OW18433   2.213   3.663  10.163
 5964SOL    HW118434   2.263   3.577  10.169
 5964SOL    HW218435   2.278   3.740  10.160
 5965SOL     OW18436   3.657   2.928  10.183
 5965SOL    HW118437   3.595   2.913  10.107
 5965SOL    HW218438   3.605   2.939  10.268
 5966SOL     OW18439   3.089   3.412  10.816
 5966SOL    HW118440   3.095   3.335  10.880
 5966SOL    HW218441   3.037   3.386  10.736
 5967SOL     OW18442   2.183   2.805   9.552
 5967SOL    HW118443   2.265   2.844   9.510
 5967SOL    HW218444   2.156   2.723   9.503
 5968SOL     OW18445   3.320   2.597  10.038
 5968SOL    HW118446   3.315   2.532  10.113
 5968SOL    HW218447   3.400   2.656  10.051
 5969SOL     OW18448   2.323   3.128  11.037
 5969SOL    HW118449   2.273   3.129  10.951
 5969SOL    HW218450   2.260   3.110  11.113
 5970SOL     OW18451   2.973   3.638   9.547
 5970SOL    HW118452   2.913   3.576   9.597
 5970SOL    HW218453   3.004   3.594   9.462
 5971SOL     OW18454   3.494   3.239   9.391
 5971SOL    HW118455   3.462   3.333   9.381
 5971SOL    HW218456   3.418   3.176   9.379
 5972SOL     OW18457   2.326   3.605   9.633
 5972SOL    HW118458   2.359   3.644   9.719
 5972SOL    HW218459   2.402   3.598   9.568
 5973SOL     OW18460   3.262   1.969   9.736
 5973SOL    HW118461   3.238   1.932   9.646
 5973SOL    HW218462   3.361   1.985   9.740
 5974SOL     OW18463   2.111   3.647  10.551
 5974SOL    HW118464   2.168   3.582  10.601
 5974SOL    HW218465   2.095   3.614  10.458
 5975SOL     OW18466   2.802   3.560  10.214
 5975SOL    HW118467   2.882   3.503  10.235
 5975SOL    HW218468   2.753   3.520  10.137
 5976SOL     OW18469   2.244   2.562   9.790
 5976SOL    HW118470   2.289   2.472   9.787
 5976SOL    HW218471   2.150   2.551   9.823
 5977SOL     OW18472   3.409   2.084  11.039
 5977SOL    HW118473   3.404   2.121  11.131
 5977SOL    HW218474   3.337   2.015  11.027
 5978SOL     OW18475   2.476   1.984   9.427
 5978SOL    HW118476   2.574   1.962   9.434
 5978SOL    HW218477   2.445   1.967   9.334
 5979SOL     OW18478   2.643   2.126  11.059
 5979SOL    HW118479   2.710   2.065  11.102
 5979SOL    HW218480   2.570   2.145  11.124
 5980SOL     OW18481   2.750   3.376  10.505
 5980SOL    HW118482   2.727   3.351  10.411
 5980SOL    HW218483   2.811   3.307  10.544
 5981SOL     OW18484   3.213   2.452  10.743
 5981SOL    HW118485   3.241   2.409  10.828
 5981SOL    HW218486   3.238   2.548  10.744
 5982SOL     OW18487   2.665   3.264  10.234
 5982SOL    HW118488   2.755   3.278  10.192
 5982SOL    HW218489   2.594   3.266  10.163
 5983SOL     OW18490   2.784   2.365  10.209
 5983SOL    HW118491   2.759   2.356  10.113
 5983SOL    HW218492   2.832   2.283  10.240
 5984SOL     OW18493   2.401   1.926   9.822
 5984SOL    HW118494   2.320   1.927   9.880
 5984SOL    HW218495   2.404   2.009   9.767
 5985SOL     OW18496   3.296   3.050   9.351
 5985SOL    HW118497   3.328   2.974   9.408
 5985SOL    HW218498   3.204   3.077   9.381
 5986SOL     OW18499   2.797   2.098   9.790
 5986SOL    HW118500   2.749   2.139   9.712
 5986SOL    HW218501   2.896   2.096   9.771
 5987SOL     OW18502   2.938   2.545  10.774
 5987SOL    HW118503   2.858   2.484  10.777
 5987SOL    HW218504   3.019   2.492  10.750
 5988SOL     OW18505   3.089   3.432  10.103
 5988SOL    HW118506   3.110   3.506  10.038
 5988SOL    HW218507   3.157   3.432  10.176
 5989SOL     OW18508   2.321   3.014  10.051
 5989SOL    HW118509   2.250   2.987  10.116
 5989SOL    HW218510   2.295   2.986   9.958
 5990SOL     OW18511   3.133   3.659   9.901
 5990SOL    HW118512   3.177   3.723   9.837
 5990SOL    HW218513   3.083   3.711   9.971
 5991SOL     OW18514   2.894   2.411   9.326
 5991SOL    HW118515   2.853   2.493   9.287
 5991SOL    HW218516   2.958   2.437   9.399
 5992SOL     OW18517   1.940   2.418  10.696
 5992SOL    HW118518   2.032   2.417  10.655
 5992SOL    HW218519   1.934   2.492  10.763
 5993SOL     OW18520   2.423   2.084  10.457
 5993SOL    HW118521   2.461   2.000  10.494
 5993SOL    HW218522   2.335   2.103  10.501
 5994SOL     OW18523   2.728   2.316   9.952
 5994SOL    HW118524   2.696   2.388   9.890
 5994SOL    HW218525   2.752   2.235   9.899
 5995SOL     OW18526   2.879   1.901  10.063
 5995SOL    HW118527   2.807   1.906   9.994
 5995SOL    HW218528   2.855   1.832  10.132
 5996SOL     OW18529   3.291   3.035  10.177
 5996SOL    HW118530   3.236   2.951  10.170
 5996SOL    HW218531   3.317   3.064  10.085
 5997SOL     OW18532   3.328   2.452  10.302
 5997SOL    HW118533   3.298   2.357  10.309
 5997SOL    HW218534   3.401   2.468  10.368
 5998SOL     OW18535   3.719   2.695   9.687
 5998SOL    HW118536   3.761   2.631   9.751
 5998SOL    HW218537   3.681   2.644   9.609
 5999SOL     OW18538   2.350   3.247   9.484
 5999SOL    HW118539   2.263   3.232   9.531
 5999SOL    HW218540   2.333   3.273   9.389
 6000SOL     OW18541   3.526   3.142   9.967
 6000SOL    HW118542   3.625   3.150   9.981
 6000SOL    HW218543   3.481   3.226   9.998
 6001SOL     OW18544   3.252   2.437   9.388
 6001SOL    HW118545   3.198   2.416   9.469
 6001SOL    HW218546   3.343   2.396   9.397
 6002SOL     OW18547   2.389   2.118   9.638
 6002SOL    HW118548   2.416   2.059   9.563
 6002SOL    HW218549   2.389   2.213   9.607
 6003SOL     OW18550   3.616   3.085  10.898
 6003SOL    HW118551   3.707   3.046  10.885
 6003SOL    HW218552   3.624   3.181  10.922
 6004SOL     OW18553   2.926   3.209  10.650
 6004SOL    HW118554   2.846   3.186  10.705
 6004SOL    HW218555   3.009   3.183  10.699
 6005SOL     OW18556   3.454   3.491  10.935
 6005SOL    HW118557   3.481   3.525  10.845
 6005SOL    HW218558   3.533   3.453  10.981
 6006SOL     OW18559   2.973   3.057  10.410
 6006SOL    HW118560   2.933   3.101  10.491
 6006SOL    HW218561   2.932   3.094  10.327
 6007SOL     OW18562   3.500   2.961  10.389
 6007SOL    HW118563   3.505   3.042  10.448
 6007SOL    HW218564   3.414   2.963  10.338
 6008SOL     OW18565   2.777   1.951  10.712
 6008SOL    HW118566   2.802   1.931  10.617
 6008SOL    HW218567   2.849   2.007  10.754
 6009SOL     OW18568   2.842   2.978  11.029
 6009SOL    HW118569   2.743   2.984  11.039
 6009SOL    HW218570   2.865   2.898  10.973
 6010SOL     OW18571   2.567   2.912   9.678
 6010SOL    HW118572   2.553   2.919   9.777
 6010SOL    HW218573   2.651   2.861   9.660
 6011SOL     OW18574   2.272   2.675  10.561
 6011SOL    HW118575   2.358   2.687  10.611
 6011SOL    HW218576   2.230   2.588  10.588
 6012SOL     OW18577   3.136   2.248  10.572
 6012SOL    HW118578   3.157   2.322  10.636
 6012SOL    HW218579   3.047   2.265  10.529
 6013SOL     OW18580   1.926   3.426  10.641
 6013SOL    HW118581   1.880   3.508  10.607
 6013SOL    HW218582   2.024   3.445  10.650
 6014SOL     OW18583   2.229   2.962   9.811
 6014SOL    HW118584   2.222   3.045   9.755
 6014SOL    HW218585   2.233   2.882   9.751
 6015SOL     OW18586   2.428   2.399  10.175
 6015SOL    HW118587   2.440   2.465  10.101
 6015SOL    HW218588   2.474   2.433  10.258
 6016SOL     OW18589   3.114   3.210   9.698
 6016SOL    HW118590   3.164   3.287   9.738
 6016SOL    HW218591   3.019   3.212   9.730
 6017SOL     OW18592   3.134   3.307  10.452
 6017SOL    HW118593   3.181   3.320  10.539
 6017SOL    HW218594   3.068   3.233  10.461
 6018SOL     OW18595   3.444   2.501   9.782
 6018SOL    HW118596   3.413   2.562   9.855
 6018SOL    HW218597   3.494   2.553   9.713
 6019SOL     OW18598   2.216   3.372  10.639
 6019SOL    HW118599   2.195   3.328  10.552
 6019SOL    HW218600   2.313   3.398  10.642
 6020SOL     OW18601   2.264   2.613  10.908
 6020SOL    HW118602   2.332   2.668  10.861
 6020SOL    HW218603   2.304   2.525  10.935
 6021SOL     OW18604   3.449   2.641  10.980
 6021SOL    HW118605   3.357   2.679  10.975
 6021SOL    HW218606   3.509   2.688  10.915
 6022SOL     OW18607   2.875   1.967  11.080
 6022SOL    HW118608   2.881   2.052  11.028
 6022SOL    HW218609   2.907   1.891  11.023
 6023SOL     OW18610   2.366   1.912  11.050
 6023SOL    HW118611   2.324   1.855  10.980
 6023SOL    HW218612   2.300   1.981  11.082
 6024SOL     OW18613   2.435   2.732  10.339
 6024SOL    HW118614   2.479   2.821  10.330
 6024SOL    HW218615   2.372   2.732  10.416
 6025SOL     OW18616   3.222   2.724  10.355
 6025SOL    HW118617   3.147   2.724  10.289
 6025SOL    HW218618   3.259   2.632  10.364
 6026SOL     OW18619   3.071   2.387   9.585
 6026SOL    HW118620   3.084   2.303   9.639
 6026SOL    HW218621   3.042   2.461   9.645
 6027SOL     OW18622   1.899   3.172  10.592
 6027SOL    HW118623   1.952   3.123  10.660
 6027SOL    HW218624   1.921   3.270  10.597
 6028SOL     OW18625   2.594   2.496  10.374
 6028SOL    HW118626   2.653   2.470  10.298
 6028SOL    HW218627   2.566   2.592  10.363
 6029SOL     OW18628   3.590   2.797  11.164
 6029SOL    HW118629   3.544   2.790  11.075
 6029SOL    HW218630   3.528   2.841  11.230
 6030SOL     OW18631   3.484   2.229   9.684
 6030SOL    HW118632   3.486   2.153   9.748
 6030SOL    HW218633   3.436   2.306   9.724
 6031SOL     OW18634   2.885   2.628  10.276
 6031SOL    HW118635   2.900   2.649  10.372
 6031SOL    HW218636   2.855   2.533  10.267
 6032SOL     OW18637   2.842   3.435  11.010
 6032SOL    HW118638   2.822   3.479  10.922
 6032SOL    HW218639   2.881   3.344  10.994
 6033SOL     OW18640   3.721   3.380  10.915
 6033SOL    HW118641   3.735   3.407  10.820
 6033SOL    HW218642   3.804   3.402  10.968
 6034SOL     OW18643   2.212   2.760  11.114
 6034SOL    HW118644   2.288   2.804  11.162
 6034SOL    HW218645   2.247   2.713  11.032
 6035SOL     OW18646   3.402   2.136   9.435
 6035SOL    HW118647   3.341   2.061   9.458
 6035SOL    HW218648   3.424   2.188   9.518
 6036SOL     OW18649   3.165   2.700   9.352
 6036SOL    HW118650   3.199   2.607   9.367
 6036SOL    HW218651   3.183   2.727   9.257
 6037SOL     OW18652   2.930   3.195  10.159
 6037SOL    HW118653   2.937   3.111  10.104
 6037SOL    HW218654   2.992   3.264  10.123
 6038SOL     OW18655   2.181   2.672  10.259
 6038SOL    HW118656   2.274   2.708  10.264
 6038SOL    HW218657   2.175   2.587  10.311
 6039SOL     OW18658   2.201   2.371  10.316
 6039SOL    HW118659   2.149   2.288  10.299
 6039SOL    HW218660   2.278   2.376  10.252
 6040SOL     OW18661   3.000   2.242  10.988
 6040SOL    HW118662   2.955   2.305  11.052
 6040SOL    HW218663   3.093   2.273  10.971
 6041SOL     OW18664   3.022   2.069  10.787
 6041SOL    HW118665   3.022   2.133  10.864
 6041SOL    HW218666   3.050   2.117  10.704
 6042SOL     OW18667   1.870   3.188   9.510
 6042SOL    HW118668   1.777   3.209   9.479
 6042SOL    HW218669   1.880   3.089   9.523
 6043SOL     OW18670   1.950   3.663  10.237
 6043SOL    HW118671   1.908   3.577  10.210
 6043SOL    HW218672   2.044   3.666  10.203
 6044SOL     OW18673   2.366   3.430  10.220
 6044SOL    HW118674   2.432   3.504  10.229
 6044SOL    HW218675   2.410   3.351  10.178
 6045SOL     OW18676   2.864   2.658  10.548
 6045SOL    HW118677   2.905   2.626  10.634
 6045SOL    HW218678   2.768   2.631  10.545
 6046SOL     OW18679   1.902   2.406  10.424
 6046SOL    HW118680   1.987   2.373  10.383
 6046SOL    HW218681   1.915   2.421  10.522
 6047SOL     OW18682   2.051   2.382  11.032
 6047SOL    HW118683   2.110   2.342  10.962
 6047SOL    HW218684   1.993   2.453  10.991
 6048SOL     OW18685   3.231   2.812  10.970
 6048SOL    HW118686   3.270   2.901  10.990
 6048SOL    HW218687   3.241   2.792  10.873
 6049SOL     OW18688   2.677   2.434   9.635
 6049SOL    HW118689   2.684   2.345   9.589
 6049SOL    HW218690   2.583   2.468   9.627
 6050SOL     OW18691   3.519   2.466  10.516
 6050SOL    HW118692   3.481   2.397  10.578
 6050SOL    HW218693   3.601   2.430  10.472
 6051SOL     OW18694   2.114   3.426  11.054
 6051SOL    HW118695   2.084   3.483  11.130
 6051SOL    HW218696   2.107   3.329  11.080
 6052SOL     OW18697   2.533   2.326  10.579
 6052SOL    HW118698   2.499   2.237  10.549
 6052SOL    HW218699   2.559   2.380  10.499
 6053SOL     OW18700   2.792   3.540  10.775
 6053SOL    HW118701   2.768   3.522  10.680
 6053SOL    HW218702   2.822   3.634  10.785
 6054SOL     OW18703   2.335   2.362   9.501
 6054SOL    HW118704   2.396   2.442   9.505
 6054SOL    HW218705   2.240   2.393   9.508
 6055SOL     OW18706   2.021   2.999  10.776
 6055SOL    HW118707   2.043   2.938  10.852
 6055SOL    HW218708   2.031   2.950  10.690
 6056SOL     OW18709   3.209   2.921  10.544
 6056SOL    HW118710   3.233   2.858  10.470
 6056SOL    HW218711   3.119   2.961  10.526
 6057SOL     OW18712   3.164   2.717   9.619
 6057SOL    HW118713   3.078   2.686   9.661
 6057SOL    HW218714   3.160   2.703   9.520
 6058SOL     OW18715   3.621   3.609  10.464
 6058SOL    HW118716   3.682   3.639  10.391
 6058SOL    HW218717   3.583   3.520  10.442
 6059SOL     OW18718   3.114   3.593  10.438
 6059SOL    HW118719   3.198   3.598  10.384
 6059SOL    HW218720   3.091   3.497  10.456
 6060SOL     OW18721   1.945   3.120  10.332
 6060SOL    HW118722   1.940   3.119  10.432
 6060SOL    HW218723   1.862   3.079  10.294
 6061SOL     OW18724   2.550   3.524  11.026
 6061SOL    HW118725   2.494   3.605  11.035
 6061SOL    HW218726   2.602   3.528  10.940
 6062SOL     OW18727   3.588   1.997   9.833
 6062SOL    HW118728   3.661   1.980   9.766
 6062SOL    HW218729   3.557   1.910   9.871
 6063SOL     OW18730   3.250   3.435   9.787
 6063SOL    HW118731   3.317   3.447   9.713
 6063SOL    HW218732   3.210   3.524   9.810
 6064SOL     OW18733   1.992   3.656  11.161
 6064SOL    HW118734   1.951   3.582  11.214
 6064SOL    HW218735   2.056   3.707  11.219
 6065SOL     OW18736   3.142   2.789   9.982
 6065SOL    HW118737   3.202   2.708   9.984
 6065SOL    HW218738   3.182   2.858   9.922
 6066SOL     OW18739   2.692   3.135  10.732
 6066SOL    HW118740   2.687   3.168  10.827
 6066SOL    HW218741   2.606   3.154  10.686
 6067SOL     OW18742   2.534   3.478   9.464
 6067SOL    HW118743   2.543   3.488   9.365
 6067SOL    HW218744   2.494   3.389   9.485
 6068SOL     OW18745   3.512   3.582  10.704
 6068SOL    HW118746   3.565   3.592  10.620
 6068SOL    HW218747   3.485   3.672  10.738
 6069SOL     OW18748   3.703   2.037  10.273
 6069SOL    HW118749   3.742   1.952  10.237
 6069SOL    HW218750   3.605   2.039  10.254
 6070SOL     OW18751   3.056   3.474   9.341
 6070SOL    HW118752   3.062   3.381   9.378
 6070SOL    HW218753   2.997   3.474   9.261
 6071SOL     OW18754   2.684   2.864  10.682
 6071SOL    HW118755   2.724   2.863  10.590
 6071SOL    HW218756   2.694   2.956  10.722
 6072SOL     OW18757   2.778   2.772   9.601
 6072SOL    HW118758   2.841   2.810   9.533
 6072SOL    HW218759   2.818   2.689   9.640
 6073SOL     OW18760   3.366   3.469   9.354
 6073SOL    HW118761   3.274   3.506   9.361
 6073SOL    HW218762   3.404   3.489   9.264
 6074SOL     OW18763   2.234   3.150  10.800
 6074SOL    HW118764   2.221   3.243  10.766
 6074SOL    HW218765   2.150   3.098  10.787
 6075SOL     OW18766   3.476   3.154  10.599
 6075SOL    HW118767   3.536   3.157  10.679
 6075SOL    HW218768   3.401   3.218  10.612
 6076SOL     OW18769   2.901   2.960  10.006
 6076SOL    HW118770   2.831   2.913  10.060
 6076SOL    HW218771   2.960   2.892   9.963
 6077SOL     OW18772   2.876   2.098  10.281
 6077SOL    HW118773   2.868   2.062  10.188
 6077SOL    HW218774   2.874   2.022  10.346
 6078SOL     OW18775   2.452   3.349   9.801
 6078SOL    HW118776   2.494   3.291   9.731
 6078SOL    HW218777   2.408   3.428   9.757
 6079SOL     OW18778   3.571   2.247  10.691
 6079SOL    HW118779   3.644   2.316  10.695
 6079SOL    HW218780   3.599   2.172  10.632
 6080SOL     OW18781   2.117   3.210   9.600
 6080SOL    HW118782   2.021   3.211   9.573
 6080SOL    HW218783   2.129   3.263   9.684
 6081SOL     OW18784   1.967   2.875  11.036
 6081SOL    HW118785   1.890   2.842  11.090
 6081SOL    HW218786   2.052   2.845  11.078
 6082SOL     OW18787   2.534   2.065  10.799
 6082SOL    HW118788   2.624   2.049  10.759
 6082SOL    HW218789   2.542   2.070  10.898
 6083SOL     OW18790   3.302   2.718  10.708
 6083SOL    HW118791   3.245   2.770  10.645
 6083SOL    HW218792   3.398   2.730  10.684
 6084SOL     OW18793   3.045   3.197   9.429
 6084SOL    HW118794   2.946   3.186   9.431
 6084SOL    HW218795   3.079   3.212   9.522
 6085SOL     OW18796   2.475   2.704  10.741
 6085SOL    HW118797   2.531   2.785  10.724
 6085SOL    HW218798   2.534   2.624  10.744
 6086SOL     OW18799   3.355   3.629  10.269
 6086SOL    HW118800   3.388   3.693  10.200
 6086SOL    HW218801   3.421   3.623  10.344
 6087SOL     OW18802   2.578   2.427  11.018
 6087SOL    HW118803   2.597   2.492  11.092
 6087SOL    HW218804   2.638   2.347  11.027
 6088SOL     OW18805   3.312   3.082  10.943
 6088SOL    HW118806   3.303   3.072  11.042
 6088SOL    HW218807   3.408   3.075  10.917
 6089SOL     OW18808   2.252   3.603  10.870
 6089SOL    HW118809   2.161   3.644  10.868
 6089SOL    HW218810   2.245   3.509  10.902
 6090SOL     OW18811   3.536   2.745  10.564
 6090SOL    HW118812   3.509   2.656  10.527
 6090SOL    HW218813   3.537   2.813  10.491
 6091SOL     OW18814   3.087   2.187   9.759
 6091SOL    HW118815   3.152   2.113   9.748
 6091SOL    HW218816   3.107   2.237   9.843
 6092SOL     OW18817   2.456   2.607   9.962
 6092SOL    HW118818   2.506   2.692   9.943
 6092SOL    HW218819   2.368   2.609   9.914
 6093SOL     OW18820   3.639   2.204  10.952
 6093SOL    HW118821   3.622   2.235  10.858
 6093SOL    HW218822   3.555   2.167  10.990
 6094SOL     OW18823   3.592   2.796  10.827
 6094SOL    HW118824   3.630   2.887  10.842
 6094SOL    HW218825   3.584   2.779  10.728
 6095SOL     OW18826   2.721   3.236   9.326
 6095SOL    HW118827   2.675   3.251   9.414
 6095SOL    HW218828   2.765   3.321   9.296
 6096SOL     OW18829   2.523   3.652  10.263
 6096SOL    HW118830   2.477   3.740  10.250
 6096SOL    HW218831   2.622   3.664  10.256
 6097SOL     OW18832   2.721   2.818  10.171
 6097SOL    HW118833   2.775   2.749  10.219
 6097SOL    HW218834   2.689   2.887  10.237
 6098SOL     OW18835   2.945   2.846   9.397
 6098SOL    HW118836   2.922   2.899   9.315
 6098SOL    HW218837   3.026   2.790   9.378
 6099SOL     OW18838   3.723   3.431  10.161
 6099SOL    HW118839   3.652   3.419  10.091
 6099SOL    HW218840   3.724   3.352  10.221
 6100SOL     OW18841   2.083   3.176  11.154
 6100SOL    HW118842   2.018   3.103  11.133
 6100SOL    HW218843   2.087   3.190  11.252
 6101SOL     OW18844   1.941   3.102   9.963
 6101SOL    HW118845   1.940   3.055  10.051
 6101SOL    HW218846   2.023   3.074   9.912
 6102SOL     OW18847   2.534   3.253  10.934
 6102SOL    HW118848   2.456   3.203  10.972
 6102SOL    HW218849   2.531   3.348  10.965
 6103SOL     OW18850   3.686   2.054  10.537
 6103SOL    HW118851   3.682   1.964  10.581
 6103SOL    HW218852   3.689   2.043  10.438
 6104SOL     OW18853   2.290   2.286   9.830
 6104SOL    HW118854   2.320   2.214   9.768
 6104SOL    HW218855   2.251   2.246   9.913
 6105SOL     OW18856   3.567   3.349  10.414
 6105SOL    HW118857   3.474   3.324  10.387
 6105SOL    HW218858   3.593   3.299  10.496
 6106SOL     OW18859   2.179   2.409  10.590
 6106SOL    HW118860   2.217   2.350  10.662
 6106SOL    HW218861   2.219   2.383  10.502
 6107SOL     OW18862   2.674   3.448   9.997
 6107SOL    HW118863   2.706   3.458   9.903
 6107SOL    HW218864   2.595   3.386   9.999
 6108SOL     OW18865   3.286   2.076  10.422
 6108SOL    HW118866   3.338   2.011  10.477
 6108SOL    HW218867   3.237   2.139  10.483
 6109SOL     OW18868   2.863   1.896  10.464
 6109SOL    HW118869   2.800   1.824  10.433
 6109SOL    HW218870   2.956   1.860  10.464
 6110SOL     OW18871   2.632   3.192   9.611
 6110SOL    HW118872   2.586   3.105   9.628
 6110SOL    HW218873   2.723   3.189   9.652
 6111SOL     OW18874   2.480   3.429  10.594
 6111SOL    HW118875   2.475   3.511  10.651
 6111SOL    HW218876   2.569   3.426  10.549
 6112SOL     OW18877   3.214   1.914   9.478
 6112SOL    HW118878   3.249   1.873   9.394
 6112SOL    HW218879   3.124   1.876   9.498
 6113SOL     OW18880   3.162   2.315  10.001
 6113SOL    HW118881   3.103   2.395  10.005
 6113SOL    HW218882   3.177   2.280  10.094
 6114SOL     OW18883   3.455   2.083  10.192
 6114SOL    HW118884   3.371   2.082  10.246
 6114SOL    HW218885   3.457   2.166  10.136
 6115SOL     OW18886   1.901   2.939   9.610
 6115SOL    HW118887   2.000   2.928   9.601
 6115SOL    HW218888   1.861   2.853   9.642
 6116SOL     OW18889   2.737   3.508   9.647
 6116SOL    HW118890   2.660   3.473   9.593
 6116SOL    HW218891   2.705   3.579   9.709
 6117SOL     OW18892   2.092   2.490  11.285
 6117SOL    HW118893   1.999   2.488  11.322
 6117SOL    HW218894   2.093   2.451  11.193
 6118SOL     OW18895   1.881   2.230  11.819
 6118SOL    HW118896   1.799   2.273  11.858
 6118SOL    HW218897   1.853   2.157  11.756
 6119SOL     OW18898   2.431   3.137  12.337
 6119SOL    HW118899   2.338   3.130  12.300
 6119SOL    HW218900   2.442   3.226  12.381
 6120SOL     OW18901   3.417   3.373  11.875
 6120SOL    HW118902   3.360   3.357  11.956
 6120SOL    HW218903   3.358   3.383  11.795
 6121SOL     OW18904   2.997   2.565  11.889
 6121SOL    HW118905   3.054   2.643  11.864
 6121SOL    HW218906   2.937   2.591  11.965
 6122SOL     OW18907   3.617   2.469  11.403
 6122SOL    HW118908   3.605   2.456  11.304
 6122SOL    HW218909   3.587   2.388  11.452
 6123SOL     OW18910   2.630   3.006  12.195
 6123SOL    HW118911   2.552   3.023  12.255
 6123SOL    HW218912   2.664   3.093  12.159
 6124SOL     OW18913   2.712   2.660  12.995
 6124SOL    HW118914   2.708   2.736  13.060
 6124SOL    HW218915   2.734   2.696  12.904
 6125SOL     OW18916   2.547   2.874  11.837
 6125SOL    HW118917   2.616   2.858  11.907
 6125SOL    HW218918   2.474   2.931  11.875
 6126SOL     OW18919   2.548   3.023  12.975
 6126SOL    HW118920   2.608   3.102  12.989
 6126SOL    HW218921   2.462   3.054  12.934
 6127SOL     OW18922   2.197   3.297  12.233
 6127SOL    HW118923   2.119   3.266  12.180
 6127SOL    HW218924   2.255   3.355  12.176
 6128SOL     OW18925   3.322   3.367  12.511
 6128SOL    HW118926   3.346   3.461  12.537
 6128SOL    HW218927   3.306   3.313  12.593
 6129SOL     OW18928   2.300   2.254  12.671
 6129SOL    HW118929   2.382   2.198  12.680
 6129SOL    HW218930   2.219   2.196  12.675
 6130SOL     OW18931   3.465   2.309  11.909
 6130SOL    HW118932   3.391   2.355  11.859
 6130SOL    HW218933   3.516   2.377  11.962
 6131SOL     OW18934   2.093   3.575  11.655
 6131SOL    HW118935   2.127   3.652  11.709
 6131SOL    HW218936   2.137   3.575  11.565
 6132SOL     OW18937   2.989   3.203  12.862
 6132SOL    HW118938   3.036   3.203  12.950
 6132SOL    HW218939   2.941   3.116  12.851
 6133SOL     OW18940   2.092   3.296  11.710
 6133SOL    HW118941   2.066   3.392  11.710
 6133SOL    HW218942   2.021   3.242  11.755
 6134SOL     OW18943   2.102   2.953  12.058
 6134SOL    HW118944   2.116   2.869  12.110
 6134SOL    HW218945   2.047   3.017  12.113
 6135SOL     OW18946   2.482   3.648  12.611
 6135SOL    HW118947   2.390   3.631  12.646
 6135SOL    HW218948   2.510   3.740  12.637
 6136SOL     OW18949   2.468   2.826  11.295
 6136SOL    HW118950   2.475   2.910  11.241
 6136SOL    HW218951   2.514   2.839  11.383
 6137SOL     OW18952   3.456   1.976  12.652
 6137SOL    HW118953   3.438   2.043  12.580
 6137SOL    HW218954   3.453   2.022  12.741
 6138SOL     OW18955   1.984   2.505  11.735
 6138SOL    HW118956   1.939   2.417  11.752
 6138SOL    HW218957   1.983   2.559  11.819
 6139SOL     OW18958   3.704   3.629  11.531
 6139SOL    HW118959   3.758   3.600  11.611
 6139SOL    HW218960   3.734   3.719  11.502
 6140SOL     OW18961   1.889   3.458  11.289
 6140SOL    HW118962   1.870   3.362  11.310
 6140SOL    HW218963   1.856   3.516  11.364
 6141SOL     OW18964   3.551   2.784  11.784
 6141SOL    HW118965   3.646   2.755  11.792
 6141SOL    HW218966   3.543   2.849  11.709
 6142SOL     OW18967   3.503   2.970  11.604
 6142SOL    HW118968   3.589   2.972  11.552
 6142SOL    HW218969   3.517   3.017  11.692
 6143SOL     OW18970   1.975   2.599  12.769
 6143SOL    HW118971   2.063   2.586  12.814
 6143SOL    HW218972   1.962   2.696  12.747
 6144SOL     OW18973   2.475   3.227  11.898
 6144SOL    HW118974   2.426   3.140  11.907
 6144SOL    HW218975   2.452   3.270  11.811
 6145SOL     OW18976   3.155   3.090  12.595
 6145SOL    HW118977   3.192   3.017  12.537
 6145SOL    HW218978   3.207   3.095  12.680
 6146SOL     OW18979   2.671   1.866  11.674
 6146SOL    HW118980   2.711   1.957  11.665
 6146SOL    HW218981   2.571   1.874  11.680
 6147SOL     OW18982   2.059   2.838  12.436
 6147SOL    HW118983   2.148   2.793  12.422
 6147SOL    HW218984   1.986   2.773  12.417
 6148SOL     OW18985   3.387   2.861  11.362
 6148SOL    HW118986   3.324   2.785  11.375
 6148SOL    HW218987   3.435   2.879  11.448
 6149SOL     OW18988   3.049   3.654  12.788
 6149SOL    HW118989   3.073   3.714  12.712
 6149SOL    HW218990   3.056   3.559  12.758
 6150SOL     OW18991   2.179   2.113  12.973
 6150SOL    HW118992   2.250   2.184  12.979
 6150SOL    HW218993   2.091   2.152  13.001
 6151SOL     OW18994   3.328   3.279  12.125
 6151SOL    HW118995   3.269   3.285  12.205
 6151SOL    HW218996   3.313   3.191  12.079
 6152SOL     OW18997   3.529   3.576  11.744
 6152SOL    HW118998   3.488   3.553  11.656
 6152SOL    HW218999   3.511   3.502  11.809
 6153SOL     OW19000   2.460   2.591  11.442
 6153SOL    HW119001   2.484   2.660  11.374
 6153SOL    HW219002   2.382   2.624  11.496
 6154SOL     OW19003   3.143   2.207  12.116
 6154SOL    HW119004   3.057   2.157  12.103
 6154SOL    HW219005   3.205   2.153  12.172
 6155SOL     OW19006   3.438   3.524  11.479
 6155SOL    HW119007   3.527   3.570  11.482
 6155SOL    HW219008   3.417   3.500  11.384
 6156SOL     OW19009   2.669   2.467  12.637
 6156SOL    HW119010   2.622   2.464  12.726
 6156SOL    HW219011   2.618   2.412  12.571
 6157SOL     OW19012   3.256   2.331  12.846
 6157SOL    HW119013   3.236   2.374  12.934
 6157SOL    HW219014   3.334   2.269  12.855
 6158SOL     OW19015   2.835   2.752  12.744
 6158SOL    HW119016   2.881   2.668  12.715
 6158SOL    HW219017   2.779   2.786  12.669
 6159SOL     OW19018   2.853   2.272  12.414
 6159SOL    HW119019   2.776   2.306  12.468
 6159SOL    HW219020   2.819   2.221  12.335
 6160SOL     OW19021   2.903   2.563  11.601
 6160SOL    HW119022   2.929   2.559  11.697
 6160SOL    HW219023   2.818   2.512  11.587
 6161SOL     OW19024   1.938   2.673  11.961
 6161SOL    HW119025   2.037   2.661  11.970
 6161SOL    HW219026   1.914   2.768  11.982
 6162SOL     OW19027   1.992   3.683  12.743
 6162SOL    HW119028   1.982   3.668  12.842
 6162SOL    HW219029   1.906   3.719  12.707
 6163SOL     OW19030   2.727   2.210  11.367
 6163SOL    HW119031   2.786   2.273  11.318
 6163SOL    HW219032   2.746   2.116  11.338
 6164SOL     OW19033   3.581   2.447  13.003
 6164SOL    HW119034   3.555   2.536  12.967
 6164SOL    HW219035   3.579   2.379  12.930
 6165SOL     OW19036   3.224   3.006  11.717
 6165SOL    HW119037   3.307   2.977  11.669
 6165SOL    HW219038   3.175   3.073  11.661
 6166SOL     OW19039   2.412   2.058  12.057
 6166SOL    HW119040   2.407   2.053  12.157
 6166SOL    HW219041   2.414   2.154  12.028
 6167SOL     OW19042   2.870   3.318  11.649
 6167SOL    HW119043   2.824   3.390  11.597
 6167SOL    HW219044   2.866   3.338  11.747
 6168SOL     OW19045   2.213   3.663  12.025
 6168SOL    HW119046   2.263   3.577  12.031
 6168SOL    HW219047   2.278   3.740  12.022
 6169SOL     OW19048   3.657   2.928  12.045
 6169SOL    HW119049   3.595   2.913  11.969
 6169SOL    HW219050   3.605   2.939  12.130
 6170SOL     OW19051   3.089   3.412  12.678
 6170SOL    HW119052   3.095   3.335  12.742
 6170SOL    HW219053   3.037   3.386  12.598
 6171SOL     OW19054   2.183   2.805  11.414
 6171SOL    HW119055   2.265   2.844  11.372
 6171SOL    HW219056   2.156   2.723  11.365
 6172SOL     OW19057   3.320   2.597  11.900
 6172SOL    HW119058   3.315   2.532  11.975
 6172SOL    HW219059   3.400   2.656  11.913
 6173SOL     OW19060   2.323   3.128  12.899
 6173SOL    HW119061   2.273   3.129  12.813
 6173SOL    HW219062   2.260   3.110  12.975
 6174SOL     OW19063   2.973   3.638  11.409
 6174SOL    HW119064   2.913   3.576  11.459
 6174SOL    HW219065   3.004   3.594  11.324
 6175SOL     OW19066   3.494   3.239  11.253
 6175SOL    HW119067   3.462   3.333  11.243
 6175SOL    HW219068   3.418   3.176  11.241
 6176SOL     OW19069   2.326   3.605  11.495
 6176SOL    HW119070   2.359   3.644  11.581
 6176SOL    HW219071   2.402   3.598  11.430
 6177SOL     OW19072   3.262   1.969  11.598
 6177SOL    HW119073   3.238   1.932  11.508
 6177SOL    HW219074   3.361   1.985  11.602
 6178SOL     OW19075   2.111   3.647  12.413
 6178SOL    HW119076   2.168   3.582  12.463
 6178SOL    HW219077   2.095   3.614  12.320
 6179SOL     OW19078   2.802   3.560  12.076
 6179SOL    HW119079   2.882   3.503  12.097
 6179SOL    HW219080   2.753   3.520  11.999
 6180SOL     OW19081   2.244   2.562  11.652
 6180SOL    HW119082   2.289   2.472  11.649
 6180SOL    HW219083   2.150   2.551  11.685
 6181SOL     OW19084   3.409   2.084  12.901
 6181SOL    HW119085   3.404   2.121  12.993
 6181SOL    HW219086   3.337   2.015  12.889
 6182SOL     OW19087   2.476   1.984  11.289
 6182SOL    HW119088   2.574   1.962  11.296
 6182SOL    HW219089   2.445   1.967  11.196
 6183SOL     OW19090   2.643   2.126  12.921
 6183SOL    HW119091   2.710   2.065  12.964
 6183SOL    HW219092   2.570   2.145  12.986
 6184SOL     OW19093   2.750   3.376  12.367
 6184SOL    HW119094   2.727   3.351  12.273
 6184SOL    HW219095   2.811   3.307  12.406
 6185SOL     OW19096   3.213   2.452  12.605
 6185SOL    HW119097   3.241   2.409  12.690
 6185SOL    HW219098   3.238   2.548  12.606
 6186SOL     OW19099   2.665   3.264  12.096
 6186SOL    HW119100   2.755   3.278  12.054
 6186SOL    HW219101   2.594   3.266  12.025
 6187SOL     OW19102   2.784   2.365  12.071
 6187SOL    HW119103   2.759   2.356  11.975
 6187SOL    HW219104   2.832   2.283  12.102
 6188SOL     OW19105   2.401   1.926  11.684
 6188SOL    HW119106   2.320   1.927  11.742
 6188SOL    HW219107   2.404   2.009  11.629
 6189SOL     OW19108   3.296   3.050  11.213
 6189SOL    HW119109   3.328   2.974  11.270
 6189SOL    HW219110   3.204   3.077  11.243
 6190SOL     OW19111   2.797   2.098  11.652
 6190SOL    HW119112   2.749   2.139  11.574
 6190SOL    HW219113   2.896   2.096  11.633
 6191SOL     OW19114   2.938   2.545  12.636
 6191SOL    HW119115   2.858   2.484  12.639
 6191SOL    HW219116   3.019   2.492  12.612
 6192SOL     OW19117   3.089   3.432  11.965
 6192SOL    HW119118   3.110   3.506  11.900
 6192SOL    HW219119   3.157   3.432  12.038
 6193SOL     OW19120   2.321   3.014  11.913
 6193SOL    HW119121   2.250   2.987  11.978
 6193SOL    HW219122   2.295   2.986  11.820
 6194SOL     OW19123   3.133   3.659  11.763
 6194SOL    HW119124   3.177   3.723  11.699
 6194SOL    HW219125   3.083   3.711  11.833
 6195SOL     OW19126   2.894   2.411  11.188
 6195SOL    HW119127   2.853   2.493  11.149
 6195SOL    HW219128   2.958   2.437  11.261
 6196SOL     OW19129   1.940   2.418  12.558
 6196SOL    HW119130   2.032   2.417  12.517
 6196SOL    HW219131   1.934   2.492  12.625
 6197SOL     OW19132   2.423   2.084  12.319
 6197SOL    HW119133   2.461   2.000  12.356
 6197SOL    HW219134   2.335   2.103  12.363
 6198SOL     OW19135   2.728   2.316  11.814
 6198SOL    HW119136   2.696   2.388  11.752
 6198SOL    HW219137   2.752   2.235  11.761
 6199SOL     OW19138   2.879   1.901  11.925
 6199SOL    HW119139   2.807   1.906  11.856
 6199SOL    HW219140   2.855   1.832  11.994
 6200SOL     OW19141   3.291   3.035  12.039
 6200SOL    HW119142   3.236   2.951  12.032
 6200SOL    HW219143   3.317   3.064  11.947
 6201SOL     OW19144   3.328   2.452  12.164
 6201SOL    HW119145   3.298   2.357  12.171
 6201SOL    HW219146   3.401   2.468  12.230
 6202SOL     OW19147   3.719   2.695  11.549
 6202SOL    HW119148   3.761   2.631  11.613
 6202SOL    HW219149   3.681   2.644  11.471
 6203SOL     OW19150   2.350   3.247  11.346
 6203SOL    HW119151   2.263   3.232  11.393
 6203SOL    HW219152   2.333   3.273  11.251
 6204SOL     OW19153   3.526   3.142  11.829
 6204SOL    HW119154   3.625   3.150  11.843
 6204SOL    HW219155   3.481   3.226  11.860
 6205SOL     OW19156   3.252   2.437  11.250
 6205SOL    HW119157   3.198   2.416  11.331
 6205SOL    HW219158   3.343   2.396  11.259
 6206SOL     OW19159   2.389   2.118  11.500
 6206SOL    HW119160   2.416   2.059  11.425
 6206SOL    HW219161   2.389   2.213  11.469
 6207SOL     OW19162   3.616   3.085  12.760
 6207SOL    HW119163   3.707   3.046  12.747
 6207SOL    HW219164   3.624   3.181  12.784
 6208SOL     OW19165   2.926   3.209  12.512
 6208SOL    HW119166   2.846   3.186  12.567
 6208SOL    HW219167   3.009   3.183  12.561
 6209SOL     OW19168   3.454   3.491  12.797
 6209SOL    HW119169   3.481   3.525  12.707
 6209SOL    HW219170   3.533   3.453  12.843
 6210SOL     OW19171   2.973   3.057  12.272
 6210SOL    HW119172   2.933   3.101  12.353
 6210SOL    HW219173   2.932   3.094  12.189
 6211SOL     OW19174   3.500   2.961  12.251
 6211SOL    HW119175   3.505   3.042  12.310
 6211SOL    HW219176   3.414   2.963  12.200
 6212SOL     OW19177   2.777   1.951  12.574
 6212SOL    HW119178   2.802   1.931  12.479
 6212SOL    HW219179   2.849   2.007  12.616
 6213SOL     OW19180   2.842   2.978  12.891
 6213SOL    HW119181   2.743   2.984  12.901
 6213SOL    HW219182   2.865   2.898  12.835
 6214SOL     OW19183   2.567   2.912  11.540
 6214SOL    HW119184   2.553   2.919  11.639
 6214SOL    HW219185   2.651   2.861  11.522
 6215SOL     OW19186   2.272   2.675  12.423
 6215SOL    HW119187   2.358   2.687  12.473
 6215SOL    HW219188   2.230   2.588  12.450
 6216SOL     OW19189   3.136   2.248  12.434
 6216SOL    HW119190   3.157   2.322  12.498
 6216SOL    HW219191   3.047   2.265  12.391
 6217SOL     OW19192   1.926   3.426  12.503
 6217SOL    HW119193   1.880   3.508  12.469
 6217SOL    HW219194   2.024   3.445  12.512
 6218SOL     OW19195   2.229   2.962  11.673
 6218SOL    HW119196   2.222   3.045  11.617
 6218SOL    HW219197   2.233   2.882  11.613
 6219SOL     OW19198   2.428   2.399  12.037
 6219SOL    HW119199   2.440   2.465  11.963
 6219SOL    HW219200   2.474   2.433  12.120
 6220SOL     OW19201   3.114   3.210  11.560
 6220SOL    HW119202   3.164   3.287  11.600
 6220SOL    HW219203   3.019   3.212  11.592
 6221SOL     OW19204   3.134   3.307  12.314
 6221SOL    HW119205   3.181   3.320  12.401
 6221SOL    HW219206   3.068   3.233  12.323
 6222SOL     OW19207   3.444   2.501  11.644
 6222SOL    HW119208   3.413   2.562  11.717
 6222SOL    HW219209   3.494   2.553  11.575
 6223SOL     OW19210   2.216   3.372  12.501
 6223SOL    HW119211   2.195   3.328  12.414
 6223SOL    HW219212   2.313   3.398  12.504
 6224SOL     OW19213   2.264   2.613  12.770
 6224SOL    HW119214   2.332   2.668  12.723
 6224SOL    HW219215   2.304   2.525  12.797
 6225SOL     OW19216   3.449   2.641  12.842
 6225SOL    HW119217   3.357   2.679  12.837
 6225SOL    HW219218   3.509   2.688  12.777
 6226SOL     OW19219   2.875   1.967  12.942
 6226SOL    HW119220   2.881   2.052  12.890
 6226SOL    HW219221   2.907   1.891  12.885
 6227SOL     OW19222   2.366   1.912  12.912
 6227SOL    HW119223   2.324   1.855  12.842
 6227SOL    HW219224   2.300   1.981  12.944
 6228SOL     OW19225   2.435   2.732  12.201
 6228SOL    HW119226   2.479   2.821  12.192
 6228SOL    HW219227   2.372   2.732  12.278
 6229SOL     OW19228   3.222   2.724  12.217
 6229SOL    HW119229   3.147   2.724  12.151
 6229SOL    HW219230   3.259   2.632  12.226
 6230SOL     OW19231   3.071   2.387  11.447
 6230SOL    HW119232   3.084   2.303  11.501
 6230SOL    HW219233   3.042   2.461  11.507
 6231SOL     OW19234   1.899   3.172  12.454
 6231SOL    HW119235   1.952   3.123  12.522
 6231SOL    HW219236   1.921   3.270  12.459
 6232SOL     OW19237   2.594   2.496  12.236
 6232SOL    HW119238   2.653   2.470  12.160
 6232SOL    HW219239   2.566   2.592  12.225
 6233SOL     OW19240   3.590   2.797  13.026
 6233SOL    HW119241   3.544   2.790  12.937
 6233SOL    HW219242   3.528   2.841  13.092
 6234SOL     OW19243   3.484   2.229  11.546
 6234SOL    HW119244   3.486   2.153  11.610
 6234SOL    HW219245   3.436   2.306  11.586
 6235SOL     OW19246   2.885   2.628  12.138
 6235SOL    HW119247   2.900   2.649  12.234
 6235SOL    HW219248   2.855   2.533  12.129
 6236SOL     OW19249   2.842   3.435  12.872
 6236SOL    HW119250   2.822   3.479  12.784
 6236SOL    HW219251   2.881   3.344  12.856
 6237SOL     OW19252   3.721   3.380  12.777
 6237SOL    HW119253   3.735   3.407  12.682
 6237SOL    HW219254   3.804   3.402  12.830
 6238SOL     OW19255   2.212   2.760  12.976
 6238SOL    HW119256   2.288   2.804  13.024
 6238SOL    HW219257   2.247   2.713  12.894
 6239SOL     OW19258   3.402   2.136  11.297
 6239SOL    HW119259   3.341   2.061  11.320
 6239SOL    HW219260   3.424   2.188  11.380
 6240SOL     OW19261   3.165   2.700  11.214
 6240SOL    HW119262   3.199   2.607  11.229
 6240SOL    HW219263   3.183   2.727  11.119
 6241SOL     OW19264   2.930   3.195  12.021
 6241SOL    HW119265   2.937   3.111  11.966
 6241SOL    HW219266   2.992   3.264  11.985
 6242SOL     OW19267   2.181   2.672  12.121
 6242SOL    HW119268   2.274   2.708  12.126
 6242SOL    HW219269   2.175   2.587  12.173
 6243SOL     OW19270   2.201   2.371  12.178
 6243SOL    HW119271   2.149   2.288  12.161
 6243SOL    HW219272   2.278   2.376  12.114
 6244SOL     OW19273   3.000   2.242  12.850
 6244SOL    HW119274   2.955   2.305  12.914
 6244SOL    HW219275   3.093   2.273  12.833
 6245SOL     OW19276   3.022   2.069  12.649
 6245SOL    HW119277   3.022   2.133  12.726
 6245SOL    HW219278   3.050   2.117  12.566
 6246SOL     OW19279   1.870   3.188  11.372
 6246SOL    HW119280   1.777   3.209  11.341
 6246SOL    HW219281   1.880   3.089  11.385
 6247SOL     OW19282   1.950   3.663  12.099
 6247SOL    HW119283   1.908   3.577  12.072
 6247SOL    HW219284   2.044   3.666  12.065
 6248SOL     OW19285   2.366   3.430  12.082
 6248SOL    HW119286   2.432   3.504  12.091
 6248SOL    HW219287   2.410   3.351  12.040
 6249SOL     OW19288   2.864   2.658  12.410
 6249SOL    HW119289   2.905   2.626  12.496
 6249SOL    HW219290   2.768   2.631  12.407
 6250SOL     OW19291   1.902   2.406  12.286
 6250SOL    HW119292   1.987   2.373  12.245
 6250SOL    HW219293   1.915   2.421  12.384
 6251SOL     OW19294   2.051   2.382  12.894
 6251SOL    HW119295   2.110   2.342  12.824
 6251SOL    HW219296   1.993   2.453  12.853
 6252SOL     OW19297   3.231   2.812  12.832
 6252SOL    HW119298   3.270   2.901  12.852
 6252SOL    HW219299   3.241   2.792  12.735
 6253SOL     OW19300   2.677   2.434  11.497
 6253SOL    HW119301   2.684   2.345  11.451
 6253SOL    HW219302   2.583   2.468  11.489
 6254SOL     OW19303   3.519   2.466  12.378
 6254SOL    HW119304   3.481   2.397  12.440
 6254SOL    HW219305   3.601   2.430  12.334
 6255SOL     OW19306   2.114   3.426  12.916
 6255SOL    HW119307   2.084   3.483  12.992
 6255SOL    HW219308   2.107   3.329  12.942
 6256SOL     OW19309   2.533   2.326  12.441
 6256SOL    HW119310   2.499   2.237  12.411
 6256SOL    HW219311   2.559   2.380  12.361
 6257SOL     OW19312   2.792   3.540  12.637
 6257SOL    HW119313   2.768   3.522  12.542
 6257SOL    HW219314   2.822   3.634  12.647
 6258SOL     OW19315   2.335   2.362  11.363
 6258SOL    HW119316   2.396   2.442  11.367
 6258SOL    HW219317   2.240   2.393  11.370
 6259SOL     OW19318   2.021   2.999  12.638
 6259SOL    HW119319   2.043   2.938  12.714
 6259SOL    HW219320   2.031   2.950  12.552
 6260SOL     OW19321   3.209   2.921  12.406
 6260SOL    HW119322   3.233   2.858  12.332
 6260SOL    HW219323   3.119   2.961  12.388
 6261SOL     OW19324   3.164   2.717  11.481
 6261SOL    HW119325   3.078   2.686  11.523
 6261SOL    HW219326   3.160   2.703  11.382
 6262SOL     OW19327   3.621   3.609  12.326
 6262SOL    HW119328   3.682   3.639  12.253
 6262SOL    HW219329   3.583   3.520  12.304
 6263SOL     OW19330   3.114   3.593  12.300
 6263SOL    HW119331   3.198   3.598  12.246
 6263SOL    HW219332   3.091   3.497  12.318
 6264SOL     OW19333   1.945   3.120  12.194
 6264SOL    HW119334   1.940   3.119  12.294
 6264SOL    HW219335   1.862   3.079  12.156
 6265SOL     OW19336   2.550   3.524  12.888
 6265SOL    HW119337   2.494   3.605  12.897
 6265SOL    HW219338   2.602   3.528  12.802
 6266SOL     OW19339   3.588   1.997  11.695
 6266SOL    HW119340   3.661   1.980  11.628
 6266SOL    HW219341   3.557   1.910  11.733
 6267SOL     OW19342   3.250   3.435  11.649
 6267SOL    HW119343   3.317   3.447  11.575
 6267SOL    HW219344   3.210   3.524  11.672
 6268SOL     OW19345   1.992   3.656  13.023
 6268SOL    HW119346   1.951   3.582  13.076
 6268SOL    HW219347   2.056   3.707  13.081
 6269SOL     OW19348   3.142   2.789  11.844
 6269SOL    HW119349   3.202   2.708  11.846
 6269SOL    HW219350   3.182   2.858  11.784
 6270SOL     OW19351   2.692   3.135  12.594
 6270SOL    HW119352   2.687   3.168  12.689
 6270SOL    HW219353   2.606   3.154  12.548
 6271SOL     OW19354   2.534   3.478  11.326
 6271SOL    HW119355   2.543   3.488  11.227
 6271SOL    HW219356   2.494   3.389  11.347
 6272SOL     OW19357   3.512   3.582  12.566
 6272SOL    HW119358   3.565   3.592  12.482
 6272SOL    HW219359   3.485   3.672  12.600
 6273SOL     OW19360   3.703   2.037  12.135
 6273SOL    HW119361   3.742   1.952  12.099
 6273SOL    HW219362   3.605   2.039  12.116
 6274SOL     OW19363   3.056   3.474  11.203
 6274SOL    HW119364   3.062   3.381  11.240
 6274SOL    HW219365   2.997   3.474  11.123
 6275SOL     OW19366   2.684   2.864  12.544
 6275SOL    HW119367   2.724   2.863  12.452
 6275SOL    HW219368   2.694   2.956  12.584
 6276SOL     OW19369   2.778   2.772  11.463
 6276SOL    HW119370   2.841   2.810  11.395
 6276SOL    HW219371   2.818   2.689  11.502
 6277SOL     OW19372   3.366   3.469  11.216
 6277SOL    HW119373   3.274   3.506  11.223
 6277SOL    HW219374   3.404   3.489  11.126
 6278SOL     OW19375   2.234   3.150  12.662
 6278SOL    HW119376   2.221   3.243  12.628
 6278SOL    HW219377   2.150   3.098  12.649
 6279SOL     OW19378   3.476   3.154  12.461
 6279SOL    HW119379   3.536   3.157  12.541
 6279SOL    HW219380   3.401   3.218  12.474
 6280SOL     OW19381   2.901   2.960  11.868
 6280SOL    HW119382   2.831   2.913  11.922
 6280SOL    HW219383   2.960   2.892  11.825
 6281SOL     OW19384   2.876   2.098  12.143
 6281SOL    HW119385   2.868   2.062  12.050
 6281SOL    HW219386   2.874   2.022  12.208
 6282SOL     OW19387   2.452   3.349  11.663
 6282SOL    HW119388   2.494   3.291  11.593
 6282SOL    HW219389   2.408   3.428  11.619
 6283SOL     OW19390   3.571   2.247  12.553
 6283SOL    HW119391   3.644   2.316  12.557
 6283SOL    HW219392   3.599   2.172  12.494
 6284SOL     OW19393   2.117   3.210  11.462
 6284SOL    HW119394   2.021   3.211  11.435
 6284SOL    HW219395   2.129   3.263  11.546
 6285SOL     OW19396   1.967   2.875  12.898
 6285SOL    HW119397   1.890   2.842  12.952
 6285SOL    HW219398   2.052   2.845  12.940
 6286SOL     OW19399   2.534   2.065  12.661
 6286SOL    HW119400   2.624   2.049  12.621
 6286SOL    HW219401   2.542   2.070  12.760
 6287SOL     OW19402   3.302   2.718  12.570
 6287SOL    HW119403   3.245   2.770  12.507
 6287SOL    HW219404   3.398   2.730  12.546
 6288SOL     OW19405   3.045   3.197  11.291
 6288SOL    HW119406   2.946   3.186  11.293
 6288SOL    HW219407   3.079   3.212  11.384
 6289SOL     OW19408   2.475   2.704  12.603
 6289SOL    HW119409   2.531   2.785  12.586
 6289SOL    HW219410   2.534   2.624  12.606
 6290SOL     OW19411   3.355   3.629  12.131
 6290SOL    HW119412   3.388   3.693  12.062
 6290SOL    HW219413   3.421   3.623  12.206
 6291SOL     OW19414   2.578   2.427  12.880
 6291SOL    HW119415   2.597   2.492  12.954
 6291SOL    HW219416   2.638   2.347  12.889
 6292SOL     OW19417   3.312   3.082  12.805
 6292SOL    HW119418   3.303   3.072  12.904
 6292SOL    HW219419   3.408   3.075  12.779
 6293SOL     OW19420   2.252   3.603  12.732
 6293SOL    HW119421   2.161   3.644  12.730
 6293SOL    HW219422   2.245   3.509  12.764
 6294SOL     OW19423   3.536   2.745  12.426
 6294SOL    HW119424   3.509   2.656  12.389
 6294SOL    HW219425   3.537   2.813  12.353
 6295SOL     OW19426   3.087   2.187  11.621
 6295SOL    HW119427   3.152   2.113  11.610
 6295SOL    HW219428   3.107   2.237  11.705
 6296SOL     OW19429   2.456   2.607  11.824
 6296SOL    HW119430   2.506   2.692  11.805
 6296SOL    HW219431   2.368   2.609  11.776
 6297SOL     OW19432   3.639   2.204  12.814
 6297SOL    HW119433   3.622   2.235  12.720
 6297SOL    HW219434   3.555   2.167  12.852
 6298SOL     OW19435   3.592   2.796  12.689
 6298SOL    HW119436   3.630   2.887  12.704
 6298SOL    HW219437   3.584   2.779  12.590
 6299SOL     OW19438   2.721   3.236  11.188
 6299SOL    HW119439   2.675   3.251  11.276
 6299SOL    HW219440   2.765   3.321  11.158
 6300SOL     OW19441   2.523   3.652  12.125
 6300SOL    HW119442   2.477   3.740  12.112
 6300SOL    HW219443   2.622   3.664  12.118
 6301SOL     OW19444   2.721   2.818  12.033
 6301SOL    HW119445   2.775   2.749  12.081
 6301SOL    HW219446   2.689   2.887  12.099
 6302SOL     OW19447   2.945   2.846  11.259
 6302SOL    HW119448   2.922   2.899  11.177
 6302SOL    HW219449   3.026   2.790  11.240
 6303SOL     OW19450   3.723   3.431  12.023
 6303SOL    HW119451   3.652   3.419  11.953
 6303SOL    HW219452   3.724   3.352  12.083
 6304SOL     OW19453   2.083   3.176  13.016
 6304SOL    HW119454   2.018   3.103  12.995
 6304SOL    HW219455   2.087   3.190  13.114
 6305SOL     OW19456   1.941   3.102  11.825
 6305SOL    HW119457   1.940   3.055  11.913
 6305SOL    HW219458   2.023   3.074  11.774
 6306SOL     OW19459   2.534   3.253  12.796
 6306SOL    HW119460   2.456   3.203  12.834
 6306SOL    HW219461   2.531   3.348  12.827
 6307SOL     OW19462   3.686   2.054  12.399
 6307SOL    HW119463   3.682   1.964  12.443
 6307SOL    HW219464   3.689   2.043  12.300
 6308SOL     OW19465   2.290   2.286  11.692
 6308SOL    HW119466   2.320   2.214  11.630
 6308SOL    HW219467   2.251   2.246  11.775
 6309SOL     OW19468   3.567   3.349  12.276
 6309SOL    HW119469   3.474   3.324  12.249
 6309SOL    HW219470   3.593   3.299  12.358
 6310SOL     OW19471   2.179   2.409  12.452
 6310SOL    HW119472   2.217   2.350  12.524
 6310SOL    HW219473   2.219   2.383  12.364
 6311SOL     OW19474   2.674   3.448  11.859
 6311SOL    HW119475   2.706   3.458  11.765
 6311SOL    HW219476   2.595   3.386  11.861
 6312SOL     OW19477   3.286   2.076  12.284
 6312SOL    HW119478   3.338   2.011  12.339
 6312SOL    HW219479   3.237   2.139  12.345
 6313SOL     OW19480   2.863   1.896  12.326
 6313SOL    HW119481   2.800   1.824  12.295
 6313SOL    HW219482   2.956   1.860  12.326
 6314SOL     OW19483   2.632   3.192  11.473
 6314SOL    HW119484   2.586   3.105  11.490
 6314SOL    HW219485   2.723   3.189  11.514
 6315SOL     OW19486   2.480   3.429  12.456
 6315SOL    HW119487   2.475   3.511  12.513
 6315SOL    HW219488   2.569   3.426  12.411
 6316SOL     OW19489   3.214   1.914  11.340
 6316SOL    HW119490   3.249   1.873  11.256
 6316SOL    HW219491   3.124   1.876  11.360
 6317SOL     OW19492   3.162   2.315  11.863
 6317SOL    HW119493   3.103   2.395  11.867
 6317SOL    HW219494   3.177   2.280  11.956
 6318SOL     OW19495   3.455   2.083  12.054
 6318SOL    HW119496   3.371   2.082  12.108
 6318SOL    HW219497   3.457   2.166  11.998
 6319SOL     OW19498   1.901   2.939  11.472
 6319SOL    HW119499   2.000   2.928  11.463
 6319SOL    HW219500   1.861   2.853  11.504
 6320SOL     OW19501   2.737   3.508  11.509
 6320SOL    HW119502   2.660   3.473  11.455
 6320SOL    HW219503   2.705   3.579  11.571
 6321SOL     OW19504   2.092   2.490  13.147
 6321SOL    HW119505   1.999   2.488  13.184
 6321SOL    HW219506   2.093   2.451  13.055
 6322SOL     OW19507   1.881   2.230  13.681
 6322SOL    HW119508   1.799   2.273  13.720
 6322SOL    HW219509   1.853   2.157  13.618
 6323SOL     OW19510   3.417   3.373  13.737
 6323SOL    HW119511   3.360   3.357  13.818
 6323SOL    HW219512   3.358   3.383  13.657
 6324SOL     OW19513   2.997   2.565  13.751
 6324SOL    HW119514   3.054   2.643  13.726
 6324SOL    HW219515   2.937   2.591  13.827
 6325SOL     OW19516   3.617   2.469  13.265
 6325SOL    HW119517   3.605   2.456  13.166
 6325SOL    HW219518   3.587   2.388  13.314
 6326SOL     OW19519   2.547   2.874  13.699
 6326SOL    HW119520   2.616   2.858  13.769
 6326SOL    HW219521   2.474   2.931  13.737
 6327SOL     OW19522   3.465   2.309  13.771
 6327SOL    HW119523   3.391   2.355  13.721
 6327SOL    HW219524   3.516   2.377  13.824
 6328SOL     OW19525   2.093   3.575  13.517
 6328SOL    HW119526   2.127   3.652  13.571
 6328SOL    HW219527   2.137   3.575  13.427
 6329SOL     OW19528   2.092   3.296  13.572
 6329SOL    HW119529   2.066   3.392  13.572
 6329SOL    HW219530   2.021   3.242  13.617
 6330SOL     OW19531   2.102   2.953  13.920
 6330SOL    HW119532   2.116   2.869  13.972
 6330SOL    HW219533   2.047   3.017  13.975
 6331SOL     OW19534   2.468   2.826  13.157
 6331SOL    HW119535   2.475   2.910  13.103
 6331SOL    HW219536   2.514   2.839  13.245
 6332SOL     OW19537   1.984   2.505  13.597
 6332SOL    HW119538   1.939   2.417  13.614
 6332SOL    HW219539   1.983   2.559  13.681
 6333SOL     OW19540   3.704   3.629  13.393
 6333SOL    HW119541   3.758   3.600  13.473
 6333SOL    HW219542   3.734   3.719  13.364
 6334SOL     OW19543   1.889   3.458  13.151
 6334SOL    HW119544   1.870   3.362  13.172
 6334SOL    HW219545   1.856   3.516  13.226
 6335SOL     OW19546   3.551   2.784  13.646
 6335SOL    HW119547   3.646   2.755  13.654
 6335SOL    HW219548   3.543   2.849  13.571
 6336SOL     OW19549   3.503   2.970  13.466
 6336SOL    HW119550   3.589   2.972  13.414
 6336SOL    HW219551   3.517   3.017  13.554
 6337SOL     OW19552   2.475   3.227  13.760
 6337SOL    HW119553   2.426   3.140  13.769
 6337SOL    HW219554   2.452   3.270  13.673
 6338SOL     OW19555   2.671   1.866  13.536
 6338SOL    HW119556   2.711   1.957  13.527
 6338SOL    HW219557   2.571   1.874  13.542
 6339SOL     OW19558   3.387   2.861  13.224
 6339SOL    HW119559   3.324   2.785  13.237
 6339SOL    HW219560   3.435   2.879  13.310
 6340SOL     OW19561   3.529   3.576  13.606
 6340SOL    HW119562   3.488   3.553  13.518
 6340SOL    HW219563   3.511   3.502  13.671
 6341SOL     OW19564   2.460   2.591  13.304
 6341SOL    HW119565   2.484   2.660  13.236
 6341SOL    HW219566   2.382   2.624  13.358
 6342SOL     OW19567   3.143   2.207  13.978
 6342SOL    HW119568   3.057   2.157  13.965
 6342SOL    HW219569   3.205   2.153  14.034
 6343SOL     OW19570   3.438   3.524  13.341
 6343SOL    HW119571   3.527   3.570  13.344
 6343SOL    HW219572   3.417   3.500  13.246
 6344SOL     OW19573   2.903   2.563  13.463
 6344SOL    HW119574   2.929   2.559  13.559
 6344SOL    HW219575   2.818   2.512  13.449
 6345SOL     OW19576   1.938   2.673  13.823
 6345SOL    HW119577   2.037   2.661  13.832
 6345SOL    HW219578   1.914   2.768  13.844
 6346SOL     OW19579   2.727   2.210  13.229
 6346SOL    HW119580   2.786   2.273  13.180
 6346SOL    HW219581   2.746   2.116  13.200
 6347SOL     OW19582   3.224   3.006  13.579
 6347SOL    HW119583   3.307   2.977  13.531
 6347SOL    HW219584   3.175   3.073  13.523
 6348SOL     OW19585   2.870   3.318  13.511
 6348SOL    HW119586   2.824   3.390  13.459
 6348SOL    HW219587   2.866   3.338  13.609
 6349SOL     OW19588   2.213   3.663  13.887
 6349SOL    HW119589   2.263   3.577  13.893
 6349SOL    HW219590   2.278   3.740  13.884
 6350SOL     OW19591   3.657   2.928  13.907
 6350SOL    HW119592   3.595   2.913  13.831
 6350SOL    HW219593   3.605   2.939  13.992
 6351SOL     OW19594   2.183   2.805  13.276
 6351SOL    HW119595   2.265   2.844  13.234
 6351SOL    HW219596   2.156   2.723  13.227
 6352SOL     OW19597   3.320   2.597  13.762
 6352SOL    HW119598   3.315   2.532  13.837
 6352SOL    HW219599   3.400   2.656  13.775
 6353SOL     OW19600   2.973   3.638  13.271
 6353SOL    HW119601   2.913   3.576  13.321
 6353SOL    HW219602   3.004   3.594  13.186
 6354SOL     OW19603   3.494   3.239  13.115
 6354SOL    HW119604   3.462   3.333  13.105
 6354SOL    HW219605   3.418   3.176  13.103
 6355SOL     OW19606   2.326   3.605  13.357
 6355SOL    HW119607   2.359   3.644  13.443
 6355SOL    HW219608   2.402   3.598  13.292
 6356SOL     OW19609   3.262   1.969  13.460
 6356SOL    HW119610   3.238   1.932  13.370
 6356SOL    HW219611   3.361   1.985  13.464
 6357SOL     OW19612   2.802   3.560  13.938
 6357SOL    HW119613   2.882   3.503  13.959
 6357SOL    HW219614   2.753   3.520  13.861
 6358SOL     OW19615   2.244   2.562  13.514
 6358SOL    HW119616   2.289   2.472  13.511
 6358SOL    HW219617   2.150   2.551  13.547
 6359SOL     OW19618   2.476   1.984  13.151
 6359SOL    HW119619   2.574   1.962  13.158
 6359SOL    HW219620   2.445   1.967  13.058
 6360SOL     OW19621   2.401   1.926  13.546
 6360SOL    HW119622   2.320   1.927  13.604
 6360SOL    HW219623   2.404   2.009  13.491
 6361SOL     OW19624   3.296   3.050  13.075
 6361SOL    HW119625   3.328   2.974  13.132
 6361SOL    HW219626   3.204   3.077  13.105
 6362SOL     OW19627   2.797   2.098  13.514
 6362SOL    HW119628   2.749   2.139  13.436
 6362SOL    HW219629   2.896   2.096  13.495
 6363SOL     OW19630   2.321   3.014  13.775
 6363SOL    HW119631   2.250   2.987  13.840
 6363SOL    HW219632   2.295   2.986  13.682
 6364SOL     OW19633   3.133   3.659  13.625
 6364SOL    HW119634   3.177   3.723  13.561
 6364SOL    HW219635   3.083   3.711  13.695
 6365SOL     OW19636   2.894   2.411  13.050
 6365SOL    HW119637   2.853   2.493  13.011
 6365SOL    HW219638   2.958   2.437  13.123
 6366SOL     OW19639   2.728   2.316  13.676
 6366SOL    HW119640   2.696   2.388  13.614
 6366SOL    HW219641   2.752   2.235  13.623
 6367SOL     OW19642   2.879   1.901  13.787
 6367SOL    HW119643   2.807   1.906  13.718
 6367SOL    HW219644   2.855   1.832  13.856
 6368SOL     OW19645   3.719   2.695  13.411
 6368SOL    HW119646   3.761   2.631  13.475
 6368SOL    HW219647   3.681   2.644  13.333
 6369SOL     OW19648   2.350   3.247  13.208
 6369SOL    HW119649   2.263   3.232  13.255
 6369SOL    HW219650   2.333   3.273  13.113
 6370SOL     OW19651   3.526   3.142  13.691
 6370SOL    HW119652   3.625   3.150  13.705
 6370SOL    HW219653   3.481   3.226  13.722
 6371SOL     OW19654   3.252   2.437  13.112
 6371SOL    HW119655   3.198   2.416  13.193
 6371SOL    HW219656   3.343   2.396  13.121
 6372SOL     OW19657   2.389   2.118  13.362
 6372SOL    HW119658   2.416   2.059  13.287
 6372SOL    HW219659   2.389   2.213  13.331
 6373SOL     OW19660   2.567   2.912  13.402
 6373SOL    HW119661   2.553   2.919  13.501
 6373SOL    HW219662   2.651   2.861  13.384
 6374SOL     OW19663   2.229   2.962  13.535
 6374SOL    HW119664   2.222   3.045  13.479
 6374SOL    HW219665   2.233   2.882  13.475
 6375SOL     OW19666   2.428   2.399  13.899
 6375SOL    HW119667   2.440   2.465  13.825
 6375SOL    HW219668   2.474   2.433  13.982
 6376SOL     OW19669   3.114   3.210  13.422
 6376SOL    HW119670   3.164   3.287  13.462
 6376SOL    HW219671   3.019   3.212  13.454
 6377SOL     OW19672   3.444   2.501  13.506
 6377SOL    HW119673   3.413   2.562  13.579
 6377SOL    HW219674   3.494   2.553  13.437
 6378SOL     OW19675   3.071   2.387  13.309
 6378SOL    HW119676   3.084   2.303  13.363
 6378SOL    HW219677   3.042   2.461  13.369
 6379SOL     OW19678   3.484   2.229  13.408
 6379SOL    HW119679   3.486   2.153  13.472
 6379SOL    HW219680   3.436   2.306  13.448
 6380SOL     OW19681   3.402   2.136  13.159
 6380SOL    HW119682   3.341   2.061  13.182
 6380SOL    HW219683   3.424   2.188  13.242
 6381SOL     OW19684   3.165   2.700  13.076
 6381SOL    HW119685   3.199   2.607  13.091
 6381SOL    HW219686   3.183   2.727  12.981
 6382SOL     OW19687   1.870   3.188  13.234
 6382SOL    HW119688   1.777   3.209  13.203
 6382SOL    HW219689   1.880   3.089  13.247
 6383SOL     OW19690   2.677   2.434  13.359
 6383SOL    HW119691   2.684   2.345  13.313
 6383SOL    HW219692   2.583   2.468  13.351
 6384SOL     OW19693   2.335   2.362  13.225
 6384SOL    HW119694   2.396   2.442  13.229
 6384SOL    HW219695   2.240   2.393  13.232
 6385SOL     OW19696   3.164   2.717  13.343
 6385SOL    HW119697   3.078   2.686  13.385
 6385SOL    HW219698   3.160   2.703  13.244
 6386SOL     OW19699   3.588   1.997  13.557
 6386SOL    HW119700   3.661   1.980  13.490
 6386SOL    HW219701   3.557   1.910  13.595
 6387SOL     OW19702   3.250   3.435  13.511
 6387SOL    HW119703   3.317   3.447  13.437
 6387SOL    HW219704   3.210   3.524  13.534
 6388SOL     OW19705   3.142   2.789  13.706
 6388SOL    HW119706   3.202   2.708  13.708
 6388SOL    HW219707   3.182   2.858  13.646
 6389SOL     OW19708   2.534   3.478  13.188
 6389SOL    HW119709   2.543   3.488  13.089
 6389SOL    HW219710   2.494   3.389  13.209
 6390SOL     OW19711   3.703   2.037  13.997
 6390SOL    HW119712   3.742   1.952  13.961
 6390SOL    HW219713   3.605   2.039  13.978
 6391SOL     OW19714   2.125   2.188  13.754
 6391SOL    HW119715   2.046   2.239  13.720
 6391SOL    HW219716   2.116   2.173  13.852
 6392SOL     OW19717   3.056   3.474  13.065
 6392SOL    HW119718   3.062   3.381  13.102
 6392SOL    HW219719   2.997   3.474  12.985
 6393SOL     OW19720   2.778   2.772  13.325
 6393SOL    HW119721   2.841   2.810  13.257
 6393SOL    HW219722   2.818   2.689  13.364
 6394SOL     OW19723   3.366   3.469  13.078
 6394SOL    HW119724   3.274   3.506  13.085
 6394SOL    HW219725   3.404   3.489  12.988
 6395SOL     OW19726   2.901   2.960  13.730
 6395SOL    HW119727   2.831   2.913  13.784
 6395SOL    HW219728   2.960   2.892  13.687
 6396SOL     OW19729   2.452   3.349  13.525
 6396SOL    HW119730   2.494   3.291  13.455
 6396SOL    HW219731   2.408   3.428  13.481
 6397SOL     OW19732   2.117   3.210  13.324
 6397SOL    HW119733   2.021   3.211  13.297
 6397SOL    HW219734   2.129   3.263  13.408
 6398SOL     OW19735   3.045   3.197  13.153
 6398SOL    HW119736   2.946   3.186  13.155
 6398SOL    HW219737   3.079   3.212  13.246
 6399SOL     OW19738   3.087   2.187  13.483
 6399SOL    HW119739   3.152   2.113  13.472
 6399SOL    HW219740   3.107   2.237  13.567
 6400SOL     OW19741   2.456   2.607  13.686
 6400SOL    HW119742   2.506   2.692  13.667
 6400SOL    HW219743   2.368   2.609  13.638
 6401SOL     OW19744   2.721   3.236  13.050
 6401SOL    HW119745   2.675   3.251  13.138
 6401SOL    HW219746   2.765   3.321  13.020
 6402SOL     OW19747   2.523   3.652  13.987
 6402SOL    HW119748   2.477   3.740  13.974
 6402SOL    HW219749   2.622   3.664  13.980
 6403SOL     OW19750   2.721   2.818  13.895
 6403SOL    HW119751   2.775   2.749  13.943
 6403SOL    HW219752   2.689   2.887  13.961
 6404SOL     OW19753   2.945   2.846  13.121
 6404SOL    HW119754   2.922   2.899  13.039
 6404SOL    HW219755   3.026   2.790  13.102
 6405SOL     OW19756   1.941   3.102  13.687
 6405SOL    HW119757   1.940   3.055  13.775
 6405SOL    HW219758   2.023   3.074  13.636
 6406SOL     OW19759   2.290   2.286  13.554
 6406SOL    HW119760   2.320   2.214  13.492
 6406SOL    HW219761   2.251   2.246  13.637
 6407SOL     OW19762   3.567   3.349  14.138
 6407SOL    HW119763   3.474   3.324  14.111
 6407SOL    HW219764   3.593   3.299  14.220
 6408SOL     OW19765   2.674   3.448  13.721
 6408SOL    HW119766   2.706   3.458  13.627
 6408SOL    HW219767   2.595   3.386  13.723
 6409SOL     OW19768   2.632   3.192  13.335
 6409SOL    HW119769   2.586   3.105  13.352
 6409SOL    HW219770   2.723   3.189  13.376
 6410SOL     OW19771   3.214   1.914  13.202
 6410SOL    HW119772   3.249   1.873  13.118
 6410SOL    HW219773   3.124   1.876  13.222
 6411SOL     OW19774   3.162   2.315  13.725
 6411SOL    HW119775   3.103   2.395  13.729
 6411SOL    HW219776   3.177   2.280  13.818
 6412SOL     OW19777   1.901   2.939  13.334
 6412SOL    HW119778   2.000   2.928  13.325
 6412SOL    HW219779   1.861   2.853  13.366
 6413SOL     OW19780   2.737   3.508  13.371
 6413SOL    HW119781   2.660   3.473  13.317
 6413SOL    HW219782   2.705   3.579  13.433
 6414SOL     OW19783   2.087   3.999   0.996
 6414SOL    HW119784   2.122   3.982   1.088
 6414SOL    HW219785   1.999   3.954   0.984
 6415SOL     OW19786   1.881   4.092   0.647
 6415SOL    HW119787   1.799   4.135   0.686
 6415SOL    HW219788   1.853   4.019   0.584
 6416SOL     OW19789   3.617   4.331   0.231
 6416SOL    HW119790   3.605   4.318   0.132
 6416SOL    HW219791   3.587   4.250   0.280
 6417SOL     OW19792   2.300   4.116   1.499
 6417SOL    HW119793   2.382   4.060   1.508
 6417SOL    HW219794   2.219   4.058   1.503
 6418SOL     OW19795   3.456   3.838   1.480
 6418SOL    HW119796   3.438   3.905   1.408
 6418SOL    HW219797   3.453   3.884   1.569
 6419SOL     OW19798   2.671   3.728   0.502
 6419SOL    HW119799   2.711   3.819   0.493
 6419SOL    HW219800   2.571   3.736   0.508
 6420SOL     OW19801   3.143   4.069   0.944
 6420SOL    HW119802   3.057   4.019   0.931
 6420SOL    HW219803   3.205   4.015   1.000
 6421SOL     OW19804   2.412   3.920   0.885
 6421SOL    HW119805   2.407   3.915   0.985
 6421SOL    HW219806   2.414   4.016   0.856
 6422SOL     OW19807   2.064   4.009   1.498
 6422SOL    HW119808   1.984   4.069   1.485
 6422SOL    HW219809   2.054   3.960   1.584
 6423SOL     OW19810   3.262   3.831   0.426
 6423SOL    HW119811   3.238   3.794   0.336
 6423SOL    HW219812   3.361   3.847   0.430
 6424SOL     OW19813   3.409   3.946   1.729
 6424SOL    HW119814   3.404   3.983   1.821
 6424SOL    HW219815   3.337   3.877   1.717
 6425SOL     OW19816   2.643   3.988   1.749
 6425SOL    HW119817   2.710   3.927   1.792
 6425SOL    HW219818   2.570   4.007   1.814
 6426SOL     OW19819   2.401   3.788   0.512
 6426SOL    HW119820   2.320   3.789   0.570
 6426SOL    HW219821   2.404   3.871   0.457
 6427SOL     OW19822   2.159   3.759   0.171
 6427SOL    HW119823   2.208   3.843   0.150
 6427SOL    HW219824   2.221   3.694   0.216
 6428SOL     OW19825   2.423   3.946   1.147
 6428SOL    HW119826   2.461   3.862   1.184
 6428SOL    HW219827   2.335   3.965   1.191
 6429SOL     OW19828   2.879   3.763   0.753
 6429SOL    HW119829   2.807   3.768   0.684
 6429SOL    HW219830   2.855   3.694   0.822
 6430SOL     OW19831   2.777   3.813   1.402
 6430SOL    HW119832   2.802   3.793   1.307
 6430SOL    HW219833   2.849   3.869   1.444
 6431SOL     OW19834   3.136   4.110   1.262
 6431SOL    HW119835   3.157   4.184   1.326
 6431SOL    HW219836   3.047   4.127   1.219
 6432SOL     OW19837   2.366   3.774   1.740
 6432SOL    HW119838   2.324   3.717   1.670
 6432SOL    HW219839   2.300   3.843   1.772
 6433SOL     OW19840   2.169   3.937   1.231
 6433SOL    HW119841   2.146   3.974   1.321
 6433SOL    HW219842   2.139   3.842   1.225
 6434SOL     OW19843   3.402   3.998   0.125
 6434SOL    HW119844   3.341   3.923   0.148
 6434SOL    HW219845   3.424   4.050   0.208
 6435SOL     OW19846   3.022   3.931   1.477
 6435SOL    HW119847   3.022   3.995   1.554
 6435SOL    HW219848   3.050   3.979   1.394
 6436SOL     OW19849   2.765   3.810   0.133
 6436SOL    HW119850   2.816   3.811   0.047
 6436SOL    HW219851   2.821   3.768   0.204
 6437SOL     OW19852   3.588   3.859   0.523
 6437SOL    HW119853   3.661   3.842   0.456
 6437SOL    HW219854   3.557   3.772   0.561
 6438SOL     OW19855   3.703   3.899   0.963
 6438SOL    HW119856   3.742   3.814   0.927
 6438SOL    HW219857   3.605   3.901   0.944
 6439SOL     OW19858   2.534   3.927   1.489
 6439SOL    HW119859   2.624   3.911   1.449
 6439SOL    HW219860   2.542   3.932   1.588
 6440SOL     OW19861   1.934   3.890   0.318
 6440SOL    HW119862   1.917   3.973   0.264
 6440SOL    HW219863   2.024   3.853   0.296
 6441SOL     OW19864   3.087   4.049   0.449
 6441SOL    HW119865   3.152   3.975   0.438
 6441SOL    HW219866   3.107   4.099   0.533
 6442SOL     OW19867   3.639   4.066   1.642
 6442SOL    HW119868   3.622   4.097   1.548
 6442SOL    HW219869   3.555   4.029   1.680
 6443SOL     OW19870   3.686   3.916   1.227
 6443SOL    HW119871   3.682   3.826   1.271
 6443SOL    HW219872   3.689   3.905   1.128
 6444SOL     OW19873   3.286   3.938   1.112
 6444SOL    HW119874   3.338   3.873   1.167
 6444SOL    HW219875   3.237   4.001   1.173
 6445SOL     OW19876   2.863   3.758   1.154
 6445SOL    HW119877   2.800   3.686   1.123
 6445SOL    HW219878   2.956   3.722   1.154
 6446SOL     OW19879   3.214   3.776   0.168
 6446SOL    HW119880   3.249   3.735   0.084
 6446SOL    HW219881   3.124   3.738   0.188
 6447SOL     OW19882   3.162   4.177   0.691
 6447SOL    HW119883   3.103   4.257   0.695
 6447SOL    HW219884   3.177   4.142   0.784
 6448SOL     OW19885   3.455   3.945   0.882
 6448SOL    HW119886   3.371   3.944   0.936
 6448SOL    HW219887   3.457   4.028   0.826
 6449SOL     OW19888   2.087   3.999   2.858
 6449SOL    HW119889   2.122   3.982   2.950
 6449SOL    HW219890   1.999   3.954   2.846
 6450SOL     OW19891   1.881   4.092   2.509
 6450SOL    HW119892   1.799   4.135   2.548
 6450SOL    HW219893   1.853   4.019   2.446
 6451SOL     OW19894   3.617   4.331   2.093
 6451SOL    HW119895   3.605   4.318   1.994
 6451SOL    HW219896   3.587   4.250   2.142
 6452SOL     OW19897   2.300   4.116   3.361
 6452SOL    HW119898   2.382   4.060   3.370
 6452SOL    HW219899   2.219   4.058   3.365
 6453SOL     OW19900   3.456   3.838   3.342
 6453SOL    HW119901   3.438   3.905   3.270
 6453SOL    HW219902   3.453   3.884   3.431
 6454SOL     OW19903   2.671   3.728   2.364
 6454SOL    HW119904   2.711   3.819   2.355
 6454SOL    HW219905   2.571   3.736   2.370
 6455SOL     OW19906   3.143   4.069   2.806
 6455SOL    HW119907   3.057   4.019   2.793
 6455SOL    HW219908   3.205   4.015   2.862
 6456SOL     OW19909   2.412   3.920   2.747
 6456SOL    HW119910   2.407   3.915   2.847
 6456SOL    HW219911   2.414   4.016   2.718
 6457SOL     OW19912   2.064   4.009   3.360
 6457SOL    HW119913   1.984   4.069   3.347
 6457SOL    HW219914   2.054   3.960   3.446
 6458SOL     OW19915   3.262   3.831   2.288
 6458SOL    HW119916   3.238   3.794   2.198
 6458SOL    HW219917   3.361   3.847   2.292
 6459SOL     OW19918   3.409   3.946   3.591
 6459SOL    HW119919   3.404   3.983   3.683
 6459SOL    HW219920   3.337   3.877   3.579
 6460SOL     OW19921   2.476   3.846   1.979
 6460SOL    HW119922   2.574   3.824   1.986
 6460SOL    HW219923   2.445   3.829   1.886
 6461SOL     OW19924   2.643   3.988   3.611
 6461SOL    HW119925   2.710   3.927   3.654
 6461SOL    HW219926   2.570   4.007   3.676
 6462SOL     OW19927   2.401   3.788   2.374
 6462SOL    HW119928   2.320   3.789   2.432
 6462SOL    HW219929   2.404   3.871   2.319
 6463SOL     OW19930   2.159   3.759   2.033
 6463SOL    HW119931   2.208   3.843   2.012
 6463SOL    HW219932   2.221   3.694   2.078
 6464SOL     OW19933   2.423   3.946   3.009
 6464SOL    HW119934   2.461   3.862   3.046
 6464SOL    HW219935   2.335   3.965   3.053
 6465SOL     OW19936   2.879   3.763   2.615
 6465SOL    HW119937   2.807   3.768   2.546
 6465SOL    HW219938   2.855   3.694   2.684
 6466SOL     OW19939   2.777   3.813   3.264
 6466SOL    HW119940   2.802   3.793   3.169
 6466SOL    HW219941   2.849   3.869   3.306
 6467SOL     OW19942   3.136   4.110   3.124
 6467SOL    HW119943   3.157   4.184   3.188
 6467SOL    HW219944   3.047   4.127   3.081
 6468SOL     OW19945   2.366   3.774   3.602
 6468SOL    HW119946   2.324   3.717   3.532
 6468SOL    HW219947   2.300   3.843   3.634
 6469SOL     OW19948   2.169   3.937   3.093
 6469SOL    HW119949   2.146   3.974   3.183
 6469SOL    HW219950   2.139   3.842   3.087
 6470SOL     OW19951   3.402   3.998   1.987
 6470SOL    HW119952   3.341   3.923   2.010
 6470SOL    HW219953   3.424   4.050   2.070
 6471SOL     OW19954   3.022   3.931   3.339
 6471SOL    HW119955   3.022   3.995   3.416
 6471SOL    HW219956   3.050   3.979   3.256
 6472SOL     OW19957   2.765   3.810   1.995
 6472SOL    HW119958   2.816   3.811   1.909
 6472SOL    HW219959   2.821   3.768   2.066
 6473SOL     OW19960   3.588   3.859   2.385
 6473SOL    HW119961   3.661   3.842   2.318
 6473SOL    HW219962   3.557   3.772   2.423
 6474SOL     OW19963   3.703   3.899   2.825
 6474SOL    HW119964   3.742   3.814   2.789
 6474SOL    HW219965   3.605   3.901   2.806
 6475SOL     OW19966   2.534   3.927   3.351
 6475SOL    HW119967   2.624   3.911   3.311
 6475SOL    HW219968   2.542   3.932   3.450
 6476SOL     OW19969   1.937   4.069   1.895
 6476SOL    HW119970   1.845   4.041   1.866
 6476SOL    HW219971   1.968   4.146   1.839
 6477SOL     OW19972   1.934   3.890   2.180
 6477SOL    HW119973   1.917   3.973   2.126
 6477SOL    HW219974   2.024   3.853   2.158
 6478SOL     OW19975   3.087   4.049   2.311
 6478SOL    HW119976   3.152   3.975   2.300
 6478SOL    HW219977   3.107   4.099   2.395
 6479SOL     OW19978   3.639   4.066   3.504
 6479SOL    HW119979   3.622   4.097   3.410
 6479SOL    HW219980   3.555   4.029   3.542
 6480SOL     OW19981   3.686   3.916   3.089
 6480SOL    HW119982   3.682   3.826   3.133
 6480SOL    HW219983   3.689   3.905   2.990
 6481SOL     OW19984   3.286   3.938   2.974
 6481SOL    HW119985   3.338   3.873   3.029
 6481SOL    HW219986   3.237   4.001   3.035
 6482SOL     OW19987   2.863   3.758   3.016
 6482SOL    HW119988   2.800   3.686   2.985
 6482SOL    HW219989   2.956   3.722   3.016
 6483SOL     OW19990   3.214   3.776   2.030
 6483SOL    HW119991   3.249   3.735   1.946
 6483SOL    HW219992   3.124   3.738   2.050
 6484SOL     OW19993   3.162   4.177   2.553
 6484SOL    HW119994   3.103   4.257   2.557
 6484SOL    HW219995   3.177   4.142   2.646
 6485SOL     OW19996   3.455   3.945   2.744
 6485SOL    HW119997   3.371   3.944   2.798
 6485SOL    HW219998   3.457   4.028   2.688
 6486SOL     OW19999   2.087   3.999   4.720
 6486SOL    HW120000   2.122   3.982   4.812
 6486SOL    HW220001   1.999   3.954   4.708
 6487SOL     OW20002   1.881   4.092   4.371
 6487SOL    HW120003   1.799   4.135   4.410
 6487SOL    HW220004   1.853   4.019   4.308
 6488SOL     OW20005   3.617   4.331   3.955
 6488SOL    HW120006   3.605   4.318   3.856
 6488SOL    HW220007   3.587   4.250   4.004
 6489SOL     OW20008   2.300   4.116   5.223
 6489SOL    HW120009   2.382   4.060   5.232
 6489SOL    HW220010   2.219   4.058   5.227
 6490SOL     OW20011   3.456   3.838   5.204
 6490SOL    HW120012   3.438   3.905   5.132
 6490SOL    HW220013   3.453   3.884   5.293
 6491SOL     OW20014   2.671   3.728   4.226
 6491SOL    HW120015   2.711   3.819   4.217
 6491SOL    HW220016   2.571   3.736   4.232
 6492SOL     OW20017   3.143   4.069   4.668
 6492SOL    HW120018   3.057   4.019   4.655
 6492SOL    HW220019   3.205   4.015   4.724
 6493SOL     OW20020   2.412   3.920   4.609
 6493SOL    HW120021   2.407   3.915   4.709
 6493SOL    HW220022   2.414   4.016   4.580
 6494SOL     OW20023   2.064   4.009   5.222
 6494SOL    HW120024   1.984   4.069   5.209
 6494SOL    HW220025   2.054   3.960   5.308
 6495SOL     OW20026   3.262   3.831   4.150
 6495SOL    HW120027   3.238   3.794   4.060
 6495SOL    HW220028   3.361   3.847   4.154
 6496SOL     OW20029   3.409   3.946   5.453
 6496SOL    HW120030   3.404   3.983   5.545
 6496SOL    HW220031   3.337   3.877   5.441
 6497SOL     OW20032   2.476   3.846   3.841
 6497SOL    HW120033   2.574   3.824   3.848
 6497SOL    HW220034   2.445   3.829   3.748
 6498SOL     OW20035   2.643   3.988   5.473
 6498SOL    HW120036   2.710   3.927   5.516
 6498SOL    HW220037   2.570   4.007   5.538
 6499SOL     OW20038   2.401   3.788   4.236
 6499SOL    HW120039   2.320   3.789   4.294
 6499SOL    HW220040   2.404   3.871   4.181
 6500SOL     OW20041   2.159   3.759   3.895
 6500SOL    HW120042   2.208   3.843   3.874
 6500SOL    HW220043   2.221   3.694   3.940
 6501SOL     OW20044   2.423   3.946   4.871
 6501SOL    HW120045   2.461   3.862   4.908
 6501SOL    HW220046   2.335   3.965   4.915
 6502SOL     OW20047   2.879   3.763   4.477
 6502SOL    HW120048   2.807   3.768   4.408
 6502SOL    HW220049   2.855   3.694   4.546
 6503SOL     OW20050   2.777   3.813   5.126
 6503SOL    HW120051   2.802   3.793   5.031
 6503SOL    HW220052   2.849   3.869   5.168
 6504SOL     OW20053   3.136   4.110   4.986
 6504SOL    HW120054   3.157   4.184   5.050
 6504SOL    HW220055   3.047   4.127   4.943
 6505SOL     OW20056   2.366   3.774   5.464
 6505SOL    HW120057   2.324   3.717   5.394
 6505SOL    HW220058   2.300   3.843   5.496
 6506SOL     OW20059   2.169   3.937   4.955
 6506SOL    HW120060   2.146   3.974   5.045
 6506SOL    HW220061   2.139   3.842   4.949
 6507SOL     OW20062   3.402   3.998   3.849
 6507SOL    HW120063   3.341   3.923   3.872
 6507SOL    HW220064   3.424   4.050   3.932
 6508SOL     OW20065   3.022   3.931   5.201
 6508SOL    HW120066   3.022   3.995   5.278
 6508SOL    HW220067   3.050   3.979   5.118
 6509SOL     OW20068   2.765   3.810   3.857
 6509SOL    HW120069   2.816   3.811   3.771
 6509SOL    HW220070   2.821   3.768   3.928
 6510SOL     OW20071   3.588   3.859   4.247
 6510SOL    HW120072   3.661   3.842   4.180
 6510SOL    HW220073   3.557   3.772   4.285
 6511SOL     OW20074   3.703   3.899   4.687
 6511SOL    HW120075   3.742   3.814   4.651
 6511SOL    HW220076   3.605   3.901   4.668
 6512SOL     OW20077   2.534   3.927   5.213
 6512SOL    HW120078   2.624   3.911   5.173
 6512SOL    HW220079   2.542   3.932   5.312
 6513SOL     OW20080   1.937   4.069   3.757
 6513SOL    HW120081   1.845   4.041   3.728
 6513SOL    HW220082   1.968   4.146   3.701
 6514SOL     OW20083   1.934   3.890   4.042
 6514SOL    HW120084   1.917   3.973   3.988
 6514SOL    HW220085   2.024   3.853   4.020
 6515SOL     OW20086   3.087   4.049   4.173
 6515SOL    HW120087   3.152   3.975   4.162
 6515SOL    HW220088   3.107   4.099   4.257
 6516SOL     OW20089   3.639   4.066   5.366
 6516SOL    HW120090   3.622   4.097   5.272
 6516SOL    HW220091   3.555   4.029   5.404
 6517SOL     OW20092   3.686   3.916   4.951
 6517SOL    HW120093   3.682   3.826   4.995
 6517SOL    HW220094   3.689   3.905   4.852
 6518SOL     OW20095   3.286   3.938   4.836
 6518SOL    HW120096   3.338   3.873   4.891
 6518SOL    HW220097   3.237   4.001   4.897
 6519SOL     OW20098   2.863   3.758   4.878
 6519SOL    HW120099   2.800   3.686   4.847
 6519SOL    HW220100   2.956   3.722   4.878
 6520SOL     OW20101   3.214   3.776   3.892
 6520SOL    HW120102   3.249   3.735   3.808
 6520SOL    HW220103   3.124   3.738   3.912
 6521SOL     OW20104   3.162   4.177   4.415
 6521SOL    HW120105   3.103   4.257   4.419
 6521SOL    HW220106   3.177   4.142   4.508
 6522SOL     OW20107   3.455   3.945   4.606
 6522SOL    HW120108   3.371   3.944   4.660
 6522SOL    HW220109   3.457   4.028   4.550
 6523SOL     OW20110   2.087   3.999   6.582
 6523SOL    HW120111   2.122   3.982   6.674
 6523SOL    HW220112   1.999   3.954   6.570
 6524SOL     OW20113   1.881   4.092   6.233
 6524SOL    HW120114   1.799   4.135   6.272
 6524SOL    HW220115   1.853   4.019   6.170
 6525SOL     OW20116   3.617   4.331   5.817
 6525SOL    HW120117   3.605   4.318   5.718
 6525SOL    HW220118   3.587   4.250   5.866
 6526SOL     OW20119   2.300   4.116   7.085
 6526SOL    HW120120   2.382   4.060   7.094
 6526SOL    HW220121   2.219   4.058   7.089
 6527SOL     OW20122   3.456   3.838   7.066
 6527SOL    HW120123   3.438   3.905   6.994
 6527SOL    HW220124   3.453   3.884   7.155
 6528SOL     OW20125   2.671   3.728   6.088
 6528SOL    HW120126   2.711   3.819   6.079
 6528SOL    HW220127   2.571   3.736   6.094
 6529SOL     OW20128   3.143   4.069   6.530
 6529SOL    HW120129   3.057   4.019   6.517
 6529SOL    HW220130   3.205   4.015   6.586
 6530SOL     OW20131   2.412   3.920   6.471
 6530SOL    HW120132   2.407   3.915   6.571
 6530SOL    HW220133   2.414   4.016   6.442
 6531SOL     OW20134   2.064   4.009   7.084
 6531SOL    HW120135   1.984   4.069   7.071
 6531SOL    HW220136   2.054   3.960   7.170
 6532SOL     OW20137   3.262   3.831   6.012
 6532SOL    HW120138   3.238   3.794   5.922
 6532SOL    HW220139   3.361   3.847   6.016
 6533SOL     OW20140   3.409   3.946   7.315
 6533SOL    HW120141   3.404   3.983   7.407
 6533SOL    HW220142   3.337   3.877   7.303
 6534SOL     OW20143   2.476   3.846   5.703
 6534SOL    HW120144   2.574   3.824   5.710
 6534SOL    HW220145   2.445   3.829   5.610
 6535SOL     OW20146   2.643   3.988   7.335
 6535SOL    HW120147   2.710   3.927   7.378
 6535SOL    HW220148   2.570   4.007   7.400
 6536SOL     OW20149   2.401   3.788   6.098
 6536SOL    HW120150   2.320   3.789   6.156
 6536SOL    HW220151   2.404   3.871   6.043
 6537SOL     OW20152   2.159   3.759   5.757
 6537SOL    HW120153   2.208   3.843   5.736
 6537SOL    HW220154   2.221   3.694   5.802
 6538SOL     OW20155   2.423   3.946   6.733
 6538SOL    HW120156   2.461   3.862   6.770
 6538SOL    HW220157   2.335   3.965   6.777
 6539SOL     OW20158   2.879   3.763   6.339
 6539SOL    HW120159   2.807   3.768   6.270
 6539SOL    HW220160   2.855   3.694   6.408
 6540SOL     OW20161   2.777   3.813   6.988
 6540SOL    HW120162   2.802   3.793   6.893
 6540SOL    HW220163   2.849   3.869   7.030
 6541SOL     OW20164   3.136   4.110   6.848
 6541SOL    HW120165   3.157   4.184   6.912
 6541SOL    HW220166   3.047   4.127   6.805
 6542SOL     OW20167   2.366   3.774   7.326
 6542SOL    HW120168   2.324   3.717   7.256
 6542SOL    HW220169   2.300   3.843   7.358
 6543SOL     OW20170   2.169   3.937   6.817
 6543SOL    HW120171   2.146   3.974   6.907
 6543SOL    HW220172   2.139   3.842   6.811
 6544SOL     OW20173   3.402   3.998   5.711
 6544SOL    HW120174   3.341   3.923   5.734
 6544SOL    HW220175   3.424   4.050   5.794
 6545SOL     OW20176   3.022   3.931   7.063
 6545SOL    HW120177   3.022   3.995   7.140
 6545SOL    HW220178   3.050   3.979   6.980
 6546SOL     OW20179   2.765   3.810   5.719
 6546SOL    HW120180   2.816   3.811   5.633
 6546SOL    HW220181   2.821   3.768   5.790
 6547SOL     OW20182   3.588   3.859   6.109
 6547SOL    HW120183   3.661   3.842   6.042
 6547SOL    HW220184   3.557   3.772   6.147
 6548SOL     OW20185   3.703   3.899   6.549
 6548SOL    HW120186   3.742   3.814   6.513
 6548SOL    HW220187   3.605   3.901   6.530
 6549SOL     OW20188   2.534   3.927   7.075
 6549SOL    HW120189   2.624   3.911   7.035
 6549SOL    HW220190   2.542   3.932   7.174
 6550SOL     OW20191   1.937   4.069   5.619
 6550SOL    HW120192   1.845   4.041   5.590
 6550SOL    HW220193   1.968   4.146   5.563
 6551SOL     OW20194   1.934   3.890   5.904
 6551SOL    HW120195   1.917   3.973   5.850
 6551SOL    HW220196   2.024   3.853   5.882
 6552SOL     OW20197   3.087   4.049   6.035
 6552SOL    HW120198   3.152   3.975   6.024
 6552SOL    HW220199   3.107   4.099   6.119
 6553SOL     OW20200   3.639   4.066   7.228
 6553SOL    HW120201   3.622   4.097   7.134
 6553SOL    HW220202   3.555   4.029   7.266
 6554SOL     OW20203   3.686   3.916   6.813
 6554SOL    HW120204   3.682   3.826   6.857
 6554SOL    HW220205   3.689   3.905   6.714
 6555SOL     OW20206   3.286   3.938   6.698
 6555SOL    HW120207   3.338   3.873   6.753
 6555SOL    HW220208   3.237   4.001   6.759
 6556SOL     OW20209   2.863   3.758   6.740
 6556SOL    HW120210   2.800   3.686   6.709
 6556SOL    HW220211   2.956   3.722   6.740
 6557SOL     OW20212   3.214   3.776   5.754
 6557SOL    HW120213   3.249   3.735   5.670
 6557SOL    HW220214   3.124   3.738   5.774
 6558SOL     OW20215   3.162   4.177   6.277
 6558SOL    HW120216   3.103   4.257   6.281
 6558SOL    HW220217   3.177   4.142   6.370
 6559SOL     OW20218   3.455   3.945   6.468
 6559SOL    HW120219   3.371   3.944   6.522
 6559SOL    HW220220   3.457   4.028   6.412
 6560SOL     OW20221   2.087   3.999   8.444
 6560SOL    HW120222   2.122   3.982   8.536
 6560SOL    HW220223   1.999   3.954   8.432
 6561SOL     OW20224   1.881   4.092   8.095
 6561SOL    HW120225   1.799   4.135   8.134
 6561SOL    HW220226   1.853   4.019   8.032
 6562SOL     OW20227   3.617   4.331   7.679
 6562SOL    HW120228   3.605   4.318   7.580
 6562SOL    HW220229   3.587   4.250   7.728
 6563SOL     OW20230   2.300   4.116   8.947
 6563SOL    HW120231   2.382   4.060   8.956
 6563SOL    HW220232   2.219   4.058   8.951
 6564SOL     OW20233   3.456   3.838   8.928
 6564SOL    HW120234   3.438   3.905   8.856
 6564SOL    HW220235   3.453   3.884   9.017
 6565SOL     OW20236   2.671   3.728   7.950
 6565SOL    HW120237   2.711   3.819   7.941
 6565SOL    HW220238   2.571   3.736   7.956
 6566SOL     OW20239   3.143   4.069   8.392
 6566SOL    HW120240   3.057   4.019   8.379
 6566SOL    HW220241   3.205   4.015   8.448
 6567SOL     OW20242   2.412   3.920   8.333
 6567SOL    HW120243   2.407   3.915   8.433
 6567SOL    HW220244   2.414   4.016   8.304
 6568SOL     OW20245   2.064   4.009   8.946
 6568SOL    HW120246   1.984   4.069   8.933
 6568SOL    HW220247   2.054   3.960   9.032
 6569SOL     OW20248   3.262   3.831   7.874
 6569SOL    HW120249   3.238   3.794   7.784
 6569SOL    HW220250   3.361   3.847   7.878
 6570SOL     OW20251   3.409   3.946   9.177
 6570SOL    HW120252   3.404   3.983   9.269
 6570SOL    HW220253   3.337   3.877   9.165
 6571SOL     OW20254   2.476   3.846   7.565
 6571SOL    HW120255   2.574   3.824   7.572
 6571SOL    HW220256   2.445   3.829   7.472
 6572SOL     OW20257   2.643   3.988   9.197
 6572SOL    HW120258   2.710   3.927   9.240
 6572SOL    HW220259   2.570   4.007   9.262
 6573SOL     OW20260   2.401   3.788   7.960
 6573SOL    HW120261   2.320   3.789   8.018
 6573SOL    HW220262   2.404   3.871   7.905
 6574SOL     OW20263   2.159   3.759   7.619
 6574SOL    HW120264   2.208   3.843   7.598
 6574SOL    HW220265   2.221   3.694   7.664
 6575SOL     OW20266   2.423   3.946   8.595
 6575SOL    HW120267   2.461   3.862   8.632
 6575SOL    HW220268   2.335   3.965   8.639
 6576SOL     OW20269   2.879   3.763   8.201
 6576SOL    HW120270   2.807   3.768   8.132
 6576SOL    HW220271   2.855   3.694   8.270
 6577SOL     OW20272   2.777   3.813   8.850
 6577SOL    HW120273   2.802   3.793   8.755
 6577SOL    HW220274   2.849   3.869   8.892
 6578SOL     OW20275   3.136   4.110   8.710
 6578SOL    HW120276   3.157   4.184   8.774
 6578SOL    HW220277   3.047   4.127   8.667
 6579SOL     OW20278   2.366   3.774   9.188
 6579SOL    HW120279   2.324   3.717   9.118
 6579SOL    HW220280   2.300   3.843   9.220
 6580SOL     OW20281   2.169   3.937   8.679
 6580SOL    HW120282   2.146   3.974   8.769
 6580SOL    HW220283   2.139   3.842   8.673
 6581SOL     OW20284   3.402   3.998   7.573
 6581SOL    HW120285   3.341   3.923   7.596
 6581SOL    HW220286   3.424   4.050   7.656
 6582SOL     OW20287   3.022   3.931   8.925
 6582SOL    HW120288   3.022   3.995   9.002
 6582SOL    HW220289   3.050   3.979   8.842
 6583SOL     OW20290   2.765   3.810   7.581
 6583SOL    HW120291   2.816   3.811   7.495
 6583SOL    HW220292   2.821   3.768   7.652
 6584SOL     OW20293   3.588   3.859   7.971
 6584SOL    HW120294   3.661   3.842   7.904
 6584SOL    HW220295   3.557   3.772   8.009
 6585SOL     OW20296   3.703   3.899   8.411
 6585SOL    HW120297   3.742   3.814   8.375
 6585SOL    HW220298   3.605   3.901   8.392
 6586SOL     OW20299   2.534   3.927   8.937
 6586SOL    HW120300   2.624   3.911   8.897
 6586SOL    HW220301   2.542   3.932   9.036
 6587SOL     OW20302   1.937   4.069   7.481
 6587SOL    HW120303   1.845   4.041   7.452
 6587SOL    HW220304   1.968   4.146   7.425
 6588SOL     OW20305   1.934   3.890   7.766
 6588SOL    HW120306   1.917   3.973   7.712
 6588SOL    HW220307   2.024   3.853   7.744
 6589SOL     OW20308   3.087   4.049   7.897
 6589SOL    HW120309   3.152   3.975   7.886
 6589SOL    HW220310   3.107   4.099   7.981
 6590SOL     OW20311   3.639   4.066   9.090
 6590SOL    HW120312   3.622   4.097   8.996
 6590SOL    HW220313   3.555   4.029   9.128
 6591SOL     OW20314   3.686   3.916   8.675
 6591SOL    HW120315   3.682   3.826   8.719
 6591SOL    HW220316   3.689   3.905   8.576
 6592SOL     OW20317   3.286   3.938   8.560
 6592SOL    HW120318   3.338   3.873   8.615
 6592SOL    HW220319   3.237   4.001   8.621
 6593SOL     OW20320   2.863   3.758   8.602
 6593SOL    HW120321   2.800   3.686   8.571
 6593SOL    HW220322   2.956   3.722   8.602
 6594SOL     OW20323   3.214   3.776   7.616
 6594SOL    HW120324   3.249   3.735   7.532
 6594SOL    HW220325   3.124   3.738   7.636
 6595SOL     OW20326   3.162   4.177   8.139
 6595SOL    HW120327   3.103   4.257   8.143
 6595SOL    HW220328   3.177   4.142   8.232
 6596SOL     OW20329   3.455   3.945   8.330
 6596SOL    HW120330   3.371   3.944   8.384
 6596SOL    HW220331   3.457   4.028   8.274
 6597SOL     OW20332   2.087   3.999  10.306
 6597SOL    HW120333   2.122   3.982  10.398
 6597SOL    HW220334   1.999   3.954  10.294
 6598SOL     OW20335   1.881   4.092   9.957
 6598SOL    HW120336   1.799   4.135   9.996
 6598SOL    HW220337   1.853   4.019   9.894
 6599SOL     OW20338   3.617   4.331   9.541
 6599SOL    HW120339   3.605   4.318   9.442
 6599SOL    HW220340   3.587   4.250   9.590
 6600SOL     OW20341   2.300   4.116  10.809
 6600SOL    HW120342   2.382   4.060  10.818
 6600SOL    HW220343   2.219   4.058  10.813
 6601SOL     OW20344   3.456   3.838  10.790
 6601SOL    HW120345   3.438   3.905  10.718
 6601SOL    HW220346   3.453   3.884  10.879
 6602SOL     OW20347   2.671   3.728   9.812
 6602SOL    HW120348   2.711   3.819   9.803
 6602SOL    HW220349   2.571   3.736   9.818
 6603SOL     OW20350   3.143   4.069  10.254
 6603SOL    HW120351   3.057   4.019  10.241
 6603SOL    HW220352   3.205   4.015  10.310
 6604SOL     OW20353   2.412   3.920  10.195
 6604SOL    HW120354   2.407   3.915  10.295
 6604SOL    HW220355   2.414   4.016  10.166
 6605SOL     OW20356   2.064   4.009  10.808
 6605SOL    HW120357   1.984   4.069  10.795
 6605SOL    HW220358   2.054   3.960  10.894
 6606SOL     OW20359   3.262   3.831   9.736
 6606SOL    HW120360   3.238   3.794   9.646
 6606SOL    HW220361   3.361   3.847   9.740
 6607SOL     OW20362   3.409   3.946  11.039
 6607SOL    HW120363   3.404   3.983  11.131
 6607SOL    HW220364   3.337   3.877  11.027
 6608SOL     OW20365   2.476   3.846   9.427
 6608SOL    HW120366   2.574   3.824   9.434
 6608SOL    HW220367   2.445   3.829   9.334
 6609SOL     OW20368   2.643   3.988  11.059
 6609SOL    HW120369   2.710   3.927  11.102
 6609SOL    HW220370   2.570   4.007  11.124
 6610SOL     OW20371   2.401   3.788   9.822
 6610SOL    HW120372   2.320   3.789   9.880
 6610SOL    HW220373   2.404   3.871   9.767
 6611SOL     OW20374   2.159   3.759   9.481
 6611SOL    HW120375   2.208   3.843   9.460
 6611SOL    HW220376   2.221   3.694   9.526
 6612SOL     OW20377   2.423   3.946  10.457
 6612SOL    HW120378   2.461   3.862  10.494
 6612SOL    HW220379   2.335   3.965  10.501
 6613SOL     OW20380   2.879   3.763  10.063
 6613SOL    HW120381   2.807   3.768   9.994
 6613SOL    HW220382   2.855   3.694  10.132
 6614SOL     OW20383   2.777   3.813  10.712
 6614SOL    HW120384   2.802   3.793  10.617
 6614SOL    HW220385   2.849   3.869  10.754
 6615SOL     OW20386   3.136   4.110  10.572
 6615SOL    HW120387   3.157   4.184  10.636
 6615SOL    HW220388   3.047   4.127  10.529
 6616SOL     OW20389   2.366   3.774  11.050
 6616SOL    HW120390   2.324   3.717  10.980
 6616SOL    HW220391   2.300   3.843  11.082
 6617SOL     OW20392   2.169   3.937  10.541
 6617SOL    HW120393   2.146   3.974  10.631
 6617SOL    HW220394   2.139   3.842  10.535
 6618SOL     OW20395   3.402   3.998   9.435
 6618SOL    HW120396   3.341   3.923   9.458
 6618SOL    HW220397   3.424   4.050   9.518
 6619SOL     OW20398   3.022   3.931  10.787
 6619SOL    HW120399   3.022   3.995  10.864
 6619SOL    HW220400   3.050   3.979  10.704
 6620SOL     OW20401   2.765   3.810   9.443
 6620SOL    HW120402   2.816   3.811   9.357
 6620SOL    HW220403   2.821   3.768   9.514
 6621SOL     OW20404   3.588   3.859   9.833
 6621SOL    HW120405   3.661   3.842   9.766
 6621SOL    HW220406   3.557   3.772   9.871
 6622SOL     OW20407   3.703   3.899  10.273
 6622SOL    HW120408   3.742   3.814  10.237
 6622SOL    HW220409   3.605   3.901  10.254
 6623SOL     OW20410   2.534   3.927  10.799
 6623SOL    HW120411   2.624   3.911  10.759
 6623SOL    HW220412   2.542   3.932  10.898
 6624SOL     OW20413   1.937   4.069   9.343
 6624SOL    HW120414   1.845   4.041   9.314
 6624SOL    HW220415   1.968   4.146   9.287
 6625SOL     OW20416   1.934   3.890   9.628
 6625SOL    HW120417   1.917   3.973   9.574
 6625SOL    HW220418   2.024   3.853   9.606
 6626SOL     OW20419   3.087   4.049   9.759
 6626SOL    HW120420   3.152   3.975   9.748
 6626SOL    HW220421   3.107   4.099   9.843
 6627SOL     OW20422   3.639   4.066  10.952
 6627SOL    HW120423   3.622   4.097  10.858
 6627SOL    HW220424   3.555   4.029  10.990
 6628SOL     OW20425   3.686   3.916  10.537
 6628SOL    HW120426   3.682   3.826  10.581
 6628SOL    HW220427   3.689   3.905  10.438
 6629SOL     OW20428   3.286   3.938  10.422
 6629SOL    HW120429   3.338   3.873  10.477
 6629SOL    HW220430   3.237   4.001  10.483
 6630SOL     OW20431   2.863   3.758  10.464
 6630SOL    HW120432   2.800   3.686  10.433
 6630SOL    HW220433   2.956   3.722  10.464
 6631SOL     OW20434   3.214   3.776   9.478
 6631SOL    HW120435   3.249   3.735   9.394
 6631SOL    HW220436   3.124   3.738   9.498
 6632SOL     OW20437   3.162   4.177  10.001
 6632SOL    HW120438   3.103   4.257  10.005
 6632SOL    HW220439   3.177   4.142  10.094
 6633SOL     OW20440   3.455   3.945  10.192
 6633SOL    HW120441   3.371   3.944  10.246
 6633SOL    HW220442   3.457   4.028  10.136
 6634SOL     OW20443   2.087   3.999  12.168
 6634SOL    HW120444   2.122   3.982  12.260
 6634SOL    HW220445   1.999   3.954  12.156
 6635SOL     OW20446   1.881   4.092  11.819
 6635SOL    HW120447   1.799   4.135  11.858
 6635SOL    HW220448   1.853   4.019  11.756
 6636SOL     OW20449   3.617   4.331  11.403
 6636SOL    HW120450   3.605   4.318  11.304
 6636SOL    HW220451   3.587   4.250  11.452
 6637SOL     OW20452   2.300   4.116  12.671
 6637SOL    HW120453   2.382   4.060  12.680
 6637SOL    HW220454   2.219   4.058  12.675
 6638SOL     OW20455   3.456   3.838  12.652
 6638SOL    HW120456   3.438   3.905  12.580
 6638SOL    HW220457   3.453   3.884  12.741
 6639SOL     OW20458   2.671   3.728  11.674
 6639SOL    HW120459   2.711   3.819  11.665
 6639SOL    HW220460   2.571   3.736  11.680
 6640SOL     OW20461   3.143   4.069  12.116
 6640SOL    HW120462   3.057   4.019  12.103
 6640SOL    HW220463   3.205   4.015  12.172
 6641SOL     OW20464   2.412   3.920  12.057
 6641SOL    HW120465   2.407   3.915  12.157
 6641SOL    HW220466   2.414   4.016  12.028
 6642SOL     OW20467   2.064   4.009  12.670
 6642SOL    HW120468   1.984   4.069  12.657
 6642SOL    HW220469   2.054   3.960  12.756
 6643SOL     OW20470   3.262   3.831  11.598
 6643SOL    HW120471   3.238   3.794  11.508
 6643SOL    HW220472   3.361   3.847  11.602
 6644SOL     OW20473   3.409   3.946  12.901
 6644SOL    HW120474   3.404   3.983  12.993
 6644SOL    HW220475   3.337   3.877  12.889
 6645SOL     OW20476   2.476   3.846  11.289
 6645SOL    HW120477   2.574   3.824  11.296
 6645SOL    HW220478   2.445   3.829  11.196
 6646SOL     OW20479   2.643   3.988  12.921
 6646SOL    HW120480   2.710   3.927  12.964
 6646SOL    HW220481   2.570   4.007  12.986
 6647SOL     OW20482   2.401   3.788  11.684
 6647SOL    HW120483   2.320   3.789  11.742
 6647SOL    HW220484   2.404   3.871  11.629
 6648SOL     OW20485   2.159   3.759  11.343
 6648SOL    HW120486   2.208   3.843  11.322
 6648SOL    HW220487   2.221   3.694  11.388
 6649SOL     OW20488   2.423   3.946  12.319
 6649SOL    HW120489   2.461   3.862  12.356
 6649SOL    HW220490   2.335   3.965  12.363
 6650SOL     OW20491   2.879   3.763  11.925
 6650SOL    HW120492   2.807   3.768  11.856
 6650SOL    HW220493   2.855   3.694  11.994
 6651SOL     OW20494   2.777   3.813  12.574
 6651SOL    HW120495   2.802   3.793  12.479
 6651SOL    HW220496   2.849   3.869  12.616
 6652SOL     OW20497   3.136   4.110  12.434
 6652SOL    HW120498   3.157   4.184  12.498
 6652SOL    HW220499   3.047   4.127  12.391
 6653SOL     OW20500   2.366   3.774  12.912
 6653SOL    HW120501   2.324   3.717  12.842
 6653SOL    HW220502   2.300   3.843  12.944
 6654SOL     OW20503   2.169   3.937  12.403
 6654SOL    HW120504   2.146   3.974  12.493
 6654SOL    HW220505   2.139   3.842  12.397
 6655SOL     OW20506   3.402   3.998  11.297
 6655SOL    HW120507   3.341   3.923  11.320
 6655SOL    HW220508   3.424   4.050  11.380
 6656SOL     OW20509   3.022   3.931  12.649
 6656SOL    HW120510   3.022   3.995  12.726
 6656SOL    HW220511   3.050   3.979  12.566
 6657SOL     OW20512   2.765   3.810  11.305
 6657SOL    HW120513   2.816   3.811  11.219
 6657SOL    HW220514   2.821   3.768  11.376
 6658SOL     OW20515   3.588   3.859  11.695
 6658SOL    HW120516   3.661   3.842  11.628
 6658SOL    HW220517   3.557   3.772  11.733
 6659SOL     OW20518   3.703   3.899  12.135
 6659SOL    HW120519   3.742   3.814  12.099
 6659SOL    HW220520   3.605   3.901  12.116
 6660SOL     OW20521   2.534   3.927  12.661
 6660SOL    HW120522   2.624   3.911  12.621
 6660SOL    HW220523   2.542   3.932  12.760
 6661SOL     OW20524   1.937   4.069  11.205
 6661SOL    HW120525   1.845   4.041  11.176
 6661SOL    HW220526   1.968   4.146  11.149
 6662SOL     OW20527   1.934   3.890  11.490
 6662SOL    HW120528   1.917   3.973  11.436
 6662SOL    HW220529   2.024   3.853  11.468
 6663SOL     OW20530   3.087   4.049  11.621
 6663SOL    HW120531   3.152   3.975  11.610
 6663SOL    HW220532   3.107   4.099  11.705
 6664SOL     OW20533   3.639   4.066  12.814
 6664SOL    HW120534   3.622   4.097  12.720
 6664SOL    HW220535   3.555   4.029  12.852
 6665SOL     OW20536   3.686   3.916  12.399
 6665SOL    HW120537   3.682   3.826  12.443
 6665SOL    HW220538   3.689   3.905  12.300
 6666SOL     OW20539   3.286   3.938  12.284
 6666SOL    HW120540   3.338   3.873  12.339
 6666SOL    HW220541   3.237   4.001  12.345
 6667SOL     OW20542   2.863   3.758  12.326
 6667SOL    HW120543   2.800   3.686  12.295
 6667SOL    HW220544   2.956   3.722  12.326
 6668SOL     OW20545   3.214   3.776  11.340
 6668SOL    HW120546   3.249   3.735  11.256
 6668SOL    HW220547   3.124   3.738  11.360
 6669SOL     OW20548   3.162   4.177  11.863
 6669SOL    HW120549   3.103   4.257  11.867
 6669SOL    HW220550   3.177   4.142  11.956
 6670SOL     OW20551   3.455   3.945  12.054
 6670SOL    HW120552   3.371   3.944  12.108
 6670SOL    HW220553   3.457   4.028  11.998
 6671SOL     OW20554   1.881   4.092  13.681
 6671SOL    HW120555   1.799   4.135  13.720
 6671SOL    HW220556   1.853   4.019  13.618
 6672SOL     OW20557   3.617   4.331  13.265
 6672SOL    HW120558   3.605   4.318  13.166
 6672SOL    HW220559   3.587   4.250  13.314
 6673SOL     OW20560   3.465   4.171  13.771
 6673SOL    HW120561   3.391   4.217  13.721
 6673SOL    HW220562   3.516   4.239  13.824
 6674SOL     OW20563   2.671   3.728  13.536
 6674SOL    HW120564   2.711   3.819  13.527
 6674SOL    HW220565   2.571   3.736  13.542
 6675SOL     OW20566   3.262   3.831  13.460
 6675SOL    HW120567   3.238   3.794  13.370
 6675SOL    HW220568   3.361   3.847  13.464
 6676SOL     OW20569   2.476   3.846  13.151
 6676SOL    HW120570   2.574   3.824  13.158
 6676SOL    HW220571   2.445   3.829  13.058
 6677SOL     OW20572   2.401   3.788  13.546
 6677SOL    HW120573   2.320   3.789  13.604
 6677SOL    HW220574   2.404   3.871  13.491
 6678SOL     OW20575   2.159   3.759  13.205
 6678SOL    HW120576   2.208   3.843  13.184
 6678SOL    HW220577   2.221   3.694  13.250
 6679SOL     OW20578   2.879   3.763  13.787
 6679SOL    HW120579   2.807   3.768  13.718
 6679SOL    HW220580   2.855   3.694  13.856
 6680SOL     OW20581   3.402   3.998  13.159
 6680SOL    HW120582   3.341   3.923  13.182
 6680SOL    HW220583   3.424   4.050  13.242
 6681SOL     OW20584   2.765   3.810  13.167
 6681SOL    HW120585   2.816   3.811  13.081
 6681SOL    HW220586   2.821   3.768  13.238
 6682SOL     OW20587   3.588   3.859  13.557
 6682SOL    HW120588   3.661   3.842  13.490
 6682SOL    HW220589   3.557   3.772  13.595
 6683SOL     OW20590   3.703   3.899  13.997
 6683SOL    HW120591   3.742   3.814  13.961
 6683SOL    HW220592   3.605   3.901  13.978
 6684SOL     OW20593   1.937   4.069  13.067
 6684SOL    HW120594   1.845   4.041  13.038
 6684SOL    HW220595   1.968   4.146  13.011
 6685SOL     OW20596   1.934   3.890  13.352
 6685SOL    HW120597   1.917   3.973  13.298
 6685SOL    HW220598   2.024   3.853  13.330
 6686SOL     OW20599   3.087   4.049  13.483
 6686SOL    HW120600   3.152   3.975  13.472
 6686SOL    HW220601   3.107   4.099  13.567
 6687SOL     OW20602   3.214   3.776  13.202
 6687SOL    HW120603   3.249   3.735  13.118
 6687SOL    HW220604   3.124   3.738  13.222
 6688SOL     OW20605   3.162   4.177  13.725
 6688SOL    HW120606   3.103   4.257  13.729
 6688SOL    HW220607   3.177   4.142  13.818
 6689SOL     OW20608   3.954   0.628   0.113
 6689SOL    HW120609   3.861   0.626   0.150
 6689SOL    HW220610   3.955   0.589   0.021
 6690SOL     OW20611   3.949   0.275   0.996
 6690SOL    HW120612   3.984   0.258   1.088
 6690SOL    HW220613   3.861   0.230   0.984
 6691SOL     OW20614   3.743   0.368   0.647
 6691SOL    HW120615   3.661   0.411   0.686
 6691SOL    HW220616   3.715   0.295   0.584
 6692SOL     OW20617   4.059   1.435   1.061
 6692SOL    HW120618   3.981   1.404   1.008
 6692SOL    HW220619   4.117   1.493   1.004
 6693SOL     OW20620   3.955   1.713   0.483
 6693SOL    HW120621   3.989   1.790   0.537
 6693SOL    HW220622   3.999   1.713   0.393
 6694SOL     OW20623   3.954   1.434   0.538
 6694SOL    HW120624   3.928   1.530   0.538
 6694SOL    HW220625   3.883   1.380   0.583
 6695SOL     OW20626   3.846   0.643   0.563
 6695SOL    HW120627   3.801   0.555   0.580
 6695SOL    HW220628   3.845   0.697   0.647
 6696SOL     OW20629   3.751   1.596   0.117
 6696SOL    HW120630   3.732   1.500   0.138
 6696SOL    HW220631   3.718   1.654   0.192
 6697SOL     OW20632   3.837   0.737   1.597
 6697SOL    HW120633   3.925   0.724   1.642
 6697SOL    HW220634   3.824   0.834   1.575
 6698SOL     OW20635   3.800   0.811   0.789
 6698SOL    HW120636   3.899   0.799   0.798
 6698SOL    HW220637   3.776   0.906   0.810
 6699SOL     OW20638   3.854   1.821   1.571
 6699SOL    HW120639   3.844   1.806   1.670
 6699SOL    HW220640   3.768   1.857   1.535
 6700SOL     OW20641   3.926   0.285   1.498
 6700SOL    HW120642   3.846   0.345   1.485
 6700SOL    HW220643   3.916   0.236   1.584
 6701SOL     OW20644   3.802   0.556   1.386
 6701SOL    HW120645   3.894   0.555   1.345
 6701SOL    HW220646   3.796   0.630   1.453
 6702SOL     OW20647   3.788   1.564   1.331
 6702SOL    HW120648   3.742   1.646   1.297
 6702SOL    HW220649   3.886   1.583   1.340
 6703SOL     OW20650   4.091   1.100   0.501
 6703SOL    HW120651   4.084   1.183   0.445
 6703SOL    HW220652   4.095   1.020   0.441
 6704SOL     OW20653   4.031   0.213   1.231
 6704SOL    HW120654   4.008   0.250   1.321
 6704SOL    HW220655   4.001   0.118   1.225
 6705SOL     OW20656   3.761   1.310   1.282
 6705SOL    HW120657   3.814   1.261   1.350
 6705SOL    HW220658   3.783   1.408   1.287
 6706SOL     OW20659   3.732   1.326   0.200
 6706SOL    HW120660   3.639   1.347   0.169
 6706SOL    HW220661   3.742   1.227   0.213
 6707SOL     OW20662   3.812   1.801   0.927
 6707SOL    HW120663   3.770   1.715   0.900
 6707SOL    HW220664   3.906   1.804   0.893
 6708SOL     OW20665   4.228   1.568   0.910
 6708SOL    HW120666   4.294   1.642   0.919
 6708SOL    HW220667   4.272   1.489   0.868
 6709SOL     OW20668   3.764   0.544   1.114
 6709SOL    HW120669   3.849   0.511   1.073
 6709SOL    HW220670   3.777   0.559   1.212
 6710SOL     OW20671   3.913   0.520   1.722
 6710SOL    HW120672   3.972   0.480   1.652
 6710SOL    HW220673   3.855   0.591   1.681
 6711SOL     OW20674   3.976   1.564   1.744
 6711SOL    HW120675   3.946   1.621   1.820
 6711SOL    HW220676   3.969   1.467   1.770
 6712SOL     OW20677   3.883   1.137   1.466
 6712SOL    HW120678   3.905   1.076   1.542
 6712SOL    HW220679   3.893   1.088   1.380
 6713SOL     OW20680   3.807   1.258   1.022
 6713SOL    HW120681   3.802   1.257   1.122
 6713SOL    HW220682   3.724   1.217   0.984
 6714SOL     OW20683   3.854   1.794   1.851
 6714SOL    HW120684   3.813   1.720   1.904
 6714SOL    HW220685   3.918   1.845   1.909
 6715SOL     OW20686   3.799   0.345   0.033
 6715SOL    HW120687   3.707   0.317   0.004
 6715SOL    HW220688   3.830   0.422  -0.023
 6716SOL     OW20689   3.796   0.166   0.318
 6716SOL    HW120690   3.779   0.249   0.264
 6716SOL    HW220691   3.886   0.129   0.296
 6717SOL     OW20692   3.803   1.240   0.653
 6717SOL    HW120693   3.802   1.193   0.741
 6717SOL    HW220694   3.885   1.212   0.602
 6718SOL     OW20695   3.763   1.077   0.300
 6718SOL    HW120696   3.862   1.066   0.291
 6718SOL    HW220697   3.723   0.991   0.332
 6719SOL     OW20698   3.954   0.628   1.975
 6719SOL    HW120699   3.861   0.626   2.012
 6719SOL    HW220700   3.955   0.589   1.883
 6720SOL     OW20701   3.949   0.275   2.858
 6720SOL    HW120702   3.984   0.258   2.950
 6720SOL    HW220703   3.861   0.230   2.846
 6721SOL     OW20704   3.743   0.368   2.509
 6721SOL    HW120705   3.661   0.411   2.548
 6721SOL    HW220706   3.715   0.295   2.446
 6722SOL     OW20707   4.059   1.435   2.923
 6722SOL    HW120708   3.981   1.404   2.870
 6722SOL    HW220709   4.117   1.493   2.866
 6723SOL     OW20710   3.955   1.713   2.345
 6723SOL    HW120711   3.989   1.790   2.399
 6723SOL    HW220712   3.999   1.713   2.255
 6724SOL     OW20713   3.954   1.434   2.400
 6724SOL    HW120714   3.928   1.530   2.400
 6724SOL    HW220715   3.883   1.380   2.445
 6725SOL     OW20716   3.846   0.643   2.425
 6725SOL    HW120717   3.801   0.555   2.442
 6725SOL    HW220718   3.845   0.697   2.509
 6726SOL     OW20719   3.751   1.596   1.979
 6726SOL    HW120720   3.732   1.500   2.000
 6726SOL    HW220721   3.718   1.654   2.054
 6727SOL     OW20722   3.837   0.737   3.459
 6727SOL    HW120723   3.925   0.724   3.504
 6727SOL    HW220724   3.824   0.834   3.437
 6728SOL     OW20725   3.800   0.811   2.651
 6728SOL    HW120726   3.899   0.799   2.660
 6728SOL    HW220727   3.776   0.906   2.672
 6729SOL     OW20728   3.854   1.821   3.433
 6729SOL    HW120729   3.844   1.806   3.532
 6729SOL    HW220730   3.768   1.857   3.397
 6730SOL     OW20731   3.926   0.285   3.360
 6730SOL    HW120732   3.846   0.345   3.347
 6730SOL    HW220733   3.916   0.236   3.446
 6731SOL     OW20734   3.802   0.556   3.248
 6731SOL    HW120735   3.894   0.555   3.207
 6731SOL    HW220736   3.796   0.630   3.315
 6732SOL     OW20737   4.251   0.256   2.190
 6732SOL    HW120738   4.278   0.197   2.115
 6732SOL    HW220739   4.251   0.351   2.159
 6733SOL     OW20740   3.788   1.564   3.193
 6733SOL    HW120741   3.742   1.646   3.159
 6733SOL    HW220742   3.886   1.583   3.202
 6734SOL     OW20743   4.091   1.100   2.363
 6734SOL    HW120744   4.084   1.183   2.307
 6734SOL    HW220745   4.095   1.020   2.303
 6735SOL     OW20746   4.031   0.213   3.093
 6735SOL    HW120747   4.008   0.250   3.183
 6735SOL    HW220748   4.001   0.118   3.087
 6736SOL     OW20749   3.761   1.310   3.144
 6736SOL    HW120750   3.814   1.261   3.212
 6736SOL    HW220751   3.783   1.408   3.149
 6737SOL     OW20752   3.732   1.326   2.062
 6737SOL    HW120753   3.639   1.347   2.031
 6737SOL    HW220754   3.742   1.227   2.075
 6738SOL     OW20755   3.812   1.801   2.789
 6738SOL    HW120756   3.770   1.715   2.762
 6738SOL    HW220757   3.906   1.804   2.755
 6739SOL     OW20758   4.228   1.568   2.772
 6739SOL    HW120759   4.294   1.642   2.781
 6739SOL    HW220760   4.272   1.489   2.730
 6740SOL     OW20761   3.764   0.544   2.976
 6740SOL    HW120762   3.849   0.511   2.935
 6740SOL    HW220763   3.777   0.559   3.074
 6741SOL     OW20764   3.913   0.520   3.584
 6741SOL    HW120765   3.972   0.480   3.514
 6741SOL    HW220766   3.855   0.591   3.543
 6742SOL     OW20767   3.976   1.564   3.606
 6742SOL    HW120768   3.946   1.621   3.682
 6742SOL    HW220769   3.969   1.467   3.632
 6743SOL     OW20770   3.883   1.137   3.328
 6743SOL    HW120771   3.905   1.076   3.404
 6743SOL    HW220772   3.893   1.088   3.242
 6744SOL     OW20773   3.807   1.258   2.884
 6744SOL    HW120774   3.802   1.257   2.984
 6744SOL    HW220775   3.724   1.217   2.846
 6745SOL     OW20776   3.854   1.794   3.713
 6745SOL    HW120777   3.813   1.720   3.766
 6745SOL    HW220778   3.918   1.845   3.771
 6746SOL     OW20779   3.799   0.345   1.895
 6746SOL    HW120780   3.707   0.317   1.866
 6746SOL    HW220781   3.830   0.422   1.839
 6747SOL     OW20782   3.796   0.166   2.180
 6747SOL    HW120783   3.779   0.249   2.126
 6747SOL    HW220784   3.886   0.129   2.158
 6748SOL     OW20785   3.803   1.240   2.515
 6748SOL    HW120786   3.802   1.193   2.603
 6748SOL    HW220787   3.885   1.212   2.464
 6749SOL     OW20788   3.763   1.077   2.162
 6749SOL    HW120789   3.862   1.066   2.153
 6749SOL    HW220790   3.723   0.991   2.194
 6750SOL     OW20791   3.954   0.628   3.837
 6750SOL    HW120792   3.861   0.626   3.874
 6750SOL    HW220793   3.955   0.589   3.745
 6751SOL     OW20794   3.949   0.275   4.720
 6751SOL    HW120795   3.984   0.258   4.812
 6751SOL    HW220796   3.861   0.230   4.708
 6752SOL     OW20797   3.743   0.368   4.371
 6752SOL    HW120798   3.661   0.411   4.410
 6752SOL    HW220799   3.715   0.295   4.308
 6753SOL     OW20800   4.059   1.435   4.785
 6753SOL    HW120801   3.981   1.404   4.732
 6753SOL    HW220802   4.117   1.493   4.728
 6754SOL     OW20803   3.955   1.713   4.207
 6754SOL    HW120804   3.989   1.790   4.261
 6754SOL    HW220805   3.999   1.713   4.117
 6755SOL     OW20806   3.954   1.434   4.262
 6755SOL    HW120807   3.928   1.530   4.262
 6755SOL    HW220808   3.883   1.380   4.307
 6756SOL     OW20809   3.846   0.643   4.287
 6756SOL    HW120810   3.801   0.555   4.304
 6756SOL    HW220811   3.845   0.697   4.371
 6757SOL     OW20812   3.751   1.596   3.841
 6757SOL    HW120813   3.732   1.500   3.862
 6757SOL    HW220814   3.718   1.654   3.916
 6758SOL     OW20815   3.837   0.737   5.321
 6758SOL    HW120816   3.925   0.724   5.366
 6758SOL    HW220817   3.824   0.834   5.299
 6759SOL     OW20818   3.800   0.811   4.513
 6759SOL    HW120819   3.899   0.799   4.522
 6759SOL    HW220820   3.776   0.906   4.534
 6760SOL     OW20821   3.854   1.821   5.295
 6760SOL    HW120822   3.844   1.806   5.394
 6760SOL    HW220823   3.768   1.857   5.259
 6761SOL     OW20824   3.926   0.285   5.222
 6761SOL    HW120825   3.846   0.345   5.209
 6761SOL    HW220826   3.916   0.236   5.308
 6762SOL     OW20827   3.802   0.556   5.110
 6762SOL    HW120828   3.894   0.555   5.069
 6762SOL    HW220829   3.796   0.630   5.177
 6763SOL     OW20830   4.251   0.256   4.052
 6763SOL    HW120831   4.278   0.197   3.977
 6763SOL    HW220832   4.251   0.351   4.021
 6764SOL     OW20833   3.788   1.564   5.055
 6764SOL    HW120834   3.742   1.646   5.021
 6764SOL    HW220835   3.886   1.583   5.064
 6765SOL     OW20836   4.091   1.100   4.225
 6765SOL    HW120837   4.084   1.183   4.169
 6765SOL    HW220838   4.095   1.020   4.165
 6766SOL     OW20839   4.031   0.213   4.955
 6766SOL    HW120840   4.008   0.250   5.045
 6766SOL    HW220841   4.001   0.118   4.949
 6767SOL     OW20842   3.761   1.310   5.006
 6767SOL    HW120843   3.814   1.261   5.074
 6767SOL    HW220844   3.783   1.408   5.011
 6768SOL     OW20845   3.732   1.326   3.924
 6768SOL    HW120846   3.639   1.347   3.893
 6768SOL    HW220847   3.742   1.227   3.937
 6769SOL     OW20848   3.812   1.801   4.651
 6769SOL    HW120849   3.770   1.715   4.624
 6769SOL    HW220850   3.906   1.804   4.617
 6770SOL     OW20851   4.228   1.568   4.634
 6770SOL    HW120852   4.294   1.642   4.643
 6770SOL    HW220853   4.272   1.489   4.592
 6771SOL     OW20854   3.764   0.544   4.838
 6771SOL    HW120855   3.849   0.511   4.797
 6771SOL    HW220856   3.777   0.559   4.936
 6772SOL     OW20857   3.913   0.520   5.446
 6772SOL    HW120858   3.972   0.480   5.376
 6772SOL    HW220859   3.855   0.591   5.405
 6773SOL     OW20860   3.976   1.564   5.468
 6773SOL    HW120861   3.946   1.621   5.544
 6773SOL    HW220862   3.969   1.467   5.494
 6774SOL     OW20863   3.883   1.137   5.190
 6774SOL    HW120864   3.905   1.076   5.266
 6774SOL    HW220865   3.893   1.088   5.104
 6775SOL     OW20866   3.807   1.258   4.746
 6775SOL    HW120867   3.802   1.257   4.846
 6775SOL    HW220868   3.724   1.217   4.708
 6776SOL     OW20869   3.854   1.794   5.575
 6776SOL    HW120870   3.813   1.720   5.628
 6776SOL    HW220871   3.918   1.845   5.633
 6777SOL     OW20872   3.799   0.345   3.757
 6777SOL    HW120873   3.707   0.317   3.728
 6777SOL    HW220874   3.830   0.422   3.701
 6778SOL     OW20875   3.796   0.166   4.042
 6778SOL    HW120876   3.779   0.249   3.988
 6778SOL    HW220877   3.886   0.129   4.020
 6779SOL     OW20878   3.803   1.240   4.377
 6779SOL    HW120879   3.802   1.193   4.465
 6779SOL    HW220880   3.885   1.212   4.326
 6780SOL     OW20881   3.763   1.077   4.024
 6780SOL    HW120882   3.862   1.066   4.015
 6780SOL    HW220883   3.723   0.991   4.056
 6781SOL     OW20884   3.954   0.628   5.699
 6781SOL    HW120885   3.861   0.626   5.736
 6781SOL    HW220886   3.955   0.589   5.607
 6782SOL     OW20887   3.949   0.275   6.582
 6782SOL    HW120888   3.984   0.258   6.674
 6782SOL    HW220889   3.861   0.230   6.570
 6783SOL     OW20890   3.743   0.368   6.233
 6783SOL    HW120891   3.661   0.411   6.272
 6783SOL    HW220892   3.715   0.295   6.170
 6784SOL     OW20893   4.059   1.435   6.647
 6784SOL    HW120894   3.981   1.404   6.594
 6784SOL    HW220895   4.117   1.493   6.590
 6785SOL     OW20896   3.955   1.713   6.069
 6785SOL    HW120897   3.989   1.790   6.123
 6785SOL    HW220898   3.999   1.713   5.979
 6786SOL     OW20899   3.954   1.434   6.124
 6786SOL    HW120900   3.928   1.530   6.124
 6786SOL    HW220901   3.883   1.380   6.169
 6787SOL     OW20902   3.846   0.643   6.149
 6787SOL    HW120903   3.801   0.555   6.166
 6787SOL    HW220904   3.845   0.697   6.233
 6788SOL     OW20905   3.751   1.596   5.703
 6788SOL    HW120906   3.732   1.500   5.724
 6788SOL    HW220907   3.718   1.654   5.778
 6789SOL     OW20908   3.837   0.737   7.183
 6789SOL    HW120909   3.925   0.724   7.228
 6789SOL    HW220910   3.824   0.834   7.161
 6790SOL     OW20911   3.800   0.811   6.375
 6790SOL    HW120912   3.899   0.799   6.384
 6790SOL    HW220913   3.776   0.906   6.396
 6791SOL     OW20914   3.854   1.821   7.157
 6791SOL    HW120915   3.844   1.806   7.256
 6791SOL    HW220916   3.768   1.857   7.121
 6792SOL     OW20917   3.926   0.285   7.084
 6792SOL    HW120918   3.846   0.345   7.071
 6792SOL    HW220919   3.916   0.236   7.170
 6793SOL     OW20920   3.802   0.556   6.972
 6793SOL    HW120921   3.894   0.555   6.931
 6793SOL    HW220922   3.796   0.630   7.039
 6794SOL     OW20923   4.251   0.256   5.914
 6794SOL    HW120924   4.278   0.197   5.839
 6794SOL    HW220925   4.251   0.351   5.883
 6795SOL     OW20926   3.788   1.564   6.917
 6795SOL    HW120927   3.742   1.646   6.883
 6795SOL    HW220928   3.886   1.583   6.926
 6796SOL     OW20929   4.091   1.100   6.087
 6796SOL    HW120930   4.084   1.183   6.031
 6796SOL    HW220931   4.095   1.020   6.027
 6797SOL     OW20932   4.031   0.213   6.817
 6797SOL    HW120933   4.008   0.250   6.907
 6797SOL    HW220934   4.001   0.118   6.811
 6798SOL     OW20935   3.761   1.310   6.868
 6798SOL    HW120936   3.814   1.261   6.936
 6798SOL    HW220937   3.783   1.408   6.873
 6799SOL     OW20938   3.732   1.326   5.786
 6799SOL    HW120939   3.639   1.347   5.755
 6799SOL    HW220940   3.742   1.227   5.799
 6800SOL     OW20941   3.812   1.801   6.513
 6800SOL    HW120942   3.770   1.715   6.486
 6800SOL    HW220943   3.906   1.804   6.479
 6801SOL     OW20944   4.228   1.568   6.496
 6801SOL    HW120945   4.294   1.642   6.505
 6801SOL    HW220946   4.272   1.489   6.454
 6802SOL     OW20947   3.764   0.544   6.700
 6802SOL    HW120948   3.849   0.511   6.659
 6802SOL    HW220949   3.777   0.559   6.798
 6803SOL     OW20950   3.913   0.520   7.308
 6803SOL    HW120951   3.972   0.480   7.238
 6803SOL    HW220952   3.855   0.591   7.267
 6804SOL     OW20953   3.976   1.564   7.330
 6804SOL    HW120954   3.946   1.621   7.406
 6804SOL    HW220955   3.969   1.467   7.356
 6805SOL     OW20956   3.883   1.137   7.052
 6805SOL    HW120957   3.905   1.076   7.128
 6805SOL    HW220958   3.893   1.088   6.966
 6806SOL     OW20959   3.807   1.258   6.608
 6806SOL    HW120960   3.802   1.257   6.708
 6806SOL    HW220961   3.724   1.217   6.570
 6807SOL     OW20962   3.854   1.794   7.437
 6807SOL    HW120963   3.813   1.720   7.490
 6807SOL    HW220964   3.918   1.845   7.495
 6808SOL     OW20965   3.799   0.345   5.619
 6808SOL    HW120966   3.707   0.317   5.590
 6808SOL    HW220967   3.830   0.422   5.563
 6809SOL     OW20968   3.796   0.166   5.904
 6809SOL    HW120969   3.779   0.249   5.850
 6809SOL    HW220970   3.886   0.129   5.882
 6810SOL     OW20971   3.803   1.240   6.239
 6810SOL    HW120972   3.802   1.193   6.327
 6810SOL    HW220973   3.885   1.212   6.188
 6811SOL     OW20974   3.763   1.077   5.886
 6811SOL    HW120975   3.862   1.066   5.877
 6811SOL    HW220976   3.723   0.991   5.918
 6812SOL     OW20977   3.954   0.628   7.561
 6812SOL    HW120978   3.861   0.626   7.598
 6812SOL    HW220979   3.955   0.589   7.469
 6813SOL     OW20980   3.949   0.275   8.444
 6813SOL    HW120981   3.984   0.258   8.536
 6813SOL    HW220982   3.861   0.230   8.432
 6814SOL     OW20983   3.743   0.368   8.095
 6814SOL    HW120984   3.661   0.411   8.134
 6814SOL    HW220985   3.715   0.295   8.032
 6815SOL     OW20986   4.059   1.435   8.509
 6815SOL    HW120987   3.981   1.404   8.456
 6815SOL    HW220988   4.117   1.493   8.452
 6816SOL     OW20989   3.955   1.713   7.931
 6816SOL    HW120990   3.989   1.790   7.985
 6816SOL    HW220991   3.999   1.713   7.841
 6817SOL     OW20992   3.954   1.434   7.986
 6817SOL    HW120993   3.928   1.530   7.986
 6817SOL    HW220994   3.883   1.380   8.031
 6818SOL     OW20995   3.846   0.643   8.011
 6818SOL    HW120996   3.801   0.555   8.028
 6818SOL    HW220997   3.845   0.697   8.095
 6819SOL     OW20998   3.751   1.596   7.565
 6819SOL    HW120999   3.732   1.500   7.586
 6819SOL    HW221000   3.718   1.654   7.640
 6820SOL     OW21001   3.837   0.737   9.045
 6820SOL    HW121002   3.925   0.724   9.090
 6820SOL    HW221003   3.824   0.834   9.023
 6821SOL     OW21004   3.800   0.811   8.237
 6821SOL    HW121005   3.899   0.799   8.246
 6821SOL    HW221006   3.776   0.906   8.258
 6822SOL     OW21007   3.854   1.821   9.019
 6822SOL    HW121008   3.844   1.806   9.118
 6822SOL    HW221009   3.768   1.857   8.983
 6823SOL     OW21010   3.926   0.285   8.946
 6823SOL    HW121011   3.846   0.345   8.933
 6823SOL    HW221012   3.916   0.236   9.032
 6824SOL     OW21013   3.802   0.556   8.834
 6824SOL    HW121014   3.894   0.555   8.793
 6824SOL    HW221015   3.796   0.630   8.901
 6825SOL     OW21016   4.251   0.256   7.776
 6825SOL    HW121017   4.278   0.197   7.701
 6825SOL    HW221018   4.251   0.351   7.745
 6826SOL     OW21019   3.788   1.564   8.779
 6826SOL    HW121020   3.742   1.646   8.745
 6826SOL    HW221021   3.886   1.583   8.788
 6827SOL     OW21022   4.091   1.100   7.949
 6827SOL    HW121023   4.084   1.183   7.893
 6827SOL    HW221024   4.095   1.020   7.889
 6828SOL     OW21025   4.031   0.213   8.679
 6828SOL    HW121026   4.008   0.250   8.769
 6828SOL    HW221027   4.001   0.118   8.673
 6829SOL     OW21028   3.761   1.310   8.730
 6829SOL    HW121029   3.814   1.261   8.798
 6829SOL    HW221030   3.783   1.408   8.735
 6830SOL     OW21031   3.732   1.326   7.648
 6830SOL    HW121032   3.639   1.347   7.617
 6830SOL    HW221033   3.742   1.227   7.661
 6831SOL     OW21034   3.812   1.801   8.375
 6831SOL    HW121035   3.770   1.715   8.348
 6831SOL    HW221036   3.906   1.804   8.341
 6832SOL     OW21037   4.228   1.568   8.358
 6832SOL    HW121038   4.294   1.642   8.367
 6832SOL    HW221039   4.272   1.489   8.316
 6833SOL     OW21040   3.764   0.544   8.562
 6833SOL    HW121041   3.849   0.511   8.521
 6833SOL    HW221042   3.777   0.559   8.660
 6834SOL     OW21043   3.913   0.520   9.170
 6834SOL    HW121044   3.972   0.480   9.100
 6834SOL    HW221045   3.855   0.591   9.129
 6835SOL     OW21046   3.976   1.564   9.192
 6835SOL    HW121047   3.946   1.621   9.268
 6835SOL    HW221048   3.969   1.467   9.218
 6836SOL     OW21049   3.883   1.137   8.914
 6836SOL    HW121050   3.905   1.076   8.990
 6836SOL    HW221051   3.893   1.088   8.828
 6837SOL     OW21052   3.807   1.258   8.470
 6837SOL    HW121053   3.802   1.257   8.570
 6837SOL    HW221054   3.724   1.217   8.432
 6838SOL     OW21055   3.854   1.794   9.299
 6838SOL    HW121056   3.813   1.720   9.352
 6838SOL    HW221057   3.918   1.845   9.357
 6839SOL     OW21058   3.799   0.345   7.481
 6839SOL    HW121059   3.707   0.317   7.452
 6839SOL    HW221060   3.830   0.422   7.425
 6840SOL     OW21061   3.796   0.166   7.766
 6840SOL    HW121062   3.779   0.249   7.712
 6840SOL    HW221063   3.886   0.129   7.744
 6841SOL     OW21064   3.803   1.240   8.101
 6841SOL    HW121065   3.802   1.193   8.189
 6841SOL    HW221066   3.885   1.212   8.050
 6842SOL     OW21067   3.763   1.077   7.748
 6842SOL    HW121068   3.862   1.066   7.739
 6842SOL    HW221069   3.723   0.991   7.780
 6843SOL     OW21070   3.954   0.628   9.423
 6843SOL    HW121071   3.861   0.626   9.460
 6843SOL    HW221072   3.955   0.589   9.331
 6844SOL     OW21073   3.949   0.275  10.306
 6844SOL    HW121074   3.984   0.258  10.398
 6844SOL    HW221075   3.861   0.230  10.294
 6845SOL     OW21076   3.743   0.368   9.957
 6845SOL    HW121077   3.661   0.411   9.996
 6845SOL    HW221078   3.715   0.295   9.894
 6846SOL     OW21079   4.059   1.435  10.371
 6846SOL    HW121080   3.981   1.404  10.318
 6846SOL    HW221081   4.117   1.493  10.314
 6847SOL     OW21082   3.955   1.713   9.793
 6847SOL    HW121083   3.989   1.790   9.847
 6847SOL    HW221084   3.999   1.713   9.703
 6848SOL     OW21085   3.954   1.434   9.848
 6848SOL    HW121086   3.928   1.530   9.848
 6848SOL    HW221087   3.883   1.380   9.893
 6849SOL     OW21088   3.846   0.643   9.873
 6849SOL    HW121089   3.801   0.555   9.890
 6849SOL    HW221090   3.845   0.697   9.957
 6850SOL     OW21091   3.751   1.596   9.427
 6850SOL    HW121092   3.732   1.500   9.448
 6850SOL    HW221093   3.718   1.654   9.502
 6851SOL     OW21094   3.837   0.737  10.907
 6851SOL    HW121095   3.925   0.724  10.952
 6851SOL    HW221096   3.824   0.834  10.885
 6852SOL     OW21097   3.800   0.811  10.099
 6852SOL    HW121098   3.899   0.799  10.108
 6852SOL    HW221099   3.776   0.906  10.120
 6853SOL     OW21100   3.854   1.821  10.881
 6853SOL    HW121101   3.844   1.806  10.980
 6853SOL    HW221102   3.768   1.857  10.845
 6854SOL     OW21103   3.926   0.285  10.808
 6854SOL    HW121104   3.846   0.345  10.795
 6854SOL    HW221105   3.916   0.236  10.894
 6855SOL     OW21106   3.802   0.556  10.696
 6855SOL    HW121107   3.894   0.555  10.655
 6855SOL    HW221108   3.796   0.630  10.763
 6856SOL     OW21109   4.251   0.256   9.638
 6856SOL    HW121110   4.278   0.197   9.563
 6856SOL    HW221111   4.251   0.351   9.607
 6857SOL     OW21112   3.788   1.564  10.641
 6857SOL    HW121113   3.742   1.646  10.607
 6857SOL    HW221114   3.886   1.583  10.650
 6858SOL     OW21115   4.091   1.100   9.811
 6858SOL    HW121116   4.084   1.183   9.755
 6858SOL    HW221117   4.095   1.020   9.751
 6859SOL     OW21118   4.031   0.213  10.541
 6859SOL    HW121119   4.008   0.250  10.631
 6859SOL    HW221120   4.001   0.118  10.535
 6860SOL     OW21121   3.761   1.310  10.592
 6860SOL    HW121122   3.814   1.261  10.660
 6860SOL    HW221123   3.783   1.408  10.597
 6861SOL     OW21124   3.732   1.326   9.510
 6861SOL    HW121125   3.639   1.347   9.479
 6861SOL    HW221126   3.742   1.227   9.523
 6862SOL     OW21127   3.812   1.801  10.237
 6862SOL    HW121128   3.770   1.715  10.210
 6862SOL    HW221129   3.906   1.804  10.203
 6863SOL     OW21130   4.228   1.568  10.220
 6863SOL    HW121131   4.294   1.642  10.229
 6863SOL    HW221132   4.272   1.489  10.178
 6864SOL     OW21133   3.764   0.544  10.424
 6864SOL    HW121134   3.849   0.511  10.383
 6864SOL    HW221135   3.777   0.559  10.522
 6865SOL     OW21136   3.913   0.520  11.032
 6865SOL    HW121137   3.972   0.480  10.962
 6865SOL    HW221138   3.855   0.591  10.991
 6866SOL     OW21139   3.976   1.564  11.054
 6866SOL    HW121140   3.946   1.621  11.130
 6866SOL    HW221141   3.969   1.467  11.080
 6867SOL     OW21142   3.883   1.137  10.776
 6867SOL    HW121143   3.905   1.076  10.852
 6867SOL    HW221144   3.893   1.088  10.690
 6868SOL     OW21145   3.807   1.258  10.332
 6868SOL    HW121146   3.802   1.257  10.432
 6868SOL    HW221147   3.724   1.217  10.294
 6869SOL     OW21148   3.854   1.794  11.161
 6869SOL    HW121149   3.813   1.720  11.214
 6869SOL    HW221150   3.918   1.845  11.219
 6870SOL     OW21151   3.799   0.345   9.343
 6870SOL    HW121152   3.707   0.317   9.314
 6870SOL    HW221153   3.830   0.422   9.287
 6871SOL     OW21154   3.796   0.166   9.628
 6871SOL    HW121155   3.779   0.249   9.574
 6871SOL    HW221156   3.886   0.129   9.606
 6872SOL     OW21157   3.803   1.240   9.963
 6872SOL    HW121158   3.802   1.193  10.051
 6872SOL    HW221159   3.885   1.212   9.912
 6873SOL     OW21160   3.763   1.077   9.610
 6873SOL    HW121161   3.862   1.066   9.601
 6873SOL    HW221162   3.723   0.991   9.642
 6874SOL     OW21163   3.954   0.628  11.285
 6874SOL    HW121164   3.861   0.626  11.322
 6874SOL    HW221165   3.955   0.589  11.193
 6875SOL     OW21166   3.949   0.275  12.168
 6875SOL    HW121167   3.984   0.258  12.260
 6875SOL    HW221168   3.861   0.230  12.156
 6876SOL     OW21169   3.743   0.368  11.819
 6876SOL    HW121170   3.661   0.411  11.858
 6876SOL    HW221171   3.715   0.295  11.756
 6877SOL     OW21172   4.059   1.435  12.233
 6877SOL    HW121173   3.981   1.404  12.180
 6877SOL    HW221174   4.117   1.493  12.176
 6878SOL     OW21175   3.955   1.713  11.655
 6878SOL    HW121176   3.989   1.790  11.709
 6878SOL    HW221177   3.999   1.713  11.565
 6879SOL     OW21178   3.954   1.434  11.710
 6879SOL    HW121179   3.928   1.530  11.710
 6879SOL    HW221180   3.883   1.380  11.755
 6880SOL     OW21181   3.846   0.643  11.735
 6880SOL    HW121182   3.801   0.555  11.752
 6880SOL    HW221183   3.845   0.697  11.819
 6881SOL     OW21184   3.751   1.596  11.289
 6881SOL    HW121185   3.732   1.500  11.310
 6881SOL    HW221186   3.718   1.654  11.364
 6882SOL     OW21187   3.837   0.737  12.769
 6882SOL    HW121188   3.925   0.724  12.814
 6882SOL    HW221189   3.824   0.834  12.747
 6883SOL     OW21190   3.800   0.811  11.961
 6883SOL    HW121191   3.899   0.799  11.970
 6883SOL    HW221192   3.776   0.906  11.982
 6884SOL     OW21193   3.854   1.821  12.743
 6884SOL    HW121194   3.844   1.806  12.842
 6884SOL    HW221195   3.768   1.857  12.707
 6885SOL     OW21196   3.926   0.285  12.670
 6885SOL    HW121197   3.846   0.345  12.657
 6885SOL    HW221198   3.916   0.236  12.756
 6886SOL     OW21199   3.802   0.556  12.558
 6886SOL    HW121200   3.894   0.555  12.517
 6886SOL    HW221201   3.796   0.630  12.625
 6887SOL     OW21202   4.251   0.256  11.500
 6887SOL    HW121203   4.278   0.197  11.425
 6887SOL    HW221204   4.251   0.351  11.469
 6888SOL     OW21205   3.788   1.564  12.503
 6888SOL    HW121206   3.742   1.646  12.469
 6888SOL    HW221207   3.886   1.583  12.512
 6889SOL     OW21208   4.091   1.100  11.673
 6889SOL    HW121209   4.084   1.183  11.617
 6889SOL    HW221210   4.095   1.020  11.613
 6890SOL     OW21211   4.031   0.213  12.403
 6890SOL    HW121212   4.008   0.250  12.493
 6890SOL    HW221213   4.001   0.118  12.397
 6891SOL     OW21214   3.761   1.310  12.454
 6891SOL    HW121215   3.814   1.261  12.522
 6891SOL    HW221216   3.783   1.408  12.459
 6892SOL     OW21217   3.732   1.326  11.372
 6892SOL    HW121218   3.639   1.347  11.341
 6892SOL    HW221219   3.742   1.227  11.385
 6893SOL     OW21220   3.812   1.801  12.099
 6893SOL    HW121221   3.770   1.715  12.072
 6893SOL    HW221222   3.906   1.804  12.065
 6894SOL     OW21223   4.228   1.568  12.082
 6894SOL    HW121224   4.294   1.642  12.091
 6894SOL    HW221225   4.272   1.489  12.040
 6895SOL     OW21226   3.764   0.544  12.286
 6895SOL    HW121227   3.849   0.511  12.245
 6895SOL    HW221228   3.777   0.559  12.384
 6896SOL     OW21229   3.913   0.520  12.894
 6896SOL    HW121230   3.972   0.480  12.824
 6896SOL    HW221231   3.855   0.591  12.853
 6897SOL     OW21232   3.976   1.564  12.916
 6897SOL    HW121233   3.946   1.621  12.992
 6897SOL    HW221234   3.969   1.467  12.942
 6898SOL     OW21235   3.883   1.137  12.638
 6898SOL    HW121236   3.905   1.076  12.714
 6898SOL    HW221237   3.893   1.088  12.552
 6899SOL     OW21238   3.807   1.258  12.194
 6899SOL    HW121239   3.802   1.257  12.294
 6899SOL    HW221240   3.724   1.217  12.156
 6900SOL     OW21241   3.854   1.794  13.023
 6900SOL    HW121242   3.813   1.720  13.076
 6900SOL    HW221243   3.918   1.845  13.081
 6901SOL     OW21244   3.799   0.345  11.205
 6901SOL    HW121245   3.707   0.317  11.176
 6901SOL    HW221246   3.830   0.422  11.149
 6902SOL     OW21247   3.796   0.166  11.490
 6902SOL    HW121248   3.779   0.249  11.436
 6902SOL    HW221249   3.886   0.129  11.468
 6903SOL     OW21250   3.803   1.240  11.825
 6903SOL    HW121251   3.802   1.193  11.913
 6903SOL    HW221252   3.885   1.212  11.774
 6904SOL     OW21253   3.763   1.077  11.472
 6904SOL    HW121254   3.862   1.066  11.463
 6904SOL    HW221255   3.723   0.991  11.504
 6905SOL     OW21256   3.954   0.628  13.147
 6905SOL    HW121257   3.861   0.626  13.184
 6905SOL    HW221258   3.955   0.589  13.055
 6906SOL     OW21259   3.743   0.368  13.681
 6906SOL    HW121260   3.661   0.411  13.720
 6906SOL    HW221261   3.715   0.295  13.618
 6907SOL     OW21262   3.955   1.713  13.517
 6907SOL    HW121263   3.989   1.790  13.571
 6907SOL    HW221264   3.999   1.713  13.427
 6908SOL     OW21265   3.954   1.434  13.572
 6908SOL    HW121266   3.928   1.530  13.572
 6908SOL    HW221267   3.883   1.380  13.617
 6909SOL     OW21268   3.964   1.091  13.920
 6909SOL    HW121269   3.978   1.007  13.972
 6909SOL    HW221270   3.909   1.155  13.975
 6910SOL     OW21271   3.846   0.643  13.597
 6910SOL    HW121272   3.801   0.555  13.614
 6910SOL    HW221273   3.845   0.697  13.681
 6911SOL     OW21274   3.751   1.596  13.151
 6911SOL    HW121275   3.732   1.500  13.172
 6911SOL    HW221276   3.718   1.654  13.226
 6912SOL     OW21277   3.800   0.811  13.823
 6912SOL    HW121278   3.899   0.799  13.832
 6912SOL    HW221279   3.776   0.906  13.844
 6913SOL     OW21280   4.075   1.801  13.887
 6913SOL    HW121281   4.125   1.715  13.893
 6913SOL    HW221282   4.140   1.878  13.884
 6914SOL     OW21283   4.251   0.256  13.362
 6914SOL    HW121284   4.278   0.197  13.287
 6914SOL    HW221285   4.251   0.351  13.331
 6915SOL     OW21286   4.091   1.100  13.535
 6915SOL    HW121287   4.084   1.183  13.479
 6915SOL    HW221288   4.095   1.020  13.475
 6916SOL     OW21289   3.732   1.326  13.234
 6916SOL    HW121290   3.639   1.347  13.203
 6916SOL    HW221291   3.742   1.227  13.247
 6917SOL     OW21292   4.228   1.568  13.944
 6917SOL    HW121293   4.294   1.642  13.953
 6917SOL    HW221294   4.272   1.489  13.902
 6918SOL     OW21295   3.799   0.345  13.067
 6918SOL    HW121296   3.707   0.317  13.038
 6918SOL    HW221297   3.830   0.422  13.011
 6919SOL     OW21298   3.796   0.166  13.352
 6919SOL    HW121299   3.779   0.249  13.298
 6919SOL    HW221300   3.886   0.129  13.330
 6920SOL     OW21301   3.803   1.240  13.687
 6920SOL    HW121302   3.802   1.193  13.775
 6920SOL    HW221303   3.885   1.212  13.636
 6921SOL     OW21304   3.763   1.077  13.334
 6921SOL    HW121305   3.862   1.066  13.325
 6921SOL    HW221306   3.723   0.991  13.366
 6922SOL     OW21307   3.954   2.490   0.113
 6922SOL    HW121308   3.861   2.488   0.150
 6922SOL    HW221309   3.955   2.451   0.021
 6923SOL     OW21310   3.949   2.137   0.996
 6923SOL    HW121311   3.984   2.120   1.088
 6923SOL    HW221312   3.861   2.092   0.984
 6924SOL     OW21313   3.743   2.230   0.647
 6924SOL    HW121314   3.661   2.273   0.686
 6924SOL    HW221315   3.715   2.157   0.584
 6925SOL     OW21316   4.059   3.297   1.061
 6925SOL    HW121317   3.981   3.266   1.008
 6925SOL    HW221318   4.117   3.355   1.004
 6926SOL     OW21319   3.955   3.575   0.483
 6926SOL    HW121320   3.989   3.652   0.537
 6926SOL    HW221321   3.999   3.575   0.393
 6927SOL     OW21322   3.954   3.296   0.538
 6927SOL    HW121323   3.928   3.392   0.538
 6927SOL    HW221324   3.883   3.242   0.583
 6928SOL     OW21325   3.846   2.505   0.563
 6928SOL    HW121326   3.801   2.417   0.580
 6928SOL    HW221327   3.845   2.559   0.647
 6929SOL     OW21328   3.751   3.458   0.117
 6929SOL    HW121329   3.732   3.362   0.138
 6929SOL    HW221330   3.718   3.516   0.192
 6930SOL     OW21331   3.837   2.599   1.597
 6930SOL    HW121332   3.925   2.586   1.642
 6930SOL    HW221333   3.824   2.696   1.575
 6931SOL     OW21334   3.800   2.673   0.789
 6931SOL    HW121335   3.899   2.661   0.798
 6931SOL    HW221336   3.776   2.768   0.810
 6932SOL     OW21337   3.854   3.683   1.571
 6932SOL    HW121338   3.844   3.668   1.670
 6932SOL    HW221339   3.768   3.719   1.535
 6933SOL     OW21340   3.926   2.147   1.498
 6933SOL    HW121341   3.846   2.207   1.485
 6933SOL    HW221342   3.916   2.098   1.584
 6934SOL     OW21343   3.802   2.418   1.386
 6934SOL    HW121344   3.894   2.417   1.345
 6934SOL    HW221345   3.796   2.492   1.453
 6935SOL     OW21346   3.788   3.426   1.331
 6935SOL    HW121347   3.742   3.508   1.297
 6935SOL    HW221348   3.886   3.445   1.340
 6936SOL     OW21349   4.091   2.962   0.501
 6936SOL    HW121350   4.084   3.045   0.445
 6936SOL    HW221351   4.095   2.882   0.441
 6937SOL     OW21352   4.031   2.075   1.231
 6937SOL    HW121353   4.008   2.112   1.321
 6937SOL    HW221354   4.001   1.980   1.225
 6938SOL     OW21355   3.761   3.172   1.282
 6938SOL    HW121356   3.814   3.123   1.350
 6938SOL    HW221357   3.783   3.270   1.287
 6939SOL     OW21358   4.031   1.925   0.618
 6939SOL    HW121359   4.020   2.019   0.651
 6939SOL    HW221360   4.026   1.862   0.695
 6940SOL     OW21361   3.732   3.188   0.200
 6940SOL    HW121362   3.639   3.209   0.169
 6940SOL    HW221363   3.742   3.089   0.213
 6941SOL     OW21364   3.812   3.663   0.927
 6941SOL    HW121365   3.770   3.577   0.900
 6941SOL    HW221366   3.906   3.666   0.893
 6942SOL     OW21367   4.228   3.430   0.910
 6942SOL    HW121368   4.294   3.504   0.919
 6942SOL    HW221369   4.272   3.351   0.868
 6943SOL     OW21370   3.764   2.406   1.114
 6943SOL    HW121371   3.849   2.373   1.073
 6943SOL    HW221372   3.777   2.421   1.212
 6944SOL     OW21373   3.913   2.382   1.722
 6944SOL    HW121374   3.972   2.342   1.652
 6944SOL    HW221375   3.855   2.453   1.681
 6945SOL     OW21376   3.976   3.426   1.744
 6945SOL    HW121377   3.946   3.483   1.820
 6945SOL    HW221378   3.969   3.329   1.770
 6946SOL     OW21379   3.883   2.999   1.466
 6946SOL    HW121380   3.905   2.938   1.542
 6946SOL    HW221381   3.893   2.950   1.380
 6947SOL     OW21382   3.807   3.120   1.022
 6947SOL    HW121383   3.802   3.119   1.122
 6947SOL    HW221384   3.724   3.079   0.984
 6948SOL     OW21385   3.854   3.656   1.851
 6948SOL    HW121386   3.813   3.582   1.904
 6948SOL    HW221387   3.918   3.707   1.909
 6949SOL     OW21388   3.799   2.207   0.033
 6949SOL    HW121389   3.707   2.179   0.004
 6949SOL    HW221390   3.830   2.284  -0.023
 6950SOL     OW21391   3.796   2.028   0.318
 6950SOL    HW121392   3.779   2.111   0.264
 6950SOL    HW221393   3.886   1.991   0.296
 6951SOL     OW21394   3.803   3.102   0.653
 6951SOL    HW121395   3.802   3.055   0.741
 6951SOL    HW221396   3.885   3.074   0.602
 6952SOL     OW21397   3.763   2.939   0.300
 6952SOL    HW121398   3.862   2.928   0.291
 6952SOL    HW221399   3.723   2.853   0.332
 6953SOL     OW21400   3.954   2.490   1.975
 6953SOL    HW121401   3.861   2.488   2.012
 6953SOL    HW221402   3.955   2.451   1.883
 6954SOL     OW21403   3.949   2.137   2.858
 6954SOL    HW121404   3.984   2.120   2.950
 6954SOL    HW221405   3.861   2.092   2.846
 6955SOL     OW21406   3.743   2.230   2.509
 6955SOL    HW121407   3.661   2.273   2.548
 6955SOL    HW221408   3.715   2.157   2.446
 6956SOL     OW21409   4.059   3.297   2.923
 6956SOL    HW121410   3.981   3.266   2.870
 6956SOL    HW221411   4.117   3.355   2.866
 6957SOL     OW21412   3.955   3.575   2.345
 6957SOL    HW121413   3.989   3.652   2.399
 6957SOL    HW221414   3.999   3.575   2.255
 6958SOL     OW21415   3.954   3.296   2.400
 6958SOL    HW121416   3.928   3.392   2.400
 6958SOL    HW221417   3.883   3.242   2.445
 6959SOL     OW21418   3.846   2.505   2.425
 6959SOL    HW121419   3.801   2.417   2.442
 6959SOL    HW221420   3.845   2.559   2.509
 6960SOL     OW21421   3.751   3.458   1.979
 6960SOL    HW121422   3.732   3.362   2.000
 6960SOL    HW221423   3.718   3.516   2.054
 6961SOL     OW21424   3.837   2.599   3.459
 6961SOL    HW121425   3.925   2.586   3.504
 6961SOL    HW221426   3.824   2.696   3.437
 6962SOL     OW21427   3.800   2.673   2.651
 6962SOL    HW121428   3.899   2.661   2.660
 6962SOL    HW221429   3.776   2.768   2.672
 6963SOL     OW21430   3.854   3.683   3.433
 6963SOL    HW121431   3.844   3.668   3.532
 6963SOL    HW221432   3.768   3.719   3.397
 6964SOL     OW21433   3.926   2.147   3.360
 6964SOL    HW121434   3.846   2.207   3.347
 6964SOL    HW221435   3.916   2.098   3.446
 6965SOL     OW21436   4.021   1.897   2.033
 6965SOL    HW121437   4.070   1.981   2.012
 6965SOL    HW221438   4.083   1.832   2.078
 6966SOL     OW21439   3.802   2.418   3.248
 6966SOL    HW121440   3.894   2.417   3.207
 6966SOL    HW221441   3.796   2.492   3.315
 6967SOL     OW21442   4.251   2.118   2.190
 6967SOL    HW121443   4.278   2.059   2.115
 6967SOL    HW221444   4.251   2.213   2.159
 6968SOL     OW21445   3.788   3.426   3.193
 6968SOL    HW121446   3.742   3.508   3.159
 6968SOL    HW221447   3.886   3.445   3.202
 6969SOL     OW21448   4.091   2.962   2.363
 6969SOL    HW121449   4.084   3.045   2.307
 6969SOL    HW221450   4.095   2.882   2.303
 6970SOL     OW21451   4.031   2.075   3.093
 6970SOL    HW121452   4.008   2.112   3.183
 6970SOL    HW221453   4.001   1.980   3.087
 6971SOL     OW21454   3.761   3.172   3.144
 6971SOL    HW121455   3.814   3.123   3.212
 6971SOL    HW221456   3.783   3.270   3.149
 6972SOL     OW21457   4.031   1.925   2.480
 6972SOL    HW121458   4.020   2.019   2.513
 6972SOL    HW221459   4.026   1.862   2.557
 6973SOL     OW21460   3.732   3.188   2.062
 6973SOL    HW121461   3.639   3.209   2.031
 6973SOL    HW221462   3.742   3.089   2.075
 6974SOL     OW21463   3.812   3.663   2.789
 6974SOL    HW121464   3.770   3.577   2.762
 6974SOL    HW221465   3.906   3.666   2.755
 6975SOL     OW21466   4.228   3.430   2.772
 6975SOL    HW121467   4.294   3.504   2.781
 6975SOL    HW221468   4.272   3.351   2.730
 6976SOL     OW21469   3.764   2.406   2.976
 6976SOL    HW121470   3.849   2.373   2.935
 6976SOL    HW221471   3.777   2.421   3.074
 6977SOL     OW21472   3.913   2.382   3.584
 6977SOL    HW121473   3.972   2.342   3.514
 6977SOL    HW221474   3.855   2.453   3.543
 6978SOL     OW21475   3.976   3.426   3.606
 6978SOL    HW121476   3.946   3.483   3.682
 6978SOL    HW221477   3.969   3.329   3.632
 6979SOL     OW21478   3.883   2.999   3.328
 6979SOL    HW121479   3.905   2.938   3.404
 6979SOL    HW221480   3.893   2.950   3.242
 6980SOL     OW21481   3.807   3.120   2.884
 6980SOL    HW121482   3.802   3.119   2.984
 6980SOL    HW221483   3.724   3.079   2.846
 6981SOL     OW21484   3.854   3.656   3.713
 6981SOL    HW121485   3.813   3.582   3.766
 6981SOL    HW221486   3.918   3.707   3.771
 6982SOL     OW21487   3.799   2.207   1.895
 6982SOL    HW121488   3.707   2.179   1.866
 6982SOL    HW221489   3.830   2.284   1.839
 6983SOL     OW21490   3.796   2.028   2.180
 6983SOL    HW121491   3.779   2.111   2.126
 6983SOL    HW221492   3.886   1.991   2.158
 6984SOL     OW21493   3.803   3.102   2.515
 6984SOL    HW121494   3.802   3.055   2.603
 6984SOL    HW221495   3.885   3.074   2.464
 6985SOL     OW21496   3.763   2.939   2.162
 6985SOL    HW121497   3.862   2.928   2.153
 6985SOL    HW221498   3.723   2.853   2.194
 6986SOL     OW21499   3.954   2.490   3.837
 6986SOL    HW121500   3.861   2.488   3.874
 6986SOL    HW221501   3.955   2.451   3.745
 6987SOL     OW21502   3.949   2.137   4.720
 6987SOL    HW121503   3.984   2.120   4.812
 6987SOL    HW221504   3.861   2.092   4.708
 6988SOL     OW21505   3.743   2.230   4.371
 6988SOL    HW121506   3.661   2.273   4.410
 6988SOL    HW221507   3.715   2.157   4.308
 6989SOL     OW21508   4.059   3.297   4.785
 6989SOL    HW121509   3.981   3.266   4.732
 6989SOL    HW221510   4.117   3.355   4.728
 6990SOL     OW21511   3.955   3.575   4.207
 6990SOL    HW121512   3.989   3.652   4.261
 6990SOL    HW221513   3.999   3.575   4.117
 6991SOL     OW21514   3.954   3.296   4.262
 6991SOL    HW121515   3.928   3.392   4.262
 6991SOL    HW221516   3.883   3.242   4.307
 6992SOL     OW21517   3.846   2.505   4.287
 6992SOL    HW121518   3.801   2.417   4.304
 6992SOL    HW221519   3.845   2.559   4.371
 6993SOL     OW21520   3.751   3.458   3.841
 6993SOL    HW121521   3.732   3.362   3.862
 6993SOL    HW221522   3.718   3.516   3.916
 6994SOL     OW21523   3.837   2.599   5.321
 6994SOL    HW121524   3.925   2.586   5.366
 6994SOL    HW221525   3.824   2.696   5.299
 6995SOL     OW21526   3.800   2.673   4.513
 6995SOL    HW121527   3.899   2.661   4.522
 6995SOL    HW221528   3.776   2.768   4.534
 6996SOL     OW21529   3.854   3.683   5.295
 6996SOL    HW121530   3.844   3.668   5.394
 6996SOL    HW221531   3.768   3.719   5.259
 6997SOL     OW21532   3.926   2.147   5.222
 6997SOL    HW121533   3.846   2.207   5.209
 6997SOL    HW221534   3.916   2.098   5.308
 6998SOL     OW21535   4.021   1.897   3.895
 6998SOL    HW121536   4.070   1.981   3.874
 6998SOL    HW221537   4.083   1.832   3.940
 6999SOL     OW21538   3.802   2.418   5.110
 6999SOL    HW121539   3.894   2.417   5.069
 6999SOL    HW221540   3.796   2.492   5.177
 7000SOL     OW21541   4.251   2.118   4.052
 7000SOL    HW121542   4.278   2.059   3.977
 7000SOL    HW221543   4.251   2.213   4.021
 7001SOL     OW21544   3.788   3.426   5.055
 7001SOL    HW121545   3.742   3.508   5.021
 7001SOL    HW221546   3.886   3.445   5.064
 7002SOL     OW21547   4.091   2.962   4.225
 7002SOL    HW121548   4.084   3.045   4.169
 7002SOL    HW221549   4.095   2.882   4.165
 7003SOL     OW21550   4.031   2.075   4.955
 7003SOL    HW121551   4.008   2.112   5.045
 7003SOL    HW221552   4.001   1.980   4.949
 7004SOL     OW21553   3.761   3.172   5.006
 7004SOL    HW121554   3.814   3.123   5.074
 7004SOL    HW221555   3.783   3.270   5.011
 7005SOL     OW21556   4.031   1.925   4.342
 7005SOL    HW121557   4.020   2.019   4.375
 7005SOL    HW221558   4.026   1.862   4.419
 7006SOL     OW21559   3.732   3.188   3.924
 7006SOL    HW121560   3.639   3.209   3.893
 7006SOL    HW221561   3.742   3.089   3.937
 7007SOL     OW21562   3.812   3.663   4.651
 7007SOL    HW121563   3.770   3.577   4.624
 7007SOL    HW221564   3.906   3.666   4.617
 7008SOL     OW21565   4.228   3.430   4.634
 7008SOL    HW121566   4.294   3.504   4.643
 7008SOL    HW221567   4.272   3.351   4.592
 7009SOL     OW21568   3.764   2.406   4.838
 7009SOL    HW121569   3.849   2.373   4.797
 7009SOL    HW221570   3.777   2.421   4.936
 7010SOL     OW21571   3.913   2.382   5.446
 7010SOL    HW121572   3.972   2.342   5.376
 7010SOL    HW221573   3.855   2.453   5.405
 7011SOL     OW21574   3.976   3.426   5.468
 7011SOL    HW121575   3.946   3.483   5.544
 7011SOL    HW221576   3.969   3.329   5.494
 7012SOL     OW21577   3.883   2.999   5.190
 7012SOL    HW121578   3.905   2.938   5.266
 7012SOL    HW221579   3.893   2.950   5.104
 7013SOL     OW21580   3.807   3.120   4.746
 7013SOL    HW121581   3.802   3.119   4.846
 7013SOL    HW221582   3.724   3.079   4.708
 7014SOL     OW21583   3.854   3.656   5.575
 7014SOL    HW121584   3.813   3.582   5.628
 7014SOL    HW221585   3.918   3.707   5.633
 7015SOL     OW21586   3.799   2.207   3.757
 7015SOL    HW121587   3.707   2.179   3.728
 7015SOL    HW221588   3.830   2.284   3.701
 7016SOL     OW21589   3.796   2.028   4.042
 7016SOL    HW121590   3.779   2.111   3.988
 7016SOL    HW221591   3.886   1.991   4.020
 7017SOL     OW21592   3.803   3.102   4.377
 7017SOL    HW121593   3.802   3.055   4.465
 7017SOL    HW221594   3.885   3.074   4.326
 7018SOL     OW21595   3.763   2.939   4.024
 7018SOL    HW121596   3.862   2.928   4.015
 7018SOL    HW221597   3.723   2.853   4.056
 7019SOL     OW21598   3.954   2.490   5.699
 7019SOL    HW121599   3.861   2.488   5.736
 7019SOL    HW221600   3.955   2.451   5.607
 7020SOL     OW21601   3.949   2.137   6.582
 7020SOL    HW121602   3.984   2.120   6.674
 7020SOL    HW221603   3.861   2.092   6.570
 7021SOL     OW21604   3.743   2.230   6.233
 7021SOL    HW121605   3.661   2.273   6.272
 7021SOL    HW221606   3.715   2.157   6.170
 7022SOL     OW21607   4.059   3.297   6.647
 7022SOL    HW121608   3.981   3.266   6.594
 7022SOL    HW221609   4.117   3.355   6.590
 7023SOL     OW21610   3.955   3.575   6.069
 7023SOL    HW121611   3.989   3.652   6.123
 7023SOL    HW221612   3.999   3.575   5.979
 7024SOL     OW21613   3.954   3.296   6.124
 7024SOL    HW121614   3.928   3.392   6.124
 7024SOL    HW221615   3.883   3.242   6.169
 7025SOL     OW21616   3.846   2.505   6.149
 7025SOL    HW121617   3.801   2.417   6.166
 7025SOL    HW221618   3.845   2.559   6.233
 7026SOL     OW21619   3.751   3.458   5.703
 7026SOL    HW121620   3.732   3.362   5.724
 7026SOL    HW221621   3.718   3.516   5.778
 7027SOL     OW21622   3.837   2.599   7.183
 7027SOL    HW121623   3.925   2.586   7.228
 7027SOL    HW221624   3.824   2.696   7.161
 7028SOL     OW21625   3.800   2.673   6.375
 7028SOL    HW121626   3.899   2.661   6.384
 7028SOL    HW221627   3.776   2.768   6.396
 7029SOL     OW21628   3.854   3.683   7.157
 7029SOL    HW121629   3.844   3.668   7.256
 7029SOL    HW221630   3.768   3.719   7.121
 7030SOL     OW21631   3.926   2.147   7.084
 7030SOL    HW121632   3.846   2.207   7.071
 7030SOL    HW221633   3.916   2.098   7.170
 7031SOL     OW21634   4.021   1.897   5.757
 7031SOL    HW121635   4.070   1.981   5.736
 7031SOL    HW221636   4.083   1.832   5.802
 7032SOL     OW21637   3.802   2.418   6.972
 7032SOL    HW121638   3.894   2.417   6.931
 7032SOL    HW221639   3.796   2.492   7.039
 7033SOL     OW21640   4.251   2.118   5.914
 7033SOL    HW121641   4.278   2.059   5.839
 7033SOL    HW221642   4.251   2.213   5.883
 7034SOL     OW21643   3.788   3.426   6.917
 7034SOL    HW121644   3.742   3.508   6.883
 7034SOL    HW221645   3.886   3.445   6.926
 7035SOL     OW21646   4.091   2.962   6.087
 7035SOL    HW121647   4.084   3.045   6.031
 7035SOL    HW221648   4.095   2.882   6.027
 7036SOL     OW21649   4.031   2.075   6.817
 7036SOL    HW121650   4.008   2.112   6.907
 7036SOL    HW221651   4.001   1.980   6.811
 7037SOL     OW21652   3.761   3.172   6.868
 7037SOL    HW121653   3.814   3.123   6.936
 7037SOL    HW221654   3.783   3.270   6.873
 7038SOL     OW21655   4.031   1.925   6.204
 7038SOL    HW121656   4.020   2.019   6.237
 7038SOL    HW221657   4.026   1.862   6.281
 7039SOL     OW21658   3.732   3.188   5.786
 7039SOL    HW121659   3.639   3.209   5.755
 7039SOL    HW221660   3.742   3.089   5.799
 7040SOL     OW21661   3.812   3.663   6.513
 7040SOL    HW121662   3.770   3.577   6.486
 7040SOL    HW221663   3.906   3.666   6.479
 7041SOL     OW21664   4.228   3.430   6.496
 7041SOL    HW121665   4.294   3.504   6.505
 7041SOL    HW221666   4.272   3.351   6.454
 7042SOL     OW21667   3.764   2.406   6.700
 7042SOL    HW121668   3.849   2.373   6.659
 7042SOL    HW221669   3.777   2.421   6.798
 7043SOL     OW21670   3.913   2.382   7.308
 7043SOL    HW121671   3.972   2.342   7.238
 7043SOL    HW221672   3.855   2.453   7.267
 7044SOL     OW21673   3.976   3.426   7.330
 7044SOL    HW121674   3.946   3.483   7.406
 7044SOL    HW221675   3.969   3.329   7.356
 7045SOL     OW21676   3.883   2.999   7.052
 7045SOL    HW121677   3.905   2.938   7.128
 7045SOL    HW221678   3.893   2.950   6.966
 7046SOL     OW21679   3.807   3.120   6.608
 7046SOL    HW121680   3.802   3.119   6.708
 7046SOL    HW221681   3.724   3.079   6.570
 7047SOL     OW21682   3.854   3.656   7.437
 7047SOL    HW121683   3.813   3.582   7.490
 7047SOL    HW221684   3.918   3.707   7.495
 7048SOL     OW21685   3.799   2.207   5.619
 7048SOL    HW121686   3.707   2.179   5.590
 7048SOL    HW221687   3.830   2.284   5.563
 7049SOL     OW21688   3.796   2.028   5.904
 7049SOL    HW121689   3.779   2.111   5.850
 7049SOL    HW221690   3.886   1.991   5.882
 7050SOL     OW21691   3.803   3.102   6.239
 7050SOL    HW121692   3.802   3.055   6.327
 7050SOL    HW221693   3.885   3.074   6.188
 7051SOL     OW21694   3.763   2.939   5.886
 7051SOL    HW121695   3.862   2.928   5.877
 7051SOL    HW221696   3.723   2.853   5.918
 7052SOL     OW21697   3.954   2.490   7.561
 7052SOL    HW121698   3.861   2.488   7.598
 7052SOL    HW221699   3.955   2.451   7.469
 7053SOL     OW21700   3.949   2.137   8.444
 7053SOL    HW121701   3.984   2.120   8.536
 7053SOL    HW221702   3.861   2.092   8.432
 7054SOL     OW21703   3.743   2.230   8.095
 7054SOL    HW121704   3.661   2.273   8.134
 7054SOL    HW221705   3.715   2.157   8.032
 7055SOL     OW21706   4.059   3.297   8.509
 7055SOL    HW121707   3.981   3.266   8.456
 7055SOL    HW221708   4.117   3.355   8.452
 7056SOL     OW21709   3.955   3.575   7.931
 7056SOL    HW121710   3.989   3.652   7.985
 7056SOL    HW221711   3.999   3.575   7.841
 7057SOL     OW21712   3.954   3.296   7.986
 7057SOL    HW121713   3.928   3.392   7.986
 7057SOL    HW221714   3.883   3.242   8.031
 7058SOL     OW21715   3.846   2.505   8.011
 7058SOL    HW121716   3.801   2.417   8.028
 7058SOL    HW221717   3.845   2.559   8.095
 7059SOL     OW21718   3.751   3.458   7.565
 7059SOL    HW121719   3.732   3.362   7.586
 7059SOL    HW221720   3.718   3.516   7.640
 7060SOL     OW21721   3.837   2.599   9.045
 7060SOL    HW121722   3.925   2.586   9.090
 7060SOL    HW221723   3.824   2.696   9.023
 7061SOL     OW21724   3.800   2.673   8.237
 7061SOL    HW121725   3.899   2.661   8.246
 7061SOL    HW221726   3.776   2.768   8.258
 7062SOL     OW21727   3.854   3.683   9.019
 7062SOL    HW121728   3.844   3.668   9.118
 7062SOL    HW221729   3.768   3.719   8.983
 7063SOL     OW21730   3.926   2.147   8.946
 7063SOL    HW121731   3.846   2.207   8.933
 7063SOL    HW221732   3.916   2.098   9.032
 7064SOL     OW21733   4.021   1.897   7.619
 7064SOL    HW121734   4.070   1.981   7.598
 7064SOL    HW221735   4.083   1.832   7.664
 7065SOL     OW21736   3.802   2.418   8.834
 7065SOL    HW121737   3.894   2.417   8.793
 7065SOL    HW221738   3.796   2.492   8.901
 7066SOL     OW21739   4.251   2.118   7.776
 7066SOL    HW121740   4.278   2.059   7.701
 7066SOL    HW221741   4.251   2.213   7.745
 7067SOL     OW21742   3.788   3.426   8.779
 7067SOL    HW121743   3.742   3.508   8.745
 7067SOL    HW221744   3.886   3.445   8.788
 7068SOL     OW21745   4.091   2.962   7.949
 7068SOL    HW121746   4.084   3.045   7.893
 7068SOL    HW221747   4.095   2.882   7.889
 7069SOL     OW21748   4.031   2.075   8.679
 7069SOL    HW121749   4.008   2.112   8.769
 7069SOL    HW221750   4.001   1.980   8.673
 7070SOL     OW21751   3.761   3.172   8.730
 7070SOL    HW121752   3.814   3.123   8.798
 7070SOL    HW221753   3.783   3.270   8.735
 7071SOL     OW21754   4.031   1.925   8.066
 7071SOL    HW121755   4.020   2.019   8.099
 7071SOL    HW221756   4.026   1.862   8.143
 7072SOL     OW21757   3.732   3.188   7.648
 7072SOL    HW121758   3.639   3.209   7.617
 7072SOL    HW221759   3.742   3.089   7.661
 7073SOL     OW21760   3.812   3.663   8.375
 7073SOL    HW121761   3.770   3.577   8.348
 7073SOL    HW221762   3.906   3.666   8.341
 7074SOL     OW21763   4.228   3.430   8.358
 7074SOL    HW121764   4.294   3.504   8.367
 7074SOL    HW221765   4.272   3.351   8.316
 7075SOL     OW21766   3.764   2.406   8.562
 7075SOL    HW121767   3.849   2.373   8.521
 7075SOL    HW221768   3.777   2.421   8.660
 7076SOL     OW21769   3.913   2.382   9.170
 7076SOL    HW121770   3.972   2.342   9.100
 7076SOL    HW221771   3.855   2.453   9.129
 7077SOL     OW21772   3.976   3.426   9.192
 7077SOL    HW121773   3.946   3.483   9.268
 7077SOL    HW221774   3.969   3.329   9.218
 7078SOL     OW21775   3.883   2.999   8.914
 7078SOL    HW121776   3.905   2.938   8.990
 7078SOL    HW221777   3.893   2.950   8.828
 7079SOL     OW21778   3.807   3.120   8.470
 7079SOL    HW121779   3.802   3.119   8.570
 7079SOL    HW221780   3.724   3.079   8.432
 7080SOL     OW21781   3.854   3.656   9.299
 7080SOL    HW121782   3.813   3.582   9.352
 7080SOL    HW221783   3.918   3.707   9.357
 7081SOL     OW21784   3.799   2.207   7.481
 7081SOL    HW121785   3.707   2.179   7.452
 7081SOL    HW221786   3.830   2.284   7.425
 7082SOL     OW21787   3.796   2.028   7.766
 7082SOL    HW121788   3.779   2.111   7.712
 7082SOL    HW221789   3.886   1.991   7.744
 7083SOL     OW21790   3.803   3.102   8.101
 7083SOL    HW121791   3.802   3.055   8.189
 7083SOL    HW221792   3.885   3.074   8.050
 7084SOL     OW21793   3.763   2.939   7.748
 7084SOL    HW121794   3.862   2.928   7.739
 7084SOL    HW221795   3.723   2.853   7.780
 7085SOL     OW21796   3.954   2.490   9.423
 7085SOL    HW121797   3.861   2.488   9.460
 7085SOL    HW221798   3.955   2.451   9.331
 7086SOL     OW21799   3.949   2.137  10.306
 7086SOL    HW121800   3.984   2.120  10.398
 7086SOL    HW221801   3.861   2.092  10.294
 7087SOL     OW21802   3.743   2.230   9.957
 7087SOL    HW121803   3.661   2.273   9.996
 7087SOL    HW221804   3.715   2.157   9.894
 7088SOL     OW21805   4.059   3.297  10.371
 7088SOL    HW121806   3.981   3.266  10.318
 7088SOL    HW221807   4.117   3.355  10.314
 7089SOL     OW21808   3.955   3.575   9.793
 7089SOL    HW121809   3.989   3.652   9.847
 7089SOL    HW221810   3.999   3.575   9.703
 7090SOL     OW21811   3.954   3.296   9.848
 7090SOL    HW121812   3.928   3.392   9.848
 7090SOL    HW221813   3.883   3.242   9.893
 7091SOL     OW21814   3.846   2.505   9.873
 7091SOL    HW121815   3.801   2.417   9.890
 7091SOL    HW221816   3.845   2.559   9.957
 7092SOL     OW21817   3.751   3.458   9.427
 7092SOL    HW121818   3.732   3.362   9.448
 7092SOL    HW221819   3.718   3.516   9.502
 7093SOL     OW21820   3.837   2.599  10.907
 7093SOL    HW121821   3.925   2.586  10.952
 7093SOL    HW221822   3.824   2.696  10.885
 7094SOL     OW21823   3.800   2.673  10.099
 7094SOL    HW121824   3.899   2.661  10.108
 7094SOL    HW221825   3.776   2.768  10.120
 7095SOL     OW21826   3.854   3.683  10.881
 7095SOL    HW121827   3.844   3.668  10.980
 7095SOL    HW221828   3.768   3.719  10.845
 7096SOL     OW21829   3.926   2.147  10.808
 7096SOL    HW121830   3.846   2.207  10.795
 7096SOL    HW221831   3.916   2.098  10.894
 7097SOL     OW21832   4.021   1.897   9.481
 7097SOL    HW121833   4.070   1.981   9.460
 7097SOL    HW221834   4.083   1.832   9.526
 7098SOL     OW21835   3.802   2.418  10.696
 7098SOL    HW121836   3.894   2.417  10.655
 7098SOL    HW221837   3.796   2.492  10.763
 7099SOL     OW21838   4.251   2.118   9.638
 7099SOL    HW121839   4.278   2.059   9.563
 7099SOL    HW221840   4.251   2.213   9.607
 7100SOL     OW21841   3.788   3.426  10.641
 7100SOL    HW121842   3.742   3.508  10.607
 7100SOL    HW221843   3.886   3.445  10.650
 7101SOL     OW21844   4.091   2.962   9.811
 7101SOL    HW121845   4.084   3.045   9.755
 7101SOL    HW221846   4.095   2.882   9.751
 7102SOL     OW21847   4.031   2.075  10.541
 7102SOL    HW121848   4.008   2.112  10.631
 7102SOL    HW221849   4.001   1.980  10.535
 7103SOL     OW21850   3.761   3.172  10.592
 7103SOL    HW121851   3.814   3.123  10.660
 7103SOL    HW221852   3.783   3.270  10.597
 7104SOL     OW21853   4.031   1.925   9.928
 7104SOL    HW121854   4.020   2.019   9.961
 7104SOL    HW221855   4.026   1.862  10.005
 7105SOL     OW21856   3.732   3.188   9.510
 7105SOL    HW121857   3.639   3.209   9.479
 7105SOL    HW221858   3.742   3.089   9.523
 7106SOL     OW21859   3.812   3.663  10.237
 7106SOL    HW121860   3.770   3.577  10.210
 7106SOL    HW221861   3.906   3.666  10.203
 7107SOL     OW21862   4.228   3.430  10.220
 7107SOL    HW121863   4.294   3.504  10.229
 7107SOL    HW221864   4.272   3.351  10.178
 7108SOL     OW21865   3.764   2.406  10.424
 7108SOL    HW121866   3.849   2.373  10.383
 7108SOL    HW221867   3.777   2.421  10.522
 7109SOL     OW21868   3.913   2.382  11.032
 7109SOL    HW121869   3.972   2.342  10.962
 7109SOL    HW221870   3.855   2.453  10.991
 7110SOL     OW21871   3.976   3.426  11.054
 7110SOL    HW121872   3.946   3.483  11.130
 7110SOL    HW221873   3.969   3.329  11.080
 7111SOL     OW21874   3.883   2.999  10.776
 7111SOL    HW121875   3.905   2.938  10.852
 7111SOL    HW221876   3.893   2.950  10.690
 7112SOL     OW21877   3.807   3.120  10.332
 7112SOL    HW121878   3.802   3.119  10.432
 7112SOL    HW221879   3.724   3.079  10.294
 7113SOL     OW21880   3.854   3.656  11.161
 7113SOL    HW121881   3.813   3.582  11.214
 7113SOL    HW221882   3.918   3.707  11.219
 7114SOL     OW21883   3.799   2.207   9.343
 7114SOL    HW121884   3.707   2.179   9.314
 7114SOL    HW221885   3.830   2.284   9.287
 7115SOL     OW21886   3.796   2.028   9.628
 7115SOL    HW121887   3.779   2.111   9.574
 7115SOL    HW221888   3.886   1.991   9.606
 7116SOL     OW21889   3.803   3.102   9.963
 7116SOL    HW121890   3.802   3.055  10.051
 7116SOL    HW221891   3.885   3.074   9.912
 7117SOL     OW21892   3.763   2.939   9.610
 7117SOL    HW121893   3.862   2.928   9.601
 7117SOL    HW221894   3.723   2.853   9.642
 7118SOL     OW21895   3.954   2.490  11.285
 7118SOL    HW121896   3.861   2.488  11.322
 7118SOL    HW221897   3.955   2.451  11.193
 7119SOL     OW21898   3.949   2.137  12.168
 7119SOL    HW121899   3.984   2.120  12.260
 7119SOL    HW221900   3.861   2.092  12.156
 7120SOL     OW21901   3.743   2.230  11.819
 7120SOL    HW121902   3.661   2.273  11.858
 7120SOL    HW221903   3.715   2.157  11.756
 7121SOL     OW21904   4.059   3.297  12.233
 7121SOL    HW121905   3.981   3.266  12.180
 7121SOL    HW221906   4.117   3.355  12.176
 7122SOL     OW21907   3.955   3.575  11.655
 7122SOL    HW121908   3.989   3.652  11.709
 7122SOL    HW221909   3.999   3.575  11.565
 7123SOL     OW21910   3.954   3.296  11.710
 7123SOL    HW121911   3.928   3.392  11.710
 7123SOL    HW221912   3.883   3.242  11.755
 7124SOL     OW21913   3.846   2.505  11.735
 7124SOL    HW121914   3.801   2.417  11.752
 7124SOL    HW221915   3.845   2.559  11.819
 7125SOL     OW21916   3.751   3.458  11.289
 7125SOL    HW121917   3.732   3.362  11.310
 7125SOL    HW221918   3.718   3.516  11.364
 7126SOL     OW21919   3.837   2.599  12.769
 7126SOL    HW121920   3.925   2.586  12.814
 7126SOL    HW221921   3.824   2.696  12.747
 7127SOL     OW21922   3.800   2.673  11.961
 7127SOL    HW121923   3.899   2.661  11.970
 7127SOL    HW221924   3.776   2.768  11.982
 7128SOL     OW21925   3.854   3.683  12.743
 7128SOL    HW121926   3.844   3.668  12.842
 7128SOL    HW221927   3.768   3.719  12.707
 7129SOL     OW21928   3.926   2.147  12.670
 7129SOL    HW121929   3.846   2.207  12.657
 7129SOL    HW221930   3.916   2.098  12.756
 7130SOL     OW21931   4.021   1.897  11.343
 7130SOL    HW121932   4.070   1.981  11.322
 7130SOL    HW221933   4.083   1.832  11.388
 7131SOL     OW21934   3.802   2.418  12.558
 7131SOL    HW121935   3.894   2.417  12.517
 7131SOL    HW221936   3.796   2.492  12.625
 7132SOL     OW21937   4.251   2.118  11.500
 7132SOL    HW121938   4.278   2.059  11.425
 7132SOL    HW221939   4.251   2.213  11.469
 7133SOL     OW21940   3.788   3.426  12.503
 7133SOL    HW121941   3.742   3.508  12.469
 7133SOL    HW221942   3.886   3.445  12.512
 7134SOL     OW21943   4.091   2.962  11.673
 7134SOL    HW121944   4.084   3.045  11.617
 7134SOL    HW221945   4.095   2.882  11.613
 7135SOL     OW21946   4.031   2.075  12.403
 7135SOL    HW121947   4.008   2.112  12.493
 7135SOL    HW221948   4.001   1.980  12.397
 7136SOL     OW21949   3.761   3.172  12.454
 7136SOL    HW121950   3.814   3.123  12.522
 7136SOL    HW221951   3.783   3.270  12.459
 7137SOL     OW21952   4.031   1.925  11.790
 7137SOL    HW121953   4.020   2.019  11.823
 7137SOL    HW221954   4.026   1.862  11.867
 7138SOL     OW21955   3.732   3.188  11.372
 7138SOL    HW121956   3.639   3.209  11.341
 7138SOL    HW221957   3.742   3.089  11.385
 7139SOL     OW21958   3.812   3.663  12.099
 7139SOL    HW121959   3.770   3.577  12.072
 7139SOL    HW221960   3.906   3.666  12.065
 7140SOL     OW21961   4.228   3.430  12.082
 7140SOL    HW121962   4.294   3.504  12.091
 7140SOL    HW221963   4.272   3.351  12.040
 7141SOL     OW21964   3.764   2.406  12.286
 7141SOL    HW121965   3.849   2.373  12.245
 7141SOL    HW221966   3.777   2.421  12.384
 7142SOL     OW21967   3.913   2.382  12.894
 7142SOL    HW121968   3.972   2.342  12.824
 7142SOL    HW221969   3.855   2.453  12.853
 7143SOL     OW21970   3.976   3.426  12.916
 7143SOL    HW121971   3.946   3.483  12.992
 7143SOL    HW221972   3.969   3.329  12.942
 7144SOL     OW21973   3.883   2.999  12.638
 7144SOL    HW121974   3.905   2.938  12.714
 7144SOL    HW221975   3.893   2.950  12.552
 7145SOL     OW21976   3.807   3.120  12.194
 7145SOL    HW121977   3.802   3.119  12.294
 7145SOL    HW221978   3.724   3.079  12.156
 7146SOL     OW21979   3.854   3.656  13.023
 7146SOL    HW121980   3.813   3.582  13.076
 7146SOL    HW221981   3.918   3.707  13.081
 7147SOL     OW21982   3.799   2.207  11.205
 7147SOL    HW121983   3.707   2.179  11.176
 7147SOL    HW221984   3.830   2.284  11.149
 7148SOL     OW21985   3.796   2.028  11.490
 7148SOL    HW121986   3.779   2.111  11.436
 7148SOL    HW221987   3.886   1.991  11.468
 7149SOL     OW21988   3.803   3.102  11.825
 7149SOL    HW121989   3.802   3.055  11.913
 7149SOL    HW221990   3.885   3.074  11.774
 7150SOL     OW21991   3.763   2.939  11.472
 7150SOL    HW121992   3.862   2.928  11.463
 7150SOL    HW221993   3.723   2.853  11.504
 7151SOL     OW21994   3.954   2.490  13.147
 7151SOL    HW121995   3.861   2.488  13.184
 7151SOL    HW221996   3.955   2.451  13.055
 7152SOL     OW21997   3.743   2.230  13.681
 7152SOL    HW121998   3.661   2.273  13.720
 7152SOL    HW221999   3.715   2.157  13.618
 7153SOL     OW22000   3.955   3.575  13.517
 7153SOL    HW122001   3.989   3.652  13.571
 7153SOL    HW222002   3.999   3.575  13.427
 7154SOL     OW22003   3.954   3.296  13.572
 7154SOL    HW122004   3.928   3.392  13.572
 7154SOL    HW222005   3.883   3.242  13.617
 7155SOL     OW22006   3.964   2.953  13.920
 7155SOL    HW122007   3.978   2.869  13.972
 7155SOL    HW222008   3.909   3.017  13.975
 7156SOL     OW22009   3.846   2.505  13.597
 7156SOL    HW122010   3.801   2.417  13.614
 7156SOL    HW222011   3.845   2.559  13.681
 7157SOL     OW22012   3.751   3.458  13.151
 7157SOL    HW122013   3.732   3.362  13.172
 7157SOL    HW222014   3.718   3.516  13.226
 7158SOL     OW22015   3.800   2.673  13.823
 7158SOL    HW122016   3.899   2.661  13.832
 7158SOL    HW222017   3.776   2.768  13.844
 7159SOL     OW22018   4.075   3.663  13.887
 7159SOL    HW122019   4.125   3.577  13.893
 7159SOL    HW222020   4.140   3.740  13.884
 7160SOL     OW22021   4.021   1.897  13.205
 7160SOL    HW122022   4.070   1.981  13.184
 7160SOL    HW222023   4.083   1.832  13.250
 7161SOL     OW22024   4.251   2.118  13.362
 7161SOL    HW122025   4.278   2.059  13.287
 7161SOL    HW222026   4.251   2.213  13.331
 7162SOL     OW22027   4.091   2.962  13.535
 7162SOL    HW122028   4.084   3.045  13.479
 7162SOL    HW222029   4.095   2.882  13.475
 7163SOL     OW22030   4.031   1.925  13.652
 7163SOL    HW122031   4.020   2.019  13.685
 7163SOL    HW222032   4.026   1.862  13.729
 7164SOL     OW22033   3.732   3.188  13.234
 7164SOL    HW122034   3.639   3.209  13.203
 7164SOL    HW222035   3.742   3.089  13.247
 7165SOL     OW22036   4.228   3.430  13.944
 7165SOL    HW122037   4.294   3.504  13.953
 7165SOL    HW222038   4.272   3.351  13.902
 7166SOL     OW22039   3.799   2.207  13.067
 7166SOL    HW122040   3.707   2.179  13.038
 7166SOL    HW222041   3.830   2.284  13.011
 7167SOL     OW22042   3.796   2.028  13.352
 7167SOL    HW122043   3.779   2.111  13.298
 7167SOL    HW222044   3.886   1.991  13.330
 7168SOL     OW22045   3.803   3.102  13.687
 7168SOL    HW122046   3.802   3.055  13.775
 7168SOL    HW222047   3.885   3.074  13.636
 7169SOL     OW22048   3.763   2.939  13.334
 7169SOL    HW122049   3.862   2.928  13.325
 7169SOL    HW222050   3.723   2.853  13.366
 7170SOL     OW22051   3.949   3.999   0.996
 7170SOL    HW122052   3.984   3.982   1.088
 7170SOL    HW222053   3.861   3.954   0.984
 7171SOL     OW22054   3.743   4.092   0.647
 7171SOL    HW122055   3.661   4.135   0.686
 7171SOL    HW222056   3.715   4.019   0.584
 7172SOL     OW22057   3.926   4.009   1.498
 7172SOL    HW122058   3.846   4.069   1.485
 7172SOL    HW222059   3.916   3.960   1.584
 7173SOL     OW22060   4.021   3.759   0.171
 7173SOL    HW122061   4.070   3.843   0.150
 7173SOL    HW222062   4.083   3.694   0.216
 7174SOL     OW22063   4.031   3.937   1.231
 7174SOL    HW122064   4.008   3.974   1.321
 7174SOL    HW222065   4.001   3.842   1.225
 7175SOL     OW22066   4.031   3.787   0.618
 7175SOL    HW122067   4.020   3.881   0.651
 7175SOL    HW222068   4.026   3.724   0.695
 7176SOL     OW22069   3.796   3.890   0.318
 7176SOL    HW122070   3.779   3.973   0.264
 7176SOL    HW222071   3.886   3.853   0.296
 7177SOL     OW22072   3.949   3.999   2.858
 7177SOL    HW122073   3.984   3.982   2.950
 7177SOL    HW222074   3.861   3.954   2.846
 7178SOL     OW22075   3.743   4.092   2.509
 7178SOL    HW122076   3.661   4.135   2.548
 7178SOL    HW222077   3.715   4.019   2.446
 7179SOL     OW22078   3.926   4.009   3.360
 7179SOL    HW122079   3.846   4.069   3.347
 7179SOL    HW222080   3.916   3.960   3.446
 7180SOL     OW22081   4.021   3.759   2.033
 7180SOL    HW122082   4.070   3.843   2.012
 7180SOL    HW222083   4.083   3.694   2.078
 7181SOL     OW22084   4.031   3.937   3.093
 7181SOL    HW122085   4.008   3.974   3.183
 7181SOL    HW222086   4.001   3.842   3.087
 7182SOL     OW22087   4.031   3.787   2.480
 7182SOL    HW122088   4.020   3.881   2.513
 7182SOL    HW222089   4.026   3.724   2.557
 7183SOL     OW22090   3.799   4.069   1.895
 7183SOL    HW122091   3.707   4.041   1.866
 7183SOL    HW222092   3.830   4.146   1.839
 7184SOL     OW22093   3.796   3.890   2.180
 7184SOL    HW122094   3.779   3.973   2.126
 7184SOL    HW222095   3.886   3.853   2.158
 7185SOL     OW22096   3.949   3.999   4.720
 7185SOL    HW122097   3.984   3.982   4.812
 7185SOL    HW222098   3.861   3.954   4.708
 7186SOL     OW22099   3.743   4.092   4.371
 7186SOL    HW122100   3.661   4.135   4.410
 7186SOL    HW222101   3.715   4.019   4.308
 7187SOL     OW22102   3.926   4.009   5.222
 7187SOL    HW122103   3.846   4.069   5.209
 7187SOL    HW222104   3.916   3.960   5.308
 7188SOL     OW22105   4.021   3.759   3.895
 7188SOL    HW122106   4.070   3.843   3.874
 7188SOL    HW222107   4.083   3.694   3.940
 7189SOL     OW22108   4.031   3.937   4.955
 7189SOL    HW122109   4.008   3.974   5.045
 7189SOL    HW222110   4.001   3.842   4.949
 7190SOL     OW22111   4.031   3.787   4.342
 7190SOL    HW122112   4.020   3.881   4.375
 7190SOL    HW222113   4.026   3.724   4.419
 7191SOL     OW22114   3.799   4.069   3.757
 7191SOL    HW122115   3.707   4.041   3.728
 7191SOL    HW222116   3.830   4.146   3.701
 7192SOL     OW22117   3.796   3.890   4.042
 7192SOL    HW122118   3.779   3.973   3.988
 7192SOL    HW222119   3.886   3.853   4.020
 7193SOL     OW22120   3.949   3.999   6.582
 7193SOL    HW122121   3.984   3.982   6.674
 7193SOL    HW222122   3.861   3.954   6.570
 7194SOL     OW22123   3.743   4.092   6.233
 7194SOL    HW122124   3.661   4.135   6.272
 7194SOL    HW222125   3.715   4.019   6.170
 7195SOL     OW22126   3.926   4.009   7.084
 7195SOL    HW122127   3.846   4.069   7.071
 7195SOL    HW222128   3.916   3.960   7.170
 7196SOL     OW22129   4.021   3.759   5.757
 7196SOL    HW122130   4.070   3.843   5.736
 7196SOL    HW222131   4.083   3.694   5.802
 7197SOL     OW22132   4.031   3.937   6.817
 7197SOL    HW122133   4.008   3.974   6.907
 7197SOL    HW222134   4.001   3.842   6.811
 7198SOL     OW22135   4.031   3.787   6.204
 7198SOL    HW122136   4.020   3.881   6.237
 7198SOL    HW222137   4.026   3.724   6.281
 7199SOL     OW22138   3.799   4.069   5.619
 7199SOL    HW122139   3.707   4.041   5.590
 7199SOL    HW222140   3.830   4.146   5.563
 7200SOL     OW22141   3.796   3.890   5.904
 7200SOL    HW122142   3.779   3.973   5.850
 7200SOL    HW222143   3.886   3.853   5.882
 7201SOL     OW22144   3.949   3.999   8.444
 7201SOL    HW122145   3.984   3.982   8.536
 7201SOL    HW222146   3.861   3.954   8.432
 7202SOL     OW22147   3.743   4.092   8.095
 7202SOL    HW122148   3.661   4.135   8.134
 7202SOL    HW222149   3.715   4.019   8.032
 7203SOL     OW22150   3.926   4.009   8.946
 7203SOL    HW122151   3.846   4.069   8.933
 7203SOL    HW222152   3.916   3.960   9.032
 7204SOL     OW22153   4.021   3.759   7.619
 7204SOL    HW122154   4.070   3.843   7.598
 7204SOL    HW222155   4.083   3.694   7.664
 7205SOL     OW22156   4.031   3.937   8.679
 7205SOL    HW122157   4.008   3.974   8.769
 7205SOL    HW222158   4.001   3.842   8.673
 7206SOL     OW22159   4.031   3.787   8.066
 7206SOL    HW122160   4.020   3.881   8.099
 7206SOL    HW222161   4.026   3.724   8.143
 7207SOL     OW22162   3.799   4.069   7.481
 7207SOL    HW122163   3.707   4.041   7.452
 7207SOL    HW222164   3.830   4.146   7.425
 7208SOL     OW22165   3.796   3.890   7.766
 7208SOL    HW122166   3.779   3.973   7.712
 7208SOL    HW222167   3.886   3.853   7.744
 7209SOL     OW22168   3.949   3.999  10.306
 7209SOL    HW122169   3.984   3.982  10.398
 7209SOL    HW222170   3.861   3.954  10.294
 7210SOL     OW22171   3.743   4.092   9.957
 7210SOL    HW122172   3.661   4.135   9.996
 7210SOL    HW222173   3.715   4.019   9.894
 7211SOL     OW22174   3.926   4.009  10.808
 7211SOL    HW122175   3.846   4.069  10.795
 7211SOL    HW222176   3.916   3.960  10.894
 7212SOL     OW22177   4.021   3.759   9.481
 7212SOL    HW122178   4.070   3.843   9.460
 7212SOL    HW222179   4.083   3.694   9.526
 7213SOL     OW22180   4.031   3.937  10.541
 7213SOL    HW122181   4.008   3.974  10.631
 7213SOL    HW222182   4.001   3.842  10.535
 7214SOL     OW22183   4.031   3.787   9.928
 7214SOL    HW122184   4.020   3.881   9.961
 7214SOL    HW222185   4.026   3.724  10.005
 7215SOL     OW22186   3.799   4.069   9.343
 7215SOL    HW122187   3.707   4.041   9.314
 7215SOL    HW222188   3.830   4.146   9.287
 7216SOL     OW22189   3.796   3.890   9.628
 7216SOL    HW122190   3.779   3.973   9.574
 7216SOL    HW222191   3.886   3.853   9.606
 7217SOL     OW22192   3.949   3.999  12.168
 7217SOL    HW122193   3.984   3.982  12.260
 7217SOL    HW222194   3.861   3.954  12.156
 7218SOL     OW22195   3.743   4.092  11.819
 7218SOL    HW122196   3.661   4.135  11.858
 7218SOL    HW222197   3.715   4.019  11.756
 7219SOL     OW22198   3.926   4.009  12.670
 7219SOL    HW122199   3.846   4.069  12.657
 7219SOL    HW222200   3.916   3.960  12.756
 7220SOL     OW22201   4.021   3.759  11.343
 7220SOL    HW122202   4.070   3.843  11.322
 7220SOL    HW222203   4.083   3.694  11.388
 7221SOL     OW22204   4.031   3.937  12.403
 7221SOL    HW122205   4.008   3.974  12.493
 7221SOL    HW222206   4.001   3.842  12.397
 7222SOL     OW22207   4.031   3.787  11.790
 7222SOL    HW122208   4.020   3.881  11.823
 7222SOL    HW222209   4.026   3.724  11.867
 7223SOL     OW22210   3.799   4.069  11.205
 7223SOL    HW122211   3.707   4.041  11.176
 7223SOL    HW222212   3.830   4.146  11.149
 7224SOL     OW22213   3.796   3.890  11.490
 7224SOL    HW122214   3.779   3.973  11.436
 7224SOL    HW222215   3.886   3.853  11.468
 7225SOL     OW22216   3.743   4.092  13.681
 7225SOL    HW122217   3.661   4.135  13.720
 7225SOL    HW222218   3.715   4.019  13.618
 7226SOL     OW22219   4.021   3.759  13.205
 7226SOL    HW122220   4.070   3.843  13.184
 7226SOL    HW222221   4.083   3.694  13.250
 7227SOL     OW22222   4.031   3.787  13.652
 7227SOL    HW122223   4.020   3.881  13.685
 7227SOL    HW222224   4.026   3.724  13.729
 7228SOL     OW22225   3.799   4.069  13.067
 7228SOL    HW122226   3.707   4.041  13.038
 7228SOL    HW222227   3.830   4.146  13.011
 7229SOL     OW22228   3.796   3.890  13.352
 7229SOL    HW122229   3.779   3.973  13.298
 7229SOL    HW222230   3.886   3.853  13.330
   4.00000   4.00000  13.90000
