2aCDOH_1PEG_l14
22227
    1LIG      O    1   1.945   2.001   0.046
    1LIG      C    2   2.016   2.015   0.199
    1LIG     C1    3   1.939   1.986   0.365
    1LIG     O1    4   1.999   2.026   0.518
    1LIG     C2    5   1.941   1.988   0.672
    1LIG     C3    6   2.009   2.047   0.833
    1LIG     O2    7   1.960   2.003   0.986
    1LIG     C4    8   2.023   2.043   1.136
    1LIG     C5    9   1.956   1.994   1.300
    1LIG     O3   10   2.019   2.032   1.451
    1LIG     C6   11   1.962   1.986   1.602
    1LIG     C7   12   2.029   2.036   1.765
    1LIG     O4   13   1.969   1.996   1.916
    1LIG     C8   14   2.028   2.032   2.070
    1LIG     C9   15   1.950   1.992   2.231
    1LIG     O5   16   2.005   2.034   2.384
    1LIG    C10   17   1.945   1.993   2.535
    1LIG    C11   18   2.011   2.051   2.694
    1LIG     O6   19   1.960   2.005   2.846
    1LIG    C12   20   2.022   2.045   2.995
    1LIG    C13   21   1.954   1.996   3.156
    1LIG     O7   22   2.016   2.033   3.306
    1LIG    C14   23   1.959   1.987   3.455
    1LIG    C15   24   2.027   2.037   3.616
    1LIG     O8   25   1.967   1.997   3.767
    1LIG    C16   26   2.028   2.032   3.919
    1LIG    C17   27   1.950   1.992   4.079
    1LIG     O9   28   2.006   2.032   4.232
    1LIG    C18   29   1.944   1.993   4.381
    1LIG    C19   30   2.011   2.050   4.540
    1LIG    O10   31   1.960   2.005   4.690
    1LIG    C20   32   2.023   2.044   4.838
    1LIG    C21   33   1.954   1.997   4.999
    1LIG    O11   34   2.019   2.033   5.147
    1LIG    C22   35   1.964   1.987   5.296
    1LIG    C23   36   2.035   2.036   5.455
    1LIG    O12   37   1.980   1.992   5.605
    1LIG    C24   38   2.045   2.024   5.755
    1LIG    C25   39   1.967   1.986   5.914
    1LIG    O13   40   2.029   2.013   6.066
    1LIG    C26   41   1.965   1.977   6.215
    1LIG    C27   42   2.035   2.024   6.375
    1LIG    O14   43   1.975   1.983   6.524
    1LIG    C28   44   2.035   2.023   6.672
    1LIG    C29   45   1.963   1.987   6.835
    1LIG    O15   46   2.035   2.016   6.981
    1LIG    C30   47   1.978   1.979   7.132
    1LIG    C31   48   2.052   2.022   7.291
    1LIG    O16   49   1.988   1.988   7.441
    1LIG    C32   50   2.044   2.030   7.592
    1LIG    C33   51   1.972   1.982   7.752
    1LIG    O17   52   2.025   2.028   7.904
    1LIG    C34   53   1.966   1.984   8.054
    1LIG    C35   54   2.024   2.042   8.216
    1LIG    O18   55   1.964   1.996   8.364
    1LIG    C36   56   2.015   2.039   8.516
    1LIG    C37   57   1.938   1.993   8.675
    1LIG    O19   58   1.994   2.033   8.828
    1LIG    C38   59   1.939   1.985   8.978
    1LIG    C39   60   2.010   2.033   9.139
    1LIG    O20   61   1.956   1.991   9.291
    1LIG    C40   62   2.016   2.035   9.441
    1LIG    C41   63   1.950   1.985   9.604
    1LIG    O21   64   2.008   2.030   9.754
    1LIG    C42   65   1.954   1.986   9.905
    1LIG    C43   66   2.022   2.040  10.065
    1LIG    O22   67   1.967   1.998  10.216
    1LIG    C44   68   2.025   2.038  10.367
    1LIG    C45   69   1.950   1.995  10.527
    1LIG    O23   70   2.009   2.032  10.678
    1LIG    C46   71   1.951   1.986  10.827
    1LIG    C47   72   2.020   2.032  10.989
    1LIG    O24   73   1.964   1.990  11.140
    1LIG    C48   74   2.022   2.034  11.291
    1LIG    C49   75   1.955   1.984  11.454
    1LIG    O25   76   2.012   2.028  11.605
    1LIG    C50   77   1.955   1.986  11.756
    1LIG    C51   78   2.025   2.038  11.917
    1LIG    O26   79   1.968   1.997  12.069
    1LIG    C52   80   2.027   2.037  12.221
    1LIG    C53   81   1.951   1.994  12.382
    1LIG    O27   82   2.009   2.030  12.536
    1LIG    C54   83   1.951   1.983  12.686
    1LIG    C55   84   2.018   2.028  12.851
    1LIG    O28   85   1.962   1.984  13.003
    1LIG    C56   86   2.017   2.025  13.158
    1LIG    C57   87   1.946   1.973  13.320
    1LIG    O29   88   2.003   2.004  13.476
    1LIG    C58   89   1.934   1.975  13.627
    1LIG    C59   90   2.014   1.981  13.793
    1LIG      H   91   2.056   2.117   0.204
    1LIG     H1   92   2.105   1.951   0.197
    1LIG     H2   93   1.921   1.877   0.368
    1LIG     H3   94   1.839   2.030   0.358
    1LIG     H4   95   1.943   1.879   0.678
    1LIG     H5   96   1.835   2.016   0.673
    1LIG     H6   97   2.003   2.156   0.829
    1LIG     H7   98   2.117   2.027   0.828
    1LIG     H8   99   2.028   2.152   1.139
    1LIG     H9  100   2.127   2.010   1.136
    1LIG    H10  101   1.945   1.885   1.298
    1LIG    H11  102   1.853   2.032   1.301
    1LIG    H12  103   1.965   1.876   1.603
    1LIG    H13  104   1.856   2.011   1.604
    1LIG    H14  105   2.036   2.145   1.761
    1LIG    H15  106   2.134   2.002   1.764
    1LIG    H16  107   2.047   2.140   2.073
    1LIG    H17  108   2.129   1.988   2.075
    1LIG    H18  109   1.940   1.883   2.231
    1LIG    H19  110   1.848   2.030   2.224
    1LIG    H20  111   1.946   1.884   2.540
    1LIG    H21  112   1.839   2.021   2.534
    1LIG    H22  113   2.004   2.160   2.691
    1LIG    H23  114   2.119   2.031   2.690
    1LIG    H24  115   2.028   2.154   2.997
    1LIG    H25  116   2.126   2.011   2.994
    1LIG    H26  117   1.942   1.887   3.153
    1LIG    H27  118   1.851   2.035   3.156
    1LIG    H28  119   1.962   1.877   3.455
    1LIG    H29  120   1.853   2.012   3.457
    1LIG    H30  121   2.033   2.146   3.613
    1LIG    H31  122   2.132   2.003   3.615
    1LIG    H32  123   2.048   2.139   3.923
    1LIG    H33  124   2.127   1.985   3.923
    1LIG    H34  125   1.938   1.883   4.079
    1LIG    H35  126   1.848   2.031   4.073
    1LIG    H36  127   1.944   1.883   4.387
    1LIG    H37  128   1.838   2.022   4.380
    1LIG    H38  129   2.004   2.160   4.537
    1LIG    H39  130   2.118   2.031   4.536
    1LIG    H40  131   2.031   2.153   4.840
    1LIG    H41  132   2.127   2.009   4.838
    1LIG    H42  133   1.940   1.888   4.996
    1LIG    H43  134   1.853   2.038   4.999
    1LIG    H44  135   1.964   1.877   5.296
    1LIG    H45  136   1.858   2.014   5.300
    1LIG    H46  137   2.038   2.145   5.453
    1LIG    H47  138   2.140   2.005   5.450
    1LIG    H48  139   2.070   2.130   5.759
    1LIG    H49  140   2.142   1.973   5.757
    1LIG    H50  141   1.941   1.879   5.909
    1LIG    H51  142   1.871   2.038   5.910
    1LIG    H52  143   1.955   1.867   6.218
    1LIG    H53  144   1.863   2.015   6.215
    1LIG    H54  145   2.041   2.133   6.373
    1LIG    H55  146   2.139   1.990   6.373
    1LIG    H56  147   2.042   2.132   6.671
    1LIG    H57  148   2.138   1.988   6.674
    1LIG    H58  149   1.935   1.881   6.834
    1LIG    H59  150   1.867   2.039   6.836
    1LIG    H60  151   1.970   1.870   7.135
    1LIG    H61  152   1.877   2.017   7.137
    1LIG    H62  153   2.067   2.130   7.286
    1LIG    H63  154   2.153   1.980   7.290
    1LIG    H64  155   2.048   2.140   7.593
    1LIG    H65  156   2.149   1.998   7.596
    1LIG    H66  157   1.971   1.872   7.751
    1LIG    H67  158   1.867   2.011   7.746
    1LIG    H68  159   1.969   1.875   8.058
    1LIG    H69  160   1.859   2.009   8.053
    1LIG    H70  161   2.019   2.151   8.213
    1LIG    H71  162   2.132   2.021   8.218
    1LIG    H72  163   2.022   2.148   8.517
    1LIG    H73  164   2.119   2.005   8.522
    1LIG    H74  165   1.929   1.884   8.674
    1LIG    H75  166   1.835   2.030   8.670
    1LIG    H76  167   1.939   1.875   8.977
    1LIG    H77  168   1.833   2.013   8.983
    1LIG    H78  169   2.016   2.142   9.137
    1LIG    H79  170   2.114   1.999   9.133
    1LIG    H80  171   2.018   2.145   9.443
    1LIG    H81  172   2.121   2.004   9.442
    1LIG    H82  173   1.950   1.875   9.603
    1LIG    H83  174   1.844   2.013   9.602
    1LIG    H84  175   1.957   1.876   9.908
    1LIG    H85  176   1.847   2.012   9.909
    1LIG    H86  177   2.022   2.150  10.062
    1LIG    H87  178   2.129   2.015  10.061
    1LIG    H88  179   2.035   2.147  10.367
    1LIG    H89  180   2.128   2.001  10.370
    1LIG    H90  181   1.936   1.886  10.525
    1LIG    H91  182   1.849   2.036  10.523
    1LIG    H92  183   1.948   1.876  10.826
    1LIG    H93  184   1.846   2.017  10.830
    1LIG    H94  185   2.026   2.141  10.986
    1LIG    H95  186   2.124   1.998  10.984
    1LIG    H96  187   2.024   2.144  11.292
    1LIG    H97  188   2.127   2.004  11.293
    1LIG    H98  189   1.955   1.874  11.451
    1LIG    H99  190   1.849   2.012  11.451
    1LIG   H100  191   1.954   1.876  11.759
    1LIG   H101  192   1.850   2.016  11.758
    1LIG   H102  193   2.029   2.147  11.914
    1LIG   H103  194   2.130   2.009  11.913
    1LIG   H104  195   2.037   2.146  12.222
    1LIG   H105  196   2.129   1.999  12.225
    1LIG   H106  197   1.937   1.885  12.380
    1LIG   H107  198   1.850   2.035  12.378
    1LIG   H108  199   1.949   1.873  12.684
    1LIG   H109  200   1.846   2.013  12.688
    1LIG   H110  201   2.023   2.138  12.850
    1LIG   H111  202   2.123   1.995  12.846
    1LIG   H112  203   2.020   2.134  13.161
    1LIG   H113  204   2.122   1.994  13.161
    1LIG   H114  205   1.938   1.863  13.313
    1LIG   H115  206   1.842   2.008  13.318
    1LIG   H116  207   1.896   1.872  13.620
    1LIG   H117  208   1.843   2.036  13.633
    1LIG   H118  209   2.098   2.051  13.785
    1LIG   H119  210   2.062   1.882  13.798
    2MOL     C1  211   2.554   1.999   6.445
    2MOL     H1  212   2.644   2.061   6.458
    2MOL     O1  213   2.525   1.926   6.566
    2MOL     C2  214   2.405   1.843   6.564
    2MOL     H2  215   2.317   1.905   6.545
    2MOL     C3  216   2.390   1.779   6.704
    2MOL     H3  217   2.490   1.765   6.747
    2MOL     H4  218   2.343   1.681   6.697
    2MOL     O2  219   2.312   1.862   6.791
    2MOL     H5  220   2.224   1.820   6.798
    2MOL     C4  221   2.578   1.897   6.331
    2MOL     H6  222   2.661   1.831   6.360
    2MOL     O3  223   2.609   1.964   6.209
    2MOL     H7  224   2.568   2.053   6.212
    2MOL     C5  225   2.452   1.810   6.316
    2MOL     H8  226   2.368   1.875   6.292
    2MOL     O4  227   2.467   1.714   6.210
    2MOL     H9  228   2.459   1.767   6.128
    2MOL     C6  229   2.418   1.739   6.448
    2MOL    H10  230   2.494   1.664   6.472
    2MOL     O5  231   2.289   1.681   6.424
    2MOL     C7  232   2.270   1.543   6.458
    2MOL    H11  233   2.365   1.491   6.474
    2MOL     O6  234   2.188   1.538   6.577
    2MOL     C8  235   2.061   1.610   6.565
    2MOL    H12  236   2.078   1.714   6.535
    2MOL     C9  237   1.991   1.614   6.702
    2MOL    H13  238   1.973   1.511   6.734
    2MOL    H14  239   1.893   1.664   6.691
    2MOL     O7  240   2.069   1.684   6.800
    2MOL    H15  241   2.126   1.614   6.841
    2MOL    C10  242   2.194   1.476   6.340
    2MOL    H16  243   2.179   1.369   6.364
    2MOL     O8  244   2.265   1.489   6.218
    2MOL    H17  245   2.328   1.565   6.229
    2MOL    C11  246   2.056   1.542   6.322
    2MOL    H18  247   2.073   1.647   6.294
    2MOL     O9  248   1.986   1.477   6.217
    2MOL    H19  249   2.054   1.465   6.148
    2MOL    C12  250   1.978   1.540   6.453
    2MOL    H20  251   1.955   1.437   6.482
    2MOL    O10  252   1.859   1.616   6.428
    2MOL    C13  253   1.733   1.547   6.435
    2MOL    H21  254   1.747   1.439   6.446
    2MOL    O11  255   1.661   1.601   6.548
    2MOL    C14  256   1.641   1.745   6.544
    2MOL    H22  257   1.738   1.796   6.547
    2MOL    C15  258   1.562   1.788   6.669
    2MOL    H23  259   1.564   1.897   6.678
    2MOL    H24  260   1.617   1.750   6.754
    2MOL    O12  261   1.428   1.740   6.667
    2MOL    H25  262   1.408   1.706   6.757
    2MOL    C16  263   1.653   1.577   6.305
    2MOL    H26  264   1.552   1.533   6.314
    2MOL    O13  265   1.717   1.522   6.190
    2MOL    H27  266   1.816   1.521   6.212
    2MOL    C17  267   1.639   1.729   6.288
    2MOL    H28  268   1.740   1.772   6.284
    2MOL    O14  269   1.569   1.763   6.167
    2MOL    H29  270   1.574   1.683   6.108
    2MOL    C18  271   1.569   1.785   6.413
    2MOL    H30  272   1.465   1.748   6.415
    2MOL    O15  273   1.574   1.927   6.402
    2MOL    C19  274   1.452   1.999   6.428
    2MOL    H31  275   1.366   1.932   6.437
    2MOL    O16  276   1.466   2.077   6.548
    2MOL    C20  277   1.581   2.164   6.553
    2MOL    H32  278   1.673   2.105   6.557
    2MOL    C21  279   1.571   2.246   6.682
    2MOL    H33  280   1.669   2.294   6.694
    2MOL    H34  281   1.554   2.179   6.767
    2MOL    O17  282   1.469   2.347   6.675
    2MOL    H35  283   1.498   2.412   6.743
    2MOL    C22  284   1.433   2.095   6.312
    2MOL    H36  285   1.343   2.154   6.333
    2MOL    O18  286   1.415   2.017   6.197
    2MOL    H37  287   1.477   1.942   6.212
    2MOL    C23  288   1.558   2.185   6.297
    2MOL    H38  289   1.645   2.120   6.277
    2MOL    O19  290   1.546   2.280   6.190
    2MOL    H39  291   1.461   2.263   6.143
    2MOL    C24  292   1.586   2.258   6.429
    2MOL    H40  293   1.512   2.338   6.438
    2MOL    O20  294   1.720   2.312   6.418
    2MOL    C25  295   1.741   2.450   6.455
    2MOL    H41  296   1.647   2.500   6.480
    2MOL    O21  297   1.830   2.454   6.570
    2MOL    C26  298   1.959   2.390   6.549
    2MOL    H42  299   1.943   2.286   6.518
    2MOL    C27  300   2.040   2.385   6.680
    2MOL    H43  301   2.121   2.314   6.667
    2MOL    H44  302   1.976   2.346   6.760
    2MOL    O22  303   2.100   2.510   6.715
    2MOL    H45  304   2.188   2.501   6.672
    2MOL    C28  305   1.809   2.522   6.336
    2MOL    H46  306   1.822   2.628   6.362
    2MOL    O23  307   1.725   2.509   6.221
    2MOL    H47  308   1.693   2.416   6.222
    2MOL    C29  309   1.947   2.462   6.305
    2MOL    H48  310   1.933   2.356   6.278
    2MOL    O24  311   2.013   2.530   6.197
    2MOL    H49  312   1.948   2.529   6.123
    2MOL    C30  313   2.032   2.464   6.434
    2MOL    H50  314   2.052   2.568   6.463
    2MOL    O25  315   2.153   2.394   6.403
    2MOL    C31  316   2.278   2.459   6.434
    2MOL    H51  317   2.266   2.567   6.446
    2MOL    O26  318   2.331   2.400   6.555
    2MOL    C32  319   2.354   2.256   6.552
    2MOL    H52  320   2.259   2.203   6.537
    2MOL    C33  321   2.412   2.212   6.690
    2MOL    H53  322   2.473   2.294   6.731
    2MOL    H54  323   2.478   2.127   6.679
    2MOL    O27  324   2.307   2.180   6.782
    2MOL    H55  325   2.322   2.086   6.810
    2MOL    C34  326   2.375   2.433   6.315
    2MOL    H56  327   2.471   2.481   6.335
    2MOL    O28  328   2.316   2.486   6.196
    2MOL    H57  329   2.220   2.488   6.213
    2MOL    C35  330   2.395   2.280   6.299
    2MOL    H58  331   2.296   2.237   6.279
    2MOL    O29  332   2.483   2.247   6.190
    2MOL    H59  333   2.453   2.301   6.114
    2MOL    C36  334   2.446   2.219   6.432
    2MOL    H60  335   2.549   2.253   6.450
    2MOL    O30  336   2.439   2.078   6.411
    3MOL     C1  337   1.441   2.001   7.488
    3MOL     H1  338   1.350   2.061   7.475
    3MOL     O1  339   1.471   1.928   7.367
    3MOL     C2  340   1.588   1.842   7.369
    3MOL     H2  341   1.678   1.903   7.389
    3MOL     C3  342   1.600   1.778   7.230
    3MOL     H3  343   1.501   1.775   7.183
    3MOL     H4  344   1.634   1.674   7.238
    3MOL     O2  345   1.693   1.850   7.148
    3MOL     H5  346   1.775   1.796   7.149
    3MOL     C4  347   1.419   1.901   7.604
    3MOL     H6  348   1.331   1.841   7.582
    3MOL     O3  349   1.402   1.974   7.726
    3MOL     H7  350   1.462   2.052   7.719
    3MOL     C5  351   1.542   1.808   7.617
    3MOL     H8  352   1.629   1.871   7.642
    3MOL     O4  353   1.522   1.714   7.723
    3MOL     H9  354   1.482   1.773   7.792
    3MOL     C6  355   1.574   1.737   7.483
    3MOL    H10  356   1.495   1.665   7.458
    3MOL     O5  357   1.703   1.674   7.499
    3MOL     C7  358   1.718   1.535   7.462
    3MOL    H11  359   1.620   1.487   7.448
    3MOL     O6  360   1.796   1.527   7.339
    3MOL     C8  361   1.926   1.593   7.341
    3MOL    H12  362   1.913   1.700   7.364
    3MOL     C9  363   1.992   1.581   7.201
    3MOL    H13  364   2.007   1.476   7.177
    3MOL    H14  365   2.090   1.630   7.203
    3MOL     O7  366   1.911   1.643   7.099
    3MOL    H15  367   1.967   1.645   7.018
    3MOL    C10  368   1.795   1.464   7.576
    3MOL    H16  369   1.801   1.357   7.552
    3MOL     O8  370   1.725   1.484   7.699
    3MOL    H17  371   1.666   1.562   7.684
    3MOL    C11  372   1.939   1.521   7.589
    3MOL    H18  373   1.930   1.624   7.627
    3MOL     O9  374   2.016   1.442   7.680
    3MOL    H19  375   1.960   1.425   7.758
    3MOL    C12  376   2.012   1.528   7.453
    3MOL    H20  377   2.038   1.426   7.421
    3MOL    O10  378   2.130   1.609   7.475
    3MOL    C13  379   2.257   1.541   7.465
    3MOL    H21  380   2.243   1.433   7.457
    3MOL    O11  381   2.325   1.590   7.348
    3MOL    C14  382   2.352   1.733   7.345
    3MOL    H22  383   2.258   1.789   7.346
    3MOL    C15  384   2.427   1.765   7.213
    3MOL    H23  385   2.456   1.870   7.213
    3MOL    H24  386   2.359   1.749   7.128
    3MOL    O12  387   2.542   1.681   7.198
    3MOL    H25  388   2.615   1.733   7.157
    3MOL    C16  389   2.345   1.569   7.591
    3MOL    H26  390   2.438   1.512   7.580
    3MOL    O13  391   2.278   1.530   7.711
    3MOL    H27  392   2.188   1.498   7.684
    3MOL    C17  393   2.380   1.719   7.602
    3MOL    H28  394   2.286   1.772   7.622
    3MOL    O14  395   2.472   1.742   7.712
    3MOL    H29  396   2.431   1.702   7.792
    3MOL    C18  397   2.436   1.775   7.469
    3MOL    H30  398   2.541   1.743   7.457
    3MOL    O15  399   2.427   1.919   7.484
    3MOL    C19  400   2.547   1.999   7.469
    3MOL    H31  401   2.637   1.937   7.457
    3MOL    O16  402   2.529   2.083   7.352
    3MOL    C20  403   2.412   2.169   7.353
    3MOL    H32  404   2.322   2.107   7.354
    3MOL    C21  405   2.408   2.255   7.223
    3MOL    H33  406   2.313   2.309   7.218
    3MOL    H34  407   2.410   2.189   7.136
    3MOL    O17  408   2.516   2.348   7.218
    3MOL    H35  409   2.542   2.353   7.124
    3MOL    C22  410   2.562   2.090   7.594
    3MOL    H36  411   2.649   2.155   7.580
    3MOL    O18  412   2.577   2.011   7.711
    3MOL    H37  413   2.533   1.925   7.690
    3MOL    C23  414   2.435   2.177   7.610
    3MOL    H38  415   2.350   2.108   7.620
    3MOL    O19  416   2.439   2.263   7.726
    3MOL    H39  417   2.514   2.236   7.784
    3MOL    C24  418   2.412   2.258   7.480
    3MOL    H40  419   2.488   2.337   7.473
    3MOL    O20  420   2.280   2.312   7.497
    3MOL    C25  421   2.260   2.451   7.465
    3MOL    H41  422   2.356   2.502   7.445
    3MOL    O21  423   2.174   2.458   7.349
    3MOL    C26  424   2.047   2.392   7.366
    3MOL    H42  425   2.063   2.289   7.399
    3MOL    C27  426   1.970   2.387   7.232
    3MOL    H43  427   1.901   2.302   7.232
    3MOL    H44  428   2.042   2.371   7.151
    3MOL    O22  429   1.896   2.507   7.209
    3MOL    H45  430   1.808   2.489   7.250
    3MOL    C28  431   2.191   2.517   7.585
    3MOL    H46  432   2.181   2.625   7.566
    3MOL    O23  433   2.269   2.495   7.701
    3MOL    H47  434   2.316   2.410   7.685
    3MOL    C29  435   2.051   2.458   7.610
    3MOL    H48  436   2.064   2.352   7.637
    3MOL    O24  437   1.982   2.526   7.716
    3MOL    H49  438   2.040   2.522   7.796
    3MOL    C30  439   1.970   2.462   7.479
    3MOL    H50  440   1.949   2.567   7.453
    3MOL    O25  441   1.849   2.389   7.505
    3MOL    C31  442   1.727   2.453   7.468
    3MOL    H51  443   1.743   2.559   7.445
    3MOL    O26  444   1.674   2.386   7.351
    3MOL    C32  445   1.642   2.245   7.365
    3MOL    H52  446   1.735   2.188   7.381
    3MOL    C33  447   1.578   2.199   7.231
    3MOL    H53  448   1.533   2.287   7.182
    3MOL    H54  449   1.496   2.129   7.249
    3MOL    O27  450   1.675   2.141   7.145
    3MOL    H55  451   1.665   2.043   7.152
    3MOL    C34  452   1.629   2.444   7.586
    3MOL    H56  453   1.537   2.498   7.562
    3MOL    O28  454   1.694   2.505   7.698
    3MOL    H57  455   1.789   2.483   7.682
    3MOL    C35  456   1.597   2.295   7.616
    3MOL    H58  457   1.691   2.248   7.648
    3MOL    O29  458   1.499   2.280   7.721
    3MOL    H59  459   1.525   2.337   7.798
    3MOL    C36  460   1.549   2.222   7.488
    3MOL    H60  461   1.447   2.254   7.464
    3MOL    O30  462   1.555   2.083   7.521
    4SOL     OW  463   0.227   0.663   0.119
    4SOL    HW1  464   0.133   0.648   0.130
    4SOL    HW2  465   0.250   0.616   0.039
    5SOL     OW  466   0.223   0.291   0.983
    5SOL    HW1  467   0.246   0.251   1.066
    5SOL    HW2  468   0.128   0.283   0.977
    6SOL     OW  469   0.020   0.383   0.634
    6SOL    HW1  470   3.929   0.400   0.658
    6SOL    HW2  471   0.025   0.288   0.623
    7SOL     OW  472   0.584   1.294   1.198
    7SOL    HW1  473   0.498   1.294   1.157
    7SOL    HW2  474   0.596   1.384   1.229
    8SOL     OW  475   1.570   1.513   0.707
    8SOL    HW1  476   1.526   1.492   0.790
    8SOL    HW2  477   1.499   1.518   0.644
    9SOL     OW  478   1.135   0.698   0.695
    9SOL    HW1  479   1.181   0.781   0.684
    9SOL    HW2  480   1.086   0.708   0.777
   10SOL     OW  481   1.773   0.623   0.211
   10SOL    HW1  482   1.786   0.596   0.120
   10SOL    HW2  483   1.776   0.541   0.260
   11SOL     OW  484   0.748   1.137   1.045
   11SOL    HW1  485   0.688   1.174   1.109
   11SOL    HW2  486   0.786   1.212   1.000
   12SOL     OW  487   0.875   0.765   1.826
   12SOL    HW1  488   0.864   0.837   1.889
   12SOL    HW2  489   0.896   0.809   1.743
   13SOL     OW  490   0.684   0.999   0.646
   13SOL    HW1  491   0.750   0.989   0.715
   13SOL    HW2  492   0.616   1.052   0.687
   14SOL     OW  493   0.713   1.148   1.820
   14SOL    HW1  494   0.761   1.226   1.850
   14SOL    HW2  495   0.633   1.183   1.780
   15SOL     OW  496   0.352   1.399   1.079
   15SOL    HW1  497   0.271   1.377   1.033
   15SOL    HW2  498   0.398   1.457   1.018
   16SOL     OW  499   1.460   1.503   1.360
   16SOL    HW1  500   1.514   1.582   1.369
   16SOL    HW2  501   1.392   1.513   1.428
   17SOL     OW  502   0.459   0.409   1.492
   17SOL    HW1  503   0.542   0.361   1.493
   17SOL    HW2  504   0.392   0.341   1.497
   18SOL     OW  505   1.611   0.450   0.735
   18SOL    HW1  506   1.544   0.486   0.676
   18SOL    HW2  507   1.627   0.520   0.798
   19SOL     OW  508   0.222   1.710   0.472
   19SOL    HW1  509   0.242   1.789   0.524
   19SOL    HW2  510   0.287   1.711   0.402
   20SOL     OW  511   1.138   1.342   1.694
   20SOL    HW1  512   1.179   1.335   1.780
   20SOL    HW2  513   1.085   1.263   1.686
   21SOL     OW  514   0.247   1.448   0.542
   21SOL    HW1  515   0.225   1.540   0.527
   21SOL    HW2  516   0.174   1.413   0.592
   22SOL     OW  517   0.249   1.063   0.883
   22SOL    HW1  518   0.270   0.978   0.920
   22SOL    HW2  519   0.196   1.107   0.950
   23SOL     OW  520   0.608   1.794   1.424
   23SOL    HW1  521   0.525   1.776   1.469
   23SOL    HW2  522   0.631   1.883   1.452
   24SOL     OW  523   0.559   0.979   0.171
   24SOL    HW1  524   0.589   1.017   0.088
   24SOL    HW2  525   0.614   1.020   0.238
   25SOL     OW  526   1.584   0.142   1.455
   25SOL    HW1  527   1.616   0.215   1.401
   25SOL    HW2  528   1.546   0.184   1.532
   26SOL     OW  529   0.140   0.656   0.567
   26SOL    HW1  530   0.099   0.569   0.575
   26SOL    HW2  531   0.104   0.706   0.641
   27SOL     OW  532   0.032   1.595   0.140
   27SOL    HW1  533   0.031   1.500   0.152
   27SOL    HW2  534   3.979   1.629   0.212
   28SOL     OW  535   1.687   0.918   0.646
   28SOL    HW1  536   1.770   0.875   0.626
   28SOL    HW2  537   1.667   0.969   0.568
   29SOL     OW  538   1.650   1.104   0.431
   29SOL    HW1  539   1.739   1.103   0.394
   29SOL    HW2  540   1.656   1.166   0.503
   30SOL     OW  541   0.145   0.756   1.589
   30SOL    HW1  542   0.241   0.752   1.581
   30SOL    HW2  543   0.127   0.842   1.626
   31SOL     OW  544   0.613   1.388   0.738
   31SOL    HW1  545   0.567   1.304   0.745
   31SOL    HW2  546   0.599   1.415   0.647
   32SOL     OW  547   1.285   1.236   1.421
   32SOL    HW1  548   1.316   1.168   1.361
   32SOL    HW2  549   1.345   1.231   1.496
   33SOL     OW  550   0.826   0.004   0.524
   33SOL    HW1  551   0.870   0.084   0.495
   33SOL    HW2  552   0.732   0.026   0.521
   34SOL     OW  553   0.183   0.948   1.280
   34SOL    HW1  554   0.272   0.913   1.269
   34SOL    HW2  555   0.132   0.906   1.211
   35SOL     OW  556   1.529   1.001   0.206
   35SOL    HW1  557   1.461   0.943   0.241
   35SOL    HW2  558   1.573   1.036   0.283
   36SOL     OW  559   1.184   1.812   1.626
   36SOL    HW1  560   1.190   1.873   1.552
   36SOL    HW2  561   1.202   1.726   1.588
   37SOL     OW  562   0.348   0.246   1.853
   37SOL    HW1  563   0.390   0.330   1.833
   37SOL    HW2  564   0.256   0.269   1.867
   38SOL     OW  565   1.465   1.419   0.946
   38SOL    HW1  566   1.399   1.435   1.014
   38SOL    HW2  567   1.452   1.328   0.920
   39SOL     OW  568   1.664   1.751   0.580
   39SOL    HW1  569   1.634   1.734   0.490
   39SOL    HW2  570   1.645   1.670   0.627
   40SOL     OW  571   0.593   0.712   0.268
   40SOL    HW1  572   0.593   0.797   0.224
   40SOL    HW2  573   0.532   0.723   0.341
   41SOL     OW  574   1.274   0.373   0.940
   41SOL    HW1  575   1.187   0.334   0.948
   41SOL    HW2  576   1.332   0.312   0.986
   42SOL     OW  577   1.559   1.718   0.321
   42SOL    HW1  578   1.623   1.647   0.322
   42SOL    HW2  579   1.528   1.721   0.230
   43SOL     OW  580   0.794   0.615   1.452
   43SOL    HW1  581   0.765   0.588   1.539
   43SOL    HW2  582   0.759   0.548   1.393
   44SOL     OW  583   1.392   0.475   1.677
   44SOL    HW1  584   1.400   0.521   1.761
   44SOL    HW2  585   1.448   0.398   1.687
   45SOL     OW  586   0.950   0.886   1.586
   45SOL    HW1  587   1.005   0.818   1.548
   45SOL    HW2  588   0.901   0.922   1.512
   46SOL     OW  589   0.995   0.402   1.234
   46SOL    HW1  590   0.908   0.420   1.270
   46SOL    HW2  591   0.978   0.374   1.144
   47SOL     OW  592   1.053   0.704   0.428
   47SOL    HW1  593   1.071   0.695   0.522
   47SOL    HW2  594   0.969   0.658   0.416
   48SOL     OW  595   0.082   0.831   0.789
   48SOL    HW1  596   0.151   0.795   0.845
   48SOL    HW2  597   0.107   0.922   0.776
   49SOL     OW  598   0.130   1.867   1.581
   49SOL    HW1  599   0.138   1.831   1.669
   49SOL    HW2  600   0.038   1.858   1.559
   50SOL     OW  601   0.875   0.362   0.224
   50SOL    HW1  602   0.910   0.420   0.156
   50SOL    HW2  603   0.878   0.275   0.184
   51SOL     OW  604   1.705   0.575   1.830
   51SOL    HW1  605   1.669   0.649   1.781
   51SOL    HW2  606   1.730   0.511   1.763
   52SOL     OW  607   1.382   1.142   0.543
   52SOL    HW1  608   1.460   1.130   0.488
   52SOL    HW2  609   1.328   1.204   0.494
   53SOL     OW  610   0.564   0.197   0.881
   53SOL    HW1  611   0.568   0.221   0.973
   53SOL    HW2  612   0.550   0.279   0.834
   54SOL     OW  613   1.001   1.441   0.475
   54SOL    HW1  614   0.971   1.516   0.423
   54SOL    HW2  615   0.975   1.463   0.564
   55SOL     OW  616   0.364   1.826   0.877
   55SOL    HW1  617   0.425   1.752   0.887
   55SOL    HW2  618   0.418   1.903   0.891
   56SOL     OW  619   1.800   1.047   0.875
   56SOL    HW1  620   1.747   1.032   0.796
   56SOL    HW2  621   1.736   1.056   0.945
   57SOL     OW  622   1.227   1.540   1.513
   57SOL    HW1  623   1.215   1.468   1.575
   57SOL    HW2  624   1.160   1.526   1.446
   58SOL     OW  625   0.305   0.927   0.242
   58SOL    HW1  626   0.396   0.941   0.218
   58SOL    HW2  627   0.291   0.833   0.232
   59SOL     OW  628   1.479   0.753   0.729
   59SOL    HW1  629   1.476   0.711   0.815
   59SOL    HW2  630   1.558   0.808   0.732
   60SOL     OW  631   0.471   1.262   1.738
   60SOL    HW1  632   0.445   1.269   1.646
   60SOL    HW2  633   0.388   1.263   1.786
   61SOL     OW  634   1.120   1.779   0.226
   61SOL    HW1  635   1.055   1.733   0.280
   61SOL    HW2  636   1.149   1.713   0.163
   62SOL     OW  637   0.202   0.292   1.502
   62SOL    HW1  638   0.108   0.311   1.502
   62SOL    HW2  639   0.211   0.214   1.556
   63SOL     OW  640   1.634   1.376   0.094
   63SOL    HW1  641   1.604   1.456   0.049
   63SOL    HW2  642   1.566   1.311   0.075
   64SOL     OW  643   0.472   1.730   0.323
   64SOL    HW1  644   0.514   1.790   0.385
   64SOL    HW2  645   0.545   1.693   0.273
   65SOL     OW  646   1.444   0.139   0.394
   65SOL    HW1  647   1.394   0.059   0.411
   65SOL    HW2  648   1.527   0.126   0.441
   66SOL     OW  649   0.255   1.790   1.229
   66SOL    HW1  650   0.298   1.721   1.280
   66SOL    HW2  651   0.253   1.756   1.140
   67SOL     OW  652   0.939   1.700   0.896
   67SOL    HW1  653   1.018   1.651   0.918
   67SOL    HW2  654   0.898   1.648   0.827
   68SOL     OW  655   0.398   0.694   0.470
   68SOL    HW1  656   0.422   0.602   0.485
   68SOL    HW2  657   0.306   0.700   0.497
   69SOL     OW  658   1.528   0.226   1.726
   69SOL    HW1  659   1.521   0.251   1.819
   69SOL    HW2  660   1.516   0.132   1.725
   70SOL     OW  661   0.628   0.111   0.123
   70SOL    HW1  662   0.723   0.109   0.127
   70SOL    HW2  663   0.608   0.132   0.032
   71SOL     OW  664   0.774   0.286   1.772
   71SOL    HW1  665   0.853   0.233   1.771
   71SOL    HW2  666   0.721   0.250   1.842
   72SOL     OW  667   0.875   1.523   1.194
   72SOL    HW1  668   0.858   1.485   1.108
   72SOL    HW2  669   0.945   1.468   1.231
   73SOL     OW  670   1.338   0.588   1.431
   73SOL    HW1  671   1.369   0.558   1.517
   73SOL    HW2  672   1.374   0.676   1.421
   74SOL     OW  673   0.818   1.389   0.945
   74SOL    HW1  674   0.903   1.378   0.903
   74SOL    HW2  675   0.756   1.395   0.872
   75SOL     OW  676   0.930   0.513   0.898
   75SOL    HW1  677   0.905   0.504   0.806
   75SOL    HW2  678   0.955   0.424   0.925
   76SOL     OW  679   0.552   0.050   0.499
   76SOL    HW1  680   0.478   0.057   0.559
   76SOL    HW2  681   0.545   0.128   0.443
   77SOL     OW  682   1.430   1.209   0.044
   77SOL    HW1  683   1.448   1.128   0.092
   77SOL    HW2  684   1.339   1.230   0.064
   78SOL     OW  685   0.361   3.988   0.177
   78SOL    HW1  686   0.322   0.073   0.154
   78SOL    HW2  687   0.446   0.010   0.214
   79SOL     OW  688   0.946   0.251   0.467
   79SOL    HW1  689   0.913   0.289   0.385
   79SOL    HW2  690   1.041   0.252   0.457
   80SOL     OW  691   1.079   0.686   1.456
   80SOL    HW1  692   1.011   0.619   1.463
   80SOL    HW2  693   1.161   0.636   1.452
   81SOL     OW  694   1.219   1.573   0.796
   81SOL    HW1  695   1.233   1.639   0.729
   81SOL    HW2  696   1.290   1.586   0.859
   82SOL     OW  697   0.465   1.152   0.731
   82SOL    HW1  698   0.396   1.125   0.791
   82SOL    HW2  699   0.428   1.139   0.643
   83SOL     OW  700   1.259   1.794   0.611
   83SOL    HW1  701   1.307   1.858   0.558
   83SOL    HW2  702   1.192   1.845   0.656
   84SOL     OW  703   0.995   0.530   0.049
   84SOL    HW1  704   0.991   0.521  13.853
   84SOL    HW2  705   1.088   0.546   0.067
   85SOL     OW  706   0.082   0.576   1.392
   85SOL    HW1  707   0.171   0.557   1.362
   85SOL    HW2  708   0.092   0.647   1.456
   86SOL     OW  709   0.572   0.231   1.160
   86SOL    HW1  710   0.592   0.138   1.167
   86SOL    HW2  711   0.481   0.238   1.189
   87SOL     OW  712   0.871   0.463   0.638
   87SOL    HW1  713   0.826   0.516   0.573
   87SOL    HW2  714   0.892   0.381   0.592
   88SOL     OW  715   0.997   0.038   0.780
   88SOL    HW1  716   0.951   0.068   0.702
   88SOL    HW2  717   1.010   3.944   0.767
   89SOL     OW  718   1.439   1.160   0.856
   89SOL    HW1  719   1.368   1.096   0.857
   89SOL    HW2  720   1.461   1.169   0.763
   90SOL     OW  721   1.464   0.609   0.970
   90SOL    HW1  722   1.407   0.532   0.975
   90SOL    HW2  723   1.522   0.601   1.046
   91SOL     OW  724   1.841   0.817   0.387
   91SOL    HW1  725   1.897   0.763   0.443
   91SOL    HW2  726   1.812   0.757   0.317
   92SOL     OW  727   0.491   1.385   0.166
   92SOL    HW1  728   0.422   1.349   0.222
   92SOL    HW2  729   0.444   1.428   0.095
   93SOL     OW  730   1.676   1.266   0.640
   93SOL    HW1  731   1.770   1.261   0.659
   93SOL    HW2  732   1.650   1.354   0.665
   94SOL     OW  733   1.423   0.590   0.086
   94SOL    HW1  734   1.353   0.579   0.151
   94SOL    HW2  735   1.472   0.508   0.088
   95SOL     OW  736   0.531   0.260   0.330
   95SOL    HW1  737   0.568   0.212   0.256
   95SOL    HW2  738   0.502   0.343   0.293
   96SOL     OW  739   1.748   1.242   1.564
   96SOL    HW1  740   1.836   1.203   1.556
   96SOL    HW2  741   1.764   1.332   1.592
   97SOL     OW  742   1.054   1.353   1.332
   97SOL    HW1  743   0.979   1.322   1.382
   97SOL    HW2  744   1.129   1.312   1.374
   98SOL     OW  745   1.609   1.627   1.656
   98SOL    HW1  746   1.602   1.664   1.568
   98SOL    HW2  747   1.692   1.579   1.655
   99SOL     OW  748   1.135   1.210   1.102
   99SOL    HW1  749   1.074   1.247   1.166
   99SOL    HW2  750   1.105   1.244   1.018
  100SOL     OW  751   1.622   1.095   1.076
  100SOL    HW1  752   1.616   1.159   1.148
  100SOL    HW2  753   1.547   1.115   1.020
  101SOL     OW  754   0.912   0.119   1.400
  101SOL    HW1  755   0.932   0.089   1.312
  101SOL    HW2  756   0.993   0.160   1.431
  102SOL     OW  757   0.984   1.116   1.723
  102SOL    HW1  758   0.893   1.132   1.747
  102SOL    HW2  759   0.981   1.037   1.669
  103SOL     OW  760   0.717   1.062   0.378
  103SOL    HW1  761   0.702   1.041   0.470
  103SOL    HW2  762   0.791   1.006   0.353
  104SOL     OW  763   0.424   0.819   1.253
  104SOL    HW1  764   0.492   0.825   1.320
  104SOL    HW2  765   0.390   0.730   1.263
  105SOL     OW  766   1.265   0.375   1.278
  105SOL    HW1  767   1.298   0.453   1.322
  105SOL    HW2  768   1.177   0.399   1.249
  106SOL     OW  769   0.065   1.579   1.345
  106SOL    HW1  770   0.070   1.619   1.258
  106SOL    HW2  771   0.156   1.571   1.373
  107SOL     OW  772   0.360   1.102   0.480
  107SOL    HW1  773   0.348   1.178   0.423
  107SOL    HW2  774   0.376   1.029   0.420
  108SOL     OW  775   0.554   0.529   0.856
  108SOL    HW1  776   0.566   0.588   0.782
  108SOL    HW2  777   0.620   0.556   0.920
  109SOL     OW  778   1.248   1.347   0.401
  109SOL    HW1  779   1.302   1.421   0.429
  109SOL    HW2  780   1.160   1.369   0.432
  110SOL     OW  781   1.289   1.461   1.149
  110SOL    HW1  782   1.345   1.466   1.226
  110SOL    HW2  783   1.234   1.384   1.164
  111SOL     OW  784   1.574   0.639   0.492
  111SOL    HW1  785   1.531   0.692   0.558
  111SOL    HW2  786   1.607   0.702   0.428
  112SOL     OW  787   0.345   1.528   1.317
  112SOL    HW1  788   0.336   1.476   1.237
  112SOL    HW2  789   0.440   1.543   1.325
  113SOL     OW  790   0.421   0.736   1.601
  113SOL    HW1  791   0.485   0.780   1.545
  113SOL    HW2  792   0.456   0.648   1.613
  114SOL     OW  793   1.607   0.783   1.687
  114SOL    HW1  794   1.521   0.824   1.680
  114SOL    HW2  795   1.659   0.823   1.618
  115SOL     OW  796   1.005   0.142   1.781
  115SOL    HW1  797   1.065   0.209   1.748
  115SOL    HW2  798   0.997   0.080   1.708
  116SOL     OW  799   0.487   0.037   1.763
  116SOL    HW1  800   0.490   0.051   1.668
  116SOL    HW2  801   0.424   0.102   1.794
  117SOL     OW  802   0.585   0.876   1.032
  117SOL    HW1  803   0.620   0.965   1.036
  117SOL    HW2  804   0.530   0.868   1.109
  118SOL     OW  805   1.347   0.858   1.022
  118SOL    HW1  806   1.261   0.843   0.983
  118SOL    HW2  807   1.393   0.775   1.014
  119SOL     OW  808   1.217   0.554   0.265
  119SOL    HW1  809   1.224   0.474   0.316
  119SOL    HW2  810   1.159   0.610   0.316
  120SOL     OW  811   0.310   0.211   1.238
  120SOL    HW1  812   0.266   0.248   1.315
  120SOL    HW2  813   0.297   0.117   1.246
  121SOL     OW  814   0.064   1.306   1.280
  121SOL    HW1  815   0.093   1.262   1.361
  121SOL    HW2  816   0.054   1.397   1.306
  122SOL     OW  817   0.723   0.633   1.050
  122SOL    HW1  818   0.798   0.620   0.992
  122SOL    HW2  819   0.692   0.722   1.030
  123SOL     OW  820   1.740   0.959   1.859
  123SOL    HW1  821   1.695   0.894   1.805
  123SOL    HW2  822   1.679   0.977   1.930
  124SOL     OW  823   0.335   0.055   0.662
  124SOL    HW1  824   0.311   0.147   0.668
  124SOL    HW2  825   0.288   0.013   0.734
  125SOL     OW  826   1.576   0.392   0.392
  125SOL    HW1  827   1.540   0.333   0.458
  125SOL    HW2  828   1.567   0.479   0.430
  126SOL     OW  829   1.031   0.759   0.958
  126SOL    HW1  830   1.021   0.776   1.051
  126SOL    HW2  831   1.003   0.668   0.946
  127SOL     OW  832   0.981   1.566   1.721
  127SOL    HW1  833   0.966   1.610   1.637
  127SOL    HW2  834   1.025   1.484   1.697
  128SOL     OW  835   1.853   1.500   1.602
  128SOL    HW1  836   1.870   1.532   1.513
  128SOL    HW2  837   1.936   1.511   1.647
  129SOL     OW  838   0.356   0.923   1.797
  129SOL    HW1  839   0.433   0.943   1.850
  129SOL    HW2  840   0.385   0.854   1.737
  130SOL     OW  841   1.528   0.274   0.144
  130SOL    HW1  842   1.467   0.201   0.146
  130SOL    HW2  843   1.533   0.303   0.236
  131SOL     OW  844   1.286   0.832   0.057
  131SOL    HW1  845   1.334   0.749   0.061
  131SOL    HW2  846   1.304   0.865  13.868
  132SOL     OW  847   1.068   1.339   0.857
  132SOL    HW1  848   1.073   1.267   0.794
  132SOL    HW2  849   1.127   1.406   0.821
  133SOL     OW  850   0.314   0.801   0.950
  133SOL    HW1  851   0.408   0.817   0.945
  133SOL    HW2  852   0.306   0.711   0.982
  134SOL     OW  853   0.340   0.529   1.017
  134SOL    HW1  854   0.297   0.445   0.999
  134SOL    HW2  855   0.415   0.531   0.957
  135SOL     OW  856   1.134   0.379   1.700
  135SOL    HW1  857   1.085   0.434   1.762
  135SOL    HW2  858   1.220   0.420   1.695
  136SOL     OW  859   1.152   0.225   1.482
  136SOL    HW1  860   1.142   0.279   1.561
  136SOL    HW2  861   1.180   0.287   1.414
  137SOL     OW  862   0.017   1.323   0.194
  137SOL    HW1  863   3.922   1.336   0.184
  137SOL    HW2  864   0.026   1.229   0.211
  138SOL     OW  865   0.079   1.799   0.887
  138SOL    HW1  866   0.089   1.703   0.885
  138SOL    HW2  867   0.169   1.832   0.893
  139SOL     OW  868   0.496   1.572   0.909
  139SOL    HW1  869   0.565   1.632   0.935
  139SOL    HW2  870   0.539   1.509   0.851
  140SOL     OW  871   0.973   0.787   1.222
  140SOL    HW1  872   1.030   0.769   1.297
  140SOL    HW2  873   0.889   0.746   1.246
  141SOL     OW  874   0.034   0.582   1.111
  141SOL    HW1  875   0.087   0.520   1.061
  141SOL    HW2  876   0.061   0.568   1.202
  142SOL     OW  877   0.211   0.515   1.722
  142SOL    HW1  878   0.254   0.471   1.648
  142SOL    HW2  879   0.168   0.591   1.684
  143SOL     OW  880   1.380   0.934   1.656
  143SOL    HW1  881   1.402   1.027   1.652
  143SOL    HW2  882   1.376   0.906   1.564
  144SOL     OW  883   0.815   0.581   0.378
  144SOL    HW1  884   0.825   0.503   0.324
  144SOL    HW2  885   0.741   0.628   0.340
  145SOL     OW  886   1.639   0.602   1.180
  145SOL    HW1  887   1.630   0.542   1.253
  145SOL    HW2  888   1.727   0.586   1.146
  146SOL     OW  889   0.301   1.543   1.720
  146SOL    HW1  890   0.255   1.612   1.768
  146SOL    HW2  891   0.274   1.462   1.763
  147SOL     OW  892   0.717   0.451   1.251
  147SOL    HW1  893   0.664   0.374   1.229
  147SOL    HW2  894   0.704   0.511   1.178
  148SOL     OW  895   0.922   1.679   1.471
  148SOL    HW1  896   0.898   1.640   1.388
  148SOL    HW2  897   0.916   1.773   1.456
  149SOL     OW  898   0.422   0.489   0.227
  149SOL    HW1  899   0.499   0.546   0.235
  149SOL    HW2  900   0.350   0.548   0.206
  150SOL     OW  901   0.154   1.133   1.476
  150SOL    HW1  902   0.154   1.083   1.558
  150SOL    HW2  903   0.169   1.068   1.408
  151SOL     OW  904   1.320   1.043   1.220
  151SOL    HW1  905   1.342   0.980   1.151
  151SOL    HW2  906   1.254   1.100   1.180
  152SOL     OW  907   1.318   0.859   0.329
  152SOL    HW1  908   1.246   0.824   0.381
  152SOL    HW2  909   1.292   0.843   0.238
  153SOL     OW  910   1.762   1.731   1.151
  153SOL    HW1  911   1.832   1.758   1.092
  153SOL    HW2  912   1.742   1.641   1.125
  154SOL     OW  913   1.243   1.734   1.104
  154SOL    HW1  914   1.326   1.758   1.063
  154SOL    HW2  915   1.252   1.641   1.125
  155SOL     OW  916   0.079   1.216   1.027
  155SOL    HW1  917   0.086   1.242   1.119
  155SOL    HW2  918   3.987   1.228   1.006
  156SOL     OW  919   0.681   1.670   1.739
  156SOL    HW1  920   0.620   1.743   1.728
  156SOL    HW2  921   0.749   1.686   1.674
  157SOL     OW  922   0.902   0.105   0.131
  157SOL    HW1  923   0.941   0.092   0.045
  157SOL    HW2  924   0.910   0.019   0.174
  158SOL     OW  925   1.701   0.121   0.498
  158SOL    HW1  926   1.781   0.131   0.447
  158SOL    HW2  927   1.691   0.027   0.509
  159SOL     OW  928   1.387   1.574   0.491
  159SOL    HW1  929   1.441   1.615   0.424
  159SOL    HW2  930   1.334   1.646   0.527
  160SOL     OW  931   0.178   1.760   1.832
  160SOL    HW1  932   0.121   1.708   1.889
  160SOL    HW2  933   0.216   1.826   1.890
  161SOL     OW  934   1.276   0.929   0.672
  161SOL    HW1  935   1.350   0.870   0.685
  161SOL    HW2  936   1.311   1.000   0.618
  162SOL     OW  937   0.805   1.275   1.424
  162SOL    HW1  938   0.777   1.318   1.505
  162SOL    HW2  939   0.733   1.290   1.363
  163SOL     OW  940   0.672   1.588   0.190
  163SOL    HW1  941   0.666   1.620   0.100
  163SOL    HW2  942   0.626   1.503   0.188
  164SOL     OW  943   1.617   1.731   1.391
  164SOL    HW1  944   1.669   1.734   1.310
  164SOL    HW2  945   1.608   1.823   1.416
  165SOL     OW  946   1.839   0.179   0.963
  165SOL    HW1  947   1.873   0.118   0.898
  165SOL    HW2  948   1.750   0.196   0.935
  166SOL     OW  949   0.275   0.320   0.714
  166SOL    HW1  950   0.190   0.354   0.688
  166SOL    HW2  951   0.268   0.306   0.809
  167SOL     OW  952   1.216   1.599   0.037
  167SOL    HW1  953   1.207   1.507   0.062
  167SOL    HW2  954   1.180   1.604  13.849
  168SOL     OW  955   0.823   1.006   1.375
  168SOL    HW1  956   0.867   0.999   1.290
  168SOL    HW2  957   0.820   1.100   1.393
  169SOL     OW  958   0.922   0.911   0.289
  169SOL    HW1  959   0.992   0.953   0.237
  169SOL    HW2  960   0.966   0.842   0.337
  170SOL     OW  961   1.479   1.662   0.061
  170SOL    HW1  962   1.387   1.635   0.058
  170SOL    HW2  963   1.514   1.638  13.875
  171SOL     OW  964   0.374   1.302   1.492
  171SOL    HW1  965   0.358   1.382   1.442
  171SOL    HW2  966   0.297   1.248   1.474
  172SOL     OW  967   1.607   1.285   1.278
  172SOL    HW1  968   1.669   1.270   1.350
  172SOL    HW2  969   1.548   1.352   1.311
  173SOL     OW  970   1.060   1.110   0.710
  173SOL    HW1  971   0.988   1.059   0.747
  173SOL    HW2  972   1.125   1.045   0.684
  174SOL     OW  973   1.015   0.250   0.971
  174SOL    HW1  974   1.006   0.200   0.890
  174SOL    HW2  975   1.013   0.185   1.040
  175SOL     OW  976   0.609   1.485   0.483
  175SOL    HW1  977   0.655   1.437   0.415
  175SOL    HW2  978   0.536   1.528   0.438
  176SOL     OW  979   1.721   0.395   1.370
  176SOL    HW1  980   1.795   0.456   1.376
  176SOL    HW2  981   1.754   0.323   1.316
  177SOL     OW  982   0.268   1.311   0.313
  177SOL    HW1  983   0.188   1.337   0.266
  177SOL    HW2  984   0.266   1.363   0.393
  178SOL     OW  985   0.110   0.998   1.718
  178SOL    HW1  986   0.050   0.992   1.793
  178SOL    HW2  987   0.196   0.981   1.755
  179SOL     OW  988   0.695   0.260   1.504
  179SOL    HW1  989   0.762   0.206   1.462
  179SOL    HW2  990   0.724   0.267   1.595
  180SOL     OW  991   0.069   0.363   0.035
  180SOL    HW1  992   3.981   0.377   0.070
  180SOL    HW2  993   0.060   0.376  13.841
  181SOL     OW  994   1.424   0.856   1.396
  181SOL    HW1  995   1.375   0.918   1.342
  181SOL    HW2  996   1.513   0.859   1.361
  182SOL     OW  997   0.052   0.204   0.320
  182SOL    HW1  998   0.086   0.277   0.268
  182SOL    HW2  999   0.130   0.159   0.352
  183SOL     OW 1000   1.187   1.343   0.123
  183SOL    HW1 1001   1.092   1.336   0.112
  183SOL    HW2 1002   1.201   1.330   0.217
  184SOL     OW 1003   0.622   0.828   1.438
  184SOL    HW1 1004   0.679   0.903   1.422
  184SOL    HW2 1005   0.682   0.754   1.445
  185SOL     OW 1006   1.489   1.791   0.987
  185SOL    HW1 1007   1.510   1.859   0.922
  185SOL    HW2 1008   1.573   1.767   1.025
  186SOL     OW 1009   0.719   0.560   1.706
  186SOL    HW1 1010   0.764   0.620   1.764
  186SOL    HW2 1011   0.741   0.473   1.739
  187SOL     OW 1012   1.473   1.194   1.629
  187SOL    HW1 1013   1.462   1.209   1.722
  187SOL    HW2 1014   1.566   1.214   1.613
  188SOL     OW 1015   0.377   1.745   1.555
  188SOL    HW1 1016   0.290   1.783   1.544
  188SOL    HW2 1017   0.361   1.662   1.600
  189SOL     OW 1018   1.664   0.880   1.256
  189SOL    HW1 1019   1.661   0.795   1.212
  189SOL    HW2 1020   1.654   0.943   1.185
  190SOL     OW 1021   1.232   0.336   0.430
  190SOL    HW1 1022   1.293   0.262   0.427
  190SOL    HW2 1023   1.247   0.375   0.516
  191SOL     OW 1024   0.587   0.736   0.674
  191SOL    HW1 1025   0.625   0.822   0.658
  191SOL    HW2 1026   0.522   0.725   0.605
  192SOL     OW 1027   1.748   0.384   1.643
  192SOL    HW1 1028   1.731   0.390   1.549
  192SOL    HW2 1029   1.692   0.313   1.673
  193SOL     OW 1030   1.748   0.934   1.511
  193SOL    HW1 1031   1.737   1.028   1.524
  193SOL    HW2 1032   1.730   0.920   1.418
  194SOL     OW 1033   0.909   1.400   0.072
  194SOL    HW1 1034   0.847   1.378   0.142
  194SOL    HW2 1035   0.857   1.390  13.892
  195SOL     OW 1036   0.664   1.785   0.939
  195SOL    HW1 1037   0.645   1.876   0.919
  195SOL    HW2 1038   0.759   1.778   0.933
  196SOL     OW 1039   0.870   0.970   0.853
  196SOL    HW1 1040   0.920   0.897   0.890
  196SOL    HW2 1041   0.831   1.014   0.929
  197SOL     OW 1042   1.097   1.018   0.113
  197SOL    HW1 1043   1.087   1.062   0.028
  197SOL    HW2 1044   1.170   0.957   0.100
  198SOL     OW 1045   1.842   1.530   0.827
  198SOL    HW1 1046   1.758   1.535   0.782
  198SOL    HW2 1047   1.824   1.478   0.906
  199SOL     OW 1048   0.229   1.304   1.857
  199SOL    HW1 1049   0.154   1.252   1.828
  199SOL    HW2 1050   0.215   1.317   1.951
  200SOL     OW 1051   0.117   1.289   0.734
  200SOL    HW1 1052   0.133   1.239   0.815
  200SOL    HW2 1053   0.103   1.222   0.667
  201SOL     OW 1054   0.684   1.408   1.631
  201SOL    HW1 1055   0.604   1.365   1.663
  201SOL    HW2 1056   0.680   1.496   1.668
  202SOL     OW 1057   1.809   0.183   1.236
  202SOL    HW1 1058   1.813   0.089   1.253
  202SOL    HW2 1059   1.825   0.191   1.142
  203SOL     OW 1060   0.445   0.437   0.534
  203SOL    HW1 1061   0.475   0.363   0.482
  203SOL    HW2 1062   0.391   0.398   0.603
  204SOL     OW 1063   1.701   1.476   1.081
  204SOL    HW1 1064   1.618   1.460   1.037
  204SOL    HW2 1065   1.705   1.410   1.150
  205SOL     OW 1066   0.335   0.560   1.294
  205SOL    HW1 1067   0.391   0.503   1.347
  205SOL    HW2 1068   0.350   0.530   1.204
  206SOL     OW 1069   0.831   1.579   0.675
  206SOL    HW1 1070   0.813   1.646   0.609
  206SOL    HW2 1071   0.755   1.521   0.671
  207SOL     OW 1072   1.459   0.256   1.110
  207SOL    HW1 1073   1.478   0.169   1.145
  207SOL    HW2 1074   1.404   0.298   1.176
  208SOL     OW 1075   1.001   0.025   1.145
  208SOL    HW1 1076   0.918   0.002   1.104
  208SOL    HW2 1077   1.048   3.942   1.153
  209SOL     OW 1078   0.782   1.324   0.320
  209SOL    HW1 1079   0.752   1.235   0.337
  209SOL    HW2 1080   0.861   1.333   0.374
  210SOL     OW 1081   0.621   1.557   1.287
  210SOL    HW1 1082   0.622   1.640   1.336
  210SOL    HW2 1083   0.709   1.550   1.250
  211SOL     OW 1084   1.317   0.069   0.126
  211SOL    HW1 1085   1.333   3.979   0.099
  211SOL    HW2 1086   1.258   0.062   0.201
  212SOL     OW 1087   1.279   0.454   0.681
  212SOL    HW1 1088   1.232   0.537   0.674
  212SOL    HW2 1089   1.282   0.436   0.775
  213SOL     OW 1090   1.587   0.209   0.868
  213SOL    HW1 1091   1.537   0.234   0.946
  213SOL    HW2 1092   1.587   0.288   0.814
  214SOL     OW 1093   0.045   1.026   0.258
  214SOL    HW1 1094   0.138   1.005   0.254
  214SOL    HW2 1095   0.005   0.952   0.303
  215SOL     OW 1096   0.896   1.657   0.342
  215SOL    HW1 1097   0.818   1.629   0.293
  215SOL    HW2 1098   0.865   1.730   0.396
  216SOL     OW 1099   0.232   0.631   1.977
  216SOL    HW1 1100   0.139   0.635   1.998
  216SOL    HW2 1101   0.235   0.600   1.887
  217SOL     OW 1102   0.223   0.291   2.844
  217SOL    HW1 1103   0.246   0.251   2.928
  217SOL    HW2 1104   0.128   0.282   2.838
  218SOL     OW 1105   0.019   0.384   2.498
  218SOL    HW1 1106   3.928   0.400   2.522
  218SOL    HW2 1107   0.024   0.289   2.485
  219SOL     OW 1108   0.584   1.294   3.060
  219SOL    HW1 1109   0.498   1.294   3.019
  219SOL    HW2 1110   0.596   1.384   3.091
  220SOL     OW 1111   1.572   1.514   2.571
  220SOL    HW1 1112   1.528   1.493   2.654
  220SOL    HW2 1113   1.500   1.520   2.507
  221SOL     OW 1114   1.134   0.699   2.556
  221SOL    HW1 1115   1.181   0.782   2.545
  221SOL    HW2 1116   1.086   0.710   2.638
  222SOL     OW 1117   1.774   0.620   2.084
  222SOL    HW1 1118   1.749   0.612   1.992
  222SOL    HW2 1119   1.753   0.534   2.122
  223SOL     OW 1120   0.749   1.137   2.907
  223SOL    HW1 1121   0.688   1.174   2.971
  223SOL    HW2 1122   0.786   1.212   2.862
  224SOL     OW 1123   0.875   0.765   3.687
  224SOL    HW1 1124   0.864   0.837   3.751
  224SOL    HW2 1125   0.896   0.809   3.605
  225SOL     OW 1126   0.685   1.000   2.506
  225SOL    HW1 1127   0.751   0.990   2.574
  225SOL    HW2 1128   0.616   1.053   2.548
  226SOL     OW 1129   0.713   1.148   3.682
  226SOL    HW1 1130   0.761   1.226   3.712
  226SOL    HW2 1131   0.633   1.183   3.642
  227SOL     OW 1132   0.352   1.399   2.941
  227SOL    HW1 1133   0.271   1.375   2.895
  227SOL    HW2 1134   0.398   1.457   2.880
  228SOL     OW 1135   1.460   1.503   3.222
  228SOL    HW1 1136   1.514   1.582   3.231
  228SOL    HW2 1137   1.392   1.513   3.290
  229SOL     OW 1138   0.459   0.409   3.354
  229SOL    HW1 1139   0.542   0.361   3.355
  229SOL    HW2 1140   0.392   0.341   3.359
  230SOL     OW 1141   1.611   0.451   2.598
  230SOL    HW1 1142   1.545   0.482   2.536
  230SOL    HW2 1143   1.623   0.523   2.660
  231SOL     OW 1144   0.219   1.721   2.318
  231SOL    HW1 1145   0.240   1.794   2.376
  231SOL    HW2 1146   0.295   1.712   2.261
  232SOL     OW 1147   1.138   1.342   3.556
  232SOL    HW1 1148   1.179   1.335   3.642
  232SOL    HW2 1149   1.085   1.262   3.548
  233SOL     OW 1150   0.253   1.453   2.400
  233SOL    HW1 1151   0.217   1.540   2.386
  233SOL    HW2 1152   0.188   1.407   2.452
  234SOL     OW 1153   0.249   1.064   2.745
  234SOL    HW1 1154   0.269   0.979   2.783
  234SOL    HW2 1155   0.196   1.108   2.812
  235SOL     OW 1156   0.608   1.794   3.286
  235SOL    HW1 1157   0.525   1.776   3.331
  235SOL    HW2 1158   0.631   1.883   3.314
  236SOL     OW 1159   0.574   0.988   2.003
  236SOL    HW1 1160   0.624   1.031   1.933
  236SOL    HW2 1161   0.614   1.018   2.084
  237SOL     OW 1162   1.584   0.142   3.317
  237SOL    HW1 1163   1.616   0.215   3.263
  237SOL    HW2 1164   1.546   0.184   3.394
  238SOL     OW 1165   0.142   0.654   2.431
  238SOL    HW1 1166   0.100   0.568   2.436
  238SOL    HW2 1167   0.104   0.703   2.503
  239SOL     OW 1168   0.044   1.587   1.998
  239SOL    HW1 1169   0.040   1.496   2.028
  239SOL    HW2 1170   3.957   1.623   2.019
  240SOL     OW 1171   1.688   0.918   2.506
  240SOL    HW1 1172   1.771   0.876   2.486
  240SOL    HW2 1173   1.668   0.970   2.429
  241SOL     OW 1174   1.650   1.104   2.292
  241SOL    HW1 1175   1.737   1.105   2.251
  241SOL    HW2 1176   1.656   1.167   2.364
  242SOL     OW 1177   0.145   0.756   3.451
  242SOL    HW1 1178   0.241   0.753   3.443
  242SOL    HW2 1179   0.127   0.842   3.488
  243SOL     OW 1180   0.613   1.388   2.599
  243SOL    HW1 1181   0.568   1.305   2.607
  243SOL    HW2 1182   0.598   1.415   2.508
  244SOL     OW 1183   1.285   1.236   3.283
  244SOL    HW1 1184   1.316   1.168   3.223
  244SOL    HW2 1185   1.345   1.231   3.358
  245SOL     OW 1186   0.823   0.006   2.380
  245SOL    HW1 1187   0.868   0.086   2.354
  245SOL    HW2 1188   0.730   0.029   2.378
  246SOL     OW 1189   0.183   0.948   3.142
  246SOL    HW1 1190   0.272   0.913   3.131
  246SOL    HW2 1191   0.132   0.907   3.072
  247SOL     OW 1192   1.531   0.999   2.063
  247SOL    HW1 1193   1.462   0.942   2.096
  247SOL    HW2 1194   1.574   1.032   2.141
  248SOL     OW 1195   1.184   1.812   3.488
  248SOL    HW1 1196   1.190   1.873   3.414
  248SOL    HW2 1197   1.202   1.726   3.450
  249SOL     OW 1198   0.348   0.246   3.715
  249SOL    HW1 1199   0.390   0.330   3.695
  249SOL    HW2 1200   0.256   0.270   3.729
  250SOL     OW 1201   1.465   1.420   2.808
  250SOL    HW1 1202   1.399   1.436   2.876
  250SOL    HW2 1203   1.452   1.328   2.783
  251SOL     OW 1204   1.663   1.740   2.417
  251SOL    HW1 1205   1.631   1.703   2.334
  251SOL    HW2 1206   1.646   1.672   2.482
  252SOL     OW 1207   0.596   0.715   2.131
  252SOL    HW1 1208   0.600   0.800   2.087
  252SOL    HW2 1209   0.532   0.728   2.201
  253SOL     OW 1210   1.274   0.373   2.803
  253SOL    HW1 1211   1.187   0.334   2.811
  253SOL    HW2 1212   1.332   0.312   2.849
  254SOL     OW 1213   1.575   1.672   2.158
  254SOL    HW1 1214   1.665   1.695   2.133
  254SOL    HW2 1215   1.532   1.649   2.076
  255SOL     OW 1216   0.794   0.615   3.314
  255SOL    HW1 1217   0.765   0.588   3.401
  255SOL    HW2 1218   0.759   0.548   3.255
  256SOL     OW 1219   1.392   0.475   3.539
  256SOL    HW1 1220   1.400   0.521   3.623
  256SOL    HW2 1221   1.448   0.398   3.549
  257SOL     OW 1222   0.950   0.886   3.448
  257SOL    HW1 1223   1.005   0.818   3.410
  257SOL    HW2 1224   0.901   0.922   3.374
  258SOL     OW 1225   0.995   0.402   3.096
  258SOL    HW1 1226   0.908   0.420   3.132
  258SOL    HW2 1227   0.978   0.375   3.006
  259SOL     OW 1228   1.053   0.701   2.286
  259SOL    HW1 1229   1.072   0.694   2.380
  259SOL    HW2 1230   0.970   0.654   2.274
  260SOL     OW 1231   0.082   0.832   2.651
  260SOL    HW1 1232   0.151   0.796   2.707
  260SOL    HW2 1233   0.108   0.922   2.636
  261SOL     OW 1234   0.130   1.867   3.443
  261SOL    HW1 1235   0.138   1.831   3.531
  261SOL    HW2 1236   0.038   1.858   3.422
  262SOL     OW 1237   0.895   0.352   2.061
  262SOL    HW1 1238   0.937   0.413   2.000
  262SOL    HW2 1239   0.890   0.270   2.013
  263SOL     OW 1240   1.705   0.575   3.692
  263SOL    HW1 1241   1.669   0.649   3.643
  263SOL    HW2 1242   1.729   0.511   3.625
  264SOL     OW 1243   1.381   1.141   2.400
  264SOL    HW1 1244   1.461   1.132   2.349
  264SOL    HW2 1245   1.328   1.204   2.351
  265SOL     OW 1246   0.563   0.195   2.741
  265SOL    HW1 1247   0.568   0.220   2.834
  265SOL    HW2 1248   0.547   0.277   2.695
  266SOL     OW 1249   1.000   1.443   2.330
  266SOL    HW1 1250   0.969   1.519   2.280
  266SOL    HW2 1251   0.977   1.464   2.421
  267SOL     OW 1252   0.364   1.826   2.736
  267SOL    HW1 1253   0.424   1.753   2.746
  267SOL    HW2 1254   0.418   1.904   2.751
  268SOL     OW 1255   1.800   1.048   2.736
  268SOL    HW1 1256   1.748   1.033   2.657
  268SOL    HW2 1257   1.736   1.057   2.807
  269SOL     OW 1258   1.227   1.540   3.375
  269SOL    HW1 1259   1.215   1.468   3.437
  269SOL    HW2 1260   1.160   1.525   3.308
  270SOL     OW 1261   0.310   0.951   2.104
  270SOL    HW1 1262   0.393   0.973   2.062
  270SOL    HW2 1263   0.298   0.858   2.087
  271SOL     OW 1264   1.480   0.752   2.590
  271SOL    HW1 1265   1.477   0.711   2.676
  271SOL    HW2 1266   1.559   0.807   2.592
  272SOL     OW 1267   0.471   1.262   3.600
  272SOL    HW1 1268   0.445   1.269   3.508
  272SOL    HW2 1269   0.388   1.263   3.648
  273SOL     OW 1270   1.123   1.776   2.091
  273SOL    HW1 1271   1.047   1.737   2.135
  273SOL    HW2 1272   1.147   1.713   2.023
  274SOL     OW 1273   0.202   0.292   3.364
  274SOL    HW1 1274   0.108   0.311   3.364
  274SOL    HW2 1275   0.211   0.214   3.418
  275SOL     OW 1276   1.628   1.381   1.951
  275SOL    HW1 1277   1.586   1.466   1.934
  275SOL    HW2 1278   1.560   1.317   1.930
  276SOL     OW 1279   0.466   1.739   2.177
  276SOL    HW1 1280   0.510   1.794   2.241
  276SOL    HW2 1281   0.537   1.701   2.125
  277SOL     OW 1282   1.445   0.172   2.268
  277SOL    HW1 1283   1.392   0.104   2.227
  277SOL    HW2 1284   1.511   0.124   2.319
  278SOL     OW 1285   0.254   1.790   3.092
  278SOL    HW1 1286   0.298   1.722   3.143
  278SOL    HW2 1287   0.252   1.756   3.002
  279SOL     OW 1288   0.939   1.699   2.758
  279SOL    HW1 1289   1.019   1.651   2.779
  279SOL    HW2 1290   0.898   1.649   2.688
  280SOL     OW 1291   0.399   0.695   2.332
  280SOL    HW1 1292   0.424   0.603   2.348
  280SOL    HW2 1293   0.307   0.699   2.357
  281SOL     OW 1294   1.528   0.226   3.588
  281SOL    HW1 1295   1.521   0.251   3.681
  281SOL    HW2 1296   1.516   0.131   3.587
  282SOL     OW 1297   0.647   0.126   1.966
  282SOL    HW1 1298   0.666   0.041   2.004
  282SOL    HW2 1299   0.586   0.107   1.894
  283SOL     OW 1300   0.774   0.286   3.634
  283SOL    HW1 1301   0.853   0.233   3.633
  283SOL    HW2 1302   0.721   0.250   3.704
  284SOL     OW 1303   0.875   1.523   3.056
  284SOL    HW1 1304   0.859   1.485   2.970
  284SOL    HW2 1305   0.945   1.468   3.094
  285SOL     OW 1306   1.338   0.588   3.293
  285SOL    HW1 1307   1.369   0.559   3.379
  285SOL    HW2 1308   1.374   0.676   3.283
  286SOL     OW 1309   0.817   1.389   2.807
  286SOL    HW1 1310   0.903   1.378   2.765
  286SOL    HW2 1311   0.756   1.395   2.733
  287SOL     OW 1312   0.931   0.513   2.760
  287SOL    HW1 1313   0.906   0.504   2.668
  287SOL    HW2 1314   0.955   0.424   2.787
  288SOL     OW 1315   0.547   0.055   2.349
  288SOL    HW1 1316   0.474   0.062   2.410
  288SOL    HW2 1317   0.548   0.139   2.302
  289SOL     OW 1318   1.427   1.200   1.901
  289SOL    HW1 1319   1.457   1.125   1.953
  289SOL    HW2 1320   1.342   1.222   1.938
  290SOL     OW 1321   0.354   0.031   2.062
  290SOL    HW1 1322   0.356   0.088   1.986
  290SOL    HW2 1323   0.442   0.039   2.100
  291SOL     OW 1324   0.945   0.251   2.320
  291SOL    HW1 1325   0.919   0.290   2.236
  291SOL    HW2 1326   1.041   0.257   2.321
  292SOL     OW 1327   1.079   0.686   3.319
  292SOL    HW1 1328   1.011   0.619   3.325
  292SOL    HW2 1329   1.161   0.636   3.314
  293SOL     OW 1330   1.218   1.573   2.658
  293SOL    HW1 1331   1.233   1.638   2.589
  293SOL    HW2 1332   1.289   1.587   2.720
  294SOL     OW 1333   0.467   1.152   2.594
  294SOL    HW1 1334   0.396   1.126   2.654
  294SOL    HW2 1335   0.431   1.137   2.507
  295SOL     OW 1336   1.261   1.791   2.474
  295SOL    HW1 1337   1.307   1.854   2.418
  295SOL    HW2 1338   1.194   1.843   2.518
  296SOL     OW 1339   1.021   0.539   1.894
  296SOL    HW1 1340   0.978   0.622   1.874
  296SOL    HW2 1341   1.085   0.560   1.961
  297SOL     OW 1342   0.082   0.576   3.254
  297SOL    HW1 1343   0.171   0.557   3.224
  297SOL    HW2 1344   0.092   0.647   3.318
  298SOL     OW 1345   0.571   0.231   3.021
  298SOL    HW1 1346   0.592   0.138   3.029
  298SOL    HW2 1347   0.481   0.238   3.050
  299SOL     OW 1348   0.871   0.461   2.499
  299SOL    HW1 1349   0.821   0.514   2.437
  299SOL    HW2 1350   0.892   0.381   2.450
  300SOL     OW 1351   0.997   0.037   2.644
  300SOL    HW1 1352   0.957   0.069   2.563
  300SOL    HW2 1353   1.009   3.943   2.630
  301SOL     OW 1354   1.440   1.160   2.719
  301SOL    HW1 1355   1.368   1.096   2.718
  301SOL    HW2 1356   1.465   1.169   2.627
  302SOL     OW 1357   1.464   0.609   2.832
  302SOL    HW1 1358   1.407   0.532   2.837
  302SOL    HW2 1359   1.523   0.601   2.907
  303SOL     OW 1360   1.841   0.818   2.253
  303SOL    HW1 1361   1.899   0.766   2.308
  303SOL    HW2 1362   1.815   0.757   2.183
  304SOL     OW 1363   0.487   1.423   2.020
  304SOL    HW1 1364   0.411   1.393   2.069
  304SOL    HW2 1365   0.476   1.385   1.933
  305SOL     OW 1366   1.674   1.263   2.505
  305SOL    HW1 1367   1.769   1.261   2.520
  305SOL    HW2 1368   1.649   1.353   2.527
  306SOL     OW 1369   1.395   0.578   1.930
  306SOL    HW1 1370   1.332   0.558   1.999
  306SOL    HW2 1371   1.480   0.558   1.969
  307SOL     OW 1372   0.556   0.270   2.179
  307SOL    HW1 1373   0.606   0.231   2.108
  307SOL    HW2 1374   0.527   0.355   2.144
  308SOL     OW 1375   1.748   1.242   3.426
  308SOL    HW1 1376   1.836   1.203   3.418
  308SOL    HW2 1377   1.764   1.332   3.454
  309SOL     OW 1378   1.054   1.353   3.194
  309SOL    HW1 1379   0.979   1.322   3.244
  309SOL    HW2 1380   1.129   1.312   3.236
  310SOL     OW 1381   1.609   1.627   3.518
  310SOL    HW1 1382   1.602   1.664   3.430
  310SOL    HW2 1383   1.692   1.579   3.517
  311SOL     OW 1384   1.135   1.210   2.965
  311SOL    HW1 1385   1.074   1.247   3.029
  311SOL    HW2 1386   1.105   1.244   2.880
  312SOL     OW 1387   1.622   1.095   2.938
  312SOL    HW1 1388   1.616   1.158   3.010
  312SOL    HW2 1389   1.547   1.115   2.882
  313SOL     OW 1390   0.912   0.119   3.262
  313SOL    HW1 1391   0.932   0.089   3.174
  313SOL    HW2 1392   0.993   0.160   3.293
  314SOL     OW 1393   0.984   1.116   3.586
  314SOL    HW1 1394   0.893   1.132   3.609
  314SOL    HW2 1395   0.981   1.037   3.531
  315SOL     OW 1396   0.708   1.062   2.233
  315SOL    HW1 1397   0.694   1.043   2.325
  315SOL    HW2 1398   0.784   1.009   2.208
  316SOL     OW 1399   0.424   0.819   3.116
  316SOL    HW1 1400   0.492   0.825   3.182
  316SOL    HW2 1401   0.389   0.730   3.125
  317SOL     OW 1402   1.265   0.374   3.140
  317SOL    HW1 1403   1.298   0.453   3.184
  317SOL    HW2 1404   1.177   0.399   3.111
  318SOL     OW 1405   0.065   1.579   3.207
  318SOL    HW1 1406   0.071   1.621   3.121
  318SOL    HW2 1407   0.156   1.571   3.236
  319SOL     OW 1408   0.366   1.104   2.342
  319SOL    HW1 1409   0.361   1.183   2.289
  319SOL    HW2 1410   0.365   1.032   2.278
  320SOL     OW 1411   0.554   0.530   2.718
  320SOL    HW1 1412   0.566   0.590   2.644
  320SOL    HW2 1413   0.619   0.557   2.782
  321SOL     OW 1414   1.247   1.350   2.253
  321SOL    HW1 1415   1.303   1.420   2.285
  321SOL    HW2 1416   1.160   1.371   2.286
  322SOL     OW 1417   1.289   1.461   3.011
  322SOL    HW1 1418   1.345   1.466   3.088
  322SOL    HW2 1419   1.234   1.384   3.026
  323SOL     OW 1420   1.572   0.635   2.351
  323SOL    HW1 1421   1.528   0.687   2.419
  323SOL    HW2 1422   1.618   0.700   2.298
  324SOL     OW 1423   0.345   1.528   3.179
  324SOL    HW1 1424   0.336   1.476   3.099
  324SOL    HW2 1425   0.440   1.543   3.187
  325SOL     OW 1426   0.421   0.736   3.463
  325SOL    HW1 1427   0.485   0.780   3.407
  325SOL    HW2 1428   0.456   0.648   3.475
  326SOL     OW 1429   1.607   0.783   3.549
  326SOL    HW1 1430   1.521   0.824   3.542
  326SOL    HW2 1431   1.659   0.823   3.480
  327SOL     OW 1432   1.005   0.142   3.643
  327SOL    HW1 1433   1.065   0.210   3.611
  327SOL    HW2 1434   0.997   0.081   3.570
  328SOL     OW 1435   0.487   0.037   3.625
  328SOL    HW1 1436   0.490   0.051   3.530
  328SOL    HW2 1437   0.424   0.102   3.656
  329SOL     OW 1438   0.586   0.876   2.894
  329SOL    HW1 1439   0.620   0.965   2.898
  329SOL    HW2 1440   0.530   0.868   2.971
  330SOL     OW 1441   1.347   0.858   2.884
  330SOL    HW1 1442   1.261   0.843   2.845
  330SOL    HW2 1443   1.393   0.774   2.875
  331SOL     OW 1444   1.198   0.539   2.117
  331SOL    HW1 1445   1.207   0.460   2.170
  331SOL    HW2 1446   1.155   0.602   2.175
  332SOL     OW 1447   0.310   0.211   3.100
  332SOL    HW1 1448   0.266   0.248   3.177
  332SOL    HW2 1449   0.296   0.117   3.108
  333SOL     OW 1450   0.064   1.306   3.142
  333SOL    HW1 1451   0.092   1.262   3.222
  333SOL    HW2 1452   0.054   1.398   3.168
  334SOL     OW 1453   0.723   0.633   2.912
  334SOL    HW1 1454   0.798   0.620   2.855
  334SOL    HW2 1455   0.692   0.722   2.893
  335SOL     OW 1456   1.740   0.959   3.721
  335SOL    HW1 1457   1.695   0.894   3.667
  335SOL    HW2 1458   1.679   0.977   3.792
  336SOL     OW 1459   0.334   0.054   2.522
  336SOL    HW1 1460   0.305   0.145   2.523
  336SOL    HW2 1461   0.300   0.016   2.603
  337SOL     OW 1462   1.610   0.396   2.239
  337SOL    HW1 1463   1.563   0.327   2.288
  337SOL    HW2 1464   1.590   0.476   2.286
  338SOL     OW 1465   1.031   0.759   2.820
  338SOL    HW1 1466   1.021   0.776   2.913
  338SOL    HW2 1467   1.003   0.669   2.808
  339SOL     OW 1468   0.981   1.566   3.583
  339SOL    HW1 1469   0.965   1.610   3.499
  339SOL    HW2 1470   1.025   1.484   3.559
  340SOL     OW 1471   1.853   1.500   3.464
  340SOL    HW1 1472   1.870   1.532   3.375
  340SOL    HW2 1473   1.936   1.511   3.509
  341SOL     OW 1474   0.356   0.923   3.659
  341SOL    HW1 1475   0.433   0.943   3.712
  341SOL    HW2 1476   0.385   0.854   3.599
  342SOL     OW 1477   1.501   0.273   1.994
  342SOL    HW1 1478   1.429   0.210   2.006
  342SOL    HW2 1479   1.514   0.311   2.081
  343SOL     OW 1480   1.286   0.827   1.889
  343SOL    HW1 1481   1.329   0.741   1.893
  343SOL    HW2 1482   1.318   0.866   1.808
  344SOL     OW 1483   1.068   1.339   2.719
  344SOL    HW1 1484   1.073   1.267   2.656
  344SOL    HW2 1485   1.126   1.406   2.684
  345SOL     OW 1486   0.313   0.801   2.812
  345SOL    HW1 1487   0.407   0.817   2.806
  345SOL    HW2 1488   0.306   0.711   2.844
  346SOL     OW 1489   0.340   0.529   2.878
  346SOL    HW1 1490   0.297   0.445   2.861
  346SOL    HW2 1491   0.414   0.531   2.819
  347SOL     OW 1492   1.134   0.379   3.562
  347SOL    HW1 1493   1.085   0.434   3.624
  347SOL    HW2 1494   1.220   0.420   3.557
  348SOL     OW 1495   1.152   0.225   3.344
  348SOL    HW1 1496   1.142   0.279   3.423
  348SOL    HW2 1497   1.180   0.287   3.276
  349SOL     OW 1498   0.002   1.314   2.045
  349SOL    HW1 1499   3.907   1.331   2.047
  349SOL    HW2 1500   0.010   1.221   2.063
  350SOL     OW 1501   0.080   1.799   2.749
  350SOL    HW1 1502   0.090   1.704   2.748
  350SOL    HW2 1503   0.169   1.832   2.754
  351SOL     OW 1504   0.495   1.572   2.771
  351SOL    HW1 1505   0.564   1.632   2.797
  351SOL    HW2 1506   0.539   1.509   2.713
  352SOL     OW 1507   0.973   0.787   3.084
  352SOL    HW1 1508   1.031   0.769   3.159
  352SOL    HW2 1509   0.889   0.747   3.108
  353SOL     OW 1510   0.034   0.581   2.974
  353SOL    HW1 1511   0.090   0.522   2.923
  353SOL    HW2 1512   0.061   0.567   3.064
  354SOL     OW 1513   0.211   0.515   3.584
  354SOL    HW1 1514   0.255   0.472   3.510
  354SOL    HW2 1515   0.169   0.591   3.546
  355SOL     OW 1516   1.380   0.934   3.518
  355SOL    HW1 1517   1.402   1.027   3.514
  355SOL    HW2 1518   1.376   0.906   3.426
  356SOL     OW 1519   0.819   0.572   2.227
  356SOL    HW1 1520   0.826   0.496   2.169
  356SOL    HW2 1521   0.744   0.621   2.194
  357SOL     OW 1522   1.639   0.602   3.042
  357SOL    HW1 1523   1.630   0.542   3.116
  357SOL    HW2 1524   1.727   0.586   3.008
  358SOL     OW 1525   0.301   1.543   3.582
  358SOL    HW1 1526   0.255   1.612   3.630
  358SOL    HW2 1527   0.274   1.462   3.625
  359SOL     OW 1528   0.717   0.451   3.113
  359SOL    HW1 1529   0.664   0.374   3.091
  359SOL    HW2 1530   0.704   0.511   3.040
  360SOL     OW 1531   0.922   1.679   3.334
  360SOL    HW1 1532   0.898   1.639   3.250
  360SOL    HW2 1533   0.916   1.773   3.318
  361SOL     OW 1534   0.450   0.492   2.062
  361SOL    HW1 1535   0.515   0.561   2.079
  361SOL    HW2 1536   0.371   0.539   2.036
  362SOL     OW 1537   0.154   1.133   3.338
  362SOL    HW1 1538   0.154   1.084   3.420
  362SOL    HW2 1539   0.169   1.068   3.270
  363SOL     OW 1540   1.320   1.043   3.082
  363SOL    HW1 1541   1.342   0.980   3.013
  363SOL    HW2 1542   1.254   1.100   3.042
  364SOL     OW 1543   1.317   0.856   2.165
  364SOL    HW1 1544   1.242   0.827   2.218
  364SOL    HW2 1545   1.288   0.844   2.075
  365SOL     OW 1546   1.758   1.732   3.010
  365SOL    HW1 1547   1.830   1.758   2.953
  365SOL    HW2 1548   1.739   1.641   2.986
  366SOL     OW 1549   1.243   1.734   2.966
  366SOL    HW1 1550   1.327   1.758   2.926
  366SOL    HW2 1551   1.252   1.641   2.987
  367SOL     OW 1552   0.079   1.217   2.889
  367SOL    HW1 1553   0.085   1.242   2.981
  367SOL    HW2 1554   3.987   1.228   2.867
  368SOL     OW 1555   0.681   1.670   3.601
  368SOL    HW1 1556   0.620   1.743   3.590
  368SOL    HW2 1557   0.749   1.686   3.536
  369SOL     OW 1558   1.717   0.122   2.353
  369SOL    HW1 1559   1.794   0.134   2.298
  369SOL    HW2 1560   1.706   0.028   2.359
  370SOL     OW 1561   1.393   1.569   2.352
  370SOL    HW1 1562   1.446   1.603   2.281
  370SOL    HW2 1563   1.341   1.644   2.382
  371SOL     OW 1564   0.177   1.760   3.694
  371SOL    HW1 1565   0.121   1.708   3.751
  371SOL    HW2 1566   0.216   1.826   3.752
  372SOL     OW 1567   1.277   0.929   2.533
  372SOL    HW1 1568   1.351   0.870   2.546
  372SOL    HW2 1569   1.312   1.000   2.479
  373SOL     OW 1570   0.805   1.275   3.287
  373SOL    HW1 1571   0.777   1.318   3.367
  373SOL    HW2 1572   0.733   1.290   3.225
  374SOL     OW 1573   0.669   1.625   2.018
  374SOL    HW1 1574   0.682   1.638   1.924
  374SOL    HW2 1575   0.614   1.547   2.024
  375SOL     OW 1576   1.617   1.731   3.253
  375SOL    HW1 1577   1.668   1.734   3.171
  375SOL    HW2 1578   1.608   1.823   3.278
  376SOL     OW 1579   1.840   0.179   2.826
  376SOL    HW1 1580   1.873   0.118   2.761
  376SOL    HW2 1581   1.750   0.198   2.798
  377SOL     OW 1582   0.276   0.322   2.576
  377SOL    HW1 1583   0.191   0.355   2.548
  377SOL    HW2 1584   0.267   0.307   2.670
  378SOL     OW 1585   1.205   1.601   1.894
  378SOL    HW1 1586   1.195   1.510   1.921
  378SOL    HW2 1587   1.139   1.614   1.826
  379SOL     OW 1588   0.823   1.006   3.237
  379SOL    HW1 1589   0.866   0.999   3.152
  379SOL    HW2 1590   0.820   1.100   3.255
  380SOL     OW 1591   0.915   0.911   2.153
  380SOL    HW1 1592   0.976   0.944   2.086
  380SOL    HW2 1593   0.965   0.843   2.199
  381SOL     OW 1594   1.484   1.623   1.902
  381SOL    HW1 1595   1.390   1.616   1.885
  381SOL    HW2 1596   1.523   1.631   1.815
  382SOL     OW 1597   0.374   1.302   3.354
  382SOL    HW1 1598   0.359   1.382   3.304
  382SOL    HW2 1599   0.297   1.248   3.336
  383SOL     OW 1600   1.607   1.284   3.141
  383SOL    HW1 1601   1.668   1.270   3.212
  383SOL    HW2 1602   1.548   1.352   3.173
  384SOL     OW 1603   1.060   1.111   2.572
  384SOL    HW1 1604   0.988   1.060   2.609
  384SOL    HW2 1605   1.125   1.045   2.546
  385SOL     OW 1606   1.015   0.250   2.833
  385SOL    HW1 1607   1.006   0.200   2.753
  385SOL    HW2 1608   1.013   0.185   2.903
  386SOL     OW 1609   0.607   1.488   2.344
  386SOL    HW1 1610   0.655   1.439   2.277
  386SOL    HW2 1611   0.530   1.521   2.299
  387SOL     OW 1612   1.721   0.395   3.232
  387SOL    HW1 1613   1.795   0.457   3.238
  387SOL    HW2 1614   1.754   0.323   3.178
  388SOL     OW 1615   0.255   1.340   2.156
  388SOL    HW1 1616   0.161   1.344   2.138
  388SOL    HW2 1617   0.265   1.381   2.242
  389SOL     OW 1618   0.110   0.998   3.580
  389SOL    HW1 1619   0.050   0.992   3.655
  389SOL    HW2 1620   0.196   0.981   3.617
  390SOL     OW 1621   0.695   0.259   3.366
  390SOL    HW1 1622   0.762   0.206   3.325
  390SOL    HW2 1623   0.723   0.267   3.457
  391SOL     OW 1624   0.088   0.316   1.885
  391SOL    HW1 1625   3.993   0.316   1.879
  391SOL    HW2 1626   0.116   0.399   1.846
  392SOL     OW 1627   1.424   0.856   3.258
  392SOL    HW1 1628   1.375   0.918   3.204
  392SOL    HW2 1629   1.513   0.859   3.223
  393SOL     OW 1630   0.034   0.175   2.145
  393SOL    HW1 1631   0.037   0.224   2.063
  393SOL    HW2 1632   0.108   0.208   2.196
  394SOL     OW 1633   1.178   1.335   1.980
  394SOL    HW1 1634   1.087   1.304   1.981
  394SOL    HW2 1635   1.204   1.336   2.072
  395SOL     OW 1636   0.622   0.828   3.300
  395SOL    HW1 1637   0.679   0.903   3.284
  395SOL    HW2 1638   0.682   0.754   3.307
  396SOL     OW 1639   1.489   1.792   2.850
  396SOL    HW1 1640   1.510   1.860   2.786
  396SOL    HW2 1641   1.574   1.769   2.889
  397SOL     OW 1642   0.718   0.560   3.568
  397SOL    HW1 1643   0.764   0.620   3.626
  397SOL    HW2 1644   0.741   0.473   3.601
  398SOL     OW 1645   1.473   1.194   3.491
  398SOL    HW1 1646   1.462   1.209   3.584
  398SOL    HW2 1647   1.566   1.214   3.475
  399SOL     OW 1648   0.377   1.745   3.417
  399SOL    HW1 1649   0.290   1.783   3.406
  399SOL    HW2 1650   0.361   1.662   3.462
  400SOL     OW 1651   1.664   0.880   3.118
  400SOL    HW1 1652   1.661   0.795   3.074
  400SOL    HW2 1653   1.654   0.943   3.047
  401SOL     OW 1654   1.222   0.339   2.302
  401SOL    HW1 1655   1.291   0.272   2.295
  401SOL    HW2 1656   1.239   0.383   2.385
  402SOL     OW 1657   0.589   0.736   2.535
  402SOL    HW1 1658   0.627   0.823   2.519
  402SOL    HW2 1659   0.523   0.727   2.466
  403SOL     OW 1660   1.748   0.384   3.505
  403SOL    HW1 1661   1.731   0.390   3.411
  403SOL    HW2 1662   1.691   0.313   3.535
  404SOL     OW 1663   1.748   0.934   3.373
  404SOL    HW1 1664   1.737   1.028   3.386
  404SOL    HW2 1665   1.730   0.920   3.280
  405SOL     OW 1666   0.864   1.365   1.904
  405SOL    HW1 1667   0.826   1.393   1.988
  405SOL    HW2 1668   0.879   1.446   1.856
  406SOL     OW 1669   0.664   1.784   2.801
  406SOL    HW1 1670   0.645   1.876   2.781
  406SOL    HW2 1671   0.759   1.778   2.795
  407SOL     OW 1672   0.870   0.970   2.715
  407SOL    HW1 1673   0.920   0.898   2.752
  407SOL    HW2 1674   0.831   1.014   2.790
  408SOL     OW 1675   1.077   0.989   1.951
  408SOL    HW1 1676   1.055   1.041   1.874
  408SOL    HW2 1677   1.151   0.935   1.924
  409SOL     OW 1678   1.841   1.537   2.693
  409SOL    HW1 1679   1.758   1.537   2.646
  409SOL    HW2 1680   1.826   1.480   2.769
  410SOL     OW 1681   0.229   1.304   3.719
  410SOL    HW1 1682   0.154   1.252   3.690
  410SOL    HW2 1683   0.215   1.317   3.813
  411SOL     OW 1684   0.129   1.286   2.587
  411SOL    HW1 1685   0.143   1.233   2.665
  411SOL    HW2 1686   0.106   1.223   2.519
  412SOL     OW 1687   0.684   1.408   3.493
  412SOL    HW1 1688   0.604   1.365   3.525
  412SOL    HW2 1689   0.680   1.496   3.530
  413SOL     OW 1690   1.809   0.183   3.098
  413SOL    HW1 1691   1.813   0.089   3.115
  413SOL    HW2 1692   1.826   0.191   3.004
  414SOL     OW 1693   0.447   0.439   2.393
  414SOL    HW1 1694   0.471   0.362   2.341
  414SOL    HW2 1695   0.391   0.403   2.463
  415SOL     OW 1696   1.701   1.475   2.945
  415SOL    HW1 1697   1.618   1.459   2.900
  415SOL    HW2 1698   1.704   1.409   3.014
  416SOL     OW 1699   0.335   0.560   3.156
  416SOL    HW1 1700   0.391   0.503   3.209
  416SOL    HW2 1701   0.350   0.530   3.066
  417SOL     OW 1702   0.831   1.580   2.536
  417SOL    HW1 1703   0.813   1.646   2.470
  417SOL    HW2 1704   0.756   1.521   2.533
  418SOL     OW 1705   1.459   0.256   2.972
  418SOL    HW1 1706   1.479   0.170   3.008
  418SOL    HW2 1707   1.405   0.298   3.038
  419SOL     OW 1708   1.001   0.025   3.007
  419SOL    HW1 1709   0.918   0.001   2.966
  419SOL    HW2 1710   1.049   3.943   3.016
  420SOL     OW 1711   0.774   1.334   2.183
  420SOL    HW1 1712   0.747   1.242   2.190
  420SOL    HW2 1713   0.856   1.338   2.232
  421SOL     OW 1714   0.621   1.557   3.149
  421SOL    HW1 1715   0.622   1.640   3.198
  421SOL    HW2 1716   0.709   1.550   3.112
  422SOL     OW 1717   1.307   0.073   2.029
  422SOL    HW1 1718   1.317   3.987   1.987
  422SOL    HW2 1719   1.223   0.068   2.075
  423SOL     OW 1720   1.279   0.456   2.545
  423SOL    HW1 1721   1.233   0.540   2.539
  423SOL    HW2 1722   1.282   0.437   2.639
  424SOL     OW 1723   1.587   0.209   2.730
  424SOL    HW1 1724   1.537   0.235   2.808
  424SOL    HW2 1725   1.588   0.288   2.676
  425SOL     OW 1726   0.047   1.046   2.106
  425SOL    HW1 1727   0.142   1.031   2.098
  425SOL    HW2 1728   0.011   0.960   2.126
  426SOL     OW 1729   0.889   1.659   2.199
  426SOL    HW1 1730   0.813   1.644   2.142
  426SOL    HW2 1731   0.861   1.732   2.256
  427SOL     OW 1732   0.232   0.631   3.839
  427SOL    HW1 1733   0.139   0.635   3.860
  427SOL    HW2 1734   0.235   0.600   3.749
  428SOL     OW 1735   0.223   0.291   4.706
  428SOL    HW1 1736   0.245   0.251   4.790
  428SOL    HW2 1737   0.128   0.282   4.700
  429SOL     OW 1738   0.019   0.384   4.360
  429SOL    HW1 1739   3.928   0.400   4.384
  429SOL    HW2 1740   0.024   0.289   4.347
  430SOL     OW 1741   0.584   1.294   4.922
  430SOL    HW1 1742   0.498   1.294   4.881
  430SOL    HW2 1743   0.596   1.384   4.953
  431SOL     OW 1744   1.572   1.514   4.433
  431SOL    HW1 1745   1.529   1.493   4.516
  431SOL    HW2 1746   1.500   1.520   4.369
  432SOL     OW 1747   1.134   0.699   4.418
  432SOL    HW1 1748   1.181   0.782   4.407
  432SOL    HW2 1749   1.086   0.710   4.500
  433SOL     OW 1750   1.775   0.620   3.946
  433SOL    HW1 1751   1.749   0.612   3.854
  433SOL    HW2 1752   1.753   0.534   3.984
  434SOL     OW 1753   0.748   1.137   4.769
  434SOL    HW1 1754   0.688   1.174   4.833
  434SOL    HW2 1755   0.786   1.212   4.724
  435SOL     OW 1756   0.875   0.765   5.549
  435SOL    HW1 1757   0.865   0.836   5.613
  435SOL    HW2 1758   0.896   0.810   5.467
  436SOL     OW 1759   0.685   1.000   4.368
  436SOL    HW1 1760   0.751   0.990   4.436
  436SOL    HW2 1761   0.616   1.053   4.410
  437SOL     OW 1762   0.713   1.148   5.543
  437SOL    HW1 1763   0.761   1.225   5.574
  437SOL    HW2 1764   0.633   1.183   5.504
  438SOL     OW 1765   0.352   1.399   4.803
  438SOL    HW1 1766   0.271   1.375   4.757
  438SOL    HW2 1767   0.398   1.457   4.742
  439SOL     OW 1768   1.460   1.503   5.084
  439SOL    HW1 1769   1.514   1.582   5.093
  439SOL    HW2 1770   1.392   1.513   5.151
  440SOL     OW 1771   0.459   0.409   5.216
  440SOL    HW1 1772   0.542   0.361   5.217
  440SOL    HW2 1773   0.392   0.341   5.221
  441SOL     OW 1774   1.611   0.451   4.460
  441SOL    HW1 1775   1.545   0.482   4.398
  441SOL    HW2 1776   1.623   0.523   4.522
  442SOL     OW 1777   0.219   1.721   4.180
  442SOL    HW1 1778   0.240   1.794   4.238
  442SOL    HW2 1779   0.295   1.712   4.123
  443SOL     OW 1780   1.138   1.342   5.418
  443SOL    HW1 1781   1.179   1.336   5.504
  443SOL    HW2 1782   1.086   1.262   5.410
  444SOL     OW 1783   0.253   1.453   4.262
  444SOL    HW1 1784   0.217   1.540   4.248
  444SOL    HW2 1785   0.188   1.407   4.314
  445SOL     OW 1786   0.249   1.064   4.607
  445SOL    HW1 1787   0.269   0.979   4.645
  445SOL    HW2 1788   0.196   1.108   4.674
  446SOL     OW 1789   0.608   1.794   5.148
  446SOL    HW1 1790   0.525   1.776   5.193
  446SOL    HW2 1791   0.632   1.883   5.176
  447SOL     OW 1792   0.574   0.988   3.865
  447SOL    HW1 1793   0.624   1.031   3.795
  447SOL    HW2 1794   0.614   1.018   3.946
  448SOL     OW 1795   1.584   0.142   5.179
  448SOL    HW1 1796   1.616   0.215   5.125
  448SOL    HW2 1797   1.546   0.184   5.256
  449SOL     OW 1798   0.142   0.654   4.293
  449SOL    HW1 1799   0.100   0.568   4.298
  449SOL    HW2 1800   0.104   0.703   4.365
  450SOL     OW 1801   0.044   1.587   3.860
  450SOL    HW1 1802   0.040   1.496   3.890
  450SOL    HW2 1803   3.957   1.623   3.881
  451SOL     OW 1804   1.688   0.918   4.368
  451SOL    HW1 1805   1.771   0.875   4.347
  451SOL    HW2 1806   1.668   0.970   4.291
  452SOL     OW 1807   1.650   1.104   4.154
  452SOL    HW1 1808   1.737   1.105   4.113
  452SOL    HW2 1809   1.656   1.167   4.225
  453SOL     OW 1810   0.146   0.756   5.313
  453SOL    HW1 1811   0.241   0.753   5.305
  453SOL    HW2 1812   0.127   0.842   5.350
  454SOL     OW 1813   0.613   1.388   4.461
  454SOL    HW1 1814   0.568   1.305   4.469
  454SOL    HW2 1815   0.598   1.415   4.370
  455SOL     OW 1816   1.285   1.236   5.145
  455SOL    HW1 1817   1.316   1.168   5.085
  455SOL    HW2 1818   1.345   1.231   5.220
  456SOL     OW 1819   0.823   0.006   4.242
  456SOL    HW1 1820   0.868   0.086   4.216
  456SOL    HW2 1821   0.730   0.029   4.240
  457SOL     OW 1822   0.183   0.948   5.004
  457SOL    HW1 1823   0.272   0.913   4.993
  457SOL    HW2 1824   0.132   0.907   4.934
  458SOL     OW 1825   1.532   0.999   3.925
  458SOL    HW1 1826   1.462   0.942   3.958
  458SOL    HW2 1827   1.574   1.032   4.003
  459SOL     OW 1828   1.185   1.811   5.351
  459SOL    HW1 1829   1.191   1.873   5.278
  459SOL    HW2 1830   1.203   1.726   5.311
  460SOL     OW 1831   0.348   0.246   5.577
  460SOL    HW1 1832   0.391   0.330   5.557
  460SOL    HW2 1833   0.256   0.270   5.591
  461SOL     OW 1834   1.465   1.419   4.670
  461SOL    HW1 1835   1.399   1.435   4.737
  461SOL    HW2 1836   1.452   1.328   4.645
  462SOL     OW 1837   1.662   1.740   4.279
  462SOL    HW1 1838   1.631   1.703   4.196
  462SOL    HW2 1839   1.645   1.672   4.344
  463SOL     OW 1840   0.596   0.715   3.993
  463SOL    HW1 1841   0.600   0.800   3.949
  463SOL    HW2 1842   0.532   0.728   4.063
  464SOL     OW 1843   1.274   0.373   4.665
  464SOL    HW1 1844   1.187   0.334   4.673
  464SOL    HW2 1845   1.332   0.312   4.711
  465SOL     OW 1846   1.575   1.672   4.020
  465SOL    HW1 1847   1.665   1.694   3.995
  465SOL    HW2 1848   1.532   1.649   3.938
  466SOL     OW 1849   0.794   0.615   5.176
  466SOL    HW1 1850   0.765   0.588   5.263
  466SOL    HW2 1851   0.759   0.548   5.117
  467SOL     OW 1852   1.392   0.475   5.401
  467SOL    HW1 1853   1.399   0.521   5.485
  467SOL    HW2 1854   1.448   0.398   5.411
  468SOL     OW 1855   0.950   0.886   5.310
  468SOL    HW1 1856   1.005   0.818   5.272
  468SOL    HW2 1857   0.901   0.922   5.236
  469SOL     OW 1858   0.995   0.402   4.958
  469SOL    HW1 1859   0.908   0.420   4.994
  469SOL    HW2 1860   0.978   0.375   4.868
  470SOL     OW 1861   1.053   0.701   4.148
  470SOL    HW1 1862   1.072   0.694   4.242
  470SOL    HW2 1863   0.970   0.654   4.136
  471SOL     OW 1864   0.082   0.832   4.513
  471SOL    HW1 1865   0.151   0.796   4.569
  471SOL    HW2 1866   0.108   0.922   4.498
  472SOL     OW 1867   0.130   1.867   5.305
  472SOL    HW1 1868   0.138   1.831   5.393
  472SOL    HW2 1869   0.038   1.858   5.284
  473SOL     OW 1870   0.895   0.352   3.923
  473SOL    HW1 1871   0.937   0.413   3.862
  473SOL    HW2 1872   0.890   0.270   3.875
  474SOL     OW 1873   1.705   0.575   5.554
  474SOL    HW1 1874   1.669   0.648   5.505
  474SOL    HW2 1875   1.730   0.511   5.487
  475SOL     OW 1876   1.381   1.141   4.262
  475SOL    HW1 1877   1.461   1.132   4.211
  475SOL    HW2 1878   1.328   1.204   4.213
  476SOL     OW 1879   0.563   0.195   4.603
  476SOL    HW1 1880   0.568   0.220   4.696
  476SOL    HW2 1881   0.547   0.277   4.557
  477SOL     OW 1882   1.000   1.443   4.192
  477SOL    HW1 1883   0.969   1.519   4.142
  477SOL    HW2 1884   0.977   1.464   4.283
  478SOL     OW 1885   0.364   1.826   4.598
  478SOL    HW1 1886   0.425   1.753   4.608
  478SOL    HW2 1887   0.418   1.904   4.613
  479SOL     OW 1888   1.800   1.048   4.598
  479SOL    HW1 1889   1.748   1.033   4.519
  479SOL    HW2 1890   1.736   1.057   4.668
  480SOL     OW 1891   1.227   1.540   5.237
  480SOL    HW1 1892   1.215   1.468   5.299
  480SOL    HW2 1893   1.160   1.525   5.170
  481SOL     OW 1894   0.310   0.951   3.966
  481SOL    HW1 1895   0.393   0.973   3.924
  481SOL    HW2 1896   0.298   0.858   3.949
  482SOL     OW 1897   1.480   0.752   4.452
  482SOL    HW1 1898   1.477   0.711   4.538
  482SOL    HW2 1899   1.559   0.807   4.454
  483SOL     OW 1900   0.471   1.262   5.462
  483SOL    HW1 1901   0.445   1.269   5.370
  483SOL    HW2 1902   0.388   1.264   5.510
  484SOL     OW 1903   1.123   1.776   3.953
  484SOL    HW1 1904   1.047   1.737   3.997
  484SOL    HW2 1905   1.147   1.713   3.885
  485SOL     OW 1906   0.202   0.292   5.225
  485SOL    HW1 1907   0.108   0.311   5.226
  485SOL    HW2 1908   0.211   0.214   5.281
  486SOL     OW 1909   1.628   1.381   3.813
  486SOL    HW1 1910   1.586   1.466   3.796
  486SOL    HW2 1911   1.560   1.317   3.793
  487SOL     OW 1912   0.466   1.739   4.039
  487SOL    HW1 1913   0.510   1.794   4.103
  487SOL    HW2 1914   0.537   1.701   3.987
  488SOL     OW 1915   1.445   0.172   4.130
  488SOL    HW1 1916   1.392   0.104   4.089
  488SOL    HW2 1917   1.511   0.125   4.181
  489SOL     OW 1918   0.254   1.790   4.954
  489SOL    HW1 1919   0.298   1.722   5.005
  489SOL    HW2 1920   0.253   1.756   4.865
  490SOL     OW 1921   0.939   1.700   4.620
  490SOL    HW1 1922   1.019   1.651   4.641
  490SOL    HW2 1923   0.898   1.649   4.550
  491SOL     OW 1924   0.399   0.695   4.194
  491SOL    HW1 1925   0.424   0.603   4.210
  491SOL    HW2 1926   0.307   0.699   4.219
  492SOL     OW 1927   1.528   0.226   5.450
  492SOL    HW1 1928   1.521   0.251   5.542
  492SOL    HW2 1929   1.516   0.132   5.449
  493SOL     OW 1930   0.647   0.126   3.828
  493SOL    HW1 1931   0.666   0.041   3.866
  493SOL    HW2 1932   0.586   0.107   3.756
  494SOL     OW 1933   0.774   0.286   5.496
  494SOL    HW1 1934   0.853   0.233   5.496
  494SOL    HW2 1935   0.721   0.250   5.567
  495SOL     OW 1936   0.875   1.523   4.918
  495SOL    HW1 1937   0.858   1.485   4.832
  495SOL    HW2 1938   0.945   1.468   4.955
  496SOL     OW 1939   1.338   0.588   5.155
  496SOL    HW1 1940   1.369   0.559   5.241
  496SOL    HW2 1941   1.374   0.676   5.145
  497SOL     OW 1942   0.818   1.389   4.669
  497SOL    HW1 1943   0.903   1.378   4.627
  497SOL    HW2 1944   0.756   1.395   4.595
  498SOL     OW 1945   0.931   0.513   4.622
  498SOL    HW1 1946   0.906   0.504   4.530
  498SOL    HW2 1947   0.955   0.424   4.649
  499SOL     OW 1948   0.547   0.055   4.211
  499SOL    HW1 1949   0.474   0.062   4.272
  499SOL    HW2 1950   0.548   0.139   4.164
  500SOL     OW 1951   1.428   1.200   3.763
  500SOL    HW1 1952   1.457   1.125   3.815
  500SOL    HW2 1953   1.342   1.222   3.800
  501SOL     OW 1954   0.354   0.031   3.925
  501SOL    HW1 1955   0.356   0.088   3.848
  501SOL    HW2 1956   0.442   0.039   3.963
  502SOL     OW 1957   0.945   0.251   4.182
  502SOL    HW1 1958   0.919   0.290   4.098
  502SOL    HW2 1959   1.041   0.257   4.183
  503SOL     OW 1960   1.079   0.686   5.180
  503SOL    HW1 1961   1.010   0.619   5.187
  503SOL    HW2 1962   1.160   0.636   5.176
  504SOL     OW 1963   1.218   1.572   4.519
  504SOL    HW1 1964   1.233   1.638   4.451
  504SOL    HW2 1965   1.289   1.587   4.582
  505SOL     OW 1966   0.467   1.152   4.456
  505SOL    HW1 1967   0.396   1.126   4.516
  505SOL    HW2 1968   0.430   1.137   4.369
  506SOL     OW 1969   1.261   1.791   4.336
  506SOL    HW1 1970   1.307   1.854   4.280
  506SOL    HW2 1971   1.193   1.843   4.380
  507SOL     OW 1972   1.021   0.539   3.756
  507SOL    HW1 1973   0.978   0.622   3.736
  507SOL    HW2 1974   1.085   0.560   3.823
  508SOL     OW 1975   0.082   0.576   5.116
  508SOL    HW1 1976   0.171   0.557   5.086
  508SOL    HW2 1977   0.092   0.647   5.180
  509SOL     OW 1978   0.571   0.231   4.882
  509SOL    HW1 1979   0.592   0.138   4.891
  509SOL    HW2 1980   0.481   0.238   4.912
  510SOL     OW 1981   0.871   0.461   4.361
  510SOL    HW1 1982   0.821   0.514   4.299
  510SOL    HW2 1983   0.892   0.381   4.312
  511SOL     OW 1984   0.997   0.037   4.506
  511SOL    HW1 1985   0.957   0.069   4.425
  511SOL    HW2 1986   1.010   3.943   4.492
  512SOL     OW 1987   1.440   1.160   4.581
  512SOL    HW1 1988   1.368   1.096   4.580
  512SOL    HW2 1989   1.465   1.169   4.489
  513SOL     OW 1990   1.464   0.609   4.694
  513SOL    HW1 1991   1.407   0.532   4.699
  513SOL    HW2 1992   1.522   0.601   4.769
  514SOL     OW 1993   1.841   0.818   4.115
  514SOL    HW1 1994   1.899   0.766   4.170
  514SOL    HW2 1995   1.815   0.758   4.045
  515SOL     OW 1996   0.487   1.423   3.882
  515SOL    HW1 1997   0.411   1.393   3.931
  515SOL    HW2 1998   0.476   1.385   3.795
  516SOL     OW 1999   1.674   1.263   4.367
  516SOL    HW1 2000   1.769   1.261   4.382
  516SOL    HW2 2001   1.649   1.353   4.389
  517SOL     OW 2002   1.395   0.578   3.792
  517SOL    HW1 2003   1.332   0.558   3.861
  517SOL    HW2 2004   1.480   0.558   3.831
  518SOL     OW 2005   0.556   0.270   4.041
  518SOL    HW1 2006   0.607   0.231   3.970
  518SOL    HW2 2007   0.527   0.355   4.006
  519SOL     OW 2008   1.748   1.241   5.287
  519SOL    HW1 2009   1.836   1.203   5.279
  519SOL    HW2 2010   1.764   1.331   5.316
  520SOL     OW 2011   1.054   1.353   5.056
  520SOL    HW1 2012   0.979   1.322   5.106
  520SOL    HW2 2013   1.129   1.312   5.098
  521SOL     OW 2014   1.609   1.626   5.378
  521SOL    HW1 2015   1.603   1.664   5.290
  521SOL    HW2 2016   1.693   1.578   5.377
  522SOL     OW 2017   1.135   1.210   4.827
  522SOL    HW1 2018   1.074   1.247   4.891
  522SOL    HW2 2019   1.105   1.244   4.742
  523SOL     OW 2020   1.622   1.095   4.800
  523SOL    HW1 2021   1.616   1.158   4.872
  523SOL    HW2 2022   1.547   1.115   4.744
  524SOL     OW 2023   0.912   0.119   5.125
  524SOL    HW1 2024   0.932   0.089   5.036
  524SOL    HW2 2025   0.993   0.160   5.155
  525SOL     OW 2026   0.984   1.116   5.447
  525SOL    HW1 2027   0.893   1.132   5.471
  525SOL    HW2 2028   0.981   1.037   5.393
  526SOL     OW 2029   0.708   1.062   4.095
  526SOL    HW1 2030   0.694   1.043   4.187
  526SOL    HW2 2031   0.784   1.009   4.070
  527SOL     OW 2032   0.424   0.819   4.977
  527SOL    HW1 2033   0.492   0.825   5.044
  527SOL    HW2 2034   0.389   0.730   4.987
  528SOL     OW 2035   1.265   0.375   5.002
  528SOL    HW1 2036   1.298   0.453   5.046
  528SOL    HW2 2037   1.177   0.399   4.973
  529SOL     OW 2038   0.065   1.579   5.069
  529SOL    HW1 2039   0.071   1.622   4.983
  529SOL    HW2 2040   0.156   1.570   5.098
  530SOL     OW 2041   0.366   1.104   4.204
  530SOL    HW1 2042   0.361   1.183   4.151
  530SOL    HW2 2043   0.365   1.032   4.140
  531SOL     OW 2044   0.554   0.530   4.580
  531SOL    HW1 2045   0.566   0.590   4.506
  531SOL    HW2 2046   0.619   0.557   4.644
  532SOL     OW 2047   1.247   1.350   4.115
  532SOL    HW1 2048   1.303   1.420   4.147
  532SOL    HW2 2049   1.160   1.371   4.148
  533SOL     OW 2050   1.289   1.461   4.873
  533SOL    HW1 2051   1.345   1.466   4.950
  533SOL    HW2 2052   1.234   1.384   4.888
  534SOL     OW 2053   1.572   0.635   4.213
  534SOL    HW1 2054   1.528   0.687   4.281
  534SOL    HW2 2055   1.618   0.700   4.160
  535SOL     OW 2056   0.345   1.528   5.041
  535SOL    HW1 2057   0.336   1.476   4.961
  535SOL    HW2 2058   0.440   1.543   5.049
  536SOL     OW 2059   0.421   0.736   5.325
  536SOL    HW1 2060   0.485   0.780   5.269
  536SOL    HW2 2061   0.457   0.648   5.337
  537SOL     OW 2062   1.608   0.782   5.411
  537SOL    HW1 2063   1.522   0.824   5.404
  537SOL    HW2 2064   1.660   0.823   5.342
  538SOL     OW 2065   1.005   0.142   5.505
  538SOL    HW1 2066   1.065   0.210   5.473
  538SOL    HW2 2067   0.997   0.081   5.432
  539SOL     OW 2068   0.487   0.037   5.486
  539SOL    HW1 2069   0.490   0.051   5.392
  539SOL    HW2 2070   0.424   0.102   5.518
  540SOL     OW 2071   0.586   0.876   4.756
  540SOL    HW1 2072   0.620   0.965   4.760
  540SOL    HW2 2073   0.530   0.868   4.833
  541SOL     OW 2074   1.347   0.858   4.746
  541SOL    HW1 2075   1.261   0.843   4.707
  541SOL    HW2 2076   1.393   0.774   4.737
  542SOL     OW 2077   1.198   0.539   3.979
  542SOL    HW1 2078   1.207   0.460   4.032
  542SOL    HW2 2079   1.155   0.602   4.037
  543SOL     OW 2080   0.310   0.211   4.962
  543SOL    HW1 2081   0.266   0.248   5.039
  543SOL    HW2 2082   0.296   0.117   4.970
  544SOL     OW 2083   0.063   1.306   5.004
  544SOL    HW1 2084   0.092   1.262   5.084
  544SOL    HW2 2085   0.054   1.398   5.030
  545SOL     OW 2086   0.722   0.633   4.774
  545SOL    HW1 2087   0.798   0.620   4.717
  545SOL    HW2 2088   0.692   0.722   4.755
  546SOL     OW 2089   1.740   0.959   5.582
  546SOL    HW1 2090   1.696   0.893   5.529
  546SOL    HW2 2091   1.680   0.977   5.654
  547SOL     OW 2092   0.334   0.054   4.384
  547SOL    HW1 2093   0.305   0.145   4.385
  547SOL    HW2 2094   0.300   0.016   4.465
  548SOL     OW 2095   1.610   0.396   4.101
  548SOL    HW1 2096   1.563   0.327   4.150
  548SOL    HW2 2097   1.590   0.476   4.148
  549SOL     OW 2098   1.031   0.759   4.682
  549SOL    HW1 2099   1.021   0.776   4.775
  549SOL    HW2 2100   1.003   0.669   4.670
  550SOL     OW 2101   0.982   1.566   5.445
  550SOL    HW1 2102   0.966   1.610   5.362
  550SOL    HW2 2103   1.025   1.484   5.422
  551SOL     OW 2104   1.853   1.500   5.326
  551SOL    HW1 2105   1.870   1.532   5.237
  551SOL    HW2 2106   1.937   1.510   5.371
  552SOL     OW 2107   0.356   0.923   5.521
  552SOL    HW1 2108   0.433   0.943   5.574
  552SOL    HW2 2109   0.386   0.854   5.461
  553SOL     OW 2110   1.501   0.273   3.856
  553SOL    HW1 2111   1.429   0.210   3.868
  553SOL    HW2 2112   1.514   0.311   3.943
  554SOL     OW 2113   1.286   0.827   3.751
  554SOL    HW1 2114   1.329   0.741   3.755
  554SOL    HW2 2115   1.318   0.866   3.670
  555SOL     OW 2116   1.068   1.339   4.581
  555SOL    HW1 2117   1.074   1.267   4.518
  555SOL    HW2 2118   1.127   1.406   4.546
  556SOL     OW 2119   0.313   0.801   4.674
  556SOL    HW1 2120   0.407   0.817   4.668
  556SOL    HW2 2121   0.306   0.711   4.706
  557SOL     OW 2122   0.340   0.529   4.740
  557SOL    HW1 2123   0.297   0.445   4.723
  557SOL    HW2 2124   0.414   0.531   4.681
  558SOL     OW 2125   1.134   0.379   5.424
  558SOL    HW1 2126   1.085   0.434   5.486
  558SOL    HW2 2127   1.220   0.420   5.419
  559SOL     OW 2128   1.152   0.225   5.206
  559SOL    HW1 2129   1.142   0.279   5.285
  559SOL    HW2 2130   1.180   0.287   5.138
  560SOL     OW 2131   0.002   1.314   3.907
  560SOL    HW1 2132   3.907   1.331   3.909
  560SOL    HW2 2133   0.010   1.221   3.925
  561SOL     OW 2134   0.080   1.799   4.611
  561SOL    HW1 2135   0.089   1.704   4.610
  561SOL    HW2 2136   0.169   1.832   4.616
  562SOL     OW 2137   0.495   1.571   4.633
  562SOL    HW1 2138   0.564   1.632   4.659
  562SOL    HW2 2139   0.539   1.509   4.575
  563SOL     OW 2140   0.973   0.787   4.946
  563SOL    HW1 2141   1.031   0.769   5.021
  563SOL    HW2 2142   0.889   0.747   4.970
  564SOL     OW 2143   0.034   0.581   4.836
  564SOL    HW1 2144   0.091   0.523   4.785
  564SOL    HW2 2145   0.061   0.567   4.926
  565SOL     OW 2146   0.211   0.515   5.446
  565SOL    HW1 2147   0.255   0.472   5.372
  565SOL    HW2 2148   0.169   0.592   5.408
  566SOL     OW 2149   1.380   0.934   5.380
  566SOL    HW1 2150   1.402   1.027   5.376
  566SOL    HW2 2151   1.376   0.906   5.288
  567SOL     OW 2152   0.819   0.572   4.089
  567SOL    HW1 2153   0.826   0.496   4.031
  567SOL    HW2 2154   0.744   0.621   4.056
  568SOL     OW 2155   1.639   0.603   4.904
  568SOL    HW1 2156   1.630   0.542   4.977
  568SOL    HW2 2157   1.727   0.586   4.870
  569SOL     OW 2158   0.301   1.543   5.444
  569SOL    HW1 2159   0.255   1.612   5.492
  569SOL    HW2 2160   0.274   1.462   5.487
  570SOL     OW 2161   0.717   0.451   4.975
  570SOL    HW1 2162   0.664   0.374   4.953
  570SOL    HW2 2163   0.704   0.511   4.902
  571SOL     OW 2164   0.922   1.679   5.196
  571SOL    HW1 2165   0.898   1.640   5.112
  571SOL    HW2 2166   0.916   1.773   5.180
  572SOL     OW 2167   0.450   0.492   3.924
  572SOL    HW1 2168   0.515   0.561   3.941
  572SOL    HW2 2169   0.371   0.539   3.898
  573SOL     OW 2170   0.153   1.133   5.200
  573SOL    HW1 2171   0.154   1.084   5.282
  573SOL    HW2 2172   0.169   1.068   5.132
  574SOL     OW 2173   1.321   1.043   4.944
  574SOL    HW1 2174   1.342   0.980   4.875
  574SOL    HW2 2175   1.254   1.100   4.904
  575SOL     OW 2176   1.317   0.856   4.027
  575SOL    HW1 2177   1.242   0.827   4.080
  575SOL    HW2 2178   1.288   0.844   3.937
  576SOL     OW 2179   1.753   1.731   4.869
  576SOL    HW1 2180   1.827   1.756   4.814
  576SOL    HW2 2181   1.735   1.640   4.846
  577SOL     OW 2182   1.243   1.734   4.828
  577SOL    HW1 2183   1.327   1.758   4.788
  577SOL    HW2 2184   1.252   1.641   4.849
  578SOL     OW 2185   0.079   1.217   4.751
  578SOL    HW1 2186   0.085   1.242   4.843
  578SOL    HW2 2187   3.987   1.228   4.729
  579SOL     OW 2188   0.681   1.670   5.463
  579SOL    HW1 2189   0.620   1.743   5.453
  579SOL    HW2 2190   0.749   1.686   5.398
  580SOL     OW 2191   1.717   0.122   4.215
  580SOL    HW1 2192   1.794   0.134   4.160
  580SOL    HW2 2193   1.706   0.028   4.222
  581SOL     OW 2194   1.393   1.569   4.214
  581SOL    HW1 2195   1.446   1.603   4.143
  581SOL    HW2 2196   1.341   1.644   4.243
  582SOL     OW 2197   0.178   1.760   5.556
  582SOL    HW1 2198   0.122   1.708   5.613
  582SOL    HW2 2199   0.217   1.826   5.614
  583SOL     OW 2200   1.277   0.929   4.395
  583SOL    HW1 2201   1.351   0.870   4.408
  583SOL    HW2 2202   1.312   1.000   4.341
  584SOL     OW 2203   0.805   1.275   5.148
  584SOL    HW1 2204   0.777   1.318   5.229
  584SOL    HW2 2205   0.733   1.290   5.087
  585SOL     OW 2206   0.670   1.625   3.880
  585SOL    HW1 2207   0.682   1.638   3.786
  585SOL    HW2 2208   0.614   1.547   3.886
  586SOL     OW 2209   1.618   1.730   5.114
  586SOL    HW1 2210   1.666   1.733   5.031
  586SOL    HW2 2211   1.608   1.822   5.139
  587SOL     OW 2212   1.840   0.179   4.688
  587SOL    HW1 2213   1.873   0.118   4.622
  587SOL    HW2 2214   1.750   0.198   4.660
  588SOL     OW 2215   0.276   0.321   4.438
  588SOL    HW1 2216   0.191   0.355   4.410
  588SOL    HW2 2217   0.267   0.307   4.532
  589SOL     OW 2218   1.206   1.601   3.756
  589SOL    HW1 2219   1.195   1.510   3.783
  589SOL    HW2 2220   1.139   1.614   3.688
  590SOL     OW 2221   0.823   1.006   5.099
  590SOL    HW1 2222   0.866   1.000   5.014
  590SOL    HW2 2223   0.820   1.100   5.118
  591SOL     OW 2224   0.915   0.911   4.015
  591SOL    HW1 2225   0.976   0.944   3.948
  591SOL    HW2 2226   0.965   0.843   4.061
  592SOL     OW 2227   1.484   1.623   3.764
  592SOL    HW1 2228   1.390   1.616   3.747
  592SOL    HW2 2229   1.523   1.631   3.677
  593SOL     OW 2230   0.374   1.302   5.216
  593SOL    HW1 2231   0.359   1.382   5.166
  593SOL    HW2 2232   0.297   1.248   5.198
  594SOL     OW 2233   1.607   1.284   5.003
  594SOL    HW1 2234   1.668   1.269   5.076
  594SOL    HW2 2235   1.547   1.352   5.035
  595SOL     OW 2236   1.060   1.111   4.434
  595SOL    HW1 2237   0.988   1.060   4.471
  595SOL    HW2 2238   1.125   1.045   4.408
  596SOL     OW 2239   1.015   0.250   4.695
  596SOL    HW1 2240   1.006   0.200   4.615
  596SOL    HW2 2241   1.013   0.185   4.765
  597SOL     OW 2242   0.607   1.488   4.206
  597SOL    HW1 2243   0.655   1.439   4.139
  597SOL    HW2 2244   0.530   1.521   4.160
  598SOL     OW 2245   1.721   0.395   5.094
  598SOL    HW1 2246   1.795   0.456   5.100
  598SOL    HW2 2247   1.754   0.323   5.040
  599SOL     OW 2248   0.255   1.341   4.018
  599SOL    HW1 2249   0.161   1.344   4.000
  599SOL    HW2 2250   0.265   1.381   4.104
  600SOL     OW 2251   0.110   0.998   5.443
  600SOL    HW1 2252   0.050   0.992   5.518
  600SOL    HW2 2253   0.196   0.981   5.479
  601SOL     OW 2254   0.695   0.259   5.228
  601SOL    HW1 2255   0.762   0.206   5.187
  601SOL    HW2 2256   0.723   0.267   5.319
  602SOL     OW 2257   0.088   0.316   3.747
  602SOL    HW1 2258   3.993   0.316   3.741
  602SOL    HW2 2259   0.116   0.399   3.708
  603SOL     OW 2260   1.424   0.856   5.120
  603SOL    HW1 2261   1.375   0.918   5.066
  603SOL    HW2 2262   1.513   0.859   5.085
  604SOL     OW 2263   0.034   0.175   4.007
  604SOL    HW1 2264   0.037   0.224   3.925
  604SOL    HW2 2265   0.108   0.208   4.058
  605SOL     OW 2266   1.178   1.335   3.842
  605SOL    HW1 2267   1.087   1.304   3.843
  605SOL    HW2 2268   1.204   1.336   3.934
  606SOL     OW 2269   0.622   0.828   5.162
  606SOL    HW1 2270   0.679   0.903   5.146
  606SOL    HW2 2271   0.683   0.754   5.169
  607SOL     OW 2272   1.490   1.792   4.712
  607SOL    HW1 2273   1.510   1.860   4.648
  607SOL    HW2 2274   1.574   1.770   4.752
  608SOL     OW 2275   0.718   0.560   5.430
  608SOL    HW1 2276   0.764   0.621   5.488
  608SOL    HW2 2277   0.741   0.473   5.463
  609SOL     OW 2278   1.473   1.194   5.353
  609SOL    HW1 2279   1.462   1.210   5.447
  609SOL    HW2 2280   1.566   1.214   5.337
  610SOL     OW 2281   0.377   1.745   5.279
  610SOL    HW1 2282   0.290   1.783   5.268
  610SOL    HW2 2283   0.361   1.662   5.324
  611SOL     OW 2284   1.664   0.880   4.980
  611SOL    HW1 2285   1.661   0.795   4.937
  611SOL    HW2 2286   1.654   0.943   4.909
  612SOL     OW 2287   1.222   0.339   4.164
  612SOL    HW1 2288   1.291   0.272   4.157
  612SOL    HW2 2289   1.239   0.383   4.247
  613SOL     OW 2290   0.589   0.736   4.397
  613SOL    HW1 2291   0.627   0.823   4.381
  613SOL    HW2 2292   0.523   0.727   4.328
  614SOL     OW 2293   1.748   0.384   5.367
  614SOL    HW1 2294   1.731   0.390   5.273
  614SOL    HW2 2295   1.691   0.314   5.397
  615SOL     OW 2296   1.750   0.934   5.235
  615SOL    HW1 2297   1.737   1.028   5.248
  615SOL    HW2 2298   1.731   0.920   5.143
  616SOL     OW 2299   0.864   1.365   3.766
  616SOL    HW1 2300   0.826   1.393   3.850
  616SOL    HW2 2301   0.879   1.446   3.718
  617SOL     OW 2302   0.663   1.784   4.663
  617SOL    HW1 2303   0.645   1.876   4.643
  617SOL    HW2 2304   0.759   1.777   4.657
  618SOL     OW 2305   0.870   0.970   4.577
  618SOL    HW1 2306   0.920   0.898   4.614
  618SOL    HW2 2307   0.831   1.014   4.652
  619SOL     OW 2308   1.077   0.989   3.813
  619SOL    HW1 2309   1.055   1.041   3.736
  619SOL    HW2 2310   1.151   0.935   3.786
  620SOL     OW 2311   1.842   1.541   4.559
  620SOL    HW1 2312   1.760   1.541   4.510
  620SOL    HW2 2313   1.826   1.482   4.633
  621SOL     OW 2314   0.229   1.304   5.581
  621SOL    HW1 2315   0.154   1.252   5.553
  621SOL    HW2 2316   0.216   1.317   5.675
  622SOL     OW 2317   0.129   1.286   4.449
  622SOL    HW1 2318   0.143   1.233   4.527
  622SOL    HW2 2319   0.106   1.223   4.381
  623SOL     OW 2320   0.683   1.408   5.354
  623SOL    HW1 2321   0.604   1.365   5.387
  623SOL    HW2 2322   0.680   1.496   5.392
  624SOL     OW 2323   1.810   0.183   4.960
  624SOL    HW1 2324   1.813   0.089   4.977
  624SOL    HW2 2325   1.826   0.191   4.866
  625SOL     OW 2326   0.447   0.439   4.255
  625SOL    HW1 2327   0.471   0.362   4.203
  625SOL    HW2 2328   0.391   0.403   4.325
  626SOL     OW 2329   1.700   1.473   4.807
  626SOL    HW1 2330   1.617   1.458   4.762
  626SOL    HW2 2331   1.703   1.407   4.876
  627SOL     OW 2332   0.335   0.560   5.018
  627SOL    HW1 2333   0.391   0.503   5.072
  627SOL    HW2 2334   0.350   0.530   4.928
  628SOL     OW 2335   0.831   1.580   4.398
  628SOL    HW1 2336   0.813   1.646   4.332
  628SOL    HW2 2337   0.756   1.521   4.395
  629SOL     OW 2338   1.459   0.256   4.834
  629SOL    HW1 2339   1.478   0.169   4.870
  629SOL    HW2 2340   1.404   0.298   4.900
  630SOL     OW 2341   1.001   0.025   4.869
  630SOL    HW1 2342   0.918   0.001   4.828
  630SOL    HW2 2343   1.049   3.943   4.878
  631SOL     OW 2344   0.774   1.333   4.045
  631SOL    HW1 2345   0.747   1.242   4.052
  631SOL    HW2 2346   0.856   1.338   4.094
  632SOL     OW 2347   0.621   1.557   5.011
  632SOL    HW1 2348   0.622   1.640   5.060
  632SOL    HW2 2349   0.709   1.550   4.974
  633SOL     OW 2350   1.307   0.073   3.891
  633SOL    HW1 2351   1.317   3.987   3.850
  633SOL    HW2 2352   1.223   0.068   3.937
  634SOL     OW 2353   1.279   0.456   4.407
  634SOL    HW1 2354   1.233   0.540   4.401
  634SOL    HW2 2355   1.282   0.437   4.501
  635SOL     OW 2356   1.587   0.209   4.592
  635SOL    HW1 2357   1.537   0.235   4.670
  635SOL    HW2 2358   1.588   0.288   4.538
  636SOL     OW 2359   0.047   1.046   3.968
  636SOL    HW1 2360   0.142   1.031   3.960
  636SOL    HW2 2361   0.011   0.960   3.989
  637SOL     OW 2362   0.889   1.659   4.061
  637SOL    HW1 2363   0.813   1.644   4.004
  637SOL    HW2 2364   0.861   1.732   4.118
  638SOL     OW 2365   0.232   0.631   5.701
  638SOL    HW1 2366   0.139   0.634   5.722
  638SOL    HW2 2367   0.235   0.600   5.610
  639SOL     OW 2368   0.223   0.291   6.568
  639SOL    HW1 2369   0.245   0.251   6.652
  639SOL    HW2 2370   0.128   0.282   6.562
  640SOL     OW 2371   0.019   0.384   6.223
  640SOL    HW1 2372   3.928   0.400   6.246
  640SOL    HW2 2373   0.024   0.289   6.209
  641SOL     OW 2374   0.583   1.293   6.785
  641SOL    HW1 2375   0.497   1.294   6.743
  641SOL    HW2 2376   0.597   1.383   6.814
  642SOL     OW 2377   1.134   0.699   6.280
  642SOL    HW1 2378   1.181   0.781   6.269
  642SOL    HW2 2379   1.085   0.710   6.362
  643SOL     OW 2380   1.776   0.619   5.808
  643SOL    HW1 2381   1.750   0.611   5.716
  643SOL    HW2 2382   1.752   0.535   5.847
  644SOL     OW 2383   0.747   1.136   6.631
  644SOL    HW1 2384   0.687   1.174   6.695
  644SOL    HW2 2385   0.785   1.211   6.586
  645SOL     OW 2386   0.875   0.766   7.411
  645SOL    HW1 2387   0.867   0.837   7.474
  645SOL    HW2 2388   0.896   0.809   7.328
  646SOL     OW 2389   0.684   1.000   6.231
  646SOL    HW1 2390   0.752   0.990   6.298
  646SOL    HW2 2391   0.616   1.053   6.272
  647SOL     OW 2392   0.713   1.148   7.406
  647SOL    HW1 2393   0.761   1.225   7.436
  647SOL    HW2 2394   0.633   1.184   7.366
  648SOL     OW 2395   0.352   1.399   6.665
  648SOL    HW1 2396   0.272   1.376   6.618
  648SOL    HW2 2397   0.399   1.457   6.604
  649SOL     OW 2398   1.440   1.468   6.947
  649SOL    HW1 2399   1.505   1.538   6.955
  649SOL    HW2 2400   1.373   1.489   7.011
  650SOL     OW 2401   0.459   0.409   7.078
  650SOL    HW1 2402   0.542   0.361   7.079
  650SOL    HW2 2403   0.392   0.341   7.083
  651SOL     OW 2404   1.611   0.451   6.321
  651SOL    HW1 2405   1.545   0.482   6.260
  651SOL    HW2 2406   1.622   0.523   6.384
  652SOL     OW 2407   0.219   1.721   6.042
  652SOL    HW1 2408   0.241   1.794   6.100
  652SOL    HW2 2409   0.295   1.712   5.985
  653SOL     OW 2410   1.139   1.345   7.282
  653SOL    HW1 2411   1.181   1.337   7.368
  653SOL    HW2 2412   1.088   1.264   7.273
  654SOL     OW 2413   0.253   1.453   6.124
  654SOL    HW1 2414   0.217   1.540   6.110
  654SOL    HW2 2415   0.187   1.407   6.176
  655SOL     OW 2416   0.248   1.064   6.469
  655SOL    HW1 2417   0.269   0.979   6.507
  655SOL    HW2 2418   0.195   1.108   6.536
  656SOL     OW 2419   0.608   1.795   7.010
  656SOL    HW1 2420   0.526   1.776   7.055
  656SOL    HW2 2421   0.632   1.883   7.038
  657SOL     OW 2422   0.574   0.988   5.727
  657SOL    HW1 2423   0.624   1.031   5.657
  657SOL    HW2 2424   0.614   1.018   5.808
  658SOL     OW 2425   1.584   0.142   7.041
  658SOL    HW1 2426   1.615   0.215   6.987
  658SOL    HW2 2427   1.546   0.184   7.118
  659SOL     OW 2428   0.142   0.653   6.155
  659SOL    HW1 2429   0.100   0.568   6.160
  659SOL    HW2 2430   0.104   0.703   6.227
  660SOL     OW 2431   0.044   1.587   5.722
  660SOL    HW1 2432   0.040   1.496   5.751
  660SOL    HW2 2433   3.957   1.623   5.743
  661SOL     OW 2434   1.685   0.911   6.225
  661SOL    HW1 2435   1.773   0.875   6.209
  661SOL    HW2 2436   1.666   0.964   6.148
  662SOL     OW 2437   1.650   1.102   6.015
  662SOL    HW1 2438   1.738   1.107   5.977
  662SOL    HW2 2439   1.654   1.160   6.091
  663SOL     OW 2440   0.146   0.756   7.175
  663SOL    HW1 2441   0.241   0.753   7.167
  663SOL    HW2 2442   0.127   0.842   7.212
  664SOL     OW 2443   0.612   1.389   6.323
  664SOL    HW1 2444   0.567   1.304   6.331
  664SOL    HW2 2445   0.598   1.415   6.232
  665SOL     OW 2446   1.274   1.224   7.012
  665SOL    HW1 2447   1.308   1.160   6.950
  665SOL    HW2 2448   1.337   1.224   7.084
  666SOL     OW 2449   0.823   0.006   6.104
  666SOL    HW1 2450   0.868   0.086   6.078
  666SOL    HW2 2451   0.730   0.029   6.102
  667SOL     OW 2452   0.183   0.948   6.866
  667SOL    HW1 2453   0.272   0.913   6.855
  667SOL    HW2 2454   0.132   0.907   6.796
  668SOL     OW 2455   1.532   0.998   5.786
  668SOL    HW1 2456   1.463   0.941   5.819
  668SOL    HW2 2457   1.575   1.032   5.865
  669SOL     OW 2458   1.167   1.807   7.213
  669SOL    HW1 2459   1.187   1.873   7.147
  669SOL    HW2 2460   1.195   1.724   7.174
  670SOL     OW 2461   0.348   0.246   7.439
  670SOL    HW1 2462   0.391   0.329   7.419
  670SOL    HW2 2463   0.256   0.270   7.453
  671SOL     OW 2464   1.417   1.423   6.499
  671SOL    HW1 2465   1.376   1.436   6.585
  671SOL    HW2 2466   1.429   1.328   6.493
  672SOL     OW 2467   0.596   0.715   5.855
  672SOL    HW1 2468   0.601   0.800   5.811
  672SOL    HW2 2469   0.533   0.728   5.925
  673SOL     OW 2470   1.274   0.373   6.527
  673SOL    HW1 2471   1.187   0.334   6.535
  673SOL    HW2 2472   1.332   0.312   6.573
  674SOL     OW 2473   1.565   1.676   5.883
  674SOL    HW1 2474   1.647   1.722   5.863
  674SOL    HW2 2475   1.532   1.648   5.797
  675SOL     OW 2476   0.794   0.615   7.038
  675SOL    HW1 2477   0.765   0.588   7.125
  675SOL    HW2 2478   0.759   0.548   6.979
  676SOL     OW 2479   1.392   0.475   7.263
  676SOL    HW1 2480   1.399   0.521   7.347
  676SOL    HW2 2481   1.448   0.398   7.273
  677SOL     OW 2482   0.950   0.887   7.172
  677SOL    HW1 2483   1.005   0.819   7.134
  677SOL    HW2 2484   0.901   0.923   7.098
  678SOL     OW 2485   0.995   0.401   6.821
  678SOL    HW1 2486   0.908   0.420   6.856
  678SOL    HW2 2487   0.978   0.375   6.730
  679SOL     OW 2488   1.053   0.701   6.010
  679SOL    HW1 2489   1.072   0.694   6.104
  679SOL    HW2 2490   0.970   0.654   5.999
  680SOL     OW 2491   0.082   0.831   6.375
  680SOL    HW1 2492   0.151   0.796   6.431
  680SOL    HW2 2493   0.108   0.922   6.360
  681SOL     OW 2494   0.130   1.867   7.167
  681SOL    HW1 2495   0.139   1.831   7.255
  681SOL    HW2 2496   0.038   1.858   7.146
  682SOL     OW 2497   0.895   0.352   5.785
  682SOL    HW1 2498   0.937   0.413   5.724
  682SOL    HW2 2499   0.891   0.270   5.737
  683SOL     OW 2500   1.706   0.575   7.416
  683SOL    HW1 2501   1.669   0.648   7.367
  683SOL    HW2 2502   1.730   0.511   7.349
  684SOL     OW 2503   1.377   1.136   6.119
  684SOL    HW1 2504   1.457   1.130   6.067
  684SOL    HW2 2505   1.324   1.202   6.072
  685SOL     OW 2506   0.563   0.195   6.465
  685SOL    HW1 2507   0.568   0.220   6.557
  685SOL    HW2 2508   0.547   0.277   6.419
  686SOL     OW 2509   0.996   1.440   6.054
  686SOL    HW1 2510   0.967   1.518   6.005
  686SOL    HW2 2511   0.980   1.462   6.145
  687SOL     OW 2512   0.364   1.826   6.460
  687SOL    HW1 2513   0.425   1.753   6.470
  687SOL    HW2 2514   0.418   1.904   6.475
  688SOL     OW 2515   1.793   1.029   6.462
  688SOL    HW1 2516   1.742   1.026   6.382
  688SOL    HW2 2517   1.729   1.047   6.531
  689SOL     OW 2518   1.225   1.538   7.100
  689SOL    HW1 2519   1.211   1.469   7.164
  689SOL    HW2 2520   1.156   1.524   7.035
  690SOL     OW 2521   0.310   0.951   5.828
  690SOL    HW1 2522   0.394   0.973   5.786
  690SOL    HW2 2523   0.299   0.858   5.811
  691SOL     OW 2524   1.479   0.750   6.314
  691SOL    HW1 2525   1.478   0.710   6.401
  691SOL    HW2 2526   1.557   0.805   6.313
  692SOL     OW 2527   0.471   1.262   7.324
  692SOL    HW1 2528   0.445   1.269   7.232
  692SOL    HW2 2529   0.388   1.264   7.372
  693SOL     OW 2530   1.118   1.777   5.807
  693SOL    HW1 2531   1.046   1.738   5.856
  693SOL    HW2 2532   1.145   1.708   5.746
  694SOL     OW 2533   0.202   0.292   7.087
  694SOL    HW1 2534   0.108   0.311   7.088
  694SOL    HW2 2535   0.211   0.214   7.142
  695SOL     OW 2536   1.636   1.378   5.676
  695SOL    HW1 2537   1.593   1.463   5.661
  695SOL    HW2 2538   1.568   1.313   5.657
  696SOL     OW 2539   0.466   1.738   5.901
  696SOL    HW1 2540   0.510   1.794   5.965
  696SOL    HW2 2541   0.537   1.701   5.849
  697SOL     OW 2542   1.445   0.172   5.992
  697SOL    HW1 2543   1.392   0.104   5.952
  697SOL    HW2 2544   1.511   0.125   6.043
  698SOL     OW 2545   0.254   1.790   6.816
  698SOL    HW1 2546   0.298   1.722   6.867
  698SOL    HW2 2547   0.253   1.756   6.726
  699SOL     OW 2548   0.952   1.695   6.482
  699SOL    HW1 2549   1.035   1.648   6.485
  699SOL    HW2 2550   0.900   1.648   6.416
  700SOL     OW 2551   0.399   0.695   6.055
  700SOL    HW1 2552   0.424   0.604   6.072
  700SOL    HW2 2553   0.307   0.699   6.081
  701SOL     OW 2554   1.529   0.227   7.312
  701SOL    HW1 2555   1.521   0.251   7.405
  701SOL    HW2 2556   1.517   0.132   7.311
  702SOL     OW 2557   0.647   0.126   5.690
  702SOL    HW1 2558   0.666   0.041   5.728
  702SOL    HW2 2559   0.586   0.107   5.618
  703SOL     OW 2560   0.774   0.286   7.358
  703SOL    HW1 2561   0.853   0.232   7.357
  703SOL    HW2 2562   0.721   0.250   7.428
  704SOL     OW 2563   0.876   1.525   6.781
  704SOL    HW1 2564   0.860   1.489   6.694
  704SOL    HW2 2565   0.946   1.471   6.817
  705SOL     OW 2566   1.338   0.588   7.017
  705SOL    HW1 2567   1.369   0.559   7.103
  705SOL    HW2 2568   1.373   0.676   7.007
  706SOL     OW 2569   0.815   1.391   6.532
  706SOL    HW1 2570   0.901   1.378   6.493
  706SOL    HW2 2571   0.755   1.396   6.458
  707SOL     OW 2572   0.931   0.512   6.484
  707SOL    HW1 2573   0.906   0.504   6.392
  707SOL    HW2 2574   0.955   0.424   6.511
  708SOL     OW 2575   0.547   0.055   6.073
  708SOL    HW1 2576   0.474   0.062   6.134
  708SOL    HW2 2577   0.548   0.139   6.026
  709SOL     OW 2578   1.430   1.201   5.626
  709SOL    HW1 2579   1.458   1.125   5.678
  709SOL    HW2 2580   1.344   1.224   5.663
  710SOL     OW 2581   0.354   0.031   5.786
  710SOL    HW1 2582   0.356   0.088   5.710
  710SOL    HW2 2583   0.442   0.039   5.825
  711SOL     OW 2584   0.945   0.251   6.044
  711SOL    HW1 2585   0.919   0.290   5.960
  711SOL    HW2 2586   1.041   0.258   6.045
  712SOL     OW 2587   1.079   0.686   7.043
  712SOL    HW1 2588   1.010   0.619   7.049
  712SOL    HW2 2589   1.160   0.636   7.038
  713SOL     OW 2590   1.205   1.574   6.394
  713SOL    HW1 2591   1.235   1.627   6.320
  713SOL    HW2 2592   1.286   1.540   6.433
  714SOL     OW 2593   0.466   1.152   6.318
  714SOL    HW1 2594   0.396   1.125   6.378
  714SOL    HW2 2595   0.430   1.136   6.231
  715SOL     OW 2596   1.246   1.783   6.189
  715SOL    HW1 2597   1.288   1.854   6.141
  715SOL    HW2 2598   1.174   1.825   6.236
  716SOL     OW 2599   1.021   0.539   5.618
  716SOL    HW1 2600   0.978   0.622   5.598
  716SOL    HW2 2601   1.085   0.560   5.685
  717SOL     OW 2602   0.082   0.576   6.978
  717SOL    HW1 2603   0.171   0.557   6.948
  717SOL    HW2 2604   0.092   0.647   7.042
  718SOL     OW 2605   0.571   0.231   6.744
  718SOL    HW1 2606   0.592   0.138   6.753
  718SOL    HW2 2607   0.481   0.238   6.774
  719SOL     OW 2608   0.871   0.460   6.223
  719SOL    HW1 2609   0.821   0.514   6.161
  719SOL    HW2 2610   0.892   0.381   6.174
  720SOL     OW 2611   0.998   0.037   6.368
  720SOL    HW1 2612   0.957   0.069   6.288
  720SOL    HW2 2613   1.010   3.943   6.354
  721SOL     OW 2614   1.448   1.150   6.448
  721SOL    HW1 2615   1.373   1.092   6.431
  721SOL    HW2 2616   1.483   1.170   6.361
  722SOL     OW 2617   1.465   0.608   6.556
  722SOL    HW1 2618   1.408   0.531   6.561
  722SOL    HW2 2619   1.523   0.600   6.631
  723SOL     OW 2620   1.843   0.818   5.974
  723SOL    HW1 2621   1.900   0.766   6.031
  723SOL    HW2 2622   1.816   0.757   5.905
  724SOL     OW 2623   0.487   1.424   5.744
  724SOL    HW1 2624   0.411   1.393   5.793
  724SOL    HW2 2625   0.477   1.384   5.657
  725SOL     OW 2626   1.672   1.249   6.240
  725SOL    HW1 2627   1.765   1.230   6.247
  725SOL    HW2 2628   1.668   1.343   6.218
  726SOL     OW 2629   1.395   0.578   5.654
  726SOL    HW1 2630   1.332   0.558   5.723
  726SOL    HW2 2631   1.480   0.560   5.694
  727SOL     OW 2632   0.555   0.270   5.903
  727SOL    HW1 2633   0.606   0.231   5.832
  727SOL    HW2 2634   0.527   0.355   5.868
  728SOL     OW 2635   1.746   1.241   7.152
  728SOL    HW1 2636   1.834   1.202   7.152
  728SOL    HW2 2637   1.756   1.321   7.203
  729SOL     OW 2638   1.053   1.353   6.918
  729SOL    HW1 2639   0.976   1.323   6.967
  729SOL    HW2 2640   1.127   1.308   6.960
  730SOL     OW 2641   1.125   1.200   6.691
  730SOL    HW1 2642   1.067   1.243   6.754
  730SOL    HW2 2643   1.101   1.238   6.607
  731SOL     OW 2644   1.624   1.098   6.664
  731SOL    HW1 2645   1.608   1.151   6.742
  731SOL    HW2 2646   1.550   1.116   6.607
  732SOL     OW 2647   0.912   0.119   6.987
  732SOL    HW1 2648   0.932   0.090   6.898
  732SOL    HW2 2649   0.993   0.160   7.017
  733SOL     OW 2650   0.985   1.117   7.309
  733SOL    HW1 2651   0.894   1.134   7.333
  733SOL    HW2 2652   0.982   1.038   7.255
  734SOL     OW 2653   0.708   1.062   5.957
  734SOL    HW1 2654   0.695   1.043   6.050
  734SOL    HW2 2655   0.784   1.009   5.933
  735SOL     OW 2656   0.424   0.819   6.840
  735SOL    HW1 2657   0.492   0.825   6.906
  735SOL    HW2 2658   0.390   0.730   6.849
  736SOL     OW 2659   1.265   0.374   6.864
  736SOL    HW1 2660   1.299   0.453   6.908
  736SOL    HW2 2661   1.178   0.398   6.835
  737SOL     OW 2662   0.065   1.579   6.931
  737SOL    HW1 2663   0.071   1.621   6.845
  737SOL    HW2 2664   0.156   1.570   6.960
  738SOL     OW 2665   0.364   1.103   6.066
  738SOL    HW1 2666   0.362   1.183   6.013
  738SOL    HW2 2667   0.365   1.032   6.002
  739SOL     OW 2668   0.554   0.530   6.442
  739SOL    HW1 2669   0.566   0.590   6.368
  739SOL    HW2 2670   0.619   0.557   6.506
  740SOL     OW 2671   1.241   1.341   5.973
  740SOL    HW1 2672   1.296   1.414   6.001
  740SOL    HW2 2673   1.154   1.362   6.008
  741SOL     OW 2674   1.283   1.445   6.731
  741SOL    HW1 2675   1.339   1.452   6.809
  741SOL    HW2 2676   1.221   1.375   6.752
  742SOL     OW 2677   1.572   0.636   6.075
  742SOL    HW1 2678   1.527   0.686   6.143
  742SOL    HW2 2679   1.618   0.701   6.023
  743SOL     OW 2680   0.346   1.528   6.903
  743SOL    HW1 2681   0.336   1.476   6.823
  743SOL    HW2 2682   0.440   1.542   6.911
  744SOL     OW 2683   0.421   0.736   7.187
  744SOL    HW1 2684   0.485   0.780   7.131
  744SOL    HW2 2685   0.457   0.648   7.199
  745SOL     OW 2686   1.606   0.782   7.274
  745SOL    HW1 2687   1.520   0.823   7.267
  745SOL    HW2 2688   1.658   0.822   7.204
  746SOL     OW 2689   1.006   0.142   7.367
  746SOL    HW1 2690   1.065   0.210   7.335
  746SOL    HW2 2691   0.997   0.081   7.294
  747SOL     OW 2692   0.487   0.037   7.349
  747SOL    HW1 2693   0.490   0.051   7.254
  747SOL    HW2 2694   0.424   0.101   7.380
  748SOL     OW 2695   0.585   0.876   6.618
  748SOL    HW1 2696   0.621   0.965   6.621
  748SOL    HW2 2697   0.530   0.870   6.696
  749SOL     OW 2698   1.349   0.855   6.612
  749SOL    HW1 2699   1.264   0.844   6.570
  749SOL    HW2 2700   1.393   0.771   6.600
  750SOL     OW 2701   1.197   0.539   5.840
  750SOL    HW1 2702   1.206   0.460   5.894
  750SOL    HW2 2703   1.155   0.602   5.899
  751SOL     OW 2704   0.310   0.211   6.824
  751SOL    HW1 2705   0.266   0.248   6.901
  751SOL    HW2 2706   0.296   0.117   6.832
  752SOL     OW 2707   0.061   1.306   6.867
  752SOL    HW1 2708   0.092   1.262   6.947
  752SOL    HW2 2709   0.053   1.398   6.892
  753SOL     OW 2710   0.722   0.633   6.636
  753SOL    HW1 2711   0.798   0.620   6.579
  753SOL    HW2 2712   0.692   0.722   6.617
  754SOL     OW 2713   1.736   0.963   7.443
  754SOL    HW1 2714   1.691   0.895   7.392
  754SOL    HW2 2715   1.677   0.981   7.516
  755SOL     OW 2716   0.334   0.054   6.246
  755SOL    HW1 2717   0.305   0.145   6.247
  755SOL    HW2 2718   0.300   0.016   6.327
  756SOL     OW 2719   1.610   0.396   5.963
  756SOL    HW1 2720   1.564   0.328   6.011
  756SOL    HW2 2721   1.590   0.477   6.010
  757SOL     OW 2722   1.031   0.759   6.543
  757SOL    HW1 2723   1.021   0.776   6.637
  757SOL    HW2 2724   1.003   0.668   6.532
  758SOL     OW 2725   0.973   1.562   7.304
  758SOL    HW1 2726   0.964   1.607   7.220
  758SOL    HW2 2727   1.023   1.483   7.283
  759SOL     OW 2728   0.356   0.922   7.383
  759SOL    HW1 2729   0.433   0.943   7.436
  759SOL    HW2 2730   0.386   0.854   7.323
  760SOL     OW 2731   1.501   0.272   5.718
  760SOL    HW1 2732   1.429   0.210   5.730
  760SOL    HW2 2733   1.514   0.311   5.805
  761SOL     OW 2734   1.286   0.827   5.612
  761SOL    HW1 2735   1.328   0.741   5.617
  761SOL    HW2 2736   1.318   0.866   5.531
  762SOL     OW 2737   1.064   1.333   6.448
  762SOL    HW1 2738   1.071   1.264   6.382
  762SOL    HW2 2739   1.122   1.402   6.416
  763SOL     OW 2740   0.313   0.802   6.536
  763SOL    HW1 2741   0.408   0.818   6.531
  763SOL    HW2 2742   0.307   0.712   6.568
  764SOL     OW 2743   0.339   0.529   6.602
  764SOL    HW1 2744   0.297   0.445   6.585
  764SOL    HW2 2745   0.414   0.531   6.543
  765SOL     OW 2746   1.134   0.379   7.286
  765SOL    HW1 2747   1.085   0.434   7.348
  765SOL    HW2 2748   1.220   0.420   7.281
  766SOL     OW 2749   1.151   0.225   7.068
  766SOL    HW1 2750   1.142   0.279   7.147
  766SOL    HW2 2751   1.179   0.287   7.000
  767SOL     OW 2752   0.001   1.314   5.769
  767SOL    HW1 2753   3.907   1.331   5.771
  767SOL    HW2 2754   0.010   1.221   5.787
  768SOL     OW 2755   0.080   1.799   6.473
  768SOL    HW1 2756   0.090   1.704   6.472
  768SOL    HW2 2757   0.169   1.832   6.478
  769SOL     OW 2758   0.496   1.572   6.495
  769SOL    HW1 2759   0.565   1.632   6.521
  769SOL    HW2 2760   0.539   1.509   6.437
  770SOL     OW 2761   0.973   0.786   6.808
  770SOL    HW1 2762   1.031   0.768   6.882
  770SOL    HW2 2763   0.889   0.747   6.833
  771SOL     OW 2764   0.034   0.581   6.698
  771SOL    HW1 2765   0.091   0.523   6.647
  771SOL    HW2 2766   0.061   0.567   6.789
  772SOL     OW 2767   0.211   0.515   7.308
  772SOL    HW1 2768   0.255   0.472   7.234
  772SOL    HW2 2769   0.169   0.592   7.270
  773SOL     OW 2770   1.379   0.933   7.242
  773SOL    HW1 2771   1.397   1.027   7.240
  773SOL    HW2 2772   1.376   0.907   7.150
  774SOL     OW 2773   0.819   0.572   5.951
  774SOL    HW1 2774   0.826   0.496   5.893
  774SOL    HW2 2775   0.744   0.621   5.918
  775SOL     OW 2776   1.639   0.602   6.766
  775SOL    HW1 2777   1.630   0.541   6.840
  775SOL    HW2 2778   1.727   0.586   6.732
  776SOL     OW 2779   0.300   1.543   7.305
  776SOL    HW1 2780   0.255   1.612   7.354
  776SOL    HW2 2781   0.274   1.462   7.349
  777SOL     OW 2782   0.717   0.451   6.837
  777SOL    HW1 2783   0.664   0.374   6.814
  777SOL    HW2 2784   0.704   0.511   6.764
  778SOL     OW 2785   0.923   1.676   7.052
  778SOL    HW1 2786   0.895   1.640   6.969
  778SOL    HW2 2787   0.916   1.771   7.041
  779SOL     OW 2788   0.451   0.492   5.785
  779SOL    HW1 2789   0.515   0.561   5.803
  779SOL    HW2 2790   0.371   0.539   5.760
  780SOL     OW 2791   0.153   1.133   7.062
  780SOL    HW1 2792   0.154   1.084   7.143
  780SOL    HW2 2793   0.169   1.068   6.994
  781SOL     OW 2794   1.322   1.044   6.804
  781SOL    HW1 2795   1.343   0.980   6.736
  781SOL    HW2 2796   1.252   1.098   6.766
  782SOL     OW 2797   1.318   0.855   5.888
  782SOL    HW1 2798   1.243   0.828   5.942
  782SOL    HW2 2799   1.288   0.843   5.798
  783SOL     OW 2800   0.079   1.217   6.614
  783SOL    HW1 2801   0.085   1.242   6.706
  783SOL    HW2 2802   3.987   1.228   6.591
  784SOL     OW 2803   0.680   1.669   7.327
  784SOL    HW1 2804   0.621   1.743   7.313
  784SOL    HW2 2805   0.752   1.684   7.266
  785SOL     OW 2806   1.717   0.123   6.077
  785SOL    HW1 2807   1.794   0.134   6.022
  785SOL    HW2 2808   1.706   0.028   6.084
  786SOL     OW 2809   1.372   1.565   6.050
  786SOL    HW1 2810   1.433   1.604   5.987
  786SOL    HW2 2811   1.329   1.641   6.090
  787SOL     OW 2812   0.177   1.760   7.418
  787SOL    HW1 2813   0.121   1.708   7.475
  787SOL    HW2 2814   0.217   1.825   7.476
  788SOL     OW 2815   1.277   0.929   6.259
  788SOL    HW1 2816   1.352   0.870   6.270
  788SOL    HW2 2817   1.311   0.999   6.203
  789SOL     OW 2818   0.805   1.275   7.010
  789SOL    HW1 2819   0.776   1.318   7.091
  789SOL    HW2 2820   0.732   1.289   6.949
  790SOL     OW 2821   0.670   1.625   5.742
  790SOL    HW1 2822   0.682   1.638   5.648
  790SOL    HW2 2823   0.614   1.547   5.748
  791SOL     OW 2824   1.618   1.657   6.965
  791SOL    HW1 2825   1.692   1.623   6.914
  791SOL    HW2 2826   1.651   1.737   7.006
  792SOL     OW 2827   1.840   0.179   6.550
  792SOL    HW1 2828   1.873   0.117   6.485
  792SOL    HW2 2829   1.750   0.198   6.522
  793SOL     OW 2830   0.276   0.321   6.299
  793SOL    HW1 2831   0.191   0.355   6.272
  793SOL    HW2 2832   0.267   0.307   6.394
  794SOL     OW 2833   1.210   1.599   5.615
  794SOL    HW1 2834   1.198   1.509   5.644
  794SOL    HW2 2835   1.142   1.613   5.549
  795SOL     OW 2836   0.824   1.006   6.960
  795SOL    HW1 2837   0.868   1.000   6.876
  795SOL    HW2 2838   0.821   1.099   6.979
  796SOL     OW 2839   0.915   0.910   5.876
  796SOL    HW1 2840   0.975   0.943   5.810
  796SOL    HW2 2841   0.965   0.843   5.923
  797SOL     OW 2842   1.489   1.611   5.624
  797SOL    HW1 2843   1.395   1.605   5.609
  797SOL    HW2 2844   1.527   1.624   5.537
  798SOL     OW 2845   0.374   1.302   7.078
  798SOL    HW1 2846   0.359   1.382   7.028
  798SOL    HW2 2847   0.297   1.248   7.060
  799SOL     OW 2848   1.604   1.256   6.894
  799SOL    HW1 2849   1.644   1.240   6.980
  799SOL    HW2 2850   1.532   1.317   6.912
  800SOL     OW 2851   1.059   1.110   6.294
  800SOL    HW1 2852   0.988   1.059   6.332
  800SOL    HW2 2853   1.125   1.044   6.269
  801SOL     OW 2854   1.015   0.250   6.557
  801SOL    HW1 2855   1.006   0.200   6.477
  801SOL    HW2 2856   1.013   0.185   6.627
  802SOL     OW 2857   0.607   1.487   6.068
  802SOL    HW1 2858   0.655   1.438   6.001
  802SOL    HW2 2859   0.531   1.522   6.021
  803SOL     OW 2860   1.721   0.395   6.956
  803SOL    HW1 2861   1.795   0.456   6.961
  803SOL    HW2 2862   1.754   0.323   6.902
  804SOL     OW 2863   0.255   1.341   5.879
  804SOL    HW1 2864   0.161   1.344   5.862
  804SOL    HW2 2865   0.265   1.381   5.966
  805SOL     OW 2866   0.110   0.998   7.305
  805SOL    HW1 2867   0.051   0.992   7.380
  805SOL    HW2 2868   0.197   0.981   7.341
  806SOL     OW 2869   0.695   0.259   7.091
  806SOL    HW1 2870   0.762   0.205   7.049
  806SOL    HW2 2871   0.724   0.267   7.181
  807SOL     OW 2872   0.088   0.316   5.609
  807SOL    HW1 2873   3.993   0.316   5.603
  807SOL    HW2 2874   0.116   0.399   5.570
  808SOL     OW 2875   1.424   0.857   6.982
  808SOL    HW1 2876   1.375   0.918   6.927
  808SOL    HW2 2877   1.513   0.859   6.946
  809SOL     OW 2878   0.034   0.175   5.869
  809SOL    HW1 2879   0.037   0.224   5.787
  809SOL    HW2 2880   0.108   0.208   5.920
  810SOL     OW 2881   1.177   1.335   5.702
  810SOL    HW1 2882   1.086   1.304   5.703
  810SOL    HW2 2883   1.203   1.334   5.794
  811SOL     OW 2884   0.623   0.828   7.023
  811SOL    HW1 2885   0.679   0.904   7.008
  811SOL    HW2 2886   0.683   0.754   7.031
  812SOL     OW 2887   0.718   0.560   7.292
  812SOL    HW1 2888   0.764   0.621   7.349
  812SOL    HW2 2889   0.741   0.473   7.325
  813SOL     OW 2890   1.471   1.196   7.212
  813SOL    HW1 2891   1.455   1.207   7.305
  813SOL    HW2 2892   1.565   1.208   7.201
  814SOL     OW 2893   0.377   1.745   7.141
  814SOL    HW1 2894   0.290   1.783   7.130
  814SOL    HW2 2895   0.361   1.662   7.186
  815SOL     OW 2896   1.664   0.878   6.839
  815SOL    HW1 2897   1.659   0.793   6.797
  815SOL    HW2 2898   1.654   0.941   6.767
  816SOL     OW 2899   1.222   0.339   6.026
  816SOL    HW1 2900   1.290   0.273   6.019
  816SOL    HW2 2901   1.239   0.383   6.109
  817SOL     OW 2902   0.589   0.736   6.259
  817SOL    HW1 2903   0.627   0.823   6.244
  817SOL    HW2 2904   0.523   0.727   6.190
  818SOL     OW 2905   1.749   0.384   7.229
  818SOL    HW1 2906   1.731   0.390   7.135
  818SOL    HW2 2907   1.692   0.313   7.259
  819SOL     OW 2908   1.744   0.930   7.094
  819SOL    HW1 2909   1.738   1.025   7.104
  819SOL    HW2 2910   1.728   0.915   7.001
  820SOL     OW 2911   0.863   1.364   5.628
  820SOL    HW1 2912   0.826   1.392   5.712
  820SOL    HW2 2913   0.879   1.446   5.581
  821SOL     OW 2914   0.665   1.785   6.524
  821SOL    HW1 2915   0.643   1.876   6.506
  821SOL    HW2 2916   0.760   1.782   6.522
  822SOL     OW 2917   0.870   0.970   6.438
  822SOL    HW1 2918   0.921   0.898   6.476
  822SOL    HW2 2919   0.832   1.014   6.514
  823SOL     OW 2920   1.076   0.988   5.675
  823SOL    HW1 2921   1.055   1.041   5.597
  823SOL    HW2 2922   1.150   0.934   5.648
  824SOL     OW 2923   0.229   1.304   7.443
  824SOL    HW1 2924   0.154   1.252   7.415
  824SOL    HW2 2925   0.215   1.317   7.537
  825SOL     OW 2926   0.128   1.285   6.311
  825SOL    HW1 2927   0.144   1.231   6.389
  825SOL    HW2 2928   0.105   1.223   6.242
  826SOL     OW 2929   0.682   1.407   7.215
  826SOL    HW1 2930   0.603   1.365   7.249
  826SOL    HW2 2931   0.680   1.495   7.254
  827SOL     OW 2932   1.810   0.183   6.822
  827SOL    HW1 2933   1.813   0.089   6.839
  827SOL    HW2 2934   1.826   0.191   6.728
  828SOL     OW 2935   0.446   0.439   6.117
  828SOL    HW1 2936   0.471   0.362   6.065
  828SOL    HW2 2937   0.391   0.403   6.187
  829SOL     OW 2938   1.727   1.474   6.783
  829SOL    HW1 2939   1.693   1.505   6.700
  829SOL    HW2 2940   1.677   1.395   6.802
  830SOL     OW 2941   0.335   0.560   6.880
  830SOL    HW1 2942   0.391   0.503   6.933
  830SOL    HW2 2943   0.350   0.530   6.790
  831SOL     OW 2944   0.828   1.583   6.263
  831SOL    HW1 2945   0.811   1.648   6.194
  831SOL    HW2 2946   0.754   1.523   6.258
  832SOL     OW 2947   1.460   0.256   6.696
  832SOL    HW1 2948   1.478   0.169   6.732
  832SOL    HW2 2949   1.405   0.298   6.762
  833SOL     OW 2950   1.001   0.025   6.731
  833SOL    HW1 2951   0.918   0.001   6.690
  833SOL    HW2 2952   1.049   3.943   6.740
  834SOL     OW 2953   0.774   1.333   5.906
  834SOL    HW1 2954   0.748   1.242   5.914
  834SOL    HW2 2955   0.855   1.340   5.956
  835SOL     OW 2956   0.621   1.557   6.873
  835SOL    HW1 2957   0.622   1.640   6.921
  835SOL    HW2 2958   0.709   1.550   6.836
  836SOL     OW 2959   1.307   0.073   5.753
  836SOL    HW1 2960   1.316   3.987   5.712
  836SOL    HW2 2961   1.224   0.068   5.799
  837SOL     OW 2962   1.278   0.456   6.269
  837SOL    HW1 2963   1.233   0.540   6.263
  837SOL    HW2 2964   1.282   0.437   6.363
  838SOL     OW 2965   1.587   0.210   6.454
  838SOL    HW1 2966   1.538   0.235   6.532
  838SOL    HW2 2967   1.588   0.288   6.400
  839SOL     OW 2968   0.048   1.046   5.829
  839SOL    HW1 2969   0.142   1.031   5.821
  839SOL    HW2 2970   0.011   0.960   5.852
  840SOL     OW 2971   0.889   1.659   5.924
  840SOL    HW1 2972   0.814   1.644   5.867
  840SOL    HW2 2973   0.862   1.732   5.981
  841SOL     OW 2974   0.232   0.631   7.563
  841SOL    HW1 2975   0.139   0.634   7.584
  841SOL    HW2 2976   0.235   0.600   7.472
  842SOL     OW 2977   0.223   0.291   8.430
  842SOL    HW1 2978   0.245   0.251   8.514
  842SOL    HW2 2979   0.128   0.282   8.424
  843SOL     OW 2980   0.019   0.384   8.085
  843SOL    HW1 2981   3.928   0.400   8.108
  843SOL    HW2 2982   0.024   0.289   8.071
  844SOL     OW 2983   0.584   1.294   8.647
  844SOL    HW1 2984   0.498   1.294   8.605
  844SOL    HW2 2985   0.596   1.384   8.677
  845SOL     OW 2986   1.572   1.514   8.159
  845SOL    HW1 2987   1.529   1.492   8.241
  845SOL    HW2 2988   1.500   1.518   8.095
  846SOL     OW 2989   1.134   0.699   8.142
  846SOL    HW1 2990   1.181   0.781   8.130
  846SOL    HW2 2991   1.086   0.710   8.224
  847SOL     OW 2992   1.776   0.619   7.670
  847SOL    HW1 2993   1.750   0.611   7.578
  847SOL    HW2 2994   1.752   0.534   7.708
  848SOL     OW 2995   0.749   1.137   8.494
  848SOL    HW1 2996   0.688   1.174   8.557
  848SOL    HW2 2997   0.786   1.212   8.448
  849SOL     OW 2998   0.875   0.765   9.273
  849SOL    HW1 2999   0.864   0.837   9.336
  849SOL    HW2 3000   0.896   0.809   9.191
  850SOL     OW 3001   0.685   1.000   8.093
  850SOL    HW1 3002   0.751   0.990   8.161
  850SOL    HW2 3003   0.616   1.053   8.134
  851SOL     OW 3004   0.713   1.148   9.268
  851SOL    HW1 3005   0.761   1.226   9.298
  851SOL    HW2 3006   0.633   1.183   9.228
  852SOL     OW 3007   0.352   1.399   8.527
  852SOL    HW1 3008   0.272   1.375   8.481
  852SOL    HW2 3009   0.398   1.457   8.466
  853SOL     OW 3010   1.460   1.502   8.809
  853SOL    HW1 3011   1.514   1.581   8.818
  853SOL    HW2 3012   1.392   1.512   8.876
  854SOL     OW 3013   0.459   0.409   8.940
  854SOL    HW1 3014   0.542   0.361   8.941
  854SOL    HW2 3015   0.392   0.341   8.945
  855SOL     OW 3016   1.611   0.451   8.183
  855SOL    HW1 3017   1.545   0.482   8.122
  855SOL    HW2 3018   1.623   0.523   8.245
  856SOL     OW 3019   0.219   1.721   7.904
  856SOL    HW1 3020   0.241   1.794   7.962
  856SOL    HW2 3021   0.295   1.712   7.847
  857SOL     OW 3022   1.138   1.342   9.142
  857SOL    HW1 3023   1.179   1.335   9.228
  857SOL    HW2 3024   1.086   1.263   9.134
  858SOL     OW 3025   0.253   1.453   7.986
  858SOL    HW1 3026   0.217   1.540   7.972
  858SOL    HW2 3027   0.186   1.408   8.038
  859SOL     OW 3028   0.248   1.064   8.331
  859SOL    HW1 3029   0.269   0.979   8.369
  859SOL    HW2 3030   0.195   1.108   8.398
  860SOL     OW 3031   0.608   1.794   8.873
  860SOL    HW1 3032   0.525   1.776   8.918
  860SOL    HW2 3033   0.631   1.883   8.900
  861SOL     OW 3034   0.573   0.988   7.589
  861SOL    HW1 3035   0.624   1.031   7.519
  861SOL    HW2 3036   0.614   1.017   7.670
  862SOL     OW 3037   1.584   0.142   8.903
  862SOL    HW1 3038   1.616   0.215   8.849
  862SOL    HW2 3039   1.546   0.184   8.980
  863SOL     OW 3040   0.142   0.653   8.017
  863SOL    HW1 3041   0.100   0.568   8.022
  863SOL    HW2 3042   0.103   0.703   8.089
  864SOL     OW 3043   0.044   1.588   7.584
  864SOL    HW1 3044   0.040   1.496   7.613
  864SOL    HW2 3045   3.957   1.623   7.605
  865SOL     OW 3046   1.688   0.919   8.090
  865SOL    HW1 3047   1.771   0.876   8.067
  865SOL    HW2 3048   1.667   0.973   8.014
  866SOL     OW 3049   1.648   1.107   7.877
  866SOL    HW1 3050   1.733   1.110   7.833
  866SOL    HW2 3051   1.656   1.170   7.949
  867SOL     OW 3052   0.145   0.756   9.037
  867SOL    HW1 3053   0.241   0.753   9.029
  867SOL    HW2 3054   0.127   0.842   9.074
  868SOL     OW 3055   0.612   1.388   8.186
  868SOL    HW1 3056   0.567   1.304   8.193
  868SOL    HW2 3057   0.598   1.415   8.095
  869SOL     OW 3058   1.285   1.236   8.869
  869SOL    HW1 3059   1.316   1.168   8.809
  869SOL    HW2 3060   1.345   1.231   8.944
  870SOL     OW 3061   0.823   0.006   7.966
  870SOL    HW1 3062   0.868   0.086   7.940
  870SOL    HW2 3063   0.730   0.029   7.964
  871SOL     OW 3064   0.183   0.948   8.728
  871SOL    HW1 3065   0.272   0.913   8.717
  871SOL    HW2 3066   0.132   0.907   8.658
  872SOL     OW 3067   1.533   1.000   7.648
  872SOL    HW1 3068   1.463   0.944   7.682
  872SOL    HW2 3069   1.576   1.035   7.726
  873SOL     OW 3070   1.184   1.812   9.074
  873SOL    HW1 3071   1.190   1.873   9.001
  873SOL    HW2 3072   1.202   1.727   9.036
  874SOL     OW 3073   0.348   0.246   9.301
  874SOL    HW1 3074   0.390   0.330   9.280
  874SOL    HW2 3075   0.256   0.270   9.315
  875SOL     OW 3076   1.465   1.418   8.394
  875SOL    HW1 3077   1.399   1.435   8.461
  875SOL    HW2 3078   1.451   1.327   8.368
  876SOL     OW 3079   1.660   1.728   8.001
  876SOL    HW1 3080   1.677   1.667   7.929
  876SOL    HW2 3081   1.638   1.673   8.075
  877SOL     OW 3082   0.596   0.715   7.717
  877SOL    HW1 3083   0.601   0.800   7.673
  877SOL    HW2 3084   0.533   0.729   7.787
  878SOL     OW 3085   1.274   0.373   8.389
  878SOL    HW1 3086   1.187   0.334   8.397
  878SOL    HW2 3087   1.332   0.312   8.435
  879SOL     OW 3088   0.794   0.615   8.900
  879SOL    HW1 3089   0.765   0.588   8.987
  879SOL    HW2 3090   0.759   0.548   8.841
  880SOL     OW 3091   1.392   0.475   9.125
  880SOL    HW1 3092   1.400   0.521   9.209
  880SOL    HW2 3093   1.448   0.398   9.135
  881SOL     OW 3094   0.950   0.886   9.034
  881SOL    HW1 3095   1.005   0.818   8.996
  881SOL    HW2 3096   0.901   0.922   8.960
  882SOL     OW 3097   0.995   0.402   8.682
  882SOL    HW1 3098   0.907   0.420   8.718
  882SOL    HW2 3099   0.978   0.375   8.592
  883SOL     OW 3100   1.053   0.700   7.872
  883SOL    HW1 3101   1.072   0.693   7.966
  883SOL    HW2 3102   0.970   0.654   7.861
  884SOL     OW 3103   0.082   0.831   8.237
  884SOL    HW1 3104   0.151   0.796   8.293
  884SOL    HW2 3105   0.108   0.922   8.222
  885SOL     OW 3106   0.130   1.868   9.029
  885SOL    HW1 3107   0.138   1.831   9.117
  885SOL    HW2 3108   0.038   1.858   9.007
  886SOL     OW 3109   0.895   0.353   7.647
  886SOL    HW1 3110   0.937   0.414   7.586
  886SOL    HW2 3111   0.891   0.270   7.599
  887SOL     OW 3112   1.705   0.575   9.278
  887SOL    HW1 3113   1.669   0.649   9.229
  887SOL    HW2 3114   1.729   0.511   9.211
  888SOL     OW 3115   1.381   1.140   7.986
  888SOL    HW1 3116   1.462   1.131   7.935
  888SOL    HW2 3117   1.327   1.201   7.936
  889SOL     OW 3118   0.563   0.195   8.327
  889SOL    HW1 3119   0.568   0.220   8.420
  889SOL    HW2 3120   0.547   0.277   8.281
  890SOL     OW 3121   0.999   1.442   7.918
  890SOL    HW1 3122   0.966   1.516   7.867
  890SOL    HW2 3123   0.977   1.463   8.009
  891SOL     OW 3124   0.364   1.826   8.322
  891SOL    HW1 3125   0.424   1.753   8.332
  891SOL    HW2 3126   0.418   1.904   8.336
  892SOL     OW 3127   1.801   1.048   8.321
  892SOL    HW1 3128   1.748   1.034   8.242
  892SOL    HW2 3129   1.736   1.056   8.392
  893SOL     OW 3130   1.227   1.540   8.961
  893SOL    HW1 3131   1.215   1.468   9.023
  893SOL    HW2 3132   1.160   1.526   8.894
  894SOL     OW 3133   0.310   0.951   7.690
  894SOL    HW1 3134   0.394   0.973   7.648
  894SOL    HW2 3135   0.299   0.858   7.673
  895SOL     OW 3136   1.481   0.752   8.176
  895SOL    HW1 3137   1.478   0.711   8.262
  895SOL    HW2 3138   1.559   0.807   8.178
  896SOL     OW 3139   0.471   1.262   9.186
  896SOL    HW1 3140   0.445   1.269   9.094
  896SOL    HW2 3141   0.388   1.263   9.234
  897SOL     OW 3142   1.120   1.763   7.711
  897SOL    HW1 3143   1.038   1.721   7.734
  897SOL    HW2 3144   1.148   1.719   7.630
  898SOL     OW 3145   0.202   0.292   8.950
  898SOL    HW1 3146   0.108   0.311   8.950
  898SOL    HW2 3147   0.211   0.214   9.004
  899SOL     OW 3148   0.465   1.738   7.764
  899SOL    HW1 3149   0.510   1.794   7.827
  899SOL    HW2 3150   0.536   1.701   7.710
  900SOL     OW 3151   1.445   0.173   7.854
  900SOL    HW1 3152   1.392   0.104   7.813
  900SOL    HW2 3153   1.511   0.125   7.904
  901SOL     OW 3154   0.254   1.790   8.678
  901SOL    HW1 3155   0.298   1.721   8.728
  901SOL    HW2 3156   0.253   1.756   8.588
  902SOL     OW 3157   0.938   1.699   8.344
  902SOL    HW1 3158   1.018   1.650   8.365
  902SOL    HW2 3159   0.897   1.649   8.274
  903SOL     OW 3160   0.399   0.695   7.918
  903SOL    HW1 3161   0.424   0.603   7.934
  903SOL    HW2 3162   0.307   0.699   7.943
  904SOL     OW 3163   1.528   0.227   9.174
  904SOL    HW1 3164   1.521   0.251   9.267
  904SOL    HW2 3165   1.516   0.132   9.173
  905SOL     OW 3166   0.647   0.126   7.552
  905SOL    HW1 3167   0.666   0.041   7.590
  905SOL    HW2 3168   0.586   0.107   7.480
  906SOL     OW 3169   0.774   0.286   9.220
  906SOL    HW1 3170   0.853   0.233   9.219
  906SOL    HW2 3171   0.721   0.250   9.290
  907SOL     OW 3172   0.875   1.523   8.642
  907SOL    HW1 3173   0.858   1.485   8.556
  907SOL    HW2 3174   0.945   1.468   8.679
  908SOL     OW 3175   1.338   0.588   8.879
  908SOL    HW1 3176   1.369   0.559   8.965
  908SOL    HW2 3177   1.374   0.676   8.869
  909SOL     OW 3178   0.817   1.389   8.392
  909SOL    HW1 3179   0.903   1.378   8.351
  909SOL    HW2 3180   0.756   1.396   8.319
  910SOL     OW 3181   0.931   0.513   8.346
  910SOL    HW1 3182   0.906   0.504   8.254
  910SOL    HW2 3183   0.955   0.424   8.373
  911SOL     OW 3184   0.547   0.055   7.935
  911SOL    HW1 3185   0.474   0.062   7.996
  911SOL    HW2 3186   0.548   0.139   7.888
  912SOL     OW 3187   1.428   1.197   7.478
  912SOL    HW1 3188   1.463   1.130   7.536
  912SOL    HW2 3189   1.350   1.230   7.523
  913SOL     OW 3190   0.354   0.031   7.648
  913SOL    HW1 3191   0.356   0.088   7.572
  913SOL    HW2 3192   0.442   0.039   7.686
  914SOL     OW 3193   0.945   0.251   7.906
  914SOL    HW1 3194   0.919   0.290   7.822
  914SOL    HW2 3195   1.041   0.258   7.907
  915SOL     OW 3196   1.079   0.686   8.905
  915SOL    HW1 3197   1.010   0.619   8.911
  915SOL    HW2 3198   1.160   0.636   8.900
  916SOL     OW 3199   1.220   1.572   8.244
  916SOL    HW1 3200   1.235   1.637   8.175
  916SOL    HW2 3201   1.290   1.587   8.307
  917SOL     OW 3202   0.466   1.151   8.180
  917SOL    HW1 3203   0.396   1.125   8.240
  917SOL    HW2 3204   0.430   1.136   8.093
  918SOL     OW 3205   1.259   1.791   8.051
  918SOL    HW1 3206   1.282   1.850   7.980
  918SOL    HW2 3207   1.195   1.839   8.104
  919SOL     OW 3208   1.021   0.539   7.480
  919SOL    HW1 3209   0.978   0.622   7.459
  919SOL    HW2 3210   1.085   0.561   7.547
  920SOL     OW 3211   0.082   0.576   8.840
  920SOL    HW1 3212   0.171   0.557   8.810
  920SOL    HW2 3213   0.092   0.647   8.904
  921SOL     OW 3214   0.572   0.231   8.607
  921SOL    HW1 3215   0.592   0.138   8.615
  921SOL    HW2 3216   0.481   0.238   8.636
  922SOL     OW 3217   0.871   0.461   8.085
  922SOL    HW1 3218   0.821   0.514   8.023
  922SOL    HW2 3219   0.892   0.381   8.036
  923SOL     OW 3220   0.997   0.037   8.230
  923SOL    HW1 3221   0.957   0.069   8.149
  923SOL    HW2 3222   1.009   3.943   8.216
  924SOL     OW 3223   1.440   1.160   8.305
  924SOL    HW1 3224   1.368   1.097   8.302
  924SOL    HW2 3225   1.468   1.169   8.214
  925SOL     OW 3226   1.464   0.609   8.418
  925SOL    HW1 3227   1.407   0.532   8.423
  925SOL    HW2 3228   1.523   0.601   8.493
  926SOL     OW 3229   1.846   0.816   7.839
  926SOL    HW1 3230   1.903   0.763   7.895
  926SOL    HW2 3231   1.818   0.756   7.769
  927SOL     OW 3232   0.486   1.423   7.606
  927SOL    HW1 3233   0.410   1.392   7.655
  927SOL    HW2 3234   0.477   1.383   7.519
  928SOL     OW 3235   1.673   1.262   8.095
  928SOL    HW1 3236   1.768   1.260   8.108
  928SOL    HW2 3237   1.648   1.352   8.115
  929SOL     OW 3238   1.395   0.577   7.516
  929SOL    HW1 3239   1.332   0.558   7.585
  929SOL    HW2 3240   1.480   0.559   7.556
  930SOL     OW 3241   0.556   0.270   7.765
  930SOL    HW1 3242   0.606   0.231   7.694
  930SOL    HW2 3243   0.527   0.355   7.730
  931SOL     OW 3244   1.748   1.242   9.011
  931SOL    HW1 3245   1.836   1.203   9.005
  931SOL    HW2 3246   1.764   1.332   9.040
  932SOL     OW 3247   1.054   1.354   8.781
  932SOL    HW1 3248   0.979   1.322   8.830
  932SOL    HW2 3249   1.129   1.312   8.822
  933SOL     OW 3250   1.609   1.627   9.103
  933SOL    HW1 3251   1.603   1.664   9.015
  933SOL    HW2 3252   1.692   1.579   9.103
  934SOL     OW 3253   1.135   1.211   8.551
  934SOL    HW1 3254   1.074   1.247   8.614
  934SOL    HW2 3255   1.105   1.244   8.466
  935SOL     OW 3256   1.622   1.095   8.524
  935SOL    HW1 3257   1.615   1.157   8.596
  935SOL    HW2 3258   1.547   1.114   8.468
  936SOL     OW 3259   0.912   0.119   8.849
  936SOL    HW1 3260   0.932   0.089   8.760
  936SOL    HW2 3261   0.993   0.160   8.879
  937SOL     OW 3262   0.984   1.116   9.172
  937SOL    HW1 3263   0.893   1.132   9.195
  937SOL    HW2 3264   0.981   1.037   9.117
  938SOL     OW 3265   0.707   1.061   7.819
  938SOL    HW1 3266   0.694   1.043   7.912
  938SOL    HW2 3267   0.783   1.008   7.795
  939SOL     OW 3268   0.424   0.819   8.702
  939SOL    HW1 3269   0.492   0.825   8.768
  939SOL    HW2 3270   0.389   0.730   8.711
  940SOL     OW 3271   1.265   0.374   8.726
  940SOL    HW1 3272   1.298   0.453   8.770
  940SOL    HW2 3273   1.177   0.398   8.697
  941SOL     OW 3274   0.065   1.579   8.793
  941SOL    HW1 3275   0.071   1.620   8.707
  941SOL    HW2 3276   0.156   1.571   8.821
  942SOL     OW 3277   0.365   1.103   7.928
  942SOL    HW1 3278   0.362   1.183   7.876
  942SOL    HW2 3279   0.365   1.032   7.864
  943SOL     OW 3280   0.554   0.530   8.304
  943SOL    HW1 3281   0.566   0.590   8.230
  943SOL    HW2 3282   0.620   0.557   8.368
  944SOL     OW 3283   1.245   1.345   7.841
  944SOL    HW1 3284   1.300   1.414   7.877
  944SOL    HW2 3285   1.156   1.366   7.871
  945SOL     OW 3286   1.289   1.461   8.597
  945SOL    HW1 3287   1.344   1.466   8.674
  945SOL    HW2 3288   1.234   1.384   8.611
  946SOL     OW 3289   1.572   0.636   7.937
  946SOL    HW1 3290   1.528   0.687   8.004
  946SOL    HW2 3291   1.617   0.701   7.883
  947SOL     OW 3292   0.346   1.528   8.765
  947SOL    HW1 3293   0.336   1.477   8.685
  947SOL    HW2 3294   0.440   1.543   8.773
  948SOL     OW 3295   0.421   0.736   9.049
  948SOL    HW1 3296   0.485   0.780   8.993
  948SOL    HW2 3297   0.456   0.648   9.061
  949SOL     OW 3298   1.607   0.783   9.135
  949SOL    HW1 3299   1.521   0.824   9.128
  949SOL    HW2 3300   1.659   0.823   9.066
  950SOL     OW 3301   1.006   0.142   9.229
  950SOL    HW1 3302   1.065   0.210   9.197
  950SOL    HW2 3303   0.997   0.081   9.156
  951SOL     OW 3304   0.487   0.037   9.211
  951SOL    HW1 3305   0.490   0.051   9.116
  951SOL    HW2 3306   0.424   0.102   9.242
  952SOL     OW 3307   0.586   0.876   8.480
  952SOL    HW1 3308   0.620   0.965   8.484
  952SOL    HW2 3309   0.530   0.868   8.557
  953SOL     OW 3310   1.348   0.858   8.471
  953SOL    HW1 3311   1.262   0.843   8.431
  953SOL    HW2 3312   1.393   0.774   8.462
  954SOL     OW 3313   1.198   0.539   7.703
  954SOL    HW1 3314   1.207   0.459   7.756
  954SOL    HW2 3315   1.155   0.602   7.760
  955SOL     OW 3316   0.310   0.211   8.686
  955SOL    HW1 3317   0.266   0.248   8.763
  955SOL    HW2 3318   0.296   0.117   8.694
  956SOL     OW 3319   0.063   1.306   8.729
  956SOL    HW1 3320   0.092   1.262   8.809
  956SOL    HW2 3321   0.054   1.398   8.754
  957SOL     OW 3322   0.723   0.633   8.498
  957SOL    HW1 3323   0.798   0.620   8.441
  957SOL    HW2 3324   0.692   0.722   8.479
  958SOL     OW 3325   1.740   0.959   9.307
  958SOL    HW1 3326   1.695   0.894   9.253
  958SOL    HW2 3327   1.679   0.977   9.378
  959SOL     OW 3328   0.334   0.054   8.108
  959SOL    HW1 3329   0.305   0.145   8.109
  959SOL    HW2 3330   0.300   0.016   8.189
  960SOL     OW 3331   1.610   0.396   7.825
  960SOL    HW1 3332   1.564   0.328   7.873
  960SOL    HW2 3333   1.590   0.477   7.872
  961SOL     OW 3334   1.031   0.759   8.406
  961SOL    HW1 3335   1.021   0.776   8.499
  961SOL    HW2 3336   1.003   0.669   8.394
  962SOL     OW 3337   0.981   1.566   9.169
  962SOL    HW1 3338   0.965   1.610   9.085
  962SOL    HW2 3339   1.025   1.484   9.145
  963SOL     OW 3340   1.853   1.500   9.050
  963SOL    HW1 3341   1.871   1.532   8.962
  963SOL    HW2 3342   1.936   1.510   9.097
  964SOL     OW 3343   0.356   0.922   9.245
  964SOL    HW1 3344   0.433   0.943   9.298
  964SOL    HW2 3345   0.385   0.854   9.185
  965SOL     OW 3346   1.501   0.272   7.580
  965SOL    HW1 3347   1.429   0.210   7.592
  965SOL    HW2 3348   1.514   0.311   7.667
  966SOL     OW 3349   1.286   0.827   7.476
  966SOL    HW1 3350   1.329   0.741   7.480
  966SOL    HW2 3351   1.318   0.866   7.395
  967SOL     OW 3352   1.069   1.339   8.305
  967SOL    HW1 3353   1.073   1.267   8.242
  967SOL    HW2 3354   1.127   1.406   8.270
  968SOL     OW 3355   0.313   0.801   8.398
  968SOL    HW1 3356   0.407   0.817   8.392
  968SOL    HW2 3357   0.306   0.711   8.430
  969SOL     OW 3358   0.340   0.529   8.465
  969SOL    HW1 3359   0.297   0.445   8.447
  969SOL    HW2 3360   0.414   0.531   8.405
  970SOL     OW 3361   1.134   0.379   9.148
  970SOL    HW1 3362   1.085   0.434   9.210
  970SOL    HW2 3363   1.220   0.420   9.143
  971SOL     OW 3364   1.151   0.225   8.930
  971SOL    HW1 3365   1.142   0.279   9.009
  971SOL    HW2 3366   1.180   0.287   8.862
  972SOL     OW 3367   0.001   1.315   7.631
  972SOL    HW1 3368   3.907   1.331   7.634
  972SOL    HW2 3369   0.010   1.221   7.649
  973SOL     OW 3370   0.080   1.799   8.335
  973SOL    HW1 3371   0.090   1.704   8.334
  973SOL    HW2 3372   0.169   1.832   8.340
  974SOL     OW 3373   0.495   1.572   8.357
  974SOL    HW1 3374   0.565   1.632   8.383
  974SOL    HW2 3375   0.539   1.509   8.299
  975SOL     OW 3376   0.973   0.787   8.670
  975SOL    HW1 3377   1.031   0.769   8.745
  975SOL    HW2 3378   0.890   0.747   8.694
  976SOL     OW 3379   0.034   0.581   8.560
  976SOL    HW1 3380   0.090   0.523   8.509
  976SOL    HW2 3381   0.061   0.567   8.650
  977SOL     OW 3382   0.211   0.515   9.170
  977SOL    HW1 3383   0.255   0.472   9.096
  977SOL    HW2 3384   0.169   0.591   9.132
  978SOL     OW 3385   1.380   0.934   9.104
  978SOL    HW1 3386   1.402   1.027   9.100
  978SOL    HW2 3387   1.376   0.906   9.012
  979SOL     OW 3388   0.819   0.572   7.814
  979SOL    HW1 3389   0.826   0.496   7.755
  979SOL    HW2 3390   0.744   0.621   7.780
  980SOL     OW 3391   1.639   0.602   8.628
  980SOL    HW1 3392   1.630   0.542   8.702
  980SOL    HW2 3393   1.727   0.586   8.594
  981SOL     OW 3394   0.301   1.543   9.169
  981SOL    HW1 3395   0.255   1.612   9.217
  981SOL    HW2 3396   0.274   1.462   9.211
  982SOL     OW 3397   0.717   0.451   8.699
  982SOL    HW1 3398   0.664   0.374   8.676
  982SOL    HW2 3399   0.704   0.511   8.626
  983SOL     OW 3400   0.922   1.679   8.920
  983SOL    HW1 3401   0.898   1.639   8.836
  983SOL    HW2 3402   0.916   1.773   8.904
  984SOL     OW 3403   0.450   0.492   7.648
  984SOL    HW1 3404   0.515   0.561   7.665
  984SOL    HW2 3405   0.371   0.539   7.622
  985SOL     OW 3406   0.154   1.133   8.924
  985SOL    HW1 3407   0.154   1.084   9.006
  985SOL    HW2 3408   0.169   1.068   8.856
  986SOL     OW 3409   1.321   1.043   8.668
  986SOL    HW1 3410   1.342   0.980   8.599
  986SOL    HW2 3411   1.254   1.100   8.628
  987SOL     OW 3412   1.318   0.856   7.751
  987SOL    HW1 3413   1.242   0.828   7.803
  987SOL    HW2 3414   1.290   0.845   7.660
  988SOL     OW 3415   1.741   1.729   8.583
  988SOL    HW1 3416   1.817   1.751   8.530
  988SOL    HW2 3417   1.725   1.636   8.565
  989SOL     OW 3418   1.243   1.734   8.552
  989SOL    HW1 3419   1.327   1.758   8.511
  989SOL    HW2 3420   1.252   1.641   8.573
  990SOL     OW 3421   0.079   1.216   8.476
  990SOL    HW1 3422   0.085   1.242   8.568
  990SOL    HW2 3423   3.987   1.228   8.453
  991SOL     OW 3424   0.681   1.670   9.187
  991SOL    HW1 3425   0.620   1.743   9.176
  991SOL    HW2 3426   0.749   1.686   9.122
  992SOL     OW 3427   1.717   0.123   7.939
  992SOL    HW1 3428   1.794   0.134   7.884
  992SOL    HW2 3429   1.706   0.028   7.946
  993SOL     OW 3430   1.388   1.562   7.940
  993SOL    HW1 3431   1.420   1.588   7.853
  993SOL    HW2 3432   1.337   1.637   7.970
  994SOL     OW 3433   0.177   1.760   9.280
  994SOL    HW1 3434   0.121   1.708   9.337
  994SOL    HW2 3435   0.216   1.826   9.338
  995SOL     OW 3436   1.278   0.929   8.120
  995SOL    HW1 3437   1.352   0.870   8.132
  995SOL    HW2 3438   1.312   1.000   8.065
  996SOL     OW 3439   0.805   1.275   8.873
  996SOL    HW1 3440   0.776   1.318   8.954
  996SOL    HW2 3441   0.733   1.290   8.811
  997SOL     OW 3442   0.667   1.625   7.604
  997SOL    HW1 3443   0.680   1.638   7.510
  997SOL    HW2 3444   0.612   1.547   7.610
  998SOL     OW 3445   1.617   1.731   8.837
  998SOL    HW1 3446   1.662   1.734   8.753
  998SOL    HW2 3447   1.604   1.822   8.861
  999SOL     OW 3448   1.840   0.179   8.412
  999SOL    HW1 3449   1.873   0.117   8.347
  999SOL    HW2 3450   1.750   0.198   8.384
 1000SOL     OW 3451   0.276   0.321   8.161
 1000SOL    HW1 3452   0.191   0.355   8.134
 1000SOL    HW2 3453   0.267   0.307   8.256
 1001SOL     OW 3454   1.186   1.611   7.494
 1001SOL    HW1 3455   1.192   1.517   7.509
 1001SOL    HW2 3456   1.126   1.620   7.420
 1002SOL     OW 3457   0.823   1.006   8.823
 1002SOL    HW1 3458   0.866   0.999   8.738
 1002SOL    HW2 3459   0.820   1.100   8.841
 1003SOL     OW 3460   0.915   0.910   7.740
 1003SOL    HW1 3461   0.975   0.943   7.673
 1003SOL    HW2 3462   0.965   0.843   7.786
 1004SOL     OW 3463   0.374   1.302   8.940
 1004SOL    HW1 3464   0.359   1.382   8.890
 1004SOL    HW2 3465   0.297   1.248   8.922
 1005SOL     OW 3466   1.607   1.282   8.730
 1005SOL    HW1 3467   1.667   1.267   8.803
 1005SOL    HW2 3468   1.547   1.350   8.761
 1006SOL     OW 3469   1.061   1.111   8.159
 1006SOL    HW1 3470   0.988   1.060   8.195
 1006SOL    HW2 3471   1.124   1.045   8.132
 1007SOL     OW 3472   1.015   0.251   8.419
 1007SOL    HW1 3473   1.006   0.200   8.339
 1007SOL    HW2 3474   1.013   0.185   8.489
 1008SOL     OW 3475   0.607   1.487   7.931
 1008SOL    HW1 3476   0.656   1.438   7.865
 1008SOL    HW2 3477   0.531   1.522   7.884
 1009SOL     OW 3478   1.721   0.395   8.818
 1009SOL    HW1 3479   1.795   0.457   8.824
 1009SOL    HW2 3480   1.754   0.323   8.764
 1010SOL     OW 3481   0.255   1.340   7.742
 1010SOL    HW1 3482   0.161   1.344   7.724
 1010SOL    HW2 3483   0.265   1.381   7.828
 1011SOL     OW 3484   0.110   0.998   9.166
 1011SOL    HW1 3485   0.050   0.992   9.241
 1011SOL    HW2 3486   0.196   0.981   9.203
 1012SOL     OW 3487   0.695   0.259   8.953
 1012SOL    HW1 3488   0.762   0.206   8.911
 1012SOL    HW2 3489   0.724   0.267   9.043
 1013SOL     OW 3490   0.088   0.316   7.471
 1013SOL    HW1 3491   3.993   0.316   7.465
 1013SOL    HW2 3492   0.116   0.399   7.432
 1014SOL     OW 3493   1.424   0.856   8.844
 1014SOL    HW1 3494   1.375   0.918   8.790
 1014SOL    HW2 3495   1.513   0.859   8.809
 1015SOL     OW 3496   0.034   0.175   7.731
 1015SOL    HW1 3497   0.037   0.224   7.649
 1015SOL    HW2 3498   0.109   0.208   7.782
 1016SOL     OW 3499   1.182   1.333   7.565
 1016SOL    HW1 3500   1.091   1.304   7.566
 1016SOL    HW2 3501   1.207   1.335   7.658
 1017SOL     OW 3502   0.622   0.828   8.886
 1017SOL    HW1 3503   0.679   0.903   8.870
 1017SOL    HW2 3504   0.683   0.754   8.893
 1018SOL     OW 3505   1.489   1.792   8.435
 1018SOL    HW1 3506   1.510   1.862   8.374
 1018SOL    HW2 3507   1.572   1.770   8.476
 1019SOL     OW 3508   0.718   0.560   9.154
 1019SOL    HW1 3509   0.764   0.621   9.212
 1019SOL    HW2 3510   0.741   0.473   9.187
 1020SOL     OW 3511   1.473   1.194   9.077
 1020SOL    HW1 3512   1.462   1.209   9.171
 1020SOL    HW2 3513   1.566   1.214   9.061
 1021SOL     OW 3514   0.377   1.745   9.003
 1021SOL    HW1 3515   0.290   1.783   8.992
 1021SOL    HW2 3516   0.361   1.662   9.048
 1022SOL     OW 3517   1.664   0.880   8.704
 1022SOL    HW1 3518   1.660   0.794   8.660
 1022SOL    HW2 3519   1.654   0.943   8.632
 1023SOL     OW 3520   1.222   0.339   7.888
 1023SOL    HW1 3521   1.290   0.272   7.881
 1023SOL    HW2 3522   1.239   0.383   7.971
 1024SOL     OW 3523   0.589   0.736   8.121
 1024SOL    HW1 3524   0.627   0.823   8.105
 1024SOL    HW2 3525   0.523   0.727   8.052
 1025SOL     OW 3526   1.748   0.384   9.091
 1025SOL    HW1 3527   1.731   0.390   8.997
 1025SOL    HW2 3528   1.691   0.313   9.121
 1026SOL     OW 3529   1.748   0.934   8.959
 1026SOL    HW1 3530   1.737   1.028   8.972
 1026SOL    HW2 3531   1.730   0.919   8.866
 1027SOL     OW 3532   0.862   1.365   7.489
 1027SOL    HW1 3533   0.826   1.396   7.572
 1027SOL    HW2 3534   0.880   1.445   7.440
 1028SOL     OW 3535   0.663   1.784   8.388
 1028SOL    HW1 3536   0.645   1.876   8.367
 1028SOL    HW2 3537   0.758   1.777   8.380
 1029SOL     OW 3538   0.870   0.970   8.301
 1029SOL    HW1 3539   0.920   0.898   8.338
 1029SOL    HW2 3540   0.831   1.014   8.376
 1030SOL     OW 3541   1.074   0.986   7.536
 1030SOL    HW1 3542   1.055   1.041   7.460
 1030SOL    HW2 3543   1.149   0.934   7.511
 1031SOL     OW 3544   1.843   1.546   8.292
 1031SOL    HW1 3545   1.764   1.543   8.239
 1031SOL    HW2 3546   1.829   1.482   8.361
 1032SOL     OW 3547   0.229   1.304   9.305
 1032SOL    HW1 3548   0.154   1.252   9.276
 1032SOL    HW2 3549   0.214   1.317   9.399
 1033SOL     OW 3550   0.128   1.286   8.173
 1033SOL    HW1 3551   0.143   1.232   8.251
 1033SOL    HW2 3552   0.105   1.223   8.105
 1034SOL     OW 3553   0.684   1.407   9.079
 1034SOL    HW1 3554   0.604   1.365   9.111
 1034SOL    HW2 3555   0.680   1.495   9.116
 1035SOL     OW 3556   1.809   0.183   8.684
 1035SOL    HW1 3557   1.813   0.089   8.701
 1035SOL    HW2 3558   1.826   0.191   8.590
 1036SOL     OW 3559   0.447   0.439   7.979
 1036SOL    HW1 3560   0.471   0.362   7.927
 1036SOL    HW2 3561   0.391   0.403   8.049
 1037SOL     OW 3562   1.699   1.468   8.534
 1037SOL    HW1 3563   1.617   1.452   8.487
 1037SOL    HW2 3564   1.699   1.401   8.603
 1038SOL     OW 3565   0.335   0.560   8.742
 1038SOL    HW1 3566   0.391   0.503   8.795
 1038SOL    HW2 3567   0.350   0.530   8.652
 1039SOL     OW 3568   0.831   1.580   8.122
 1039SOL    HW1 3569   0.816   1.646   8.054
 1039SOL    HW2 3570   0.755   1.522   8.116
 1040SOL     OW 3571   1.459   0.256   8.558
 1040SOL    HW1 3572   1.478   0.169   8.594
 1040SOL    HW2 3573   1.405   0.298   8.624
 1041SOL     OW 3574   1.001   0.025   8.593
 1041SOL    HW1 3575   0.918   0.001   8.552
 1041SOL    HW2 3576   1.049   3.943   8.601
 1042SOL     OW 3577   0.772   1.333   7.770
 1042SOL    HW1 3578   0.746   1.241   7.776
 1042SOL    HW2 3579   0.855   1.337   7.818
 1043SOL     OW 3580   0.621   1.557   8.736
 1043SOL    HW1 3581   0.622   1.640   8.784
 1043SOL    HW2 3582   0.709   1.550   8.698
 1044SOL     OW 3583   1.307   0.073   7.615
 1044SOL    HW1 3584   1.317   3.987   7.574
 1044SOL    HW2 3585   1.223   0.068   7.661
 1045SOL     OW 3586   1.279   0.456   8.132
 1045SOL    HW1 3587   1.233   0.540   8.125
 1045SOL    HW2 3588   1.282   0.437   8.225
 1046SOL     OW 3589   1.587   0.209   8.316
 1046SOL    HW1 3590   1.538   0.235   8.394
 1046SOL    HW2 3591   1.588   0.288   8.262
 1047SOL     OW 3592   0.048   1.046   7.691
 1047SOL    HW1 3593   0.142   1.031   7.683
 1047SOL    HW2 3594   0.011   0.960   7.713
 1048SOL     OW 3595   0.879   1.652   7.790
 1048SOL    HW1 3596   0.805   1.641   7.730
 1048SOL    HW2 3597   0.855   1.729   7.843
 1049SOL     OW 3598   0.232   0.631   9.425
 1049SOL    HW1 3599   0.139   0.634   9.446
 1049SOL    HW2 3600   0.235   0.600   9.335
 1050SOL     OW 3601   0.223   0.291  10.292
 1050SOL    HW1 3602   0.246   0.251  10.376
 1050SOL    HW2 3603   0.128   0.282  10.286
 1051SOL     OW 3604   0.019   0.384   9.947
 1051SOL    HW1 3605   3.928   0.400   9.969
 1051SOL    HW2 3606   0.024   0.289   9.933
 1052SOL     OW 3607   0.584   1.294  10.508
 1052SOL    HW1 3608   0.498   1.294  10.467
 1052SOL    HW2 3609   0.596   1.384  10.539
 1053SOL     OW 3610   1.572   1.515  10.019
 1053SOL    HW1 3611   1.529   1.494  10.102
 1053SOL    HW2 3612   1.501   1.520   9.955
 1054SOL     OW 3613   1.134   0.699  10.004
 1054SOL    HW1 3614   1.181   0.782   9.993
 1054SOL    HW2 3615   1.086   0.710  10.086
 1055SOL     OW 3616   1.774   0.620   9.532
 1055SOL    HW1 3617   1.749   0.612   9.440
 1055SOL    HW2 3618   1.754   0.534   9.570
 1056SOL     OW 3619   0.748   1.137  10.355
 1056SOL    HW1 3620   0.688   1.174  10.419
 1056SOL    HW2 3621   0.786   1.212  10.310
 1057SOL     OW 3622   0.875   0.765  11.135
 1057SOL    HW1 3623   0.864   0.837  11.198
 1057SOL    HW2 3624   0.896   0.809  11.053
 1058SOL     OW 3625   0.685   1.000   9.954
 1058SOL    HW1 3626   0.751   0.990  10.022
 1058SOL    HW2 3627   0.616   1.053   9.996
 1059SOL     OW 3628   0.713   1.148  11.130
 1059SOL    HW1 3629   0.761   1.226  11.160
 1059SOL    HW2 3630   0.633   1.183  11.090
 1060SOL     OW 3631   0.352   1.399  10.389
 1060SOL    HW1 3632   0.271   1.375  10.343
 1060SOL    HW2 3633   0.398   1.457  10.328
 1061SOL     OW 3634   1.460   1.503  10.671
 1061SOL    HW1 3635   1.514   1.581  10.679
 1061SOL    HW2 3636   1.392   1.512  10.738
 1062SOL     OW 3637   0.459   0.409  10.802
 1062SOL    HW1 3638   0.542   0.361  10.803
 1062SOL    HW2 3639   0.392   0.341  10.807
 1063SOL     OW 3640   1.611   0.451  10.046
 1063SOL    HW1 3641   1.545   0.482   9.984
 1063SOL    HW2 3642   1.623   0.523  10.108
 1064SOL     OW 3643   0.219   1.721   9.766
 1064SOL    HW1 3644   0.240   1.794   9.824
 1064SOL    HW2 3645   0.295   1.712   9.708
 1065SOL     OW 3646   1.138   1.342  11.004
 1065SOL    HW1 3647   1.179   1.335  11.090
 1065SOL    HW2 3648   1.086   1.262  10.996
 1066SOL     OW 3649   0.253   1.453   9.848
 1066SOL    HW1 3650   0.217   1.540   9.834
 1066SOL    HW2 3651   0.188   1.407   9.900
 1067SOL     OW 3652   0.249   1.064  10.193
 1067SOL    HW1 3653   0.269   0.979  10.231
 1067SOL    HW2 3654   0.196   1.108  10.260
 1068SOL     OW 3655   0.608   1.794  10.734
 1068SOL    HW1 3656   0.525   1.776  10.779
 1068SOL    HW2 3657   0.631   1.883  10.762
 1069SOL     OW 3658   0.574   0.988   9.451
 1069SOL    HW1 3659   0.624   1.031   9.381
 1069SOL    HW2 3660   0.614   1.018   9.532
 1070SOL     OW 3661   1.584   0.142  10.765
 1070SOL    HW1 3662   1.616   0.215  10.711
 1070SOL    HW2 3663   1.546   0.184  10.842
 1071SOL     OW 3664   0.142   0.654   9.879
 1071SOL    HW1 3665   0.100   0.568   9.884
 1071SOL    HW2 3666   0.103   0.703   9.951
 1072SOL     OW 3667   0.044   1.587   9.446
 1072SOL    HW1 3668   0.040   1.496   9.476
 1072SOL    HW2 3669   3.957   1.622   9.467
 1073SOL     OW 3670   1.688   0.918   9.954
 1073SOL    HW1 3671   1.771   0.876   9.934
 1073SOL    HW2 3672   1.668   0.970   9.877
 1074SOL     OW 3673   1.650   1.104   9.740
 1074SOL    HW1 3674   1.737   1.106   9.699
 1074SOL    HW2 3675   1.656   1.167   9.812
 1075SOL     OW 3676   0.145   0.756  10.899
 1075SOL    HW1 3677   0.241   0.753  10.891
 1075SOL    HW2 3678   0.127   0.842  10.936
 1076SOL     OW 3679   0.613   1.389  10.047
 1076SOL    HW1 3680   0.568   1.305  10.055
 1076SOL    HW2 3681   0.598   1.415   9.956
 1077SOL     OW 3682   1.285   1.236  10.731
 1077SOL    HW1 3683   1.316   1.168  10.671
 1077SOL    HW2 3684   1.345   1.231  10.806
 1078SOL     OW 3685   0.823   0.006   9.828
 1078SOL    HW1 3686   0.868   0.086   9.802
 1078SOL    HW2 3687   0.730   0.029   9.826
 1079SOL     OW 3688   0.183   0.948  10.590
 1079SOL    HW1 3689   0.272   0.913  10.579
 1079SOL    HW2 3690   0.132   0.907  10.520
 1080SOL     OW 3691   1.531   0.999   9.511
 1080SOL    HW1 3692   1.462   0.942   9.544
 1080SOL    HW2 3693   1.574   1.032   9.589
 1081SOL     OW 3694   1.183   1.812  10.936
 1081SOL    HW1 3695   1.190   1.873  10.862
 1081SOL    HW2 3696   1.202   1.726  10.898
 1082SOL     OW 3697   0.348   0.246  11.163
 1082SOL    HW1 3698   0.390   0.329  11.142
 1082SOL    HW2 3699   0.256   0.270  11.177
 1083SOL     OW 3700   1.464   1.419  10.255
 1083SOL    HW1 3701   1.399   1.435  10.323
 1083SOL    HW2 3702   1.451   1.328  10.230
 1084SOL     OW 3703   1.658   1.743   9.864
 1084SOL    HW1 3704   1.631   1.703   9.781
 1084SOL    HW2 3705   1.645   1.674   9.929
 1085SOL     OW 3706   0.596   0.715   9.579
 1085SOL    HW1 3707   0.600   0.800   9.535
 1085SOL    HW2 3708   0.532   0.728   9.649
 1086SOL     OW 3709   1.274   0.373  10.251
 1086SOL    HW1 3710   1.187   0.334  10.259
 1086SOL    HW2 3711   1.332   0.312  10.297
 1087SOL     OW 3712   1.577   1.671   9.605
 1087SOL    HW1 3713   1.668   1.687   9.580
 1087SOL    HW2 3714   1.533   1.650   9.523
 1088SOL     OW 3715   0.794   0.615  10.762
 1088SOL    HW1 3716   0.765   0.588  10.849
 1088SOL    HW2 3717   0.759   0.548  10.703
 1089SOL     OW 3718   1.392   0.475  10.987
 1089SOL    HW1 3719   1.400   0.521  11.071
 1089SOL    HW2 3720   1.448   0.398  10.997
 1090SOL     OW 3721   0.950   0.886  10.896
 1090SOL    HW1 3722   1.005   0.818  10.858
 1090SOL    HW2 3723   0.901   0.922  10.822
 1091SOL     OW 3724   0.995   0.402  10.544
 1091SOL    HW1 3725   0.907   0.420  10.580
 1091SOL    HW2 3726   0.978   0.375  10.454
 1092SOL     OW 3727   1.053   0.701   9.734
 1092SOL    HW1 3728   1.072   0.694   9.828
 1092SOL    HW2 3729   0.970   0.654   9.722
 1093SOL     OW 3730   0.082   0.832  10.099
 1093SOL    HW1 3731   0.151   0.796  10.155
 1093SOL    HW2 3732   0.108   0.922  10.084
 1094SOL     OW 3733   0.130   1.868  10.891
 1094SOL    HW1 3734   0.138   1.831  10.979
 1094SOL    HW2 3735   0.038   1.858  10.869
 1095SOL     OW 3736   0.895   0.353   9.509
 1095SOL    HW1 3737   0.937   0.413   9.448
 1095SOL    HW2 3738   0.890   0.270   9.461
 1096SOL     OW 3739   1.705   0.575  11.140
 1096SOL    HW1 3740   1.669   0.649  11.091
 1096SOL    HW2 3741   1.729   0.511  11.073
 1097SOL     OW 3742   1.380   1.141   9.848
 1097SOL    HW1 3743   1.461   1.132   9.797
 1097SOL    HW2 3744   1.328   1.204   9.799
 1098SOL     OW 3745   0.563   0.195  10.189
 1098SOL    HW1 3746   0.568   0.220  10.282
 1098SOL    HW2 3747   0.547   0.277  10.143
 1099SOL     OW 3748   1.000   1.444   9.778
 1099SOL    HW1 3749   0.969   1.519   9.728
 1099SOL    HW2 3750   0.977   1.464   9.869
 1100SOL     OW 3751   0.364   1.826  10.184
 1100SOL    HW1 3752   0.424   1.753  10.194
 1100SOL    HW2 3753   0.418   1.904  10.198
 1101SOL     OW 3754   1.800   1.048  10.184
 1101SOL    HW1 3755   1.747   1.033  10.106
 1101SOL    HW2 3756   1.736   1.056  10.255
 1102SOL     OW 3757   1.227   1.540  10.824
 1102SOL    HW1 3758   1.215   1.468  10.885
 1102SOL    HW2 3759   1.161   1.525  10.756
 1103SOL     OW 3760   0.310   0.951   9.552
 1103SOL    HW1 3761   0.393   0.973   9.510
 1103SOL    HW2 3762   0.298   0.858   9.535
 1104SOL     OW 3763   1.480   0.752  10.038
 1104SOL    HW1 3764   1.477   0.711  10.124
 1104SOL    HW2 3765   1.558   0.807  10.040
 1105SOL     OW 3766   0.471   1.262  11.048
 1105SOL    HW1 3767   0.445   1.269  10.956
 1105SOL    HW2 3768   0.388   1.263  11.096
 1106SOL     OW 3769   1.124   1.776   9.540
 1106SOL    HW1 3770   1.048   1.738   9.583
 1106SOL    HW2 3771   1.147   1.713   9.471
 1107SOL     OW 3772   0.202   0.292  10.812
 1107SOL    HW1 3773   0.108   0.311  10.812
 1107SOL    HW2 3774   0.211   0.214  10.866
 1108SOL     OW 3775   1.628   1.382   9.398
 1108SOL    HW1 3776   1.585   1.466   9.382
 1108SOL    HW2 3777   1.561   1.317   9.378
 1109SOL     OW 3778   0.466   1.739   9.625
 1109SOL    HW1 3779   0.510   1.794   9.689
 1109SOL    HW2 3780   0.536   1.701   9.573
 1110SOL     OW 3781   1.445   0.172   9.717
 1110SOL    HW1 3782   1.392   0.104   9.675
 1110SOL    HW2 3783   1.511   0.124   9.766
 1111SOL     OW 3784   0.255   1.790  10.540
 1111SOL    HW1 3785   0.298   1.721  10.590
 1111SOL    HW2 3786   0.252   1.756  10.450
 1112SOL     OW 3787   0.939   1.700  10.206
 1112SOL    HW1 3788   1.019   1.651  10.227
 1112SOL    HW2 3789   0.898   1.649  10.136
 1113SOL     OW 3790   0.399   0.695   9.780
 1113SOL    HW1 3791   0.424   0.603   9.796
 1113SOL    HW2 3792   0.307   0.699   9.805
 1114SOL     OW 3793   1.528   0.226  11.036
 1114SOL    HW1 3794   1.521   0.251  11.129
 1114SOL    HW2 3795   1.516   0.132  11.035
 1115SOL     OW 3796   0.647   0.126   9.414
 1115SOL    HW1 3797   0.666   0.041   9.452
 1115SOL    HW2 3798   0.586   0.108   9.342
 1116SOL     OW 3799   0.774   0.286  11.082
 1116SOL    HW1 3800   0.853   0.233  11.081
 1116SOL    HW2 3801   0.721   0.250  11.152
 1117SOL     OW 3802   0.875   1.523  10.504
 1117SOL    HW1 3803   0.859   1.485  10.418
 1117SOL    HW2 3804   0.945   1.468  10.542
 1118SOL     OW 3805   1.338   0.588  10.741
 1118SOL    HW1 3806   1.369   0.559  10.827
 1118SOL    HW2 3807   1.374   0.676  10.731
 1119SOL     OW 3808   0.817   1.389  10.255
 1119SOL    HW1 3809   0.903   1.378  10.213
 1119SOL    HW2 3810   0.756   1.395  10.181
 1120SOL     OW 3811   0.931   0.513  10.208
 1120SOL    HW1 3812   0.906   0.504  10.116
 1120SOL    HW2 3813   0.955   0.424  10.235
 1121SOL     OW 3814   0.547   0.055   9.797
 1121SOL    HW1 3815   0.474   0.062   9.858
 1121SOL    HW2 3816   0.548   0.139   9.750
 1122SOL     OW 3817   1.428   1.200   9.349
 1122SOL    HW1 3818   1.457   1.125   9.401
 1122SOL    HW2 3819   1.342   1.222   9.386
 1123SOL     OW 3820   0.354   0.031   9.510
 1123SOL    HW1 3821   0.356   0.088   9.434
 1123SOL    HW2 3822   0.442   0.039   9.548
 1124SOL     OW 3823   0.945   0.251   9.768
 1124SOL    HW1 3824   0.919   0.290   9.684
 1124SOL    HW2 3825   1.041   0.258   9.769
 1125SOL     OW 3826   1.079   0.686  10.767
 1125SOL    HW1 3827   1.011   0.619  10.773
 1125SOL    HW2 3828   1.161   0.636  10.762
 1126SOL     OW 3829   1.218   1.573  10.106
 1126SOL    HW1 3830   1.233   1.638  10.037
 1126SOL    HW2 3831   1.289   1.586  10.168
 1127SOL     OW 3832   0.467   1.152  10.042
 1127SOL    HW1 3833   0.396   1.126  10.102
 1127SOL    HW2 3834   0.431   1.137   9.955
 1128SOL     OW 3835   1.261   1.792   9.921
 1128SOL    HW1 3836   1.307   1.855   9.867
 1128SOL    HW2 3837   1.193   1.843   9.966
 1129SOL     OW 3838   1.021   0.539   9.342
 1129SOL    HW1 3839   0.978   0.622   9.322
 1129SOL    HW2 3840   1.085   0.561   9.409
 1130SOL     OW 3841   0.082   0.576  10.702
 1130SOL    HW1 3842   0.171   0.557  10.672
 1130SOL    HW2 3843   0.092   0.647  10.766
 1131SOL     OW 3844   0.572   0.231  10.469
 1131SOL    HW1 3845   0.592   0.138  10.477
 1131SOL    HW2 3846   0.481   0.238  10.498
 1132SOL     OW 3847   0.871   0.461   9.947
 1132SOL    HW1 3848   0.821   0.514   9.885
 1132SOL    HW2 3849   0.892   0.381   9.898
 1133SOL     OW 3850   0.997   0.037  10.092
 1133SOL    HW1 3851   0.957   0.069  10.011
 1133SOL    HW2 3852   1.010   3.943  10.078
 1134SOL     OW 3853   1.439   1.160  10.167
 1134SOL    HW1 3854   1.368   1.096  10.165
 1134SOL    HW2 3855   1.466   1.169  10.076
 1135SOL     OW 3856   1.464   0.609  10.280
 1135SOL    HW1 3857   1.407   0.532  10.285
 1135SOL    HW2 3858   1.523   0.601  10.355
 1136SOL     OW 3859   1.841   0.818   9.700
 1136SOL    HW1 3860   1.899   0.767   9.756
 1136SOL    HW2 3861   1.815   0.758   9.631
 1137SOL     OW 3862   0.487   1.423   9.468
 1137SOL    HW1 3863   0.411   1.393   9.517
 1137SOL    HW2 3864   0.476   1.385   9.381
 1138SOL     OW 3865   1.674   1.263   9.954
 1138SOL    HW1 3866   1.768   1.260   9.969
 1138SOL    HW2 3867   1.649   1.353   9.976
 1139SOL     OW 3868   1.395   0.578   9.378
 1139SOL    HW1 3869   1.332   0.558   9.447
 1139SOL    HW2 3870   1.481   0.559   9.417
 1140SOL     OW 3871   0.556   0.270   9.627
 1140SOL    HW1 3872   0.607   0.231   9.556
 1140SOL    HW2 3873   0.527   0.355   9.592
 1141SOL     OW 3874   1.748   1.242  10.874
 1141SOL    HW1 3875   1.836   1.204  10.866
 1141SOL    HW2 3876   1.764   1.332  10.902
 1142SOL     OW 3877   1.054   1.354  10.642
 1142SOL    HW1 3878   0.979   1.322  10.692
 1142SOL    HW2 3879   1.130   1.311  10.684
 1143SOL     OW 3880   1.609   1.626  10.966
 1143SOL    HW1 3881   1.602   1.664  10.878
 1143SOL    HW2 3882   1.692   1.579  10.965
 1144SOL     OW 3883   1.135   1.210  10.413
 1144SOL    HW1 3884   1.074   1.247  10.477
 1144SOL    HW2 3885   1.105   1.244  10.328
 1145SOL     OW 3886   1.622   1.095  10.386
 1145SOL    HW1 3887   1.615   1.157  10.458
 1145SOL    HW2 3888   1.547   1.115  10.330
 1146SOL     OW 3889   0.912   0.119  10.711
 1146SOL    HW1 3890   0.932   0.089  10.622
 1146SOL    HW2 3891   0.993   0.160  10.741
 1147SOL     OW 3892   0.984   1.116  11.034
 1147SOL    HW1 3893   0.893   1.132  11.057
 1147SOL    HW2 3894   0.981   1.037  10.979
 1148SOL     OW 3895   0.708   1.062   9.681
 1148SOL    HW1 3896   0.694   1.043   9.773
 1148SOL    HW2 3897   0.784   1.009   9.656
 1149SOL     OW 3898   0.424   0.819  10.564
 1149SOL    HW1 3899   0.492   0.825  10.630
 1149SOL    HW2 3900   0.389   0.730  10.573
 1150SOL     OW 3901   1.265   0.374  10.589
 1150SOL    HW1 3902   1.298   0.453  10.632
 1150SOL    HW2 3903   1.177   0.398  10.559
 1151SOL     OW 3904   0.065   1.579  10.655
 1151SOL    HW1 3905   0.070   1.620  10.568
 1151SOL    HW2 3906   0.156   1.571  10.683
 1152SOL     OW 3907   0.366   1.104   9.790
 1152SOL    HW1 3908   0.361   1.183   9.737
 1152SOL    HW2 3909   0.365   1.032   9.726
 1153SOL     OW 3910   0.554   0.530  10.166
 1153SOL    HW1 3911   0.566   0.590  10.092
 1153SOL    HW2 3912   0.620   0.557  10.230
 1154SOL     OW 3913   1.247   1.349   9.700
 1154SOL    HW1 3914   1.303   1.420   9.733
 1154SOL    HW2 3915   1.160   1.370   9.734
 1155SOL     OW 3916   1.289   1.461  10.459
 1155SOL    HW1 3917   1.345   1.466  10.536
 1155SOL    HW2 3918   1.234   1.384  10.474
 1156SOL     OW 3919   1.572   0.635   9.799
 1156SOL    HW1 3920   1.528   0.687   9.867
 1156SOL    HW2 3921   1.619   0.700   9.746
 1157SOL     OW 3922   0.345   1.528  10.627
 1157SOL    HW1 3923   0.336   1.477  10.547
 1157SOL    HW2 3924   0.440   1.543  10.635
 1158SOL     OW 3925   0.421   0.736  10.911
 1158SOL    HW1 3926   0.485   0.780  10.855
 1158SOL    HW2 3927   0.456   0.648  10.923
 1159SOL     OW 3928   1.607   0.783  10.997
 1159SOL    HW1 3929   1.521   0.824  10.990
 1159SOL    HW2 3930   1.659   0.823  10.928
 1160SOL     OW 3931   1.006   0.142  11.091
 1160SOL    HW1 3932   1.065   0.210  11.059
 1160SOL    HW2 3933   0.997   0.081  11.018
 1161SOL     OW 3934   0.487   0.037  11.073
 1161SOL    HW1 3935   0.490   0.051  10.978
 1161SOL    HW2 3936   0.424   0.102  11.104
 1162SOL     OW 3937   0.586   0.876  10.342
 1162SOL    HW1 3938   0.620   0.965  10.346
 1162SOL    HW2 3939   0.530   0.868  10.419
 1163SOL     OW 3940   1.347   0.858  10.332
 1163SOL    HW1 3941   1.261   0.843  10.293
 1163SOL    HW2 3942   1.393   0.775  10.323
 1164SOL     OW 3943   1.198   0.539   9.565
 1164SOL    HW1 3944   1.207   0.460   9.618
 1164SOL    HW2 3945   1.155   0.602   9.623
 1165SOL     OW 3946   0.310   0.211  10.548
 1165SOL    HW1 3947   0.266   0.248  10.625
 1165SOL    HW2 3948   0.296   0.117  10.556
 1166SOL     OW 3949   0.064   1.306  10.590
 1166SOL    HW1 3950   0.093   1.262  10.670
 1166SOL    HW2 3951   0.054   1.398  10.616
 1167SOL     OW 3952   0.723   0.633  10.360
 1167SOL    HW1 3953   0.798   0.620  10.303
 1167SOL    HW2 3954   0.692   0.722  10.341
 1168SOL     OW 3955   1.740   0.959  11.169
 1168SOL    HW1 3956   1.695   0.894  11.115
 1168SOL    HW2 3957   1.679   0.976  11.241
 1169SOL     OW 3958   0.334   0.054   9.970
 1169SOL    HW1 3959   0.305   0.145   9.971
 1169SOL    HW2 3960   0.300   0.016  10.051
 1170SOL     OW 3961   1.610   0.395   9.687
 1170SOL    HW1 3962   1.563   0.327   9.736
 1170SOL    HW2 3963   1.590   0.476   9.734
 1171SOL     OW 3964   1.031   0.759  10.268
 1171SOL    HW1 3965   1.021   0.776  10.361
 1171SOL    HW2 3966   1.003   0.669  10.256
 1172SOL     OW 3967   0.981   1.566  11.031
 1172SOL    HW1 3968   0.965   1.610  10.947
 1172SOL    HW2 3969   1.025   1.484  11.007
 1173SOL     OW 3970   1.853   1.500  10.912
 1173SOL    HW1 3971   1.871   1.532  10.823
 1173SOL    HW2 3972   1.937   1.510  10.958
 1174SOL     OW 3973   0.356   0.922  11.107
 1174SOL    HW1 3974   0.433   0.943  11.160
 1174SOL    HW2 3975   0.385   0.854  11.047
 1175SOL     OW 3976   1.501   0.273   9.442
 1175SOL    HW1 3977   1.429   0.210   9.455
 1175SOL    HW2 3978   1.514   0.311   9.529
 1176SOL     OW 3979   1.286   0.827   9.337
 1176SOL    HW1 3980   1.329   0.741   9.341
 1176SOL    HW2 3981   1.318   0.866   9.256
 1177SOL     OW 3982   1.068   1.339  10.167
 1177SOL    HW1 3983   1.073   1.267  10.104
 1177SOL    HW2 3984   1.126   1.406  10.132
 1178SOL     OW 3985   0.313   0.801  10.260
 1178SOL    HW1 3986   0.407   0.817  10.254
 1178SOL    HW2 3987   0.306   0.711  10.292
 1179SOL     OW 3988   0.340   0.529  10.327
 1179SOL    HW1 3989   0.297   0.445  10.309
 1179SOL    HW2 3990   0.414   0.531  10.267
 1180SOL     OW 3991   1.134   0.379  11.010
 1180SOL    HW1 3992   1.085   0.434  11.072
 1180SOL    HW2 3993   1.220   0.420  11.005
 1181SOL     OW 3994   1.151   0.225  10.792
 1181SOL    HW1 3995   1.142   0.279  10.871
 1181SOL    HW2 3996   1.180   0.287  10.724
 1182SOL     OW 3997   0.002   1.314   9.493
 1182SOL    HW1 3998   3.907   1.331   9.495
 1182SOL    HW2 3999   0.010   1.221   9.511
 1183SOL     OW 4000   0.080   1.799  10.197
 1183SOL    HW1 4001   0.090   1.704  10.196
 1183SOL    HW2 4002   0.169   1.832  10.202
 1184SOL     OW 4003   0.495   1.572  10.219
 1184SOL    HW1 4004   0.565   1.632  10.245
 1184SOL    HW2 4005   0.539   1.509  10.161
 1185SOL     OW 4006   0.973   0.787  10.532
 1185SOL    HW1 4007   1.031   0.769  10.607
 1185SOL    HW2 4008   0.890   0.747  10.556
 1186SOL     OW 4009   0.034   0.581  10.422
 1186SOL    HW1 4010   0.090   0.522  10.371
 1186SOL    HW2 4011   0.061   0.567  10.512
 1187SOL     OW 4012   0.211   0.515  11.032
 1187SOL    HW1 4013   0.255   0.472  10.958
 1187SOL    HW2 4014   0.169   0.591  10.994
 1188SOL     OW 4015   1.380   0.934  10.966
 1188SOL    HW1 4016   1.402   1.027  10.962
 1188SOL    HW2 4017   1.376   0.906  10.874
 1189SOL     OW 4018   0.819   0.572   9.675
 1189SOL    HW1 4019   0.826   0.496   9.617
 1189SOL    HW2 4020   0.744   0.621   9.642
 1190SOL     OW 4021   1.639   0.602  10.490
 1190SOL    HW1 4022   1.630   0.542  10.564
 1190SOL    HW2 4023   1.727   0.586  10.456
 1191SOL     OW 4024   0.301   1.543  11.031
 1191SOL    HW1 4025   0.255   1.612  11.079
 1191SOL    HW2 4026   0.274   1.462  11.073
 1192SOL     OW 4027   0.717   0.451  10.561
 1192SOL    HW1 4028   0.664   0.374  10.538
 1192SOL    HW2 4029   0.704   0.511  10.488
 1193SOL     OW 4030   0.921   1.679  10.782
 1193SOL    HW1 4031   0.898   1.639  10.698
 1193SOL    HW2 4032   0.916   1.773  10.766
 1194SOL     OW 4033   0.450   0.492   9.510
 1194SOL    HW1 4034   0.515   0.561   9.527
 1194SOL    HW2 4035   0.371   0.539   9.484
 1195SOL     OW 4036   0.154   1.133  10.786
 1195SOL    HW1 4037   0.154   1.084  10.868
 1195SOL    HW2 4038   0.169   1.068  10.718
 1196SOL     OW 4039   1.320   1.043  10.530
 1196SOL    HW1 4040   1.342   0.980  10.461
 1196SOL    HW2 4041   1.254   1.100  10.490
 1197SOL     OW 4042   1.317   0.856   9.613
 1197SOL    HW1 4043   1.242   0.827   9.666
 1197SOL    HW2 4044   1.288   0.844   9.523
 1198SOL     OW 4045   1.742   1.729  10.447
 1198SOL    HW1 4046   1.819   1.751  10.395
 1198SOL    HW2 4047   1.727   1.636  10.428
 1199SOL     OW 4048   1.243   1.734  10.414
 1199SOL    HW1 4049   1.327   1.758  10.374
 1199SOL    HW2 4050   1.252   1.641  10.435
 1200SOL     OW 4051   0.079   1.217  10.337
 1200SOL    HW1 4052   0.085   1.242  10.429
 1200SOL    HW2 4053   3.987   1.228  10.315
 1201SOL     OW 4054   0.681   1.670  11.049
 1201SOL    HW1 4055   0.620   1.743  11.038
 1201SOL    HW2 4056   0.749   1.686  10.984
 1202SOL     OW 4057   1.717   0.122   9.801
 1202SOL    HW1 4058   1.794   0.134   9.746
 1202SOL    HW2 4059   1.706   0.028   9.807
 1203SOL     OW 4060   1.392   1.568   9.799
 1203SOL    HW1 4061   1.446   1.603   9.728
 1203SOL    HW2 4062   1.341   1.644   9.829
 1204SOL     OW 4063   0.177   1.760  11.142
 1204SOL    HW1 4064   0.121   1.708  11.199
 1204SOL    HW2 4065   0.216   1.826  11.200
 1205SOL     OW 4066   1.277   0.929   9.981
 1205SOL    HW1 4067   1.351   0.870   9.994
 1205SOL    HW2 4068   1.312   1.000   9.927
 1206SOL     OW 4069   0.805   1.275  10.735
 1206SOL    HW1 4070   0.776   1.318  10.816
 1206SOL    HW2 4071   0.733   1.290  10.673
 1207SOL     OW 4072   0.670   1.625   9.466
 1207SOL    HW1 4073   0.682   1.638   9.372
 1207SOL    HW2 4074   0.614   1.547   9.472
 1208SOL     OW 4075   1.617   1.731  10.700
 1208SOL    HW1 4076   1.662   1.734  10.616
 1208SOL    HW2 4077   1.605   1.822  10.724
 1209SOL     OW 4078   1.840   0.179  10.274
 1209SOL    HW1 4079   1.873   0.118  10.208
 1209SOL    HW2 4080   1.750   0.198  10.246
 1210SOL     OW 4081   0.276   0.321  10.023
 1210SOL    HW1 4082   0.191   0.355   9.996
 1210SOL    HW2 4083   0.267   0.307  10.118
 1211SOL     OW 4084   1.205   1.601   9.342
 1211SOL    HW1 4085   1.195   1.510   9.369
 1211SOL    HW2 4086   1.139   1.614   9.274
 1212SOL     OW 4087   0.823   1.006  10.685
 1212SOL    HW1 4088   0.866   0.999  10.600
 1212SOL    HW2 4089   0.820   1.100  10.703
 1213SOL     OW 4090   0.915   0.911   9.601
 1213SOL    HW1 4091   0.976   0.944   9.534
 1213SOL    HW2 4092   0.965   0.843   9.647
 1214SOL     OW 4093   1.483   1.623   9.349
 1214SOL    HW1 4094   1.389   1.616   9.332
 1214SOL    HW2 4095   1.523   1.631   9.262
 1215SOL     OW 4096   0.374   1.302  10.802
 1215SOL    HW1 4097   0.359   1.382  10.752
 1215SOL    HW2 4098   0.297   1.248  10.784
 1216SOL     OW 4099   1.606   1.282  10.590
 1216SOL    HW1 4100   1.668   1.269  10.662
 1216SOL    HW2 4101   1.547   1.351  10.623
 1217SOL     OW 4102   1.060   1.111  10.020
 1217SOL    HW1 4103   0.988   1.060  10.057
 1217SOL    HW2 4104   1.125   1.045   9.994
 1218SOL     OW 4105   1.015   0.251  10.281
 1218SOL    HW1 4106   1.006   0.200  10.201
 1218SOL    HW2 4107   1.013   0.185  10.351
 1219SOL     OW 4108   0.607   1.488   9.792
 1219SOL    HW1 4109   0.655   1.439   9.726
 1219SOL    HW2 4110   0.530   1.521   9.746
 1220SOL     OW 4111   1.721   0.395  10.681
 1220SOL    HW1 4112   1.795   0.456  10.686
 1220SOL    HW2 4113   1.754   0.323  10.626
 1221SOL     OW 4114   0.255   1.340   9.604
 1221SOL    HW1 4115   0.161   1.344   9.587
 1221SOL    HW2 4116   0.265   1.381   9.690
 1222SOL     OW 4117   0.110   0.998  11.028
 1222SOL    HW1 4118   0.050   0.992  11.103
 1222SOL    HW2 4119   0.196   0.981  11.065
 1223SOL     OW 4120   0.695   0.259  10.815
 1223SOL    HW1 4121   0.762   0.205  10.772
 1223SOL    HW2 4122   0.724   0.267  10.905
 1224SOL     OW 4123   0.088   0.316   9.333
 1224SOL    HW1 4124   3.993   0.316   9.327
 1224SOL    HW2 4125   0.116   0.399   9.294
 1225SOL     OW 4126   1.424   0.856  10.706
 1225SOL    HW1 4127   1.375   0.918  10.652
 1225SOL    HW2 4128   1.513   0.859  10.671
 1226SOL     OW 4129   0.034   0.175   9.593
 1226SOL    HW1 4130   0.037   0.224   9.512
 1226SOL    HW2 4131   0.109   0.208   9.644
 1227SOL     OW 4132   1.178   1.335   9.428
 1227SOL    HW1 4133   1.087   1.304   9.429
 1227SOL    HW2 4134   1.204   1.336   9.520
 1228SOL     OW 4135   0.622   0.828  10.748
 1228SOL    HW1 4136   0.679   0.903  10.732
 1228SOL    HW2 4137   0.683   0.754  10.755
 1229SOL     OW 4138   1.489   1.792  10.299
 1229SOL    HW1 4139   1.511   1.859  10.235
 1229SOL    HW2 4140   1.573   1.770  10.340
 1230SOL     OW 4141   0.718   0.560  11.016
 1230SOL    HW1 4142   0.764   0.621  11.074
 1230SOL    HW2 4143   0.741   0.473  11.049
 1231SOL     OW 4144   1.474   1.194  10.939
 1231SOL    HW1 4145   1.462   1.210  11.032
 1231SOL    HW2 4146   1.566   1.214  10.923
 1232SOL     OW 4147   0.377   1.745  10.865
 1232SOL    HW1 4148   0.290   1.783  10.854
 1232SOL    HW2 4149   0.361   1.662  10.910
 1233SOL     OW 4150   1.664   0.880  10.566
 1233SOL    HW1 4151   1.661   0.794  10.522
 1233SOL    HW2 4152   1.654   0.943  10.495
 1234SOL     OW 4153   1.222   0.339   9.750
 1234SOL    HW1 4154   1.290   0.272   9.743
 1234SOL    HW2 4155   1.239   0.383   9.833
 1235SOL     OW 4156   0.589   0.736   9.983
 1235SOL    HW1 4157   0.627   0.823   9.967
 1235SOL    HW2 4158   0.523   0.727   9.914
 1236SOL     OW 4159   1.748   0.384  10.953
 1236SOL    HW1 4160   1.731   0.390  10.859
 1236SOL    HW2 4161   1.691   0.313  10.983
 1237SOL     OW 4162   1.748   0.934  10.821
 1237SOL    HW1 4163   1.738   1.028  10.834
 1237SOL    HW2 4164   1.730   0.920  10.728
 1238SOL     OW 4165   0.864   1.365   9.352
 1238SOL    HW1 4166   0.826   1.393   9.435
 1238SOL    HW2 4167   0.879   1.446   9.304
 1239SOL     OW 4168   0.664   1.784  10.249
 1239SOL    HW1 4169   0.645   1.876  10.229
 1239SOL    HW2 4170   0.759   1.777  10.243
 1240SOL     OW 4171   0.870   0.970  10.163
 1240SOL    HW1 4172   0.920   0.898  10.200
 1240SOL    HW2 4173   0.831   1.014  10.238
 1241SOL     OW 4174   1.077   0.989   9.399
 1241SOL    HW1 4175   1.055   1.041   9.322
 1241SOL    HW2 4176   1.151   0.935   9.372
 1242SOL     OW 4177   1.844   1.542  10.150
 1242SOL    HW1 4178   1.763   1.543  10.099
 1242SOL    HW2 4179   1.825   1.484  10.224
 1243SOL     OW 4180   0.229   1.304  11.167
 1243SOL    HW1 4181   0.154   1.252  11.138
 1243SOL    HW2 4182   0.214   1.317  11.261
 1244SOL     OW 4183   0.129   1.286  10.035
 1244SOL    HW1 4184   0.143   1.233  10.113
 1244SOL    HW2 4185   0.106   1.223   9.967
 1245SOL     OW 4186   0.684   1.407  10.941
 1245SOL    HW1 4187   0.604   1.365  10.973
 1245SOL    HW2 4188   0.680   1.495  10.978
 1246SOL     OW 4189   1.809   0.183  10.546
 1246SOL    HW1 4190   1.813   0.089  10.563
 1246SOL    HW2 4191   1.826   0.191  10.452
 1247SOL     OW 4192   0.447   0.439   9.842
 1247SOL    HW1 4193   0.470   0.362   9.789
 1247SOL    HW2 4194   0.391   0.403   9.911
 1248SOL     OW 4195   1.700   1.468  10.393
 1248SOL    HW1 4196   1.617   1.453  10.348
 1248SOL    HW2 4197   1.702   1.403  10.463
 1249SOL     OW 4198   0.335   0.560  10.604
 1249SOL    HW1 4199   0.391   0.503  10.657
 1249SOL    HW2 4200   0.350   0.530  10.514
 1250SOL     OW 4201   0.831   1.580   9.984
 1250SOL    HW1 4202   0.813   1.646   9.918
 1250SOL    HW2 4203   0.756   1.521   9.981
 1251SOL     OW 4204   1.459   0.256  10.420
 1251SOL    HW1 4205   1.479   0.170  10.456
 1251SOL    HW2 4206   1.405   0.298  10.486
 1252SOL     OW 4207   1.001   0.025  10.455
 1252SOL    HW1 4208   0.918   0.001  10.414
 1252SOL    HW2 4209   1.049   3.943  10.464
 1253SOL     OW 4210   0.774   1.334   9.631
 1253SOL    HW1 4211   0.747   1.242   9.638
 1253SOL    HW2 4212   0.856   1.338   9.680
 1254SOL     OW 4213   0.621   1.557  10.597
 1254SOL    HW1 4214   0.622   1.640  10.646
 1254SOL    HW2 4215   0.709   1.550  10.560
 1255SOL     OW 4216   1.307   0.073   9.477
 1255SOL    HW1 4217   1.317   3.988   9.435
 1255SOL    HW2 4218   1.223   0.068   9.523
 1256SOL     OW 4219   1.279   0.456   9.993
 1256SOL    HW1 4220   1.233   0.540   9.987
 1256SOL    HW2 4221   1.282   0.437  10.087
 1257SOL     OW 4222   1.587   0.209  10.178
 1257SOL    HW1 4223   1.538   0.235  10.256
 1257SOL    HW2 4224   1.588   0.288  10.124
 1258SOL     OW 4225   0.047   1.046   9.554
 1258SOL    HW1 4226   0.142   1.031   9.546
 1258SOL    HW2 4227   0.011   0.960   9.574
 1259SOL     OW 4228   0.889   1.660   9.647
 1259SOL    HW1 4229   0.814   1.644   9.590
 1259SOL    HW2 4230   0.861   1.732   9.704
 1260SOL     OW 4231   0.232   0.631  11.287
 1260SOL    HW1 4232   0.139   0.634  11.308
 1260SOL    HW2 4233   0.235   0.600  11.197
 1261SOL     OW 4234   0.223   0.291  12.154
 1261SOL    HW1 4235   0.246   0.251  12.238
 1261SOL    HW2 4236   0.128   0.283  12.148
 1262SOL     OW 4237   0.019   0.384  11.809
 1262SOL    HW1 4238   3.928   0.400  11.831
 1262SOL    HW2 4239   0.024   0.289  11.796
 1263SOL     OW 4240   0.584   1.294  12.370
 1263SOL    HW1 4241   0.498   1.294  12.329
 1263SOL    HW2 4242   0.596   1.384  12.401
 1264SOL     OW 4243   1.572   1.515  11.881
 1264SOL    HW1 4244   1.529   1.494  11.963
 1264SOL    HW2 4245   1.501   1.520  11.817
 1265SOL     OW 4246   1.134   0.699  11.866
 1265SOL    HW1 4247   1.181   0.782  11.855
 1265SOL    HW2 4248   1.086   0.710  11.948
 1266SOL     OW 4249   1.774   0.620  11.394
 1266SOL    HW1 4250   1.749   0.612  11.302
 1266SOL    HW2 4251   1.754   0.534  11.432
 1267SOL     OW 4252   0.748   1.137  12.218
 1267SOL    HW1 4253   0.688   1.174  12.281
 1267SOL    HW2 4254   0.786   1.212  12.172
 1268SOL     OW 4255   0.875   0.766  12.997
 1268SOL    HW1 4256   0.865   0.838  13.059
 1268SOL    HW2 4257   0.896   0.808  12.914
 1269SOL     OW 4258   0.685   1.000  11.816
 1269SOL    HW1 4259   0.752   0.990  11.884
 1269SOL    HW2 4260   0.616   1.053  11.858
 1270SOL     OW 4261   0.713   1.149  12.991
 1270SOL    HW1 4262   0.761   1.226  13.021
 1270SOL    HW2 4263   0.634   1.184  12.952
 1271SOL     OW 4264   0.352   1.399  12.251
 1271SOL    HW1 4265   0.271   1.375  12.205
 1271SOL    HW2 4266   0.398   1.457  12.190
 1272SOL     OW 4267   1.460   1.503  12.533
 1272SOL    HW1 4268   1.514   1.581  12.542
 1272SOL    HW2 4269   1.392   1.512  12.600
 1273SOL     OW 4270   0.459   0.409  12.665
 1273SOL    HW1 4271   0.542   0.361  12.666
 1273SOL    HW2 4272   0.392   0.341  12.669
 1274SOL     OW 4273   1.611   0.451  11.908
 1274SOL    HW1 4274   1.545   0.482  11.846
 1274SOL    HW2 4275   1.623   0.523  11.969
 1275SOL     OW 4276   0.219   1.721  11.628
 1275SOL    HW1 4277   0.240   1.794  11.686
 1275SOL    HW2 4278   0.295   1.712  11.570
 1276SOL     OW 4279   1.138   1.342  12.865
 1276SOL    HW1 4280   1.178   1.336  12.952
 1276SOL    HW2 4281   1.086   1.262  12.858
 1277SOL     OW 4282   0.253   1.453  11.710
 1277SOL    HW1 4283   0.217   1.540  11.696
 1277SOL    HW2 4284   0.187   1.407  11.762
 1278SOL     OW 4285   0.249   1.064  12.055
 1278SOL    HW1 4286   0.269   0.979  12.093
 1278SOL    HW2 4287   0.196   1.108  12.122
 1279SOL     OW 4288   0.608   1.794  12.596
 1279SOL    HW1 4289   0.525   1.776  12.641
 1279SOL    HW2 4290   0.631   1.883  12.624
 1280SOL     OW 4291   0.574   0.988  11.313
 1280SOL    HW1 4292   0.624   1.031  11.243
 1280SOL    HW2 4293   0.614   1.018  11.394
 1281SOL     OW 4294   1.584   0.142  12.627
 1281SOL    HW1 4295   1.616   0.215  12.573
 1281SOL    HW2 4296   1.546   0.184  12.704
 1282SOL     OW 4297   0.142   0.654  11.741
 1282SOL    HW1 4298   0.100   0.568  11.746
 1282SOL    HW2 4299   0.103   0.703  11.813
 1283SOL     OW 4300   0.044   1.587  11.309
 1283SOL    HW1 4301   0.040   1.496  11.338
 1283SOL    HW2 4302   3.957   1.622  11.329
 1284SOL     OW 4303   1.688   0.918  11.816
 1284SOL    HW1 4304   1.771   0.876  11.796
 1284SOL    HW2 4305   1.668   0.970  11.739
 1285SOL     OW 4306   1.650   1.104  11.602
 1285SOL    HW1 4307   1.737   1.106  11.561
 1285SOL    HW2 4308   1.656   1.167  11.674
 1286SOL     OW 4309   0.145   0.755  12.761
 1286SOL    HW1 4310   0.241   0.753  12.753
 1286SOL    HW2 4311   0.127   0.842  12.798
 1287SOL     OW 4312   0.613   1.389  11.909
 1287SOL    HW1 4313   0.568   1.305  11.917
 1287SOL    HW2 4314   0.598   1.415  11.818
 1288SOL     OW 4315   1.285   1.236  12.593
 1288SOL    HW1 4316   1.316   1.168  12.533
 1288SOL    HW2 4317   1.345   1.231  12.668
 1289SOL     OW 4318   0.823   0.006  11.690
 1289SOL    HW1 4319   0.868   0.086  11.664
 1289SOL    HW2 4320   0.730   0.029  11.688
 1290SOL     OW 4321   0.183   0.948  12.452
 1290SOL    HW1 4322   0.272   0.913  12.441
 1290SOL    HW2 4323   0.132   0.908  12.382
 1291SOL     OW 4324   1.531   0.999  11.373
 1291SOL    HW1 4325   1.462   0.942  11.406
 1291SOL    HW2 4326   1.574   1.032  11.451
 1292SOL     OW 4327   1.183   1.812  12.798
 1292SOL    HW1 4328   1.190   1.873  12.725
 1292SOL    HW2 4329   1.202   1.726  12.760
 1293SOL     OW 4330   0.347   0.248  13.021
 1293SOL    HW1 4331   0.390   0.331  13.001
 1293SOL    HW2 4332   0.255   0.271  13.036
 1294SOL     OW 4333   1.464   1.419  12.117
 1294SOL    HW1 4334   1.399   1.435  12.185
 1294SOL    HW2 4335   1.451   1.328  12.092
 1295SOL     OW 4336   1.658   1.743  11.726
 1295SOL    HW1 4337   1.631   1.704  11.643
 1295SOL    HW2 4338   1.645   1.674  11.791
 1296SOL     OW 4339   0.596   0.715  11.441
 1296SOL    HW1 4340   0.600   0.800  11.397
 1296SOL    HW2 4341   0.532   0.728  11.511
 1297SOL     OW 4342   1.274   0.373  12.113
 1297SOL    HW1 4343   1.187   0.334  12.121
 1297SOL    HW2 4344   1.332   0.312  12.159
 1298SOL     OW 4345   1.577   1.671  11.467
 1298SOL    HW1 4346   1.669   1.685  11.442
 1298SOL    HW2 4347   1.533   1.651  11.384
 1299SOL     OW 4348   0.794   0.615  12.624
 1299SOL    HW1 4349   0.765   0.588  12.711
 1299SOL    HW2 4350   0.759   0.548  12.565
 1300SOL     OW 4351   1.392   0.475  12.850
 1300SOL    HW1 4352   1.400   0.521  12.934
 1300SOL    HW2 4353   1.448   0.398  12.859
 1301SOL     OW 4354   0.950   0.886  12.758
 1301SOL    HW1 4355   1.005   0.818  12.720
 1301SOL    HW2 4356   0.901   0.922  12.684
 1302SOL     OW 4357   0.994   0.402  12.406
 1302SOL    HW1 4358   0.907   0.420  12.442
 1302SOL    HW2 4359   0.978   0.375  12.316
 1303SOL     OW 4360   1.053   0.701  11.596
 1303SOL    HW1 4361   1.072   0.694  11.690
 1303SOL    HW2 4362   0.970   0.654  11.584
 1304SOL     OW 4363   0.082   0.832  11.961
 1304SOL    HW1 4364   0.151   0.796  12.017
 1304SOL    HW2 4365   0.108   0.922  11.946
 1305SOL     OW 4366   0.130   1.867  12.753
 1305SOL    HW1 4367   0.138   1.831  12.842
 1305SOL    HW2 4368   0.038   1.858  12.732
 1306SOL     OW 4369   0.895   0.353  11.371
 1306SOL    HW1 4370   0.937   0.413  11.310
 1306SOL    HW2 4371   0.890   0.270  11.323
 1307SOL     OW 4372   1.705   0.576  13.001
 1307SOL    HW1 4373   1.669   0.649  12.951
 1307SOL    HW2 4374   1.729   0.511  12.934
 1308SOL     OW 4375   1.380   1.141  11.710
 1308SOL    HW1 4376   1.461   1.132  11.659
 1308SOL    HW2 4377   1.328   1.204  11.661
 1309SOL     OW 4378   0.563   0.195  12.051
 1309SOL    HW1 4379   0.568   0.220  12.144
 1309SOL    HW2 4380   0.547   0.277  12.005
 1310SOL     OW 4381   1.000   1.444  11.640
 1310SOL    HW1 4382   0.969   1.519  11.590
 1310SOL    HW2 4383   0.977   1.464  11.731
 1311SOL     OW 4384   0.364   1.826  12.046
 1311SOL    HW1 4385   0.424   1.753  12.056
 1311SOL    HW2 4386   0.418   1.904  12.060
 1312SOL     OW 4387   1.800   1.047  12.046
 1312SOL    HW1 4388   1.747   1.033  11.968
 1312SOL    HW2 4389   1.736   1.056  12.117
 1313SOL     OW 4390   1.227   1.540  12.685
 1313SOL    HW1 4391   1.215   1.468  12.747
 1313SOL    HW2 4392   1.161   1.525  12.618
 1314SOL     OW 4393   0.310   0.951  11.414
 1314SOL    HW1 4394   0.393   0.973  11.372
 1314SOL    HW2 4395   0.298   0.858  11.397
 1315SOL     OW 4396   1.480   0.752  11.900
 1315SOL    HW1 4397   1.477   0.711  11.986
 1315SOL    HW2 4398   1.558   0.807  11.902
 1316SOL     OW 4399   0.471   1.261  12.910
 1316SOL    HW1 4400   0.445   1.269  12.818
 1316SOL    HW2 4401   0.388   1.263  12.958
 1317SOL     OW 4402   1.124   1.776  11.402
 1317SOL    HW1 4403   1.048   1.738  11.445
 1317SOL    HW2 4404   1.147   1.713  11.333
 1318SOL     OW 4405   0.202   0.292  12.674
 1318SOL    HW1 4406   0.108   0.311  12.674
 1318SOL    HW2 4407   0.211   0.214  12.728
 1319SOL     OW 4408   1.628   1.382  11.260
 1319SOL    HW1 4409   1.585   1.467  11.244
 1319SOL    HW2 4410   1.561   1.317  11.241
 1320SOL     OW 4411   0.466   1.739  11.487
 1320SOL    HW1 4412   0.510   1.794  11.551
 1320SOL    HW2 4413   0.536   1.701  11.435
 1321SOL     OW 4414   1.445   0.172  11.579
 1321SOL    HW1 4415   1.392   0.104  11.536
 1321SOL    HW2 4416   1.511   0.124  11.628
 1322SOL     OW 4417   0.255   1.790  12.402
 1322SOL    HW1 4418   0.298   1.722  12.452
 1322SOL    HW2 4419   0.252   1.756  12.312
 1323SOL     OW 4420   0.939   1.699  12.068
 1323SOL    HW1 4421   1.019   1.651  12.089
 1323SOL    HW2 4422   0.898   1.649  11.998
 1324SOL     OW 4423   0.399   0.695  11.642
 1324SOL    HW1 4424   0.424   0.603  11.658
 1324SOL    HW2 4425   0.307   0.699  11.667
 1325SOL     OW 4426   1.529   0.227  12.897
 1325SOL    HW1 4427   1.522   0.252  12.990
 1325SOL    HW2 4428   1.517   0.131  12.897
 1326SOL     OW 4429   0.647   0.126  11.276
 1326SOL    HW1 4430   0.666   0.041  11.314
 1326SOL    HW2 4431   0.586   0.108  11.204
 1327SOL     OW 4432   0.774   0.287  12.943
 1327SOL    HW1 4433   0.853   0.233  12.943
 1327SOL    HW2 4434   0.721   0.251  13.015
 1328SOL     OW 4435   0.875   1.523  12.366
 1328SOL    HW1 4436   0.859   1.485  12.280
 1328SOL    HW2 4437   0.945   1.468  12.403
 1329SOL     OW 4438   1.338   0.588  12.603
 1329SOL    HW1 4439   1.369   0.559  12.689
 1329SOL    HW2 4440   1.374   0.676  12.593
 1330SOL     OW 4441   0.817   1.389  12.117
 1330SOL    HW1 4442   0.903   1.378  12.075
 1330SOL    HW2 4443   0.756   1.395  12.043
 1331SOL     OW 4444   0.931   0.513  12.070
 1331SOL    HW1 4445   0.906   0.504  11.978
 1331SOL    HW2 4446   0.955   0.424  12.097
 1332SOL     OW 4447   0.547   0.055  11.659
 1332SOL    HW1 4448   0.474   0.062  11.720
 1332SOL    HW2 4449   0.548   0.139  11.612
 1333SOL     OW 4450   1.428   1.200  11.211
 1333SOL    HW1 4451   1.457   1.125  11.263
 1333SOL    HW2 4452   1.342   1.222  11.248
 1334SOL     OW 4453   0.354   0.031  11.372
 1334SOL    HW1 4454   0.356   0.088  11.296
 1334SOL    HW2 4455   0.442   0.039  11.410
 1335SOL     OW 4456   0.945   0.251  11.630
 1335SOL    HW1 4457   0.919   0.290  11.546
 1335SOL    HW2 4458   1.041   0.258  11.631
 1336SOL     OW 4459   1.079   0.686  12.629
 1336SOL    HW1 4460   1.011   0.619  12.635
 1336SOL    HW2 4461   1.161   0.636  12.624
 1337SOL     OW 4462   1.218   1.573  11.968
 1337SOL    HW1 4463   1.233   1.638  11.899
 1337SOL    HW2 4464   1.289   1.587  12.030
 1338SOL     OW 4465   0.467   1.152  11.904
 1338SOL    HW1 4466   0.396   1.126  11.964
 1338SOL    HW2 4467   0.431   1.137  11.817
 1339SOL     OW 4468   1.261   1.792  11.783
 1339SOL    HW1 4469   1.307   1.855  11.729
 1339SOL    HW2 4470   1.193   1.843  11.828
 1340SOL     OW 4471   1.021   0.539  11.204
 1340SOL    HW1 4472   0.978   0.622  11.184
 1340SOL    HW2 4473   1.085   0.561  11.271
 1341SOL     OW 4474   0.082   0.576  12.564
 1341SOL    HW1 4475   0.171   0.557  12.534
 1341SOL    HW2 4476   0.092   0.647  12.628
 1342SOL     OW 4477   0.572   0.231  12.331
 1342SOL    HW1 4478   0.592   0.138  12.339
 1342SOL    HW2 4479   0.481   0.238  12.360
 1343SOL     OW 4480   0.871   0.461  11.809
 1343SOL    HW1 4481   0.821   0.514  11.747
 1343SOL    HW2 4482   0.892   0.381  11.761
 1344SOL     OW 4483   0.997   0.037  11.954
 1344SOL    HW1 4484   0.957   0.069  11.873
 1344SOL    HW2 4485   1.009   3.943  11.940
 1345SOL     OW 4486   1.440   1.160  12.029
 1345SOL    HW1 4487   1.368   1.096  12.027
 1345SOL    HW2 4488   1.466   1.169  11.938
 1346SOL     OW 4489   1.464   0.609  12.142
 1346SOL    HW1 4490   1.407   0.532  12.147
 1346SOL    HW2 4491   1.523   0.601  12.217
 1347SOL     OW 4492   1.841   0.818  11.562
 1347SOL    HW1 4493   1.899   0.766  11.618
 1347SOL    HW2 4494   1.815   0.758  11.493
 1348SOL     OW 4495   0.487   1.423  11.330
 1348SOL    HW1 4496   0.411   1.393  11.379
 1348SOL    HW2 4497   0.476   1.385  11.243
 1349SOL     OW 4498   1.673   1.263  11.816
 1349SOL    HW1 4499   1.768   1.260  11.831
 1349SOL    HW2 4500   1.649   1.353  11.838
 1350SOL     OW 4501   1.395   0.578  11.240
 1350SOL    HW1 4502   1.332   0.558  11.309
 1350SOL    HW2 4503   1.481   0.559  11.279
 1351SOL     OW 4504   0.556   0.270  11.489
 1351SOL    HW1 4505   0.607   0.231  11.418
 1351SOL    HW2 4506   0.527   0.355  11.454
 1352SOL     OW 4507   1.749   1.242  12.736
 1352SOL    HW1 4508   1.836   1.204  12.727
 1352SOL    HW2 4509   1.764   1.332  12.764
 1353SOL     OW 4510   1.054   1.353  12.504
 1353SOL    HW1 4511   0.979   1.322  12.554
 1353SOL    HW2 4512   1.130   1.312  12.546
 1354SOL     OW 4513   1.609   1.626  12.828
 1354SOL    HW1 4514   1.602   1.664  12.740
 1354SOL    HW2 4515   1.692   1.579  12.827
 1355SOL     OW 4516   1.135   1.210  12.275
 1355SOL    HW1 4517   1.074   1.247  12.339
 1355SOL    HW2 4518   1.105   1.244  12.190
 1356SOL     OW 4519   1.622   1.095  12.248
 1356SOL    HW1 4520   1.615   1.157  12.320
 1356SOL    HW2 4521   1.547   1.115  12.192
 1357SOL     OW 4522   0.911   0.120  12.572
 1357SOL    HW1 4523   0.932   0.089  12.484
 1357SOL    HW2 4524   0.993   0.160  12.603
 1358SOL     OW 4525   0.984   1.115  12.896
 1358SOL    HW1 4526   0.893   1.132  12.919
 1358SOL    HW2 4527   0.981   1.037  12.841
 1359SOL     OW 4528   0.708   1.062  11.543
 1359SOL    HW1 4529   0.694   1.043  11.635
 1359SOL    HW2 4530   0.784   1.009  11.518
 1360SOL     OW 4531   0.424   0.819  12.426
 1360SOL    HW1 4532   0.492   0.825  12.492
 1360SOL    HW2 4533   0.390   0.730  12.435
 1361SOL     OW 4534   1.265   0.374  12.451
 1361SOL    HW1 4535   1.298   0.453  12.494
 1361SOL    HW2 4536   1.177   0.398  12.421
 1362SOL     OW 4537   0.065   1.579  12.517
 1362SOL    HW1 4538   0.070   1.620  12.430
 1362SOL    HW2 4539   0.156   1.571  12.545
 1363SOL     OW 4540   0.366   1.104  11.652
 1363SOL    HW1 4541   0.361   1.183  11.599
 1363SOL    HW2 4542   0.365   1.033  11.588
 1364SOL     OW 4543   0.554   0.530  12.028
 1364SOL    HW1 4544   0.566   0.590  11.954
 1364SOL    HW2 4545   0.620   0.557  12.092
 1365SOL     OW 4546   1.247   1.349  11.562
 1365SOL    HW1 4547   1.303   1.420  11.595
 1365SOL    HW2 4548   1.160   1.371  11.596
 1366SOL     OW 4549   1.289   1.461  12.321
 1366SOL    HW1 4550   1.345   1.466  12.398
 1366SOL    HW2 4551   1.234   1.384  12.336
 1367SOL     OW 4552   1.572   0.635  11.661
 1367SOL    HW1 4553   1.528   0.687  11.728
 1367SOL    HW2 4554   1.619   0.699  11.608
 1368SOL     OW 4555   0.346   1.528  12.489
 1368SOL    HW1 4556   0.336   1.477  12.409
 1368SOL    HW2 4557   0.440   1.543  12.497
 1369SOL     OW 4558   0.421   0.736  12.773
 1369SOL    HW1 4559   0.485   0.780  12.718
 1369SOL    HW2 4560   0.456   0.648  12.785
 1370SOL     OW 4561   1.607   0.783  12.859
 1370SOL    HW1 4562   1.521   0.825  12.852
 1370SOL    HW2 4563   1.659   0.824  12.790
 1371SOL     OW 4564   1.006   0.142  12.953
 1371SOL    HW1 4565   1.065   0.210  12.921
 1371SOL    HW2 4566   0.998   0.080  12.881
 1372SOL     OW 4567   0.486   0.037  12.936
 1372SOL    HW1 4568   0.490   0.050  12.841
 1372SOL    HW2 4569   0.423   0.102  12.966
 1373SOL     OW 4570   0.586   0.876  12.204
 1373SOL    HW1 4571   0.620   0.965  12.208
 1373SOL    HW2 4572   0.530   0.868  12.281
 1374SOL     OW 4573   1.347   0.858  12.194
 1374SOL    HW1 4574   1.262   0.843  12.155
 1374SOL    HW2 4575   1.393   0.774  12.185
 1375SOL     OW 4576   1.198   0.539  11.427
 1375SOL    HW1 4577   1.207   0.460  11.480
 1375SOL    HW2 4578   1.155   0.602  11.485
 1376SOL     OW 4579   0.310   0.211  12.410
 1376SOL    HW1 4580   0.266   0.248  12.487
 1376SOL    HW2 4581   0.296   0.117  12.418
 1377SOL     OW 4582   0.064   1.306  12.452
 1377SOL    HW1 4583   0.092   1.262  12.533
 1377SOL    HW2 4584   0.054   1.398  12.477
 1378SOL     OW 4585   0.723   0.633  12.222
 1378SOL    HW1 4586   0.798   0.620  12.165
 1378SOL    HW2 4587   0.693   0.722  12.203
 1379SOL     OW 4588   1.740   0.958  13.032
 1379SOL    HW1 4589   1.695   0.893  12.977
 1379SOL    HW2 4590   1.678   0.976  13.103
 1380SOL     OW 4591   0.334   0.054  11.832
 1380SOL    HW1 4592   0.305   0.145  11.833
 1380SOL    HW2 4593   0.300   0.016  11.913
 1381SOL     OW 4594   1.610   0.395  11.549
 1381SOL    HW1 4595   1.563   0.327  11.598
 1381SOL    HW2 4596   1.590   0.476  11.596
 1382SOL     OW 4597   1.031   0.759  12.129
 1382SOL    HW1 4598   1.021   0.776  12.223
 1382SOL    HW2 4599   1.003   0.669  12.118
 1383SOL     OW 4600   0.981   1.566  12.893
 1383SOL    HW1 4601   0.965   1.610  12.809
 1383SOL    HW2 4602   1.025   1.484  12.869
 1384SOL     OW 4603   1.853   1.500  12.774
 1384SOL    HW1 4604   1.870   1.531  12.685
 1384SOL    HW2 4605   1.937   1.510  12.820
 1385SOL     OW 4606   0.355   0.922  12.970
 1385SOL    HW1 4607   0.433   0.942  13.022
 1385SOL    HW2 4608   0.385   0.854  12.909
 1386SOL     OW 4609   1.501   0.273  11.304
 1386SOL    HW1 4610   1.429   0.210  11.317
 1386SOL    HW2 4611   1.514   0.311  11.391
 1387SOL     OW 4612   1.286   0.827  11.199
 1387SOL    HW1 4613   1.329   0.741  11.203
 1387SOL    HW2 4614   1.318   0.866  11.118
 1388SOL     OW 4615   1.068   1.339  12.029
 1388SOL    HW1 4616   1.073   1.267  11.966
 1388SOL    HW2 4617   1.126   1.406  11.994
 1389SOL     OW 4618   0.313   0.801  12.122
 1389SOL    HW1 4619   0.407   0.817  12.116
 1389SOL    HW2 4620   0.306   0.711  12.154
 1390SOL     OW 4621   0.340   0.529  12.189
 1390SOL    HW1 4622   0.297   0.445  12.171
 1390SOL    HW2 4623   0.415   0.531  12.129
 1391SOL     OW 4624   1.134   0.379  12.872
 1391SOL    HW1 4625   1.086   0.434  12.934
 1391SOL    HW2 4626   1.221   0.419  12.867
 1392SOL     OW 4627   1.151   0.225  12.654
 1392SOL    HW1 4628   1.142   0.279  12.733
 1392SOL    HW2 4629   1.180   0.287  12.587
 1393SOL     OW 4630   0.002   1.314  11.355
 1393SOL    HW1 4631   3.907   1.331  11.357
 1393SOL    HW2 4632   0.010   1.221  11.373
 1394SOL     OW 4633   0.080   1.799  12.059
 1394SOL    HW1 4634   0.090   1.704  12.058
 1394SOL    HW2 4635   0.169   1.832  12.064
 1395SOL     OW 4636   0.495   1.572  12.081
 1395SOL    HW1 4637   0.565   1.632  12.107
 1395SOL    HW2 4638   0.539   1.509  12.023
 1396SOL     OW 4639   0.973   0.787  12.394
 1396SOL    HW1 4640   1.031   0.769  12.469
 1396SOL    HW2 4641   0.890   0.747  12.418
 1397SOL     OW 4642   0.034   0.581  12.284
 1397SOL    HW1 4643   0.090   0.522  12.233
 1397SOL    HW2 4644   0.061   0.567  12.374
 1398SOL     OW 4645   0.212   0.515  12.894
 1398SOL    HW1 4646   0.255   0.472  12.820
 1398SOL    HW2 4647   0.169   0.591  12.855
 1399SOL     OW 4648   1.380   0.934  12.827
 1399SOL    HW1 4649   1.402   1.027  12.823
 1399SOL    HW2 4650   1.376   0.907  12.736
 1400SOL     OW 4651   0.819   0.572  11.537
 1400SOL    HW1 4652   0.826   0.496  11.479
 1400SOL    HW2 4653   0.744   0.621  11.504
 1401SOL     OW 4654   1.639   0.602  12.352
 1401SOL    HW1 4655   1.630   0.541  12.426
 1401SOL    HW2 4656   1.727   0.586  12.318
 1402SOL     OW 4657   0.301   1.543  12.893
 1402SOL    HW1 4658   0.255   1.612  12.940
 1402SOL    HW2 4659   0.273   1.462  12.935
 1403SOL     OW 4660   0.717   0.451  12.424
 1403SOL    HW1 4661   0.664   0.374  12.400
 1403SOL    HW2 4662   0.704   0.511  12.350
 1404SOL     OW 4663   0.921   1.679  12.644
 1404SOL    HW1 4664   0.898   1.639  12.560
 1404SOL    HW2 4665   0.916   1.773  12.628
 1405SOL     OW 4666   0.450   0.492  11.372
 1405SOL    HW1 4667   0.515   0.561  11.389
 1405SOL    HW2 4668   0.371   0.539  11.346
 1406SOL     OW 4669   0.153   1.133  12.648
 1406SOL    HW1 4670   0.154   1.083  12.730
 1406SOL    HW2 4671   0.169   1.068  12.580
 1407SOL     OW 4672   1.320   1.043  12.392
 1407SOL    HW1 4673   1.342   0.980  12.323
 1407SOL    HW2 4674   1.254   1.100  12.352
 1408SOL     OW 4675   1.317   0.856  11.475
 1408SOL    HW1 4676   1.242   0.827  11.528
 1408SOL    HW2 4677   1.289   0.844  11.384
 1409SOL     OW 4678   1.741   1.728  12.309
 1409SOL    HW1 4679   1.819   1.751  12.257
 1409SOL    HW2 4680   1.727   1.635  12.291
 1410SOL     OW 4681   1.243   1.734  12.276
 1410SOL    HW1 4682   1.327   1.758  12.236
 1410SOL    HW2 4683   1.252   1.641  12.297
 1411SOL     OW 4684   0.079   1.216  12.199
 1411SOL    HW1 4685   0.085   1.242  12.291
 1411SOL    HW2 4686   3.987   1.228  12.177
 1412SOL     OW 4687   0.680   1.670  12.910
 1412SOL    HW1 4688   0.620   1.743  12.900
 1412SOL    HW2 4689   0.749   1.686  12.846
 1413SOL     OW 4690   1.717   0.122  11.663
 1413SOL    HW1 4691   1.794   0.134  11.608
 1413SOL    HW2 4692   1.706   0.027  11.669
 1414SOL     OW 4693   1.392   1.568  11.661
 1414SOL    HW1 4694   1.447   1.603  11.590
 1414SOL    HW2 4695   1.341   1.644  11.691
 1415SOL     OW 4696   0.177   1.760  13.004
 1415SOL    HW1 4697   0.121   1.708  13.061
 1415SOL    HW2 4698   0.218   1.824  13.063
 1416SOL     OW 4699   1.277   0.929  11.843
 1416SOL    HW1 4700   1.351   0.870  11.856
 1416SOL    HW2 4701   1.312   1.000  11.789
 1417SOL     OW 4702   0.805   1.275  12.597
 1417SOL    HW1 4703   0.776   1.318  12.678
 1417SOL    HW2 4704   0.733   1.290  12.535
 1418SOL     OW 4705   0.670   1.625  11.328
 1418SOL    HW1 4706   0.682   1.638  11.234
 1418SOL    HW2 4707   0.614   1.547  11.334
 1419SOL     OW 4708   1.617   1.731  12.562
 1419SOL    HW1 4709   1.662   1.734  12.478
 1419SOL    HW2 4710   1.605   1.822  12.587
 1420SOL     OW 4711   1.840   0.179  12.136
 1420SOL    HW1 4712   1.873   0.118  12.070
 1420SOL    HW2 4713   1.750   0.198  12.108
 1421SOL     OW 4714   0.276   0.322  11.885
 1421SOL    HW1 4715   0.191   0.355  11.858
 1421SOL    HW2 4716   0.267   0.307  11.980
 1422SOL     OW 4717   1.205   1.601  11.204
 1422SOL    HW1 4718   1.195   1.510  11.231
 1422SOL    HW2 4719   1.139   1.614  11.136
 1423SOL     OW 4720   0.823   1.006  12.547
 1423SOL    HW1 4721   0.866   0.999  12.462
 1423SOL    HW2 4722   0.820   1.100  12.565
 1424SOL     OW 4723   0.915   0.911  11.463
 1424SOL    HW1 4724   0.976   0.944  11.396
 1424SOL    HW2 4725   0.965   0.843  11.509
 1425SOL     OW 4726   1.483   1.624  11.211
 1425SOL    HW1 4727   1.389   1.616  11.194
 1425SOL    HW2 4728   1.523   1.631  11.124
 1426SOL     OW 4729   0.374   1.302  12.664
 1426SOL    HW1 4730   0.359   1.382  12.614
 1426SOL    HW2 4731   0.297   1.248  12.646
 1427SOL     OW 4732   1.606   1.282  12.452
 1427SOL    HW1 4733   1.668   1.269  12.523
 1427SOL    HW2 4734   1.547   1.351  12.485
 1428SOL     OW 4735   1.060   1.111  11.882
 1428SOL    HW1 4736   0.988   1.060  11.919
 1428SOL    HW2 4737   1.125   1.045  11.856
 1429SOL     OW 4738   1.015   0.250  12.144
 1429SOL    HW1 4739   1.005   0.200  12.063
 1429SOL    HW2 4740   1.013   0.185  12.213
 1430SOL     OW 4741   0.607   1.488  11.654
 1430SOL    HW1 4742   0.655   1.439  11.588
 1430SOL    HW2 4743   0.530   1.521  11.608
 1431SOL     OW 4744   1.721   0.395  12.542
 1431SOL    HW1 4745   1.795   0.456  12.548
 1431SOL    HW2 4746   1.754   0.323  12.488
 1432SOL     OW 4747   0.255   1.340  11.466
 1432SOL    HW1 4748   0.161   1.344  11.449
 1432SOL    HW2 4749   0.265   1.381  11.552
 1433SOL     OW 4750   0.110   0.998  12.890
 1433SOL    HW1 4751   0.050   0.993  12.965
 1433SOL    HW2 4752   0.196   0.980  12.927
 1434SOL     OW 4753   0.694   0.259  12.676
 1434SOL    HW1 4754   0.762   0.206  12.634
 1434SOL    HW2 4755   0.723   0.267  12.767
 1435SOL     OW 4756   0.088   0.316  11.195
 1435SOL    HW1 4757   3.993   0.316  11.189
 1435SOL    HW2 4758   0.116   0.399  11.156
 1436SOL     OW 4759   1.424   0.856  12.568
 1436SOL    HW1 4760   1.375   0.918  12.514
 1436SOL    HW2 4761   1.513   0.859  12.533
 1437SOL     OW 4762   0.034   0.175  11.455
 1437SOL    HW1 4763   0.037   0.224  11.373
 1437SOL    HW2 4764   0.109   0.208  11.506
 1438SOL     OW 4765   1.178   1.335  11.290
 1438SOL    HW1 4766   1.087   1.304  11.291
 1438SOL    HW2 4767   1.204   1.336  11.382
 1439SOL     OW 4768   0.622   0.828  12.610
 1439SOL    HW1 4769   0.679   0.904  12.594
 1439SOL    HW2 4770   0.682   0.754  12.617
 1440SOL     OW 4771   1.489   1.791  12.161
 1440SOL    HW1 4772   1.511   1.859  12.097
 1440SOL    HW2 4773   1.573   1.769  12.202
 1441SOL     OW 4774   0.718   0.560  12.878
 1441SOL    HW1 4775   0.764   0.620  12.936
 1441SOL    HW2 4776   0.741   0.473  12.911
 1442SOL     OW 4777   1.474   1.194  12.801
 1442SOL    HW1 4778   1.462   1.210  12.895
 1442SOL    HW2 4779   1.566   1.214  12.785
 1443SOL     OW 4780   0.377   1.745  12.727
 1443SOL    HW1 4781   0.290   1.783  12.716
 1443SOL    HW2 4782   0.361   1.662  12.772
 1444SOL     OW 4783   1.664   0.880  12.428
 1444SOL    HW1 4784   1.661   0.794  12.384
 1444SOL    HW2 4785   1.654   0.943  12.357
 1445SOL     OW 4786   1.222   0.339  11.612
 1445SOL    HW1 4787   1.290   0.272  11.605
 1445SOL    HW2 4788   1.239   0.383  11.695
 1446SOL     OW 4789   0.589   0.736  11.845
 1446SOL    HW1 4790   0.627   0.823  11.829
 1446SOL    HW2 4791   0.523   0.727  11.776
 1447SOL     OW 4792   1.748   0.384  12.815
 1447SOL    HW1 4793   1.731   0.390  12.721
 1447SOL    HW2 4794   1.692   0.314  12.845
 1448SOL     OW 4795   1.748   0.934  12.683
 1448SOL    HW1 4796   1.738   1.028  12.696
 1448SOL    HW2 4797   1.730   0.920  12.590
 1449SOL     OW 4798   0.864   1.365  11.214
 1449SOL    HW1 4799   0.826   1.393  11.297
 1449SOL    HW2 4800   0.879   1.446  11.166
 1450SOL     OW 4801   0.664   1.784  12.111
 1450SOL    HW1 4802   0.645   1.876  12.091
 1450SOL    HW2 4803   0.759   1.778  12.105
 1451SOL     OW 4804   0.870   0.970  12.025
 1451SOL    HW1 4805   0.920   0.898  12.062
 1451SOL    HW2 4806   0.831   1.014  12.100
 1452SOL     OW 4807   1.077   0.989  11.261
 1452SOL    HW1 4808   1.055   1.041  11.184
 1452SOL    HW2 4809   1.151   0.935  11.234
 1453SOL     OW 4810   1.843   1.541  12.011
 1453SOL    HW1 4811   1.762   1.542  11.960
 1453SOL    HW2 4812   1.825   1.484  12.085
 1454SOL     OW 4813   0.230   1.304  13.029
 1454SOL    HW1 4814   0.153   1.253  13.000
 1454SOL    HW2 4815   0.216   1.317  13.123
 1455SOL     OW 4816   0.129   1.286  11.897
 1455SOL    HW1 4817   0.143   1.232  11.975
 1455SOL    HW2 4818   0.106   1.223  11.829
 1456SOL     OW 4819   0.684   1.407  12.803
 1456SOL    HW1 4820   0.604   1.365  12.834
 1456SOL    HW2 4821   0.680   1.495  12.840
 1457SOL     OW 4822   1.809   0.183  12.408
 1457SOL    HW1 4823   1.813   0.089  12.425
 1457SOL    HW2 4824   1.826   0.191  12.314
 1458SOL     OW 4825   0.447   0.439  11.704
 1458SOL    HW1 4826   0.470   0.362  11.651
 1458SOL    HW2 4827   0.391   0.403  11.773
 1459SOL     OW 4828   1.700   1.467  12.254
 1459SOL    HW1 4829   1.617   1.452  12.210
 1459SOL    HW2 4830   1.702   1.402  12.324
 1460SOL     OW 4831   0.335   0.560  12.466
 1460SOL    HW1 4832   0.391   0.503  12.519
 1460SOL    HW2 4833   0.350   0.530  12.376
 1461SOL     OW 4834   0.831   1.580  11.846
 1461SOL    HW1 4835   0.813   1.646  11.780
 1461SOL    HW2 4836   0.756   1.521  11.843
 1462SOL     OW 4837   1.459   0.256  12.282
 1462SOL    HW1 4838   1.479   0.170  12.318
 1462SOL    HW2 4839   1.405   0.298  12.348
 1463SOL     OW 4840   1.001   0.025  12.317
 1463SOL    HW1 4841   0.918   0.001  12.276
 1463SOL    HW2 4842   1.049   3.943  12.326
 1464SOL     OW 4843   0.774   1.334  11.493
 1464SOL    HW1 4844   0.747   1.242  11.500
 1464SOL    HW2 4845   0.856   1.338  11.542
 1465SOL     OW 4846   0.621   1.557  12.459
 1465SOL    HW1 4847   0.622   1.640  12.508
 1465SOL    HW2 4848   0.709   1.550  12.422
 1466SOL     OW 4849   1.307   0.073  11.339
 1466SOL    HW1 4850   1.317   3.988  11.298
 1466SOL    HW2 4851   1.223   0.068  11.385
 1467SOL     OW 4852   1.279   0.456  11.856
 1467SOL    HW1 4853   1.233   0.540  11.849
 1467SOL    HW2 4854   1.282   0.437  11.949
 1468SOL     OW 4855   1.587   0.209  12.040
 1468SOL    HW1 4856   1.538   0.235  12.118
 1468SOL    HW2 4857   1.588   0.288  11.986
 1469SOL     OW 4858   0.047   1.046  11.416
 1469SOL    HW1 4859   0.142   1.031  11.408
 1469SOL    HW2 4860   0.011   0.960  11.436
 1470SOL     OW 4861   0.889   1.660  11.509
 1470SOL    HW1 4862   0.814   1.644  11.452
 1470SOL    HW2 4863   0.861   1.732  11.566
 1471SOL     OW 4864   0.230   0.631  13.150
 1471SOL    HW1 4865   0.136   0.634  13.170
 1471SOL    HW2 4866   0.234   0.600  13.059
 1472SOL     OW 4867   0.286   0.255   0.140
 1472SOL    HW1 4868   0.338   0.325   0.180
 1472SOL    HW2 4869   0.208   0.298   0.108
 1473SOL     OW 4870   0.021   0.378  13.666
 1473SOL    HW1 4871   3.932   0.403  13.640
 1473SOL    HW2 4872   0.028   0.285  13.643
 1474SOL     OW 4873   1.518   1.494  13.734
 1474SOL    HW1 4874   1.468   1.417  13.761
 1474SOL    HW2 4875   1.476   1.522  13.652
 1475SOL     OW 4876   1.133   0.697  13.728
 1475SOL    HW1 4877   1.185   0.775  13.708
 1475SOL    HW2 4878   1.075   0.723  13.799
 1476SOL     OW 4879   1.779   0.617  13.253
 1476SOL    HW1 4880   1.751   0.613  13.162
 1476SOL    HW2 4881   1.759   0.531  13.289
 1477SOL     OW 4882   0.688   1.011  13.670
 1477SOL    HW1 4883   0.739   0.992  13.749
 1477SOL    HW2 4884   0.614   1.063  13.701
 1478SOL     OW 4885   1.612   0.451  13.753
 1478SOL    HW1 4886   1.526   0.471  13.717
 1478SOL    HW2 4887   1.642   0.534  13.790
 1479SOL     OW 4888   0.217   1.714  13.484
 1479SOL    HW1 4889   0.236   1.787  13.543
 1479SOL    HW2 4890   0.294   1.707  13.428
 1480SOL     OW 4891   0.252   1.446  13.571
 1480SOL    HW1 4892   0.223   1.536  13.560
 1480SOL    HW2 4893   0.188   1.408  13.631
 1481SOL     OW 4894   0.258   1.072   0.015
 1481SOL    HW1 4895   0.275   1.036   0.102
 1481SOL    HW2 4896   0.218   1.157   0.032
 1482SOL     OW 4897   0.573   0.988  13.172
 1482SOL    HW1 4898   0.622   1.031  13.103
 1482SOL    HW2 4899   0.613   1.018  13.253
 1483SOL     OW 4900   0.149   0.656  13.609
 1483SOL    HW1 4901   0.091   0.581  13.601
 1483SOL    HW2 4902   0.102   0.716  13.667
 1484SOL     OW 4903   0.044   1.589  13.171
 1484SOL    HW1 4904   0.040   1.497  13.200
 1484SOL    HW2 4905   3.959   1.625  13.195
 1485SOL     OW 4906   1.685   0.918  13.667
 1485SOL    HW1 4907   1.769   0.879  13.641
 1485SOL    HW2 4908   1.661   0.975  13.594
 1486SOL     OW 4909   1.650   1.104  13.459
 1486SOL    HW1 4910   1.736   1.104  13.417
 1486SOL    HW2 4911   1.657   1.170  13.528
 1487SOL     OW 4912   0.616   1.386  13.759
 1487SOL    HW1 4913   0.564   1.308  13.778
 1487SOL    HW2 4914   0.583   1.417  13.674
 1488SOL     OW 4915   0.824   0.006  13.549
 1488SOL    HW1 4916   0.867   0.088  13.522
 1488SOL    HW2 4917   0.730   0.026  13.544
 1489SOL     OW 4918   1.530   0.997  13.234
 1489SOL    HW1 4919   1.461   0.940  13.267
 1489SOL    HW2 4920   1.572   1.033  13.313
 1490SOL     OW 4921   1.654   1.739  13.592
 1490SOL    HW1 4922   1.630   1.704  13.506
 1490SOL    HW2 4923   1.654   1.663  13.650
 1491SOL     OW 4924   0.594   0.717  13.298
 1491SOL    HW1 4925   0.598   0.802  13.254
 1491SOL    HW2 4926   0.531   0.730  13.370
 1492SOL     OW 4927   1.234   0.341   0.050
 1492SOL    HW1 4928   1.145   0.330   0.086
 1492SOL    HW2 4929   1.289   0.289   0.109
 1493SOL     OW 4930   1.581   1.675  13.327
 1493SOL    HW1 4931   1.672   1.686  13.301
 1493SOL    HW2 4932   1.535   1.654  13.245
 1494SOL     OW 4933   1.051   0.697  13.458
 1494SOL    HW1 4934   1.068   0.684  13.551
 1494SOL    HW2 4935   0.968   0.652  13.441
 1495SOL     OW 4936   0.077   0.846  13.807
 1495SOL    HW1 4937   0.153   0.823  13.859
 1495SOL    HW2 4938   0.079   0.941  13.801
 1496SOL     OW 4939   0.895   0.351  13.231
 1496SOL    HW1 4940   0.937   0.412  13.171
 1496SOL    HW2 4941   0.892   0.269  13.183
 1497SOL     OW 4942   1.364   1.134  13.548
 1497SOL    HW1 4943   1.454   1.135  13.515
 1497SOL    HW2 4944   1.320   1.206  13.501
 1498SOL     OW 4945   0.996   1.439  13.500
 1498SOL    HW1 4946   0.969   1.517  13.450
 1498SOL    HW2 4947   0.961   1.454  13.588
 1499SOL     OW 4948   0.414   1.798  13.856
 1499SOL    HW1 4949   0.405   1.704  13.869
 1499SOL    HW2 4950   0.498   1.820  13.895
 1500SOL     OW 4951   1.787   1.040   0.001
 1500SOL    HW1 4952   1.734   1.033  13.822
 1500SOL    HW2 4953   1.724   1.037   0.073
 1501SOL     OW 4954   0.310   0.952  13.276
 1501SOL    HW1 4955   0.393   0.974  13.233
 1501SOL    HW2 4956   0.298   0.858  13.259
 1502SOL     OW 4957   1.495   0.735  13.753
 1502SOL    HW1 4958   1.484   0.697  13.841
 1502SOL    HW2 4959   1.564   0.800  13.764
 1503SOL     OW 4960   1.124   1.776  13.263
 1503SOL    HW1 4961   1.048   1.739  13.307
 1503SOL    HW2 4962   1.146   1.713  13.195
 1504SOL     OW 4963   1.628   1.383  13.122
 1504SOL    HW1 4964   1.585   1.467  13.106
 1504SOL    HW2 4965   1.561   1.317  13.103
 1505SOL     OW 4966   0.466   1.738  13.347
 1505SOL    HW1 4967   0.508   1.793  13.414
 1505SOL    HW2 4968   0.538   1.702  13.296
 1506SOL     OW 4969   1.431   0.166  13.443
 1506SOL    HW1 4970   1.392   0.113  13.374
 1506SOL    HW2 4971   1.521   0.134  13.450
 1507SOL     OW 4972   0.914   1.686   0.010
 1507SOL    HW1 4973   0.937   1.617   0.072
 1507SOL    HW2 4974   0.882   1.639  13.833
 1508SOL     OW 4975   0.400   0.697  13.500
 1508SOL    HW1 4976   0.426   0.606  13.514
 1508SOL    HW2 4977   0.309   0.700  13.530
 1509SOL     OW 4978   0.646   0.127  13.138
 1509SOL    HW1 4979   0.668   0.042  13.175
 1509SOL    HW2 4980   0.587   0.108  13.066
 1510SOL     OW 4981   0.553   0.053  13.520
 1510SOL    HW1 4982   0.476   0.057  13.577
 1510SOL    HW2 4983   0.551   0.136  13.472
 1511SOL     OW 4984   1.428   1.200  13.073
 1511SOL    HW1 4985   1.457   1.124  13.125
 1511SOL    HW2 4986   1.342   1.222  13.109
 1512SOL     OW 4987   0.353   0.044  13.235
 1512SOL    HW1 4988   0.357   0.097  13.156
 1512SOL    HW2 4989   0.444   0.036  13.263
 1513SOL     OW 4990   0.945   0.252  13.491
 1513SOL    HW1 4991   0.918   0.291  13.408
 1513SOL    HW2 4992   1.040   0.259  13.492
 1514SOL     OW 4993   0.470   1.145  13.761
 1514SOL    HW1 4994   0.400   1.120  13.821
 1514SOL    HW2 4995   0.432   1.135  13.674
 1515SOL     OW 4996   1.265   1.795  13.634
 1515SOL    HW1 4997   1.306   1.866  13.584
 1515SOL    HW2 4998   1.194   1.837  13.683
 1516SOL     OW 4999   1.021   0.539  13.065
 1516SOL    HW1 5000   0.978   0.622  13.046
 1516SOL    HW2 5001   1.085   0.560  13.133
 1517SOL     OW 5002   0.904   0.474  13.672
 1517SOL    HW1 5003   0.833   0.519  13.627
 1517SOL    HW2 5004   0.912   0.390  13.626
 1518SOL     OW 5005   1.003   0.037  13.791
 1518SOL    HW1 5006   0.969   0.063  13.705
 1518SOL    HW2 5007   1.026   3.945  13.781
 1519SOL     OW 5008   1.842   0.818  13.420
 1519SOL    HW1 5009   1.902   0.768  13.474
 1519SOL    HW2 5010   1.816   0.758  13.350
 1520SOL     OW 5011   0.487   1.423  13.192
 1520SOL    HW1 5012   0.410   1.393  13.241
 1520SOL    HW2 5013   0.476   1.386  13.105
 1521SOL     OW 5014   1.684   1.274  13.659
 1521SOL    HW1 5015   1.776   1.267  13.684
 1521SOL    HW2 5016   1.655   1.355  13.700
 1522SOL     OW 5017   1.395   0.578  13.103
 1522SOL    HW1 5018   1.332   0.557  13.172
 1522SOL    HW2 5019   1.480   0.557  13.141
 1523SOL     OW 5020   0.559   0.272  13.351
 1523SOL    HW1 5021   0.607   0.229  13.281
 1523SOL    HW2 5022   0.528   0.354  13.313
 1524SOL     OW 5023   0.709   1.064  13.399
 1524SOL    HW1 5024   0.695   1.048  13.492
 1524SOL    HW2 5025   0.785   1.011  13.376
 1525SOL     OW 5026   0.368   1.104  13.511
 1525SOL    HW1 5027   0.362   1.186  13.461
 1525SOL    HW2 5028   0.365   1.036  13.444
 1526SOL     OW 5029   0.563   0.541  13.864
 1526SOL    HW1 5030   0.575   0.607  13.795
 1526SOL    HW2 5031   0.627   0.564   0.031
 1527SOL     OW 5032   1.244   1.354  13.419
 1527SOL    HW1 5033   1.298   1.427  13.447
 1527SOL    HW2 5034   1.157   1.374  13.454
 1528SOL     OW 5035   1.583   0.637  13.511
 1528SOL    HW1 5036   1.543   0.682  13.586
 1528SOL    HW2 5037   1.624   0.707  13.461
 1529SOL     OW 5038   1.198   0.534  13.291
 1529SOL    HW1 5039   1.206   0.454  13.344
 1529SOL    HW2 5040   1.155   0.597  13.348
 1530SOL     OW 5041   0.339   0.048  13.681
 1530SOL    HW1 5042   0.315   0.140  13.693
 1530SOL    HW2 5043   0.277   4.000  13.735
 1531SOL     OW 5044   1.595   0.395  13.405
 1531SOL    HW1 5045   1.558   0.330  13.466
 1531SOL    HW2 5046   1.583   0.479  13.449
 1532SOL     OW 5047   1.500   0.279  13.164
 1532SOL    HW1 5048   1.430   0.216  13.180
 1532SOL    HW2 5049   1.517   0.319  13.250
 1533SOL     OW 5050   1.286   0.826  13.060
 1533SOL    HW1 5051   1.329   0.741  13.065
 1533SOL    HW2 5052   1.318   0.865  12.979
 1534SOL     OW 5053   0.001   1.315  13.214
 1534SOL    HW1 5054   3.907   1.332  13.218
 1534SOL    HW2 5055   0.009   1.221  13.232
 1535SOL     OW 5056   0.819   0.575  13.390
 1535SOL    HW1 5057   0.823   0.497  13.335
 1535SOL    HW2 5058   0.742   0.622  13.358
 1536SOL     OW 5059   0.449   0.492  13.233
 1536SOL    HW1 5060   0.513   0.561  13.249
 1536SOL    HW2 5061   0.369   0.538  13.208
 1537SOL     OW 5062   1.318   0.851  13.336
 1537SOL    HW1 5063   1.241   0.826  13.388
 1537SOL    HW2 5064   1.290   0.840  13.245
 1538SOL     OW 5065   1.693   0.108  13.451
 1538SOL    HW1 5066   1.785   0.129  13.432
 1538SOL    HW2 5067   1.697   0.037  13.514
 1539SOL     OW 5068   1.384   1.577  13.509
 1539SOL    HW1 5069   1.439   1.615  13.441
 1539SOL    HW2 5070   1.336   1.651  13.545
 1540SOL     OW 5071   1.291   0.913  13.684
 1540SOL    HW1 5072   1.369   0.858  13.672
 1540SOL    HW2 5073   1.313   0.995  13.639
 1541SOL     OW 5074   0.670   1.625  13.189
 1541SOL    HW1 5075   0.682   1.638  13.095
 1541SOL    HW2 5076   0.614   1.548  13.196
 1542SOL     OW 5077   1.820   0.181   0.067
 1542SOL    HW1 5078   1.860   0.094   0.058
 1542SOL    HW2 5079   1.732   0.170   0.031
 1543SOL     OW 5080   0.291   0.310  13.734
 1543SOL    HW1 5081   0.209   0.353  13.708
 1543SOL    HW2 5082   0.297   0.325  13.828
 1544SOL     OW 5083   1.205   1.601  13.066
 1544SOL    HW1 5084   1.195   1.510  13.091
 1544SOL    HW2 5085   1.139   1.615  12.998
 1545SOL     OW 5086   0.919   0.914  13.331
 1545SOL    HW1 5087   0.978   0.944  13.261
 1545SOL    HW2 5088   0.966   0.841  13.371
 1546SOL     OW 5089   1.483   1.623  13.074
 1546SOL    HW1 5090   1.389   1.616  13.057
 1546SOL    HW2 5091   1.523   1.631  12.987
 1547SOL     OW 5092   1.050   1.090  13.756
 1547SOL    HW1 5093   0.964   1.056  13.734
 1547SOL    HW2 5094   1.108   1.058  13.687
 1548SOL     OW 5095   0.601   1.494  13.503
 1548SOL    HW1 5096   0.649   1.442  13.438
 1548SOL    HW2 5097   0.524   1.526  13.455
 1549SOL     OW 5098   0.253   1.339  13.326
 1549SOL    HW1 5099   0.160   1.344  13.307
 1549SOL    HW2 5100   0.263   1.379  13.412
 1550SOL     OW 5101   0.088   0.317  13.057
 1550SOL    HW1 5102   3.992   0.318  13.049
 1550SOL    HW2 5103   0.115   0.400  13.017
 1551SOL     OW 5104   0.041   0.177  13.303
 1551SOL    HW1 5105   0.045   0.227  13.222
 1551SOL    HW2 5106   0.116   0.208  13.355
 1552SOL     OW 5107   1.177   1.334  13.149
 1552SOL    HW1 5108   1.085   1.306  13.150
 1552SOL    HW2 5109   1.203   1.336  13.241
 1553SOL     OW 5110   1.219   0.333  13.481
 1553SOL    HW1 5111   1.288   0.268  13.471
 1553SOL    HW2 5112   1.244   0.383  13.559
 1554SOL     OW 5113   0.595   0.750  13.690
 1554SOL    HW1 5114   0.628   0.837  13.672
 1554SOL    HW2 5115   0.525   0.737  13.626
 1555SOL     OW 5116   0.865   1.364  13.076
 1555SOL    HW1 5117   0.826   1.392  13.159
 1555SOL    HW2 5118   0.879   1.446  13.028
 1556SOL     OW 5119   0.664   1.856   0.058
 1556SOL    HW1 5120   0.681   1.948   0.041
 1556SOL    HW2 5121   0.751   1.817   0.071
 1557SOL     OW 5122   0.821   0.966   0.001
 1557SOL    HW1 5123   0.838   0.881   0.041
 1557SOL    HW2 5124   0.866   1.029   0.058
 1558SOL     OW 5125   1.075   0.987  13.123
 1558SOL    HW1 5126   1.054   1.040  13.046
 1558SOL    HW2 5127   1.150   0.933  13.096
 1559SOL     OW 5128   0.116   1.280  13.765
 1559SOL    HW1 5129   0.047   1.245  13.821
 1559SOL    HW2 5130   0.117   1.222  13.689
 1560SOL     OW 5131   0.456   0.442  13.556
 1560SOL    HW1 5132   0.487   0.368  13.503
 1560SOL    HW2 5133   0.408   0.400  13.628
 1561SOL     OW 5134   1.709   1.499   0.326
 1561SOL    HW1 5135   1.676   1.449   0.251
 1561SOL    HW2 5136   1.770   1.439   0.370
 1562SOL     OW 5137   0.821   1.550  13.700
 1562SOL    HW1 5138   0.787   1.606  13.629
 1562SOL    HW2 5139   0.749   1.491  13.720
 1563SOL     OW 5140   0.773   1.335  13.349
 1563SOL    HW1 5141   0.746   1.243  13.358
 1563SOL    HW2 5142   0.853   1.341  13.401
 1564SOL     OW 5143   1.309   0.076  13.209
 1564SOL    HW1 5144   1.331   3.994  13.165
 1564SOL    HW2 5145   1.220   0.064  13.240
 1565SOL     OW 5146   1.292   0.460  13.714
 1565SOL    HW1 5147   1.243   0.542  13.712
 1565SOL    HW2 5148   1.281   0.427  13.804
 1566SOL     OW 5149   0.047   1.046  13.272
 1566SOL    HW1 5150   0.142   1.031  13.265
 1566SOL    HW2 5151   0.011   0.961  13.296
 1567SOL     OW 5152   0.889   1.659  13.372
 1567SOL    HW1 5153   0.814   1.644  13.315
 1567SOL    HW2 5154   0.862   1.730  13.430
 1568SOL     OW 5155   0.228   2.520   0.120
 1568SOL    HW1 5156   0.134   2.509   0.132
 1568SOL    HW2 5157   0.247   2.478   0.037
 1569SOL     OW 5158   0.229   2.135   0.987
 1569SOL    HW1 5159   0.251   2.099   1.074
 1569SOL    HW2 5160   0.134   2.128   0.981
 1570SOL     OW 5161   0.008   2.220   0.628
 1570SOL    HW1 5162   3.920   2.239   0.662
 1570SOL    HW2 5163   3.993   2.192   0.537
 1571SOL     OW 5164   0.582   3.155   1.196
 1571SOL    HW1 5165   0.496   3.157   1.154
 1571SOL    HW2 5166   0.596   3.244   1.228
 1572SOL     OW 5167   1.568   3.372   0.709
 1572SOL    HW1 5168   1.523   3.348   0.790
 1572SOL    HW2 5169   1.499   3.374   0.643
 1573SOL     OW 5170   1.134   2.560   0.697
 1573SOL    HW1 5171   1.181   2.642   0.685
 1573SOL    HW2 5172   1.086   2.572   0.779
 1574SOL     OW 5173   1.765   2.458   0.230
 1574SOL    HW1 5174   1.794   2.404   0.156
 1574SOL    HW2 5175   1.717   2.398   0.287
 1575SOL     OW 5176   0.747   2.998   1.045
 1575SOL    HW1 5177   0.686   3.036   1.108
 1575SOL    HW2 5178   0.785   3.074   1.000
 1576SOL     OW 5179   0.874   2.625   1.824
 1576SOL    HW1 5180   0.866   2.696   1.888
 1576SOL    HW2 5181   0.896   2.670   1.742
 1577SOL     OW 5182   0.684   2.859   0.647
 1577SOL    HW1 5183   0.751   2.851   0.715
 1577SOL    HW2 5184   0.616   2.914   0.687
 1578SOL     OW 5185   0.714   3.011   1.820
 1578SOL    HW1 5186   0.762   3.088   1.850
 1578SOL    HW2 5187   0.634   3.046   1.781
 1579SOL     OW 5188   0.351   3.262   1.078
 1579SOL    HW1 5189   0.269   3.247   1.030
 1579SOL    HW2 5190   0.401   3.319   1.021
 1580SOL     OW 5191   1.459   3.364   1.360
 1580SOL    HW1 5192   1.514   3.442   1.370
 1580SOL    HW2 5193   1.391   3.374   1.426
 1581SOL     OW 5194   0.450   2.257   1.483
 1581SOL    HW1 5195   0.526   2.199   1.488
 1581SOL    HW2 5196   0.375   2.200   1.499
 1582SOL     OW 5197   1.604   2.298   0.733
 1582SOL    HW1 5198   1.521   2.317   0.691
 1582SOL    HW2 5199   1.621   2.374   0.790
 1583SOL     OW 5200   0.223   3.573   0.470
 1583SOL    HW1 5201   0.216   3.657   0.514
 1583SOL    HW2 5202   0.300   3.581   0.414
 1584SOL     OW 5203   1.138   3.204   1.694
 1584SOL    HW1 5204   1.179   3.197   1.781
 1584SOL    HW2 5205   1.085   3.124   1.686
 1585SOL     OW 5206   0.245   3.309   0.543
 1585SOL    HW1 5207   0.224   3.401   0.526
 1585SOL    HW2 5208   0.171   3.276   0.594
 1586SOL     OW 5209   0.249   2.926   0.882
 1586SOL    HW1 5210   0.270   2.841   0.921
 1586SOL    HW2 5211   0.196   2.970   0.949
 1587SOL     OW 5212   0.608   3.648   1.426
 1587SOL    HW1 5213   0.527   3.634   1.473
 1587SOL    HW2 5214   0.636   3.737   1.450
 1588SOL     OW 5215   0.559   2.842   0.170
 1588SOL    HW1 5216   0.591   2.878   0.088
 1588SOL    HW2 5217   0.614   2.882   0.237
 1589SOL     OW 5218   1.597   1.996   1.464
 1589SOL    HW1 5219   1.597   2.083   1.424
 1589SOL    HW2 5220   1.584   2.012   1.557
 1590SOL     OW 5221   0.142   2.523   0.571
 1590SOL    HW1 5222   0.088   2.444   0.572
 1590SOL    HW2 5223   0.109   2.576   0.644
 1591SOL     OW 5224   1.839   3.599   0.336
 1591SOL    HW1 5225   1.903   3.567   0.399
 1591SOL    HW2 5226   1.859   3.692   0.326
 1592SOL     OW 5227   0.031   3.467   0.133
 1592SOL    HW1 5228   0.037   3.375   0.159
 1592SOL    HW2 5229   3.937   3.484   0.131
 1593SOL     OW 5230   1.688   2.779   0.646
 1593SOL    HW1 5231   1.769   2.735   0.620
 1593SOL    HW2 5232   1.665   2.833   0.570
 1594SOL     OW 5233   1.649   2.964   0.433
 1594SOL    HW1 5234   1.736   2.967   0.393
 1594SOL    HW2 5235   1.654   3.030   0.503
 1595SOL     OW 5236   0.144   2.614   1.590
 1595SOL    HW1 5237   0.239   2.611   1.584
 1595SOL    HW2 5238   0.125   2.701   1.626
 1596SOL     OW 5239   0.617   3.248   0.735
 1596SOL    HW1 5240   0.569   3.166   0.744
 1596SOL    HW2 5241   0.601   3.276   0.645
 1597SOL     OW 5242   1.285   3.097   1.421
 1597SOL    HW1 5243   1.316   3.029   1.361
 1597SOL    HW2 5244   1.345   3.093   1.495
 1598SOL     OW 5245   0.825   1.863   0.516
 1598SOL    HW1 5246   0.865   1.947   0.491
 1598SOL    HW2 5247   0.731   1.881   0.520
 1599SOL     OW 5248   0.183   2.810   1.282
 1599SOL    HW1 5249   0.271   2.775   1.270
 1599SOL    HW2 5250   0.133   2.776   1.209
 1600SOL     OW 5251   1.528   2.865   0.206
 1600SOL    HW1 5252   1.461   2.806   0.240
 1600SOL    HW2 5253   1.571   2.899   0.284
 1601SOL     OW 5254   1.223   3.668   1.629
 1601SOL    HW1 5255   1.196   3.729   1.561
 1601SOL    HW2 5256   1.223   3.583   1.586
 1602SOL     OW 5257   0.344   2.109   1.820
 1602SOL    HW1 5258   0.378   2.198   1.828
 1602SOL    HW2 5259   0.252   2.116   1.844
 1603SOL     OW 5260   1.465   3.281   0.948
 1603SOL    HW1 5261   1.399   3.296   1.015
 1603SOL    HW2 5262   1.453   3.190   0.922
 1604SOL     OW 5263   1.659   3.602   0.590
 1604SOL    HW1 5264   1.642   3.577   0.499
 1604SOL    HW2 5265   1.634   3.524   0.640
 1605SOL     OW 5266   0.597   2.575   0.269
 1605SOL    HW1 5267   0.597   2.659   0.223
 1605SOL    HW2 5268   0.535   2.587   0.341
 1606SOL     OW 5269   1.280   2.228   0.935
 1606SOL    HW1 5270   1.192   2.192   0.945
 1606SOL    HW2 5271   1.335   2.171   0.989
 1607SOL     OW 5272   1.562   3.590   0.316
 1607SOL    HW1 5273   1.658   3.589   0.313
 1607SOL    HW2 5274   1.535   3.563   0.228
 1608SOL     OW 5275   0.791   2.480   1.449
 1608SOL    HW1 5276   0.765   2.454   1.537
 1608SOL    HW2 5277   0.756   2.411   1.392
 1609SOL     OW 5278   1.392   2.335   1.677
 1609SOL    HW1 5279   1.395   2.382   1.760
 1609SOL    HW2 5280   1.454   2.262   1.688
 1610SOL     OW 5281   0.950   2.747   1.586
 1610SOL    HW1 5282   1.005   2.679   1.547
 1610SOL    HW2 5283   0.902   2.783   1.512
 1611SOL     OW 5284   0.994   2.271   1.234
 1611SOL    HW1 5285   0.905   2.289   1.264
 1611SOL    HW2 5286   0.983   2.229   1.148
 1612SOL     OW 5287   1.054   2.563   0.429
 1612SOL    HW1 5288   1.072   2.555   0.522
 1612SOL    HW2 5289   0.970   2.518   0.417
 1613SOL     OW 5290   0.083   2.693   0.790
 1613SOL    HW1 5291   0.154   2.662   0.845
 1613SOL    HW2 5292   0.104   2.785   0.773
 1614SOL     OW 5293   0.127   3.720   1.582
 1614SOL    HW1 5294   0.136   3.688   1.672
 1614SOL    HW2 5295   0.035   3.707   1.560
 1615SOL     OW 5296   0.869   2.223   0.217
 1615SOL    HW1 5297   0.907   2.285   0.155
 1615SOL    HW2 5298   0.885   2.137   0.177
 1616SOL     OW 5299   1.666   2.444   1.837
 1616SOL    HW1 5300   1.645   2.516   1.777
 1616SOL    HW2 5301   1.714   2.381   1.783
 1617SOL     OW 5302   1.380   3.004   0.543
 1617SOL    HW1 5303   1.459   2.992   0.489
 1617SOL    HW2 5304   1.327   3.067   0.494
 1618SOL     OW 5305   0.548   2.040   0.897
 1618SOL    HW1 5306   0.554   2.071   0.987
 1618SOL    HW2 5307   0.546   2.119   0.843
 1619SOL     OW 5308   1.000   3.304   0.474
 1619SOL    HW1 5309   0.971   3.380   0.423
 1619SOL    HW2 5310   0.977   3.326   0.564
 1620SOL     OW 5311   0.359   3.673   0.867
 1620SOL    HW1 5312   0.441   3.625   0.880
 1620SOL    HW2 5313   0.384   3.765   0.875
 1621SOL     OW 5314   1.801   2.911   0.873
 1621SOL    HW1 5315   1.748   2.895   0.794
 1621SOL    HW2 5316   1.737   2.920   0.943
 1622SOL     OW 5317   1.227   3.400   1.511
 1622SOL    HW1 5318   1.215   3.328   1.573
 1622SOL    HW2 5319   1.157   3.389   1.447
 1623SOL     OW 5320   0.305   2.790   0.243
 1623SOL    HW1 5321   0.397   2.803   0.217
 1623SOL    HW2 5322   0.292   2.695   0.234
 1624SOL     OW 5323   1.481   2.608   0.721
 1624SOL    HW1 5324   1.478   2.569   0.809
 1624SOL    HW2 5325   1.559   2.665   0.723
 1625SOL     OW 5326   0.471   3.123   1.737
 1625SOL    HW1 5327   0.445   3.131   1.645
 1625SOL    HW2 5328   0.388   3.125   1.785
 1626SOL     OW 5329   1.127   3.640   0.229
 1626SOL    HW1 5330   1.062   3.595   0.283
 1626SOL    HW2 5331   1.154   3.574   0.165
 1627SOL     OW 5332   0.204   2.130   1.508
 1627SOL    HW1 5333   0.114   2.164   1.505
 1627SOL    HW2 5334   0.195   2.041   1.544
 1628SOL     OW 5335   1.636   3.239   0.090
 1628SOL    HW1 5336   1.606   3.320   0.051
 1628SOL    HW2 5337   1.567   3.175   0.071
 1629SOL     OW 5338   0.463   3.605   0.323
 1629SOL    HW1 5339   0.502   3.666   0.385
 1629SOL    HW2 5340   0.537   3.569   0.275
 1630SOL     OW 5341   1.403   1.967   0.433
 1630SOL    HW1 5342   1.385   1.951   0.341
 1630SOL    HW2 5343   1.488   1.925   0.449
 1631SOL     OW 5344   0.258   3.657   1.223
 1631SOL    HW1 5345   0.297   3.587   1.274
 1631SOL    HW2 5346   0.254   3.623   1.133
 1632SOL     OW 5347   0.939   3.565   0.898
 1632SOL    HW1 5348   1.018   3.515   0.920
 1632SOL    HW2 5349   0.897   3.514   0.829
 1633SOL     OW 5350   0.400   2.556   0.471
 1633SOL    HW1 5351   0.422   2.464   0.486
 1633SOL    HW2 5352   0.308   2.563   0.498
 1634SOL     OW 5353   1.533   2.086   1.725
 1634SOL    HW1 5354   1.545   2.105   1.818
 1634SOL    HW2 5355   1.461   2.023   1.723
 1635SOL     OW 5356   0.765   2.141   1.755
 1635SOL    HW1 5357   0.845   2.090   1.751
 1635SOL    HW2 5358   0.719   2.108   1.833
 1636SOL     OW 5359   0.876   3.383   1.194
 1636SOL    HW1 5360   0.858   3.346   1.108
 1636SOL    HW2 5361   0.945   3.328   1.231
 1637SOL     OW 5362   1.339   2.451   1.432
 1637SOL    HW1 5363   1.370   2.420   1.518
 1637SOL    HW2 5364   1.376   2.539   1.425
 1638SOL     OW 5365   0.819   3.250   0.945
 1638SOL    HW1 5366   0.904   3.240   0.903
 1638SOL    HW2 5367   0.757   3.256   0.872
 1639SOL     OW 5368   0.929   2.371   0.900
 1639SOL    HW1 5369   0.904   2.363   0.808
 1639SOL    HW2 5370   0.959   2.284   0.925
 1640SOL     OW 5371   0.560   1.920   0.500
 1640SOL    HW1 5372   0.479   1.919   0.551
 1640SOL    HW2 5373   0.552   1.999   0.446
 1641SOL     OW 5374   1.431   3.073   0.043
 1641SOL    HW1 5375   1.450   2.993   0.091
 1641SOL    HW2 5376   1.340   3.093   0.064
 1642SOL     OW 5377   0.260   1.875   0.213
 1642SOL    HW1 5378   0.291   1.959   0.180
 1642SOL    HW2 5379   0.339   1.827   0.236
 1643SOL     OW 5380   0.944   2.109   0.460
 1643SOL    HW1 5381   0.912   2.150   0.380
 1643SOL    HW2 5382   1.038   2.129   0.461
 1644SOL     OW 5383   1.081   2.546   1.457
 1644SOL    HW1 5384   1.015   2.476   1.462
 1644SOL    HW2 5385   1.164   2.500   1.451
 1645SOL     OW 5386   1.218   3.435   0.796
 1645SOL    HW1 5387   1.233   3.500   0.726
 1645SOL    HW2 5388   1.290   3.449   0.857
 1646SOL     OW 5389   0.466   3.014   0.730
 1646SOL    HW1 5390   0.396   2.989   0.790
 1646SOL    HW2 5391   0.428   3.001   0.643
 1647SOL     OW 5392   1.264   3.655   0.610
 1647SOL    HW1 5393   1.314   3.720   0.560
 1647SOL    HW2 5394   1.190   3.704   0.645
 1648SOL     OW 5395   0.995   2.402   0.050
 1648SOL    HW1 5396   0.986   2.380  13.857
 1648SOL    HW2 5397   1.087   2.388   0.070
 1649SOL     OW 5398   0.084   2.437   1.389
 1649SOL    HW1 5399   0.174   2.423   1.359
 1649SOL    HW2 5400   0.091   2.505   1.455
 1650SOL     OW 5401   0.567   2.089   1.169
 1650SOL    HW1 5402   0.608   2.016   1.214
 1650SOL    HW2 5403   0.475   2.085   1.196
 1651SOL     OW 5404   0.866   2.320   0.639
 1651SOL    HW1 5405   0.826   2.376   0.573
 1651SOL    HW2 5406   0.889   2.239   0.591
 1652SOL     OW 5407   1.019   1.916   0.747
 1652SOL    HW1 5408   0.959   1.911   0.673
 1652SOL    HW2 5409   0.994   1.841   0.802
 1653SOL     OW 5410   1.439   3.022   0.857
 1653SOL    HW1 5411   1.368   2.958   0.855
 1653SOL    HW2 5412   1.464   3.032   0.765
 1654SOL     OW 5413   1.464   2.471   0.968
 1654SOL    HW1 5414   1.407   2.394   0.971
 1654SOL    HW2 5415   1.521   2.462   1.044
 1655SOL     OW 5416   1.843   2.673   0.378
 1655SOL    HW1 5417   1.899   2.624   0.438
 1655SOL    HW2 5418   1.812   2.608   0.315
 1656SOL     OW 5419   0.489   3.251   0.165
 1656SOL    HW1 5420   0.420   3.213   0.219
 1656SOL    HW2 5421   0.443   3.297   0.095
 1657SOL     OW 5422   1.675   3.123   0.648
 1657SOL    HW1 5423   1.770   3.125   0.660
 1657SOL    HW2 5424   1.648   3.214   0.659
 1658SOL     OW 5425   1.421   2.443   0.088
 1658SOL    HW1 5426   1.351   2.437   0.153
 1658SOL    HW2 5427   1.464   2.358   0.091
 1659SOL     OW 5428   0.536   2.127   0.328
 1659SOL    HW1 5429   0.588   2.096   0.254
 1659SOL    HW2 5430   0.496   2.208   0.298
 1660SOL     OW 5431   1.749   3.105   1.563
 1660SOL    HW1 5432   1.836   3.066   1.559
 1660SOL    HW2 5433   1.764   3.195   1.591
 1661SOL     OW 5434   1.054   3.213   1.331
 1661SOL    HW1 5435   0.979   3.183   1.381
 1661SOL    HW2 5436   1.130   3.173   1.373
 1662SOL     OW 5437   1.610   3.490   1.658
 1662SOL    HW1 5438   1.601   3.523   1.569
 1662SOL    HW2 5439   1.692   3.441   1.657
 1663SOL     OW 5440   1.134   3.071   1.102
 1663SOL    HW1 5441   1.075   3.109   1.166
 1663SOL    HW2 5442   1.105   3.106   1.018
 1664SOL     OW 5443   1.623   2.958   1.075
 1664SOL    HW1 5444   1.616   3.021   1.147
 1664SOL    HW2 5445   1.548   2.977   1.020
 1665SOL     OW 5446   0.918   1.956   1.392
 1665SOL    HW1 5447   0.942   1.937   1.301
 1665SOL    HW2 5448   0.997   1.995   1.429
 1666SOL     OW 5449   0.984   2.977   1.722
 1666SOL    HW1 5450   0.893   2.994   1.747
 1666SOL    HW2 5451   0.981   2.898   1.668
 1667SOL     OW 5452   0.717   2.923   0.378
 1667SOL    HW1 5453   0.702   2.902   0.471
 1667SOL    HW2 5454   0.792   2.868   0.353
 1668SOL     OW 5455   0.423   2.680   1.253
 1668SOL    HW1 5456   0.491   2.689   1.320
 1668SOL    HW2 5457   0.390   2.591   1.264
 1669SOL     OW 5458   1.264   2.236   1.281
 1669SOL    HW1 5459   1.296   2.314   1.326
 1669SOL    HW2 5460   1.173   2.257   1.258
 1670SOL     OW 5461   0.065   3.441   1.343
 1670SOL    HW1 5462   0.070   3.477   1.255
 1670SOL    HW2 5463   0.156   3.434   1.372
 1671SOL     OW 5464   0.357   2.963   0.480
 1671SOL    HW1 5465   0.348   3.041   0.424
 1671SOL    HW2 5466   0.377   2.892   0.419
 1672SOL     OW 5467   0.547   2.393   0.861
 1672SOL    HW1 5468   0.560   2.450   0.786
 1672SOL    HW2 5469   0.615   2.419   0.924
 1673SOL     OW 5470   1.248   3.209   0.401
 1673SOL    HW1 5471   1.304   3.282   0.427
 1673SOL    HW2 5472   1.161   3.233   0.432
 1674SOL     OW 5473   1.288   3.323   1.149
 1674SOL    HW1 5474   1.344   3.328   1.227
 1674SOL    HW2 5475   1.232   3.246   1.165
 1675SOL     OW 5476   1.575   2.490   0.478
 1675SOL    HW1 5477   1.527   2.532   0.550
 1675SOL    HW2 5478   1.601   2.563   0.422
 1676SOL     OW 5479   0.345   3.391   1.316
 1676SOL    HW1 5480   0.335   3.340   1.236
 1676SOL    HW2 5481   0.439   3.405   1.324
 1677SOL     OW 5482   0.420   2.599   1.602
 1677SOL    HW1 5483   0.483   2.644   1.546
 1677SOL    HW2 5484   0.459   2.514   1.619
 1678SOL     OW 5485   1.605   2.650   1.678
 1678SOL    HW1 5486   1.520   2.693   1.672
 1678SOL    HW2 5487   1.658   2.694   1.611
 1679SOL     OW 5488   0.996   1.995   1.753
 1679SOL    HW1 5489   1.055   2.067   1.732
 1679SOL    HW2 5490   1.045   1.916   1.728
 1680SOL     OW 5491   0.496   1.895   1.748
 1680SOL    HW1 5492   0.451   1.844   1.680
 1680SOL    HW2 5493   0.443   1.974   1.757
 1681SOL     OW 5494   0.586   2.737   1.032
 1681SOL    HW1 5495   0.621   2.826   1.035
 1681SOL    HW2 5496   0.530   2.731   1.110
 1682SOL     OW 5497   1.348   2.720   1.022
 1682SOL    HW1 5498   1.263   2.706   0.982
 1682SOL    HW2 5499   1.394   2.636   1.012
 1683SOL     OW 5500   1.219   2.403   0.272
 1683SOL    HW1 5501   1.222   2.324   0.326
 1683SOL    HW2 5502   1.162   2.463   0.320
 1684SOL     OW 5503   0.309   2.057   1.247
 1684SOL    HW1 5504   0.263   2.092   1.323
 1684SOL    HW2 5505   0.287   1.964   1.247
 1685SOL     OW 5506   0.063   3.166   1.281
 1685SOL    HW1 5507   0.092   3.124   1.361
 1685SOL    HW2 5508   0.054   3.259   1.304
 1686SOL     OW 5509   0.721   2.492   1.053
 1686SOL    HW1 5510   0.798   2.478   0.997
 1686SOL    HW2 5511   0.693   2.581   1.034
 1687SOL     OW 5512   1.738   2.821   1.856
 1687SOL    HW1 5513   1.694   2.755   1.803
 1687SOL    HW2 5514   1.678   2.838   1.929
 1688SOL     OW 5515   0.318   1.921   0.624
 1688SOL    HW1 5516   0.292   2.011   0.642
 1688SOL    HW2 5517   0.323   1.879   0.710
 1689SOL     OW 5518   1.622   2.243   0.385
 1689SOL    HW1 5519   1.609   2.182   0.457
 1689SOL    HW2 5520   1.598   2.328   0.420
 1690SOL     OW 5521   1.029   2.620   0.958
 1690SOL    HW1 5522   1.020   2.637   1.052
 1690SOL    HW2 5523   1.002   2.529   0.948
 1691SOL     OW 5524   0.986   3.430   1.723
 1691SOL    HW1 5525   0.966   3.470   1.638
 1691SOL    HW2 5526   1.028   3.347   1.700
 1692SOL     OW 5527   1.852   3.363   1.603
 1692SOL    HW1 5528   1.873   3.391   1.514
 1692SOL    HW2 5529   1.932   3.378   1.653
 1693SOL     OW 5530   0.355   2.785   1.799
 1693SOL    HW1 5531   0.433   2.806   1.850
 1693SOL    HW2 5532   0.385   2.717   1.738
 1694SOL     OW 5533   1.506   2.172   0.144
 1694SOL    HW1 5534   1.493   2.077   0.148
 1694SOL    HW2 5535   1.554   2.193   0.224
 1695SOL     OW 5536   1.290   2.689   0.056
 1695SOL    HW1 5537   1.338   2.607   0.059
 1695SOL    HW2 5538   1.308   2.725  13.869
 1696SOL     OW 5539   1.069   3.200   0.857
 1696SOL    HW1 5540   1.074   3.129   0.794
 1696SOL    HW2 5541   1.127   3.268   0.821
 1697SOL     OW 5542   0.314   2.662   0.949
 1697SOL    HW1 5543   0.408   2.680   0.944
 1697SOL    HW2 5544   0.308   2.572   0.980
 1698SOL     OW 5545   0.327   2.384   1.015
 1698SOL    HW1 5546   0.293   2.295   1.000
 1698SOL    HW2 5547   0.404   2.389   0.958
 1699SOL     OW 5548   1.134   2.234   1.686
 1699SOL    HW1 5549   1.087   2.289   1.749
 1699SOL    HW2 5550   1.222   2.273   1.682
 1700SOL     OW 5551   1.160   2.060   1.472
 1700SOL    HW1 5552   1.149   2.123   1.544
 1700SOL    HW2 5553   1.203   2.110   1.403
 1701SOL     OW 5554   0.016   3.189   0.193
 1701SOL    HW1 5555   3.922   3.205   0.184
 1701SOL    HW2 5556   0.023   3.095   0.211
 1702SOL     OW 5557   0.075   3.664   0.894
 1702SOL    HW1 5558   0.096   3.570   0.887
 1702SOL    HW2 5559   0.160   3.707   0.897
 1703SOL     OW 5560   0.507   3.422   0.919
 1703SOL    HW1 5561   0.571   3.491   0.937
 1703SOL    HW2 5562   0.549   3.365   0.855
 1704SOL     OW 5563   0.974   2.649   1.224
 1704SOL    HW1 5564   1.033   2.630   1.296
 1704SOL    HW2 5565   0.890   2.611   1.251
 1705SOL     OW 5566   0.038   2.425   1.109
 1705SOL    HW1 5567   0.122   2.402   1.067
 1705SOL    HW2 5568   0.057   2.421   1.202
 1706SOL     OW 5569   0.206   2.373   1.728
 1706SOL    HW1 5570   0.243   2.323   1.655
 1706SOL    HW2 5571   0.164   2.448   1.686
 1707SOL     OW 5572   1.376   2.799   1.655
 1707SOL    HW1 5573   1.398   2.892   1.651
 1707SOL    HW2 5574   1.371   2.771   1.563
 1708SOL     OW 5575   0.815   2.439   0.380
 1708SOL    HW1 5576   0.824   2.364   0.322
 1708SOL    HW2 5577   0.743   2.490   0.342
 1709SOL     OW 5578   1.641   2.465   1.178
 1709SOL    HW1 5579   1.631   2.413   1.257
 1709SOL    HW2 5580   1.728   2.442   1.145
 1710SOL     OW 5581   0.301   3.406   1.722
 1710SOL    HW1 5582   0.254   3.475   1.769
 1710SOL    HW2 5583   0.273   3.324   1.764
 1711SOL     OW 5584   0.713   2.309   1.254
 1711SOL    HW1 5585   0.658   2.236   1.227
 1711SOL    HW2 5586   0.705   2.373   1.183
 1712SOL     OW 5587   0.925   3.532   1.471
 1712SOL    HW1 5588   0.898   3.492   1.388
 1712SOL    HW2 5589   0.917   3.626   1.456
 1713SOL     OW 5590   0.423   2.355   0.233
 1713SOL    HW1 5591   0.500   2.411   0.235
 1713SOL    HW2 5592   0.352   2.414   0.206
 1714SOL     OW 5593   0.154   2.996   1.478
 1714SOL    HW1 5594   0.154   2.946   1.559
 1714SOL    HW2 5595   0.169   2.931   1.409
 1715SOL     OW 5596   1.321   2.905   1.219
 1715SOL    HW1 5597   1.342   2.842   1.150
 1715SOL    HW2 5598   1.255   2.962   1.180
 1716SOL     OW 5599   1.317   2.719   0.327
 1716SOL    HW1 5600   1.244   2.685   0.378
 1716SOL    HW2 5601   1.293   2.703   0.236
 1717SOL     OW 5602   1.776   3.597   1.154
 1717SOL    HW1 5603   1.838   3.626   1.087
 1717SOL    HW2 5604   1.753   3.508   1.129
 1718SOL     OW 5605   1.245   3.594   1.106
 1718SOL    HW1 5606   1.328   3.617   1.064
 1718SOL    HW2 5607   1.253   3.501   1.126
 1719SOL     OW 5608   0.077   3.073   1.028
 1719SOL    HW1 5609   0.085   3.102   1.119
 1719SOL    HW2 5610   3.985   3.087   1.007
 1720SOL     OW 5611   0.680   3.529   1.739
 1720SOL    HW1 5612   0.621   3.604   1.742
 1720SOL    HW2 5613   0.741   3.550   1.667
 1721SOL     OW 5614   0.937   1.976   0.124
 1721SOL    HW1 5615   0.968   1.964   0.035
 1721SOL    HW2 5616   0.985   1.911   0.175
 1722SOL     OW 5617   1.391   3.434   0.490
 1722SOL    HW1 5618   1.452   3.469   0.425
 1722SOL    HW2 5619   1.342   3.511   0.521
 1723SOL     OW 5620   0.172   3.619   1.834
 1723SOL    HW1 5621   0.118   3.566   1.892
 1723SOL    HW2 5622   0.218   3.680   1.892
 1724SOL     OW 5623   1.278   2.789   0.671
 1724SOL    HW1 5624   1.352   2.729   0.680
 1724SOL    HW2 5625   1.312   2.861   0.618
 1725SOL     OW 5626   0.805   3.137   1.425
 1725SOL    HW1 5627   0.777   3.179   1.506
 1725SOL    HW2 5628   0.733   3.154   1.364
 1726SOL     OW 5629   0.670   3.453   0.194
 1726SOL    HW1 5630   0.659   3.495   0.109
 1726SOL    HW2 5631   0.625   3.369   0.186
 1727SOL     OW 5632   1.620   3.589   1.390
 1727SOL    HW1 5633   1.673   3.593   1.310
 1727SOL    HW2 5634   1.605   3.680   1.414
 1728SOL     OW 5635   0.264   2.172   0.715
 1728SOL    HW1 5636   0.177   2.203   0.690
 1728SOL    HW2 5637   0.260   2.164   0.811
 1729SOL     OW 5638   1.221   3.459   0.037
 1729SOL    HW1 5639   1.210   3.367   0.062
 1729SOL    HW2 5640   1.176   3.466  13.853
 1730SOL     OW 5641   0.823   2.868   1.375
 1730SOL    HW1 5642   0.867   2.862   1.290
 1730SOL    HW2 5643   0.820   2.962   1.394
 1731SOL     OW 5644   0.924   2.774   0.291
 1731SOL    HW1 5645   0.992   2.814   0.237
 1731SOL    HW2 5646   0.969   2.703   0.337
 1732SOL     OW 5647   1.482   3.520   0.063
 1732SOL    HW1 5648   1.390   3.492   0.059
 1732SOL    HW2 5649   1.517   3.499  13.877
 1733SOL     OW 5650   0.374   3.164   1.491
 1733SOL    HW1 5651   0.359   3.245   1.441
 1733SOL    HW2 5652   0.297   3.111   1.475
 1734SOL     OW 5653   1.608   3.146   1.279
 1734SOL    HW1 5654   1.668   3.131   1.352
 1734SOL    HW2 5655   1.548   3.214   1.311
 1735SOL     OW 5656   1.060   2.972   0.711
 1735SOL    HW1 5657   0.988   2.921   0.748
 1735SOL    HW2 5658   1.124   2.906   0.683
 1736SOL     OW 5659   1.025   2.104   0.966
 1736SOL    HW1 5660   1.022   2.057   0.883
 1736SOL    HW2 5661   1.019   2.035   1.032
 1737SOL     OW 5662   0.609   3.347   0.482
 1737SOL    HW1 5663   0.657   3.299   0.414
 1737SOL    HW2 5664   0.537   3.388   0.436
 1738SOL     OW 5665   1.726   2.257   1.378
 1738SOL    HW1 5666   1.800   2.317   1.385
 1738SOL    HW2 5667   1.751   2.196   1.309
 1739SOL     OW 5668   0.266   3.175   0.312
 1739SOL    HW1 5669   0.186   3.200   0.266
 1739SOL    HW2 5670   0.265   3.226   0.393
 1740SOL     OW 5671   0.109   2.858   1.718
 1740SOL    HW1 5672   0.050   2.854   1.793
 1740SOL    HW2 5673   0.196   2.841   1.755
 1741SOL     OW 5674   0.677   2.058   1.500
 1741SOL    HW1 5675   0.761   2.036   1.460
 1741SOL    HW2 5676   0.700   2.091   1.587
 1742SOL     OW 5677   0.051   2.222   0.035
 1742SOL    HW1 5678   3.962   2.236   0.069
 1742SOL    HW2 5679   0.039   2.220  13.840
 1743SOL     OW 5680   1.426   2.720   1.397
 1743SOL    HW1 5681   1.376   2.781   1.342
 1743SOL    HW2 5682   1.515   2.723   1.361
 1744SOL     OW 5683   0.050   2.039   0.312
 1744SOL    HW1 5684   0.083   2.102   0.248
 1744SOL    HW2 5685   0.109   1.964   0.305
 1745SOL     OW 5686   1.186   3.204   0.124
 1745SOL    HW1 5687   1.091   3.198   0.113
 1745SOL    HW2 5688   1.201   3.192   0.217
 1746SOL     OW 5689   0.621   2.693   1.437
 1746SOL    HW1 5690   0.677   2.768   1.422
 1746SOL    HW2 5691   0.681   2.619   1.444
 1747SOL     OW 5692   1.487   3.645   0.983
 1747SOL    HW1 5693   1.509   3.704   0.912
 1747SOL    HW2 5694   1.572   3.618   1.019
 1748SOL     OW 5695   0.716   2.422   1.702
 1748SOL    HW1 5696   0.762   2.482   1.760
 1748SOL    HW2 5697   0.738   2.335   1.735
 1749SOL     OW 5698   1.474   3.057   1.628
 1749SOL    HW1 5699   1.462   3.072   1.722
 1749SOL    HW2 5700   1.566   3.076   1.613
 1750SOL     OW 5701   0.377   3.610   1.560
 1750SOL    HW1 5702   0.289   3.646   1.548
 1750SOL    HW2 5703   0.364   3.526   1.604
 1751SOL     OW 5704   1.665   2.742   1.253
 1751SOL    HW1 5705   1.659   2.658   1.209
 1751SOL    HW2 5706   1.654   2.807   1.183
 1752SOL     OW 5707   1.218   2.182   0.456
 1752SOL    HW1 5708   1.282   2.111   0.450
 1752SOL    HW2 5709   1.245   2.232   0.533
 1753SOL     OW 5710   0.586   2.597   0.676
 1753SOL    HW1 5711   0.626   2.682   0.661
 1753SOL    HW2 5712   0.522   2.587   0.605
 1754SOL     OW 5713   1.752   2.243   1.659
 1754SOL    HW1 5714   1.745   2.250   1.564
 1754SOL    HW2 5715   1.682   2.182   1.684
 1755SOL     OW 5716   1.750   2.800   1.507
 1755SOL    HW1 5717   1.739   2.895   1.519
 1755SOL    HW2 5718   1.731   2.786   1.414
 1756SOL     OW 5719   0.907   3.262   0.073
 1756SOL    HW1 5720   0.846   3.240   0.144
 1756SOL    HW2 5721   0.857   3.251  13.893
 1757SOL     OW 5722   0.658   3.648   0.930
 1757SOL    HW1 5723   0.638   3.740   0.913
 1757SOL    HW2 5724   0.754   3.644   0.929
 1758SOL     OW 5725   0.869   2.831   0.853
 1758SOL    HW1 5726   0.920   2.759   0.891
 1758SOL    HW2 5727   0.832   2.876   0.929
 1759SOL     OW 5728   1.097   2.875   0.111
 1759SOL    HW1 5729   1.089   2.921   0.027
 1759SOL    HW2 5730   1.171   2.815   0.098
 1760SOL     OW 5731   1.847   3.410   0.840
 1760SOL    HW1 5732   1.768   3.402   0.787
 1760SOL    HW2 5733   1.832   3.352   0.915
 1761SOL     OW 5734   0.230   3.166   1.857
 1761SOL    HW1 5735   0.153   3.117   1.830
 1761SOL    HW2 5736   0.218   3.179   1.951
 1762SOL     OW 5737   0.110   3.147   0.733
 1762SOL    HW1 5738   0.132   3.100   0.814
 1762SOL    HW2 5739   0.102   3.079   0.667
 1763SOL     OW 5740   0.685   3.269   1.632
 1763SOL    HW1 5741   0.605   3.227   1.663
 1763SOL    HW2 5742   0.682   3.357   1.669
 1764SOL     OW 5743   0.440   2.297   0.540
 1764SOL    HW1 5744   0.470   2.225   0.485
 1764SOL    HW2 5745   0.384   2.256   0.606
 1765SOL     OW 5746   1.699   3.345   1.087
 1765SOL    HW1 5747   1.618   3.326   1.040
 1765SOL    HW2 5748   1.704   3.277   1.155
 1766SOL     OW 5749   0.337   2.422   1.293
 1766SOL    HW1 5750   0.390   2.363   1.348
 1766SOL    HW2 5751   0.351   2.389   1.203
 1767SOL     OW 5752   0.831   3.442   0.676
 1767SOL    HW1 5753   0.812   3.503   0.604
 1767SOL    HW2 5754   0.757   3.381   0.676
 1768SOL     OW 5755   1.436   2.094   1.119
 1768SOL    HW1 5756   1.442   2.005   1.153
 1768SOL    HW2 5757   1.382   2.140   1.184
 1769SOL     OW 5758   1.010   1.878   1.136
 1769SOL    HW1 5759   0.956   1.811   1.094
 1769SOL    HW2 5760   1.098   1.840   1.137
 1770SOL     OW 5761   0.782   3.186   0.321
 1770SOL    HW1 5762   0.752   3.096   0.338
 1770SOL    HW2 5763   0.862   3.194   0.373
 1771SOL     OW 5764   0.621   3.415   1.287
 1771SOL    HW1 5765   0.621   3.497   1.337
 1771SOL    HW2 5766   0.709   3.410   1.250
 1772SOL     OW 5767   1.349   1.920   0.167
 1772SOL    HW1 5768   1.382   1.865   0.096
 1772SOL    HW2 5769   1.265   1.881   0.190
 1773SOL     OW 5770   1.299   2.325   0.679
 1773SOL    HW1 5771   1.247   2.405   0.682
 1773SOL    HW2 5772   1.292   2.288   0.767
 1774SOL     OW 5773   1.567   2.048   0.873
 1774SOL    HW1 5774   1.535   2.079   0.958
 1774SOL    HW2 5775   1.585   2.127   0.823
 1775SOL     OW 5776   0.044   2.889   0.257
 1775SOL    HW1 5777   0.137   2.870   0.252
 1775SOL    HW2 5778   0.007   2.815   0.306
 1776SOL     OW 5779   0.895   3.523   0.344
 1776SOL    HW1 5780   0.819   3.494   0.294
 1776SOL    HW2 5781   0.863   3.598   0.394
 1777SOL     OW 5782   0.230   2.489   1.979
 1777SOL    HW1 5783   0.137   2.496   2.001
 1777SOL    HW2 5784   0.232   2.456   1.890
 1778SOL     OW 5785   0.230   2.135   2.848
 1778SOL    HW1 5786   0.251   2.099   2.935
 1778SOL    HW2 5787   0.134   2.128   2.842
 1779SOL     OW 5788   0.005   2.219   2.492
 1779SOL    HW1 5789   3.915   2.237   2.520
 1779SOL    HW2 5790   3.997   2.190   2.401
 1780SOL     OW 5791   0.582   3.155   3.059
 1780SOL    HW1 5792   0.496   3.157   3.016
 1780SOL    HW2 5793   0.596   3.244   3.090
 1781SOL     OW 5794   1.568   3.373   2.571
 1781SOL    HW1 5795   1.525   3.350   2.654
 1781SOL    HW2 5796   1.497   3.376   2.508
 1782SOL     OW 5797   1.133   2.560   2.558
 1782SOL    HW1 5798   1.181   2.642   2.545
 1782SOL    HW2 5799   1.086   2.572   2.640
 1783SOL     OW 5800   1.747   2.478   2.095
 1783SOL    HW1 5801   1.728   2.477   2.002
 1783SOL    HW2 5802   1.759   2.386   2.119
 1784SOL     OW 5803   0.748   2.998   2.907
 1784SOL    HW1 5804   0.687   3.036   2.971
 1784SOL    HW2 5805   0.786   3.074   2.863
 1785SOL     OW 5806   0.874   2.625   3.686
 1785SOL    HW1 5807   0.866   2.696   3.750
 1785SOL    HW2 5808   0.896   2.670   3.604
 1786SOL     OW 5809   0.685   2.861   2.507
 1786SOL    HW1 5810   0.752   2.852   2.575
 1786SOL    HW2 5811   0.616   2.914   2.547
 1787SOL     OW 5812   0.714   3.011   3.682
 1787SOL    HW1 5813   0.762   3.088   3.712
 1787SOL    HW2 5814   0.634   3.046   3.643
 1788SOL     OW 5815   0.351   3.262   2.940
 1788SOL    HW1 5816   0.269   3.244   2.892
 1788SOL    HW2 5817   0.401   3.319   2.883
 1789SOL     OW 5818   1.459   3.364   3.222
 1789SOL    HW1 5819   1.514   3.442   3.232
 1789SOL    HW2 5820   1.391   3.374   3.288
 1790SOL     OW 5821   0.450   2.257   3.345
 1790SOL    HW1 5822   0.526   2.199   3.350
 1790SOL    HW2 5823   0.375   2.200   3.361
 1791SOL     OW 5824   1.605   2.297   2.595
 1791SOL    HW1 5825   1.525   2.319   2.547
 1791SOL    HW2 5826   1.620   2.373   2.652
 1792SOL     OW 5827   0.221   3.572   2.327
 1792SOL    HW1 5828   0.218   3.658   2.371
 1792SOL    HW2 5829   0.298   3.577   2.270
 1793SOL     OW 5830   1.138   3.204   3.556
 1793SOL    HW1 5831   1.179   3.197   3.643
 1793SOL    HW2 5832   1.085   3.124   3.548
 1794SOL     OW 5833   0.254   3.307   2.401
 1794SOL    HW1 5834   0.225   3.397   2.387
 1794SOL    HW2 5835   0.185   3.267   2.454
 1795SOL     OW 5836   0.249   2.927   2.745
 1795SOL    HW1 5837   0.269   2.842   2.784
 1795SOL    HW2 5838   0.196   2.971   2.811
 1796SOL     OW 5839   0.608   3.648   3.287
 1796SOL    HW1 5840   0.526   3.634   3.335
 1796SOL    HW2 5841   0.636   3.737   3.312
 1797SOL     OW 5842   0.574   2.850   2.002
 1797SOL    HW1 5843   0.624   2.893   1.933
 1797SOL    HW2 5844   0.614   2.879   2.084
 1798SOL     OW 5845   1.597   1.996   3.325
 1798SOL    HW1 5846   1.595   2.083   3.285
 1798SOL    HW2 5847   1.584   2.012   3.419
 1799SOL     OW 5848   0.144   2.520   2.435
 1799SOL    HW1 5849   0.087   2.443   2.433
 1799SOL    HW2 5850   0.109   2.574   2.506
 1800SOL     OW 5851   1.844   3.604   2.199
 1800SOL    HW1 5852   1.914   3.581   2.260
 1800SOL    HW2 5853   1.861   3.695   2.176
 1801SOL     OW 5854   0.040   3.450   2.001
 1801SOL    HW1 5855   0.037   3.359   2.030
 1801SOL    HW2 5856   3.953   3.485   2.022
 1802SOL     OW 5857   1.690   2.781   2.506
 1802SOL    HW1 5858   1.769   2.734   2.480
 1802SOL    HW2 5859   1.665   2.832   2.429
 1803SOL     OW 5860   1.649   2.966   2.291
 1803SOL    HW1 5861   1.735   2.966   2.250
 1803SOL    HW2 5862   1.656   3.029   2.363
 1804SOL     OW 5863   0.144   2.614   3.452
 1804SOL    HW1 5864   0.239   2.611   3.446
 1804SOL    HW2 5865   0.125   2.701   3.488
 1805SOL     OW 5866   0.618   3.250   2.596
 1805SOL    HW1 5867   0.570   3.167   2.605
 1805SOL    HW2 5868   0.600   3.278   2.506
 1806SOL     OW 5869   1.285   3.097   3.283
 1806SOL    HW1 5870   1.316   3.029   3.223
 1806SOL    HW2 5871   1.345   3.093   3.357
 1807SOL     OW 5872   0.824   1.864   2.377
 1807SOL    HW1 5873   0.863   1.948   2.353
 1807SOL    HW2 5874   0.730   1.882   2.380
 1808SOL     OW 5875   0.183   2.810   3.144
 1808SOL    HW1 5876   0.271   2.775   3.132
 1808SOL    HW2 5877   0.133   2.775   3.070
 1809SOL     OW 5878   1.531   2.861   2.062
 1809SOL    HW1 5879   1.462   2.803   2.094
 1809SOL    HW2 5880   1.574   2.894   2.141
 1810SOL     OW 5881   1.224   3.668   3.491
 1810SOL    HW1 5882   1.196   3.729   3.423
 1810SOL    HW2 5883   1.223   3.583   3.448
 1811SOL     OW 5884   0.344   2.109   3.682
 1811SOL    HW1 5885   0.378   2.198   3.689
 1811SOL    HW2 5886   0.252   2.116   3.706
 1812SOL     OW 5887   1.466   3.281   2.809
 1812SOL    HW1 5888   1.400   3.297   2.876
 1812SOL    HW2 5889   1.453   3.190   2.784
 1813SOL     OW 5890   1.652   3.604   2.443
 1813SOL    HW1 5891   1.638   3.572   2.354
 1813SOL    HW2 5892   1.631   3.530   2.499
 1814SOL     OW 5893   0.596   2.575   2.130
 1814SOL    HW1 5894   0.601   2.660   2.086
 1814SOL    HW2 5895   0.533   2.588   2.201
 1815SOL     OW 5896   1.280   2.229   2.798
 1815SOL    HW1 5897   1.192   2.192   2.808
 1815SOL    HW2 5898   1.335   2.172   2.852
 1816SOL     OW 5899   1.575   3.539   2.171
 1816SOL    HW1 5900   1.669   3.559   2.165
 1816SOL    HW2 5901   1.549   3.520   2.081
 1817SOL     OW 5902   0.791   2.480   3.311
 1817SOL    HW1 5903   0.765   2.453   3.399
 1817SOL    HW2 5904   0.756   2.411   3.254
 1818SOL     OW 5905   1.392   2.335   3.538
 1818SOL    HW1 5906   1.395   2.382   3.622
 1818SOL    HW2 5907   1.454   2.262   3.550
 1819SOL     OW 5908   0.950   2.747   3.448
 1819SOL    HW1 5909   1.005   2.679   3.409
 1819SOL    HW2 5910   0.901   2.783   3.374
 1820SOL     OW 5911   0.994   2.271   3.096
 1820SOL    HW1 5912   0.905   2.289   3.126
 1820SOL    HW2 5913   0.983   2.229   3.010
 1821SOL     OW 5914   1.054   2.561   2.286
 1821SOL    HW1 5915   1.072   2.554   2.380
 1821SOL    HW2 5916   0.971   2.514   2.275
 1822SOL     OW 5917   0.083   2.694   2.651
 1822SOL    HW1 5918   0.154   2.662   2.706
 1822SOL    HW2 5919   0.105   2.786   2.634
 1823SOL     OW 5920   0.127   3.720   3.444
 1823SOL    HW1 5921   0.136   3.688   3.534
 1823SOL    HW2 5922   0.035   3.707   3.422
 1824SOL     OW 5923   0.899   2.213   2.056
 1824SOL    HW1 5924   0.939   2.277   1.997
 1824SOL    HW2 5925   0.914   2.128   2.013
 1825SOL     OW 5926   1.664   2.444   3.699
 1825SOL    HW1 5927   1.644   2.515   3.639
 1825SOL    HW2 5928   1.714   2.381   3.647
 1826SOL     OW 5929   1.381   3.004   2.402
 1826SOL    HW1 5930   1.460   2.992   2.349
 1826SOL    HW2 5931   1.328   3.066   2.351
 1827SOL     OW 5932   0.547   2.039   2.758
 1827SOL    HW1 5933   0.554   2.072   2.848
 1827SOL    HW2 5934   0.546   2.118   2.704
 1828SOL     OW 5935   1.000   3.307   2.330
 1828SOL    HW1 5936   0.967   3.382   2.281
 1828SOL    HW2 5937   0.978   3.326   2.422
 1829SOL     OW 5938   0.359   3.674   2.728
 1829SOL    HW1 5939   0.441   3.625   2.741
 1829SOL    HW2 5940   0.385   3.766   2.736
 1830SOL     OW 5941   1.801   2.913   2.733
 1830SOL    HW1 5942   1.749   2.893   2.655
 1830SOL    HW2 5943   1.736   2.921   2.804
 1831SOL     OW 5944   1.227   3.400   3.373
 1831SOL    HW1 5945   1.215   3.328   3.435
 1831SOL    HW2 5946   1.157   3.389   3.309
 1832SOL     OW 5947   0.311   2.814   2.105
 1832SOL    HW1 5948   0.394   2.836   2.062
 1832SOL    HW2 5949   0.299   2.721   2.086
 1833SOL     OW 5950   1.481   2.613   2.585
 1833SOL    HW1 5951   1.478   2.570   2.671
 1833SOL    HW2 5952   1.561   2.666   2.587
 1834SOL     OW 5953   0.471   3.123   3.599
 1834SOL    HW1 5954   0.445   3.131   3.507
 1834SOL    HW2 5955   0.388   3.125   3.647
 1835SOL     OW 5956   1.114   3.644   2.081
 1835SOL    HW1 5957   1.048   3.599   2.134
 1835SOL    HW2 5958   1.145   3.577   2.020
 1836SOL     OW 5959   0.204   2.130   3.370
 1836SOL    HW1 5960   0.114   2.164   3.367
 1836SOL    HW2 5961   0.195   2.041   3.406
 1837SOL     OW 5962   1.627   3.244   1.954
 1837SOL    HW1 5963   1.587   3.329   1.936
 1837SOL    HW2 5964   1.559   3.180   1.932
 1838SOL     OW 5965   0.466   3.604   2.183
 1838SOL    HW1 5966   0.506   3.664   2.245
 1838SOL    HW2 5967   0.539   3.574   2.129
 1839SOL     OW 5968   1.396   1.964   2.298
 1839SOL    HW1 5969   1.381   1.945   2.206
 1839SOL    HW2 5970   1.488   1.944   2.313
 1840SOL     OW 5971   0.257   3.657   3.085
 1840SOL    HW1 5972   0.297   3.587   3.137
 1840SOL    HW2 5973   0.254   3.622   2.996
 1841SOL     OW 5974   0.938   3.565   2.760
 1841SOL    HW1 5975   1.016   3.514   2.783
 1841SOL    HW2 5976   0.896   3.514   2.690
 1842SOL     OW 5977   0.401   2.554   2.332
 1842SOL    HW1 5978   0.424   2.462   2.348
 1842SOL    HW2 5979   0.309   2.560   2.359
 1843SOL     OW 5980   1.532   2.087   3.587
 1843SOL    HW1 5981   1.545   2.106   3.680
 1843SOL    HW2 5982   1.460   2.023   3.585
 1844SOL     OW 5983   0.649   1.977   1.956
 1844SOL    HW1 5984   0.705   1.903   1.979
 1844SOL    HW2 5985   0.597   1.946   1.882
 1845SOL     OW 5986   0.765   2.141   3.617
 1845SOL    HW1 5987   0.846   2.090   3.613
 1845SOL    HW2 5988   0.719   2.108   3.695
 1846SOL     OW 5989   0.876   3.383   3.056
 1846SOL    HW1 5990   0.858   3.345   2.970
 1846SOL    HW2 5991   0.945   3.328   3.093
 1847SOL     OW 5992   1.339   2.451   3.294
 1847SOL    HW1 5993   1.369   2.420   3.380
 1847SOL    HW2 5994   1.376   2.539   3.287
 1848SOL     OW 5995   0.819   3.251   2.807
 1848SOL    HW1 5996   0.904   3.240   2.765
 1848SOL    HW2 5997   0.757   3.255   2.734
 1849SOL     OW 5998   0.929   2.371   2.762
 1849SOL    HW1 5999   0.904   2.363   2.670
 1849SOL    HW2 6000   0.960   2.284   2.787
 1850SOL     OW 6001   0.559   1.924   2.354
 1850SOL    HW1 6002   0.478   1.929   2.404
 1850SOL    HW2 6003   0.562   2.005   2.304
 1851SOL     OW 6004   1.428   3.063   1.901
 1851SOL    HW1 6005   1.458   2.988   1.952
 1851SOL    HW2 6006   1.342   3.084   1.938
 1852SOL     OW 6007   0.309   1.913   2.031
 1852SOL    HW1 6008   0.371   1.952   1.969
 1852SOL    HW2 6009   0.361   1.848   2.079
 1853SOL     OW 6010   0.942   2.110   2.318
 1853SOL    HW1 6011   0.915   2.150   2.235
 1853SOL    HW2 6012   1.036   2.128   2.323
 1854SOL     OW 6013   1.081   2.546   3.319
 1854SOL    HW1 6014   1.015   2.476   3.323
 1854SOL    HW2 6015   1.164   2.500   3.313
 1855SOL     OW 6016   1.219   3.434   2.656
 1855SOL    HW1 6017   1.234   3.500   2.589
 1855SOL    HW2 6018   1.289   3.449   2.720
 1856SOL     OW 6019   0.467   3.014   2.594
 1856SOL    HW1 6020   0.397   2.989   2.654
 1856SOL    HW2 6021   0.430   2.998   2.507
 1857SOL     OW 6022   1.264   3.654   2.472
 1857SOL    HW1 6023   1.313   3.719   2.422
 1857SOL    HW2 6024   1.190   3.703   2.508
 1858SOL     OW 6025   1.024   2.397   1.888
 1858SOL    HW1 6026   0.981   2.480   1.869
 1858SOL    HW2 6027   1.091   2.419   1.953
 1859SOL     OW 6028   0.084   2.436   3.251
 1859SOL    HW1 6029   0.174   2.423   3.221
 1859SOL    HW2 6030   0.091   2.505   3.317
 1860SOL     OW 6031   0.567   2.089   3.030
 1860SOL    HW1 6032   0.608   2.016   3.075
 1860SOL    HW2 6033   0.475   2.085   3.058
 1861SOL     OW 6034   0.866   2.319   2.501
 1861SOL    HW1 6035   0.820   2.374   2.438
 1861SOL    HW2 6036   0.888   2.240   2.452
 1862SOL     OW 6037   1.018   1.916   2.610
 1862SOL    HW1 6038   0.959   1.911   2.535
 1862SOL    HW2 6039   0.993   1.842   2.665
 1863SOL     OW 6040   1.439   3.022   2.718
 1863SOL    HW1 6041   1.368   2.958   2.719
 1863SOL    HW2 6042   1.464   3.030   2.626
 1864SOL     OW 6043   1.464   2.471   2.830
 1864SOL    HW1 6044   1.408   2.394   2.833
 1864SOL    HW2 6045   1.521   2.462   2.906
 1865SOL     OW 6046   1.841   2.679   2.250
 1865SOL    HW1 6047   1.902   2.628   2.303
 1865SOL    HW2 6048   1.809   2.617   2.184
 1866SOL     OW 6049   0.488   3.284   2.019
 1866SOL    HW1 6050   0.411   3.254   2.069
 1866SOL    HW2 6051   0.474   3.249   1.931
 1867SOL     OW 6052   1.676   3.126   2.504
 1867SOL    HW1 6053   1.771   3.126   2.519
 1867SOL    HW2 6054   1.649   3.215   2.526
 1868SOL     OW 6055   1.389   2.440   1.928
 1868SOL    HW1 6056   1.339   2.413   2.005
 1868SOL    HW2 6057   1.480   2.423   1.951
 1869SOL     OW 6058   0.575   2.129   2.176
 1869SOL    HW1 6059   0.609   2.083   2.099
 1869SOL    HW2 6060   0.543   2.212   2.142
 1870SOL     OW 6061   1.749   3.105   3.425
 1870SOL    HW1 6062   1.836   3.066   3.421
 1870SOL    HW2 6063   1.764   3.195   3.453
 1871SOL     OW 6064   1.054   3.214   3.193
 1871SOL    HW1 6065   0.979   3.183   3.243
 1871SOL    HW2 6066   1.130   3.173   3.235
 1872SOL     OW 6067   1.610   3.490   3.520
 1872SOL    HW1 6068   1.601   3.523   3.431
 1872SOL    HW2 6069   1.692   3.441   3.519
 1873SOL     OW 6070   1.135   3.072   2.964
 1873SOL    HW1 6071   1.075   3.109   3.028
 1873SOL    HW2 6072   1.105   3.106   2.880
 1874SOL     OW 6073   1.623   2.958   2.937
 1874SOL    HW1 6074   1.617   3.021   3.009
 1874SOL    HW2 6075   1.547   2.977   2.882
 1875SOL     OW 6076   0.918   1.956   3.254
 1875SOL    HW1 6077   0.941   1.937   3.163
 1875SOL    HW2 6078   0.997   1.995   3.291
 1876SOL     OW 6079   0.984   2.977   3.584
 1876SOL    HW1 6080   0.893   2.994   3.609
 1876SOL    HW2 6081   0.981   2.898   3.530
 1877SOL     OW 6082   0.708   2.923   2.233
 1877SOL    HW1 6083   0.694   2.904   2.326
 1877SOL    HW2 6084   0.784   2.870   2.209
 1878SOL     OW 6085   0.423   2.681   3.115
 1878SOL    HW1 6086   0.491   2.689   3.182
 1878SOL    HW2 6087   0.390   2.591   3.126
 1879SOL     OW 6088   1.264   2.235   3.143
 1879SOL    HW1 6089   1.296   2.314   3.188
 1879SOL    HW2 6090   1.173   2.256   3.120
 1880SOL     OW 6091   0.065   3.441   3.206
 1880SOL    HW1 6092   0.070   3.479   3.118
 1880SOL    HW2 6093   0.156   3.434   3.234
 1881SOL     OW 6094   0.364   2.965   2.342
 1881SOL    HW1 6095   0.362   3.046   2.292
 1881SOL    HW2 6096   0.364   2.896   2.276
 1882SOL     OW 6097   0.547   2.395   2.723
 1882SOL    HW1 6098   0.561   2.452   2.648
 1882SOL    HW2 6099   0.615   2.420   2.786
 1883SOL     OW 6100   1.247   3.212   2.252
 1883SOL    HW1 6101   1.303   3.283   2.284
 1883SOL    HW2 6102   1.160   3.233   2.286
 1884SOL     OW 6103   1.289   3.322   3.011
 1884SOL    HW1 6104   1.344   3.327   3.089
 1884SOL    HW2 6105   1.233   3.246   3.026
 1885SOL     OW 6106   1.572   2.480   2.341
 1885SOL    HW1 6107   1.529   2.537   2.404
 1885SOL    HW2 6108   1.616   2.539   2.281
 1886SOL     OW 6109   0.345   3.391   3.178
 1886SOL    HW1 6110   0.335   3.340   3.098
 1886SOL    HW2 6111   0.439   3.405   3.186
 1887SOL     OW 6112   0.420   2.599   3.464
 1887SOL    HW1 6113   0.483   2.644   3.408
 1887SOL    HW2 6114   0.459   2.513   3.481
 1888SOL     OW 6115   1.605   2.651   3.539
 1888SOL    HW1 6116   1.520   2.694   3.534
 1888SOL    HW2 6117   1.658   2.694   3.473
 1889SOL     OW 6118   0.996   1.995   3.615
 1889SOL    HW1 6119   1.055   2.067   3.594
 1889SOL    HW2 6120   1.045   1.916   3.590
 1890SOL     OW 6121   0.496   1.895   3.610
 1890SOL    HW1 6122   0.451   1.844   3.543
 1890SOL    HW2 6123   0.443   1.974   3.619
 1891SOL     OW 6124   0.586   2.737   2.895
 1891SOL    HW1 6125   0.621   2.826   2.896
 1891SOL    HW2 6126   0.530   2.731   2.972
 1892SOL     OW 6127   1.348   2.720   2.884
 1892SOL    HW1 6128   1.262   2.706   2.844
 1892SOL    HW2 6129   1.394   2.637   2.874
 1893SOL     OW 6130   1.201   2.388   2.126
 1893SOL    HW1 6131   1.209   2.311   2.181
 1893SOL    HW2 6132   1.159   2.453   2.182
 1894SOL     OW 6133   0.309   2.057   3.109
 1894SOL    HW1 6134   0.263   2.092   3.184
 1894SOL    HW2 6135   0.287   1.964   3.109
 1895SOL     OW 6136   0.063   3.167   3.143
 1895SOL    HW1 6137   0.092   3.124   3.223
 1895SOL    HW2 6138   0.054   3.259   3.166
 1896SOL     OW 6139   0.722   2.492   2.915
 1896SOL    HW1 6140   0.798   2.478   2.859
 1896SOL    HW2 6141   0.693   2.581   2.896
 1897SOL     OW 6142   1.738   2.822   3.718
 1897SOL    HW1 6143   1.694   2.755   3.665
 1897SOL    HW2 6144   1.678   2.838   3.791
 1898SOL     OW 6145   0.317   1.923   2.482
 1898SOL    HW1 6146   0.293   2.013   2.502
 1898SOL    HW2 6147   0.324   1.880   2.567
 1899SOL     OW 6148   1.609   2.232   2.237
 1899SOL    HW1 6149   1.610   2.183   2.320
 1899SOL    HW2 6150   1.591   2.322   2.263
 1900SOL     OW 6151   1.029   2.620   2.820
 1900SOL    HW1 6152   1.020   2.637   2.914
 1900SOL    HW2 6153   1.003   2.529   2.810
 1901SOL     OW 6154   0.986   3.430   3.585
 1901SOL    HW1 6155   0.966   3.470   3.500
 1901SOL    HW2 6156   1.028   3.347   3.562
 1902SOL     OW 6157   1.852   3.363   3.465
 1902SOL    HW1 6158   1.873   3.391   3.376
 1902SOL    HW2 6159   1.932   3.378   3.515
 1903SOL     OW 6160   0.355   2.785   3.661
 1903SOL    HW1 6161   0.433   2.806   3.712
 1903SOL    HW2 6162   0.384   2.717   3.600
 1904SOL     OW 6163   1.529   2.129   1.991
 1904SOL    HW1 6164   1.462   2.067   2.019
 1904SOL    HW2 6165   1.561   2.168   2.072
 1905SOL     OW 6166   1.286   2.690   1.890
 1905SOL    HW1 6167   1.326   2.603   1.894
 1905SOL    HW2 6168   1.318   2.727   1.808
 1906SOL     OW 6169   1.069   3.201   2.719
 1906SOL    HW1 6170   1.074   3.129   2.656
 1906SOL    HW2 6171   1.127   3.268   2.683
 1907SOL     OW 6172   0.313   2.662   2.812
 1907SOL    HW1 6173   0.407   2.679   2.806
 1907SOL    HW2 6174   0.307   2.572   2.842
 1908SOL     OW 6175   0.327   2.384   2.877
 1908SOL    HW1 6176   0.293   2.295   2.862
 1908SOL    HW2 6177   0.404   2.390   2.820
 1909SOL     OW 6178   1.134   2.234   3.548
 1909SOL    HW1 6179   1.087   2.289   3.611
 1909SOL    HW2 6180   1.222   2.273   3.544
 1910SOL     OW 6181   1.160   2.060   3.334
 1910SOL    HW1 6182   1.149   2.123   3.406
 1910SOL    HW2 6183   1.202   2.110   3.265
 1911SOL     OW 6184   0.000   3.177   2.044
 1911SOL    HW1 6185   3.906   3.193   2.048
 1911SOL    HW2 6186   0.009   3.083   2.062
 1912SOL     OW 6187   0.076   3.662   2.757
 1912SOL    HW1 6188   0.095   3.569   2.751
 1912SOL    HW2 6189   0.162   3.704   2.758
 1913SOL     OW 6190   0.506   3.423   2.781
 1913SOL    HW1 6191   0.571   3.491   2.798
 1913SOL    HW2 6192   0.548   3.365   2.716
 1914SOL     OW 6193   0.974   2.650   3.085
 1914SOL    HW1 6194   1.033   2.630   3.158
 1914SOL    HW2 6195   0.890   2.611   3.112
 1915SOL     OW 6196   0.038   2.425   2.971
 1915SOL    HW1 6197   0.121   2.402   2.928
 1915SOL    HW2 6198   0.057   2.421   3.064
 1916SOL     OW 6199   0.206   2.373   3.590
 1916SOL    HW1 6200   0.243   2.323   3.517
 1916SOL    HW2 6201   0.164   2.448   3.548
 1917SOL     OW 6202   1.376   2.799   3.517
 1917SOL    HW1 6203   1.398   2.892   3.513
 1917SOL    HW2 6204   1.371   2.771   3.425
 1918SOL     OW 6205   0.819   2.431   2.227
 1918SOL    HW1 6206   0.825   2.356   2.168
 1918SOL    HW2 6207   0.745   2.482   2.195
 1919SOL     OW 6208   1.641   2.465   3.040
 1919SOL    HW1 6209   1.631   2.412   3.119
 1919SOL    HW2 6210   1.728   2.442   3.007
 1920SOL     OW 6211   0.301   3.406   3.584
 1920SOL    HW1 6212   0.254   3.475   3.631
 1920SOL    HW2 6213   0.273   3.324   3.626
 1921SOL     OW 6214   0.713   2.309   3.116
 1921SOL    HW1 6215   0.658   2.236   3.089
 1921SOL    HW2 6216   0.705   2.373   3.045
 1922SOL     OW 6217   0.925   3.532   3.333
 1922SOL    HW1 6218   0.898   3.492   3.250
 1922SOL    HW2 6219   0.917   3.626   3.318
 1923SOL     OW 6220   0.451   2.350   2.059
 1923SOL    HW1 6221   0.516   2.417   2.077
 1923SOL    HW2 6222   0.372   2.399   2.036
 1924SOL     OW 6223   0.154   2.996   3.339
 1924SOL    HW1 6224   0.153   2.946   3.421
 1924SOL    HW2 6225   0.169   2.931   3.271
 1925SOL     OW 6226   1.321   2.905   3.081
 1925SOL    HW1 6227   1.342   2.842   3.012
 1925SOL    HW2 6228   1.255   2.962   3.042
 1926SOL     OW 6229   1.315   2.719   2.166
 1926SOL    HW1 6230   1.241   2.686   2.217
 1926SOL    HW2 6231   1.289   2.705   2.075
 1927SOL     OW 6232   1.776   3.598   3.016
 1927SOL    HW1 6233   1.838   3.626   2.948
 1927SOL    HW2 6234   1.752   3.508   2.991
 1928SOL     OW 6235   1.245   3.594   2.967
 1928SOL    HW1 6236   1.328   3.616   2.926
 1928SOL    HW2 6237   1.253   3.501   2.988
 1929SOL     OW 6238   0.077   3.075   2.890
 1929SOL    HW1 6239   0.084   3.103   2.982
 1929SOL    HW2 6240   3.985   3.088   2.868
 1930SOL     OW 6241   0.680   3.529   3.601
 1930SOL    HW1 6242   0.621   3.604   3.604
 1930SOL    HW2 6243   0.741   3.550   3.530
 1931SOL     OW 6244   1.392   3.430   2.352
 1931SOL    HW1 6245   1.450   3.465   2.284
 1931SOL    HW2 6246   1.342   3.507   2.382
 1932SOL     OW 6247   0.172   3.619   3.696
 1932SOL    HW1 6248   0.118   3.566   3.754
 1932SOL    HW2 6249   0.218   3.680   3.754
 1933SOL     OW 6250   1.277   2.791   2.533
 1933SOL    HW1 6251   1.351   2.730   2.544
 1933SOL    HW2 6252   1.312   2.862   2.479
 1934SOL     OW 6253   0.805   3.137   3.287
 1934SOL    HW1 6254   0.777   3.179   3.368
 1934SOL    HW2 6255   0.733   3.153   3.226
 1935SOL     OW 6256   0.674   3.481   2.021
 1935SOL    HW1 6257   0.684   3.499   1.928
 1935SOL    HW2 6258   0.615   3.407   2.026
 1936SOL     OW 6259   1.620   3.589   3.252
 1936SOL    HW1 6260   1.673   3.593   3.172
 1936SOL    HW2 6261   1.605   3.680   3.276
 1937SOL     OW 6262   0.264   2.173   2.577
 1937SOL    HW1 6263   0.177   2.204   2.552
 1937SOL    HW2 6264   0.260   2.164   2.672
 1938SOL     OW 6265   1.208   3.463   1.899
 1938SOL    HW1 6266   1.198   3.371   1.923
 1938SOL    HW2 6267   1.147   3.476   1.827
 1939SOL     OW 6268   0.823   2.868   3.237
 1939SOL    HW1 6269   0.867   2.862   3.152
 1939SOL    HW2 6270   0.820   2.962   3.256
 1940SOL     OW 6271   0.916   2.772   2.154
 1940SOL    HW1 6272   0.975   2.805   2.087
 1940SOL    HW2 6273   0.966   2.704   2.199
 1941SOL     OW 6274   1.488   3.494   1.906
 1941SOL    HW1 6275   1.395   3.481   1.889
 1941SOL    HW2 6276   1.527   3.499   1.819
 1942SOL     OW 6277   0.374   3.164   3.353
 1942SOL    HW1 6278   0.359   3.245   3.303
 1942SOL    HW2 6279   0.297   3.110   3.336
 1943SOL     OW 6280   1.608   3.146   3.141
 1943SOL    HW1 6281   1.668   3.131   3.215
 1943SOL    HW2 6282   1.548   3.213   3.173
 1944SOL     OW 6283   1.061   2.972   2.572
 1944SOL    HW1 6284   0.988   2.922   2.609
 1944SOL    HW2 6285   1.125   2.906   2.546
 1945SOL     OW 6286   1.025   2.104   2.829
 1945SOL    HW1 6287   1.022   2.058   2.745
 1945SOL    HW2 6288   1.019   2.035   2.895
 1946SOL     OW 6289   0.607   3.353   2.342
 1946SOL    HW1 6290   0.655   3.302   2.276
 1946SOL    HW2 6291   0.533   3.390   2.295
 1947SOL     OW 6292   1.726   2.258   3.240
 1947SOL    HW1 6293   1.800   2.318   3.247
 1947SOL    HW2 6294   1.752   2.195   3.173
 1948SOL     OW 6295   0.254   3.202   2.154
 1948SOL    HW1 6296   0.160   3.207   2.137
 1948SOL    HW2 6297   0.265   3.241   2.240
 1949SOL     OW 6298   0.109   2.858   3.580
 1949SOL    HW1 6299   0.050   2.854   3.655
 1949SOL    HW2 6300   0.196   2.842   3.617
 1950SOL     OW 6301   0.677   2.058   3.362
 1950SOL    HW1 6302   0.761   2.036   3.322
 1950SOL    HW2 6303   0.700   2.091   3.449
 1951SOL     OW 6304   0.080   2.172   1.899
 1951SOL    HW1 6305   3.985   2.172   1.908
 1951SOL    HW2 6306   0.101   2.253   1.853
 1952SOL     OW 6307   1.426   2.720   3.259
 1952SOL    HW1 6308   1.376   2.781   3.204
 1952SOL    HW2 6309   1.515   2.722   3.223
 1953SOL     OW 6310   0.015   2.106   2.240
 1953SOL    HW1 6311   0.046   2.169   2.176
 1953SOL    HW2 6312   0.094   2.062   2.271
 1954SOL     OW 6313   1.177   3.196   1.979
 1954SOL    HW1 6314   1.086   3.168   1.980
 1954SOL    HW2 6315   1.203   3.196   2.072
 1955SOL     OW 6316   0.621   2.692   3.300
 1955SOL    HW1 6317   0.677   2.768   3.284
 1955SOL    HW2 6318   0.681   2.618   3.306
 1956SOL     OW 6319   1.487   3.644   2.844
 1956SOL    HW1 6320   1.509   3.706   2.775
 1956SOL    HW2 6321   1.572   3.619   2.882
 1957SOL     OW 6322   0.716   2.422   3.564
 1957SOL    HW1 6323   0.762   2.482   3.623
 1957SOL    HW2 6324   0.738   2.335   3.597
 1958SOL     OW 6325   1.474   3.057   3.490
 1958SOL    HW1 6326   1.462   3.072   3.584
 1958SOL    HW2 6327   1.566   3.076   3.475
 1959SOL     OW 6328   0.377   3.610   3.422
 1959SOL    HW1 6329   0.289   3.646   3.410
 1959SOL    HW2 6330   0.364   3.526   3.466
 1960SOL     OW 6331   1.665   2.742   3.115
 1960SOL    HW1 6332   1.659   2.657   3.071
 1960SOL    HW2 6333   1.654   2.806   3.044
 1961SOL     OW 6334   1.215   2.181   2.320
 1961SOL    HW1 6335   1.277   2.108   2.313
 1961SOL    HW2 6336   1.244   2.231   2.396
 1962SOL     OW 6337   0.587   2.598   2.537
 1962SOL    HW1 6338   0.627   2.684   2.522
 1962SOL    HW2 6339   0.523   2.588   2.466
 1963SOL     OW 6340   1.751   2.243   3.520
 1963SOL    HW1 6341   1.743   2.251   3.425
 1963SOL    HW2 6342   1.681   2.183   3.545
 1964SOL     OW 6343   1.751   2.801   3.368
 1964SOL    HW1 6344   1.739   2.895   3.381
 1964SOL    HW2 6345   1.732   2.786   3.276
 1965SOL     OW 6346   0.866   3.228   1.906
 1965SOL    HW1 6347   0.824   3.256   1.987
 1965SOL    HW2 6348   0.878   3.309   1.856
 1966SOL     OW 6349   0.658   3.648   2.792
 1966SOL    HW1 6350   0.638   3.740   2.775
 1966SOL    HW2 6351   0.753   3.644   2.792
 1967SOL     OW 6352   0.870   2.832   2.715
 1967SOL    HW1 6353   0.920   2.759   2.752
 1967SOL    HW2 6354   0.832   2.876   2.790
 1968SOL     OW 6355   1.075   2.850   1.950
 1968SOL    HW1 6356   1.055   2.902   1.873
 1968SOL    HW2 6357   1.150   2.796   1.925
 1969SOL     OW 6358   1.847   3.411   2.702
 1969SOL    HW1 6359   1.766   3.401   2.652
 1969SOL    HW2 6360   1.837   3.350   2.775
 1970SOL     OW 6361   0.230   3.166   3.719
 1970SOL    HW1 6362   0.153   3.116   3.692
 1970SOL    HW2 6363   0.218   3.179   3.813
 1971SOL     OW 6364   0.122   3.145   2.587
 1971SOL    HW1 6365   0.141   3.093   2.665
 1971SOL    HW2 6366   0.103   3.081   2.519
 1972SOL     OW 6367   0.685   3.269   3.494
 1972SOL    HW1 6368   0.605   3.227   3.525
 1972SOL    HW2 6369   0.682   3.357   3.531
 1973SOL     OW 6370   0.440   2.295   2.397
 1973SOL    HW1 6371   0.440   2.225   2.331
 1973SOL    HW2 6372   0.384   2.262   2.467
 1974SOL     OW 6373   1.699   3.345   2.950
 1974SOL    HW1 6374   1.618   3.326   2.903
 1974SOL    HW2 6375   1.704   3.278   3.018
 1975SOL     OW 6376   0.337   2.422   3.155
 1975SOL    HW1 6377   0.390   2.363   3.209
 1975SOL    HW2 6378   0.351   2.389   3.065
 1976SOL     OW 6379   0.830   3.441   2.538
 1976SOL    HW1 6380   0.809   3.499   2.464
 1976SOL    HW2 6381   0.757   3.380   2.542
 1977SOL     OW 6382   1.436   2.093   2.981
 1977SOL    HW1 6383   1.442   2.004   3.015
 1977SOL    HW2 6384   1.382   2.140   3.045
 1978SOL     OW 6385   1.010   1.878   2.998
 1978SOL    HW1 6386   0.956   1.811   2.955
 1978SOL    HW2 6387   1.098   1.839   2.999
 1979SOL     OW 6388   0.773   3.194   2.184
 1979SOL    HW1 6389   0.746   3.103   2.191
 1979SOL    HW2 6390   0.856   3.198   2.232
 1980SOL     OW 6391   0.621   3.415   3.149
 1980SOL    HW1 6392   0.621   3.498   3.198
 1980SOL    HW2 6393   0.709   3.410   3.111
 1981SOL     OW 6394   1.351   1.913   2.032
 1981SOL    HW1 6395   1.385   1.848   1.970
 1981SOL    HW2 6396   1.263   1.884   2.053
 1982SOL     OW 6397   1.298   2.325   2.541
 1982SOL    HW1 6398   1.246   2.405   2.544
 1982SOL    HW2 6399   1.292   2.288   2.629
 1983SOL     OW 6400   1.568   2.047   2.735
 1983SOL    HW1 6401   1.535   2.078   2.819
 1983SOL    HW2 6402   1.584   2.127   2.685
 1984SOL     OW 6403   0.047   2.908   2.104
 1984SOL    HW1 6404   0.142   2.894   2.096
 1984SOL    HW2 6405   0.012   2.822   2.126
 1985SOL     OW 6406   0.888   3.525   2.203
 1985SOL    HW1 6407   0.816   3.506   2.143
 1985SOL    HW2 6408   0.857   3.598   2.256
 1986SOL     OW 6409   0.230   2.489   3.841
 1986SOL    HW1 6410   0.137   2.497   3.863
 1986SOL    HW2 6411   0.232   2.456   3.752
 1987SOL     OW 6412   0.230   2.135   4.710
 1987SOL    HW1 6413   0.251   2.099   4.797
 1987SOL    HW2 6414   0.134   2.128   4.704
 1988SOL     OW 6415   0.005   2.219   4.354
 1988SOL    HW1 6416   3.915   2.237   4.382
 1988SOL    HW2 6417   3.997   2.191   4.263
 1989SOL     OW 6418   0.582   3.155   4.921
 1989SOL    HW1 6419   0.496   3.157   4.878
 1989SOL    HW2 6420   0.596   3.244   4.952
 1990SOL     OW 6421   1.568   3.373   4.433
 1990SOL    HW1 6422   1.525   3.350   4.516
 1990SOL    HW2 6423   1.497   3.376   4.370
 1991SOL     OW 6424   1.133   2.560   4.420
 1991SOL    HW1 6425   1.181   2.642   4.407
 1991SOL    HW2 6426   1.086   2.572   4.502
 1992SOL     OW 6427   1.749   2.477   3.957
 1992SOL    HW1 6428   1.729   2.476   3.864
 1992SOL    HW2 6429   1.758   2.385   3.981
 1993SOL     OW 6430   0.748   2.998   4.769
 1993SOL    HW1 6431   0.687   3.036   4.833
 1993SOL    HW2 6432   0.786   3.074   4.725
 1994SOL     OW 6433   0.874   2.626   5.548
 1994SOL    HW1 6434   0.867   2.696   5.613
 1994SOL    HW2 6435   0.896   2.670   5.466
 1995SOL     OW 6436   0.685   2.861   4.369
 1995SOL    HW1 6437   0.752   2.852   4.437
 1995SOL    HW2 6438   0.616   2.914   4.409
 1996SOL     OW 6439   0.714   3.011   5.544
 1996SOL    HW1 6440   0.762   3.088   5.574
 1996SOL    HW2 6441   0.634   3.046   5.505
 1997SOL     OW 6442   0.351   3.262   4.802
 1997SOL    HW1 6443   0.269   3.244   4.755
 1997SOL    HW2 6444   0.401   3.319   4.745
 1998SOL     OW 6445   1.459   3.364   5.084
 1998SOL    HW1 6446   1.513   3.442   5.094
 1998SOL    HW2 6447   1.391   3.374   5.150
 1999SOL     OW 6448   0.450   2.257   5.207
 1999SOL    HW1 6449   0.526   2.199   5.212
 1999SOL    HW2 6450   0.375   2.200   5.223
 2000SOL     OW 6451   1.604   2.298   4.458
 2000SOL    HW1 6452   1.524   2.320   4.410
 2000SOL    HW2 6453   1.618   2.373   4.516
 2001SOL     OW 6454   0.221   3.572   4.189
 2001SOL    HW1 6455   0.219   3.657   4.233
 2001SOL    HW2 6456   0.298   3.577   4.132
 2002SOL     OW 6457   1.138   3.204   5.418
 2002SOL    HW1 6458   1.178   3.197   5.505
 2002SOL    HW2 6459   1.086   3.124   5.410
 2003SOL     OW 6460   0.254   3.307   4.263
 2003SOL    HW1 6461   0.224   3.397   4.249
 2003SOL    HW2 6462   0.186   3.267   4.316
 2004SOL     OW 6463   0.249   2.927   4.607
 2004SOL    HW1 6464   0.269   2.842   4.646
 2004SOL    HW2 6465   0.196   2.971   4.673
 2005SOL     OW 6466   0.608   3.648   5.149
 2005SOL    HW1 6467   0.526   3.634   5.197
 2005SOL    HW2 6468   0.636   3.737   5.174
 2006SOL     OW 6469   0.574   2.850   3.864
 2006SOL    HW1 6470   0.624   2.893   3.795
 2006SOL    HW2 6471   0.614   2.879   3.946
 2007SOL     OW 6472   1.597   1.995   5.183
 2007SOL    HW1 6473   1.593   2.082   5.144
 2007SOL    HW2 6474   1.581   2.010   5.276
 2008SOL     OW 6475   0.144   2.520   4.297
 2008SOL    HW1 6476   0.087   2.443   4.295
 2008SOL    HW2 6477   0.109   2.574   4.368
 2009SOL     OW 6478   1.844   3.604   4.061
 2009SOL    HW1 6479   1.914   3.581   4.122
 2009SOL    HW2 6480   1.861   3.695   4.038
 2010SOL     OW 6481   0.040   3.450   3.863
 2010SOL    HW1 6482   0.037   3.359   3.892
 2010SOL    HW2 6483   3.953   3.485   3.884
 2011SOL     OW 6484   1.690   2.781   4.368
 2011SOL    HW1 6485   1.769   2.734   4.341
 2011SOL    HW2 6486   1.665   2.832   4.291
 2012SOL     OW 6487   1.649   2.966   4.153
 2012SOL    HW1 6488   1.735   2.966   4.112
 2012SOL    HW2 6489   1.656   3.029   4.225
 2013SOL     OW 6490   0.144   2.614   5.314
 2013SOL    HW1 6491   0.239   2.611   5.308
 2013SOL    HW2 6492   0.125   2.701   5.350
 2014SOL     OW 6493   0.618   3.250   4.458
 2014SOL    HW1 6494   0.570   3.167   4.467
 2014SOL    HW2 6495   0.600   3.278   4.368
 2015SOL     OW 6496   1.285   3.097   5.145
 2015SOL    HW1 6497   1.316   3.029   5.085
 2015SOL    HW2 6498   1.345   3.093   5.219
 2016SOL     OW 6499   0.824   1.864   4.239
 2016SOL    HW1 6500   0.863   1.948   4.214
 2016SOL    HW2 6501   0.730   1.882   4.242
 2017SOL     OW 6502   0.183   2.810   5.006
 2017SOL    HW1 6503   0.271   2.775   4.994
 2017SOL    HW2 6504   0.133   2.775   4.932
 2018SOL     OW 6505   1.531   2.861   3.924
 2018SOL    HW1 6506   1.462   2.803   3.956
 2018SOL    HW2 6507   1.574   2.894   4.003
 2019SOL     OW 6508   1.224   3.668   5.353
 2019SOL    HW1 6509   1.196   3.729   5.285
 2019SOL    HW2 6510   1.223   3.583   5.310
 2020SOL     OW 6511   0.344   2.109   5.544
 2020SOL    HW1 6512   0.378   2.198   5.552
 2020SOL    HW2 6513   0.252   2.116   5.568
 2021SOL     OW 6514   1.466   3.281   4.671
 2021SOL    HW1 6515   1.400   3.297   4.738
 2021SOL    HW2 6516   1.453   3.190   4.646
 2022SOL     OW 6517   1.652   3.604   4.305
 2022SOL    HW1 6518   1.638   3.572   4.216
 2022SOL    HW2 6519   1.631   3.530   4.361
 2023SOL     OW 6520   0.596   2.575   3.992
 2023SOL    HW1 6521   0.601   2.660   3.948
 2023SOL    HW2 6522   0.533   2.588   4.063
 2024SOL     OW 6523   1.280   2.229   4.660
 2024SOL    HW1 6524   1.192   2.192   4.670
 2024SOL    HW2 6525   1.335   2.172   4.714
 2025SOL     OW 6526   1.575   3.539   4.033
 2025SOL    HW1 6527   1.669   3.559   4.027
 2025SOL    HW2 6528   1.549   3.520   3.943
 2026SOL     OW 6529   0.790   2.480   5.173
 2026SOL    HW1 6530   0.765   2.454   5.261
 2026SOL    HW2 6531   0.756   2.411   5.116
 2027SOL     OW 6532   1.392   2.334   5.402
 2027SOL    HW1 6533   1.397   2.380   5.486
 2027SOL    HW2 6534   1.450   2.258   5.412
 2028SOL     OW 6535   0.950   2.747   5.310
 2028SOL    HW1 6536   1.005   2.678   5.271
 2028SOL    HW2 6537   0.902   2.783   5.236
 2029SOL     OW 6538   0.994   2.272   4.957
 2029SOL    HW1 6539   0.905   2.289   4.988
 2029SOL    HW2 6540   0.983   2.229   4.873
 2030SOL     OW 6541   1.054   2.561   4.149
 2030SOL    HW1 6542   1.072   2.554   4.242
 2030SOL    HW2 6543   0.971   2.515   4.137
 2031SOL     OW 6544   0.083   2.694   4.513
 2031SOL    HW1 6545   0.154   2.662   4.568
 2031SOL    HW2 6546   0.105   2.786   4.496
 2032SOL     OW 6547   0.127   3.720   5.306
 2032SOL    HW1 6548   0.136   3.688   5.396
 2032SOL    HW2 6549   0.035   3.707   5.284
 2033SOL     OW 6550   0.899   2.213   3.918
 2033SOL    HW1 6551   0.939   2.277   3.859
 2033SOL    HW2 6552   0.914   2.128   3.875
 2034SOL     OW 6553   1.675   2.449   5.563
 2034SOL    HW1 6554   1.649   2.518   5.502
 2034SOL    HW2 6555   1.716   2.383   5.507
 2035SOL     OW 6556   1.381   3.004   4.264
 2035SOL    HW1 6557   1.460   2.992   4.211
 2035SOL    HW2 6558   1.328   3.066   4.213
 2036SOL     OW 6559   0.547   2.039   4.620
 2036SOL    HW1 6560   0.554   2.072   4.710
 2036SOL    HW2 6561   0.546   2.118   4.566
 2037SOL     OW 6562   1.000   3.307   4.193
 2037SOL    HW1 6563   0.967   3.382   4.143
 2037SOL    HW2 6564   0.978   3.326   4.284
 2038SOL     OW 6565   0.359   3.674   4.590
 2038SOL    HW1 6566   0.441   3.625   4.603
 2038SOL    HW2 6567   0.385   3.766   4.598
 2039SOL     OW 6568   1.801   2.913   4.595
 2039SOL    HW1 6569   1.749   2.893   4.517
 2039SOL    HW2 6570   1.736   2.921   4.666
 2040SOL     OW 6571   1.227   3.400   5.235
 2040SOL    HW1 6572   1.215   3.328   5.297
 2040SOL    HW2 6573   1.157   3.389   5.171
 2041SOL     OW 6574   0.311   2.814   3.967
 2041SOL    HW1 6575   0.394   2.836   3.924
 2041SOL    HW2 6576   0.299   2.721   3.948
 2042SOL     OW 6577   1.481   2.613   4.447
 2042SOL    HW1 6578   1.478   2.570   4.533
 2042SOL    HW2 6579   1.561   2.666   4.449
 2043SOL     OW 6580   0.471   3.123   5.461
 2043SOL    HW1 6581   0.445   3.131   5.369
 2043SOL    HW2 6582   0.388   3.125   5.509
 2044SOL     OW 6583   1.114   3.644   3.943
 2044SOL    HW1 6584   1.048   3.599   3.996
 2044SOL    HW2 6585   1.145   3.577   3.882
 2045SOL     OW 6586   0.204   2.130   5.232
 2045SOL    HW1 6587   0.114   2.163   5.229
 2045SOL    HW2 6588   0.195   2.041   5.268
 2046SOL     OW 6589   1.627   3.244   3.816
 2046SOL    HW1 6590   1.587   3.329   3.798
 2046SOL    HW2 6591   1.559   3.180   3.794
 2047SOL     OW 6592   0.466   3.604   4.045
 2047SOL    HW1 6593   0.506   3.664   4.107
 2047SOL    HW2 6594   0.539   3.574   3.991
 2048SOL     OW 6595   1.397   1.965   4.160
 2048SOL    HW1 6596   1.381   1.945   4.068
 2048SOL    HW2 6597   1.488   1.942   4.175
 2049SOL     OW 6598   0.257   3.657   4.947
 2049SOL    HW1 6599   0.297   3.588   4.999
 2049SOL    HW2 6600   0.254   3.622   4.858
 2050SOL     OW 6601   0.938   3.565   4.622
 2050SOL    HW1 6602   1.016   3.514   4.645
 2050SOL    HW2 6603   0.896   3.514   4.552
 2051SOL     OW 6604   0.401   2.554   4.194
 2051SOL    HW1 6605   0.424   2.462   4.210
 2051SOL    HW2 6606   0.309   2.560   4.221
 2052SOL     OW 6607   1.526   2.080   5.440
 2052SOL    HW1 6608   1.540   2.101   5.532
 2052SOL    HW2 6609   1.455   2.015   5.440
 2053SOL     OW 6610   0.649   1.977   3.818
 2053SOL    HW1 6611   0.705   1.903   3.841
 2053SOL    HW2 6612   0.597   1.946   3.744
 2054SOL     OW 6613   0.764   2.141   5.479
 2054SOL    HW1 6614   0.845   2.090   5.475
 2054SOL    HW2 6615   0.720   2.109   5.558
 2055SOL     OW 6616   0.876   3.383   4.918
 2055SOL    HW1 6617   0.858   3.345   4.832
 2055SOL    HW2 6618   0.945   3.328   4.955
 2056SOL     OW 6619   1.339   2.451   5.157
 2056SOL    HW1 6620   1.370   2.420   5.242
 2056SOL    HW2 6621   1.376   2.539   5.150
 2057SOL     OW 6622   0.819   3.251   4.669
 2057SOL    HW1 6623   0.904   3.240   4.627
 2057SOL    HW2 6624   0.757   3.255   4.596
 2058SOL     OW 6625   0.929   2.371   4.624
 2058SOL    HW1 6626   0.905   2.363   4.532
 2058SOL    HW2 6627   0.960   2.284   4.649
 2059SOL     OW 6628   0.559   1.924   4.216
 2059SOL    HW1 6629   0.478   1.929   4.266
 2059SOL    HW2 6630   0.562   2.005   4.166
 2060SOL     OW 6631   1.428   3.063   3.763
 2060SOL    HW1 6632   1.458   2.988   3.814
 2060SOL    HW2 6633   1.342   3.084   3.800
 2061SOL     OW 6634   0.309   1.913   3.893
 2061SOL    HW1 6635   0.371   1.952   3.831
 2061SOL    HW2 6636   0.361   1.848   3.941
 2062SOL     OW 6637   0.942   2.110   4.180
 2062SOL    HW1 6638   0.915   2.150   4.097
 2062SOL    HW2 6639   1.036   2.128   4.185
 2063SOL     OW 6640   1.081   2.546   5.180
 2063SOL    HW1 6641   1.015   2.476   5.186
 2063SOL    HW2 6642   1.165   2.500   5.176
 2064SOL     OW 6643   1.219   3.434   4.518
 2064SOL    HW1 6644   1.234   3.500   4.451
 2064SOL    HW2 6645   1.289   3.450   4.582
 2065SOL     OW 6646   0.467   3.014   4.456
 2065SOL    HW1 6647   0.397   2.989   4.516
 2065SOL    HW2 6648   0.430   2.998   4.369
 2066SOL     OW 6649   1.264   3.654   4.334
 2066SOL    HW1 6650   1.313   3.719   4.284
 2066SOL    HW2 6651   1.190   3.703   4.370
 2067SOL     OW 6652   1.024   2.397   3.750
 2067SOL    HW1 6653   0.981   2.480   3.731
 2067SOL    HW2 6654   1.091   2.419   3.815
 2068SOL     OW 6655   0.084   2.436   5.113
 2068SOL    HW1 6656   0.174   2.423   5.083
 2068SOL    HW2 6657   0.091   2.505   5.179
 2069SOL     OW 6658   0.567   2.089   4.893
 2069SOL    HW1 6659   0.608   2.016   4.938
 2069SOL    HW2 6660   0.475   2.085   4.920
 2070SOL     OW 6661   0.867   2.319   4.363
 2070SOL    HW1 6662   0.820   2.374   4.300
 2070SOL    HW2 6663   0.888   2.240   4.314
 2071SOL     OW 6664   1.018   1.916   4.472
 2071SOL    HW1 6665   0.959   1.911   4.397
 2071SOL    HW2 6666   0.994   1.842   4.527
 2072SOL     OW 6667   1.439   3.022   4.580
 2072SOL    HW1 6668   1.368   2.958   4.581
 2072SOL    HW2 6669   1.463   3.030   4.488
 2073SOL     OW 6670   1.465   2.471   4.692
 2073SOL    HW1 6671   1.408   2.394   4.695
 2073SOL    HW2 6672   1.522   2.462   4.768
 2074SOL     OW 6673   1.841   2.679   4.111
 2074SOL    HW1 6674   1.902   2.629   4.165
 2074SOL    HW2 6675   1.809   2.617   4.046
 2075SOL     OW 6676   0.488   3.284   3.881
 2075SOL    HW1 6677   0.411   3.254   3.931
 2075SOL    HW2 6678   0.474   3.249   3.793
 2076SOL     OW 6679   1.676   3.126   4.366
 2076SOL    HW1 6680   1.771   3.126   4.381
 2076SOL    HW2 6681   1.649   3.215   4.388
 2077SOL     OW 6682   1.388   2.440   3.789
 2077SOL    HW1 6683   1.339   2.413   3.867
 2077SOL    HW2 6684   1.480   2.424   3.812
 2078SOL     OW 6685   0.575   2.129   4.038
 2078SOL    HW1 6686   0.609   2.083   3.961
 2078SOL    HW2 6687   0.543   2.212   4.004
 2079SOL     OW 6688   1.749   3.105   5.286
 2079SOL    HW1 6689   1.837   3.066   5.281
 2079SOL    HW2 6690   1.764   3.195   5.315
 2080SOL     OW 6691   1.054   3.214   5.055
 2080SOL    HW1 6692   0.979   3.183   5.105
 2080SOL    HW2 6693   1.129   3.173   5.097
 2081SOL     OW 6694   1.610   3.490   5.382
 2081SOL    HW1 6695   1.601   3.523   5.293
 2081SOL    HW2 6696   1.693   3.440   5.381
 2082SOL     OW 6697   1.135   3.072   4.826
 2082SOL    HW1 6698   1.075   3.109   4.890
 2082SOL    HW2 6699   1.105   3.106   4.742
 2083SOL     OW 6700   1.623   2.958   4.799
 2083SOL    HW1 6701   1.617   3.021   4.871
 2083SOL    HW2 6702   1.547   2.977   4.744
 2084SOL     OW 6703   0.918   1.955   5.116
 2084SOL    HW1 6704   0.942   1.937   5.025
 2084SOL    HW2 6705   0.997   1.995   5.153
 2085SOL     OW 6706   0.984   2.978   5.445
 2085SOL    HW1 6707   0.893   2.994   5.470
 2085SOL    HW2 6708   0.980   2.899   5.392
 2086SOL     OW 6709   0.708   2.923   4.095
 2086SOL    HW1 6710   0.694   2.904   4.188
 2086SOL    HW2 6711   0.784   2.870   4.071
 2087SOL     OW 6712   0.423   2.681   4.977
 2087SOL    HW1 6713   0.491   2.689   5.044
 2087SOL    HW2 6714   0.390   2.591   4.988
 2088SOL     OW 6715   1.264   2.236   5.005
 2088SOL    HW1 6716   1.296   2.314   5.050
 2088SOL    HW2 6717   1.173   2.256   4.982
 2089SOL     OW 6718   0.065   3.441   5.068
 2089SOL    HW1 6719   0.071   3.480   4.981
 2089SOL    HW2 6720   0.156   3.434   5.096
 2090SOL     OW 6721   0.364   2.965   4.204
 2090SOL    HW1 6722   0.362   3.046   4.154
 2090SOL    HW2 6723   0.364   2.896   4.138
 2091SOL     OW 6724   0.547   2.395   4.585
 2091SOL    HW1 6725   0.561   2.452   4.510
 2091SOL    HW2 6726   0.615   2.420   4.648
 2092SOL     OW 6727   1.247   3.212   4.114
 2092SOL    HW1 6728   1.303   3.283   4.146
 2092SOL    HW2 6729   1.160   3.233   4.148
 2093SOL     OW 6730   1.289   3.322   4.873
 2093SOL    HW1 6731   1.344   3.327   4.951
 2093SOL    HW2 6732   1.233   3.246   4.887
 2094SOL     OW 6733   1.572   2.480   4.202
 2094SOL    HW1 6734   1.529   2.537   4.266
 2094SOL    HW2 6735   1.617   2.541   4.143
 2095SOL     OW 6736   0.345   3.391   5.040
 2095SOL    HW1 6737   0.335   3.340   4.960
 2095SOL    HW2 6738   0.439   3.405   5.048
 2096SOL     OW 6739   0.420   2.599   5.326
 2096SOL    HW1 6740   0.483   2.643   5.270
 2096SOL    HW2 6741   0.459   2.513   5.344
 2097SOL     OW 6742   1.605   2.651   5.401
 2097SOL    HW1 6743   1.519   2.693   5.396
 2097SOL    HW2 6744   1.658   2.694   5.334
 2098SOL     OW 6745   0.996   1.995   5.476
 2098SOL    HW1 6746   1.056   2.067   5.457
 2098SOL    HW2 6747   1.045   1.916   5.453
 2099SOL     OW 6748   0.497   1.895   5.472
 2099SOL    HW1 6749   0.452   1.844   5.404
 2099SOL    HW2 6750   0.444   1.974   5.481
 2100SOL     OW 6751   0.586   2.737   4.757
 2100SOL    HW1 6752   0.621   2.826   4.759
 2100SOL    HW2 6753   0.530   2.731   4.834
 2101SOL     OW 6754   1.348   2.720   4.746
 2101SOL    HW1 6755   1.262   2.705   4.706
 2101SOL    HW2 6756   1.394   2.636   4.736
 2102SOL     OW 6757   1.201   2.388   3.988
 2102SOL    HW1 6758   1.209   2.310   4.044
 2102SOL    HW2 6759   1.158   2.453   4.044
 2103SOL     OW 6760   0.309   2.057   4.971
 2103SOL    HW1 6761   0.263   2.092   5.047
 2103SOL    HW2 6762   0.287   1.964   4.971
 2104SOL     OW 6763   0.062   3.167   5.005
 2104SOL    HW1 6764   0.092   3.124   5.085
 2104SOL    HW2 6765   0.054   3.259   5.028
 2105SOL     OW 6766   0.722   2.492   4.777
 2105SOL    HW1 6767   0.798   2.478   4.721
 2105SOL    HW2 6768   0.693   2.581   4.758
 2106SOL     OW 6769   1.739   2.820   5.582
 2106SOL    HW1 6770   1.696   2.754   5.527
 2106SOL    HW2 6771   1.676   2.837   5.652
 2107SOL     OW 6772   0.317   1.923   4.344
 2107SOL    HW1 6773   0.294   2.013   4.364
 2107SOL    HW2 6774   0.324   1.880   4.429
 2108SOL     OW 6775   1.610   2.232   4.099
 2108SOL    HW1 6776   1.606   2.182   4.181
 2108SOL    HW2 6777   1.592   2.322   4.125
 2109SOL     OW 6778   1.029   2.620   4.682
 2109SOL    HW1 6779   1.020   2.637   4.776
 2109SOL    HW2 6780   1.003   2.529   4.672
 2110SOL     OW 6781   0.986   3.430   5.447
 2110SOL    HW1 6782   0.966   3.470   5.362
 2110SOL    HW2 6783   1.028   3.347   5.424
 2111SOL     OW 6784   1.852   3.363   5.327
 2111SOL    HW1 6785   1.873   3.391   5.238
 2111SOL    HW2 6786   1.932   3.378   5.377
 2112SOL     OW 6787   0.355   2.785   5.522
 2112SOL    HW1 6788   0.433   2.806   5.574
 2112SOL    HW2 6789   0.385   2.717   5.462
 2113SOL     OW 6790   1.529   2.129   3.853
 2113SOL    HW1 6791   1.462   2.067   3.881
 2113SOL    HW2 6792   1.561   2.168   3.934
 2114SOL     OW 6793   1.286   2.690   3.752
 2114SOL    HW1 6794   1.326   2.603   3.756
 2114SOL    HW2 6795   1.318   2.728   3.670
 2115SOL     OW 6796   1.069   3.201   4.581
 2115SOL    HW1 6797   1.074   3.129   4.518
 2115SOL    HW2 6798   1.127   3.268   4.545
 2116SOL     OW 6799   0.313   2.662   4.674
 2116SOL    HW1 6800   0.407   2.679   4.668
 2116SOL    HW2 6801   0.307   2.572   4.704
 2117SOL     OW 6802   0.327   2.384   4.739
 2117SOL    HW1 6803   0.293   2.296   4.723
 2117SOL    HW2 6804   0.404   2.390   4.682
 2118SOL     OW 6805   1.134   2.235   5.410
 2118SOL    HW1 6806   1.086   2.289   5.472
 2118SOL    HW2 6807   1.222   2.273   5.406
 2119SOL     OW 6808   1.160   2.060   5.197
 2119SOL    HW1 6809   1.149   2.122   5.268
 2119SOL    HW2 6810   1.203   2.110   5.127
 2120SOL     OW 6811   0.000   3.177   3.906
 2120SOL    HW1 6812   3.906   3.193   3.910
 2120SOL    HW2 6813   0.009   3.083   3.924
 2121SOL     OW 6814   0.076   3.662   4.619
 2121SOL    HW1 6815   0.095   3.569   4.613
 2121SOL    HW2 6816   0.162   3.704   4.620
 2122SOL     OW 6817   0.506   3.422   4.643
 2122SOL    HW1 6818   0.571   3.491   4.660
 2122SOL    HW2 6819   0.548   3.365   4.578
 2123SOL     OW 6820   0.974   2.650   4.948
 2123SOL    HW1 6821   1.033   2.630   5.020
 2123SOL    HW2 6822   0.890   2.611   4.974
 2124SOL     OW 6823   0.038   2.425   4.833
 2124SOL    HW1 6824   0.121   2.402   4.790
 2124SOL    HW2 6825   0.057   2.421   4.926
 2125SOL     OW 6826   0.206   2.373   5.452
 2125SOL    HW1 6827   0.243   2.323   5.379
 2125SOL    HW2 6828   0.164   2.448   5.410
 2126SOL     OW 6829   1.375   2.799   5.379
 2126SOL    HW1 6830   1.398   2.892   5.375
 2126SOL    HW2 6831   1.371   2.771   5.288
 2127SOL     OW 6832   0.819   2.431   4.089
 2127SOL    HW1 6833   0.825   2.356   4.030
 2127SOL    HW2 6834   0.745   2.482   4.056
 2128SOL     OW 6835   1.642   2.465   4.902
 2128SOL    HW1 6836   1.631   2.411   4.981
 2128SOL    HW2 6837   1.728   2.442   4.869
 2129SOL     OW 6838   0.301   3.406   5.445
 2129SOL    HW1 6839   0.254   3.475   5.493
 2129SOL    HW2 6840   0.273   3.324   5.488
 2130SOL     OW 6841   0.713   2.309   4.978
 2130SOL    HW1 6842   0.658   2.236   4.951
 2130SOL    HW2 6843   0.705   2.373   4.907
 2131SOL     OW 6844   0.925   3.532   5.195
 2131SOL    HW1 6845   0.898   3.492   5.112
 2131SOL    HW2 6846   0.917   3.626   5.180
 2132SOL     OW 6847   0.450   2.350   3.921
 2132SOL    HW1 6848   0.516   2.417   3.939
 2132SOL    HW2 6849   0.372   2.399   3.898
 2133SOL     OW 6850   0.154   2.996   5.201
 2133SOL    HW1 6851   0.153   2.946   5.283
 2133SOL    HW2 6852   0.169   2.931   5.133
 2134SOL     OW 6853   1.321   2.906   4.943
 2134SOL    HW1 6854   1.342   2.842   4.874
 2134SOL    HW2 6855   1.255   2.962   4.904
 2135SOL     OW 6856   1.315   2.719   4.028
 2135SOL    HW1 6857   1.242   2.686   4.079
 2135SOL    HW2 6858   1.289   2.705   3.937
 2136SOL     OW 6859   1.775   3.598   4.878
 2136SOL    HW1 6860   1.838   3.626   4.811
 2136SOL    HW2 6861   1.752   3.508   4.853
 2137SOL     OW 6862   1.245   3.594   4.829
 2137SOL    HW1 6863   1.328   3.616   4.788
 2137SOL    HW2 6864   1.253   3.500   4.850
 2138SOL     OW 6865   0.077   3.075   4.752
 2138SOL    HW1 6866   0.084   3.103   4.844
 2138SOL    HW2 6867   3.985   3.089   4.730
 2139SOL     OW 6868   0.680   3.529   5.463
 2139SOL    HW1 6869   0.621   3.604   5.466
 2139SOL    HW2 6870   0.741   3.550   5.392
 2140SOL     OW 6871   1.392   3.430   4.214
 2140SOL    HW1 6872   1.450   3.465   4.146
 2140SOL    HW2 6873   1.342   3.507   4.244
 2141SOL     OW 6874   0.172   3.619   5.558
 2141SOL    HW1 6875   0.118   3.566   5.616
 2141SOL    HW2 6876   0.218   3.680   5.616
 2142SOL     OW 6877   1.277   2.791   4.395
 2142SOL    HW1 6878   1.351   2.730   4.406
 2142SOL    HW2 6879   1.312   2.862   4.341
 2143SOL     OW 6880   0.805   3.137   5.149
 2143SOL    HW1 6881   0.777   3.179   5.230
 2143SOL    HW2 6882   0.733   3.153   5.088
 2144SOL     OW 6883   0.674   3.481   3.883
 2144SOL    HW1 6884   0.684   3.499   3.790
 2144SOL    HW2 6885   0.615   3.407   3.888
 2145SOL     OW 6886   1.620   3.589   5.114
 2145SOL    HW1 6887   1.673   3.593   5.034
 2145SOL    HW2 6888   1.605   3.680   5.138
 2146SOL     OW 6889   0.264   2.173   4.439
 2146SOL    HW1 6890   0.177   2.204   4.414
 2146SOL    HW2 6891   0.260   2.164   4.534
 2147SOL     OW 6892   1.208   3.463   3.761
 2147SOL    HW1 6893   1.198   3.371   3.785
 2147SOL    HW2 6894   1.147   3.476   3.689
 2148SOL     OW 6895   0.823   2.868   5.099
 2148SOL    HW1 6896   0.867   2.862   5.015
 2148SOL    HW2 6897   0.820   2.962   5.118
 2149SOL     OW 6898   0.916   2.772   4.016
 2149SOL    HW1 6899   0.975   2.805   3.949
 2149SOL    HW2 6900   0.966   2.704   4.061
 2150SOL     OW 6901   1.488   3.494   3.768
 2150SOL    HW1 6902   1.395   3.481   3.751
 2150SOL    HW2 6903   1.527   3.499   3.681
 2151SOL     OW 6904   0.374   3.164   5.215
 2151SOL    HW1 6905   0.359   3.245   5.166
 2151SOL    HW2 6906   0.297   3.110   5.198
 2152SOL     OW 6907   1.608   3.146   5.003
 2152SOL    HW1 6908   1.668   3.131   5.077
 2152SOL    HW2 6909   1.547   3.213   5.035
 2153SOL     OW 6910   1.061   2.972   4.435
 2153SOL    HW1 6911   0.988   2.922   4.471
 2153SOL    HW2 6912   1.125   2.906   4.408
 2154SOL     OW 6913   1.025   2.104   4.691
 2154SOL    HW1 6914   1.022   2.058   4.607
 2154SOL    HW2 6915   1.019   2.035   4.757
 2155SOL     OW 6916   0.607   3.353   4.204
 2155SOL    HW1 6917   0.655   3.302   4.138
 2155SOL    HW2 6918   0.533   3.390   4.157
 2156SOL     OW 6919   1.727   2.257   5.103
 2156SOL    HW1 6920   1.801   2.318   5.109
 2156SOL    HW2 6921   1.755   2.191   5.040
 2157SOL     OW 6922   0.254   3.202   4.016
 2157SOL    HW1 6923   0.160   3.207   3.999
 2157SOL    HW2 6924   0.265   3.241   4.102
 2158SOL     OW 6925   0.109   2.858   5.442
 2158SOL    HW1 6926   0.050   2.854   5.517
 2158SOL    HW2 6927   0.196   2.842   5.479
 2159SOL     OW 6928   0.677   2.057   5.224
 2159SOL    HW1 6929   0.761   2.036   5.184
 2159SOL    HW2 6930   0.700   2.090   5.311
 2160SOL     OW 6931   0.080   2.172   3.761
 2160SOL    HW1 6932   3.985   2.172   3.770
 2160SOL    HW2 6933   0.101   2.253   3.715
 2161SOL     OW 6934   1.426   2.720   5.121
 2161SOL    HW1 6935   1.376   2.781   5.066
 2161SOL    HW2 6936   1.514   2.722   5.085
 2162SOL     OW 6937   0.015   2.106   4.102
 2162SOL    HW1 6938   0.046   2.169   4.038
 2162SOL    HW2 6939   0.094   2.062   4.133
 2163SOL     OW 6940   1.177   3.196   3.842
 2163SOL    HW1 6941   1.086   3.168   3.842
 2163SOL    HW2 6942   1.203   3.196   3.934
 2164SOL     OW 6943   0.621   2.693   5.162
 2164SOL    HW1 6944   0.677   2.768   5.146
 2164SOL    HW2 6945   0.681   2.619   5.168
 2165SOL     OW 6946   1.487   3.644   4.706
 2165SOL    HW1 6947   1.509   3.706   4.637
 2165SOL    HW2 6948   1.572   3.619   4.744
 2166SOL     OW 6949   0.716   2.422   5.426
 2166SOL    HW1 6950   0.763   2.482   5.485
 2166SOL    HW2 6951   0.738   2.335   5.459
 2167SOL     OW 6952   1.474   3.057   5.353
 2167SOL    HW1 6953   1.462   3.072   5.446
 2167SOL    HW2 6954   1.566   3.076   5.337
 2168SOL     OW 6955   0.377   3.610   5.284
 2168SOL    HW1 6956   0.289   3.646   5.272
 2168SOL    HW2 6957   0.364   3.526   5.328
 2169SOL     OW 6958   1.665   2.742   4.977
 2169SOL    HW1 6959   1.659   2.657   4.934
 2169SOL    HW2 6960   1.654   2.806   4.907
 2170SOL     OW 6961   1.215   2.181   4.182
 2170SOL    HW1 6962   1.277   2.108   4.176
 2170SOL    HW2 6963   1.244   2.231   4.258
 2171SOL     OW 6964   0.587   2.598   4.399
 2171SOL    HW1 6965   0.627   2.684   4.384
 2171SOL    HW2 6966   0.523   2.588   4.328
 2172SOL     OW 6967   1.748   2.240   5.384
 2172SOL    HW1 6968   1.741   2.251   5.289
 2172SOL    HW2 6969   1.678   2.178   5.406
 2173SOL     OW 6970   1.752   2.801   5.230
 2173SOL    HW1 6971   1.739   2.895   5.243
 2173SOL    HW2 6972   1.732   2.786   5.138
 2174SOL     OW 6973   0.866   3.228   3.768
 2174SOL    HW1 6974   0.824   3.256   3.849
 2174SOL    HW2 6975   0.878   3.309   3.718
 2175SOL     OW 6976   0.658   3.648   4.653
 2175SOL    HW1 6977   0.638   3.740   4.637
 2175SOL    HW2 6978   0.753   3.644   4.654
 2176SOL     OW 6979   0.870   2.832   4.577
 2176SOL    HW1 6980   0.920   2.759   4.614
 2176SOL    HW2 6981   0.831   2.876   4.652
 2177SOL     OW 6982   1.075   2.850   3.812
 2177SOL    HW1 6983   1.055   2.902   3.735
 2177SOL    HW2 6984   1.150   2.797   3.787
 2178SOL     OW 6985   1.847   3.411   4.564
 2178SOL    HW1 6986   1.766   3.401   4.513
 2178SOL    HW2 6987   1.837   3.351   4.638
 2179SOL     OW 6988   0.230   3.167   5.581
 2179SOL    HW1 6989   0.153   3.116   5.554
 2179SOL    HW2 6990   0.218   3.179   5.675
 2180SOL     OW 6991   0.122   3.145   4.449
 2180SOL    HW1 6992   0.141   3.093   4.527
 2180SOL    HW2 6993   0.103   3.081   4.381
 2181SOL     OW 6994   0.685   3.269   5.356
 2181SOL    HW1 6995   0.605   3.227   5.387
 2181SOL    HW2 6996   0.682   3.357   5.393
 2182SOL     OW 6997   0.440   2.295   4.259
 2182SOL    HW1 6998   0.440   2.225   4.193
 2182SOL    HW2 6999   0.384   2.262   4.329
 2183SOL     OW 7000   1.699   3.345   4.812
 2183SOL    HW1 7001   1.618   3.326   4.765
 2183SOL    HW2 7002   1.704   3.278   4.880
 2184SOL     OW 7003   0.337   2.422   5.017
 2184SOL    HW1 7004   0.390   2.363   5.071
 2184SOL    HW2 7005   0.351   2.389   4.927
 2185SOL     OW 7006   0.830   3.441   4.400
 2185SOL    HW1 7007   0.809   3.499   4.326
 2185SOL    HW2 7008   0.757   3.379   4.404
 2186SOL     OW 7009   1.436   2.093   4.844
 2186SOL    HW1 7010   1.442   2.004   4.877
 2186SOL    HW2 7011   1.382   2.140   4.908
 2187SOL     OW 7012   1.010   1.878   4.860
 2187SOL    HW1 7013   0.956   1.811   4.817
 2187SOL    HW2 7014   1.098   1.840   4.861
 2188SOL     OW 7015   0.774   3.194   4.046
 2188SOL    HW1 7016   0.746   3.103   4.053
 2188SOL    HW2 7017   0.856   3.198   4.094
 2189SOL     OW 7018   0.621   3.415   5.011
 2189SOL    HW1 7019   0.621   3.498   5.060
 2189SOL    HW2 7020   0.709   3.410   4.973
 2190SOL     OW 7021   1.351   1.913   3.894
 2190SOL    HW1 7022   1.385   1.848   3.832
 2190SOL    HW2 7023   1.263   1.884   3.915
 2191SOL     OW 7024   1.298   2.325   4.403
 2191SOL    HW1 7025   1.246   2.405   4.406
 2191SOL    HW2 7026   1.292   2.288   4.491
 2192SOL     OW 7027   1.566   2.047   4.597
 2192SOL    HW1 7028   1.534   2.078   4.681
 2192SOL    HW2 7029   1.584   2.127   4.547
 2193SOL     OW 7030   0.048   2.908   3.966
 2193SOL    HW1 7031   0.142   2.894   3.958
 2193SOL    HW2 7032   0.012   2.822   3.988
 2194SOL     OW 7033   0.888   3.525   4.065
 2194SOL    HW1 7034   0.816   3.506   4.005
 2194SOL    HW2 7035   0.857   3.598   4.118
 2195SOL     OW 7036   0.230   2.490   5.703
 2195SOL    HW1 7037   0.137   2.497   5.725
 2195SOL    HW2 7038   0.232   2.456   5.614
 2196SOL     OW 7039   0.229   2.135   6.572
 2196SOL    HW1 7040   0.251   2.099   6.659
 2196SOL    HW2 7041   0.134   2.128   6.566
 2197SOL     OW 7042   0.005   2.219   6.216
 2197SOL    HW1 7043   3.915   2.238   6.244
 2197SOL    HW2 7044   3.997   2.191   6.125
 2198SOL     OW 7045   0.582   3.155   6.783
 2198SOL    HW1 7046   0.496   3.157   6.740
 2198SOL    HW2 7047   0.596   3.244   6.814
 2199SOL     OW 7048   1.567   3.375   6.297
 2199SOL    HW1 7049   1.525   3.352   6.379
 2199SOL    HW2 7050   1.495   3.378   6.233
 2200SOL     OW 7051   1.110   2.588   6.278
 2200SOL    HW1 7052   1.162   2.668   6.268
 2200SOL    HW2 7053   1.069   2.597   6.364
 2201SOL     OW 7054   1.766   2.477   5.819
 2201SOL    HW1 7055   1.747   2.476   5.725
 2201SOL    HW2 7056   1.748   2.388   5.848
 2202SOL     OW 7057   0.748   2.998   6.631
 2202SOL    HW1 7058   0.687   3.036   6.695
 2202SOL    HW2 7059   0.786   3.074   6.587
 2203SOL     OW 7060   0.875   2.625   7.411
 2203SOL    HW1 7061   0.865   2.696   7.475
 2203SOL    HW2 7062   0.896   2.670   7.330
 2204SOL     OW 7063   0.685   2.861   6.231
 2204SOL    HW1 7064   0.751   2.852   6.299
 2204SOL    HW2 7065   0.616   2.914   6.271
 2205SOL     OW 7066   0.714   3.011   7.406
 2205SOL    HW1 7067   0.762   3.088   7.436
 2205SOL    HW2 7068   0.634   3.046   7.367
 2206SOL     OW 7069   0.351   3.262   6.664
 2206SOL    HW1 7070   0.270   3.244   6.616
 2206SOL    HW2 7071   0.401   3.319   6.607
 2207SOL     OW 7072   1.459   3.364   6.947
 2207SOL    HW1 7073   1.514   3.442   6.956
 2207SOL    HW2 7074   1.391   3.374   7.013
 2208SOL     OW 7075   0.450   2.257   7.070
 2208SOL    HW1 7076   0.526   2.199   7.074
 2208SOL    HW2 7077   0.375   2.200   7.085
 2209SOL     OW 7078   0.221   3.572   6.051
 2209SOL    HW1 7079   0.219   3.658   6.095
 2209SOL    HW2 7080   0.298   3.577   5.994
 2210SOL     OW 7081   1.138   3.204   7.281
 2210SOL    HW1 7082   1.178   3.196   7.367
 2210SOL    HW2 7083   1.085   3.124   7.272
 2211SOL     OW 7084   0.254   3.307   6.125
 2211SOL    HW1 7085   0.224   3.397   6.111
 2211SOL    HW2 7086   0.186   3.267   6.178
 2212SOL     OW 7087   0.249   2.927   6.469
 2212SOL    HW1 7088   0.269   2.842   6.508
 2212SOL    HW2 7089   0.196   2.971   6.535
 2213SOL     OW 7090   0.608   3.648   7.011
 2213SOL    HW1 7091   0.526   3.635   7.059
 2213SOL    HW2 7092   0.636   3.737   7.036
 2214SOL     OW 7093   0.574   2.850   5.726
 2214SOL    HW1 7094   0.624   2.893   5.657
 2214SOL    HW2 7095   0.614   2.879   5.808
 2215SOL     OW 7096   0.144   2.520   6.159
 2215SOL    HW1 7097   0.087   2.443   6.157
 2215SOL    HW2 7098   0.108   2.574   6.230
 2216SOL     OW 7099   1.844   3.604   5.923
 2216SOL    HW1 7100   1.914   3.581   5.985
 2216SOL    HW2 7101   1.861   3.696   5.900
 2217SOL     OW 7102   0.040   3.450   5.725
 2217SOL    HW1 7103   0.037   3.359   5.754
 2217SOL    HW2 7104   3.953   3.485   5.746
 2218SOL     OW 7105   1.688   2.799   6.224
 2218SOL    HW1 7106   1.740   2.735   6.175
 2218SOL    HW2 7107   1.660   2.862   6.158
 2219SOL     OW 7108   1.645   2.977   6.009
 2219SOL    HW1 7109   1.732   2.978   5.968
 2219SOL    HW2 7110   1.651   3.042   6.080
 2220SOL     OW 7111   0.144   2.614   7.176
 2220SOL    HW1 7112   0.239   2.611   7.170
 2220SOL    HW2 7113   0.125   2.701   7.212
 2221SOL     OW 7114   0.618   3.250   6.320
 2221SOL    HW1 7115   0.570   3.167   6.329
 2221SOL    HW2 7116   0.600   3.278   6.230
 2222SOL     OW 7117   1.285   3.098   7.008
 2222SOL    HW1 7118   1.317   3.032   6.947
 2222SOL    HW2 7119   1.346   3.094   7.082
 2223SOL     OW 7120   0.823   1.864   6.101
 2223SOL    HW1 7121   0.863   1.947   6.077
 2223SOL    HW2 7122   0.729   1.882   6.104
 2224SOL     OW 7123   0.183   2.810   6.868
 2224SOL    HW1 7124   0.271   2.775   6.856
 2224SOL    HW2 7125   0.133   2.775   6.794
 2225SOL     OW 7126   1.532   2.860   5.785
 2225SOL    HW1 7127   1.461   2.805   5.817
 2225SOL    HW2 7128   1.571   2.897   5.864
 2226SOL     OW 7129   1.223   3.668   7.215
 2226SOL    HW1 7130   1.196   3.730   7.147
 2226SOL    HW2 7131   1.223   3.583   7.172
 2227SOL     OW 7132   0.344   2.109   7.406
 2227SOL    HW1 7133   0.378   2.198   7.414
 2227SOL    HW2 7134   0.251   2.116   7.430
 2228SOL     OW 7135   1.465   3.282   6.533
 2228SOL    HW1 7136   1.400   3.298   6.601
 2228SOL    HW2 7137   1.451   3.191   6.507
 2229SOL     OW 7138   1.652   3.605   6.167
 2229SOL    HW1 7139   1.638   3.572   6.078
 2229SOL    HW2 7140   1.631   3.531   6.224
 2230SOL     OW 7141   0.596   2.575   5.854
 2230SOL    HW1 7142   0.601   2.660   5.810
 2230SOL    HW2 7143   0.533   2.588   5.925
 2231SOL     OW 7144   1.576   3.538   5.895
 2231SOL    HW1 7145   1.669   3.559   5.889
 2231SOL    HW2 7146   1.549   3.520   5.805
 2232SOL     OW 7147   0.792   2.480   7.035
 2232SOL    HW1 7148   0.765   2.454   7.123
 2232SOL    HW2 7149   0.757   2.411   6.978
 2233SOL     OW 7150   0.950   2.746   7.172
 2233SOL    HW1 7151   1.005   2.677   7.133
 2233SOL    HW2 7152   0.902   2.783   7.098
 2234SOL     OW 7153   0.988   2.279   6.812
 2234SOL    HW1 7154   0.896   2.290   6.838
 2234SOL    HW2 7155   0.983   2.232   6.728
 2235SOL     OW 7156   1.051   2.562   6.008
 2235SOL    HW1 7157   1.062   2.566   6.103
 2235SOL    HW2 7158   0.970   2.514   5.995
 2236SOL     OW 7159   0.083   2.694   6.375
 2236SOL    HW1 7160   0.154   2.662   6.430
 2236SOL    HW2 7161   0.105   2.786   6.358
 2237SOL     OW 7162   0.127   3.720   7.168
 2237SOL    HW1 7163   0.136   3.688   7.258
 2237SOL    HW2 7164   0.035   3.707   7.146
 2238SOL     OW 7165   0.897   2.212   5.779
 2238SOL    HW1 7166   0.937   2.276   5.720
 2238SOL    HW2 7167   0.918   2.127   5.740
 2239SOL     OW 7168   1.380   3.008   6.122
 2239SOL    HW1 7169   1.459   2.997   6.068
 2239SOL    HW2 7170   1.327   3.070   6.073
 2240SOL     OW 7171   0.547   2.039   6.483
 2240SOL    HW1 7172   0.554   2.072   6.572
 2240SOL    HW2 7173   0.546   2.118   6.428
 2241SOL     OW 7174   1.000   3.307   6.054
 2241SOL    HW1 7175   0.967   3.382   6.006
 2241SOL    HW2 7176   0.978   3.326   6.146
 2242SOL     OW 7177   0.359   3.674   6.452
 2242SOL    HW1 7178   0.441   3.625   6.465
 2242SOL    HW2 7179   0.385   3.766   6.460
 2243SOL     OW 7180   1.802   2.937   6.452
 2243SOL    HW1 7181   1.758   2.896   6.377
 2243SOL    HW2 7182   1.736   2.937   6.521
 2244SOL     OW 7183   1.227   3.400   7.098
 2244SOL    HW1 7184   1.215   3.328   7.159
 2244SOL    HW2 7185   1.157   3.389   7.033
 2245SOL     OW 7186   0.311   2.814   5.829
 2245SOL    HW1 7187   0.394   2.836   5.786
 2245SOL    HW2 7188   0.299   2.721   5.810
 2246SOL     OW 7189   1.467   2.630   6.310
 2246SOL    HW1 7190   1.483   2.536   6.311
 2246SOL    HW2 7191   1.553   2.669   6.291
 2247SOL     OW 7192   0.471   3.123   7.323
 2247SOL    HW1 7193   0.445   3.131   7.231
 2247SOL    HW2 7194   0.388   3.125   7.371
 2248SOL     OW 7195   1.114   3.644   5.805
 2248SOL    HW1 7196   1.048   3.599   5.858
 2248SOL    HW2 7197   1.145   3.577   5.744
 2249SOL     OW 7198   0.204   2.130   7.094
 2249SOL    HW1 7199   0.114   2.163   7.091
 2249SOL    HW2 7200   0.195   2.041   7.130
 2250SOL     OW 7201   1.626   3.245   5.677
 2250SOL    HW1 7202   1.586   3.329   5.660
 2250SOL    HW2 7203   1.558   3.181   5.656
 2251SOL     OW 7204   0.466   3.604   5.907
 2251SOL    HW1 7205   0.506   3.664   5.969
 2251SOL    HW2 7206   0.539   3.574   5.853
 2252SOL     OW 7207   1.390   2.009   5.919
 2252SOL    HW1 7208   1.377   1.947   5.848
 2252SOL    HW2 7209   1.471   1.981   5.961
 2253SOL     OW 7210   0.257   3.657   6.809
 2253SOL    HW1 7211   0.297   3.587   6.861
 2253SOL    HW2 7212   0.254   3.622   6.720
 2254SOL     OW 7213   0.939   3.565   6.484
 2254SOL    HW1 7214   1.016   3.514   6.507
 2254SOL    HW2 7215   0.896   3.514   6.415
 2255SOL     OW 7216   0.401   2.554   6.056
 2255SOL    HW1 7217   0.424   2.462   6.073
 2255SOL    HW2 7218   0.309   2.560   6.083
 2256SOL     OW 7219   0.648   1.977   5.681
 2256SOL    HW1 7220   0.706   1.904   5.703
 2256SOL    HW2 7221   0.597   1.946   5.607
 2257SOL     OW 7222   0.765   2.142   7.342
 2257SOL    HW1 7223   0.845   2.090   7.338
 2257SOL    HW2 7224   0.719   2.110   7.420
 2258SOL     OW 7225   0.876   3.383   6.780
 2258SOL    HW1 7226   0.858   3.346   6.694
 2258SOL    HW2 7227   0.945   3.328   6.817
 2259SOL     OW 7228   1.351   2.465   7.029
 2259SOL    HW1 7229   1.427   2.440   7.081
 2259SOL    HW2 7230   1.368   2.556   7.005
 2260SOL     OW 7231   0.818   3.251   6.531
 2260SOL    HW1 7232   0.904   3.240   6.489
 2260SOL    HW2 7233   0.756   3.255   6.458
 2261SOL     OW 7234   0.931   2.374   6.485
 2261SOL    HW1 7235   0.906   2.363   6.393
 2261SOL    HW2 7236   0.951   2.285   6.515
 2262SOL     OW 7237   0.559   1.924   6.078
 2262SOL    HW1 7238   0.477   1.929   6.128
 2262SOL    HW2 7239   0.562   2.006   6.028
 2263SOL     OW 7240   1.428   3.062   5.625
 2263SOL    HW1 7241   1.457   2.986   5.675
 2263SOL    HW2 7242   1.342   3.083   5.662
 2264SOL     OW 7243   0.310   1.913   5.755
 2264SOL    HW1 7244   0.372   1.951   5.693
 2264SOL    HW2 7245   0.361   1.848   5.804
 2265SOL     OW 7246   0.936   2.110   6.041
 2265SOL    HW1 7247   0.906   2.149   5.959
 2265SOL    HW2 7248   1.030   2.127   6.043
 2266SOL     OW 7249   1.081   2.543   7.044
 2266SOL    HW1 7250   1.014   2.475   7.043
 2266SOL    HW2 7251   1.164   2.495   7.042
 2267SOL     OW 7252   1.219   3.435   6.380
 2267SOL    HW1 7253   1.233   3.501   6.313
 2267SOL    HW2 7254   1.289   3.449   6.444
 2268SOL     OW 7255   0.467   3.014   6.318
 2268SOL    HW1 7256   0.397   2.989   6.378
 2268SOL    HW2 7257   0.430   2.998   6.231
 2269SOL     OW 7258   1.264   3.654   6.196
 2269SOL    HW1 7259   1.313   3.719   6.146
 2269SOL    HW2 7260   1.190   3.703   6.232
 2270SOL     OW 7261   1.024   2.396   5.612
 2270SOL    HW1 7262   0.982   2.480   5.594
 2270SOL    HW2 7263   1.090   2.416   5.678
 2271SOL     OW 7264   0.084   2.436   6.975
 2271SOL    HW1 7265   0.174   2.423   6.945
 2271SOL    HW2 7266   0.091   2.505   7.041
 2272SOL     OW 7267   0.566   2.089   6.754
 2272SOL    HW1 7268   0.608   2.016   6.799
 2272SOL    HW2 7269   0.475   2.085   6.782
 2273SOL     OW 7270   0.870   2.320   6.224
 2273SOL    HW1 7271   0.822   2.375   6.162
 2273SOL    HW2 7272   0.889   2.240   6.175
 2274SOL     OW 7273   1.026   1.912   6.331
 2274SOL    HW1 7274   0.961   1.911   6.261
 2274SOL    HW2 7275   1.001   1.839   6.388
 2275SOL     OW 7276   1.436   3.025   6.440
 2275SOL    HW1 7277   1.367   2.959   6.440
 2275SOL    HW2 7278   1.464   3.032   6.349
 2276SOL     OW 7279   1.848   2.683   5.970
 2276SOL    HW1 7280   1.942   2.667   5.968
 2276SOL    HW2 7281   1.811   2.618   5.911
 2277SOL     OW 7282   0.488   3.284   5.743
 2277SOL    HW1 7283   0.411   3.254   5.793
 2277SOL    HW2 7284   0.474   3.249   5.655
 2278SOL     OW 7285   1.675   3.133   6.222
 2278SOL    HW1 7286   1.768   3.131   6.241
 2278SOL    HW2 7287   1.646   3.220   6.249
 2279SOL     OW 7288   1.391   2.440   5.653
 2279SOL    HW1 7289   1.338   2.415   5.729
 2279SOL    HW2 7290   1.481   2.422   5.680
 2280SOL     OW 7291   0.574   2.129   5.901
 2280SOL    HW1 7292   0.609   2.083   5.824
 2280SOL    HW2 7293   0.543   2.213   5.866
 2281SOL     OW 7294   1.751   3.106   7.158
 2281SOL    HW1 7295   1.838   3.067   7.163
 2281SOL    HW2 7296   1.765   3.198   7.180
 2282SOL     OW 7297   1.054   3.214   6.917
 2282SOL    HW1 7298   0.978   3.183   6.967
 2282SOL    HW2 7299   1.129   3.173   6.960
 2283SOL     OW 7300   1.610   3.490   7.244
 2283SOL    HW1 7301   1.600   3.524   7.155
 2283SOL    HW2 7302   1.692   3.441   7.243
 2284SOL     OW 7303   1.133   3.072   6.688
 2284SOL    HW1 7304   1.073   3.110   6.752
 2284SOL    HW2 7305   1.104   3.108   6.604
 2285SOL     OW 7306   1.619   2.965   6.654
 2285SOL    HW1 7307   1.612   3.026   6.727
 2285SOL    HW2 7308   1.543   2.983   6.599
 2286SOL     OW 7309   0.913   1.956   6.980
 2286SOL    HW1 7310   0.933   1.941   6.888
 2286SOL    HW2 7311   0.995   1.992   7.016
 2287SOL     OW 7312   0.984   2.977   7.309
 2287SOL    HW1 7313   0.893   2.993   7.333
 2287SOL    HW2 7314   0.981   2.898   7.255
 2288SOL     OW 7315   0.708   2.923   5.957
 2288SOL    HW1 7316   0.694   2.904   6.050
 2288SOL    HW2 7317   0.784   2.870   5.933
 2289SOL     OW 7318   0.423   2.680   6.839
 2289SOL    HW1 7319   0.491   2.689   6.906
 2289SOL    HW2 7320   0.390   2.591   6.850
 2290SOL     OW 7321   1.248   2.236   6.895
 2290SOL    HW1 7322   1.291   2.319   6.914
 2290SOL    HW2 7323   1.165   2.262   6.853
 2291SOL     OW 7324   0.065   3.441   6.930
 2291SOL    HW1 7325   0.070   3.479   6.842
 2291SOL    HW2 7326   0.157   3.434   6.958
 2292SOL     OW 7327   0.364   2.965   6.066
 2292SOL    HW1 7328   0.362   3.046   6.016
 2292SOL    HW2 7329   0.364   2.896   6.000
 2293SOL     OW 7330   0.547   2.395   6.447
 2293SOL    HW1 7331   0.560   2.453   6.372
 2293SOL    HW2 7332   0.615   2.420   6.510
 2294SOL     OW 7333   1.247   3.213   5.975
 2294SOL    HW1 7334   1.302   3.284   6.007
 2294SOL    HW2 7335   1.159   3.234   6.009
 2295SOL     OW 7336   1.289   3.323   6.735
 2295SOL    HW1 7337   1.345   3.327   6.813
 2295SOL    HW2 7338   1.233   3.247   6.751
 2296SOL     OW 7339   1.528   2.491   5.992
 2296SOL    HW1 7340   1.502   2.547   6.066
 2296SOL    HW2 7341   1.598   2.539   5.949
 2297SOL     OW 7342   0.345   3.391   6.902
 2297SOL    HW1 7343   0.335   3.340   6.822
 2297SOL    HW2 7344   0.439   3.405   6.910
 2298SOL     OW 7345   0.420   2.599   7.188
 2298SOL    HW1 7346   0.483   2.643   7.132
 2298SOL    HW2 7347   0.459   2.513   7.205
 2299SOL     OW 7348   1.587   2.658   7.268
 2299SOL    HW1 7349   1.504   2.704   7.258
 2299SOL    HW2 7350   1.645   2.699   7.204
 2300SOL     OW 7351   0.995   1.994   7.342
 2300SOL    HW1 7352   1.057   2.063   7.321
 2300SOL    HW2 7353   1.040   1.913   7.315
 2301SOL     OW 7354   0.497   1.896   7.333
 2301SOL    HW1 7355   0.452   1.844   7.266
 2301SOL    HW2 7356   0.444   1.975   7.343
 2302SOL     OW 7357   0.586   2.736   6.619
 2302SOL    HW1 7358   0.621   2.826   6.620
 2302SOL    HW2 7359   0.530   2.731   6.696
 2303SOL     OW 7360   1.348   2.718   6.617
 2303SOL    HW1 7361   1.273   2.706   6.559
 2303SOL    HW2 7362   1.384   2.630   6.629
 2304SOL     OW 7363   1.195   2.392   5.844
 2304SOL    HW1 7364   1.200   2.312   5.897
 2304SOL    HW2 7365   1.155   2.456   5.902
 2305SOL     OW 7366   0.309   2.057   6.833
 2305SOL    HW1 7367   0.263   2.092   6.909
 2305SOL    HW2 7368   0.287   1.963   6.833
 2306SOL     OW 7369   0.062   3.167   6.867
 2306SOL    HW1 7370   0.092   3.124   6.947
 2306SOL    HW2 7371   0.054   3.259   6.890
 2307SOL     OW 7372   0.722   2.492   6.639
 2307SOL    HW1 7373   0.799   2.478   6.583
 2307SOL    HW2 7374   0.694   2.581   6.620
 2308SOL     OW 7375   1.739   2.809   7.448
 2308SOL    HW1 7376   1.688   2.761   7.383
 2308SOL    HW2 7377   1.676   2.832   7.516
 2309SOL     OW 7378   0.317   1.923   6.206
 2309SOL    HW1 7379   0.293   2.013   6.226
 2309SOL    HW2 7380   0.324   1.880   6.291
 2310SOL     OW 7381   1.645   2.246   5.919
 2310SOL    HW1 7382   1.641   2.171   5.979
 2310SOL    HW2 7383   1.598   2.316   5.964
 2311SOL     OW 7384   1.028   2.622   6.545
 2311SOL    HW1 7385   1.021   2.638   6.639
 2311SOL    HW2 7386   1.003   2.530   6.535
 2312SOL     OW 7387   0.986   3.430   7.309
 2312SOL    HW1 7388   0.966   3.470   7.224
 2312SOL    HW2 7389   1.028   3.347   7.286
 2313SOL     OW 7390   1.851   3.366   7.190
 2313SOL    HW1 7391   1.874   3.392   7.101
 2313SOL    HW2 7392   1.932   3.378   7.239
 2314SOL     OW 7393   0.355   2.785   7.384
 2314SOL    HW1 7394   0.433   2.806   7.436
 2314SOL    HW2 7395   0.384   2.717   7.324
 2315SOL     OW 7396   1.530   2.136   5.697
 2315SOL    HW1 7397   1.460   2.086   5.739
 2315SOL    HW2 7398   1.576   2.177   5.770
 2316SOL     OW 7399   1.286   2.689   5.614
 2316SOL    HW1 7400   1.327   2.603   5.619
 2316SOL    HW2 7401   1.318   2.727   5.532
 2317SOL     OW 7402   1.069   3.202   6.444
 2317SOL    HW1 7403   1.072   3.131   6.380
 2317SOL    HW2 7404   1.127   3.269   6.408
 2318SOL     OW 7405   0.313   2.662   6.535
 2318SOL    HW1 7406   0.407   2.679   6.529
 2318SOL    HW2 7407   0.307   2.572   6.566
 2319SOL     OW 7408   0.327   2.384   6.601
 2319SOL    HW1 7409   0.293   2.296   6.586
 2319SOL    HW2 7410   0.404   2.390   6.544
 2320SOL     OW 7411   1.139   2.232   7.277
 2320SOL    HW1 7412   1.086   2.283   7.339
 2320SOL    HW2 7413   1.215   2.289   7.259
 2321SOL     OW 7414   1.158   2.050   7.065
 2321SOL    HW1 7415   1.149   2.112   7.137
 2321SOL    HW2 7416   1.199   2.101   6.995
 2322SOL     OW 7417   0.000   3.177   5.768
 2322SOL    HW1 7418   3.906   3.193   5.772
 2322SOL    HW2 7419   0.009   3.083   5.786
 2323SOL     OW 7420   0.076   3.662   6.481
 2323SOL    HW1 7421   0.095   3.569   6.475
 2323SOL    HW2 7422   0.162   3.705   6.482
 2324SOL     OW 7423   0.506   3.422   6.505
 2324SOL    HW1 7424   0.571   3.491   6.522
 2324SOL    HW2 7425   0.548   3.365   6.440
 2325SOL     OW 7426   0.974   2.650   6.811
 2325SOL    HW1 7427   1.032   2.630   6.884
 2325SOL    HW2 7428   0.891   2.608   6.835
 2326SOL     OW 7429   0.038   2.425   6.695
 2326SOL    HW1 7430   0.121   2.402   6.652
 2326SOL    HW2 7431   0.057   2.421   6.788
 2327SOL     OW 7432   0.206   2.373   7.314
 2327SOL    HW1 7433   0.243   2.323   7.241
 2327SOL    HW2 7434   0.164   2.448   7.272
 2328SOL     OW 7435   1.362   2.807   7.237
 2328SOL    HW1 7436   1.390   2.899   7.234
 2328SOL    HW2 7437   1.359   2.780   7.146
 2329SOL     OW 7438   0.819   2.430   5.950
 2329SOL    HW1 7439   0.825   2.356   5.891
 2329SOL    HW2 7440   0.744   2.481   5.918
 2330SOL     OW 7441   1.653   2.516   6.798
 2330SOL    HW1 7442   1.675   2.451   6.865
 2330SOL    HW2 7443   1.717   2.500   6.728
 2331SOL     OW 7444   0.301   3.406   7.308
 2331SOL    HW1 7445   0.254   3.475   7.355
 2331SOL    HW2 7446   0.273   3.324   7.350
 2332SOL     OW 7447   0.710   2.310   6.840
 2332SOL    HW1 7448   0.656   2.236   6.813
 2332SOL    HW2 7449   0.703   2.373   6.768
 2333SOL     OW 7450   0.925   3.532   7.057
 2333SOL    HW1 7451   0.898   3.492   6.974
 2333SOL    HW2 7452   0.917   3.626   7.042
 2334SOL     OW 7453   0.450   2.350   5.783
 2334SOL    HW1 7454   0.516   2.417   5.801
 2334SOL    HW2 7455   0.371   2.399   5.761
 2335SOL     OW 7456   0.154   2.996   7.063
 2335SOL    HW1 7457   0.154   2.946   7.145
 2335SOL    HW2 7458   0.169   2.931   6.995
 2336SOL     OW 7459   1.321   2.911   6.804
 2336SOL    HW1 7460   1.342   2.847   6.737
 2336SOL    HW2 7461   1.253   2.966   6.765
 2337SOL     OW 7462   1.311   2.728   5.889
 2337SOL    HW1 7463   1.240   2.689   5.940
 2337SOL    HW2 7464   1.288   2.710   5.798
 2338SOL     OW 7465   1.777   3.598   6.740
 2338SOL    HW1 7466   1.838   3.626   6.673
 2338SOL    HW2 7467   1.752   3.509   6.716
 2339SOL     OW 7468   1.245   3.594   6.691
 2339SOL    HW1 7469   1.328   3.617   6.650
 2339SOL    HW2 7470   1.253   3.501   6.712
 2340SOL     OW 7471   0.077   3.075   6.614
 2340SOL    HW1 7472   0.084   3.103   6.706
 2340SOL    HW2 7473   3.985   3.088   6.592
 2341SOL     OW 7474   0.680   3.529   7.324
 2341SOL    HW1 7475   0.621   3.604   7.328
 2341SOL    HW2 7476   0.741   3.550   7.253
 2342SOL     OW 7477   1.665   1.984   6.037
 2342SOL    HW1 7478   1.759   1.993   6.050
 2342SOL    HW2 7479   1.641   1.906   6.087
 2343SOL     OW 7480   1.391   3.431   6.076
 2343SOL    HW1 7481   1.450   3.465   6.008
 2343SOL    HW2 7482   1.342   3.507   6.106
 2344SOL     OW 7483   0.172   3.619   7.420
 2344SOL    HW1 7484   0.118   3.566   7.478
 2344SOL    HW2 7485   0.218   3.680   7.478
 2345SOL     OW 7486   1.269   2.805   6.260
 2345SOL    HW1 7487   1.341   2.745   6.276
 2345SOL    HW2 7488   1.306   2.873   6.203
 2346SOL     OW 7489   0.805   3.138   7.011
 2346SOL    HW1 7490   0.777   3.180   7.092
 2346SOL    HW2 7491   0.733   3.154   6.950
 2347SOL     OW 7492   0.674   3.481   5.745
 2347SOL    HW1 7493   0.684   3.499   5.652
 2347SOL    HW2 7494   0.615   3.407   5.750
 2348SOL     OW 7495   1.620   3.589   6.976
 2348SOL    HW1 7496   1.673   3.593   6.897
 2348SOL    HW2 7497   1.605   3.681   7.000
 2349SOL     OW 7498   0.264   2.173   6.301
 2349SOL    HW1 7499   0.177   2.204   6.276
 2349SOL    HW2 7500   0.260   2.164   6.396
 2350SOL     OW 7501   1.208   3.463   5.623
 2350SOL    HW1 7502   1.197   3.371   5.647
 2350SOL    HW2 7503   1.147   3.476   5.551
 2351SOL     OW 7504   0.823   2.868   6.962
 2351SOL    HW1 7505   0.867   2.862   6.877
 2351SOL    HW2 7506   0.820   2.962   6.980
 2352SOL     OW 7507   0.916   2.773   5.877
 2352SOL    HW1 7508   0.975   2.806   5.810
 2352SOL    HW2 7509   0.966   2.705   5.922
 2353SOL     OW 7510   1.488   3.494   5.630
 2353SOL    HW1 7511   1.394   3.481   5.613
 2353SOL    HW2 7512   1.527   3.499   5.543
 2354SOL     OW 7513   0.374   3.164   7.077
 2354SOL    HW1 7514   0.359   3.245   7.027
 2354SOL    HW2 7515   0.297   3.110   7.060
 2355SOL     OW 7516   1.605   3.146   6.862
 2355SOL    HW1 7517   1.667   3.128   6.933
 2355SOL    HW2 7518   1.548   3.214   6.898
 2356SOL     OW 7519   1.053   2.977   6.295
 2356SOL    HW1 7520   0.983   2.924   6.333
 2356SOL    HW2 7521   1.121   2.914   6.271
 2357SOL     OW 7522   0.994   2.109   6.557
 2357SOL    HW1 7523   1.012   2.066   6.474
 2357SOL    HW2 7524   0.996   2.038   6.622
 2358SOL     OW 7525   0.607   3.352   6.066
 2358SOL    HW1 7526   0.655   3.302   6.000
 2358SOL    HW2 7527   0.533   3.390   6.019
 2359SOL     OW 7528   1.748   2.277   6.924
 2359SOL    HW1 7529   1.820   2.337   6.945
 2359SOL    HW2 7530   1.733   2.228   7.005
 2360SOL     OW 7531   0.254   3.202   5.878
 2360SOL    HW1 7532   0.160   3.207   5.861
 2360SOL    HW2 7533   0.265   3.241   5.964
 2361SOL     OW 7534   0.109   2.858   7.304
 2361SOL    HW1 7535   0.050   2.853   7.379
 2361SOL    HW2 7536   0.196   2.842   7.341
 2362SOL     OW 7537   0.675   2.059   7.087
 2362SOL    HW1 7538   0.759   2.036   7.047
 2362SOL    HW2 7539   0.698   2.092   7.174
 2363SOL     OW 7540   0.080   2.172   5.623
 2363SOL    HW1 7541   3.985   2.172   5.632
 2363SOL    HW2 7542   0.101   2.253   5.577
 2364SOL     OW 7543   1.422   2.727   6.980
 2364SOL    HW1 7544   1.375   2.789   6.923
 2364SOL    HW2 7545   1.514   2.737   6.955
 2365SOL     OW 7546   0.014   2.106   5.965
 2365SOL    HW1 7547   0.046   2.169   5.900
 2365SOL    HW2 7548   0.094   2.061   5.995
 2366SOL     OW 7549   1.177   3.196   5.703
 2366SOL    HW1 7550   1.086   3.168   5.704
 2366SOL    HW2 7551   1.203   3.197   5.795
 2367SOL     OW 7552   0.621   2.692   7.024
 2367SOL    HW1 7553   0.677   2.768   7.009
 2367SOL    HW2 7554   0.681   2.618   7.030
 2368SOL     OW 7555   1.487   3.644   6.568
 2368SOL    HW1 7556   1.509   3.706   6.499
 2368SOL    HW2 7557   1.571   3.617   6.605
 2369SOL     OW 7558   0.717   2.422   7.288
 2369SOL    HW1 7559   0.763   2.481   7.347
 2369SOL    HW2 7560   0.738   2.334   7.320
 2370SOL     OW 7561   1.475   3.059   7.215
 2370SOL    HW1 7562   1.463   3.074   7.309
 2370SOL    HW2 7563   1.567   3.077   7.199
 2371SOL     OW 7564   0.377   3.610   7.146
 2371SOL    HW1 7565   0.289   3.646   7.134
 2371SOL    HW2 7566   0.364   3.526   7.190
 2372SOL     OW 7567   1.669   2.777   6.852
 2372SOL    HW1 7568   1.666   2.687   6.821
 2372SOL    HW2 7569   1.657   2.830   6.773
 2373SOL     OW 7570   1.201   2.184   6.033
 2373SOL    HW1 7571   1.269   2.120   6.013
 2373SOL    HW2 7572   1.231   2.226   6.114
 2374SOL     OW 7573   0.587   2.598   6.261
 2374SOL    HW1 7574   0.626   2.684   6.246
 2374SOL    HW2 7575   0.523   2.588   6.191
 2375SOL     OW 7576   1.732   2.814   7.108
 2375SOL    HW1 7577   1.738   2.909   7.121
 2375SOL    HW2 7578   1.724   2.803   7.014
 2376SOL     OW 7579   0.866   3.228   5.630
 2376SOL    HW1 7580   0.824   3.256   5.711
 2376SOL    HW2 7581   0.878   3.309   5.580
 2377SOL     OW 7582   0.658   3.648   6.515
 2377SOL    HW1 7583   0.638   3.740   6.499
 2377SOL    HW2 7584   0.754   3.644   6.516
 2378SOL     OW 7585   0.869   2.832   6.440
 2378SOL    HW1 7586   0.919   2.760   6.479
 2378SOL    HW2 7587   0.830   2.877   6.515
 2379SOL     OW 7588   1.074   2.850   5.673
 2379SOL    HW1 7589   1.055   2.902   5.595
 2379SOL    HW2 7590   1.149   2.796   5.648
 2380SOL     OW 7591   1.848   3.411   6.426
 2380SOL    HW1 7592   1.766   3.401   6.378
 2380SOL    HW2 7593   1.843   3.347   6.497
 2381SOL     OW 7594   0.230   3.166   7.443
 2381SOL    HW1 7595   0.153   3.116   7.416
 2381SOL    HW2 7596   0.217   3.179   7.537
 2382SOL     OW 7597   0.122   3.145   6.311
 2382SOL    HW1 7598   0.141   3.093   6.389
 2382SOL    HW2 7599   0.104   3.081   6.243
 2383SOL     OW 7600   0.685   3.269   7.218
 2383SOL    HW1 7601   0.605   3.227   7.249
 2383SOL    HW2 7602   0.682   3.357   7.255
 2384SOL     OW 7603   0.440   2.295   6.121
 2384SOL    HW1 7604   0.443   2.225   6.056
 2384SOL    HW2 7605   0.384   2.261   6.191
 2385SOL     OW 7606   1.698   3.347   6.675
 2385SOL    HW1 7607   1.617   3.326   6.628
 2385SOL    HW2 7608   1.705   3.278   6.741
 2386SOL     OW 7609   0.337   2.422   6.879
 2386SOL    HW1 7610   0.390   2.363   6.933
 2386SOL    HW2 7611   0.351   2.389   6.789
 2387SOL     OW 7612   0.830   3.441   6.262
 2387SOL    HW1 7613   0.809   3.499   6.188
 2387SOL    HW2 7614   0.757   3.380   6.266
 2388SOL     OW 7615   0.999   1.879   6.720
 2388SOL    HW1 7616   0.961   1.805   6.674
 2388SOL    HW2 7617   1.091   1.854   6.733
 2389SOL     OW 7618   0.774   3.194   5.908
 2389SOL    HW1 7619   0.746   3.103   5.915
 2389SOL    HW2 7620   0.856   3.198   5.956
 2390SOL     OW 7621   0.621   3.415   6.873
 2390SOL    HW1 7622   0.621   3.497   6.922
 2390SOL    HW2 7623   0.709   3.410   6.836
 2391SOL     OW 7624   1.337   1.889   5.683
 2391SOL    HW1 7625   1.354   1.815   5.625
 2391SOL    HW2 7626   1.252   1.871   5.722
 2392SOL     OW 7627   1.252   2.358   6.258
 2392SOL    HW1 7628   1.204   2.439   6.246
 2392SOL    HW2 7629   1.231   2.329   6.347
 2393SOL     OW 7630   0.048   2.908   5.828
 2393SOL    HW1 7631   0.142   2.894   5.820
 2393SOL    HW2 7632   0.012   2.822   5.850
 2394SOL     OW 7633   0.888   3.525   5.927
 2394SOL    HW1 7634   0.816   3.506   5.867
 2394SOL    HW2 7635   0.857   3.598   5.980
 2395SOL     OW 7636   0.230   2.490   7.565
 2395SOL    HW1 7637   0.137   2.497   7.587
 2395SOL    HW2 7638   0.232   2.456   7.476
 2396SOL     OW 7639   0.229   2.135   8.434
 2396SOL    HW1 7640   0.251   2.099   8.521
 2396SOL    HW2 7641   0.134   2.128   8.428
 2397SOL     OW 7642   0.005   2.219   8.078
 2397SOL    HW1 7643   3.915   2.237   8.105
 2397SOL    HW2 7644   3.997   2.191   7.987
 2398SOL     OW 7645   0.582   3.155   8.645
 2398SOL    HW1 7646   0.496   3.157   8.602
 2398SOL    HW2 7647   0.596   3.244   8.676
 2399SOL     OW 7648   1.568   3.373   8.158
 2399SOL    HW1 7649   1.525   3.350   8.240
 2399SOL    HW2 7650   1.497   3.376   8.094
 2400SOL     OW 7651   1.132   2.561   8.145
 2400SOL    HW1 7652   1.179   2.643   8.132
 2400SOL    HW2 7653   1.085   2.574   8.228
 2401SOL     OW 7654   0.748   2.998   8.493
 2401SOL    HW1 7655   0.687   3.036   8.557
 2401SOL    HW2 7656   0.786   3.074   8.449
 2402SOL     OW 7657   0.874   2.625   9.272
 2402SOL    HW1 7658   0.865   2.696   9.336
 2402SOL    HW2 7659   0.896   2.670   9.190
 2403SOL     OW 7660   0.685   2.861   8.093
 2403SOL    HW1 7661   0.752   2.852   8.161
 2403SOL    HW2 7662   0.616   2.914   8.133
 2404SOL     OW 7663   0.714   3.011   9.268
 2404SOL    HW1 7664   0.762   3.088   9.298
 2404SOL    HW2 7665   0.634   3.046   9.229
 2405SOL     OW 7666   0.351   3.262   8.526
 2405SOL    HW1 7667   0.270   3.244   8.478
 2405SOL    HW2 7668   0.401   3.319   8.469
 2406SOL     OW 7669   1.459   3.364   8.808
 2406SOL    HW1 7670   1.513   3.442   8.818
 2406SOL    HW2 7671   1.391   3.374   8.874
 2407SOL     OW 7672   0.450   2.257   8.932
 2407SOL    HW1 7673   0.526   2.199   8.936
 2407SOL    HW2 7674   0.375   2.200   8.947
 2408SOL     OW 7675   1.610   2.307   8.196
 2408SOL    HW1 7676   1.553   2.324   8.120
 2408SOL    HW2 7677   1.592   2.379   8.256
 2409SOL     OW 7678   0.221   3.572   7.913
 2409SOL    HW1 7679   0.219   3.658   7.957
 2409SOL    HW2 7680   0.298   3.577   7.856
 2410SOL     OW 7681   1.138   3.204   9.143
 2410SOL    HW1 7682   1.179   3.196   9.229
 2410SOL    HW2 7683   1.085   3.124   9.134
 2411SOL     OW 7684   0.254   3.307   7.987
 2411SOL    HW1 7685   0.224   3.397   7.973
 2411SOL    HW2 7686   0.186   3.267   8.040
 2412SOL     OW 7687   0.249   2.927   8.331
 2412SOL    HW1 7688   0.269   2.842   8.369
 2412SOL    HW2 7689   0.195   2.971   8.397
 2413SOL     OW 7690   0.608   3.648   8.873
 2413SOL    HW1 7691   0.526   3.635   8.921
 2413SOL    HW2 7692   0.636   3.737   8.898
 2414SOL     OW 7693   0.574   2.850   7.588
 2414SOL    HW1 7694   0.624   2.893   7.519
 2414SOL    HW2 7695   0.614   2.879   7.670
 2415SOL     OW 7696   1.585   1.996   8.906
 2415SOL    HW1 7697   1.586   2.083   8.865
 2415SOL    HW2 7698   1.574   2.014   9.000
 2416SOL     OW 7699   0.144   2.520   8.021
 2416SOL    HW1 7700   0.087   2.443   8.018
 2416SOL    HW2 7701   0.108   2.574   8.092
 2417SOL     OW 7702   1.844   3.604   7.786
 2417SOL    HW1 7703   1.914   3.582   7.847
 2417SOL    HW2 7704   1.861   3.695   7.762
 2418SOL     OW 7705   0.040   3.450   7.587
 2418SOL    HW1 7706   0.037   3.359   7.616
 2418SOL    HW2 7707   3.953   3.485   7.608
 2419SOL     OW 7708   1.683   2.792   8.101
 2419SOL    HW1 7709   1.757   2.744   8.065
 2419SOL    HW2 7710   1.650   2.845   8.028
 2420SOL     OW 7711   1.644   2.973   7.875
 2420SOL    HW1 7712   1.730   2.972   7.834
 2420SOL    HW2 7713   1.652   3.034   7.948
 2421SOL     OW 7714   0.144   2.614   9.038
 2421SOL    HW1 7715   0.239   2.611   9.032
 2421SOL    HW2 7716   0.125   2.701   9.074
 2422SOL     OW 7717   0.618   3.250   8.182
 2422SOL    HW1 7718   0.570   3.167   8.191
 2422SOL    HW2 7719   0.600   3.278   8.092
 2423SOL     OW 7720   1.285   3.097   8.869
 2423SOL    HW1 7721   1.316   3.029   8.809
 2423SOL    HW2 7722   1.345   3.092   8.944
 2424SOL     OW 7723   0.824   1.864   7.964
 2424SOL    HW1 7724   0.865   1.947   7.938
 2424SOL    HW2 7725   0.730   1.883   7.966
 2425SOL     OW 7726   0.183   2.810   8.730
 2425SOL    HW1 7727   0.271   2.775   8.718
 2425SOL    HW2 7728   0.133   2.776   8.656
 2426SOL     OW 7729   1.531   2.857   7.648
 2426SOL    HW1 7730   1.461   2.802   7.682
 2426SOL    HW2 7731   1.572   2.895   7.726
 2427SOL     OW 7732   1.224   3.668   9.077
 2427SOL    HW1 7733   1.196   3.729   9.009
 2427SOL    HW2 7734   1.223   3.583   9.034
 2428SOL     OW 7735   0.344   2.109   9.268
 2428SOL    HW1 7736   0.378   2.198   9.275
 2428SOL    HW2 7737   0.252   2.116   9.292
 2429SOL     OW 7738   1.466   3.281   8.395
 2429SOL    HW1 7739   1.400   3.297   8.463
 2429SOL    HW2 7740   1.453   3.190   8.370
 2430SOL     OW 7741   1.652   3.605   8.030
 2430SOL    HW1 7742   1.638   3.572   7.940
 2430SOL    HW2 7743   1.631   3.530   8.085
 2431SOL     OW 7744   0.596   2.575   7.716
 2431SOL    HW1 7745   0.601   2.660   7.672
 2431SOL    HW2 7746   0.533   2.588   7.787
 2432SOL     OW 7747   1.281   2.231   8.386
 2432SOL    HW1 7748   1.193   2.194   8.393
 2432SOL    HW2 7749   1.336   2.173   8.438
 2433SOL     OW 7750   1.575   3.538   7.757
 2433SOL    HW1 7751   1.669   3.559   7.751
 2433SOL    HW2 7752   1.549   3.520   7.667
 2434SOL     OW 7753   0.790   2.480   8.897
 2434SOL    HW1 7754   0.764   2.453   8.985
 2434SOL    HW2 7755   0.756   2.411   8.840
 2435SOL     OW 7756   1.393   2.335   9.125
 2435SOL    HW1 7757   1.397   2.381   9.209
 2435SOL    HW2 7758   1.454   2.262   9.135
 2436SOL     OW 7759   0.950   2.747   9.034
 2436SOL    HW1 7760   1.005   2.678   8.995
 2436SOL    HW2 7761   0.901   2.783   8.960
 2437SOL     OW 7762   0.994   2.272   8.682
 2437SOL    HW1 7763   0.904   2.289   8.711
 2437SOL    HW2 7764   0.983   2.230   8.596
 2438SOL     OW 7765   1.051   2.564   7.876
 2438SOL    HW1 7766   1.071   2.555   7.969
 2438SOL    HW2 7767   0.969   2.516   7.864
 2439SOL     OW 7768   0.083   2.694   8.237
 2439SOL    HW1 7769   0.154   2.662   8.292
 2439SOL    HW2 7770   0.105   2.786   8.220
 2440SOL     OW 7771   0.127   3.720   9.030
 2440SOL    HW1 7772   0.136   3.688   9.120
 2440SOL    HW2 7773   0.035   3.707   9.008
 2441SOL     OW 7774   0.897   2.211   7.642
 2441SOL    HW1 7775   0.938   2.274   7.582
 2441SOL    HW2 7776   0.915   2.126   7.604
 2442SOL     OW 7777   1.699   2.437   9.284
 2442SOL    HW1 7778   1.666   2.509   9.230
 2442SOL    HW2 7779   1.731   2.372   9.221
 2443SOL     OW 7780   1.380   3.004   7.986
 2443SOL    HW1 7781   1.460   2.995   7.934
 2443SOL    HW2 7782   1.326   3.066   7.937
 2444SOL     OW 7783   0.547   2.039   8.344
 2444SOL    HW1 7784   0.554   2.072   8.434
 2444SOL    HW2 7785   0.546   2.118   8.290
 2445SOL     OW 7786   1.001   3.307   7.916
 2445SOL    HW1 7787   0.967   3.382   7.867
 2445SOL    HW2 7788   0.978   3.326   8.007
 2446SOL     OW 7789   0.359   3.674   8.314
 2446SOL    HW1 7790   0.441   3.625   8.327
 2446SOL    HW2 7791   0.385   3.766   8.322
 2447SOL     OW 7792   1.802   2.914   8.321
 2447SOL    HW1 7793   1.751   2.892   8.244
 2447SOL    HW2 7794   1.738   2.921   8.392
 2448SOL     OW 7795   1.227   3.400   8.959
 2448SOL    HW1 7796   1.215   3.328   9.021
 2448SOL    HW2 7797   1.157   3.388   8.895
 2449SOL     OW 7798   0.311   2.814   7.691
 2449SOL    HW1 7799   0.394   2.836   7.648
 2449SOL    HW2 7800   0.299   2.720   7.672
 2450SOL     OW 7801   1.478   2.616   8.174
 2450SOL    HW1 7802   1.475   2.572   8.259
 2450SOL    HW2 7803   1.556   2.671   8.178
 2451SOL     OW 7804   0.471   3.123   9.185
 2451SOL    HW1 7805   0.445   3.131   9.093
 2451SOL    HW2 7806   0.388   3.125   9.233
 2452SOL     OW 7807   1.114   3.644   7.667
 2452SOL    HW1 7808   1.048   3.599   7.720
 2452SOL    HW2 7809   1.145   3.577   7.606
 2453SOL     OW 7810   0.204   2.130   8.956
 2453SOL    HW1 7811   0.114   2.164   8.953
 2453SOL    HW2 7812   0.194   2.041   8.991
 2454SOL     OW 7813   1.627   3.244   7.541
 2454SOL    HW1 7814   1.587   3.329   7.523
 2454SOL    HW2 7815   1.559   3.180   7.519
 2455SOL     OW 7816   0.466   3.604   7.769
 2455SOL    HW1 7817   0.506   3.664   7.831
 2455SOL    HW2 7818   0.539   3.574   7.715
 2456SOL     OW 7819   0.257   3.657   8.671
 2456SOL    HW1 7820   0.297   3.587   8.723
 2456SOL    HW2 7821   0.254   3.622   8.582
 2457SOL     OW 7822   0.938   3.565   8.346
 2457SOL    HW1 7823   1.016   3.514   8.369
 2457SOL    HW2 7824   0.896   3.514   8.276
 2458SOL     OW 7825   0.401   2.554   7.918
 2458SOL    HW1 7826   0.424   2.462   7.934
 2458SOL    HW2 7827   0.309   2.561   7.945
 2459SOL     OW 7828   1.533   2.085   9.172
 2459SOL    HW1 7829   1.547   2.106   9.264
 2459SOL    HW2 7830   1.462   2.021   9.173
 2460SOL     OW 7831   0.649   1.977   7.543
 2460SOL    HW1 7832   0.706   1.904   7.565
 2460SOL    HW2 7833   0.597   1.946   7.469
 2461SOL     OW 7834   0.765   2.141   9.203
 2461SOL    HW1 7835   0.846   2.090   9.199
 2461SOL    HW2 7836   0.719   2.108   9.280
 2462SOL     OW 7837   0.876   3.383   8.642
 2462SOL    HW1 7838   0.858   3.345   8.556
 2462SOL    HW2 7839   0.945   3.328   8.679
 2463SOL     OW 7840   1.339   2.451   8.881
 2463SOL    HW1 7841   1.370   2.420   8.966
 2463SOL    HW2 7842   1.376   2.539   8.872
 2464SOL     OW 7843   0.819   3.251   8.393
 2464SOL    HW1 7844   0.904   3.240   8.351
 2464SOL    HW2 7845   0.756   3.255   8.320
 2465SOL     OW 7846   0.929   2.371   8.348
 2465SOL    HW1 7847   0.904   2.363   8.256
 2465SOL    HW2 7848   0.960   2.284   8.373
 2466SOL     OW 7849   0.559   1.924   7.940
 2466SOL    HW1 7850   0.477   1.929   7.990
 2466SOL    HW2 7851   0.562   2.005   7.890
 2467SOL     OW 7852   1.428   3.062   7.487
 2467SOL    HW1 7853   1.456   2.986   7.539
 2467SOL    HW2 7854   1.342   3.085   7.524
 2468SOL     OW 7855   0.310   1.913   7.617
 2468SOL    HW1 7856   0.372   1.951   7.555
 2468SOL    HW2 7857   0.361   1.848   7.665
 2469SOL     OW 7858   0.942   2.111   7.905
 2469SOL    HW1 7859   0.914   2.149   7.823
 2469SOL    HW2 7860   1.037   2.127   7.908
 2470SOL     OW 7861   1.080   2.546   8.905
 2470SOL    HW1 7862   1.015   2.476   8.909
 2470SOL    HW2 7863   1.164   2.500   8.899
 2471SOL     OW 7864   1.219   3.434   8.242
 2471SOL    HW1 7865   1.233   3.500   8.175
 2471SOL    HW2 7866   1.289   3.449   8.306
 2472SOL     OW 7867   0.467   3.014   8.180
 2472SOL    HW1 7868   0.397   2.989   8.240
 2472SOL    HW2 7869   0.431   2.999   8.093
 2473SOL     OW 7870   1.264   3.654   8.058
 2473SOL    HW1 7871   1.313   3.718   8.007
 2473SOL    HW2 7872   1.190   3.703   8.094
 2474SOL     OW 7873   1.027   2.395   7.470
 2474SOL    HW1 7874   0.984   2.480   7.456
 2474SOL    HW2 7875   1.085   2.410   7.544
 2475SOL     OW 7876   0.084   2.436   8.837
 2475SOL    HW1 7877   0.174   2.423   8.807
 2475SOL    HW2 7878   0.091   2.505   8.903
 2476SOL     OW 7879   0.567   2.089   8.616
 2476SOL    HW1 7880   0.608   2.015   8.660
 2476SOL    HW2 7881   0.475   2.085   8.644
 2477SOL     OW 7882   0.866   2.319   8.087
 2477SOL    HW1 7883   0.821   2.374   8.023
 2477SOL    HW2 7884   0.890   2.240   8.039
 2478SOL     OW 7885   1.020   1.914   8.196
 2478SOL    HW1 7886   0.962   1.911   8.120
 2478SOL    HW2 7887   0.994   1.840   8.250
 2479SOL     OW 7888   1.439   3.023   8.305
 2479SOL    HW1 7889   1.368   2.959   8.305
 2479SOL    HW2 7890   1.465   3.030   8.213
 2480SOL     OW 7891   1.466   2.470   8.415
 2480SOL    HW1 7892   1.408   2.394   8.418
 2480SOL    HW2 7893   1.522   2.461   8.491
 2481SOL     OW 7894   1.824   2.706   7.870
 2481SOL    HW1 7895   1.884   2.642   7.909
 2481SOL    HW2 7896   1.785   2.659   7.796
 2482SOL     OW 7897   0.488   3.284   7.605
 2482SOL    HW1 7898   0.411   3.254   7.655
 2482SOL    HW2 7899   0.474   3.249   7.517
 2483SOL     OW 7900   1.676   3.126   8.091
 2483SOL    HW1 7901   1.771   3.125   8.105
 2483SOL    HW2 7902   1.649   3.215   8.113
 2484SOL     OW 7903   0.574   2.129   7.762
 2484SOL    HW1 7904   0.609   2.083   7.686
 2484SOL    HW2 7905   0.543   2.213   7.727
 2485SOL     OW 7906   1.749   3.105   9.011
 2485SOL    HW1 7907   1.836   3.066   9.005
 2485SOL    HW2 7908   1.765   3.195   9.040
 2486SOL     OW 7909   1.054   3.214   8.779
 2486SOL    HW1 7910   0.979   3.183   8.830
 2486SOL    HW2 7911   1.130   3.173   8.821
 2487SOL     OW 7912   1.610   3.490   9.106
 2487SOL    HW1 7913   1.601   3.523   9.017
 2487SOL    HW2 7914   1.693   3.440   9.105
 2488SOL     OW 7915   1.135   3.072   8.550
 2488SOL    HW1 7916   1.075   3.109   8.614
 2488SOL    HW2 7917   1.105   3.106   8.466
 2489SOL     OW 7918   1.623   2.958   8.524
 2489SOL    HW1 7919   1.617   3.021   8.595
 2489SOL    HW2 7920   1.547   2.976   8.468
 2490SOL     OW 7921   0.918   1.955   8.840
 2490SOL    HW1 7922   0.941   1.937   8.749
 2490SOL    HW2 7923   0.997   1.995   8.877
 2491SOL     OW 7924   0.984   2.977   9.171
 2491SOL    HW1 7925   0.893   2.993   9.195
 2491SOL    HW2 7926   0.981   2.898   9.116
 2492SOL     OW 7927   0.708   2.923   7.819
 2492SOL    HW1 7928   0.694   2.904   7.912
 2492SOL    HW2 7929   0.783   2.870   7.794
 2493SOL     OW 7930   0.423   2.681   8.701
 2493SOL    HW1 7931   0.491   2.689   8.768
 2493SOL    HW2 7932   0.390   2.592   8.712
 2494SOL     OW 7933   1.263   2.235   8.730
 2494SOL    HW1 7934   1.295   2.314   8.774
 2494SOL    HW2 7935   1.173   2.256   8.707
 2495SOL     OW 7936   0.065   3.441   8.792
 2495SOL    HW1 7937   0.070   3.479   8.704
 2495SOL    HW2 7938   0.157   3.434   8.820
 2496SOL     OW 7939   0.364   2.965   7.928
 2496SOL    HW1 7940   0.362   3.046   7.878
 2496SOL    HW2 7941   0.364   2.896   7.862
 2497SOL     OW 7942   0.546   2.395   8.310
 2497SOL    HW1 7943   0.560   2.453   8.234
 2497SOL    HW2 7944   0.615   2.420   8.372
 2498SOL     OW 7945   1.247   3.212   7.838
 2498SOL    HW1 7946   1.303   3.283   7.870
 2498SOL    HW2 7947   1.160   3.234   7.871
 2499SOL     OW 7948   1.289   3.322   8.597
 2499SOL    HW1 7949   1.344   3.327   8.675
 2499SOL    HW2 7950   1.233   3.246   8.611
 2500SOL     OW 7951   1.557   2.457   7.938
 2500SOL    HW1 7952   1.518   2.522   7.996
 2500SOL    HW2 7953   1.601   2.509   7.871
 2501SOL     OW 7954   0.345   3.391   8.764
 2501SOL    HW1 7955   0.335   3.340   8.684
 2501SOL    HW2 7956   0.439   3.405   8.772
 2502SOL     OW 7957   0.420   2.599   9.050
 2502SOL    HW1 7958   0.483   2.644   8.994
 2502SOL    HW2 7959   0.459   2.513   9.067
 2503SOL     OW 7960   1.607   2.644   9.133
 2503SOL    HW1 7961   1.522   2.686   9.127
 2503SOL    HW2 7962   1.660   2.686   9.065
 2504SOL     OW 7963   0.997   1.995   9.202
 2504SOL    HW1 7964   1.055   2.067   9.180
 2504SOL    HW2 7965   1.045   1.916   9.176
 2505SOL     OW 7966   0.496   1.895   9.196
 2505SOL    HW1 7967   0.451   1.844   9.129
 2505SOL    HW2 7968   0.443   1.974   9.205
 2506SOL     OW 7969   0.586   2.737   8.481
 2506SOL    HW1 7970   0.621   2.826   8.482
 2506SOL    HW2 7971   0.530   2.731   8.558
 2507SOL     OW 7972   1.348   2.720   8.471
 2507SOL    HW1 7973   1.263   2.705   8.430
 2507SOL    HW2 7974   1.394   2.636   8.461
 2508SOL     OW 7975   1.179   2.398   7.696
 2508SOL    HW1 7976   1.207   2.322   7.746
 2508SOL    HW2 7977   1.145   2.459   7.761
 2509SOL     OW 7978   0.309   2.057   8.695
 2509SOL    HW1 7979   0.262   2.092   8.770
 2509SOL    HW2 7980   0.287   1.964   8.695
 2510SOL     OW 7981   0.062   3.167   8.729
 2510SOL    HW1 7982   0.092   3.124   8.809
 2510SOL    HW2 7983   0.054   3.259   8.752
 2511SOL     OW 7984   0.722   2.492   8.502
 2511SOL    HW1 7985   0.798   2.478   8.445
 2511SOL    HW2 7986   0.694   2.581   8.482
 2512SOL     OW 7987   1.739   2.821   9.306
 2512SOL    HW1 7988   1.696   2.754   9.253
 2512SOL    HW2 7989   1.678   2.838   9.377
 2513SOL     OW 7990   0.317   1.923   8.067
 2513SOL    HW1 7991   0.294   2.013   8.088
 2513SOL    HW2 7992   0.324   1.880   8.153
 2514SOL     OW 7993   1.029   2.620   8.406
 2514SOL    HW1 7994   1.020   2.637   8.500
 2514SOL    HW2 7995   1.002   2.529   8.396
 2515SOL     OW 7996   0.986   3.430   9.171
 2515SOL    HW1 7997   0.966   3.470   9.086
 2515SOL    HW2 7998   1.028   3.347   9.148
 2516SOL     OW 7999   1.852   3.363   9.051
 2516SOL    HW1 8000   1.873   3.391   8.962
 2516SOL    HW2 8001   1.932   3.378   9.101
 2517SOL     OW 8002   0.355   2.785   9.247
 2517SOL    HW1 8003   0.433   2.806   9.298
 2517SOL    HW2 8004   0.384   2.717   9.186
 2518SOL     OW 8005   1.288   2.690   7.472
 2518SOL    HW1 8006   1.335   2.606   7.469
 2518SOL    HW2 8007   1.313   2.734   7.391
 2519SOL     OW 8008   1.069   3.201   8.305
 2519SOL    HW1 8009   1.074   3.129   8.242
 2519SOL    HW2 8010   1.127   3.268   8.269
 2520SOL     OW 8011   0.313   2.662   8.398
 2520SOL    HW1 8012   0.407   2.679   8.391
 2520SOL    HW2 8013   0.307   2.572   8.428
 2521SOL     OW 8014   0.327   2.384   8.463
 2521SOL    HW1 8015   0.293   2.296   8.448
 2521SOL    HW2 8016   0.404   2.390   8.406
 2522SOL     OW 8017   1.134   2.234   9.134
 2522SOL    HW1 8018   1.087   2.289   9.196
 2522SOL    HW2 8019   1.222   2.273   9.130
 2523SOL     OW 8020   1.160   2.060   8.921
 2523SOL    HW1 8021   1.149   2.122   8.992
 2523SOL    HW2 8022   1.202   2.110   8.851
 2524SOL     OW 8023   0.000   3.177   7.630
 2524SOL    HW1 8024   3.906   3.193   7.634
 2524SOL    HW2 8025   0.009   3.083   7.648
 2525SOL     OW 8026   0.076   3.662   8.343
 2525SOL    HW1 8027   0.095   3.569   8.336
 2525SOL    HW2 8028   0.162   3.705   8.344
 2526SOL     OW 8029   0.506   3.423   8.367
 2526SOL    HW1 8030   0.571   3.491   8.385
 2526SOL    HW2 8031   0.548   3.365   8.302
 2527SOL     OW 8032   0.974   2.650   8.672
 2527SOL    HW1 8033   1.033   2.631   8.744
 2527SOL    HW2 8034   0.890   2.610   8.698
 2528SOL     OW 8035   0.038   2.425   8.557
 2528SOL    HW1 8036   0.121   2.402   8.514
 2528SOL    HW2 8037   0.057   2.420   8.650
 2529SOL     OW 8038   0.206   2.373   9.176
 2529SOL    HW1 8039   0.243   2.323   9.103
 2529SOL    HW2 8040   0.164   2.448   9.134
 2530SOL     OW 8041   1.380   2.796   9.105
 2530SOL    HW1 8042   1.402   2.889   9.101
 2530SOL    HW2 8043   1.376   2.769   9.013
 2531SOL     OW 8044   0.819   2.431   7.814
 2531SOL    HW1 8045   0.826   2.356   7.755
 2531SOL    HW2 8046   0.745   2.481   7.780
 2532SOL     OW 8047   1.643   2.464   8.626
 2532SOL    HW1 8048   1.633   2.409   8.703
 2532SOL    HW2 8049   1.730   2.440   8.592
 2533SOL     OW 8050   0.301   3.406   9.170
 2533SOL    HW1 8051   0.254   3.475   9.217
 2533SOL    HW2 8052   0.273   3.325   9.212
 2534SOL     OW 8053   0.713   2.309   8.702
 2534SOL    HW1 8054   0.658   2.236   8.675
 2534SOL    HW2 8055   0.705   2.373   8.631
 2535SOL     OW 8056   0.925   3.532   8.919
 2535SOL    HW1 8057   0.898   3.492   8.836
 2535SOL    HW2 8058   0.917   3.626   8.904
 2536SOL     OW 8059   0.450   2.350   7.645
 2536SOL    HW1 8060   0.516   2.417   7.663
 2536SOL    HW2 8061   0.371   2.399   7.622
 2537SOL     OW 8062   0.154   2.996   8.925
 2537SOL    HW1 8063   0.154   2.946   9.007
 2537SOL    HW2 8064   0.169   2.931   8.857
 2538SOL     OW 8065   1.321   2.905   8.668
 2538SOL    HW1 8066   1.342   2.842   8.599
 2538SOL    HW2 8067   1.255   2.962   8.628
 2539SOL     OW 8068   1.315   2.717   7.751
 2539SOL    HW1 8069   1.244   2.686   7.807
 2539SOL    HW2 8070   1.284   2.704   7.662
 2540SOL     OW 8071   1.776   3.598   8.602
 2540SOL    HW1 8072   1.838   3.626   8.535
 2540SOL    HW2 8073   1.752   3.508   8.577
 2541SOL     OW 8074   1.245   3.594   8.553
 2541SOL    HW1 8075   1.328   3.616   8.512
 2541SOL    HW2 8076   1.253   3.500   8.574
 2542SOL     OW 8077   0.077   3.074   8.477
 2542SOL    HW1 8078   0.084   3.103   8.568
 2542SOL    HW2 8079   3.985   3.088   8.454
 2543SOL     OW 8080   0.680   3.529   9.187
 2543SOL    HW1 8081   0.621   3.604   9.190
 2543SOL    HW2 8082   0.741   3.550   9.115
 2544SOL     OW 8083   1.658   1.986   7.910
 2544SOL    HW1 8084   1.751   1.980   7.888
 2544SOL    HW2 8085   1.640   1.906   7.959
 2545SOL     OW 8086   1.392   3.430   7.938
 2545SOL    HW1 8087   1.450   3.465   7.870
 2545SOL    HW2 8088   1.342   3.507   7.968
 2546SOL     OW 8089   0.172   3.619   9.282
 2546SOL    HW1 8090   0.118   3.566   9.340
 2546SOL    HW2 8091   0.218   3.680   9.340
 2547SOL     OW 8092   1.275   2.793   8.119
 2547SOL    HW1 8093   1.349   2.732   8.132
 2547SOL    HW2 8094   1.311   2.863   8.065
 2548SOL     OW 8095   0.805   3.137   8.873
 2548SOL    HW1 8096   0.777   3.179   8.954
 2548SOL    HW2 8097   0.733   3.153   8.812
 2549SOL     OW 8098   0.674   3.481   7.607
 2549SOL    HW1 8099   0.684   3.499   7.514
 2549SOL    HW2 8100   0.615   3.406   7.612
 2550SOL     OW 8101   1.620   3.589   8.838
 2550SOL    HW1 8102   1.673   3.593   8.759
 2550SOL    HW2 8103   1.605   3.680   8.862
 2551SOL     OW 8104   0.264   2.173   8.162
 2551SOL    HW1 8105   0.177   2.204   8.138
 2551SOL    HW2 8106   0.260   2.164   8.258
 2552SOL     OW 8107   1.208   3.463   7.485
 2552SOL    HW1 8108   1.198   3.371   7.509
 2552SOL    HW2 8109   1.147   3.477   7.413
 2553SOL     OW 8110   0.823   2.868   8.823
 2553SOL    HW1 8111   0.867   2.861   8.739
 2553SOL    HW2 8112   0.820   2.962   8.842
 2554SOL     OW 8113   0.915   2.772   7.739
 2554SOL    HW1 8114   0.976   2.805   7.673
 2554SOL    HW2 8115   0.965   2.705   7.786
 2555SOL     OW 8116   1.488   3.494   7.492
 2555SOL    HW1 8117   1.395   3.481   7.475
 2555SOL    HW2 8118   1.527   3.499   7.405
 2556SOL     OW 8119   0.374   3.164   8.939
 2556SOL    HW1 8120   0.359   3.245   8.889
 2556SOL    HW2 8121   0.297   3.110   8.922
 2557SOL     OW 8122   1.608   3.146   8.727
 2557SOL    HW1 8123   1.668   3.131   8.800
 2557SOL    HW2 8124   1.548   3.213   8.759
 2558SOL     OW 8125   1.060   2.973   8.158
 2558SOL    HW1 8126   0.987   2.922   8.195
 2558SOL    HW2 8127   1.124   2.907   8.132
 2559SOL     OW 8128   1.026   2.104   8.415
 2559SOL    HW1 8129   1.023   2.058   8.331
 2559SOL    HW2 8130   1.020   2.035   8.480
 2560SOL     OW 8131   0.607   3.353   7.928
 2560SOL    HW1 8132   0.655   3.302   7.862
 2560SOL    HW2 8133   0.533   3.390   7.881
 2561SOL     OW 8134   1.729   2.252   8.822
 2561SOL    HW1 8135   1.801   2.315   8.831
 2561SOL    HW2 8136   1.763   2.184   8.764
 2562SOL     OW 8137   0.254   3.202   7.740
 2562SOL    HW1 8138   0.160   3.207   7.723
 2562SOL    HW2 8139   0.265   3.241   7.827
 2563SOL     OW 8140   0.109   2.858   9.166
 2563SOL    HW1 8141   0.050   2.854   9.240
 2563SOL    HW2 8142   0.196   2.842   9.203
 2564SOL     OW 8143   0.677   2.058   8.948
 2564SOL    HW1 8144   0.761   2.036   8.907
 2564SOL    HW2 8145   0.700   2.091   9.035
 2565SOL     OW 8146   0.080   2.171   7.485
 2565SOL    HW1 8147   3.985   2.172   7.493
 2565SOL    HW2 8148   0.101   2.253   7.439
 2566SOL     OW 8149   1.426   2.719   8.845
 2566SOL    HW1 8150   1.376   2.780   8.791
 2566SOL    HW2 8151   1.515   2.722   8.810
 2567SOL     OW 8152   0.014   2.106   7.827
 2567SOL    HW1 8153   0.045   2.169   7.762
 2567SOL    HW2 8154   0.094   2.062   7.857
 2568SOL     OW 8155   1.178   3.196   7.565
 2568SOL    HW1 8156   1.086   3.168   7.566
 2568SOL    HW2 8157   1.203   3.196   7.658
 2569SOL     OW 8158   0.621   2.692   8.886
 2569SOL    HW1 8159   0.677   2.768   8.870
 2569SOL    HW2 8160   0.681   2.618   8.892
 2570SOL     OW 8161   1.487   3.644   8.430
 2570SOL    HW1 8162   1.509   3.706   8.361
 2570SOL    HW2 8163   1.572   3.619   8.467
 2571SOL     OW 8164   0.716   2.422   9.150
 2571SOL    HW1 8165   0.762   2.482   9.209
 2571SOL    HW2 8166   0.738   2.335   9.183
 2572SOL     OW 8167   1.474   3.057   9.077
 2572SOL    HW1 8168   1.462   3.072   9.170
 2572SOL    HW2 8169   1.566   3.076   9.061
 2573SOL     OW 8170   0.377   3.610   9.008
 2573SOL    HW1 8171   0.289   3.646   8.996
 2573SOL    HW2 8172   0.364   3.526   9.052
 2574SOL     OW 8173   1.665   2.742   8.702
 2574SOL    HW1 8174   1.660   2.657   8.658
 2574SOL    HW2 8175   1.654   2.805   8.631
 2575SOL     OW 8176   1.212   2.184   7.896
 2575SOL    HW1 8177   1.287   2.131   7.868
 2575SOL    HW2 8178   1.243   2.230   7.974
 2576SOL     OW 8179   0.586   2.598   8.123
 2576SOL    HW1 8180   0.626   2.684   8.108
 2576SOL    HW2 8181   0.522   2.588   8.053
 2577SOL     OW 8182   1.750   2.245   9.098
 2577SOL    HW1 8183   1.737   2.248   9.003
 2577SOL    HW2 8184   1.689   2.178   9.128
 2578SOL     OW 8185   1.747   2.797   8.958
 2578SOL    HW1 8186   1.737   2.891   8.971
 2578SOL    HW2 8187   1.729   2.783   8.865
 2579SOL     OW 8188   0.866   3.228   7.492
 2579SOL    HW1 8189   0.824   3.255   7.573
 2579SOL    HW2 8190   0.878   3.309   7.442
 2580SOL     OW 8191   0.658   3.648   8.378
 2580SOL    HW1 8192   0.638   3.740   8.361
 2580SOL    HW2 8193   0.754   3.644   8.377
 2581SOL     OW 8194   0.869   2.832   8.301
 2581SOL    HW1 8195   0.919   2.759   8.338
 2581SOL    HW2 8196   0.831   2.876   8.377
 2582SOL     OW 8197   1.077   2.851   7.537
 2582SOL    HW1 8198   1.055   2.903   7.460
 2582SOL    HW2 8199   1.150   2.797   7.510
 2583SOL     OW 8200   1.847   3.411   8.288
 2583SOL    HW1 8201   1.766   3.401   8.238
 2583SOL    HW2 8202   1.838   3.350   8.361
 2584SOL     OW 8203   0.230   3.166   9.305
 2584SOL    HW1 8204   0.153   3.116   9.277
 2584SOL    HW2 8205   0.217   3.179   9.399
 2585SOL     OW 8206   0.122   3.145   8.173
 2585SOL    HW1 8207   0.141   3.093   8.251
 2585SOL    HW2 8208   0.103   3.081   8.105
 2586SOL     OW 8209   0.685   3.268   9.080
 2586SOL    HW1 8210   0.605   3.227   9.111
 2586SOL    HW2 8211   0.682   3.357   9.117
 2587SOL     OW 8212   0.440   2.295   7.983
 2587SOL    HW1 8213   0.444   2.225   7.918
 2587SOL    HW2 8214   0.384   2.261   8.052
 2588SOL     OW 8215   1.699   3.345   8.537
 2588SOL    HW1 8216   1.618   3.326   8.489
 2588SOL    HW2 8217   1.704   3.278   8.604
 2589SOL     OW 8218   0.337   2.422   8.741
 2589SOL    HW1 8219   0.390   2.363   8.795
 2589SOL    HW2 8220   0.351   2.390   8.651
 2590SOL     OW 8221   0.830   3.441   8.124
 2590SOL    HW1 8222   0.809   3.499   8.050
 2590SOL    HW2 8223   0.757   3.380   8.128
 2591SOL     OW 8224   1.435   2.093   8.570
 2591SOL    HW1 8225   1.440   2.004   8.603
 2591SOL    HW2 8226   1.381   2.140   8.633
 2592SOL     OW 8227   1.010   1.877   8.584
 2592SOL    HW1 8228   0.956   1.811   8.541
 2592SOL    HW2 8229   1.098   1.839   8.585
 2593SOL     OW 8230   0.774   3.194   7.770
 2593SOL    HW1 8231   0.746   3.103   7.777
 2593SOL    HW2 8232   0.856   3.198   7.818
 2594SOL     OW 8233   0.621   3.415   8.735
 2594SOL    HW1 8234   0.621   3.498   8.784
 2594SOL    HW2 8235   0.709   3.410   8.698
 2595SOL     OW 8236   1.285   2.321   8.123
 2595SOL    HW1 8237   1.236   2.402   8.130
 2595SOL    HW2 8238   1.288   2.287   8.213
 2596SOL     OW 8239   1.567   2.045   8.325
 2596SOL    HW1 8240   1.533   2.079   8.407
 2596SOL    HW2 8241   1.587   2.123   8.273
 2597SOL     OW 8242   0.048   2.908   7.690
 2597SOL    HW1 8243   0.142   2.894   7.682
 2597SOL    HW2 8244   0.012   2.822   7.712
 2598SOL     OW 8245   0.888   3.525   7.789
 2598SOL    HW1 8246   0.816   3.506   7.729
 2598SOL    HW2 8247   0.857   3.598   7.842
 2599SOL     OW 8248   0.230   2.489   9.427
 2599SOL    HW1 8249   0.137   2.496   9.449
 2599SOL    HW2 8250   0.232   2.456   9.338
 2600SOL     OW 8251   0.230   2.135  10.297
 2600SOL    HW1 8252   0.251   2.099  10.383
 2600SOL    HW2 8253   0.134   2.128  10.290
 2601SOL     OW 8254   0.005   2.219   9.940
 2601SOL    HW1 8255   3.915   2.237   9.967
 2601SOL    HW2 8256   3.997   2.190   9.849
 2602SOL     OW 8257   0.582   3.155  10.507
 2602SOL    HW1 8258   0.496   3.157  10.464
 2602SOL    HW2 8259   0.596   3.244  10.538
 2603SOL     OW 8260   1.568   3.373  10.019
 2603SOL    HW1 8261   1.525   3.350  10.102
 2603SOL    HW2 8262   1.496   3.376   9.956
 2604SOL     OW 8263   1.134   2.560  10.006
 2604SOL    HW1 8264   1.181   2.642   9.993
 2604SOL    HW2 8265   1.086   2.572  10.088
 2605SOL     OW 8266   1.784   2.461   9.536
 2605SOL    HW1 8267   1.753   2.459   9.445
 2605SOL    HW2 8268   1.743   2.384   9.577
 2606SOL     OW 8269   0.748   2.998  10.355
 2606SOL    HW1 8270   0.687   3.036  10.419
 2606SOL    HW2 8271   0.786   3.074  10.311
 2607SOL     OW 8272   0.874   2.625  11.134
 2607SOL    HW1 8273   0.865   2.696  11.198
 2607SOL    HW2 8274   0.896   2.670  11.052
 2608SOL     OW 8275   0.685   2.861   9.955
 2608SOL    HW1 8276   0.752   2.852  10.023
 2608SOL    HW2 8277   0.616   2.914   9.995
 2609SOL     OW 8278   0.714   3.011  11.130
 2609SOL    HW1 8279   0.762   3.088  11.160
 2609SOL    HW2 8280   0.634   3.046  11.091
 2610SOL     OW 8281   0.351   3.262  10.388
 2610SOL    HW1 8282   0.269   3.244  10.340
 2610SOL    HW2 8283   0.401   3.319  10.331
 2611SOL     OW 8284   1.459   3.364  10.670
 2611SOL    HW1 8285   1.514   3.442  10.680
 2611SOL    HW2 8286   1.391   3.374  10.736
 2612SOL     OW 8287   0.450   2.257  10.793
 2612SOL    HW1 8288   0.526   2.199  10.798
 2612SOL    HW2 8289   0.375   2.200  10.809
 2613SOL     OW 8290   1.599   2.301  10.047
 2613SOL    HW1 8291   1.515   2.318  10.004
 2613SOL    HW2 8292   1.611   2.375  10.106
 2614SOL     OW 8293   0.221   3.572   9.775
 2614SOL    HW1 8294   0.218   3.658   9.819
 2614SOL    HW2 8295   0.298   3.577   9.718
 2615SOL     OW 8296   1.138   3.204  11.004
 2615SOL    HW1 8297   1.179   3.197  11.091
 2615SOL    HW2 8298   1.085   3.124  10.996
 2616SOL     OW 8299   0.254   3.307   9.849
 2616SOL    HW1 8300   0.225   3.397   9.835
 2616SOL    HW2 8301   0.185   3.267   9.902
 2617SOL     OW 8302   0.249   2.927  10.193
 2617SOL    HW1 8303   0.269   2.842  10.232
 2617SOL    HW2 8304   0.196   2.971  10.259
 2618SOL     OW 8305   0.608   3.648  10.735
 2618SOL    HW1 8306   0.526   3.635  10.783
 2618SOL    HW2 8307   0.636   3.737  10.760
 2619SOL     OW 8308   0.574   2.849   9.450
 2619SOL    HW1 8309   0.624   2.893   9.381
 2619SOL    HW2 8310   0.614   2.879   9.532
 2620SOL     OW 8311   1.588   1.996  10.770
 2620SOL    HW1 8312   1.592   2.082  10.729
 2620SOL    HW2 8313   1.576   2.015  10.863
 2621SOL     OW 8314   0.144   2.520   9.883
 2621SOL    HW1 8315   0.087   2.443   9.880
 2621SOL    HW2 8316   0.109   2.574   9.954
 2622SOL     OW 8317   1.844   3.604   9.647
 2622SOL    HW1 8318   1.914   3.581   9.708
 2622SOL    HW2 8319   1.861   3.695   9.624
 2623SOL     OW 8320   0.040   3.450   9.449
 2623SOL    HW1 8321   0.037   3.359   9.478
 2623SOL    HW2 8322   3.953   3.485   9.470
 2624SOL     OW 8323   1.689   2.781   9.954
 2624SOL    HW1 8324   1.770   2.736   9.930
 2624SOL    HW2 8325   1.666   2.833   9.877
 2625SOL     OW 8326   1.649   2.965   9.740
 2625SOL    HW1 8327   1.736   2.966   9.698
 2625SOL    HW2 8328   1.656   3.029   9.811
 2626SOL     OW 8329   0.144   2.614  10.900
 2626SOL    HW1 8330   0.239   2.611  10.894
 2626SOL    HW2 8331   0.125   2.701  10.936
 2627SOL     OW 8332   0.618   3.250  10.044
 2627SOL    HW1 8333   0.570   3.167  10.053
 2627SOL    HW2 8334   0.600   3.278   9.954
 2628SOL     OW 8335   1.285   3.097  10.731
 2628SOL    HW1 8336   1.316   3.029  10.671
 2628SOL    HW2 8337   1.345   3.092  10.806
 2629SOL     OW 8338   0.824   1.864   9.825
 2629SOL    HW1 8339   0.863   1.948   9.801
 2629SOL    HW2 8340   0.730   1.882   9.828
 2630SOL     OW 8341   0.183   2.810  10.592
 2630SOL    HW1 8342   0.271   2.775  10.580
 2630SOL    HW2 8343   0.133   2.775  10.518
 2631SOL     OW 8344   1.531   2.861   9.510
 2631SOL    HW1 8345   1.462   2.804   9.543
 2631SOL    HW2 8346   1.574   2.894   9.589
 2632SOL     OW 8347   1.224   3.668  10.939
 2632SOL    HW1 8348   1.196   3.730  10.871
 2632SOL    HW2 8349   1.223   3.583  10.896
 2633SOL     OW 8350   0.344   2.109  11.130
 2633SOL    HW1 8351   0.378   2.198  11.137
 2633SOL    HW2 8352   0.252   2.116  11.154
 2634SOL     OW 8353   1.466   3.281  10.257
 2634SOL    HW1 8354   1.400   3.297  10.325
 2634SOL    HW2 8355   1.453   3.190  10.232
 2635SOL     OW 8356   1.652   3.604   9.891
 2635SOL    HW1 8357   1.638   3.572   9.802
 2635SOL    HW2 8358   1.631   3.530   9.947
 2636SOL     OW 8359   0.596   2.575   9.578
 2636SOL    HW1 8360   0.601   2.660   9.534
 2636SOL    HW2 8361   0.533   2.588   9.649
 2637SOL     OW 8362   1.279   2.228  10.246
 2637SOL    HW1 8363   1.191   2.192  10.256
 2637SOL    HW2 8364   1.335   2.172  10.300
 2638SOL     OW 8365   1.576   3.538   9.619
 2638SOL    HW1 8366   1.669   3.559   9.613
 2638SOL    HW2 8367   1.549   3.520   9.529
 2639SOL     OW 8368   0.791   2.480  10.759
 2639SOL    HW1 8369   0.765   2.453  10.847
 2639SOL    HW2 8370   0.756   2.411  10.702
 2640SOL     OW 8371   1.393   2.334  10.987
 2640SOL    HW1 8372   1.397   2.380  11.071
 2640SOL    HW2 8373   1.455   2.262  10.997
 2641SOL     OW 8374   0.950   2.747  10.896
 2641SOL    HW1 8375   1.005   2.679  10.857
 2641SOL    HW2 8376   0.901   2.783  10.822
 2642SOL     OW 8377   0.994   2.272  10.544
 2642SOL    HW1 8378   0.905   2.289  10.574
 2642SOL    HW2 8379   0.983   2.229  10.459
 2643SOL     OW 8380   1.054   2.560   9.734
 2643SOL    HW1 8381   1.072   2.554   9.828
 2643SOL    HW2 8382   0.971   2.514   9.722
 2644SOL     OW 8383   0.083   2.694  10.099
 2644SOL    HW1 8384   0.154   2.662  10.154
 2644SOL    HW2 8385   0.105   2.786  10.082
 2645SOL     OW 8386   0.127   3.720  10.892
 2645SOL    HW1 8387   0.136   3.688  10.982
 2645SOL    HW2 8388   0.035   3.707  10.870
 2646SOL     OW 8389   0.899   2.212   9.504
 2646SOL    HW1 8390   0.939   2.276   9.445
 2646SOL    HW2 8391   0.912   2.128   9.461
 2647SOL     OW 8392   1.700   2.437  11.145
 2647SOL    HW1 8393   1.667   2.508  11.091
 2647SOL    HW2 8394   1.731   2.372  11.082
 2648SOL     OW 8395   1.381   3.004   9.850
 2648SOL    HW1 8396   1.460   2.992   9.797
 2648SOL    HW2 8397   1.327   3.066   9.800
 2649SOL     OW 8398   0.547   2.039  10.206
 2649SOL    HW1 8399   0.554   2.072  10.296
 2649SOL    HW2 8400   0.545   2.118  10.152
 2650SOL     OW 8401   1.001   3.307   9.779
 2650SOL    HW1 8402   0.967   3.382   9.729
 2650SOL    HW2 8403   0.978   3.326   9.870
 2651SOL     OW 8404   0.359   3.674  10.176
 2651SOL    HW1 8405   0.441   3.625  10.189
 2651SOL    HW2 8406   0.384   3.766  10.184
 2652SOL     OW 8407   1.801   2.913  10.182
 2652SOL    HW1 8408   1.748   2.894  10.104
 2652SOL    HW2 8409   1.736   2.920  10.253
 2653SOL     OW 8410   1.227   3.400  10.821
 2653SOL    HW1 8411   1.215   3.328  10.883
 2653SOL    HW2 8412   1.157   3.389  10.757
 2654SOL     OW 8413   0.311   2.814   9.553
 2654SOL    HW1 8414   0.394   2.836   9.510
 2654SOL    HW2 8415   0.299   2.721   9.534
 2655SOL     OW 8416   1.482   2.610  10.031
 2655SOL    HW1 8417   1.478   2.570  10.118
 2655SOL    HW2 8418   1.560   2.665  10.033
 2656SOL     OW 8419   0.471   3.123  11.047
 2656SOL    HW1 8420   0.445   3.131  10.955
 2656SOL    HW2 8421   0.388   3.125  11.095
 2657SOL     OW 8422   1.114   3.644   9.529
 2657SOL    HW1 8423   1.048   3.599   9.582
 2657SOL    HW2 8424   1.145   3.577   9.468
 2658SOL     OW 8425   0.203   2.130  10.819
 2658SOL    HW1 8426   0.114   2.164  10.815
 2658SOL    HW2 8427   0.194   2.041  10.854
 2659SOL     OW 8428   1.627   3.244   9.403
 2659SOL    HW1 8429   1.588   3.329   9.384
 2659SOL    HW2 8430   1.559   3.181   9.380
 2660SOL     OW 8431   0.466   3.604   9.631
 2660SOL    HW1 8432   0.506   3.664   9.693
 2660SOL    HW2 8433   0.539   3.574   9.577
 2661SOL     OW 8434   1.400   1.966   9.746
 2661SOL    HW1 8435   1.384   1.945   9.654
 2661SOL    HW2 8436   1.488   1.934   9.763
 2662SOL     OW 8437   0.257   3.657  10.533
 2662SOL    HW1 8438   0.297   3.587  10.585
 2662SOL    HW2 8439   0.254   3.622  10.444
 2663SOL     OW 8440   0.938   3.565  10.208
 2663SOL    HW1 8441   1.016   3.514  10.231
 2663SOL    HW2 8442   0.896   3.514  10.138
 2664SOL     OW 8443   0.401   2.553   9.780
 2664SOL    HW1 8444   0.424   2.462   9.797
 2664SOL    HW2 8445   0.309   2.560   9.807
 2665SOL     OW 8446   1.533   2.085  11.034
 2665SOL    HW1 8447   1.547   2.107  11.127
 2665SOL    HW2 8448   1.463   2.020  11.035
 2666SOL     OW 8449   0.650   1.977   9.404
 2666SOL    HW1 8450   0.705   1.903   9.427
 2666SOL    HW2 8451   0.597   1.946   9.330
 2667SOL     OW 8452   0.765   2.141  11.065
 2667SOL    HW1 8453   0.846   2.090  11.061
 2667SOL    HW2 8454   0.719   2.108  11.142
 2668SOL     OW 8455   0.876   3.383  10.504
 2668SOL    HW1 8456   0.858   3.345  10.418
 2668SOL    HW2 8457   0.945   3.328  10.541
 2669SOL     OW 8458   1.339   2.451  10.743
 2669SOL    HW1 8459   1.370   2.420  10.828
 2669SOL    HW2 8460   1.376   2.539  10.734
 2670SOL     OW 8461   0.819   3.251  10.255
 2670SOL    HW1 8462   0.904   3.240  10.213
 2670SOL    HW2 8463   0.757   3.255  10.182
 2671SOL     OW 8464   0.930   2.371  10.210
 2671SOL    HW1 8465   0.905   2.363  10.118
 2671SOL    HW2 8466   0.959   2.284  10.235
 2672SOL     OW 8467   0.559   1.924   9.802
 2672SOL    HW1 8468   0.478   1.929   9.852
 2672SOL    HW2 8469   0.563   2.006   9.752
 2673SOL     OW 8470   1.428   3.063   9.349
 2673SOL    HW1 8471   1.458   2.987   9.400
 2673SOL    HW2 8472   1.342   3.084   9.386
 2674SOL     OW 8473   0.309   1.913   9.479
 2674SOL    HW1 8474   0.370   1.952   9.417
 2674SOL    HW2 8475   0.361   1.849   9.527
 2675SOL     OW 8476   0.942   2.111   9.766
 2675SOL    HW1 8477   0.915   2.149   9.683
 2675SOL    HW2 8478   1.036   2.128   9.771
 2676SOL     OW 8479   1.080   2.546  10.767
 2676SOL    HW1 8480   1.015   2.476  10.771
 2676SOL    HW2 8481   1.164   2.500  10.761
 2677SOL     OW 8482   1.219   3.434  10.104
 2677SOL    HW1 8483   1.233   3.500  10.037
 2677SOL    HW2 8484   1.289   3.450  10.168
 2678SOL     OW 8485   0.467   3.014  10.042
 2678SOL    HW1 8486   0.397   2.989  10.102
 2678SOL    HW2 8487   0.431   2.998   9.954
 2679SOL     OW 8488   1.264   3.654   9.920
 2679SOL    HW1 8489   1.313   3.718   9.869
 2679SOL    HW2 8490   1.190   3.703   9.956
 2680SOL     OW 8491   1.024   2.397   9.336
 2680SOL    HW1 8492   0.980   2.480   9.317
 2680SOL    HW2 8493   1.090   2.419   9.402
 2681SOL     OW 8494   0.084   2.436  10.699
 2681SOL    HW1 8495   0.174   2.423  10.669
 2681SOL    HW2 8496   0.091   2.505  10.765
 2682SOL     OW 8497   0.567   2.089  10.478
 2682SOL    HW1 8498   0.608   2.015  10.523
 2682SOL    HW2 8499   0.475   2.085  10.506
 2683SOL     OW 8500   0.867   2.319   9.949
 2683SOL    HW1 8501   0.820   2.374   9.886
 2683SOL    HW2 8502   0.888   2.240   9.900
 2684SOL     OW 8503   1.018   1.916  10.058
 2684SOL    HW1 8504   0.959   1.911   9.983
 2684SOL    HW2 8505   0.994   1.842  10.113
 2685SOL     OW 8506   1.439   3.022  10.166
 2685SOL    HW1 8507   1.368   2.958  10.167
 2685SOL    HW2 8508   1.463   3.030  10.074
 2686SOL     OW 8509   1.465   2.471  10.278
 2686SOL    HW1 8510   1.408   2.394  10.282
 2686SOL    HW2 8511   1.522   2.462  10.354
 2687SOL     OW 8512   1.839   2.674   9.696
 2687SOL    HW1 8513   1.901   2.628   9.753
 2687SOL    HW2 8514   1.817   2.610   9.628
 2688SOL     OW 8515   0.488   3.284   9.467
 2688SOL    HW1 8516   0.411   3.254   9.517
 2688SOL    HW2 8517   0.474   3.249   9.379
 2689SOL     OW 8518   1.677   3.125   9.952
 2689SOL    HW1 8519   1.771   3.126   9.967
 2689SOL    HW2 8520   1.649   3.214   9.974
 2690SOL     OW 8521   1.393   2.436   9.379
 2690SOL    HW1 8522   1.334   2.414   9.451
 2690SOL    HW2 8523   1.479   2.407   9.408
 2691SOL     OW 8524   0.576   2.129   9.624
 2691SOL    HW1 8525   0.610   2.083   9.547
 2691SOL    HW2 8526   0.543   2.212   9.590
 2692SOL     OW 8527   1.749   3.105  10.873
 2692SOL    HW1 8528   1.836   3.066  10.867
 2692SOL    HW2 8529   1.765   3.195  10.902
 2693SOL     OW 8530   1.054   3.214  10.641
 2693SOL    HW1 8531   0.979   3.183  10.691
 2693SOL    HW2 8532   1.130   3.173  10.683
 2694SOL     OW 8533   1.610   3.490  10.968
 2694SOL    HW1 8534   1.601   3.523  10.879
 2694SOL    HW2 8535   1.693   3.440  10.967
 2695SOL     OW 8536   1.135   3.071  10.412
 2695SOL    HW1 8537   1.075   3.109  10.477
 2695SOL    HW2 8538   1.105   3.106  10.328
 2696SOL     OW 8539   1.623   2.958  10.385
 2696SOL    HW1 8540   1.617   3.021  10.457
 2696SOL    HW2 8541   1.547   2.977  10.330
 2697SOL     OW 8542   0.918   1.956  10.701
 2697SOL    HW1 8543   0.941   1.937  10.611
 2697SOL    HW2 8544   0.997   1.995  10.739
 2698SOL     OW 8545   0.984   2.977  11.033
 2698SOL    HW1 8546   0.893   2.993  11.057
 2698SOL    HW2 8547   0.981   2.898  10.978
 2699SOL     OW 8548   0.708   2.923   9.681
 2699SOL    HW1 8549   0.694   2.904   9.774
 2699SOL    HW2 8550   0.784   2.870   9.657
 2700SOL     OW 8551   0.423   2.681  10.563
 2700SOL    HW1 8552   0.491   2.689  10.630
 2700SOL    HW2 8553   0.390   2.591  10.574
 2701SOL     OW 8554   1.263   2.236  10.591
 2701SOL    HW1 8555   1.296   2.314  10.636
 2701SOL    HW2 8556   1.173   2.257  10.569
 2702SOL     OW 8557   0.065   3.441  10.654
 2702SOL    HW1 8558   0.070   3.479  10.566
 2702SOL    HW2 8559   0.156   3.434  10.682
 2703SOL     OW 8560   0.364   2.965   9.790
 2703SOL    HW1 8561   0.362   3.046   9.740
 2703SOL    HW2 8562   0.364   2.896   9.724
 2704SOL     OW 8563   0.547   2.395  10.171
 2704SOL    HW1 8564   0.561   2.452  10.096
 2704SOL    HW2 8565   0.615   2.420  10.234
 2705SOL     OW 8566   1.247   3.212   9.700
 2705SOL    HW1 8567   1.303   3.283   9.732
 2705SOL    HW2 8568   1.160   3.233   9.734
 2706SOL     OW 8569   1.289   3.322  10.459
 2706SOL    HW1 8570   1.344   3.327  10.537
 2706SOL    HW2 8571   1.233   3.246  10.474
 2707SOL     OW 8572   1.574   2.490   9.783
 2707SOL    HW1 8573   1.527   2.532   9.856
 2707SOL    HW2 8574   1.622   2.561   9.742
 2708SOL     OW 8575   0.345   3.391  10.626
 2708SOL    HW1 8576   0.335   3.340  10.546
 2708SOL    HW2 8577   0.439   3.405  10.634
 2709SOL     OW 8578   0.420   2.599  10.912
 2709SOL    HW1 8579   0.483   2.644  10.856
 2709SOL    HW2 8580   0.459   2.513  10.929
 2710SOL     OW 8581   1.608   2.644  10.995
 2710SOL    HW1 8582   1.522   2.686  10.989
 2710SOL    HW2 8583   1.660   2.686  10.927
 2711SOL     OW 8584   0.996   1.995  11.063
 2711SOL    HW1 8585   1.055   2.067  11.042
 2711SOL    HW2 8586   1.045   1.916  11.038
 2712SOL     OW 8587   0.496   1.895  11.058
 2712SOL    HW1 8588   0.451   1.844  10.991
 2712SOL    HW2 8589   0.443   1.974  11.067
 2713SOL     OW 8590   0.586   2.736  10.343
 2713SOL    HW1 8591   0.621   2.826  10.344
 2713SOL    HW2 8592   0.530   2.731  10.420
 2714SOL     OW 8593   1.348   2.720  10.331
 2714SOL    HW1 8594   1.262   2.705  10.292
 2714SOL    HW2 8595   1.394   2.636  10.322
 2715SOL     OW 8596   1.201   2.389   9.572
 2715SOL    HW1 8597   1.208   2.311   9.627
 2715SOL    HW2 8598   1.158   2.454   9.628
 2716SOL     OW 8599   0.309   2.057  10.557
 2716SOL    HW1 8600   0.262   2.092  10.632
 2716SOL    HW2 8601   0.287   1.964  10.557
 2717SOL     OW 8602   0.063   3.167  10.591
 2717SOL    HW1 8603   0.092   3.124  10.671
 2717SOL    HW2 8604   0.054   3.259  10.614
 2718SOL     OW 8605   0.722   2.492  10.363
 2718SOL    HW1 8606   0.798   2.478  10.307
 2718SOL    HW2 8607   0.693   2.581  10.344
 2719SOL     OW 8608   1.739   2.821  11.168
 2719SOL    HW1 8609   1.696   2.754  11.115
 2719SOL    HW2 8610   1.678   2.838  11.239
 2720SOL     OW 8611   0.317   1.923   9.929
 2720SOL    HW1 8612   0.294   2.013   9.950
 2720SOL    HW2 8613   0.324   1.880  10.015
 2721SOL     OW 8614   1.614   2.244   9.680
 2721SOL    HW1 8615   1.605   2.186   9.755
 2721SOL    HW2 8616   1.592   2.331   9.714
 2722SOL     OW 8617   1.029   2.620  10.268
 2722SOL    HW1 8618   1.021   2.637  10.362
 2722SOL    HW2 8619   1.003   2.529  10.258
 2723SOL     OW 8620   0.986   3.430  11.033
 2723SOL    HW1 8621   0.966   3.470  10.948
 2723SOL    HW2 8622   1.028   3.347  11.010
 2724SOL     OW 8623   1.852   3.363  10.913
 2724SOL    HW1 8624   1.873   3.391  10.824
 2724SOL    HW2 8625   1.932   3.378  10.963
 2725SOL     OW 8626   0.355   2.785  11.109
 2725SOL    HW1 8627   0.433   2.806  11.160
 2725SOL    HW2 8628   0.384   2.717  11.048
 2726SOL     OW 8629   1.524   2.135   9.438
 2726SOL    HW1 8630   1.460   2.069   9.466
 2726SOL    HW2 8631   1.558   2.171   9.520
 2727SOL     OW 8632   1.287   2.687   9.338
 2727SOL    HW1 8633   1.329   2.602   9.342
 2727SOL    HW2 8634   1.319   2.726   9.257
 2728SOL     OW 8635   1.069   3.201  10.167
 2728SOL    HW1 8636   1.074   3.129  10.104
 2728SOL    HW2 8637   1.127   3.268  10.131
 2729SOL     OW 8638   0.313   2.662  10.260
 2729SOL    HW1 8639   0.407   2.679  10.254
 2729SOL    HW2 8640   0.307   2.572  10.290
 2730SOL     OW 8641   0.327   2.383  10.325
 2730SOL    HW1 8642   0.293   2.296  10.310
 2730SOL    HW2 8643   0.404   2.390  10.268
 2731SOL     OW 8644   1.135   2.234  10.996
 2731SOL    HW1 8645   1.087   2.289  11.058
 2731SOL    HW2 8646   1.222   2.273  10.992
 2732SOL     OW 8647   1.160   2.060  10.782
 2732SOL    HW1 8648   1.149   2.123  10.854
 2732SOL    HW2 8649   1.203   2.110  10.713
 2733SOL     OW 8650   0.000   3.177   9.492
 2733SOL    HW1 8651   3.906   3.193   9.496
 2733SOL    HW2 8652   0.009   3.083   9.510
 2734SOL     OW 8653   0.076   3.662  10.205
 2734SOL    HW1 8654   0.095   3.569  10.198
 2734SOL    HW2 8655   0.162   3.705  10.206
 2735SOL     OW 8656   0.506   3.422  10.229
 2735SOL    HW1 8657   0.571   3.491  10.246
 2735SOL    HW2 8658   0.548   3.365  10.164
 2736SOL     OW 8659   0.974   2.649  10.533
 2736SOL    HW1 8660   1.033   2.630  10.606
 2736SOL    HW2 8661   0.890   2.610  10.560
 2737SOL     OW 8662   0.038   2.425  10.419
 2737SOL    HW1 8663   0.121   2.402  10.376
 2737SOL    HW2 8664   0.057   2.420  10.513
 2738SOL     OW 8665   0.206   2.373  11.038
 2738SOL    HW1 8666   0.243   2.322  10.965
 2738SOL    HW2 8667   0.164   2.448  10.996
 2739SOL     OW 8668   1.380   2.796  10.967
 2739SOL    HW1 8669   1.402   2.889  10.963
 2739SOL    HW2 8670   1.376   2.769  10.875
 2740SOL     OW 8671   0.819   2.431   9.675
 2740SOL    HW1 8672   0.825   2.356   9.616
 2740SOL    HW2 8673   0.745   2.482   9.642
 2741SOL     OW 8674   1.643   2.463  10.488
 2741SOL    HW1 8675   1.632   2.408  10.565
 2741SOL    HW2 8676   1.730   2.441  10.454
 2742SOL     OW 8677   0.301   3.406  11.032
 2742SOL    HW1 8678   0.254   3.475  11.079
 2742SOL    HW2 8679   0.273   3.325  11.074
 2743SOL     OW 8680   0.713   2.309  10.564
 2743SOL    HW1 8681   0.658   2.236  10.537
 2743SOL    HW2 8682   0.705   2.373  10.493
 2744SOL     OW 8683   0.925   3.532  10.781
 2744SOL    HW1 8684   0.898   3.492  10.698
 2744SOL    HW2 8685   0.917   3.626  10.766
 2745SOL     OW 8686   0.451   2.350   9.507
 2745SOL    HW1 8687   0.516   2.417   9.525
 2745SOL    HW2 8688   0.372   2.399   9.484
 2746SOL     OW 8689   0.154   2.996  10.787
 2746SOL    HW1 8690   0.153   2.946  10.869
 2746SOL    HW2 8691   0.169   2.931  10.719
 2747SOL     OW 8692   1.321   2.905  10.529
 2747SOL    HW1 8693   1.342   2.842  10.461
 2747SOL    HW2 8694   1.255   2.962  10.490
 2748SOL     OW 8695   1.315   2.720   9.613
 2748SOL    HW1 8696   1.241   2.687   9.665
 2748SOL    HW2 8697   1.289   2.706   9.523
 2749SOL     OW 8698   1.775   3.598  10.464
 2749SOL    HW1 8699   1.838   3.626  10.397
 2749SOL    HW2 8700   1.752   3.508  10.439
 2750SOL     OW 8701   1.245   3.594  10.415
 2750SOL    HW1 8702   1.328   3.616  10.373
 2750SOL    HW2 8703   1.253   3.500  10.436
 2751SOL     OW 8704   0.077   3.074  10.338
 2751SOL    HW1 8705   0.084   3.103  10.430
 2751SOL    HW2 8706   3.985   3.088  10.316
 2752SOL     OW 8707   0.680   3.529  11.049
 2752SOL    HW1 8708   0.621   3.604  11.052
 2752SOL    HW2 8709   0.741   3.550  10.977
 2753SOL     OW 8710   1.392   3.430   9.800
 2753SOL    HW1 8711   1.450   3.465   9.732
 2753SOL    HW2 8712   1.342   3.507   9.830
 2754SOL     OW 8713   0.172   3.619  11.144
 2754SOL    HW1 8714   0.118   3.566  11.202
 2754SOL    HW2 8715   0.218   3.680  11.202
 2755SOL     OW 8716   1.278   2.790   9.981
 2755SOL    HW1 8717   1.352   2.729   9.990
 2755SOL    HW2 8718   1.313   2.861   9.927
 2756SOL     OW 8719   0.805   3.137  10.735
 2756SOL    HW1 8720   0.777   3.179  10.816
 2756SOL    HW2 8721   0.733   3.153  10.674
 2757SOL     OW 8722   0.674   3.481   9.469
 2757SOL    HW1 8723   0.684   3.499   9.376
 2757SOL    HW2 8724   0.615   3.406   9.474
 2758SOL     OW 8725   1.620   3.589  10.700
 2758SOL    HW1 8726   1.673   3.593  10.620
 2758SOL    HW2 8727   1.605   3.680  10.724
 2759SOL     OW 8728   0.264   2.173  10.025
 2759SOL    HW1 8729   0.177   2.204  10.000
 2759SOL    HW2 8730   0.259   2.164  10.120
 2760SOL     OW 8731   1.208   3.463   9.347
 2760SOL    HW1 8732   1.198   3.371   9.371
 2760SOL    HW2 8733   1.147   3.476   9.275
 2761SOL     OW 8734   0.823   2.868  10.685
 2761SOL    HW1 8735   0.867   2.862  10.600
 2761SOL    HW2 8736   0.820   2.962  10.704
 2762SOL     OW 8737   0.916   2.772   9.602
 2762SOL    HW1 8738   0.976   2.805   9.535
 2762SOL    HW2 8739   0.966   2.704   9.647
 2763SOL     OW 8740   1.488   3.494   9.354
 2763SOL    HW1 8741   1.395   3.481   9.337
 2763SOL    HW2 8742   1.528   3.499   9.267
 2764SOL     OW 8743   0.374   3.164  10.801
 2764SOL    HW1 8744   0.359   3.245  10.751
 2764SOL    HW2 8745   0.297   3.110  10.784
 2765SOL     OW 8746   1.608   3.146  10.589
 2765SOL    HW1 8747   1.668   3.131  10.662
 2765SOL    HW2 8748   1.548   3.213  10.621
 2766SOL     OW 8749   1.061   2.972  10.021
 2766SOL    HW1 8750   0.988   2.922  10.057
 2766SOL    HW2 8751   1.125   2.906   9.993
 2767SOL     OW 8752   1.025   2.104  10.277
 2767SOL    HW1 8753   1.022   2.058  10.193
 2767SOL    HW2 8754   1.019   2.035  10.343
 2768SOL     OW 8755   0.607   3.353   9.790
 2768SOL    HW1 8756   0.655   3.303   9.724
 2768SOL    HW2 8757   0.533   3.390   9.743
 2769SOL     OW 8758   1.731   2.249  10.682
 2769SOL    HW1 8759   1.801   2.313  10.692
 2769SOL    HW2 8760   1.767   2.182  10.624
 2770SOL     OW 8761   0.254   3.202   9.602
 2770SOL    HW1 8762   0.160   3.207   9.585
 2770SOL    HW2 8763   0.265   3.241   9.689
 2771SOL     OW 8764   0.109   2.858  11.028
 2771SOL    HW1 8765   0.050   2.854  11.102
 2771SOL    HW2 8766   0.196   2.842  11.065
 2772SOL     OW 8767   0.677   2.058  10.810
 2772SOL    HW1 8768   0.761   2.036  10.770
 2772SOL    HW2 8769   0.700   2.091  10.897
 2773SOL     OW 8770   0.080   2.172   9.347
 2773SOL    HW1 8771   3.985   2.172   9.356
 2773SOL    HW2 8772   0.101   2.253   9.301
 2774SOL     OW 8773   1.426   2.719  10.707
 2774SOL    HW1 8774   1.376   2.780  10.652
 2774SOL    HW2 8775   1.515   2.722  10.672
 2775SOL     OW 8776   0.015   2.106   9.688
 2775SOL    HW1 8777   0.045   2.169   9.623
 2775SOL    HW2 8778   0.095   2.063   9.719
 2776SOL     OW 8779   1.177   3.196   9.428
 2776SOL    HW1 8780   1.086   3.169   9.428
 2776SOL    HW2 8781   1.203   3.196   9.520
 2777SOL     OW 8782   0.621   2.692  10.748
 2777SOL    HW1 8783   0.677   2.768  10.732
 2777SOL    HW2 8784   0.681   2.618  10.754
 2778SOL     OW 8785   1.487   3.644  10.292
 2778SOL    HW1 8786   1.509   3.706  10.223
 2778SOL    HW2 8787   1.572   3.619  10.330
 2779SOL     OW 8788   0.716   2.422  11.012
 2779SOL    HW1 8789   0.762   2.482  11.071
 2779SOL    HW2 8790   0.738   2.335  11.045
 2780SOL     OW 8791   1.474   3.057  10.939
 2780SOL    HW1 8792   1.462   3.072  11.032
 2780SOL    HW2 8793   1.566   3.076  10.923
 2781SOL     OW 8794   0.377   3.610  10.870
 2781SOL    HW1 8795   0.289   3.646  10.858
 2781SOL    HW2 8796   0.364   3.526  10.914
 2782SOL     OW 8797   1.665   2.742  10.564
 2782SOL    HW1 8798   1.660   2.657  10.520
 2782SOL    HW2 8799   1.654   2.806  10.493
 2783SOL     OW 8800   1.216   2.182   9.768
 2783SOL    HW1 8801   1.278   2.109   9.761
 2783SOL    HW2 8802   1.245   2.231   9.844
 2784SOL     OW 8803   0.587   2.598   9.985
 2784SOL    HW1 8804   0.627   2.684   9.970
 2784SOL    HW2 8805   0.523   2.588   9.914
 2785SOL     OW 8806   1.752   2.244  10.959
 2785SOL    HW1 8807   1.739   2.246  10.864
 2785SOL    HW2 8808   1.693   2.176  10.990
 2786SOL     OW 8809   1.747   2.797  10.820
 2786SOL    HW1 8810   1.737   2.892  10.833
 2786SOL    HW2 8811   1.729   2.783  10.727
 2787SOL     OW 8812   0.866   3.228   9.354
 2787SOL    HW1 8813   0.824   3.256   9.435
 2787SOL    HW2 8814   0.879   3.308   9.304
 2788SOL     OW 8815   0.658   3.648  10.240
 2788SOL    HW1 8816   0.638   3.740  10.223
 2788SOL    HW2 8817   0.753   3.644  10.239
 2789SOL     OW 8818   0.870   2.832  10.163
 2789SOL    HW1 8819   0.920   2.759  10.200
 2789SOL    HW2 8820   0.832   2.876  10.238
 2790SOL     OW 8821   1.076   2.849   9.399
 2790SOL    HW1 8822   1.055   2.902   9.321
 2790SOL    HW2 8823   1.150   2.796   9.372
 2791SOL     OW 8824   1.847   3.411  10.150
 2791SOL    HW1 8825   1.766   3.401  10.100
 2791SOL    HW2 8826   1.837   3.351  10.224
 2792SOL     OW 8827   0.230   3.166  11.167
 2792SOL    HW1 8828   0.153   3.116  11.140
 2792SOL    HW2 8829   0.217   3.179  11.261
 2793SOL     OW 8830   0.122   3.145  10.035
 2793SOL    HW1 8831   0.141   3.093  10.113
 2793SOL    HW2 8832   0.103   3.081   9.967
 2794SOL     OW 8833   0.685   3.269  10.942
 2794SOL    HW1 8834   0.605   3.227  10.973
 2794SOL    HW2 8835   0.682   3.357  10.979
 2795SOL     OW 8836   0.440   2.295   9.845
 2795SOL    HW1 8837   0.439   2.225   9.779
 2795SOL    HW2 8838   0.384   2.262   9.915
 2796SOL     OW 8839   1.699   3.345  10.398
 2796SOL    HW1 8840   1.618   3.326  10.351
 2796SOL    HW2 8841   1.704   3.278  10.466
 2797SOL     OW 8842   0.337   2.422  10.603
 2797SOL    HW1 8843   0.390   2.363  10.657
 2797SOL    HW2 8844   0.351   2.389  10.513
 2798SOL     OW 8845   0.830   3.441   9.986
 2798SOL    HW1 8846   0.809   3.499   9.912
 2798SOL    HW2 8847   0.757   3.380   9.989
 2799SOL     OW 8848   1.435   2.094  10.430
 2799SOL    HW1 8849   1.442   2.004  10.464
 2799SOL    HW2 8850   1.382   2.140  10.494
 2800SOL     OW 8851   1.010   1.878  10.446
 2800SOL    HW1 8852   0.956   1.811  10.403
 2800SOL    HW2 8853   1.098   1.839  10.447
 2801SOL     OW 8854   0.773   3.194   9.632
 2801SOL    HW1 8855   0.746   3.103   9.639
 2801SOL    HW2 8856   0.856   3.198   9.680
 2802SOL     OW 8857   0.621   3.415  10.597
 2802SOL    HW1 8858   0.621   3.497  10.646
 2802SOL    HW2 8859   0.709   3.410  10.560
 2803SOL     OW 8860   1.353   1.914   9.480
 2803SOL    HW1 8861   1.386   1.848   9.419
 2803SOL    HW2 8862   1.264   1.884   9.501
 2804SOL     OW 8863   1.301   2.325   9.990
 2804SOL    HW1 8864   1.247   2.405   9.992
 2804SOL    HW2 8865   1.292   2.288  10.077
 2805SOL     OW 8866   1.564   2.047  10.184
 2805SOL    HW1 8867   1.532   2.078  10.269
 2805SOL    HW2 8868   1.585   2.127  10.135
 2806SOL     OW 8869   0.047   2.908   9.552
 2806SOL    HW1 8870   0.142   2.894   9.544
 2806SOL    HW2 8871   0.012   2.822   9.574
 2807SOL     OW 8872   0.888   3.525   9.651
 2807SOL    HW1 8873   0.816   3.506   9.591
 2807SOL    HW2 8874   0.857   3.598   9.704
 2808SOL     OW 8875   0.230   2.489  11.289
 2808SOL    HW1 8876   0.137   2.496  11.311
 2808SOL    HW2 8877   0.232   2.456  11.200
 2809SOL     OW 8878   0.230   2.135  12.158
 2809SOL    HW1 8879   0.251   2.099  12.245
 2809SOL    HW2 8880   0.134   2.128  12.152
 2810SOL     OW 8881   0.005   2.219  11.802
 2810SOL    HW1 8882   3.915   2.237  11.829
 2810SOL    HW2 8883   3.997   2.190  11.711
 2811SOL     OW 8884   0.582   3.155  12.369
 2811SOL    HW1 8885   0.496   3.157  12.326
 2811SOL    HW2 8886   0.596   3.244  12.400
 2812SOL     OW 8887   1.568   3.373  11.881
 2812SOL    HW1 8888   1.525   3.350  11.964
 2812SOL    HW2 8889   1.496   3.376  11.818
 2813SOL     OW 8890   1.134   2.560  11.868
 2813SOL    HW1 8891   1.181   2.642  11.855
 2813SOL    HW2 8892   1.086   2.572  11.949
 2814SOL     OW 8893   1.784   2.461  11.398
 2814SOL    HW1 8894   1.754   2.458  11.307
 2814SOL    HW2 8895   1.743   2.384  11.438
 2815SOL     OW 8896   0.748   2.998  12.217
 2815SOL    HW1 8897   0.687   3.036  12.281
 2815SOL    HW2 8898   0.786   3.074  12.173
 2816SOL     OW 8899   0.874   2.626  12.996
 2816SOL    HW1 8900   0.867   2.696  13.060
 2816SOL    HW2 8901   0.896   2.669  12.913
 2817SOL     OW 8902   0.685   2.861  11.817
 2817SOL    HW1 8903   0.752   2.852  11.885
 2817SOL    HW2 8904   0.616   2.914  11.857
 2818SOL     OW 8905   0.714   3.011  12.991
 2818SOL    HW1 8906   0.762   3.088  13.021
 2818SOL    HW2 8907   0.634   3.046  12.952
 2819SOL     OW 8908   0.351   3.262  12.250
 2819SOL    HW1 8909   0.270   3.244  12.202
 2819SOL    HW2 8910   0.401   3.319  12.193
 2820SOL     OW 8911   1.459   3.364  12.532
 2820SOL    HW1 8912   1.514   3.442  12.542
 2820SOL    HW2 8913   1.391   3.373  12.598
 2821SOL     OW 8914   0.450   2.257  12.655
 2821SOL    HW1 8915   0.526   2.199  12.660
 2821SOL    HW2 8916   0.375   2.200  12.671
 2822SOL     OW 8917   1.598   2.302  11.910
 2822SOL    HW1 8918   1.514   2.318  11.867
 2822SOL    HW2 8919   1.608   2.376  11.971
 2823SOL     OW 8920   0.221   3.572  11.637
 2823SOL    HW1 8921   0.218   3.658  11.681
 2823SOL    HW2 8922   0.298   3.577  11.580
 2824SOL     OW 8923   1.138   3.204  12.866
 2824SOL    HW1 8924   1.178   3.197  12.952
 2824SOL    HW2 8925   1.085   3.124  12.857
 2825SOL     OW 8926   0.254   3.307  11.711
 2825SOL    HW1 8927   0.225   3.397  11.697
 2825SOL    HW2 8928   0.186   3.267  11.764
 2826SOL     OW 8929   0.249   2.927  12.055
 2826SOL    HW1 8930   0.269   2.842  12.094
 2826SOL    HW2 8931   0.196   2.971  12.121
 2827SOL     OW 8932   0.608   3.648  12.597
 2827SOL    HW1 8933   0.526   3.634  12.645
 2827SOL    HW2 8934   0.636   3.737  12.622
 2828SOL     OW 8935   0.574   2.849  11.312
 2828SOL    HW1 8936   0.624   2.893  11.243
 2828SOL    HW2 8937   0.614   2.879  11.394
 2829SOL     OW 8938   1.588   1.996  12.633
 2829SOL    HW1 8939   1.593   2.082  12.591
 2829SOL    HW2 8940   1.576   2.015  12.726
 2830SOL     OW 8941   0.144   2.520  11.745
 2830SOL    HW1 8942   0.087   2.443  11.742
 2830SOL    HW2 8943   0.109   2.574  11.816
 2831SOL     OW 8944   1.844   3.604  11.509
 2831SOL    HW1 8945   1.914   3.581  11.570
 2831SOL    HW2 8946   1.861   3.695  11.486
 2832SOL     OW 8947   0.040   3.450  11.311
 2832SOL    HW1 8948   0.037   3.359  11.340
 2832SOL    HW2 8949   3.953   3.485  11.332
 2833SOL     OW 8950   1.689   2.781  11.816
 2833SOL    HW1 8951   1.770   2.736  11.792
 2833SOL    HW2 8952   1.666   2.833  11.739
 2834SOL     OW 8953   1.649   2.965  11.601
 2834SOL    HW1 8954   1.736   2.966  11.560
 2834SOL    HW2 8955   1.656   3.029  11.673
 2835SOL     OW 8956   0.144   2.614  12.762
 2835SOL    HW1 8957   0.239   2.611  12.756
 2835SOL    HW2 8958   0.125   2.701  12.798
 2836SOL     OW 8959   0.618   3.250  11.906
 2836SOL    HW1 8960   0.570   3.167  11.915
 2836SOL    HW2 8961   0.600   3.278  11.816
 2837SOL     OW 8962   1.285   3.097  12.593
 2837SOL    HW1 8963   1.317   3.029  12.533
 2837SOL    HW2 8964   1.345   3.093  12.668
 2838SOL     OW 8965   0.824   1.864  11.687
 2838SOL    HW1 8966   0.863   1.948  11.663
 2838SOL    HW2 8967   0.730   1.882  11.690
 2839SOL     OW 8968   0.183   2.810  12.454
 2839SOL    HW1 8969   0.271   2.775  12.442
 2839SOL    HW2 8970   0.133   2.775  12.380
 2840SOL     OW 8971   1.531   2.861  11.372
 2840SOL    HW1 8972   1.462   2.804  11.405
 2840SOL    HW2 8973   1.574   2.894  11.451
 2841SOL     OW 8974   1.223   3.668  12.801
 2841SOL    HW1 8975   1.196   3.729  12.732
 2841SOL    HW2 8976   1.223   3.583  12.758
 2842SOL     OW 8977   0.345   2.109  12.992
 2842SOL    HW1 8978   0.378   2.198  13.000
 2842SOL    HW2 8979   0.252   2.116  13.016
 2843SOL     OW 8980   1.466   3.281  12.119
 2843SOL    HW1 8981   1.400   3.297  12.187
 2843SOL    HW2 8982   1.453   3.190  12.094
 2844SOL     OW 8983   1.652   3.604  11.753
 2844SOL    HW1 8984   1.638   3.572  11.664
 2844SOL    HW2 8985   1.631   3.530  11.809
 2845SOL     OW 8986   0.596   2.575  11.440
 2845SOL    HW1 8987   0.601   2.660  11.396
 2845SOL    HW2 8988   0.533   2.588  11.511
 2846SOL     OW 8989   1.279   2.228  12.108
 2846SOL    HW1 8990   1.191   2.192  12.118
 2846SOL    HW2 8991   1.335   2.172  12.162
 2847SOL     OW 8992   1.576   3.538  11.481
 2847SOL    HW1 8993   1.669   3.559  11.475
 2847SOL    HW2 8994   1.549   3.520  11.391
 2848SOL     OW 8995   0.790   2.480  12.621
 2848SOL    HW1 8996   0.764   2.453  12.709
 2848SOL    HW2 8997   0.756   2.411  12.564
 2849SOL     OW 8998   1.393   2.334  12.849
 2849SOL    HW1 8999   1.397   2.380  12.933
 2849SOL    HW2 9000   1.455   2.262  12.859
 2850SOL     OW 9001   0.950   2.747  12.758
 2850SOL    HW1 9002   1.005   2.679  12.719
 2850SOL    HW2 9003   0.902   2.783  12.684
 2851SOL     OW 9004   0.994   2.272  12.406
 2851SOL    HW1 9005   0.905   2.289  12.436
 2851SOL    HW2 9006   0.983   2.229  12.321
 2852SOL     OW 9007   1.054   2.560  11.596
 2852SOL    HW1 9008   1.072   2.554  11.690
 2852SOL    HW2 9009   0.971   2.514  11.584
 2853SOL     OW 9010   0.083   2.694  11.961
 2853SOL    HW1 9011   0.154   2.662  12.016
 2853SOL    HW2 9012   0.105   2.786  11.944
 2854SOL     OW 9013   0.127   3.720  12.755
 2854SOL    HW1 9014   0.136   3.689  12.845
 2854SOL    HW2 9015   0.035   3.707  12.733
 2855SOL     OW 9016   0.899   2.212  11.366
 2855SOL    HW1 9017   0.939   2.276  11.306
 2855SOL    HW2 9018   0.912   2.128  11.323
 2856SOL     OW 9019   1.699   2.436  13.006
 2856SOL    HW1 9020   1.665   2.508  12.952
 2856SOL    HW2 9021   1.730   2.371  12.943
 2857SOL     OW 9022   1.381   3.004  11.712
 2857SOL    HW1 9023   1.460   2.992  11.659
 2857SOL    HW2 9024   1.327   3.066  11.662
 2858SOL     OW 9025   0.547   2.039  12.068
 2858SOL    HW1 9026   0.554   2.072  12.158
 2858SOL    HW2 9027   0.545   2.118  12.014
 2859SOL     OW 9028   1.000   3.307  11.640
 2859SOL    HW1 9029   0.967   3.382  11.591
 2859SOL    HW2 9030   0.978   3.326  11.732
 2860SOL     OW 9031   0.359   3.674  12.038
 2860SOL    HW1 9032   0.441   3.625  12.051
 2860SOL    HW2 9033   0.385   3.766  12.046
 2861SOL     OW 9034   1.801   2.913  12.044
 2861SOL    HW1 9035   1.748   2.894  11.966
 2861SOL    HW2 9036   1.737   2.920  12.115
 2862SOL     OW 9037   1.227   3.400  12.683
 2862SOL    HW1 9038   1.215   3.328  12.745
 2862SOL    HW2 9039   1.157   3.388  12.619
 2863SOL     OW 9040   0.311   2.814  11.415
 2863SOL    HW1 9041   0.394   2.836  11.372
 2863SOL    HW2 9042   0.299   2.721  11.396
 2864SOL     OW 9043   1.482   2.610  11.893
 2864SOL    HW1 9044   1.478   2.571  11.980
 2864SOL    HW2 9045   1.560   2.665  11.895
 2865SOL     OW 9046   0.471   3.123  12.909
 2865SOL    HW1 9047   0.445   3.131  12.817
 2865SOL    HW2 9048   0.388   3.125  12.957
 2866SOL     OW 9049   1.114   3.644  11.391
 2866SOL    HW1 9050   1.048   3.599  11.444
 2866SOL    HW2 9051   1.145   3.577  11.330
 2867SOL     OW 9052   0.203   2.130  12.680
 2867SOL    HW1 9053   0.114   2.164  12.677
 2867SOL    HW2 9054   0.194   2.041  12.716
 2868SOL     OW 9055   1.627   3.244  11.265
 2868SOL    HW1 9056   1.587   3.329  11.246
 2868SOL    HW2 9057   1.559   3.181  11.242
 2869SOL     OW 9058   0.466   3.604  11.493
 2869SOL    HW1 9059   0.506   3.664  11.555
 2869SOL    HW2 9060   0.539   3.574  11.439
 2870SOL     OW 9061   1.400   1.966  11.608
 2870SOL    HW1 9062   1.384   1.945  11.516
 2870SOL    HW2 9063   1.488   1.934  11.625
 2871SOL     OW 9064   0.258   3.657  12.395
 2871SOL    HW1 9065   0.297   3.587  12.447
 2871SOL    HW2 9066   0.254   3.622  12.306
 2872SOL     OW 9067   0.938   3.565  12.070
 2872SOL    HW1 9068   1.016   3.514  12.093
 2872SOL    HW2 9069   0.896   3.514  12.000
 2873SOL     OW 9070   0.401   2.553  11.642
 2873SOL    HW1 9071   0.424   2.462  11.659
 2873SOL    HW2 9072   0.309   2.560  11.669
 2874SOL     OW 9073   1.534   2.086  12.898
 2874SOL    HW1 9074   1.548   2.107  12.990
 2874SOL    HW2 9075   1.463   2.021  12.899
 2875SOL     OW 9076   0.650   1.977  11.266
 2875SOL    HW1 9077   0.705   1.903  11.289
 2875SOL    HW2 9078   0.597   1.946  11.192
 2876SOL     OW 9079   0.765   2.141  12.927
 2876SOL    HW1 9080   0.846   2.090  12.923
 2876SOL    HW2 9081   0.720   2.109  13.005
 2877SOL     OW 9082   0.876   3.383  12.366
 2877SOL    HW1 9083   0.858   3.345  12.280
 2877SOL    HW2 9084   0.945   3.328  12.403
 2878SOL     OW 9085   1.339   2.451  12.605
 2878SOL    HW1 9086   1.370   2.420  12.690
 2878SOL    HW2 9087   1.376   2.539  12.597
 2879SOL     OW 9088   0.819   3.251  12.117
 2879SOL    HW1 9089   0.904   3.240  12.075
 2879SOL    HW2 9090   0.757   3.255  12.044
 2880SOL     OW 9091   0.930   2.371  12.072
 2880SOL    HW1 9092   0.905   2.363  11.980
 2880SOL    HW2 9093   0.959   2.284  12.097
 2881SOL     OW 9094   0.559   1.924  11.664
 2881SOL    HW1 9095   0.478   1.929  11.714
 2881SOL    HW2 9096   0.563   2.006  11.614
 2882SOL     OW 9097   1.428   3.063  11.211
 2882SOL    HW1 9098   1.458   2.987  11.262
 2882SOL    HW2 9099   1.342   3.084  11.248
 2883SOL     OW 9100   0.309   1.913  11.341
 2883SOL    HW1 9101   0.371   1.952  11.279
 2883SOL    HW2 9102   0.361   1.849  11.389
 2884SOL     OW 9103   0.942   2.111  11.628
 2884SOL    HW1 9104   0.915   2.149  11.545
 2884SOL    HW2 9105   1.036   2.128  11.633
 2885SOL     OW 9106   1.080   2.546  12.628
 2885SOL    HW1 9107   1.015   2.476  12.633
 2885SOL    HW2 9108   1.164   2.500  12.623
 2886SOL     OW 9109   1.219   3.434  11.966
 2886SOL    HW1 9110   1.234   3.500  11.899
 2886SOL    HW2 9111   1.289   3.450  12.030
 2887SOL     OW 9112   0.467   3.014  11.903
 2887SOL    HW1 9113   0.397   2.989  11.964
 2887SOL    HW2 9114   0.431   2.998  11.816
 2888SOL     OW 9115   1.264   3.654  11.782
 2888SOL    HW1 9116   1.313   3.718  11.731
 2888SOL    HW2 9117   1.190   3.703  11.818
 2889SOL     OW 9118   1.024   2.397  11.198
 2889SOL    HW1 9119   0.980   2.480  11.179
 2889SOL    HW2 9120   1.090   2.419  11.264
 2890SOL     OW 9121   0.084   2.436  12.561
 2890SOL    HW1 9122   0.174   2.423  12.531
 2890SOL    HW2 9123   0.091   2.505  12.627
 2891SOL     OW 9124   0.567   2.089  12.340
 2891SOL    HW1 9125   0.608   2.016  12.385
 2891SOL    HW2 9126   0.475   2.085  12.368
 2892SOL     OW 9127   0.867   2.319  11.811
 2892SOL    HW1 9128   0.820   2.374  11.748
 2892SOL    HW2 9129   0.888   2.240  11.762
 2893SOL     OW 9130   1.018   1.916  11.920
 2893SOL    HW1 9131   0.959   1.911  11.845
 2893SOL    HW2 9132   0.994   1.842  11.975
 2894SOL     OW 9133   1.439   3.022  12.028
 2894SOL    HW1 9134   1.368   2.958  12.029
 2894SOL    HW2 9135   1.463   3.030  11.936
 2895SOL     OW 9136   1.465   2.471  12.140
 2895SOL    HW1 9137   1.408   2.394  12.144
 2895SOL    HW2 9138   1.523   2.462  12.216
 2896SOL     OW 9139   1.839   2.674  11.558
 2896SOL    HW1 9140   1.901   2.628  11.615
 2896SOL    HW2 9141   1.817   2.610  11.490
 2897SOL     OW 9142   0.488   3.284  11.329
 2897SOL    HW1 9143   0.411   3.254  11.379
 2897SOL    HW2 9144   0.474   3.249  11.241
 2898SOL     OW 9145   1.677   3.125  11.814
 2898SOL    HW1 9146   1.771   3.126  11.829
 2898SOL    HW2 9147   1.649   3.214  11.836
 2899SOL     OW 9148   1.393   2.436  11.241
 2899SOL    HW1 9149   1.334   2.414  11.313
 2899SOL    HW2 9150   1.479   2.407  11.270
 2900SOL     OW 9151   0.576   2.129  11.486
 2900SOL    HW1 9152   0.610   2.083  11.409
 2900SOL    HW2 9153   0.543   2.212  11.452
 2901SOL     OW 9154   1.749   3.105  12.735
 2901SOL    HW1 9155   1.836   3.066  12.729
 2901SOL    HW2 9156   1.764   3.195  12.764
 2902SOL     OW 9157   1.054   3.214  12.503
 2902SOL    HW1 9158   0.979   3.183  12.553
 2902SOL    HW2 9159   1.130   3.173  12.545
 2903SOL     OW 9160   1.610   3.490  12.830
 2903SOL    HW1 9161   1.601   3.523  12.741
 2903SOL    HW2 9162   1.692   3.440  12.829
 2904SOL     OW 9163   1.135   3.071  12.274
 2904SOL    HW1 9164   1.075   3.109  12.339
 2904SOL    HW2 9165   1.105   3.106  12.190
 2905SOL     OW 9166   1.623   2.958  12.247
 2905SOL    HW1 9167   1.617   3.021  12.319
 2905SOL    HW2 9168   1.547   2.977  12.193
 2906SOL     OW 9169   0.918   1.955  12.563
 2906SOL    HW1 9170   0.941   1.937  12.472
 2906SOL    HW2 9171   0.997   1.995  12.601
 2907SOL     OW 9172   0.984   2.977  12.894
 2907SOL    HW1 9173   0.893   2.994  12.918
 2907SOL    HW2 9174   0.981   2.898  12.840
 2908SOL     OW 9175   0.708   2.923  11.543
 2908SOL    HW1 9176   0.694   2.904  11.636
 2908SOL    HW2 9177   0.784   2.870  11.519
 2909SOL     OW 9178   0.423   2.681  12.425
 2909SOL    HW1 9179   0.491   2.689  12.492
 2909SOL    HW2 9180   0.390   2.591  12.436
 2910SOL     OW 9181   1.263   2.236  12.453
 2910SOL    HW1 9182   1.296   2.314  12.498
 2910SOL    HW2 9183   1.173   2.257  12.431
 2911SOL     OW 9184   0.065   3.441  12.516
 2911SOL    HW1 9185   0.070   3.478  12.427
 2911SOL    HW2 9186   0.156   3.434  12.544
 2912SOL     OW 9187   0.364   2.965  11.652
 2912SOL    HW1 9188   0.362   3.046  11.602
 2912SOL    HW2 9189   0.364   2.896  11.586
 2913SOL     OW 9190   0.547   2.395  12.033
 2913SOL    HW1 9191   0.561   2.452  11.958
 2913SOL    HW2 9192   0.615   2.420  12.096
 2914SOL     OW 9193   1.247   3.212  11.562
 2914SOL    HW1 9194   1.303   3.283  11.594
 2914SOL    HW2 9195   1.160   3.233  11.596
 2915SOL     OW 9196   1.289   3.322  12.321
 2915SOL    HW1 9197   1.344   3.327  12.399
 2915SOL    HW2 9198   1.233   3.246  12.336
 2916SOL     OW 9199   1.574   2.490  11.645
 2916SOL    HW1 9200   1.527   2.532  11.718
 2916SOL    HW2 9201   1.622   2.562  11.604
 2917SOL     OW 9202   0.345   3.391  12.488
 2917SOL    HW1 9203   0.335   3.340  12.408
 2917SOL    HW2 9204   0.439   3.405  12.496
 2918SOL     OW 9205   0.420   2.599  12.774
 2918SOL    HW1 9206   0.483   2.644  12.718
 2918SOL    HW2 9207   0.459   2.514  12.791
 2919SOL     OW 9208   1.607   2.644  12.857
 2919SOL    HW1 9209   1.522   2.686  12.851
 2919SOL    HW2 9210   1.659   2.686  12.789
 2920SOL     OW 9211   0.997   1.995  12.925
 2920SOL    HW1 9212   1.055   2.067  12.904
 2920SOL    HW2 9213   1.045   1.916  12.900
 2921SOL     OW 9214   0.496   1.895  12.920
 2921SOL    HW1 9215   0.451   1.844  12.852
 2921SOL    HW2 9216   0.444   1.974  12.929
 2922SOL     OW 9217   0.586   2.736  12.205
 2922SOL    HW1 9218   0.621   2.826  12.206
 2922SOL    HW2 9219   0.530   2.731  12.282
 2923SOL     OW 9220   1.348   2.720  12.193
 2923SOL    HW1 9221   1.262   2.705  12.155
 2923SOL    HW2 9222   1.394   2.636  12.184
 2924SOL     OW 9223   1.201   2.389  11.434
 2924SOL    HW1 9224   1.208   2.311  11.489
 2924SOL    HW2 9225   1.158   2.454  11.490
 2925SOL     OW 9226   0.309   2.057  12.419
 2925SOL    HW1 9227   0.263   2.092  12.494
 2925SOL    HW2 9228   0.287   1.964  12.419
 2926SOL     OW 9229   0.063   3.167  12.453
 2926SOL    HW1 9230   0.092   3.124  12.533
 2926SOL    HW2 9231   0.054   3.259  12.476
 2927SOL     OW 9232   0.722   2.492  12.225
 2927SOL    HW1 9233   0.798   2.478  12.169
 2927SOL    HW2 9234   0.693   2.581  12.206
 2928SOL     OW 9235   1.739   2.821  13.030
 2928SOL    HW1 9236   1.695   2.754  12.977
 2928SOL    HW2 9237   1.678   2.838  13.102
 2929SOL     OW 9238   0.317   1.923  11.791
 2929SOL    HW1 9239   0.294   2.013  11.812
 2929SOL    HW2 9240   0.324   1.880  11.877
 2930SOL     OW 9241   1.614   2.245  11.542
 2930SOL    HW1 9242   1.605   2.186  11.617
 2930SOL    HW2 9243   1.592   2.331  11.576
 2931SOL     OW 9244   1.029   2.620  12.130
 2931SOL    HW1 9245   1.021   2.637  12.224
 2931SOL    HW2 9246   1.003   2.529  12.120
 2932SOL     OW 9247   0.986   3.430  12.895
 2932SOL    HW1 9248   0.966   3.470  12.810
 2932SOL    HW2 9249   1.028   3.347  12.872
 2933SOL     OW 9250   1.852   3.363  12.775
 2933SOL    HW1 9251   1.873   3.391  12.686
 2933SOL    HW2 9252   1.932   3.378  12.825
 2934SOL     OW 9253   0.355   2.784  12.971
 2934SOL    HW1 9254   0.433   2.806  13.023
 2934SOL    HW2 9255   0.384   2.717  12.910
 2935SOL     OW 9256   1.524   2.135  11.300
 2935SOL    HW1 9257   1.460   2.069  11.328
 2935SOL    HW2 9258   1.558   2.171  11.382
 2936SOL     OW 9259   1.287   2.687  11.200
 2936SOL    HW1 9260   1.329   2.602  11.205
 2936SOL    HW2 9261   1.319   2.726  11.119
 2937SOL     OW 9262   1.069   3.201  12.029
 2937SOL    HW1 9263   1.074   3.129  11.966
 2937SOL    HW2 9264   1.127   3.268  11.993
 2938SOL     OW 9265   0.313   2.662  12.122
 2938SOL    HW1 9266   0.407   2.679  12.116
 2938SOL    HW2 9267   0.307   2.572  12.152
 2939SOL     OW 9268   0.327   2.383  12.187
 2939SOL    HW1 9269   0.293   2.295  12.172
 2939SOL    HW2 9270   0.404   2.390  12.130
 2940SOL     OW 9271   1.135   2.234  12.858
 2940SOL    HW1 9272   1.087   2.289  12.920
 2940SOL    HW2 9273   1.222   2.273  12.854
 2941SOL     OW 9274   1.160   2.060  12.644
 2941SOL    HW1 9275   1.149   2.123  12.716
 2941SOL    HW2 9276   1.203   2.110  12.575
 2942SOL     OW 9277   0.000   3.177  11.354
 2942SOL    HW1 9278   3.906   3.193  11.358
 2942SOL    HW2 9279   0.009   3.083  11.372
 2943SOL     OW 9280   0.076   3.662  12.067
 2943SOL    HW1 9281   0.095   3.569  12.060
 2943SOL    HW2 9282   0.162   3.704  12.068
 2944SOL     OW 9283   0.506   3.423  12.090
 2944SOL    HW1 9284   0.571   3.491  12.109
 2944SOL    HW2 9285   0.548   3.365  12.026
 2945SOL     OW 9286   0.974   2.649  12.395
 2945SOL    HW1 9287   1.033   2.630  12.468
 2945SOL    HW2 9288   0.890   2.611  12.422
 2946SOL     OW 9289   0.038   2.425  12.281
 2946SOL    HW1 9290   0.121   2.402  12.238
 2946SOL    HW2 9291   0.057   2.420  12.375
 2947SOL     OW 9292   0.206   2.373  12.900
 2947SOL    HW1 9293   0.243   2.322  12.828
 2947SOL    HW2 9294   0.164   2.448  12.858
 2948SOL     OW 9295   1.380   2.796  12.828
 2948SOL    HW1 9296   1.402   2.889  12.825
 2948SOL    HW2 9297   1.376   2.769  12.737
 2949SOL     OW 9298   0.819   2.431  11.537
 2949SOL    HW1 9299   0.825   2.356  11.478
 2949SOL    HW2 9300   0.745   2.482  11.504
 2950SOL     OW 9301   1.643   2.463  12.349
 2950SOL    HW1 9302   1.632   2.408  12.427
 2950SOL    HW2 9303   1.730   2.440  12.316
 2951SOL     OW 9304   0.301   3.407  12.894
 2951SOL    HW1 9305   0.253   3.475  12.941
 2951SOL    HW2 9306   0.273   3.325  12.936
 2952SOL     OW 9307   0.713   2.309  12.426
 2952SOL    HW1 9308   0.658   2.236  12.399
 2952SOL    HW2 9309   0.705   2.373  12.355
 2953SOL     OW 9310   0.925   3.532  12.643
 2953SOL    HW1 9311   0.898   3.492  12.560
 2953SOL    HW2 9312   0.917   3.626  12.628
 2954SOL     OW 9313   0.451   2.350  11.369
 2954SOL    HW1 9314   0.516   2.417  11.387
 2954SOL    HW2 9315   0.372   2.399  11.346
 2955SOL     OW 9316   0.154   2.996  12.649
 2955SOL    HW1 9317   0.154   2.946  12.731
 2955SOL    HW2 9318   0.169   2.931  12.581
 2956SOL     OW 9319   1.321   2.905  12.391
 2956SOL    HW1 9320   1.342   2.842  12.322
 2956SOL    HW2 9321   1.255   2.962  12.352
 2957SOL     OW 9322   1.315   2.720  11.475
 2957SOL    HW1 9323   1.242   2.687  11.527
 2957SOL    HW2 9324   1.289   2.705  11.385
 2958SOL     OW 9325   1.775   3.598  12.326
 2958SOL    HW1 9326   1.838   3.626  12.258
 2958SOL    HW2 9327   1.752   3.508  12.301
 2959SOL     OW 9328   1.245   3.594  12.277
 2959SOL    HW1 9329   1.328   3.616  12.235
 2959SOL    HW2 9330   1.253   3.501  12.298
 2960SOL     OW 9331   0.077   3.075  12.200
 2960SOL    HW1 9332   0.084   3.103  12.292
 2960SOL    HW2 9333   3.985   3.089  12.178
 2961SOL     OW 9334   0.680   3.529  12.910
 2961SOL    HW1 9335   0.621   3.604  12.913
 2961SOL    HW2 9336   0.741   3.550  12.840
 2962SOL     OW 9337   1.392   3.430  11.662
 2962SOL    HW1 9338   1.450   3.465  11.594
 2962SOL    HW2 9339   1.342   3.507  11.692
 2963SOL     OW 9340   0.172   3.621  13.007
 2963SOL    HW1 9341   0.118   3.566  13.064
 2963SOL    HW2 9342   0.217   3.680  13.066
 2964SOL     OW 9343   1.278   2.790  11.843
 2964SOL    HW1 9344   1.352   2.730  11.852
 2964SOL    HW2 9345   1.312   2.861  11.789
 2965SOL     OW 9346   0.805   3.137  12.597
 2965SOL    HW1 9347   0.777   3.179  12.678
 2965SOL    HW2 9348   0.733   3.153  12.536
 2966SOL     OW 9349   0.674   3.481  11.331
 2966SOL    HW1 9350   0.684   3.499  11.238
 2966SOL    HW2 9351   0.615   3.406  11.336
 2967SOL     OW 9352   1.620   3.589  12.562
 2967SOL    HW1 9353   1.673   3.593  12.482
 2967SOL    HW2 9354   1.605   3.681  12.586
 2968SOL     OW 9355   0.264   2.173  11.887
 2968SOL    HW1 9356   0.177   2.204  11.862
 2968SOL    HW2 9357   0.259   2.164  11.982
 2969SOL     OW 9358   1.208   3.463  11.209
 2969SOL    HW1 9359   1.198   3.371  11.233
 2969SOL    HW2 9360   1.147   3.476  11.137
 2970SOL     OW 9361   0.823   2.868  12.547
 2970SOL    HW1 9362   0.867   2.862  12.462
 2970SOL    HW2 9363   0.820   2.962  12.566
 2971SOL     OW 9364   0.916   2.772  11.464
 2971SOL    HW1 9365   0.976   2.805  11.397
 2971SOL    HW2 9366   0.966   2.704  11.509
 2972SOL     OW 9367   1.488   3.494  11.216
 2972SOL    HW1 9368   1.395   3.481  11.199
 2972SOL    HW2 9369   1.528   3.499  11.129
 2973SOL     OW 9370   0.374   3.164  12.663
 2973SOL    HW1 9371   0.359   3.245  12.613
 2973SOL    HW2 9372   0.297   3.111  12.646
 2974SOL     OW 9373   1.608   3.146  12.451
 2974SOL    HW1 9374   1.667   3.131  12.525
 2974SOL    HW2 9375   1.548   3.213  12.483
 2975SOL     OW 9376   1.061   2.972  11.883
 2975SOL    HW1 9377   0.988   2.922  11.919
 2975SOL    HW2 9378   1.125   2.906  11.855
 2976SOL     OW 9379   1.025   2.104  12.139
 2976SOL    HW1 9380   1.022   2.058  12.055
 2976SOL    HW2 9381   1.019   2.035  12.205
 2977SOL     OW 9382   0.607   3.353  11.652
 2977SOL    HW1 9383   0.655   3.303  11.586
 2977SOL    HW2 9384   0.533   3.390  11.605
 2978SOL     OW 9385   1.732   2.248  12.543
 2978SOL    HW1 9386   1.802   2.312  12.553
 2978SOL    HW2 9387   1.769   2.181  12.486
 2979SOL     OW 9388   0.254   3.202  11.464
 2979SOL    HW1 9389   0.160   3.207  11.447
 2979SOL    HW2 9390   0.265   3.241  11.551
 2980SOL     OW 9391   0.109   2.858  12.890
 2980SOL    HW1 9392   0.050   2.854  12.965
 2980SOL    HW2 9393   0.196   2.841  12.927
 2981SOL     OW 9394   0.677   2.058  12.672
 2981SOL    HW1 9395   0.761   2.036  12.632
 2981SOL    HW2 9396   0.700   2.091  12.759
 2982SOL     OW 9397   0.080   2.172  11.209
 2982SOL    HW1 9398   3.985   2.172  11.218
 2982SOL    HW2 9399   0.101   2.253  11.163
 2983SOL     OW 9400   1.426   2.719  12.569
 2983SOL    HW1 9401   1.376   2.780  12.514
 2983SOL    HW2 9402   1.515   2.722  12.534
 2984SOL     OW 9403   0.015   2.106  11.550
 2984SOL    HW1 9404   0.045   2.169  11.485
 2984SOL    HW2 9405   0.095   2.063  11.581
 2985SOL     OW 9406   1.177   3.196  11.290
 2985SOL    HW1 9407   1.086   3.169  11.290
 2985SOL    HW2 9408   1.203   3.196  11.382
 2986SOL     OW 9409   0.621   2.693  12.610
 2986SOL    HW1 9410   0.677   2.768  12.594
 2986SOL    HW2 9411   0.681   2.619  12.616
 2987SOL     OW 9412   1.487   3.644  12.154
 2987SOL    HW1 9413   1.509   3.706  12.085
 2987SOL    HW2 9414   1.572   3.619  12.192
 2988SOL     OW 9415   0.716   2.422  12.874
 2988SOL    HW1 9416   0.762   2.482  12.933
 2988SOL    HW2 9417   0.738   2.335  12.907
 2989SOL     OW 9418   1.474   3.057  12.801
 2989SOL    HW1 9419   1.462   3.072  12.895
 2989SOL    HW2 9420   1.566   3.076  12.785
 2990SOL     OW 9421   0.377   3.610  12.732
 2990SOL    HW1 9422   0.289   3.646  12.720
 2990SOL    HW2 9423   0.363   3.526  12.776
 2991SOL     OW 9424   1.665   2.742  12.426
 2991SOL    HW1 9425   1.660   2.657  12.382
 2991SOL    HW2 9426   1.654   2.806  12.355
 2992SOL     OW 9427   1.216   2.182  11.630
 2992SOL    HW1 9428   1.278   2.109  11.623
 2992SOL    HW2 9429   1.245   2.231  11.706
 2993SOL     OW 9430   0.587   2.598  11.847
 2993SOL    HW1 9431   0.627   2.684  11.832
 2993SOL    HW2 9432   0.523   2.588  11.776
 2994SOL     OW 9433   1.753   2.243  12.820
 2994SOL    HW1 9434   1.739   2.245  12.725
 2994SOL    HW2 9435   1.693   2.176  12.852
 2995SOL     OW 9436   1.746   2.797  12.682
 2995SOL    HW1 9437   1.737   2.892  12.695
 2995SOL    HW2 9438   1.729   2.783  12.589
 2996SOL     OW 9439   0.866   3.228  11.216
 2996SOL    HW1 9440   0.824   3.256  11.297
 2996SOL    HW2 9441   0.878   3.309  11.166
 2997SOL     OW 9442   0.658   3.648  12.102
 2997SOL    HW1 9443   0.638   3.740  12.085
 2997SOL    HW2 9444   0.754   3.644  12.101
 2998SOL     OW 9445   0.870   2.832  12.025
 2998SOL    HW1 9446   0.920   2.759  12.062
 2998SOL    HW2 9447   0.832   2.876  12.100
 2999SOL     OW 9448   1.076   2.849  11.260
 2999SOL    HW1 9449   1.055   2.902  11.183
 2999SOL    HW2 9450   1.150   2.796  11.234
 3000SOL     OW 9451   1.847   3.411  12.012
 3000SOL    HW1 9452   1.766   3.401  11.962
 3000SOL    HW2 9453   1.837   3.351  12.086
 3001SOL     OW 9454   0.230   3.167  13.029
 3001SOL    HW1 9455   0.152   3.118  13.002
 3001SOL    HW2 9456   0.219   3.179  13.123
 3002SOL     OW 9457   0.122   3.145  11.897
 3002SOL    HW1 9458   0.141   3.093  11.975
 3002SOL    HW2 9459   0.104   3.081  11.829
 3003SOL     OW 9460   0.685   3.269  12.804
 3003SOL    HW1 9461   0.604   3.227  12.835
 3003SOL    HW2 9462   0.682   3.357  12.841
 3004SOL     OW 9463   0.440   2.295  11.707
 3004SOL    HW1 9464   0.439   2.225  11.641
 3004SOL    HW2 9465   0.385   2.262  11.777
 3005SOL     OW 9466   1.699   3.345  12.260
 3005SOL    HW1 9467   1.618   3.326  12.213
 3005SOL    HW2 9468   1.705   3.278  12.328
 3006SOL     OW 9469   0.337   2.422  12.464
 3006SOL    HW1 9470   0.390   2.363  12.519
 3006SOL    HW2 9471   0.351   2.389  12.375
 3007SOL     OW 9472   0.830   3.441  11.848
 3007SOL    HW1 9473   0.809   3.499  11.774
 3007SOL    HW2 9474   0.757   3.380  11.851
 3008SOL     OW 9475   1.435   2.094  12.292
 3008SOL    HW1 9476   1.442   2.005  12.326
 3008SOL    HW2 9477   1.382   2.140  12.356
 3009SOL     OW 9478   1.010   1.878  12.308
 3009SOL    HW1 9479   0.956   1.811  12.265
 3009SOL    HW2 9480   1.098   1.840  12.309
 3010SOL     OW 9481   0.773   3.194  11.494
 3010SOL    HW1 9482   0.746   3.103  11.501
 3010SOL    HW2 9483   0.856   3.198  11.542
 3011SOL     OW 9484   0.621   3.415  12.459
 3011SOL    HW1 9485   0.621   3.497  12.508
 3011SOL    HW2 9486   0.709   3.410  12.422
 3012SOL     OW 9487   1.353   1.914  11.342
 3012SOL    HW1 9488   1.386   1.848  11.281
 3012SOL    HW2 9489   1.264   1.884  11.363
 3013SOL     OW 9490   1.301   2.326  11.852
 3013SOL    HW1 9491   1.247   2.405  11.854
 3013SOL    HW2 9492   1.292   2.288  11.939
 3014SOL     OW 9493   1.564   2.047  12.047
 3014SOL    HW1 9494   1.531   2.078  12.131
 3014SOL    HW2 9495   1.585   2.127  11.998
 3015SOL     OW 9496   0.047   2.908  11.414
 3015SOL    HW1 9497   0.142   2.894  11.406
 3015SOL    HW2 9498   0.012   2.822  11.436
 3016SOL     OW 9499   0.888   3.525  11.513
 3016SOL    HW1 9500   0.816   3.506  11.453
 3016SOL    HW2 9501   0.857   3.598  11.566
 3017SOL     OW 9502   0.228   2.490  13.152
 3017SOL    HW1 9503   0.135   2.496  13.173
 3017SOL    HW2 9504   0.231   2.456  13.062
 3018SOL     OW 9505   0.287   2.136   0.128
 3018SOL    HW1 9506   0.334   2.208   0.170
 3018SOL    HW2 9507   0.203   2.174   0.102
 3019SOL     OW 9508   0.000   2.217  13.664
 3019SOL    HW1 9509   3.907   2.239  13.664
 3019SOL    HW2 9510   0.019   2.192  13.574
 3020SOL     OW 9511   1.517   3.356  13.732
 3020SOL    HW1 9512   1.467   3.280  13.762
 3020SOL    HW2 9513   1.474   3.381  13.650
 3021SOL     OW 9514   1.132   2.558  13.724
 3021SOL    HW1 9515   1.183   2.638  13.709
 3021SOL    HW2 9516   1.084   2.575  13.805
 3022SOL     OW 9517   1.793   2.458  13.254
 3022SOL    HW1 9518   1.759   2.456  13.165
 3022SOL    HW2 9519   1.745   2.390  13.301
 3023SOL     OW 9520   0.687   2.872  13.670
 3023SOL    HW1 9521   0.739   2.854  13.748
 3023SOL    HW2 9522   0.614   2.924  13.701
 3024SOL     OW 9523   1.618   2.305  13.732
 3024SOL    HW1 9524   1.525   2.319  13.716
 3024SOL    HW2 9525   1.631   2.331  13.824
 3025SOL     OW 9526   0.222   3.570  13.503
 3025SOL    HW1 9527   0.242   3.630  13.575
 3025SOL    HW2 9528   0.298   3.576  13.445
 3026SOL     OW 9529   0.252   3.302  13.572
 3026SOL    HW1 9530   0.226   3.393  13.560
 3026SOL    HW2 9531   0.187   3.266  13.633
 3027SOL     OW 9532   0.258   2.934   0.015
 3027SOL    HW1 9533   0.276   2.899   0.102
 3027SOL    HW2 9534   0.219   3.020   0.031
 3028SOL     OW 9535   0.573   2.850  13.172
 3028SOL    HW1 9536   0.623   2.893  13.103
 3028SOL    HW2 9537   0.614   2.880  13.253
 3029SOL     OW 9538   0.141   2.516  13.613
 3029SOL    HW1 9539   0.063   2.466  13.590
 3029SOL    HW2 9540   0.109   2.582  13.675
 3030SOL     OW 9541   1.847   3.605  13.372
 3030SOL    HW1 9542   1.916   3.584  13.436
 3030SOL    HW2 9543   1.863   3.697  13.350
 3031SOL     OW 9544   0.041   3.451  13.174
 3031SOL    HW1 9545   0.037   3.360  13.202
 3031SOL    HW2 9546   3.958   3.489  13.204
 3032SOL     OW 9547   1.687   2.779  13.669
 3032SOL    HW1 9548   1.771   2.740  13.645
 3032SOL    HW2 9549   1.663   2.835  13.595
 3033SOL     OW 9550   1.650   2.965  13.459
 3033SOL    HW1 9551   1.736   2.965  13.418
 3033SOL    HW2 9552   1.657   3.032  13.528
 3034SOL     OW 9553   0.618   3.246  13.758
 3034SOL    HW1 9554   0.565   3.168  13.777
 3034SOL    HW2 9555   0.585   3.277  13.674
 3035SOL     OW 9556   0.823   1.864  13.545
 3035SOL    HW1 9557   0.861   1.949  13.523
 3035SOL    HW2 9558   0.729   1.881  13.551
 3036SOL     OW 9559   1.530   2.860  13.234
 3036SOL    HW1 9560   1.461   2.803  13.266
 3036SOL    HW2 9561   1.572   2.894  13.312
 3037SOL     OW 9562   1.651   3.601  13.612
 3037SOL    HW1 9563   1.633   3.570  13.524
 3037SOL    HW2 9564   1.643   3.523  13.667
 3038SOL     OW 9565   0.593   2.576  13.299
 3038SOL    HW1 9566   0.599   2.661  13.255
 3038SOL    HW2 9567   0.530   2.590  13.370
 3039SOL     OW 9568   1.246   2.190   0.037
 3039SOL    HW1 9569   1.188   2.128   0.082
 3039SOL    HW2 9570   1.331   2.178   0.078
 3040SOL     OW 9571   1.577   3.544  13.340
 3040SOL    HW1 9572   1.671   3.561  13.335
 3040SOL    HW2 9573   1.552   3.523  13.250
 3041SOL     OW 9574   1.052   2.559  13.456
 3041SOL    HW1 9575   1.069   2.548  13.550
 3041SOL    HW2 9576   0.969   2.512  13.442
 3042SOL     OW 9577   0.082   2.709  13.805
 3042SOL    HW1 9578   0.159   2.693  13.859
 3042SOL    HW2 9579   0.076   2.805  13.800
 3043SOL     OW 9580   0.898   2.211  13.226
 3043SOL    HW1 9581   0.937   2.275  13.167
 3043SOL    HW2 9582   0.915   2.126  13.185
 3044SOL     OW 9583   1.364   2.997  13.549
 3044SOL    HW1 9584   1.454   2.996  13.514
 3044SOL    HW2 9585   1.321   3.068  13.501
 3045SOL     OW 9586   0.996   3.302  13.500
 3045SOL    HW1 9587   0.967   3.380  13.452
 3045SOL    HW2 9588   0.963   3.315  13.589
 3046SOL     OW 9589   0.424   3.680  13.797
 3046SOL    HW1 9590   0.411   3.588  13.820
 3046SOL    HW2 9591   0.479   3.714  13.868
 3047SOL     OW 9592   1.789   2.908  13.899
 3047SOL    HW1 9593   1.736   2.892  13.821
 3047SOL    HW2 9594   1.727   2.904   0.071
 3048SOL     OW 9595   0.311   2.814  13.277
 3048SOL    HW1 9596   0.393   2.837  13.233
 3048SOL    HW2 9597   0.299   2.721  13.258
 3049SOL     OW 9598   1.491   2.596  13.742
 3049SOL    HW1 9599   1.491   2.549  13.825
 3049SOL    HW2 9600   1.567   2.654  13.747
 3050SOL     OW 9601   1.113   3.645  13.252
 3050SOL    HW1 9602   1.049   3.600  13.307
 3050SOL    HW2 9603   1.145   3.577  13.192
 3051SOL     OW 9604   1.628   3.244  13.126
 3051SOL    HW1 9605   1.587   3.329  13.108
 3051SOL    HW2 9606   1.560   3.180  13.104
 3052SOL     OW 9607   0.465   3.602  13.353
 3052SOL    HW1 9608   0.503   3.661  13.418
 3052SOL    HW2 9609   0.539   3.573  13.300
 3053SOL     OW 9610   1.404   1.972  13.465
 3053SOL    HW1 9611   1.386   1.949  13.374
 3053SOL    HW2 9612   1.491   1.937  13.482
 3054SOL     OW 9613   0.925   3.545   0.008
 3054SOL    HW1 9614   0.938   3.475   0.073
 3054SOL    HW2 9615   0.886   3.500  13.833
 3055SOL     OW 9616   0.396   2.557  13.502
 3055SOL    HW1 9617   0.423   2.466  13.515
 3055SOL    HW2 9618   0.306   2.560  13.532
 3056SOL     OW 9619   0.649   1.977  13.128
 3056SOL    HW1 9620   0.705   1.903  13.151
 3056SOL    HW2 9621   0.597   1.946  13.054
 3057SOL     OW 9622   0.557   1.924  13.526
 3057SOL    HW1 9623   0.474   1.927  13.574
 3057SOL    HW2 9624   0.560   2.006  13.477
 3058SOL     OW 9625   1.428   3.062  13.073
 3058SOL    HW1 9626   1.458   2.987  13.124
 3058SOL    HW2 9627   1.342   3.084  13.110
 3059SOL     OW 9628   0.310   1.911  13.201
 3059SOL    HW1 9629   0.372   1.950  13.140
 3059SOL    HW2 9630   0.361   1.848  13.251
 3060SOL     OW 9631   0.942   2.110  13.491
 3060SOL    HW1 9632   0.913   2.150  13.409
 3060SOL    HW2 9633   1.036   2.127  13.495
 3061SOL     OW 9634   0.470   3.006  13.760
 3061SOL    HW1 9635   0.400   2.981  13.821
 3061SOL    HW2 9636   0.431   2.996  13.674
 3062SOL     OW 9637   1.264   3.658  13.629
 3062SOL    HW1 9638   1.311   3.726  13.581
 3062SOL    HW2 9639   1.195   3.704  13.676
 3063SOL     OW 9640   1.024   2.397  13.060
 3063SOL    HW1 9641   0.981   2.480  13.041
 3063SOL    HW2 9642   1.089   2.418  13.127
 3064SOL     OW 9643   0.898   2.330  13.677
 3064SOL    HW1 9644   0.832   2.380  13.628
 3064SOL    HW2 9645   0.906   2.247  13.629
 3065SOL     OW 9646   1.027   1.891  13.771
 3065SOL    HW1 9647   0.968   1.902  13.696
 3065SOL    HW2 9648   0.992   1.814  13.817
 3066SOL     OW 9649   1.839   2.675  13.413
 3066SOL    HW1 9650   1.898   2.630  13.473
 3066SOL    HW2 9651   1.819   2.611  13.345
 3067SOL     OW 9652   0.487   3.284  13.191
 3067SOL    HW1 9653   0.410   3.254  13.240
 3067SOL    HW2 9654   0.474   3.249  13.103
 3068SOL     OW 9655   1.687   3.138  13.657
 3068SOL    HW1 9656   1.779   3.133  13.683
 3068SOL    HW2 9657   1.654   3.216  13.701
 3069SOL     OW 9658   1.393   2.436  13.102
 3069SOL    HW1 9659   1.334   2.414  13.175
 3069SOL    HW2 9660   1.479   2.410  13.133
 3070SOL     OW 9661   0.573   2.129  13.347
 3070SOL    HW1 9662   0.609   2.082  13.272
 3070SOL    HW2 9663   0.544   2.213  13.310
 3071SOL     OW 9664   0.708   2.925  13.399
 3071SOL    HW1 9665   0.695   2.909  13.492
 3071SOL    HW2 9666   0.785   2.872  13.376
 3072SOL     OW 9667   0.364   2.966  13.511
 3072SOL    HW1 9668   0.363   3.048  13.463
 3072SOL    HW2 9669   0.364   2.898  13.443
 3073SOL     OW 9670   0.567   2.408  13.872
 3073SOL    HW1 9671   0.574   2.469  13.799
 3073SOL    HW2 9672   0.637   2.433   0.032
 3074SOL     OW 9673   1.244   3.216  13.417
 3074SOL    HW1 9674   1.298   3.289  13.446
 3074SOL    HW2 9675   1.157   3.235  13.453
 3075SOL     OW 9676   1.576   2.497  13.488
 3075SOL    HW1 9677   1.535   2.524  13.570
 3075SOL    HW2 9678   1.621   2.575  13.457
 3076SOL     OW 9679   1.199   2.389  13.295
 3076SOL    HW1 9680   1.208   2.311  13.350
 3076SOL    HW2 9681   1.157   2.454  13.351
 3077SOL     OW 9682   0.307   1.920  13.640
 3077SOL    HW1 9683   0.293   2.011  13.667
 3077SOL    HW2 9684   0.329   1.874  13.721
 3078SOL     OW 9685   1.614   2.243  13.409
 3078SOL    HW1 9686   1.598   2.191  13.488
 3078SOL    HW2 9687   1.594   2.333  13.435
 3079SOL     OW 9688   1.526   2.134  13.164
 3079SOL    HW1 9689   1.461   2.070  13.191
 3079SOL    HW2 9690   1.560   2.170  13.247
 3080SOL     OW 9691   1.285   2.686  13.060
 3080SOL    HW1 9692   1.328   2.601  13.065
 3080SOL    HW2 9693   1.318   2.726  12.980
 3081SOL     OW 9694   4.000   3.177  13.214
 3081SOL    HW1 9695   3.905   3.194  13.219
 3081SOL    HW2 9696   0.009   3.084  13.231
 3082SOL     OW 9697   0.819   2.433  13.390
 3082SOL    HW1 9698   0.823   2.356  13.334
 3082SOL    HW2 9699   0.743   2.482  13.360
 3083SOL     OW 9700   0.450   2.350  13.228
 3083SOL    HW1 9701   0.515   2.417  13.247
 3083SOL    HW2 9702   0.371   2.398  13.207
 3084SOL     OW 9703   1.316   2.717  13.335
 3084SOL    HW1 9704   1.242   2.687  13.388
 3084SOL    HW2 9705   1.288   2.702  13.245
 3085SOL     OW 9706   1.383   3.438  13.508
 3085SOL    HW1 9707   1.442   3.476  13.444
 3085SOL    HW2 9708   1.336   3.513  13.545
 3086SOL     OW 9709   1.289   2.776  13.685
 3086SOL    HW1 9710   1.366   2.719  13.674
 3086SOL    HW2 9711   1.314   2.857  13.640
 3087SOL     OW 9712   0.674   3.482  13.193
 3087SOL    HW1 9713   0.684   3.499  13.099
 3087SOL    HW2 9714   0.615   3.407  13.197
 3088SOL     OW 9715   0.284   2.172  13.736
 3088SOL    HW1 9716   0.201   2.217  13.724
 3088SOL    HW2 9717   0.295   2.168  13.831
 3089SOL     OW 9718   1.209   3.463  13.071
 3089SOL    HW1 9719   1.198   3.371  13.095
 3089SOL    HW2 9720   1.147   3.477  12.999
 3090SOL     OW 9721   0.919   2.774  13.330
 3090SOL    HW1 9722   0.977   2.805  13.261
 3090SOL    HW2 9723   0.966   2.702  13.371
 3091SOL     OW 9724   1.488   3.494  13.077
 3091SOL    HW1 9725   1.395   3.481  13.061
 3091SOL    HW2 9726   1.527   3.498  12.990
 3092SOL     OW 9727   1.050   2.953  13.756
 3092SOL    HW1 9728   0.965   2.916  13.732
 3092SOL    HW2 9729   1.111   2.917  13.690
 3093SOL     OW 9730   0.601   3.357  13.502
 3093SOL    HW1 9731   0.649   3.305  13.438
 3093SOL    HW2 9732   0.528   3.395  13.453
 3094SOL     OW 9733   0.253   3.201  13.323
 3094SOL    HW1 9734   0.159   3.207  13.306
 3094SOL    HW2 9735   0.263   3.239  13.411
 3095SOL     OW 9736   0.080   2.170  13.070
 3095SOL    HW1 9737   3.985   2.170  13.080
 3095SOL    HW2 9738   0.100   2.252  13.026
 3096SOL     OW 9739   0.018   2.110  13.413
 3096SOL    HW1 9740   0.049   2.169  13.345
 3096SOL    HW2 9741   0.095   2.058  13.437
 3097SOL     OW 9742   1.177   3.196  13.148
 3097SOL    HW1 9743   1.085   3.168  13.150
 3097SOL    HW2 9744   1.202   3.198  13.241
 3098SOL     OW 9745   1.216   2.181  13.489
 3098SOL    HW1 9746   1.279   2.110  13.481
 3098SOL    HW2 9747   1.245   2.231  13.565
 3099SOL     OW 9748   0.593   2.610  13.690
 3099SOL    HW1 9749   0.627   2.698  13.673
 3099SOL    HW2 9750   0.524   2.598  13.625
 3100SOL     OW 9751   0.866   3.227  13.076
 3100SOL    HW1 9752   0.825   3.253  13.159
 3100SOL    HW2 9753   0.878   3.309  13.029
 3101SOL     OW 9754   0.656   3.718   0.070
 3101SOL    HW1 9755   0.656   3.811   0.096
 3101SOL    HW2 9756   0.748   3.692   0.076
 3102SOL     OW 9757   0.821   2.828   0.001
 3102SOL    HW1 9758   0.844   2.742   0.036
 3102SOL    HW2 9759   0.867   2.890   0.057
 3103SOL     OW 9760   1.074   2.847  13.122
 3103SOL    HW1 9761   1.055   2.901  13.045
 3103SOL    HW2 9762   1.149   2.794  13.096
 3104SOL     OW 9763   0.115   3.141  13.765
 3104SOL    HW1 9764   0.046   3.106  13.822
 3104SOL    HW2 9765   0.117   3.082  13.690
 3105SOL     OW 9766   0.449   2.301  13.555
 3105SOL    HW1 9767   0.460   2.227  13.495
 3105SOL    HW2 9768   0.404   2.263  13.631
 3106SOL     OW 9769   1.680   3.313   0.354
 3106SOL    HW1 9770   1.648   3.293   0.266
 3106SOL    HW2 9771   1.772   3.287   0.353
 3107SOL     OW 9772   0.820   3.413  13.700
 3107SOL    HW1 9773   0.784   3.462  13.626
 3107SOL    HW2 9774   0.750   3.353  13.725
 3108SOL     OW 9775   0.773   3.195  13.350
 3108SOL    HW1 9776   0.746   3.104  13.358
 3108SOL    HW2 9777   0.853   3.202  13.401
 3109SOL     OW 9778   1.352   1.914  13.203
 3109SOL    HW1 9779   1.385   1.848  13.141
 3109SOL    HW2 9780   1.264   1.884  13.224
 3110SOL     OW 9781   1.305   2.323  13.707
 3110SOL    HW1 9782   1.254   2.404  13.712
 3110SOL    HW2 9783   1.284   2.276  13.788
 3111SOL     OW 9784   0.048   2.909  13.271
 3111SOL    HW1 9785   0.142   2.894  13.264
 3111SOL    HW2 9786   0.012   2.824  13.295
 3112SOL     OW 9787   0.889   3.524  13.375
 3112SOL    HW1 9788   0.815   3.507  13.316
 3112SOL    HW2 9789   0.859   3.596  13.430
 3113SOL     OW 9790   0.233   3.939   0.959
 3113SOL    HW1 9791   0.256   3.956   1.051
 3113SOL    HW2 9792   0.140   3.959   0.954
 3114SOL     OW 9793   0.014   0.103   0.627
 3114SOL    HW1 9794   3.926   0.082   0.657
 3114SOL    HW2 9795   0.025   0.053   0.546
 3115SOL     OW 9796   1.810   0.355   0.277
 3115SOL    HW1 9797   1.789   0.300   0.200
 3115SOL    HW2 9798   1.727   0.363   0.323
 3116SOL     OW 9799   0.440   0.094   1.508
 3116SOL    HW1 9800   0.511   0.056   1.457
 3116SOL    HW2 9801   0.363   0.041   1.485
 3117SOL     OW 9802   1.594   3.851   1.458
 3117SOL    HW1 9803   1.604   3.936   1.416
 3117SOL    HW2 9804   1.576   3.871   1.550
 3118SOL     OW 9805   0.809   3.728   0.512
 3118SOL    HW1 9806   0.835   3.819   0.501
 3118SOL    HW2 9807   0.713   3.731   0.519
 3119SOL     OW 9808   1.267   0.062   0.933
 3119SOL    HW1 9809   1.192   0.009   0.906
 3119SOL    HW2 9810   1.322   0.002   0.983
 3120SOL     OW 9811   0.557   3.904   0.893
 3120SOL    HW1 9812   0.554   3.926   0.986
 3120SOL    HW2 9813   0.551   3.989   0.848
 3121SOL     OW 9814   0.189   3.975   1.498
 3121SOL    HW1 9815   0.099   0.009   1.504
 3121SOL    HW2 9816   0.185   3.890   1.542
 3122SOL     OW 9817   1.411   3.835   0.437
 3122SOL    HW1 9818   1.408   3.794   0.350
 3122SOL    HW2 9819   1.503   3.830   0.462
 3123SOL     OW 9820   1.532   3.937   1.720
 3123SOL    HW1 9821   1.558   3.939   1.812
 3123SOL    HW2 9822   1.461   3.873   1.716
 3124SOL     OW 9823   0.772   3.952   1.741
 3124SOL    HW1 9824   0.826   3.924   1.814
 3124SOL    HW2 9825   0.686   3.969   1.779
 3125SOL     OW 9826   0.537   3.781   0.518
 3125SOL    HW1 9827   0.485   3.779   0.599
 3125SOL    HW2 9828   0.546   3.874   0.497
 3126SOL     OW 9829   0.264   3.736   0.179
 3126SOL    HW1 9830   0.298   3.824   0.170
 3126SOL    HW2 9831   0.334   3.687   0.222
 3127SOL     OW 9832   0.563   3.945   1.170
 3127SOL    HW1 9833   0.606   3.878   1.222
 3127SOL    HW2 9834   0.471   3.941   1.197
 3128SOL     OW 9835   1.021   3.766   0.727
 3128SOL    HW1 9836   0.955   3.754   0.659
 3128SOL    HW2 9837   0.998   3.703   0.795
 3129SOL     OW 9838   0.925   3.801   1.395
 3129SOL    HW1 9839   0.954   3.779   1.306
 3129SOL    HW2 9840   0.999   3.847   1.434
 3130SOL     OW 9841   1.267   0.071   1.266
 3130SOL    HW1 9842   1.275   0.141   1.331
 3130SOL    HW2 9843   1.198   0.101   1.207
 3131SOL     OW 9844   0.508   3.751   1.758
 3131SOL    HW1 9845   0.453   3.707   1.694
 3131SOL    HW2 9846   0.481   3.843   1.754
 3132SOL     OW 9847   0.303   3.924   1.255
 3132SOL    HW1 9848   0.254   3.940   1.336
 3132SOL    HW2 9849   0.290   3.831   1.238
 3133SOL     OW 9850   1.597   3.933   0.160
 3133SOL    HW1 9851   1.519   3.879   0.157
 3133SOL    HW2 9852   1.567   0.019   0.189
 3134SOL     OW 9853   1.163   3.918   1.473
 3134SOL    HW1 9854   1.165   3.995   1.531
 3134SOL    HW2 9855   1.207   3.948   1.394
 3135SOL     OW 9856   0.927   3.827   0.148
 3135SOL    HW1 9857   0.954   3.818   0.057
 3135SOL    HW2 9858   0.987   3.770   0.197
 3136SOL     OW 9859   1.702   3.856   0.510
 3136SOL    HW1 9860   1.781   3.846   0.456
 3136SOL    HW2 9861   1.693   3.772   0.555
 3137SOL     OW 9862   1.837   3.876   0.973
 3137SOL    HW1 9863   1.871   3.793   0.939
 3137SOL    HW2 9864   1.757   3.891   0.922
 3138SOL     OW 9865   0.680   3.907   1.486
 3138SOL    HW1 9866   0.764   3.896   1.441
 3138SOL    HW2 9867   0.704   3.930   1.575
 3139SOL     OW 9868   0.039   0.007   0.039
 3139SOL    HW1 9869   3.951   0.014   0.002
 3139SOL    HW2 9870   0.082   0.089   0.014
 3140SOL     OW 9871   0.120   3.935   0.378
 3140SOL    HW1 9872   0.071   3.974   0.306
 3140SOL    HW2 9873   0.168   3.862   0.338
 3141SOL     OW 9874   1.197   0.012   0.461
 3141SOL    HW1 9875   1.253   3.935   0.468
 3141SOL    HW2 9876   1.213   0.062   0.541
 3142SOL     OW 9877   1.786   0.038   1.638
 3142SOL    HW1 9878   1.757   0.074   1.555
 3142SOL    HW2 9879   1.708   3.997   1.675
 3143SOL     OW 9880   1.816   3.912   1.239
 3143SOL    HW1 9881   1.820   3.822   1.270
 3143SOL    HW2 9882   1.822   3.906   1.144
 3144SOL     OW 9883   1.439   3.931   1.116
 3144SOL    HW1 9884   1.470   3.852   1.159
 3144SOL    HW2 9885   1.382   3.973   1.180
 3145SOL     OW 9886   1.019   3.737   1.145
 3145SOL    HW1 9887   0.961   3.683   1.091
 3145SOL    HW2 9888   1.103   3.693   1.140
 3146SOL     OW 9889   1.356   3.783   0.151
 3146SOL    HW1 9890   1.396   3.710   0.104
 3146SOL    HW2 9891   1.272   3.748   0.181
 3147SOL     OW 9892   1.284   0.163   0.677
 3147SOL    HW1 9893   1.283   0.258   0.686
 3147SOL    HW2 9894   1.287   0.130   0.767
 3148SOL     OW 9895   1.581   3.925   0.881
 3148SOL    HW1 9896   1.531   3.931   0.963
 3148SOL    HW2 9897   1.581   0.015   0.848
 3149SOL     OW 9898   0.235   3.942   2.818
 3149SOL    HW1 9899   0.258   3.957   2.910
 3149SOL    HW2 9900   0.141   3.959   2.814
 3150SOL     OW 9901   0.007   0.108   2.481
 3150SOL    HW1 9902   3.922   0.086   2.520
 3150SOL    HW2 9903   0.016   0.047   2.408
 3151SOL     OW 9904   1.776   0.317   2.048
 3151SOL    HW1 9905   1.704   0.293   1.991
 3151SOL    HW2 9906   1.735   0.339   2.132
 3152SOL     OW 9907   0.440   0.094   3.370
 3152SOL    HW1 9908   0.511   0.055   3.319
 3152SOL    HW2 9909   0.363   0.041   3.348
 3153SOL     OW 9910   1.593   3.851   3.320
 3153SOL    HW1 9911   1.604   3.937   3.279
 3153SOL    HW2 9912   1.576   3.870   3.412
 3154SOL     OW 9913   0.807   3.730   2.371
 3154SOL    HW1 9914   0.833   3.822   2.364
 3154SOL    HW2 9915   0.712   3.733   2.379
 3155SOL     OW 9916   1.266   0.063   2.799
 3155SOL    HW1 9917   1.193   0.009   2.768
 3155SOL    HW2 9918   1.322   0.001   2.846
 3156SOL     OW 9919   0.557   3.905   2.755
 3156SOL    HW1 9920   0.554   3.925   2.848
 3156SOL    HW2 9921   0.552   3.991   2.712
 3157SOL     OW 9922   0.189   3.975   3.360
 3157SOL    HW1 9923   0.100   0.009   3.366
 3157SOL    HW2 9924   0.185   3.890   3.404
 3158SOL     OW 9925   1.408   3.829   2.299
 3158SOL    HW1 9926   1.400   3.797   2.209
 3158SOL    HW2 9927   1.502   3.825   2.317
 3159SOL     OW 9928   1.533   3.937   3.582
 3159SOL    HW1 9929   1.558   3.939   3.674
 3159SOL    HW2 9930   1.461   3.873   3.578
 3160SOL     OW 9931   0.629   3.850   1.991
 3160SOL    HW1 9932   0.720   3.819   1.989
 3160SOL    HW2 9933   0.586   3.800   1.922
 3161SOL     OW 9934   0.771   3.952   3.602
 3161SOL    HW1 9935   0.826   3.924   3.676
 3161SOL    HW2 9936   0.686   3.969   3.641
 3162SOL     OW 9937   0.536   3.784   2.378
 3162SOL    HW1 9938   0.485   3.785   2.460
 3162SOL    HW2 9939   0.543   3.876   2.354
 3163SOL     OW 9940   0.286   3.761   2.039
 3163SOL    HW1 9941   0.324   3.849   2.035
 3163SOL    HW2 9942   0.353   3.707   2.081
 3164SOL     OW 9943   0.563   3.944   3.031
 3164SOL    HW1 9944   0.607   3.878   3.085
 3164SOL    HW2 9945   0.471   3.940   3.059
 3165SOL     OW 9946   1.021   3.765   2.589
 3165SOL    HW1 9947   0.955   3.752   2.521
 3165SOL    HW2 9948   0.997   3.702   2.658
 3166SOL     OW 9949   0.925   3.801   3.257
 3166SOL    HW1 9950   0.954   3.779   3.168
 3166SOL    HW2 9951   0.999   3.848   3.296
 3167SOL     OW 9952   1.268   0.071   3.128
 3167SOL    HW1 9953   1.275   0.141   3.193
 3167SOL    HW2 9954   1.200   0.101   3.068
 3168SOL     OW 9955   0.509   3.751   3.620
 3168SOL    HW1 9956   0.453   3.707   3.556
 3168SOL    HW2 9957   0.481   3.843   3.616
 3169SOL     OW 9958   0.303   3.924   3.116
 3169SOL    HW1 9959   0.255   3.940   3.197
 3169SOL    HW2 9960   0.289   3.830   3.099
 3170SOL     OW 9961   1.577   3.951   1.980
 3170SOL    HW1 9962   1.518   3.895   2.030
 3170SOL    HW2 9963   1.614   0.011   2.045
 3171SOL     OW 9964   1.163   3.919   3.335
 3171SOL    HW1 9965   1.165   3.994   3.393
 3171SOL    HW2 9966   1.207   3.948   3.256
 3172SOL     OW 9967   0.901   3.810   1.961
 3172SOL    HW1 9968   0.957   3.762   1.899
 3172SOL    HW2 9969   0.945   3.800   2.045
 3173SOL     OW 9970   1.705   3.855   2.352
 3173SOL    HW1 9971   1.784   3.842   2.300
 3173SOL    HW2 9972   1.696   3.774   2.402
 3174SOL     OW 9973   1.836   3.876   2.836
 3174SOL    HW1 9974   1.871   3.794   2.802
 3174SOL    HW2 9975   1.758   3.892   2.784
 3175SOL     OW 9976   0.680   3.907   3.347
 3175SOL    HW1 9977   0.764   3.896   3.303
 3175SOL    HW2 9978   0.704   3.930   3.437
 3176SOL     OW 9979   0.072   0.017   1.856
 3176SOL    HW1 9980   3.977   0.020   1.865
 3176SOL    HW2 9981   0.100   0.107   1.872
 3177SOL     OW 9982   0.108   3.923   2.236
 3177SOL    HW1 9983   0.081   0.005   2.195
 3177SOL    HW2 9984   0.188   3.898   2.189
 3178SOL     OW 9985   1.200   0.013   2.322
 3178SOL    HW1 9986   1.264   3.942   2.327
 3178SOL    HW2 9987   1.216   0.065   2.402
 3179SOL     OW 9988   1.786   0.038   3.500
 3179SOL    HW1 9989   1.757   0.074   3.417
 3179SOL    HW2 9990   1.708   3.997   3.537
 3180SOL     OW 9991   1.816   3.912   3.102
 3180SOL    HW1 9992   1.820   3.822   3.132
 3180SOL    HW2 9993   1.822   3.906   3.007
 3181SOL     OW 9994   1.440   3.930   2.979
 3181SOL    HW1 9995   1.471   3.852   3.023
 3181SOL    HW2 9996   1.382   3.973   3.042
 3182SOL     OW 9997   1.018   3.737   3.007
 3182SOL    HW1 9998   0.960   3.683   2.953
 3182SOL    HW2 9999   1.103   3.693   3.002
 3183SOL     OW10000   1.355   3.770   2.028
 3183SOL    HW110001   1.391   3.701   1.972
 3183SOL    HW210002   1.267   3.740   2.050
 3184SOL     OW10003   1.280   0.162   2.543
 3184SOL    HW110004   1.285   0.258   2.548
 3184SOL    HW210005   1.284   0.132   2.634
 3185SOL     OW10006   1.580   3.925   2.743
 3185SOL    HW110007   1.532   3.931   2.826
 3185SOL    HW210008   1.581   0.014   2.709
 3186SOL     OW10009   0.235   3.942   4.680
 3186SOL    HW110010   0.258   3.957   4.772
 3186SOL    HW210011   0.141   3.959   4.676
 3187SOL     OW10012   0.007   0.108   4.343
 3187SOL    HW110013   3.922   0.086   4.382
 3187SOL    HW210014   0.016   0.047   4.270
 3188SOL     OW10015   1.776   0.317   3.910
 3188SOL    HW110016   1.704   0.293   3.853
 3188SOL    HW210017   1.735   0.339   3.994
 3189SOL     OW10018   0.440   0.094   5.232
 3189SOL    HW110019   0.511   0.055   5.181
 3189SOL    HW210020   0.363   0.041   5.210
 3190SOL     OW10021   1.593   3.851   5.182
 3190SOL    HW110022   1.604   3.937   5.141
 3190SOL    HW210023   1.576   3.870   5.274
 3191SOL     OW10024   0.807   3.730   4.233
 3191SOL    HW110025   0.833   3.822   4.226
 3191SOL    HW210026   0.712   3.733   4.241
 3192SOL     OW10027   1.266   0.062   4.661
 3192SOL    HW110028   1.193   0.009   4.630
 3192SOL    HW210029   1.322   0.001   4.708
 3193SOL     OW10030   0.557   3.905   4.617
 3193SOL    HW110031   0.554   3.925   4.710
 3193SOL    HW210032   0.553   3.991   4.574
 3194SOL     OW10033   0.189   3.975   5.222
 3194SOL    HW110034   0.100   0.009   5.228
 3194SOL    HW210035   0.185   3.890   5.266
 3195SOL     OW10036   1.408   3.829   4.161
 3195SOL    HW110037   1.400   3.797   4.071
 3195SOL    HW210038   1.502   3.825   4.179
 3196SOL     OW10039   1.533   3.936   5.444
 3196SOL    HW110040   1.558   3.939   5.536
 3196SOL    HW210041   1.461   3.873   5.440
 3197SOL     OW10042   0.629   3.850   3.853
 3197SOL    HW110043   0.720   3.820   3.851
 3197SOL    HW210044   0.586   3.800   3.784
 3198SOL     OW10045   0.772   3.952   5.464
 3198SOL    HW110046   0.826   3.924   5.538
 3198SOL    HW210047   0.686   3.969   5.503
 3199SOL     OW10048   0.536   3.784   4.241
 3199SOL    HW110049   0.486   3.785   4.322
 3199SOL    HW210050   0.543   3.876   4.216
 3200SOL     OW10051   0.286   3.761   3.901
 3200SOL    HW110052   0.324   3.849   3.897
 3200SOL    HW210053   0.353   3.707   3.943
 3201SOL     OW10054   0.563   3.944   4.893
 3201SOL    HW110055   0.607   3.878   4.947
 3201SOL    HW210056   0.471   3.940   4.921
 3202SOL     OW10057   1.021   3.765   4.451
 3202SOL    HW110058   0.955   3.752   4.383
 3202SOL    HW210059   0.997   3.702   4.520
 3203SOL     OW10060   0.925   3.801   5.119
 3203SOL    HW110061   0.954   3.779   5.030
 3203SOL    HW210062   0.998   3.848   5.158
 3204SOL     OW10063   1.268   0.071   4.990
 3204SOL    HW110064   1.275   0.141   5.055
 3204SOL    HW210065   1.199   0.101   4.930
 3205SOL     OW10066   0.509   3.751   5.482
 3205SOL    HW110067   0.453   3.707   5.418
 3205SOL    HW210068   0.481   3.843   5.478
 3206SOL     OW10069   0.303   3.924   4.978
 3206SOL    HW110070   0.255   3.940   5.059
 3206SOL    HW210071   0.289   3.830   4.961
 3207SOL     OW10072   1.577   3.951   3.842
 3207SOL    HW110073   1.518   3.895   3.892
 3207SOL    HW210074   1.614   0.011   3.907
 3208SOL     OW10075   1.163   3.918   5.197
 3208SOL    HW110076   1.165   3.994   5.256
 3208SOL    HW210077   1.207   3.948   5.118
 3209SOL     OW10078   0.901   3.810   3.823
 3209SOL    HW110079   0.957   3.762   3.761
 3209SOL    HW210080   0.945   3.800   3.907
 3210SOL     OW10081   1.705   3.855   4.214
 3210SOL    HW110082   1.784   3.842   4.162
 3210SOL    HW210083   1.696   3.774   4.264
 3211SOL     OW10084   1.836   3.876   4.698
 3211SOL    HW110085   1.871   3.794   4.664
 3211SOL    HW210086   1.758   3.892   4.646
 3212SOL     OW10087   0.680   3.907   5.209
 3212SOL    HW110088   0.764   3.896   5.165
 3212SOL    HW210089   0.704   3.930   5.299
 3213SOL     OW10090   0.072   0.017   3.718
 3213SOL    HW110091   3.977   0.020   3.727
 3213SOL    HW210092   0.100   0.107   3.734
 3214SOL     OW10093   0.108   3.923   4.097
 3214SOL    HW110094   0.081   0.005   4.057
 3214SOL    HW210095   0.188   3.899   4.051
 3215SOL     OW10096   1.200   0.014   4.184
 3215SOL    HW110097   1.264   3.942   4.189
 3215SOL    HW210098   1.216   0.065   4.264
 3216SOL     OW10099   1.786   0.037   5.362
 3216SOL    HW110100   1.757   0.074   5.279
 3216SOL    HW210101   1.708   3.997   5.399
 3217SOL     OW10102   1.816   3.912   4.964
 3217SOL    HW110103   1.820   3.822   4.994
 3217SOL    HW210104   1.822   3.906   4.869
 3218SOL     OW10105   1.440   3.930   4.841
 3218SOL    HW110106   1.471   3.852   4.886
 3218SOL    HW210107   1.382   3.973   4.904
 3219SOL     OW10108   1.018   3.737   4.869
 3219SOL    HW110109   0.960   3.683   4.815
 3219SOL    HW210110   1.103   3.693   4.864
 3220SOL     OW10111   1.355   3.770   3.890
 3220SOL    HW110112   1.391   3.701   3.834
 3220SOL    HW210113   1.267   3.740   3.912
 3221SOL     OW10114   1.280   0.162   4.405
 3221SOL    HW110115   1.285   0.258   4.410
 3221SOL    HW210116   1.284   0.132   4.495
 3222SOL     OW10117   1.580   3.925   4.605
 3222SOL    HW110118   1.532   3.931   4.688
 3222SOL    HW210119   1.581   0.014   4.571
 3223SOL     OW10120   0.235   3.942   6.542
 3223SOL    HW110121   0.258   3.957   6.634
 3223SOL    HW210122   0.141   3.959   6.538
 3224SOL     OW10123   0.007   0.108   6.205
 3224SOL    HW110124   3.922   0.086   6.244
 3224SOL    HW210125   0.016   0.047   6.132
 3225SOL     OW10126   1.776   0.316   5.772
 3225SOL    HW110127   1.703   0.292   5.715
 3225SOL    HW210128   1.735   0.339   5.855
 3226SOL     OW10129   0.440   0.094   7.094
 3226SOL    HW110130   0.511   0.056   7.043
 3226SOL    HW210131   0.363   0.041   7.071
 3227SOL     OW10132   1.593   3.851   7.043
 3227SOL    HW110133   1.604   3.937   7.002
 3227SOL    HW210134   1.576   3.870   7.136
 3228SOL     OW10135   0.807   3.730   6.095
 3228SOL    HW110136   0.833   3.822   6.088
 3228SOL    HW210137   0.712   3.733   6.103
 3229SOL     OW10138   1.266   0.063   6.523
 3229SOL    HW110139   1.193   0.009   6.492
 3229SOL    HW210140   1.322   0.001   6.570
 3230SOL     OW10141   0.557   3.905   6.479
 3230SOL    HW110142   0.554   3.925   6.572
 3230SOL    HW210143   0.552   3.991   6.436
 3231SOL     OW10144   0.189   3.975   7.084
 3231SOL    HW110145   0.100   0.009   7.090
 3231SOL    HW210146   0.185   3.890   7.127
 3232SOL     OW10147   1.408   3.828   6.023
 3232SOL    HW110148   1.400   3.797   5.933
 3232SOL    HW210149   1.502   3.825   6.041
 3233SOL     OW10150   1.533   3.937   7.306
 3233SOL    HW110151   1.558   3.939   7.398
 3233SOL    HW210152   1.462   3.873   7.302
 3234SOL     OW10153   0.629   3.850   5.715
 3234SOL    HW110154   0.720   3.819   5.713
 3234SOL    HW210155   0.586   3.800   5.646
 3235SOL     OW10156   0.771   3.952   7.326
 3235SOL    HW110157   0.826   3.925   7.400
 3235SOL    HW210158   0.686   3.969   7.365
 3236SOL     OW10159   0.536   3.784   6.103
 3236SOL    HW110160   0.486   3.785   6.184
 3236SOL    HW210161   0.543   3.876   6.078
 3237SOL     OW10162   0.286   3.761   5.763
 3237SOL    HW110163   0.324   3.849   5.759
 3237SOL    HW210164   0.353   3.707   5.805
 3238SOL     OW10165   0.563   3.944   6.755
 3238SOL    HW110166   0.607   3.878   6.809
 3238SOL    HW210167   0.471   3.940   6.783
 3239SOL     OW10168   1.021   3.765   6.313
 3239SOL    HW110169   0.955   3.752   6.245
 3239SOL    HW210170   0.997   3.702   6.382
 3240SOL     OW10171   0.925   3.801   6.981
 3240SOL    HW110172   0.954   3.779   6.892
 3240SOL    HW210173   0.999   3.848   7.020
 3241SOL     OW10174   1.268   0.071   6.852
 3241SOL    HW110175   1.275   0.141   6.916
 3241SOL    HW210176   1.199   0.101   6.792
 3242SOL     OW10177   0.508   3.751   7.344
 3242SOL    HW110178   0.453   3.707   7.280
 3242SOL    HW210179   0.481   3.843   7.340
 3243SOL     OW10180   0.303   3.924   6.840
 3243SOL    HW110181   0.255   3.940   6.921
 3243SOL    HW210182   0.289   3.830   6.823
 3244SOL     OW10183   1.577   3.951   5.704
 3244SOL    HW110184   1.518   3.895   5.754
 3244SOL    HW210185   1.613   0.012   5.769
 3245SOL     OW10186   1.163   3.919   7.059
 3245SOL    HW110187   1.165   3.995   7.117
 3245SOL    HW210188   1.208   3.948   6.980
 3246SOL     OW10189   0.901   3.810   5.685
 3246SOL    HW110190   0.957   3.762   5.623
 3246SOL    HW210191   0.945   3.800   5.769
 3247SOL     OW10192   1.705   3.855   6.076
 3247SOL    HW110193   1.784   3.843   6.024
 3247SOL    HW210194   1.696   3.774   6.126
 3248SOL     OW10195   1.837   3.877   6.560
 3248SOL    HW110196   1.871   3.794   6.526
 3248SOL    HW210197   1.758   3.892   6.508
 3249SOL     OW10198   0.680   3.907   7.071
 3249SOL    HW110199   0.764   3.896   7.027
 3249SOL    HW210200   0.704   3.930   7.161
 3250SOL     OW10201   0.072   0.017   5.580
 3250SOL    HW110202   3.977   0.020   5.589
 3250SOL    HW210203   0.100   0.107   5.596
 3251SOL     OW10204   0.108   3.923   5.960
 3251SOL    HW110205   0.081   0.005   5.919
 3251SOL    HW210206   0.188   3.899   5.913
 3252SOL     OW10207   1.201   0.014   6.046
 3252SOL    HW110208   1.264   3.942   6.051
 3252SOL    HW210209   1.216   0.065   6.126
 3253SOL     OW10210   1.786   0.039   7.223
 3253SOL    HW110211   1.756   0.075   7.140
 3253SOL    HW210212   1.709   3.997   7.261
 3254SOL     OW10213   1.816   3.912   6.826
 3254SOL    HW110214   1.819   3.821   6.856
 3254SOL    HW210215   1.822   3.906   6.731
 3255SOL     OW10216   1.440   3.930   6.703
 3255SOL    HW110217   1.471   3.851   6.747
 3255SOL    HW210218   1.382   3.972   6.766
 3256SOL     OW10219   1.018   3.737   6.731
 3256SOL    HW110220   0.960   3.683   6.677
 3256SOL    HW210221   1.103   3.693   6.726
 3257SOL     OW10222   1.355   3.770   5.752
 3257SOL    HW110223   1.390   3.701   5.696
 3257SOL    HW210224   1.267   3.740   5.774
 3258SOL     OW10225   1.280   0.162   6.267
 3258SOL    HW110226   1.285   0.258   6.272
 3258SOL    HW210227   1.284   0.133   6.358
 3259SOL     OW10228   1.580   3.925   6.467
 3259SOL    HW110229   1.532   3.931   6.550
 3259SOL    HW210230   1.581   0.015   6.433
 3260SOL     OW10231   0.235   3.942   8.404
 3260SOL    HW110232   0.258   3.957   8.496
 3260SOL    HW210233   0.141   3.959   8.400
 3261SOL     OW10234   0.007   0.108   8.067
 3261SOL    HW110235   3.922   0.086   8.106
 3261SOL    HW210236   0.016   0.047   7.994
 3262SOL     OW10237   1.776   0.316   7.634
 3262SOL    HW110238   1.703   0.292   7.577
 3262SOL    HW210239   1.735   0.338   7.717
 3263SOL     OW10240   0.440   0.094   8.956
 3263SOL    HW110241   0.511   0.056   8.905
 3263SOL    HW210242   0.363   0.041   8.933
 3264SOL     OW10243   1.593   3.851   8.906
 3264SOL    HW110244   1.604   3.936   8.864
 3264SOL    HW210245   1.576   3.871   8.998
 3265SOL     OW10246   0.807   3.730   7.957
 3265SOL    HW110247   0.833   3.822   7.950
 3265SOL    HW210248   0.712   3.733   7.965
 3266SOL     OW10249   1.265   0.063   8.385
 3266SOL    HW110250   1.193   0.009   8.354
 3266SOL    HW210251   1.322   0.001   8.432
 3267SOL     OW10252   0.557   3.905   8.341
 3267SOL    HW110253   0.554   3.925   8.434
 3267SOL    HW210254   0.552   3.991   8.298
 3268SOL     OW10255   0.189   3.975   8.946
 3268SOL    HW110256   0.100   0.009   8.952
 3268SOL    HW210257   0.185   3.890   8.990
 3269SOL     OW10258   1.408   3.828   7.885
 3269SOL    HW110259   1.400   3.797   7.795
 3269SOL    HW210260   1.502   3.824   7.903
 3270SOL     OW10261   1.532   3.937   9.168
 3270SOL    HW110262   1.558   3.939   9.260
 3270SOL    HW210263   1.461   3.873   9.164
 3271SOL     OW10264   0.629   3.850   7.577
 3271SOL    HW110265   0.720   3.820   7.575
 3271SOL    HW210266   0.586   3.800   7.508
 3272SOL     OW10267   0.771   3.952   9.189
 3272SOL    HW110268   0.826   3.925   9.262
 3272SOL    HW210269   0.686   3.969   9.227
 3273SOL     OW10270   0.536   3.784   7.964
 3273SOL    HW110271   0.485   3.785   8.046
 3273SOL    HW210272   0.543   3.876   7.940
 3274SOL     OW10273   0.286   3.761   7.625
 3274SOL    HW110274   0.324   3.849   7.621
 3274SOL    HW210275   0.353   3.707   7.667
 3275SOL     OW10276   0.563   3.944   8.617
 3275SOL    HW110277   0.607   3.878   8.671
 3275SOL    HW210278   0.471   3.940   8.645
 3276SOL     OW10279   1.021   3.765   8.175
 3276SOL    HW110280   0.955   3.753   8.107
 3276SOL    HW210281   0.997   3.702   8.244
 3277SOL     OW10282   0.925   3.801   8.843
 3277SOL    HW110283   0.954   3.779   8.754
 3277SOL    HW210284   0.999   3.848   8.882
 3278SOL     OW10285   1.268   0.071   8.714
 3278SOL    HW110286   1.275   0.141   8.778
 3278SOL    HW210287   1.200   0.101   8.654
 3279SOL     OW10288   0.508   3.751   9.206
 3279SOL    HW110289   0.453   3.707   9.142
 3279SOL    HW210290   0.481   3.843   9.202
 3280SOL     OW10291   0.303   3.924   8.702
 3280SOL    HW110292   0.255   3.940   8.783
 3280SOL    HW210293   0.289   3.830   8.685
 3281SOL     OW10294   1.577   3.951   7.566
 3281SOL    HW110295   1.518   3.895   7.616
 3281SOL    HW210296   1.613   0.011   7.631
 3282SOL     OW10297   1.163   3.919   8.921
 3282SOL    HW110298   1.165   3.995   8.979
 3282SOL    HW210299   1.207   3.948   8.842
 3283SOL     OW10300   0.901   3.810   7.547
 3283SOL    HW110301   0.957   3.763   7.485
 3283SOL    HW210302   0.945   3.800   7.631
 3284SOL     OW10303   1.705   3.855   7.938
 3284SOL    HW110304   1.784   3.842   7.886
 3284SOL    HW210305   1.696   3.774   7.989
 3285SOL     OW10306   1.837   3.876   8.422
 3285SOL    HW110307   1.871   3.794   8.388
 3285SOL    HW210308   1.758   3.892   8.370
 3286SOL     OW10309   0.680   3.907   8.933
 3286SOL    HW110310   0.764   3.896   8.889
 3286SOL    HW210311   0.704   3.930   9.023
 3287SOL     OW10312   0.072   0.017   7.442
 3287SOL    HW110313   3.976   0.020   7.451
 3287SOL    HW210314   0.100   0.107   7.458
 3288SOL     OW10315   0.109   3.923   7.822
 3288SOL    HW110316   0.081   0.005   7.781
 3288SOL    HW210317   0.188   3.898   7.775
 3289SOL     OW10318   1.200   0.013   7.909
 3289SOL    HW110319   1.264   3.942   7.913
 3289SOL    HW210320   1.216   0.065   7.988
 3290SOL     OW10321   1.786   0.038   9.086
 3290SOL    HW110322   1.757   0.074   9.003
 3290SOL    HW210323   1.708   3.997   9.123
 3291SOL     OW10324   1.816   3.912   8.688
 3291SOL    HW110325   1.820   3.822   8.718
 3291SOL    HW210326   1.822   3.906   8.593
 3292SOL     OW10327   1.440   3.930   8.565
 3292SOL    HW110328   1.471   3.852   8.609
 3292SOL    HW210329   1.382   3.973   8.628
 3293SOL     OW10330   1.018   3.737   8.593
 3293SOL    HW110331   0.961   3.683   8.539
 3293SOL    HW210332   1.103   3.693   8.588
 3294SOL     OW10333   1.355   3.770   7.614
 3294SOL    HW110334   1.391   3.701   7.558
 3294SOL    HW210335   1.267   3.740   7.636
 3295SOL     OW10336   1.281   0.162   8.129
 3295SOL    HW110337   1.285   0.258   8.134
 3295SOL    HW210338   1.284   0.133   8.220
 3296SOL     OW10339   1.580   3.925   8.329
 3296SOL    HW110340   1.532   3.931   8.412
 3296SOL    HW210341   1.581   0.014   8.295
 3297SOL     OW10342   0.235   3.942  10.266
 3297SOL    HW110343   0.258   3.957  10.358
 3297SOL    HW210344   0.141   3.959  10.262
 3298SOL     OW10345   0.007   0.107   9.929
 3298SOL    HW110346   3.922   0.086   9.968
 3298SOL    HW210347   0.016   0.047   9.856
 3299SOL     OW10348   1.777   0.317   9.496
 3299SOL    HW110349   1.704   0.293   9.439
 3299SOL    HW210350   1.735   0.339   9.580
 3300SOL     OW10351   0.440   0.094  10.818
 3300SOL    HW110352   0.511   0.056  10.767
 3300SOL    HW210353   0.363   0.041  10.795
 3301SOL     OW10354   1.593   3.851  10.768
 3301SOL    HW110355   1.604   3.936  10.726
 3301SOL    HW210356   1.575   3.871  10.860
 3302SOL     OW10357   0.807   3.730   9.819
 3302SOL    HW110358   0.833   3.822   9.812
 3302SOL    HW210359   0.712   3.733   9.827
 3303SOL     OW10360   1.265   0.063  10.247
 3303SOL    HW110361   1.193   0.009  10.216
 3303SOL    HW210362   1.322   0.001  10.294
 3304SOL     OW10363   0.557   3.905  10.203
 3304SOL    HW110364   0.554   3.925  10.297
 3304SOL    HW210365   0.552   3.991  10.160
 3305SOL     OW10366   0.189   3.975  10.808
 3305SOL    HW110367   0.100   0.009  10.814
 3305SOL    HW210368   0.185   3.890  10.852
 3306SOL     OW10369   1.408   3.828   9.747
 3306SOL    HW110370   1.400   3.797   9.657
 3306SOL    HW210371   1.502   3.825   9.765
 3307SOL     OW10372   1.532   3.937  11.030
 3307SOL    HW110373   1.558   3.939  11.122
 3307SOL    HW210374   1.461   3.873  11.026
 3308SOL     OW10375   0.629   3.850   9.439
 3308SOL    HW110376   0.720   3.820   9.437
 3308SOL    HW210377   0.586   3.800   9.370
 3309SOL     OW10378   0.771   3.952  11.050
 3309SOL    HW110379   0.826   3.925  11.124
 3309SOL    HW210380   0.686   3.969  11.089
 3310SOL     OW10381   0.536   3.784   9.826
 3310SOL    HW110382   0.485   3.785   9.907
 3310SOL    HW210383   0.543   3.876   9.802
 3311SOL     OW10384   0.286   3.761   9.487
 3311SOL    HW110385   0.324   3.849   9.483
 3311SOL    HW210386   0.353   3.707   9.529
 3312SOL     OW10387   0.563   3.944  10.479
 3312SOL    HW110388   0.607   3.878  10.533
 3312SOL    HW210389   0.471   3.940  10.507
 3313SOL     OW10390   1.021   3.765  10.037
 3313SOL    HW110391   0.955   3.753   9.969
 3313SOL    HW210392   0.997   3.702  10.106
 3314SOL     OW10393   0.925   3.801  10.705
 3314SOL    HW110394   0.954   3.779  10.616
 3314SOL    HW210395   0.999   3.848  10.744
 3315SOL     OW10396   1.268   0.071  10.576
 3315SOL    HW110397   1.276   0.141  10.640
 3315SOL    HW210398   1.200   0.101  10.516
 3316SOL     OW10399   0.508   3.751  11.068
 3316SOL    HW110400   0.453   3.707  11.004
 3316SOL    HW210401   0.481   3.843  11.064
 3317SOL     OW10402   0.303   3.924  10.564
 3317SOL    HW110403   0.255   3.940  10.645
 3317SOL    HW210404   0.289   3.830  10.547
 3318SOL     OW10405   1.577   3.951   9.428
 3318SOL    HW110406   1.518   3.895   9.478
 3318SOL    HW210407   1.614   0.011   9.493
 3319SOL     OW10408   1.163   3.919  10.783
 3319SOL    HW110409   1.165   3.995  10.841
 3319SOL    HW210410   1.207   3.948  10.704
 3320SOL     OW10411   0.901   3.810   9.409
 3320SOL    HW110412   0.957   3.762   9.347
 3320SOL    HW210413   0.945   3.800   9.493
 3321SOL     OW10414   1.705   3.855   9.800
 3321SOL    HW110415   1.784   3.842   9.748
 3321SOL    HW210416   1.696   3.774   9.850
 3322SOL     OW10417   1.836   3.876  10.284
 3322SOL    HW110418   1.871   3.793  10.250
 3322SOL    HW210419   1.758   3.892  10.232
 3323SOL     OW10420   0.680   3.907  10.795
 3323SOL    HW110421   0.764   3.896  10.751
 3323SOL    HW210422   0.704   3.930  10.885
 3324SOL     OW10423   0.072   0.017   9.304
 3324SOL    HW110424   3.977   0.020   9.313
 3324SOL    HW210425   0.100   0.107   9.320
 3325SOL     OW10426   0.109   3.923   9.684
 3325SOL    HW110427   0.081   0.005   9.643
 3325SOL    HW210428   0.188   3.898   9.637
 3326SOL     OW10429   1.200   0.013   9.771
 3326SOL    HW110430   1.264   3.942   9.775
 3326SOL    HW210431   1.216   0.065   9.850
 3327SOL     OW10432   1.786   0.037  10.948
 3327SOL    HW110433   1.758   0.074  10.865
 3327SOL    HW210434   1.708   3.997  10.985
 3328SOL     OW10435   1.815   3.912  10.550
 3328SOL    HW110436   1.820   3.822  10.580
 3328SOL    HW210437   1.822   3.906  10.455
 3329SOL     OW10438   1.440   3.930  10.427
 3329SOL    HW110439   1.472   3.852  10.472
 3329SOL    HW210440   1.382   3.973  10.490
 3330SOL     OW10441   1.018   3.737  10.455
 3330SOL    HW110442   0.960   3.683  10.401
 3330SOL    HW210443   1.103   3.693  10.450
 3331SOL     OW10444   1.355   3.770   9.476
 3331SOL    HW110445   1.390   3.701   9.420
 3331SOL    HW210446   1.267   3.740   9.498
 3332SOL     OW10447   1.280   0.162   9.991
 3332SOL    HW110448   1.285   0.258   9.996
 3332SOL    HW210449   1.284   0.133  10.082
 3333SOL     OW10450   1.580   3.925  10.191
 3333SOL    HW110451   1.532   3.931  10.274
 3333SOL    HW210452   1.581   0.014  10.157
 3334SOL     OW10453   0.235   3.942  12.128
 3334SOL    HW110454   0.258   3.957  12.220
 3334SOL    HW210455   0.141   3.959  12.124
 3335SOL     OW10456   0.007   0.107  11.791
 3335SOL    HW110457   3.922   0.086  11.830
 3335SOL    HW210458   0.016   0.047  11.718
 3336SOL     OW10459   1.777   0.317  11.358
 3336SOL    HW110460   1.704   0.293  11.301
 3336SOL    HW210461   1.735   0.339  11.442
 3337SOL     OW10462   0.440   0.094  12.681
 3337SOL    HW110463   0.511   0.057  12.629
 3337SOL    HW210464   0.363   0.041  12.657
 3338SOL     OW10465   1.593   3.851  12.630
 3338SOL    HW110466   1.604   3.937  12.589
 3338SOL    HW210467   1.575   3.870  12.722
 3339SOL     OW10468   0.807   3.730  11.681
 3339SOL    HW110469   0.833   3.822  11.674
 3339SOL    HW210470   0.712   3.733  11.689
 3340SOL     OW10471   1.265   0.063  12.109
 3340SOL    HW110472   1.193   0.009  12.078
 3340SOL    HW210473   1.322   0.001  12.156
 3341SOL     OW10474   0.557   3.905  12.065
 3341SOL    HW110475   0.554   3.925  12.158
 3341SOL    HW210476   0.552   3.991  12.022
 3342SOL     OW10477   0.188   3.975  12.670
 3342SOL    HW110478   0.099   0.009  12.676
 3342SOL    HW210479   0.185   3.890  12.713
 3343SOL     OW10480   1.408   3.828  11.609
 3343SOL    HW110481   1.400   3.797  11.519
 3343SOL    HW210482   1.502   3.825  11.627
 3344SOL     OW10483   1.532   3.938  12.894
 3344SOL    HW110484   1.557   3.942  12.986
 3344SOL    HW210485   1.462   3.873  12.891
 3345SOL     OW10486   0.629   3.850  11.301
 3345SOL    HW110487   0.720   3.820  11.299
 3345SOL    HW210488   0.586   3.800  11.232
 3346SOL     OW10489   0.771   3.952  12.913
 3346SOL    HW110490   0.827   3.924  12.986
 3346SOL    HW210491   0.685   3.967  12.953
 3347SOL     OW10492   0.536   3.784  11.688
 3347SOL    HW110493   0.485   3.785  11.769
 3347SOL    HW210494   0.543   3.876  11.664
 3348SOL     OW10495   0.286   3.761  11.349
 3348SOL    HW110496   0.324   3.849  11.345
 3348SOL    HW210497   0.353   3.707  11.391
 3349SOL     OW10498   0.563   3.944  12.341
 3349SOL    HW110499   0.607   3.878  12.395
 3349SOL    HW210500   0.471   3.940  12.369
 3350SOL     OW10501   1.021   3.765  11.899
 3350SOL    HW110502   0.955   3.753  11.831
 3350SOL    HW210503   0.997   3.702  11.968
 3351SOL     OW10504   0.925   3.801  12.567
 3351SOL    HW110505   0.954   3.779  12.478
 3351SOL    HW210506   0.999   3.848  12.606
 3352SOL     OW10507   1.268   0.071  12.438
 3352SOL    HW110508   1.276   0.141  12.502
 3352SOL    HW210509   1.200   0.101  12.378
 3353SOL     OW10510   0.508   3.751  12.930
 3353SOL    HW110511   0.453   3.706  12.866
 3353SOL    HW210512   0.480   3.843  12.925
 3354SOL     OW10513   0.303   3.924  12.426
 3354SOL    HW110514   0.254   3.940  12.507
 3354SOL    HW210515   0.289   3.830  12.409
 3355SOL     OW10516   1.577   3.951  11.290
 3355SOL    HW110517   1.518   3.895  11.340
 3355SOL    HW210518   1.614   0.011  11.355
 3356SOL     OW10519   1.163   3.919  12.645
 3356SOL    HW110520   1.166   3.995  12.703
 3356SOL    HW210521   1.207   3.948  12.565
 3357SOL     OW10522   0.901   3.810  11.271
 3357SOL    HW110523   0.957   3.763  11.209
 3357SOL    HW210524   0.945   3.800  11.355
 3358SOL     OW10525   1.705   3.855  11.662
 3358SOL    HW110526   1.784   3.842  11.610
 3358SOL    HW210527   1.696   3.774  11.712
 3359SOL     OW10528   1.836   3.876  12.146
 3359SOL    HW110529   1.871   3.793  12.112
 3359SOL    HW210530   1.758   3.892  12.094
 3360SOL     OW10531   0.680   3.907  12.658
 3360SOL    HW110532   0.764   3.896  12.613
 3360SOL    HW210533   0.704   3.930  12.748
 3361SOL     OW10534   0.072   0.017  11.167
 3361SOL    HW110535   3.977   0.020  11.175
 3361SOL    HW210536   0.100   0.107  11.182
 3362SOL     OW10537   0.109   3.923  11.546
 3362SOL    HW110538   0.081   0.005  11.505
 3362SOL    HW210539   0.188   3.898  11.499
 3363SOL     OW10540   1.200   0.013  11.633
 3363SOL    HW110541   1.264   3.942  11.637
 3363SOL    HW210542   1.216   0.064  11.712
 3364SOL     OW10543   1.786   0.037  12.809
 3364SOL    HW110544   1.756   0.074  12.726
 3364SOL    HW210545   1.708   3.997  12.847
 3365SOL     OW10546   1.815   3.912  12.412
 3365SOL    HW110547   1.820   3.822  12.443
 3365SOL    HW210548   1.822   3.906  12.317
 3366SOL     OW10549   1.440   3.930  12.289
 3366SOL    HW110550   1.472   3.852  12.334
 3366SOL    HW210551   1.382   3.973  12.352
 3367SOL     OW10552   1.018   3.737  12.317
 3367SOL    HW110553   0.960   3.683  12.263
 3367SOL    HW210554   1.103   3.693  12.312
 3368SOL     OW10555   1.355   3.770  11.338
 3368SOL    HW110556   1.390   3.701  11.282
 3368SOL    HW210557   1.267   3.740  11.360
 3369SOL     OW10558   1.280   0.162  11.853
 3369SOL    HW110559   1.285   0.258  11.858
 3369SOL    HW210560   1.284   0.133  11.944
 3370SOL     OW10561   1.580   3.925  12.053
 3370SOL    HW110562   1.532   3.931  12.135
 3370SOL    HW210563   1.581   0.014  12.019
 3371SOL     OW10564   0.010   0.103  13.638
 3371SOL    HW110565   3.916   0.089  13.648
 3371SOL    HW210566   0.035   0.048  13.564
 3372SOL     OW10567   1.776   0.320  13.220
 3372SOL    HW110568   1.703   0.297  13.163
 3372SOL    HW210569   1.737   0.330  13.307
 3373SOL     OW10570   1.614   0.171  13.768
 3373SOL    HW110571   1.527   0.141  13.743
 3373SOL    HW210572   1.604   0.265  13.785
 3374SOL     OW10573   0.810   3.732  13.541
 3374SOL    HW110574   0.832   3.825  13.534
 3374SOL    HW210575   0.715   3.731  13.551
 3375SOL     OW10576   1.406   3.832  13.465
 3375SOL    HW110577   1.400   3.799  13.376
 3375SOL    HW210578   1.499   3.826  13.488
 3376SOL     OW10579   0.627   3.851  13.162
 3376SOL    HW110580   0.718   3.820  13.164
 3376SOL    HW210581   0.585   3.800  13.093
 3377SOL     OW10582   0.537   3.775  13.551
 3377SOL    HW110583   0.490   3.761  13.633
 3377SOL    HW210584   0.536   3.870  13.539
 3378SOL     OW10585   0.285   3.761  13.213
 3378SOL    HW110586   0.331   3.845  13.204
 3378SOL    HW210587   0.349   3.704  13.256
 3379SOL     OW10588   1.011   3.759  13.768
 3379SOL    HW110589   0.954   3.753  13.691
 3379SOL    HW210590   0.990   3.681  13.819
 3380SOL     OW10591   1.577   3.957  13.155
 3380SOL    HW110592   1.528   3.893  13.207
 3380SOL    HW210593   1.635   3.999  13.219
 3381SOL     OW10594   0.900   3.811  13.133
 3381SOL    HW110595   0.955   3.763  13.072
 3381SOL    HW210596   0.943   3.799  13.218
 3382SOL     OW10597   1.733   3.859  13.558
 3382SOL    HW110598   1.798   3.844  13.489
 3382SOL    HW210599   1.712   3.772  13.591
 3383SOL     OW10600   1.848   3.901   0.054
 3383SOL    HW110601   1.873   3.809   0.052
 3383SOL    HW210602   1.758   3.900   0.087
 3384SOL     OW10603   0.073   0.013  13.029
 3384SOL    HW110604   3.978   0.018  13.037
 3384SOL    HW210605   0.102   0.103  13.047
 3385SOL     OW10606   0.113   3.933  13.415
 3385SOL    HW110607   0.090   0.006  13.359
 3385SOL    HW210608   0.187   3.891  13.371
 3386SOL     OW10609   1.191   0.001  13.521
 3386SOL    HW110610   1.263   3.942  13.500
 3386SOL    HW210611   1.225   0.057  13.591
 3387SOL     OW10612   1.356   3.768  13.198
 3387SOL    HW110613   1.390   3.698  13.142
 3387SOL    HW210614   1.268   3.740  13.221
 3388SOL     OW10615   1.315   0.153  13.737
 3388SOL    HW110616   1.286   0.243  13.722
 3388SOL    HW210617   1.292   0.135  13.828
 3389SOL     OW10618   2.095   0.649   0.116
 3389SOL    HW110619   2.009   0.616   0.140
 3389SOL    HW210620   2.116   0.604   0.034
 3390SOL     OW10621   2.077   0.303   0.994
 3390SOL    HW110622   2.115   0.258   1.069
 3390SOL    HW210623   1.992   0.261   0.980
 3391SOL     OW10624   1.871   0.402   0.631
 3391SOL    HW110625   1.785   0.415   0.669
 3391SOL    HW210626   1.860   0.330   0.569
 3392SOL     OW10627   2.432   1.295   1.182
 3392SOL    HW110628   2.346   1.300   1.140
 3392SOL    HW210629   2.449   1.384   1.212
 3393SOL     OW10630   3.431   1.515   0.708
 3393SOL    HW110631   3.386   1.490   0.789
 3393SOL    HW210632   3.362   1.517   0.642
 3394SOL     OW10633   2.996   0.698   0.695
 3394SOL    HW110634   3.043   0.781   0.684
 3394SOL    HW210635   2.948   0.709   0.777
 3395SOL     OW10636   3.625   0.631   0.220
 3395SOL    HW110637   3.625   0.623   0.125
 3395SOL    HW210638   3.637   0.541   0.251
 3396SOL     OW10639   2.610   1.138   1.046
 3396SOL    HW110640   2.543   1.175   1.104
 3396SOL    HW210641   2.649   1.213   1.002
 3397SOL     OW10642   2.736   0.765   1.825
 3397SOL    HW110643   2.722   0.835   1.888
 3397SOL    HW210644   2.757   0.810   1.743
 3398SOL     OW10645   2.547   0.996   0.646
 3398SOL    HW110646   2.613   0.988   0.715
 3398SOL    HW210647   2.479   1.051   0.684
 3399SOL     OW10648   2.576   1.149   1.818
 3399SOL    HW110649   2.623   1.226   1.849
 3399SOL    HW210650   2.496   1.184   1.780
 3400SOL     OW10651   2.195   1.411   1.069
 3400SOL    HW110652   2.118   1.377   1.024
 3400SOL    HW210653   2.239   1.465   1.003
 3401SOL     OW10654   3.320   1.502   1.361
 3401SOL    HW110655   3.375   1.580   1.370
 3401SOL    HW210656   3.253   1.512   1.428
 3402SOL     OW10657   2.309   0.390   1.490
 3402SOL    HW110658   2.401   0.364   1.491
 3402SOL    HW210659   2.260   0.309   1.499
 3403SOL     OW10660   3.472   0.450   0.734
 3403SOL    HW110661   3.410   0.490   0.673
 3403SOL    HW210662   3.493   0.520   0.796
 3404SOL     OW10663   2.111   1.696   0.472
 3404SOL    HW110664   2.144   1.765   0.529
 3404SOL    HW210665   2.176   1.689   0.403
 3405SOL     OW10666   2.999   1.343   1.695
 3405SOL    HW110667   3.041   1.336   1.781
 3405SOL    HW210668   2.947   1.263   1.687
 3406SOL     OW10669   2.072   1.435   0.529
 3406SOL    HW110670   2.077   1.530   0.523
 3406SOL    HW210671   2.021   1.419   0.609
 3407SOL     OW10672   2.127   1.090   0.888
 3407SOL    HW110673   2.123   1.003   0.927
 3407SOL    HW210674   2.071   1.144   0.945
 3408SOL     OW10675   2.467   1.793   1.425
 3408SOL    HW110676   2.388   1.774   1.475
 3408SOL    HW210677   2.494   1.880   1.454
 3409SOL     OW10678   2.425   0.977   0.168
 3409SOL    HW110679   2.464   1.011   0.087
 3409SOL    HW210680   2.477   1.018   0.237
 3410SOL     OW10681   3.446   0.143   1.456
 3410SOL    HW110682   3.474   0.215   1.399
 3410SOL    HW210683   3.404   0.187   1.530
 3411SOL     OW10684   1.981   0.659   0.559
 3411SOL    HW110685   1.953   0.570   0.582
 3411SOL    HW210686   1.973   0.708   0.640
 3412SOL     OW10687   3.711   1.754   0.331
 3412SOL    HW110688   3.774   1.719   0.394
 3412SOL    HW210689   3.729   1.848   0.329
 3413SOL     OW10690   1.904   1.590   0.106
 3413SOL    HW110691   1.905   1.496   0.123
 3413SOL    HW210692   1.867   1.628   0.186
 3414SOL     OW10693   3.550   0.919   0.652
 3414SOL    HW110694   3.633   0.874   0.635
 3414SOL    HW210695   3.533   0.968   0.573
 3415SOL     OW10696   3.507   1.102   0.435
 3415SOL    HW110697   3.592   1.110   0.392
 3415SOL    HW210698   3.510   1.167   0.505
 3416SOL     OW10699   1.985   0.751   1.578
 3416SOL    HW110700   2.074   0.785   1.581
 3416SOL    HW210701   1.929   0.829   1.582
 3417SOL     OW10702   2.479   1.389   0.734
 3417SOL    HW110703   2.433   1.305   0.742
 3417SOL    HW210704   2.462   1.416   0.644
 3418SOL     OW10705   3.147   1.236   1.421
 3418SOL    HW110706   3.178   1.169   1.361
 3418SOL    HW210707   3.207   1.231   1.496
 3419SOL     OW10708   2.686   0.005   0.523
 3419SOL    HW110709   2.731   0.084   0.494
 3419SOL    HW210710   2.593   0.028   0.521
 3420SOL     OW10711   2.050   0.960   1.280
 3420SOL    HW110712   2.136   0.921   1.264
 3420SOL    HW210713   1.992   0.913   1.220
 3421SOL     OW10714   3.390   1.000   0.207
 3421SOL    HW110715   3.322   0.942   0.241
 3421SOL    HW210716   3.432   1.037   0.285
 3422SOL     OW10717   3.044   1.812   1.625
 3422SOL    HW110718   3.052   1.872   1.551
 3422SOL    HW210719   3.063   1.726   1.588
 3423SOL     OW10720   2.223   0.249   1.855
 3423SOL    HW110721   2.268   0.333   1.858
 3423SOL    HW210722   2.130   0.272   1.853
 3424SOL     OW10723   3.328   1.420   0.946
 3424SOL    HW110724   3.262   1.435   1.014
 3424SOL    HW210725   3.317   1.329   0.922
 3425SOL     OW10726   3.518   1.751   0.585
 3425SOL    HW110727   3.496   1.725   0.495
 3425SOL    HW210728   3.501   1.672   0.637
 3426SOL     OW10729   2.457   0.714   0.270
 3426SOL    HW110730   2.457   0.798   0.224
 3426SOL    HW210731   2.395   0.726   0.342
 3427SOL     OW10732   3.137   0.373   0.940
 3427SOL    HW110733   3.049   0.334   0.949
 3427SOL    HW210734   3.194   0.311   0.986
 3428SOL     OW10735   3.429   1.728   0.316
 3428SOL    HW110736   3.525   1.728   0.311
 3428SOL    HW210737   3.401   1.699   0.229
 3429SOL     OW10738   2.657   0.615   1.450
 3429SOL    HW110739   2.629   0.588   1.538
 3429SOL    HW210740   2.622   0.547   1.392
 3430SOL     OW10741   3.254   0.475   1.677
 3430SOL    HW110742   3.261   0.521   1.761
 3430SOL    HW210743   3.309   0.398   1.688
 3431SOL     OW10744   2.812   0.886   1.586
 3431SOL    HW110745   2.867   0.819   1.548
 3431SOL    HW210746   2.763   0.923   1.512
 3432SOL     OW10747   2.857   0.401   1.235
 3432SOL    HW110748   2.770   0.419   1.271
 3432SOL    HW210749   2.840   0.376   1.144
 3433SOL     OW10750   2.915   0.703   0.428
 3433SOL    HW110751   2.934   0.695   0.522
 3433SOL    HW210752   2.832   0.658   0.416
 3434SOL     OW10753   1.950   0.824   0.775
 3434SOL    HW110754   2.030   0.815   0.828
 3434SOL    HW210755   1.905   0.900   0.813
 3435SOL     OW10756   2.736   0.361   0.223
 3435SOL    HW110757   2.771   0.420   0.156
 3435SOL    HW210758   2.738   0.274   0.183
 3436SOL     OW10759   3.566   0.572   1.830
 3436SOL    HW110760   3.531   0.647   1.782
 3436SOL    HW210761   3.593   0.510   1.762
 3437SOL     OW10762   3.240   1.141   0.542
 3437SOL    HW110763   3.319   1.130   0.489
 3437SOL    HW210764   3.188   1.205   0.493
 3438SOL     OW10765   2.422   0.199   0.881
 3438SOL    HW110766   2.423   0.219   0.974
 3438SOL    HW210767   2.417   0.285   0.838
 3439SOL     OW10768   2.862   1.439   0.474
 3439SOL    HW110769   2.834   1.515   0.422
 3439SOL    HW210770   2.837   1.462   0.564
 3440SOL     OW10771   2.219   1.800   0.862
 3440SOL    HW110772   2.254   1.712   0.873
 3440SOL    HW210773   2.287   1.857   0.897
 3441SOL     OW10774   3.669   1.062   0.870
 3441SOL    HW110775   3.616   1.034   0.795
 3441SOL    HW210776   3.607   1.065   0.943
 3442SOL     OW10777   3.088   1.540   1.514
 3442SOL    HW110778   3.076   1.468   1.576
 3442SOL    HW210779   3.023   1.523   1.445
 3443SOL     OW10780   2.166   0.937   0.233
 3443SOL    HW110781   2.259   0.949   0.210
 3443SOL    HW210782   2.152   0.843   0.226
 3444SOL     OW10783   3.341   0.754   0.730
 3444SOL    HW110784   3.338   0.711   0.816
 3444SOL    HW210785   3.419   0.809   0.733
 3445SOL     OW10786   2.333   1.265   1.739
 3445SOL    HW110787   2.307   1.268   1.647
 3445SOL    HW210788   2.250   1.262   1.787
 3446SOL     OW10789   2.984   1.782   0.225
 3446SOL    HW110790   2.922   1.735   0.281
 3446SOL    HW210791   3.015   1.716   0.163
 3447SOL     OW10792   2.028   0.274   1.500
 3447SOL    HW110793   1.978   0.354   1.485
 3447SOL    HW210794   2.030   0.265   1.595
 3448SOL     OW10795   3.494   1.376   0.093
 3448SOL    HW110796   3.466   1.460   0.057
 3448SOL    HW210797   3.424   1.315   0.071
 3449SOL     OW10798   2.343   1.716   0.331
 3449SOL    HW110799   2.383   1.790   0.377
 3449SOL    HW210800   2.408   1.691   0.265
 3450SOL     OW10801   3.299   0.135   0.388
 3450SOL    HW110802   3.255   0.054   0.412
 3450SOL    HW210803   3.385   0.129   0.431
 3451SOL     OW10804   2.153   1.763   1.215
 3451SOL    HW110805   2.193   1.681   1.243
 3451SOL    HW210806   2.108   1.741   1.133
 3452SOL     OW10807   2.800   1.699   0.898
 3452SOL    HW110808   2.880   1.651   0.919
 3452SOL    HW210809   2.759   1.648   0.828
 3453SOL     OW10810   2.257   0.695   0.471
 3453SOL    HW110811   2.276   0.602   0.486
 3453SOL    HW210812   2.164   0.704   0.493
 3454SOL     OW10813   3.391   0.228   1.726
 3454SOL    HW110814   3.381   0.252   1.818
 3454SOL    HW210815   3.379   0.133   1.725
 3455SOL     OW10816   2.481   0.105   0.120
 3455SOL    HW110817   2.576   0.103   0.127
 3455SOL    HW210818   2.464   0.132   0.030
 3456SOL     OW10819   2.634   0.284   1.774
 3456SOL    HW110820   2.713   0.229   1.775
 3456SOL    HW210821   2.580   0.250   1.845
 3457SOL     OW10822   2.738   1.523   1.195
 3457SOL    HW110823   2.722   1.486   1.108
 3457SOL    HW210824   2.808   1.469   1.231
 3458SOL     OW10825   3.200   0.587   1.431
 3458SOL    HW110826   3.231   0.559   1.517
 3458SOL    HW210827   3.235   0.676   1.421
 3459SOL     OW10828   2.680   1.390   0.945
 3459SOL    HW110829   2.766   1.378   0.903
 3459SOL    HW210830   2.618   1.395   0.873
 3460SOL     OW10831   2.792   0.512   0.898
 3460SOL    HW110832   2.767   0.504   0.806
 3460SOL    HW210833   2.817   0.423   0.924
 3461SOL     OW10834   2.411   0.051   0.501
 3461SOL    HW110835   2.335   0.057   0.559
 3461SOL    HW210836   2.402   0.126   0.442
 3462SOL     OW10837   3.291   1.209   0.043
 3462SOL    HW110838   3.309   1.130   0.093
 3462SOL    HW210839   3.200   1.231   0.065
 3463SOL     OW10840   2.205   0.009   0.190
 3463SOL    HW110841   2.170   0.087   0.147
 3463SOL    HW210842   2.296   0.031   0.210
 3464SOL     OW10843   2.808   0.251   0.466
 3464SOL    HW110844   2.776   0.289   0.385
 3464SOL    HW210845   2.903   0.253   0.458
 3465SOL     OW10846   2.941   0.686   1.457
 3465SOL    HW110847   2.872   0.620   1.463
 3465SOL    HW210848   3.023   0.636   1.452
 3466SOL     OW10849   3.079   1.574   0.796
 3466SOL    HW110850   3.095   1.638   0.726
 3466SOL    HW210851   3.152   1.587   0.857
 3467SOL     OW10852   2.334   1.153   0.725
 3467SOL    HW110853   2.267   1.133   0.791
 3467SOL    HW210854   2.290   1.141   0.641
 3468SOL     OW10855   3.125   1.794   0.611
 3468SOL    HW110856   3.176   1.857   0.559
 3468SOL    HW210857   3.058   1.847   0.653
 3469SOL     OW10858   2.856   0.531   0.049
 3469SOL    HW110859   2.852   0.520  13.854
 3469SOL    HW210860   2.949   0.545   0.068
 3470SOL     OW10861   1.947   0.548   1.397
 3470SOL    HW110862   2.038   0.552   1.367
 3470SOL    HW210863   1.939   0.621   1.458
 3471SOL     OW10864   2.424   0.231   1.161
 3471SOL    HW110865   2.446   0.138   1.170
 3471SOL    HW210866   2.334   0.237   1.195
 3472SOL     OW10867   2.732   0.462   0.638
 3472SOL    HW110868   2.689   0.516   0.572
 3472SOL    HW210869   2.754   0.381   0.591
 3473SOL     OW10870   2.859   0.038   0.780
 3473SOL    HW110871   2.815   0.068   0.701
 3473SOL    HW210872   2.872   3.944   0.767
 3474SOL     OW10873   3.303   1.160   0.858
 3474SOL    HW110874   3.231   1.098   0.855
 3474SOL    HW210875   3.330   1.170   0.767
 3475SOL     OW10876   3.325   0.610   0.970
 3475SOL    HW110877   3.269   0.532   0.975
 3475SOL    HW210878   3.384   0.602   1.046
 3476SOL     OW10879   3.726   0.826   0.373
 3476SOL    HW110880   3.762   0.769   0.440
 3476SOL    HW210881   3.681   0.766   0.313
 3477SOL     OW10882   2.349   1.408   0.154
 3477SOL    HW110883   2.276   1.373   0.205
 3477SOL    HW210884   2.335   1.372   0.066
 3478SOL     OW10885   3.530   1.264   0.646
 3478SOL    HW110886   3.625   1.267   0.654
 3478SOL    HW210887   3.502   1.355   0.657
 3479SOL     OW10888   3.286   0.590   0.088
 3479SOL    HW110889   3.216   0.580   0.153
 3479SOL    HW210890   3.333   0.507   0.089
 3480SOL     OW10891   2.379   0.255   0.325
 3480SOL    HW110892   2.422   0.210   0.253
 3480SOL    HW210893   2.353   0.340   0.289
 3481SOL     OW10894   3.612   1.232   1.561
 3481SOL    HW110895   3.700   1.198   1.543
 3481SOL    HW210896   3.627   1.322   1.590
 3482SOL     OW10897   2.917   1.354   1.333
 3482SOL    HW110898   2.841   1.322   1.382
 3482SOL    HW210899   2.992   1.312   1.374
 3483SOL     OW10900   3.468   1.629   1.658
 3483SOL    HW110901   3.459   1.664   1.569
 3483SOL    HW210902   3.547   1.576   1.655
 3484SOL     OW10903   2.997   1.211   1.102
 3484SOL    HW110904   2.936   1.248   1.166
 3484SOL    HW210905   2.967   1.245   1.018
 3485SOL     OW10906   3.487   1.094   1.074
 3485SOL    HW110907   3.477   1.156   1.146
 3485SOL    HW210908   3.413   1.111   1.016
 3486SOL     OW10909   2.773   0.120   1.401
 3486SOL    HW110910   2.793   0.089   1.312
 3486SOL    HW210911   2.854   0.161   1.431
 3487SOL     OW10912   2.846   1.116   1.724
 3487SOL    HW110913   2.755   1.132   1.748
 3487SOL    HW210914   2.843   1.037   1.669
 3488SOL     OW10915   2.579   1.060   0.378
 3488SOL    HW110916   2.564   1.039   0.470
 3488SOL    HW210917   2.653   1.005   0.353
 3489SOL     OW10918   2.284   0.817   1.252
 3489SOL    HW110919   2.352   0.826   1.318
 3489SOL    HW210920   2.249   0.729   1.265
 3490SOL     OW10921   3.128   0.375   1.277
 3490SOL    HW110922   3.161   0.453   1.321
 3490SOL    HW210923   3.040   0.399   1.248
 3491SOL     OW10924   1.936   1.578   1.354
 3491SOL    HW110925   1.902   1.641   1.291
 3491SOL    HW210926   2.031   1.578   1.339
 3492SOL     OW10927   2.202   1.115   0.486
 3492SOL    HW110928   2.198   1.186   0.422
 3492SOL    HW210929   2.211   1.036   0.433
 3493SOL     OW10930   2.415   0.527   0.856
 3493SOL    HW110931   2.427   0.587   0.782
 3493SOL    HW210932   2.480   0.554   0.920
 3494SOL     OW10933   3.110   1.347   0.399
 3494SOL    HW110934   3.165   1.420   0.427
 3494SOL    HW210935   3.023   1.370   0.432
 3495SOL     OW10936   3.150   1.461   1.149
 3495SOL    HW110937   3.206   1.466   1.226
 3495SOL    HW210938   3.096   1.383   1.163
 3496SOL     OW10939   3.434   0.634   0.494
 3496SOL    HW110940   3.391   0.693   0.556
 3496SOL    HW210941   3.468   0.691   0.426
 3497SOL     OW10942   2.214   1.514   1.314
 3497SOL    HW110943   2.200   1.469   1.231
 3497SOL    HW210944   2.309   1.525   1.321
 3498SOL     OW10945   2.283   0.745   1.604
 3498SOL    HW110946   2.343   0.789   1.545
 3498SOL    HW210947   2.324   0.660   1.622
 3499SOL     OW10948   3.469   0.780   1.686
 3499SOL    HW110949   3.383   0.823   1.680
 3499SOL    HW210950   3.522   0.823   1.619
 3500SOL     OW10951   2.868   0.140   1.782
 3500SOL    HW110952   2.926   0.209   1.747
 3500SOL    HW210953   2.855   0.080   1.709
 3501SOL     OW10954   2.353   0.035   1.760
 3501SOL    HW110955   2.352   0.051   1.666
 3501SOL    HW210956   2.292   0.100   1.796
 3502SOL     OW10957   2.446   0.875   1.032
 3502SOL    HW110958   2.479   0.965   1.036
 3502SOL    HW210959   2.389   0.867   1.108
 3503SOL     OW10960   3.209   0.859   1.023
 3503SOL    HW110961   3.124   0.844   0.982
 3503SOL    HW210962   3.255   0.775   1.013
 3504SOL     OW10963   3.079   0.553   0.265
 3504SOL    HW110964   3.086   0.473   0.317
 3504SOL    HW210965   3.022   0.610   0.316
 3505SOL     OW10966   2.159   0.208   1.244
 3505SOL    HW110967   2.116   0.235   1.325
 3505SOL    HW210968   2.149   0.113   1.243
 3506SOL     OW10969   1.906   1.313   1.277
 3506SOL    HW110970   1.940   1.258   1.347
 3506SOL    HW210971   1.914   1.402   1.311
 3507SOL     OW10972   2.582   0.631   1.049
 3507SOL    HW110973   2.659   0.620   0.993
 3507SOL    HW210974   2.552   0.720   1.031
 3508SOL     OW10975   3.593   0.957   1.867
 3508SOL    HW110976   3.553   0.892   1.810
 3508SOL    HW210977   3.528   0.974   1.935
 3509SOL     OW10978   2.185   0.054   0.657
 3509SOL    HW110979   2.165   0.147   0.668
 3509SOL    HW210980   2.154   0.013   0.739
 3510SOL     OW10981   3.433   0.390   0.390
 3510SOL    HW110982   3.414   0.330   0.463
 3510SOL    HW210983   3.428   0.477   0.429
 3511SOL     OW10984   2.892   0.759   0.957
 3511SOL    HW110985   2.883   0.776   1.051
 3511SOL    HW210986   2.864   0.668   0.946
 3512SOL     OW10987   2.844   1.567   1.721
 3512SOL    HW110988   2.829   1.610   1.637
 3512SOL    HW210989   2.887   1.484   1.698
 3513SOL     OW10990   3.703   1.494   1.597
 3513SOL    HW110991   3.727   1.526   1.510
 3513SOL    HW210992   3.782   1.502   1.649
 3514SOL     OW10993   2.213   0.915   1.810
 3514SOL    HW110994   2.294   0.935   1.857
 3514SOL    HW210995   2.240   0.853   1.742
 3515SOL     OW10996   3.374   0.280   0.143
 3515SOL    HW110997   3.323   0.199   0.148
 3515SOL    HW210998   3.386   0.306   0.234
 3516SOL     OW10999   3.148   0.832   0.056
 3516SOL    HW111000   3.195   0.749   0.060
 3516SOL    HW211001   3.165   0.865  13.868
 3517SOL     OW11002   2.931   1.338   0.857
 3517SOL    HW111003   2.935   1.267   0.794
 3517SOL    HW211004   2.989   1.406   0.821
 3518SOL     OW11005   2.170   0.810   0.945
 3518SOL    HW111006   2.263   0.831   0.940
 3518SOL    HW211007   2.167   0.720   0.977
 3519SOL     OW11008   2.198   0.538   1.015
 3519SOL    HW111009   2.156   0.454   1.001
 3519SOL    HW211010   2.274   0.537   0.957
 3520SOL     OW11011   2.995   0.379   1.699
 3520SOL    HW111012   2.946   0.433   1.761
 3520SOL    HW211013   3.082   0.420   1.695
 3521SOL     OW11014   3.014   0.226   1.481
 3521SOL    HW111015   3.004   0.279   1.560
 3521SOL    HW211016   3.041   0.288   1.414
 3522SOL     OW11017   1.888   1.303   0.171
 3522SOL    HW111018   1.803   1.318   0.128
 3522SOL    HW211019   1.877   1.220   0.216
 3523SOL     OW11020   1.986   1.705   0.985
 3523SOL    HW111021   1.942   1.650   0.920
 3523SOL    HW211022   2.046   1.759   0.933
 3524SOL     OW11023   2.359   1.568   0.909
 3524SOL    HW111024   2.426   1.632   0.931
 3524SOL    HW211025   2.402   1.506   0.850
 3525SOL     OW11026   2.835   0.786   1.222
 3525SOL    HW111027   2.894   0.769   1.296
 3525SOL    HW211028   2.751   0.748   1.249
 3526SOL     OW11029   1.895   0.550   1.117
 3526SOL    HW111030   1.968   0.522   1.062
 3526SOL    HW211031   1.929   0.548   1.206
 3527SOL     OW11032   2.066   0.528   1.711
 3527SOL    HW111033   2.139   0.507   1.653
 3527SOL    HW211034   2.024   0.604   1.671
 3528SOL     OW11035   3.243   0.934   1.656
 3528SOL    HW111036   3.264   1.027   1.653
 3528SOL    HW211037   3.238   0.907   1.565
 3529SOL     OW11038   2.677   0.580   0.380
 3529SOL    HW111039   2.687   0.503   0.324
 3529SOL    HW211040   2.604   0.629   0.341
 3530SOL     OW11041   3.500   0.602   1.180
 3530SOL    HW111042   3.489   0.542   1.253
 3530SOL    HW211043   3.586   0.582   1.145
 3531SOL     OW11044   2.111   1.540   1.705
 3531SOL    HW111045   2.090   1.608   1.770
 3531SOL    HW211046   2.118   1.460   1.756
 3532SOL     OW11047   2.577   0.450   1.251
 3532SOL    HW111048   2.523   0.374   1.229
 3532SOL    HW211049   2.564   0.510   1.178
 3533SOL     OW11050   2.781   1.679   1.472
 3533SOL    HW111051   2.760   1.639   1.388
 3533SOL    HW211052   2.777   1.774   1.456
 3534SOL     OW11053   2.290   0.491   0.229
 3534SOL    HW111054   2.366   0.547   0.243
 3534SOL    HW211055   2.223   0.549   0.195
 3535SOL     OW11056   2.002   1.142   1.474
 3535SOL    HW111057   2.004   1.095   1.557
 3535SOL    HW211058   2.019   1.075   1.408
 3536SOL     OW11059   3.181   1.043   1.220
 3536SOL    HW111060   3.203   0.980   1.151
 3536SOL    HW211061   3.115   1.100   1.180
 3537SOL     OW11062   3.180   0.858   0.328
 3537SOL    HW111063   3.107   0.825   0.381
 3537SOL    HW211064   3.153   0.842   0.238
 3538SOL     OW11065   3.646   1.738   1.161
 3538SOL    HW111066   3.701   1.766   1.087
 3538SOL    HW211067   3.614   1.652   1.135
 3539SOL     OW11068   3.102   1.734   1.107
 3539SOL    HW111069   3.184   1.758   1.064
 3539SOL    HW211070   3.111   1.640   1.127
 3540SOL     OW11071   1.952   1.260   1.015
 3540SOL    HW111072   1.932   1.278   1.107
 3540SOL    HW211073   1.877   1.210   0.984
 3541SOL     OW11074   2.546   1.666   1.734
 3541SOL    HW111075   2.493   1.746   1.731
 3541SOL    HW211076   2.617   1.682   1.672
 3542SOL     OW11077   2.756   0.103   0.131
 3542SOL    HW111078   2.798   0.092   0.045
 3542SOL    HW211079   2.767   0.018   0.174
 3543SOL     OW11080   3.552   0.123   0.485
 3543SOL    HW111081   3.635   0.134   0.437
 3543SOL    HW211082   3.552   0.030   0.510
 3544SOL     OW11083   3.252   1.572   0.489
 3544SOL    HW111084   3.315   1.607   0.425
 3544SOL    HW211085   3.205   1.649   0.520
 3545SOL     OW11086   2.024   1.738   1.865
 3545SOL    HW111087   1.962   1.689   1.920
 3545SOL    HW211088   2.006   1.830   1.887
 3546SOL     OW11089   3.137   0.929   0.671
 3546SOL    HW111090   3.212   0.870   0.685
 3546SOL    HW211091   3.172   1.000   0.618
 3547SOL     OW11092   2.667   1.276   1.424
 3547SOL    HW111093   2.639   1.316   1.506
 3547SOL    HW211094   2.597   1.295   1.362
 3548SOL     OW11095   2.543   1.590   0.183
 3548SOL    HW111096   2.534   1.630   0.096
 3548SOL    HW211097   2.485   1.513   0.180
 3549SOL     OW11098   3.479   1.728   1.392
 3549SOL    HW111099   3.536   1.732   1.315
 3549SOL    HW211100   3.465   1.820   1.416
 3550SOL     OW11101   3.706   0.182   0.970
 3550SOL    HW111102   3.730   0.097   0.933
 3550SOL    HW211103   3.619   0.201   0.933
 3551SOL     OW11104   2.124   0.315   0.717
 3551SOL    HW111105   2.038   0.350   0.694
 3551SOL    HW211106   2.122   0.308   0.812
 3552SOL     OW11107   3.080   1.599   0.037
 3552SOL    HW111108   3.070   1.507   0.062
 3552SOL    HW211109   3.044   1.604  13.849
 3553SOL     OW11110   2.686   1.006   1.374
 3553SOL    HW111111   2.728   1.001   1.288
 3553SOL    HW211112   2.682   1.100   1.394
 3554SOL     OW11113   2.784   0.910   0.289
 3554SOL    HW111114   2.853   0.952   0.237
 3554SOL    HW211115   2.829   0.841   0.338
 3555SOL     OW11116   3.344   1.654   0.066
 3555SOL    HW111117   3.252   1.630   0.060
 3555SOL    HW211118   3.380   1.636  13.879
 3556SOL     OW11119   2.231   1.296   1.494
 3556SOL    HW111120   2.220   1.374   1.440
 3556SOL    HW211121   2.153   1.244   1.479
 3557SOL     OW11122   3.460   1.281   1.275
 3557SOL    HW111123   3.529   1.270   1.341
 3557SOL    HW211124   3.403   1.349   1.311
 3558SOL     OW11125   2.921   1.110   0.711
 3558SOL    HW111126   2.849   1.059   0.748
 3558SOL    HW211127   2.986   1.045   0.684
 3559SOL     OW11128   2.877   0.250   0.970
 3559SOL    HW111129   2.868   0.199   0.890
 3559SOL    HW211130   2.875   0.184   1.040
 3560SOL     OW11131   2.470   1.488   0.481
 3560SOL    HW111132   2.514   1.437   0.413
 3560SOL    HW211133   2.407   1.543   0.433
 3561SOL     OW11134   3.583   0.395   1.370
 3561SOL    HW111135   3.656   0.458   1.371
 3561SOL    HW211136   3.614   0.323   1.316
 3562SOL     OW11137   2.134   1.317   0.298
 3562SOL    HW111138   2.051   1.326   0.250
 3562SOL    HW211139   2.118   1.364   0.381
 3563SOL     OW11140   1.976   1.032   1.725
 3563SOL    HW111141   1.900   1.005   1.775
 3563SOL    HW211142   2.050   0.989   1.767
 3564SOL     OW11143   2.558   0.265   1.505
 3564SOL    HW111144   2.623   0.207   1.463
 3564SOL    HW211145   2.584   0.267   1.597
 3565SOL     OW11146   1.898   0.445   0.007
 3565SOL    HW111147   1.866   0.358   0.029
 3565SOL    HW211148   1.896   0.448  13.811
 3566SOL     OW11149   3.285   0.856   1.396
 3566SOL    HW111150   3.234   0.917   1.343
 3566SOL    HW211151   3.373   0.859   1.360
 3567SOL     OW11152   1.943   0.142   0.371
 3567SOL    HW111153   1.916   0.225   0.333
 3567SOL    HW211154   2.032   0.128   0.339
 3568SOL     OW11155   3.049   1.343   0.123
 3568SOL    HW111156   2.954   1.337   0.112
 3568SOL    HW211157   3.064   1.332   0.217
 3569SOL     OW11158   2.485   0.828   1.434
 3569SOL    HW111159   2.541   0.904   1.420
 3569SOL    HW211160   2.545   0.754   1.443
 3570SOL     OW11161   3.344   1.786   0.982
 3570SOL    HW111162   3.367   1.851   0.916
 3570SOL    HW211163   3.428   1.752   1.012
 3571SOL     OW11164   2.580   0.559   1.703
 3571SOL    HW111165   2.624   0.620   1.762
 3571SOL    HW211166   2.602   0.472   1.738
 3572SOL     OW11167   3.335   1.194   1.628
 3572SOL    HW111168   3.325   1.210   1.722
 3572SOL    HW211169   3.428   1.211   1.612
 3573SOL     OW11170   2.233   1.746   1.566
 3573SOL    HW111171   2.166   1.763   1.500
 3573SOL    HW211172   2.206   1.665   1.608
 3574SOL     OW11173   3.524   0.880   1.259
 3574SOL    HW111174   3.524   0.795   1.215
 3574SOL    HW211175   3.517   0.944   1.188
 3575SOL     OW11176   3.092   0.335   0.430
 3575SOL    HW111177   3.155   0.263   0.425
 3575SOL    HW211178   3.108   0.375   0.515
 3576SOL     OW11179   2.448   0.734   0.673
 3576SOL    HW111180   2.488   0.820   0.660
 3576SOL    HW211181   2.383   0.726   0.604
 3577SOL     OW11182   3.615   0.381   1.642
 3577SOL    HW111183   3.594   0.390   1.549
 3577SOL    HW211184   3.553   0.314   1.673
 3578SOL     OW11185   3.617   0.930   1.512
 3578SOL    HW111186   3.606   1.023   1.531
 3578SOL    HW211187   3.591   0.920   1.421
 3579SOL     OW11188   2.773   1.399   0.072
 3579SOL    HW111189   2.709   1.382   0.140
 3579SOL    HW211190   2.723   1.395  13.890
 3580SOL     OW11191   2.523   1.789   0.938
 3580SOL    HW111192   2.508   1.880   0.914
 3580SOL    HW211193   2.618   1.778   0.931
 3581SOL     OW11194   2.731   0.970   0.854
 3581SOL    HW111195   2.782   0.898   0.891
 3581SOL    HW211196   2.693   1.015   0.929
 3582SOL     OW11197   2.958   1.016   0.112
 3582SOL    HW111198   2.949   1.061   0.028
 3582SOL    HW211199   3.031   0.956   0.100
 3583SOL     OW11200   3.711   1.555   0.840
 3583SOL    HW111201   3.631   1.541   0.788
 3583SOL    HW211202   3.708   1.488   0.908
 3584SOL     OW11203   2.090   1.300   1.853
 3584SOL    HW111204   2.025   1.235   1.824
 3584SOL    HW211205   2.072   1.311   1.946
 3585SOL     OW11206   1.944   1.216   0.667
 3585SOL    HW111207   1.963   1.171   0.750
 3585SOL    HW211208   2.020   1.195   0.611
 3586SOL     OW11209   2.545   1.406   1.629
 3586SOL    HW111210   2.467   1.363   1.664
 3586SOL    HW211211   2.543   1.494   1.667
 3587SOL     OW11212   3.675   0.181   1.244
 3587SOL    HW111213   3.676   0.086   1.253
 3587SOL    HW211214   3.694   0.197   1.151
 3588SOL     OW11215   2.294   0.436   0.534
 3588SOL    HW111216   2.327   0.364   0.481
 3588SOL    HW211217   2.244   0.393   0.604
 3589SOL     OW11218   3.556   1.490   1.094
 3589SOL    HW111219   3.479   1.469   1.042
 3589SOL    HW211220   3.563   1.418   1.157
 3590SOL     OW11221   2.196   0.558   1.296
 3590SOL    HW111222   2.248   0.497   1.350
 3590SOL    HW211223   2.215   0.531   1.206
 3591SOL     OW11224   2.694   1.579   0.676
 3591SOL    HW111225   2.676   1.645   0.609
 3591SOL    HW211226   2.619   1.520   0.673
 3592SOL     OW11227   3.322   0.254   1.109
 3592SOL    HW111228   3.336   0.166   1.144
 3592SOL    HW211229   3.267   0.297   1.175
 3593SOL     OW11230   2.864   0.025   1.145
 3593SOL    HW111231   2.780   0.002   1.105
 3593SOL    HW211232   2.910   3.941   1.154
 3594SOL     OW11233   2.641   1.323   0.320
 3594SOL    HW111234   2.612   1.234   0.338
 3594SOL    HW211235   2.720   1.334   0.372
 3595SOL     OW11236   2.483   1.555   1.287
 3595SOL    HW111237   2.483   1.638   1.334
 3595SOL    HW211238   2.572   1.548   1.251
 3596SOL     OW11239   3.177   0.066   0.121
 3596SOL    HW111240   3.193   3.974   0.099
 3596SOL    HW211241   3.120   0.063   0.198
 3597SOL     OW11242   3.138   0.452   0.680
 3597SOL    HW111243   3.093   0.537   0.674
 3597SOL    HW211244   3.144   0.436   0.775
 3598SOL     OW11245   3.454   0.210   0.868
 3598SOL    HW111246   3.405   0.233   0.946
 3598SOL    HW211247   3.451   0.289   0.813
 3599SOL     OW11248   1.902   1.068   0.313
 3599SOL    HW111249   1.998   1.064   0.311
 3599SOL    HW211250   1.875   0.979   0.332
 3600SOL     OW11251   2.762   1.656   0.340
 3600SOL    HW111252   2.684   1.630   0.292
 3600SOL    HW211253   2.733   1.728   0.396
 3601SOL     OW11254   2.085   0.619   1.983
 3601SOL    HW111255   1.995   0.628   2.015
 3601SOL    HW211256   2.076   0.599   1.890
 3602SOL     OW11257   2.078   0.303   2.854
 3602SOL    HW111258   2.115   0.258   2.931
 3602SOL    HW211259   1.993   0.261   2.841
 3603SOL     OW11260   1.870   0.400   2.493
 3603SOL    HW111261   1.785   0.415   2.533
 3603SOL    HW211262   1.855   0.332   2.427
 3604SOL     OW11263   2.432   1.295   3.044
 3604SOL    HW111264   2.346   1.300   3.002
 3604SOL    HW211265   2.449   1.384   3.074
 3605SOL     OW11266   3.430   1.514   2.570
 3605SOL    HW111267   3.387   1.492   2.653
 3605SOL    HW211268   3.359   1.519   2.507
 3606SOL     OW11269   2.995   0.699   2.556
 3606SOL    HW111270   3.043   0.781   2.544
 3606SOL    HW211271   2.947   0.710   2.638
 3607SOL     OW11272   3.627   0.624   2.086
 3607SOL    HW111273   3.607   0.611   1.994
 3607SOL    HW211274   3.604   0.541   2.128
 3608SOL     OW11275   2.610   1.138   2.909
 3608SOL    HW111276   2.544   1.175   2.966
 3608SOL    HW211277   2.649   1.213   2.864
 3609SOL     OW11278   2.736   0.765   3.687
 3609SOL    HW111279   2.722   0.835   3.750
 3609SOL    HW211280   2.757   0.810   3.605
 3610SOL     OW11281   2.548   0.997   2.506
 3610SOL    HW111282   2.614   0.990   2.575
 3610SOL    HW211283   2.479   1.052   2.544
 3611SOL     OW11284   2.576   1.149   3.680
 3611SOL    HW111285   2.623   1.226   3.711
 3611SOL    HW211286   2.496   1.184   3.642
 3612SOL     OW11287   2.195   1.411   2.930
 3612SOL    HW111288   2.118   1.377   2.886
 3612SOL    HW211289   2.239   1.466   2.865
 3613SOL     OW11290   3.320   1.502   3.223
 3613SOL    HW111291   3.375   1.580   3.232
 3613SOL    HW211292   3.253   1.512   3.290
 3614SOL     OW11293   2.309   0.390   3.351
 3614SOL    HW111294   2.401   0.364   3.353
 3614SOL    HW211295   2.260   0.309   3.361
 3615SOL     OW11296   3.472   0.450   2.597
 3615SOL    HW111297   3.405   0.484   2.537
 3615SOL    HW211298   3.489   0.522   2.657
 3616SOL     OW11299   2.103   1.695   2.325
 3616SOL    HW111300   2.134   1.762   2.386
 3616SOL    HW211301   2.174   1.684   2.263
 3617SOL     OW11302   2.999   1.343   3.557
 3617SOL    HW111303   3.041   1.336   3.643
 3617SOL    HW211304   2.947   1.263   3.549
 3618SOL     OW11305   2.089   1.433   2.398
 3618SOL    HW111306   2.082   1.528   2.392
 3618SOL    HW211307   2.029   1.408   2.468
 3619SOL     OW11308   2.127   1.091   2.752
 3619SOL    HW111309   2.123   1.003   2.790
 3619SOL    HW211310   2.070   1.144   2.808
 3620SOL     OW11311   2.467   1.793   3.288
 3620SOL    HW111312   2.388   1.774   3.338
 3620SOL    HW211313   2.494   1.881   3.316
 3621SOL     OW11314   2.441   0.985   2.002
 3621SOL    HW111315   2.490   1.030   1.932
 3621SOL    HW211316   2.480   1.017   2.083
 3622SOL     OW11317   3.446   0.143   3.318
 3622SOL    HW111318   3.474   0.215   3.261
 3622SOL    HW211319   3.404   0.187   3.392
 3623SOL     OW11320   1.981   0.659   2.423
 3623SOL    HW111321   1.954   0.570   2.446
 3623SOL    HW211322   1.973   0.708   2.505
 3624SOL     OW11323   3.703   1.757   2.197
 3624SOL    HW111324   3.774   1.733   2.257
 3624SOL    HW211325   3.720   1.849   2.176
 3625SOL     OW11326   1.862   1.603   2.036
 3625SOL    HW111327   1.848   1.511   2.015
 3625SOL    HW211328   1.898   1.602   2.124
 3626SOL     OW11329   3.552   0.919   2.512
 3626SOL    HW111330   3.635   0.875   2.495
 3626SOL    HW211331   3.534   0.968   2.432
 3627SOL     OW11332   3.505   1.102   2.294
 3627SOL    HW111333   3.590   1.107   2.250
 3627SOL    HW211334   3.511   1.166   2.365
 3628SOL     OW11335   1.985   0.751   3.440
 3628SOL    HW111336   2.074   0.785   3.443
 3628SOL    HW211337   1.929   0.829   3.444
 3629SOL     OW11338   2.478   1.389   2.596
 3629SOL    HW111339   2.433   1.305   2.604
 3629SOL    HW211340   2.461   1.417   2.506
 3630SOL     OW11341   3.147   1.236   3.283
 3630SOL    HW111342   3.178   1.169   3.223
 3630SOL    HW211343   3.207   1.231   3.358
 3631SOL     OW11344   2.684   0.007   2.381
 3631SOL    HW111345   2.729   0.086   2.354
 3631SOL    HW211346   2.591   0.030   2.379
 3632SOL     OW11347   2.050   0.960   3.142
 3632SOL    HW111348   2.136   0.921   3.126
 3632SOL    HW211349   1.992   0.914   3.081
 3633SOL     OW11350   3.389   0.999   2.064
 3633SOL    HW111351   3.320   0.941   2.097
 3633SOL    HW211352   3.432   1.033   2.142
 3634SOL     OW11353   3.044   1.812   3.487
 3634SOL    HW111354   3.052   1.872   3.413
 3634SOL    HW211355   3.064   1.726   3.450
 3635SOL     OW11356   2.223   0.249   3.717
 3635SOL    HW111357   2.268   0.333   3.720
 3635SOL    HW211358   2.130   0.272   3.715
 3636SOL     OW11359   3.329   1.420   2.809
 3636SOL    HW111360   3.262   1.436   2.876
 3636SOL    HW211361   3.317   1.328   2.784
 3637SOL     OW11362   3.512   1.752   2.441
 3637SOL    HW111363   3.497   1.718   2.353
 3637SOL    HW211364   3.496   1.678   2.499
 3638SOL     OW11365   2.456   0.718   2.132
 3638SOL    HW111366   2.459   0.802   2.087
 3638SOL    HW211367   2.391   0.731   2.202
 3639SOL     OW11368   3.136   0.373   2.803
 3639SOL    HW111369   3.049   0.334   2.812
 3639SOL    HW211370   3.194   0.312   2.849
 3640SOL     OW11371   3.439   1.673   2.173
 3640SOL    HW111372   3.530   1.700   2.166
 3640SOL    HW211373   3.411   1.657   2.083
 3641SOL     OW11374   2.657   0.615   3.312
 3641SOL    HW111375   2.630   0.588   3.400
 3641SOL    HW211376   2.622   0.547   3.254
 3642SOL     OW11377   3.254   0.475   3.539
 3642SOL    HW111378   3.261   0.521   3.623
 3642SOL    HW211379   3.309   0.398   3.550
 3643SOL     OW11380   2.812   0.886   3.448
 3643SOL    HW111381   2.867   0.819   3.410
 3643SOL    HW211382   2.763   0.923   3.374
 3644SOL     OW11383   2.857   0.401   3.097
 3644SOL    HW111384   2.770   0.419   3.133
 3644SOL    HW211385   2.839   0.376   3.006
 3645SOL     OW11386   2.915   0.701   2.286
 3645SOL    HW111387   2.933   0.694   2.380
 3645SOL    HW211388   2.832   0.655   2.274
 3646SOL     OW11389   1.949   0.824   2.639
 3646SOL    HW111390   2.029   0.816   2.691
 3646SOL    HW211391   1.905   0.900   2.676
 3647SOL     OW11392   2.757   0.353   2.063
 3647SOL    HW111393   2.800   0.413   2.001
 3647SOL    HW211394   2.746   0.272   2.014
 3648SOL     OW11395   3.566   0.572   3.692
 3648SOL    HW111396   3.531   0.646   3.644
 3648SOL    HW211397   3.593   0.510   3.624
 3649SOL     OW11398   3.240   1.141   2.401
 3649SOL    HW111399   3.320   1.130   2.350
 3649SOL    HW211400   3.188   1.204   2.351
 3650SOL     OW11401   2.422   0.199   2.742
 3650SOL    HW111402   2.424   0.219   2.836
 3650SOL    HW211403   2.417   0.285   2.700
 3651SOL     OW11404   2.862   1.442   2.331
 3651SOL    HW111405   2.831   1.517   2.280
 3651SOL    HW211406   2.839   1.464   2.421
 3652SOL     OW11407   2.220   1.803   2.724
 3652SOL    HW111408   2.255   1.715   2.735
 3652SOL    HW211409   2.288   1.861   2.758
 3653SOL     OW11410   3.669   1.062   2.731
 3653SOL    HW111411   3.617   1.034   2.656
 3653SOL    HW211412   3.606   1.065   2.804
 3654SOL     OW11413   3.088   1.540   3.376
 3654SOL    HW111414   3.076   1.468   3.438
 3654SOL    HW211415   3.023   1.523   3.307
 3655SOL     OW11416   2.177   0.962   2.116
 3655SOL    HW111417   2.260   0.981   2.072
 3655SOL    HW211418   2.149   0.878   2.079
 3656SOL     OW11419   3.343   0.751   2.589
 3656SOL    HW111420   3.339   0.710   2.676
 3656SOL    HW211421   3.421   0.807   2.593
 3657SOL     OW11422   2.333   1.265   3.601
 3657SOL    HW111423   2.307   1.268   3.509
 3657SOL    HW211424   2.250   1.262   3.649
 3658SOL     OW11425   2.987   1.778   2.090
 3658SOL    HW111426   2.912   1.738   2.134
 3658SOL    HW211427   3.011   1.715   2.022
 3659SOL     OW11428   2.028   0.274   3.362
 3659SOL    HW111429   1.978   0.354   3.346
 3659SOL    HW211430   2.030   0.265   3.457
 3660SOL     OW11431   3.486   1.385   1.949
 3660SOL    HW111432   3.442   1.469   1.935
 3660SOL    HW211433   3.419   1.320   1.929
 3661SOL     OW11434   2.344   1.706   2.199
 3661SOL    HW111435   2.384   1.783   2.240
 3661SOL    HW211436   2.399   1.690   2.121
 3662SOL     OW11437   3.299   0.176   2.264
 3662SOL    HW111438   3.247   0.100   2.236
 3662SOL    HW211439   3.374   0.138   2.310
 3663SOL     OW11440   2.154   1.766   3.079
 3663SOL    HW111441   2.194   1.683   3.106
 3663SOL    HW211442   2.107   1.744   2.998
 3664SOL     OW11443   2.799   1.699   2.760
 3664SOL    HW111444   2.880   1.651   2.781
 3664SOL    HW211445   2.759   1.648   2.689
 3665SOL     OW11446   2.258   0.695   2.334
 3665SOL    HW111447   2.275   0.602   2.348
 3665SOL    HW211448   2.165   0.706   2.353
 3666SOL     OW11449   3.391   0.228   3.588
 3666SOL    HW111450   3.381   0.252   3.680
 3666SOL    HW211451   3.379   0.133   3.587
 3667SOL     OW11452   2.507   0.126   1.972
 3667SOL    HW111453   2.525   0.040   2.011
 3667SOL    HW211454   2.444   0.108   1.902
 3668SOL     OW11455   2.634   0.284   3.636
 3668SOL    HW111456   2.713   0.229   3.637
 3668SOL    HW211457   2.580   0.250   3.707
 3669SOL     OW11458   2.738   1.523   3.057
 3669SOL    HW111459   2.721   1.486   2.970
 3669SOL    HW211460   2.808   1.469   3.093
 3670SOL     OW11461   3.200   0.587   3.293
 3670SOL    HW111462   3.231   0.559   3.379
 3670SOL    HW211463   3.235   0.676   3.283
 3671SOL     OW11464   2.680   1.390   2.807
 3671SOL    HW111465   2.765   1.379   2.765
 3671SOL    HW211466   2.618   1.396   2.735
 3672SOL     OW11467   2.792   0.512   2.760
 3672SOL    HW111468   2.767   0.503   2.668
 3672SOL    HW211469   2.817   0.423   2.786
 3673SOL     OW11470   2.406   0.056   2.352
 3673SOL    HW111471   2.332   0.061   2.413
 3673SOL    HW211472   2.401   0.137   2.302
 3674SOL     OW11473   3.289   1.200   1.901
 3674SOL    HW111474   3.319   1.126   1.953
 3674SOL    HW211475   3.204   1.223   1.938
 3675SOL     OW11476   2.193   0.047   2.075
 3675SOL    HW111477   2.198   0.111   2.004
 3675SOL    HW211478   2.273   0.062   2.126
 3676SOL     OW11479   2.807   0.252   2.320
 3676SOL    HW111480   2.782   0.290   2.236
 3676SOL    HW211481   2.902   0.259   2.321
 3677SOL     OW11482   2.941   0.686   3.319
 3677SOL    HW111483   2.872   0.620   3.325
 3677SOL    HW211484   3.023   0.636   3.314
 3678SOL     OW11485   3.080   1.573   2.657
 3678SOL    HW111486   3.095   1.638   2.588
 3678SOL    HW211487   3.151   1.588   2.720
 3679SOL     OW11488   2.335   1.152   2.589
 3679SOL    HW111489   2.268   1.132   2.655
 3679SOL    HW211490   2.291   1.139   2.505
 3680SOL     OW11491   3.126   1.792   2.474
 3680SOL    HW111492   3.176   1.853   2.419
 3680SOL    HW211493   3.058   1.845   2.514
 3681SOL     OW11494   2.883   0.539   1.893
 3681SOL    HW111495   2.839   0.622   1.873
 3681SOL    HW211496   2.946   0.561   1.961
 3682SOL     OW11497   1.947   0.548   3.259
 3682SOL    HW111498   2.038   0.552   3.229
 3682SOL    HW211499   1.939   0.621   3.321
 3683SOL     OW11500   2.423   0.231   3.022
 3683SOL    HW111501   2.446   0.138   3.032
 3683SOL    HW211502   2.334   0.237   3.056
 3684SOL     OW11503   2.732   0.460   2.499
 3684SOL    HW111504   2.686   0.515   2.435
 3684SOL    HW211505   2.754   0.381   2.450
 3685SOL     OW11506   2.859   0.037   2.644
 3685SOL    HW111507   2.819   0.069   2.563
 3685SOL    HW211508   2.871   3.943   2.630
 3686SOL     OW11509   3.303   1.160   2.720
 3686SOL    HW111510   3.230   1.098   2.718
 3686SOL    HW211511   3.329   1.169   2.628
 3687SOL     OW11512   3.325   0.610   2.832
 3687SOL    HW111513   3.269   0.533   2.837
 3687SOL    HW211514   3.384   0.602   2.907
 3688SOL     OW11515   3.722   0.825   2.237
 3688SOL    HW111516   3.762   0.768   2.302
 3688SOL    HW211517   3.685   0.765   2.172
 3689SOL     OW11518   2.354   1.422   2.011
 3689SOL    HW111519   2.279   1.396   2.065
 3689SOL    HW211520   2.346   1.370   1.932
 3690SOL     OW11521   3.531   1.266   2.504
 3690SOL    HW111522   3.626   1.268   2.514
 3690SOL    HW211523   3.503   1.355   2.525
 3691SOL     OW11524   3.257   0.578   1.930
 3691SOL    HW111525   3.193   0.558   1.999
 3691SOL    HW211526   3.342   0.563   1.971
 3692SOL     OW11527   2.388   0.266   2.177
 3692SOL    HW111528   2.445   0.228   2.111
 3692SOL    HW211529   2.358   0.349   2.139
 3693SOL     OW11530   3.612   1.232   3.423
 3693SOL    HW111531   3.700   1.198   3.406
 3693SOL    HW211532   3.627   1.322   3.452
 3694SOL     OW11533   2.917   1.354   3.195
 3694SOL    HW111534   2.841   1.322   3.244
 3694SOL    HW211535   2.992   1.312   3.236
 3695SOL     OW11536   3.468   1.629   3.520
 3695SOL    HW111537   3.459   1.664   3.431
 3695SOL    HW211538   3.547   1.576   3.517
 3696SOL     OW11539   2.997   1.211   2.964
 3696SOL    HW111540   2.936   1.248   3.028
 3696SOL    HW211541   2.967   1.245   2.880
 3697SOL     OW11542   3.487   1.094   2.936
 3697SOL    HW111543   3.477   1.156   3.008
 3697SOL    HW211544   3.413   1.111   2.878
 3698SOL     OW11545   2.773   0.120   3.263
 3698SOL    HW111546   2.793   0.089   3.174
 3698SOL    HW211547   2.854   0.161   3.293
 3699SOL     OW11548   2.846   1.116   3.586
 3699SOL    HW111549   2.755   1.132   3.610
 3699SOL    HW211550   2.843   1.037   3.531
 3700SOL     OW11551   2.572   1.063   2.233
 3700SOL    HW111552   2.557   1.043   2.325
 3700SOL    HW211553   2.647   1.009   2.208
 3701SOL     OW11554   2.284   0.818   3.114
 3701SOL    HW111555   2.352   0.826   3.180
 3701SOL    HW211556   2.249   0.729   3.127
 3702SOL     OW11557   3.128   0.375   3.139
 3702SOL    HW111558   3.161   0.453   3.183
 3702SOL    HW211559   3.040   0.399   3.110
 3703SOL     OW11560   1.937   1.577   3.216
 3703SOL    HW111561   1.903   1.641   3.153
 3703SOL    HW211562   2.031   1.577   3.202
 3704SOL     OW11563   2.202   1.116   2.352
 3704SOL    HW111564   2.206   1.192   2.293
 3704SOL    HW211565   2.199   1.040   2.294
 3705SOL     OW11566   2.415   0.528   2.717
 3705SOL    HW111567   2.427   0.588   2.644
 3705SOL    HW211568   2.480   0.555   2.782
 3706SOL     OW11569   3.109   1.350   2.252
 3706SOL    HW111570   3.165   1.421   2.284
 3706SOL    HW211571   3.022   1.371   2.286
 3707SOL     OW11572   3.151   1.461   3.010
 3707SOL    HW111573   3.206   1.466   3.088
 3707SOL    HW211574   3.096   1.383   3.024
 3708SOL     OW11575   3.431   0.634   2.350
 3708SOL    HW111576   3.388   0.686   2.418
 3708SOL    HW211577   3.477   0.698   2.296
 3709SOL     OW11578   2.213   1.515   3.176
 3709SOL    HW111579   2.200   1.470   3.092
 3709SOL    HW211580   2.308   1.526   3.182
 3710SOL     OW11581   2.283   0.745   3.466
 3710SOL    HW111582   2.343   0.789   3.407
 3710SOL    HW211583   2.324   0.661   3.484
 3711SOL     OW11584   3.469   0.780   3.548
 3711SOL    HW111585   3.383   0.823   3.542
 3711SOL    HW211586   3.522   0.823   3.481
 3712SOL     OW11587   2.868   0.140   3.644
 3712SOL    HW111588   2.926   0.209   3.609
 3712SOL    HW211589   2.855   0.080   3.570
 3713SOL     OW11590   2.352   0.035   3.622
 3713SOL    HW111591   2.352   0.051   3.528
 3713SOL    HW211592   2.292   0.100   3.658
 3714SOL     OW11593   2.447   0.875   2.894
 3714SOL    HW111594   2.478   0.965   2.897
 3714SOL    HW211595   2.389   0.867   2.970
 3715SOL     OW11596   3.209   0.859   2.884
 3715SOL    HW111597   3.123   0.844   2.844
 3715SOL    HW211598   3.255   0.775   2.875
 3716SOL     OW11599   3.060   0.539   2.116
 3716SOL    HW111600   3.067   0.460   2.170
 3716SOL    HW211601   3.017   0.603   2.174
 3717SOL     OW11602   2.159   0.208   3.105
 3717SOL    HW111603   2.116   0.236   3.186
 3717SOL    HW211604   2.149   0.113   3.105
 3718SOL     OW11605   1.906   1.313   3.139
 3718SOL    HW111606   1.940   1.257   3.209
 3718SOL    HW211607   1.914   1.402   3.173
 3719SOL     OW11608   2.582   0.631   2.911
 3719SOL    HW111609   2.659   0.620   2.855
 3719SOL    HW211610   2.552   0.720   2.894
 3720SOL     OW11611   3.593   0.957   3.729
 3720SOL    HW111612   3.553   0.892   3.672
 3720SOL    HW211613   3.528   0.973   3.797
 3721SOL     OW11614   2.186   0.054   2.519
 3721SOL    HW111615   2.165   0.147   2.529
 3721SOL    HW211616   2.159   0.014   2.601
 3722SOL     OW11617   3.476   0.397   2.240
 3722SOL    HW111618   3.433   0.328   2.290
 3722SOL    HW211619   3.455   0.477   2.286
 3723SOL     OW11620   2.893   0.759   2.819
 3723SOL    HW111621   2.883   0.776   2.913
 3723SOL    HW211622   2.865   0.668   2.808
 3724SOL     OW11623   2.843   1.567   3.583
 3724SOL    HW111624   2.828   1.610   3.499
 3724SOL    HW211625   2.887   1.484   3.560
 3725SOL     OW11626   3.703   1.494   3.459
 3725SOL    HW111627   3.727   1.526   3.372
 3725SOL    HW211628   3.782   1.502   3.511
 3726SOL     OW11629   2.213   0.915   3.672
 3726SOL    HW111630   2.294   0.935   3.719
 3726SOL    HW211631   2.240   0.853   3.604
 3727SOL     OW11632   3.359   0.271   1.994
 3727SOL    HW111633   3.287   0.209   2.003
 3727SOL    HW211634   3.369   0.309   2.081
 3728SOL     OW11635   3.148   0.827   1.889
 3728SOL    HW111636   3.190   0.741   1.893
 3728SOL    HW211637   3.181   0.866   1.808
 3729SOL     OW11638   2.931   1.339   2.719
 3729SOL    HW111639   2.936   1.267   2.656
 3729SOL    HW211640   2.988   1.406   2.683
 3730SOL     OW11641   2.170   0.811   2.808
 3730SOL    HW111642   2.263   0.831   2.801
 3730SOL    HW211643   2.167   0.720   2.840
 3731SOL     OW11644   2.198   0.538   2.876
 3731SOL    HW111645   2.156   0.453   2.862
 3731SOL    HW211646   2.274   0.538   2.818
 3732SOL     OW11647   2.995   0.379   3.561
 3732SOL    HW111648   2.946   0.433   3.623
 3732SOL    HW211649   3.082   0.420   3.557
 3733SOL     OW11650   3.014   0.226   3.343
 3733SOL    HW111651   3.004   0.279   3.422
 3733SOL    HW211652   3.041   0.288   3.276
 3734SOL     OW11653   1.867   1.315   2.055
 3734SOL    HW111654   1.780   1.328   2.018
 3734SOL    HW211655   1.865   1.226   2.090
 3735SOL     OW11656   1.989   1.708   2.852
 3735SOL    HW111657   1.943   1.653   2.788
 3735SOL    HW211658   2.047   1.763   2.800
 3736SOL     OW11659   2.358   1.569   2.770
 3736SOL    HW111660   2.426   1.633   2.793
 3736SOL    HW211661   2.401   1.508   2.711
 3737SOL     OW11662   2.836   0.785   3.084
 3737SOL    HW111663   2.894   0.769   3.158
 3737SOL    HW211664   2.751   0.749   3.111
 3738SOL     OW11665   1.895   0.549   2.979
 3738SOL    HW111666   1.969   0.524   2.924
 3738SOL    HW211667   1.930   0.547   3.068
 3739SOL     OW11668   2.066   0.528   3.573
 3739SOL    HW111669   2.139   0.507   3.515
 3739SOL    HW211670   2.024   0.604   3.534
 3740SOL     OW11671   3.243   0.934   3.518
 3740SOL    HW111672   3.264   1.027   3.515
 3740SOL    HW211673   3.238   0.907   3.427
 3741SOL     OW11674   2.679   0.573   2.229
 3741SOL    HW111675   2.686   0.498   2.170
 3741SOL    HW211676   2.604   0.622   2.196
 3742SOL     OW11677   3.500   0.602   3.042
 3742SOL    HW111678   3.489   0.542   3.115
 3742SOL    HW211679   3.586   0.582   3.006
 3743SOL     OW11680   2.112   1.540   3.567
 3743SOL    HW111681   2.091   1.607   3.631
 3743SOL    HW211682   2.118   1.459   3.618
 3744SOL     OW11683   2.577   0.450   3.113
 3744SOL    HW111684   2.523   0.374   3.091
 3744SOL    HW211685   2.564   0.510   3.040
 3745SOL     OW11686   2.781   1.679   3.334
 3745SOL    HW111687   2.760   1.639   3.250
 3745SOL    HW211688   2.777   1.774   3.318
 3746SOL     OW11689   2.323   0.493   2.041
 3746SOL    HW111690   2.381   0.565   2.067
 3746SOL    HW211691   2.237   0.535   2.030
 3747SOL     OW11692   2.002   1.142   3.336
 3747SOL    HW111693   2.004   1.095   3.419
 3747SOL    HW211694   2.019   1.075   3.270
 3748SOL     OW11695   3.181   1.043   3.082
 3748SOL    HW111696   3.203   0.980   3.013
 3748SOL    HW211697   3.115   1.100   3.042
 3749SOL     OW11698   3.177   0.854   2.166
 3749SOL    HW111699   3.102   0.827   2.218
 3749SOL    HW211700   3.149   0.843   2.075
 3750SOL     OW11701   3.646   1.738   3.022
 3750SOL    HW111702   3.701   1.766   2.949
 3750SOL    HW211703   3.614   1.652   2.997
 3751SOL     OW11704   3.102   1.733   2.968
 3751SOL    HW111705   3.184   1.758   2.926
 3751SOL    HW211706   3.111   1.640   2.989
 3752SOL     OW11707   1.951   1.262   2.876
 3752SOL    HW111708   1.932   1.279   2.968
 3752SOL    HW211709   1.877   1.210   2.845
 3753SOL     OW11710   2.546   1.667   3.596
 3753SOL    HW111711   2.492   1.746   3.593
 3753SOL    HW211712   2.616   1.682   3.534
 3754SOL     OW11713   3.548   0.118   2.351
 3754SOL    HW111714   3.629   0.135   2.302
 3754SOL    HW211715   3.553   0.025   2.373
 3755SOL     OW11716   3.253   1.567   2.353
 3755SOL    HW111717   3.312   1.601   2.285
 3755SOL    HW211718   3.204   1.644   2.381
 3756SOL     OW11719   2.025   1.739   3.725
 3756SOL    HW111720   1.964   1.691   3.781
 3756SOL    HW211721   2.005   1.831   3.742
 3757SOL     OW11722   3.139   0.928   2.533
 3757SOL    HW111723   3.214   0.870   2.545
 3757SOL    HW211724   3.173   1.000   2.479
 3758SOL     OW11725   2.667   1.276   3.286
 3758SOL    HW111726   2.639   1.316   3.368
 3758SOL    HW211727   2.597   1.295   3.224
 3759SOL     OW11728   2.536   1.624   2.011
 3759SOL    HW111729   2.548   1.636   1.917
 3759SOL    HW211730   2.480   1.547   2.019
 3760SOL     OW11731   3.479   1.728   3.254
 3760SOL    HW111732   3.536   1.732   3.177
 3760SOL    HW211733   3.465   1.819   3.278
 3761SOL     OW11734   3.705   0.182   2.833
 3761SOL    HW111735   3.729   0.097   2.796
 3761SOL    HW211736   3.619   0.201   2.796
 3762SOL     OW11737   2.124   0.315   2.576
 3762SOL    HW111738   2.038   0.349   2.553
 3762SOL    HW211739   2.123   0.309   2.672
 3763SOL     OW11740   3.070   1.601   1.895
 3763SOL    HW111741   3.059   1.510   1.922
 3763SOL    HW211742   3.004   1.615   1.827
 3764SOL     OW11743   2.686   1.006   3.236
 3764SOL    HW111744   2.727   1.001   3.150
 3764SOL    HW211745   2.682   1.100   3.256
 3765SOL     OW11746   2.778   0.911   2.152
 3765SOL    HW111747   2.838   0.944   2.086
 3765SOL    HW211748   2.827   0.843   2.199
 3766SOL     OW11749   3.349   1.632   1.907
 3766SOL    HW111750   3.255   1.620   1.891
 3766SOL    HW211751   3.387   1.637   1.819
 3767SOL     OW11752   2.231   1.297   3.355
 3767SOL    HW111753   2.219   1.375   3.301
 3767SOL    HW211754   2.153   1.245   3.340
 3768SOL     OW11755   3.460   1.280   3.138
 3768SOL    HW111756   3.529   1.270   3.203
 3768SOL    HW211757   3.403   1.349   3.173
 3769SOL     OW11758   2.922   1.111   2.573
 3769SOL    HW111759   2.850   1.060   2.610
 3769SOL    HW211760   2.986   1.044   2.545
 3770SOL     OW11761   2.877   0.250   2.833
 3770SOL    HW111762   2.868   0.199   2.752
 3770SOL    HW211763   2.876   0.185   2.903
 3771SOL     OW11764   2.468   1.490   2.343
 3771SOL    HW111765   2.511   1.439   2.275
 3771SOL    HW211766   2.407   1.547   2.296
 3772SOL     OW11767   3.583   0.396   3.232
 3772SOL    HW111768   3.656   0.458   3.233
 3772SOL    HW211769   3.614   0.323   3.179
 3773SOL     OW11770   2.122   1.344   2.149
 3773SOL    HW111771   2.029   1.337   2.127
 3773SOL    HW211772   2.124   1.378   2.238
 3774SOL     OW11773   1.976   1.032   3.587
 3774SOL    HW111774   1.900   1.005   3.637
 3774SOL    HW211775   2.050   0.989   3.630
 3775SOL     OW11776   2.558   0.264   3.367
 3775SOL    HW111777   2.623   0.207   3.325
 3775SOL    HW211778   2.584   0.267   3.459
 3776SOL     OW11779   1.965   0.317   1.854
 3776SOL    HW111780   1.898   0.336   1.920
 3776SOL    HW211781   1.971   0.397   1.802
 3777SOL     OW11782   3.284   0.856   3.258
 3777SOL    HW111783   3.234   0.918   3.205
 3777SOL    HW211784   3.373   0.859   3.222
 3778SOL     OW11785   1.942   0.150   2.201
 3778SOL    HW111786   1.910   0.208   2.131
 3778SOL    HW211787   2.029   0.123   2.172
 3779SOL     OW11788   3.040   1.335   1.980
 3779SOL    HW111789   2.949   1.304   1.982
 3779SOL    HW211790   3.066   1.336   2.072
 3780SOL     OW11791   2.485   0.828   3.296
 3780SOL    HW111792   2.541   0.904   3.282
 3780SOL    HW211793   2.545   0.754   3.305
 3781SOL     OW11794   3.344   1.786   2.844
 3781SOL    HW111795   3.366   1.852   2.778
 3781SOL    HW211796   3.428   1.753   2.875
 3782SOL     OW11797   2.580   0.559   3.565
 3782SOL    HW111798   2.624   0.620   3.624
 3782SOL    HW211799   2.602   0.472   3.600
 3783SOL     OW11800   3.335   1.194   3.490
 3783SOL    HW111801   3.325   1.210   3.584
 3783SOL    HW211802   3.428   1.211   3.474
 3784SOL     OW11803   2.233   1.746   3.428
 3784SOL    HW111804   2.167   1.761   3.361
 3784SOL    HW211805   2.206   1.664   3.470
 3785SOL     OW11806   3.524   0.880   3.121
 3785SOL    HW111807   3.524   0.795   3.077
 3785SOL    HW211808   3.517   0.944   3.050
 3786SOL     OW11809   3.081   0.340   2.302
 3786SOL    HW111810   3.150   0.275   2.293
 3786SOL    HW211811   3.099   0.384   2.386
 3787SOL     OW11812   2.450   0.734   2.534
 3787SOL    HW111813   2.489   0.820   2.520
 3787SOL    HW211814   2.384   0.726   2.465
 3788SOL     OW11815   3.615   0.381   3.504
 3788SOL    HW111816   3.594   0.390   3.411
 3788SOL    HW211817   3.553   0.314   3.535
 3789SOL     OW11818   3.617   0.930   3.374
 3789SOL    HW111819   3.606   1.023   3.393
 3789SOL    HW211820   3.591   0.920   3.283
 3790SOL     OW11821   2.725   1.365   1.904
 3790SOL    HW111822   2.688   1.391   1.988
 3790SOL    HW211823   2.741   1.448   1.858
 3791SOL     OW11824   2.524   1.789   2.801
 3791SOL    HW111825   2.509   1.880   2.776
 3791SOL    HW211826   2.618   1.777   2.793
 3792SOL     OW11827   2.731   0.971   2.716
 3792SOL    HW111828   2.782   0.898   2.753
 3792SOL    HW211829   2.693   1.015   2.791
 3793SOL     OW11830   2.939   0.990   1.952
 3793SOL    HW111831   2.917   1.041   1.874
 3793SOL    HW211832   3.013   0.935   1.924
 3794SOL     OW11833   3.711   1.556   2.702
 3794SOL    HW111834   3.631   1.540   2.652
 3794SOL    HW211835   3.711   1.488   2.769
 3795SOL     OW11836   2.090   1.299   3.715
 3795SOL    HW111837   2.026   1.234   3.686
 3795SOL    HW211838   2.072   1.311   3.808
 3796SOL     OW11839   1.946   1.220   2.528
 3796SOL    HW111840   1.963   1.176   2.611
 3796SOL    HW211841   2.017   1.192   2.471
 3797SOL     OW11842   2.545   1.406   3.491
 3797SOL    HW111843   2.467   1.363   3.526
 3797SOL    HW211844   2.543   1.494   3.529
 3798SOL     OW11845   3.675   0.181   3.106
 3798SOL    HW111846   3.676   0.086   3.116
 3798SOL    HW211847   3.694   0.197   3.014
 3799SOL     OW11848   2.290   0.435   2.387
 3799SOL    HW111849   2.325   0.364   2.334
 3799SOL    HW211850   2.242   0.391   2.457
 3800SOL     OW11851   3.556   1.491   2.957
 3800SOL    HW111852   3.479   1.469   2.905
 3800SOL    HW211853   3.563   1.418   3.020
 3801SOL     OW11854   2.196   0.558   3.158
 3801SOL    HW111855   2.248   0.497   3.212
 3801SOL    HW211856   2.215   0.531   3.068
 3802SOL     OW11857   2.694   1.578   2.538
 3802SOL    HW111858   2.675   1.643   2.470
 3802SOL    HW211859   2.618   1.519   2.536
 3803SOL     OW11860   3.322   0.254   2.972
 3803SOL    HW111861   3.336   0.166   3.007
 3803SOL    HW211862   3.267   0.298   3.037
 3804SOL     OW11863   2.864   0.025   3.007
 3804SOL    HW111864   2.780   0.002   2.967
 3804SOL    HW211865   2.910   3.941   3.016
 3805SOL     OW11866   2.637   1.334   2.181
 3805SOL    HW111867   2.608   1.243   2.190
 3805SOL    HW211868   2.717   1.339   2.233
 3806SOL     OW11869   2.483   1.555   3.149
 3806SOL    HW111870   2.483   1.638   3.196
 3806SOL    HW211871   2.572   1.548   3.113
 3807SOL     OW11872   3.168   0.069   2.020
 3807SOL    HW111873   3.171   3.980   1.984
 3807SOL    HW211874   3.086   0.072   2.070
 3808SOL     OW11875   3.140   0.456   2.546
 3808SOL    HW111876   3.094   0.540   2.540
 3808SOL    HW211877   3.144   0.437   2.639
 3809SOL     OW11878   3.453   0.210   2.730
 3809SOL    HW111879   3.405   0.234   2.808
 3809SOL    HW211880   3.451   0.289   2.675
 3810SOL     OW11881   1.906   1.067   2.169
 3810SOL    HW111882   2.000   1.058   2.151
 3810SOL    HW211883   1.878   0.979   2.194
 3811SOL     OW11884   2.753   1.658   2.198
 3811SOL    HW111885   2.677   1.644   2.142
 3811SOL    HW211886   2.728   1.731   2.255
 3812SOL     OW11887   2.085   0.619   3.845
 3812SOL    HW111888   1.995   0.628   3.877
 3812SOL    HW211889   2.076   0.599   3.752
 3813SOL     OW11890   2.078   0.303   4.716
 3813SOL    HW111891   2.115   0.258   4.793
 3813SOL    HW211892   1.993   0.261   4.703
 3814SOL     OW11893   1.870   0.400   4.355
 3814SOL    HW111894   1.785   0.415   4.395
 3814SOL    HW211895   1.855   0.332   4.289
 3815SOL     OW11896   2.432   1.295   4.906
 3815SOL    HW111897   2.346   1.300   4.863
 3815SOL    HW211898   2.449   1.384   4.936
 3816SOL     OW11899   3.430   1.514   4.432
 3816SOL    HW111900   3.387   1.492   4.515
 3816SOL    HW211901   3.359   1.519   4.369
 3817SOL     OW11902   2.995   0.699   4.418
 3817SOL    HW111903   3.043   0.781   4.406
 3817SOL    HW211904   2.947   0.710   4.500
 3818SOL     OW11905   3.627   0.624   3.948
 3818SOL    HW111906   3.607   0.611   3.856
 3818SOL    HW211907   3.604   0.541   3.990
 3819SOL     OW11908   2.610   1.138   4.771
 3819SOL    HW111909   2.543   1.175   4.828
 3819SOL    HW211910   2.649   1.213   4.726
 3820SOL     OW11911   2.736   0.765   5.549
 3820SOL    HW111912   2.722   0.835   5.612
 3820SOL    HW211913   2.757   0.810   5.467
 3821SOL     OW11914   2.548   0.997   4.368
 3821SOL    HW111915   2.614   0.990   4.437
 3821SOL    HW211916   2.479   1.052   4.406
 3822SOL     OW11917   2.573   1.147   5.541
 3822SOL    HW111918   2.623   1.225   5.568
 3822SOL    HW211919   2.493   1.182   5.503
 3823SOL     OW11920   2.195   1.412   4.792
 3823SOL    HW111921   2.118   1.377   4.748
 3823SOL    HW211922   2.238   1.467   4.727
 3824SOL     OW11923   3.320   1.502   5.085
 3824SOL    HW111924   3.375   1.580   5.094
 3824SOL    HW211925   3.253   1.512   5.152
 3825SOL     OW11926   2.309   0.390   5.213
 3825SOL    HW111927   2.401   0.364   5.215
 3825SOL    HW211928   2.260   0.309   5.223
 3826SOL     OW11929   3.472   0.450   4.459
 3826SOL    HW111930   3.405   0.484   4.399
 3826SOL    HW211931   3.490   0.522   4.519
 3827SOL     OW11932   2.098   1.694   4.180
 3827SOL    HW111933   2.128   1.760   4.242
 3827SOL    HW211934   2.171   1.683   4.119
 3828SOL     OW11935   2.999   1.343   5.419
 3828SOL    HW111936   3.041   1.336   5.505
 3828SOL    HW211937   2.947   1.263   5.411
 3829SOL     OW11938   2.090   1.433   4.260
 3829SOL    HW111939   2.081   1.528   4.252
 3829SOL    HW211940   2.030   1.409   4.330
 3830SOL     OW11941   2.127   1.091   4.614
 3830SOL    HW111942   2.123   1.003   4.652
 3830SOL    HW211943   2.070   1.144   4.670
 3831SOL     OW11944   2.467   1.793   5.150
 3831SOL    HW111945   2.388   1.775   5.200
 3831SOL    HW211946   2.493   1.881   5.179
 3832SOL     OW11947   2.441   0.985   3.863
 3832SOL    HW111948   2.490   1.030   3.794
 3832SOL    HW211949   2.480   1.017   3.945
 3833SOL     OW11950   3.446   0.143   5.179
 3833SOL    HW111951   3.474   0.215   5.123
 3833SOL    HW211952   3.404   0.187   5.254
 3834SOL     OW11953   1.981   0.659   4.285
 3834SOL    HW111954   1.953   0.570   4.308
 3834SOL    HW211955   1.973   0.708   4.367
 3835SOL     OW11956   3.703   1.757   4.059
 3835SOL    HW111957   3.774   1.733   4.119
 3835SOL    HW211958   3.720   1.849   4.038
 3836SOL     OW11959   1.863   1.605   3.897
 3836SOL    HW111960   1.850   1.512   3.877
 3836SOL    HW211961   1.901   1.604   3.986
 3837SOL     OW11962   3.552   0.919   4.374
 3837SOL    HW111963   3.635   0.875   4.357
 3837SOL    HW211964   3.534   0.968   4.294
 3838SOL     OW11965   3.505   1.102   4.157
 3838SOL    HW111966   3.590   1.107   4.112
 3838SOL    HW211967   3.511   1.166   4.227
 3839SOL     OW11968   1.984   0.751   5.303
 3839SOL    HW111969   2.073   0.786   5.305
 3839SOL    HW211970   1.928   0.828   5.304
 3840SOL     OW11971   2.478   1.390   4.459
 3840SOL    HW111972   2.433   1.306   4.467
 3840SOL    HW211973   2.460   1.418   4.369
 3841SOL     OW11974   3.147   1.236   5.145
 3841SOL    HW111975   3.178   1.169   5.085
 3841SOL    HW211976   3.207   1.231   5.220
 3842SOL     OW11977   2.684   0.007   4.243
 3842SOL    HW111978   2.729   0.086   4.215
 3842SOL    HW211979   2.591   0.030   4.241
 3843SOL     OW11980   2.050   0.959   5.004
 3843SOL    HW111981   2.136   0.921   4.988
 3843SOL    HW211982   1.992   0.914   4.943
 3844SOL     OW11983   3.389   0.999   3.926
 3844SOL    HW111984   3.320   0.941   3.959
 3844SOL    HW211985   3.432   1.033   4.004
 3845SOL     OW11986   3.044   1.812   5.349
 3845SOL    HW111987   3.052   1.872   5.275
 3845SOL    HW211988   3.063   1.726   5.312
 3846SOL     OW11989   2.223   0.249   5.579
 3846SOL    HW111990   2.268   0.333   5.582
 3846SOL    HW211991   2.130   0.272   5.577
 3847SOL     OW11992   3.329   1.420   4.671
 3847SOL    HW111993   3.262   1.436   4.738
 3847SOL    HW211994   3.317   1.328   4.646
 3848SOL     OW11995   3.512   1.752   4.303
 3848SOL    HW111996   3.497   1.718   4.215
 3848SOL    HW211997   3.496   1.678   4.361
 3849SOL     OW11998   2.456   0.718   3.994
 3849SOL    HW111999   2.459   0.802   3.949
 3849SOL    HW212000   2.391   0.731   4.064
 3850SOL     OW12001   3.136   0.373   4.665
 3850SOL    HW112002   3.049   0.334   4.674
 3850SOL    HW212003   3.194   0.312   4.711
 3851SOL     OW12004   3.439   1.672   4.035
 3851SOL    HW112005   3.530   1.700   4.028
 3851SOL    HW212006   3.411   1.657   3.945
 3852SOL     OW12007   2.657   0.615   5.174
 3852SOL    HW112008   2.629   0.588   5.262
 3852SOL    HW212009   2.622   0.547   5.116
 3853SOL     OW12010   3.254   0.475   5.401
 3853SOL    HW112011   3.261   0.521   5.485
 3853SOL    HW212012   3.309   0.398   5.412
 3854SOL     OW12013   2.811   0.886   5.310
 3854SOL    HW112014   2.867   0.818   5.272
 3854SOL    HW212015   2.763   0.923   5.236
 3855SOL     OW12016   2.857   0.401   4.959
 3855SOL    HW112017   2.770   0.419   4.995
 3855SOL    HW212018   2.840   0.376   4.868
 3856SOL     OW12019   2.915   0.701   4.148
 3856SOL    HW112020   2.933   0.694   4.242
 3856SOL    HW212021   2.832   0.655   4.136
 3857SOL     OW12022   1.949   0.824   4.501
 3857SOL    HW112023   2.029   0.816   4.553
 3857SOL    HW212024   1.905   0.900   4.538
 3858SOL     OW12025   2.757   0.353   3.925
 3858SOL    HW112026   2.800   0.413   3.863
 3858SOL    HW212027   2.746   0.272   3.876
 3859SOL     OW12028   3.566   0.572   5.554
 3859SOL    HW112029   3.531   0.647   5.506
 3859SOL    HW212030   3.593   0.510   5.486
 3860SOL     OW12031   3.240   1.141   4.263
 3860SOL    HW112032   3.320   1.130   4.212
 3860SOL    HW212033   3.188   1.204   4.213
 3861SOL     OW12034   2.422   0.199   4.604
 3861SOL    HW112035   2.424   0.219   4.698
 3861SOL    HW212036   2.417   0.285   4.562
 3862SOL     OW12037   2.862   1.442   4.193
 3862SOL    HW112038   2.831   1.517   4.142
 3862SOL    HW212039   2.838   1.464   4.283
 3863SOL     OW12040   2.221   1.807   4.585
 3863SOL    HW112041   2.255   1.718   4.598
 3863SOL    HW212042   2.289   1.864   4.618
 3864SOL     OW12043   3.669   1.062   4.593
 3864SOL    HW112044   3.617   1.034   4.518
 3864SOL    HW212045   3.606   1.065   4.666
 3865SOL     OW12046   3.088   1.540   5.238
 3865SOL    HW112047   3.076   1.468   5.300
 3865SOL    HW212048   3.023   1.523   5.169
 3866SOL     OW12049   2.177   0.962   3.978
 3866SOL    HW112050   2.260   0.981   3.934
 3866SOL    HW212051   2.149   0.878   3.941
 3867SOL     OW12052   3.343   0.751   4.451
 3867SOL    HW112053   3.339   0.710   4.538
 3867SOL    HW212054   3.421   0.807   4.455
 3868SOL     OW12055   2.330   1.268   5.466
 3868SOL    HW112056   2.304   1.271   5.374
 3868SOL    HW212057   2.247   1.262   5.514
 3869SOL     OW12058   2.987   1.778   3.952
 3869SOL    HW112059   2.912   1.738   3.996
 3869SOL    HW212060   3.012   1.715   3.884
 3870SOL     OW12061   2.028   0.274   5.224
 3870SOL    HW112062   1.978   0.354   5.208
 3870SOL    HW212063   2.030   0.265   5.320
 3871SOL     OW12064   3.486   1.385   3.811
 3871SOL    HW112065   3.442   1.469   3.797
 3871SOL    HW212066   3.419   1.320   3.791
 3872SOL     OW12067   2.344   1.706   4.060
 3872SOL    HW112068   2.383   1.782   4.102
 3872SOL    HW212069   2.399   1.690   3.983
 3873SOL     OW12070   3.299   0.176   4.126
 3873SOL    HW112071   3.247   0.100   4.098
 3873SOL    HW212072   3.374   0.138   4.172
 3874SOL     OW12073   2.157   1.767   4.940
 3874SOL    HW112074   2.197   1.684   4.968
 3874SOL    HW212075   2.108   1.745   4.861
 3875SOL     OW12076   2.799   1.699   4.622
 3875SOL    HW112077   2.880   1.651   4.643
 3875SOL    HW212078   2.759   1.648   4.551
 3876SOL     OW12079   2.258   0.695   4.196
 3876SOL    HW112080   2.275   0.602   4.210
 3876SOL    HW212081   2.165   0.706   4.215
 3877SOL     OW12082   3.391   0.227   5.450
 3877SOL    HW112083   3.381   0.252   5.542
 3877SOL    HW212084   3.379   0.133   5.449
 3878SOL     OW12085   2.507   0.126   3.834
 3878SOL    HW112086   2.525   0.040   3.873
 3878SOL    HW212087   2.444   0.108   3.764
 3879SOL     OW12088   2.634   0.284   5.498
 3879SOL    HW112089   2.713   0.229   5.499
 3879SOL    HW212090   2.580   0.250   5.569
 3880SOL     OW12091   2.738   1.523   4.919
 3880SOL    HW112092   2.721   1.486   4.832
 3880SOL    HW212093   2.808   1.469   4.955
 3881SOL     OW12094   3.200   0.587   5.155
 3881SOL    HW112095   3.231   0.559   5.241
 3881SOL    HW212096   3.235   0.676   5.145
 3882SOL     OW12097   2.680   1.390   4.669
 3882SOL    HW112098   2.765   1.379   4.627
 3882SOL    HW212099   2.617   1.396   4.597
 3883SOL     OW12100   2.792   0.512   4.622
 3883SOL    HW112101   2.767   0.503   4.530
 3883SOL    HW212102   2.817   0.423   4.648
 3884SOL     OW12103   2.406   0.056   4.214
 3884SOL    HW112104   2.332   0.061   4.275
 3884SOL    HW212105   2.401   0.137   4.164
 3885SOL     OW12106   3.289   1.200   3.763
 3885SOL    HW112107   3.319   1.126   3.815
 3885SOL    HW212108   3.204   1.223   3.800
 3886SOL     OW12109   2.193   0.047   3.937
 3886SOL    HW112110   2.198   0.110   3.866
 3886SOL    HW212111   2.273   0.062   3.988
 3887SOL     OW12112   2.807   0.252   4.182
 3887SOL    HW112113   2.782   0.290   4.098
 3887SOL    HW212114   2.902   0.259   4.183
 3888SOL     OW12115   2.941   0.686   5.181
 3888SOL    HW112116   2.873   0.620   5.187
 3888SOL    HW212117   3.023   0.636   5.176
 3889SOL     OW12118   3.080   1.574   4.520
 3889SOL    HW112119   3.095   1.638   4.450
 3889SOL    HW212120   3.151   1.588   4.582
 3890SOL     OW12121   2.335   1.152   4.451
 3890SOL    HW112122   2.268   1.132   4.517
 3890SOL    HW212123   2.291   1.139   4.367
 3891SOL     OW12124   3.126   1.792   4.336
 3891SOL    HW112125   3.176   1.853   4.281
 3891SOL    HW212126   3.058   1.845   4.376
 3892SOL     OW12127   2.883   0.539   3.755
 3892SOL    HW112128   2.839   0.622   3.735
 3892SOL    HW212129   2.946   0.561   3.823
 3893SOL     OW12130   1.947   0.548   5.121
 3893SOL    HW112131   2.038   0.552   5.091
 3893SOL    HW212132   1.939   0.621   5.183
 3894SOL     OW12133   2.423   0.231   4.884
 3894SOL    HW112134   2.446   0.138   4.894
 3894SOL    HW212135   2.334   0.237   4.918
 3895SOL     OW12136   2.732   0.460   4.361
 3895SOL    HW112137   2.686   0.515   4.297
 3895SOL    HW212138   2.754   0.381   4.312
 3896SOL     OW12139   2.859   0.037   4.506
 3896SOL    HW112140   2.819   0.069   4.425
 3896SOL    HW212141   2.871   3.943   4.492
 3897SOL     OW12142   3.303   1.160   4.582
 3897SOL    HW112143   3.230   1.098   4.580
 3897SOL    HW212144   3.329   1.169   4.490
 3898SOL     OW12145   3.325   0.610   4.694
 3898SOL    HW112146   3.269   0.533   4.699
 3898SOL    HW212147   3.384   0.602   4.769
 3899SOL     OW12148   3.722   0.825   4.099
 3899SOL    HW112149   3.762   0.768   4.164
 3899SOL    HW212150   3.685   0.765   4.034
 3900SOL     OW12151   2.354   1.422   3.873
 3900SOL    HW112152   2.279   1.396   3.927
 3900SOL    HW212153   2.346   1.370   3.793
 3901SOL     OW12154   3.531   1.266   4.366
 3901SOL    HW112155   3.626   1.268   4.376
 3901SOL    HW212156   3.503   1.355   4.387
 3902SOL     OW12157   3.257   0.578   3.792
 3902SOL    HW112158   3.193   0.558   3.861
 3902SOL    HW212159   3.342   0.563   3.833
 3903SOL     OW12160   2.388   0.266   4.039
 3903SOL    HW112161   2.445   0.228   3.973
 3903SOL    HW212162   2.358   0.349   4.001
 3904SOL     OW12163   3.612   1.232   5.285
 3904SOL    HW112164   3.700   1.198   5.268
 3904SOL    HW212165   3.627   1.322   5.314
 3905SOL     OW12166   2.917   1.354   5.057
 3905SOL    HW112167   2.841   1.322   5.106
 3905SOL    HW212168   2.992   1.312   5.098
 3906SOL     OW12169   3.468   1.629   5.382
 3906SOL    HW112170   3.459   1.664   5.293
 3906SOL    HW212171   3.547   1.576   5.379
 3907SOL     OW12172   2.997   1.211   4.826
 3907SOL    HW112173   2.936   1.248   4.890
 3907SOL    HW212174   2.967   1.245   4.742
 3908SOL     OW12175   3.487   1.094   4.798
 3908SOL    HW112176   3.477   1.156   4.869
 3908SOL    HW212177   3.413   1.111   4.740
 3909SOL     OW12178   2.773   0.120   5.125
 3909SOL    HW112179   2.793   0.089   5.036
 3909SOL    HW212180   2.854   0.161   5.155
 3910SOL     OW12181   2.847   1.115   5.448
 3910SOL    HW112182   2.756   1.133   5.471
 3910SOL    HW212183   2.843   1.036   5.393
 3911SOL     OW12184   2.572   1.063   4.095
 3911SOL    HW112185   2.557   1.043   4.187
 3911SOL    HW212186   2.647   1.009   4.070
 3912SOL     OW12187   2.284   0.818   4.976
 3912SOL    HW112188   2.353   0.826   5.042
 3912SOL    HW212189   2.249   0.729   4.989
 3913SOL     OW12190   3.128   0.375   5.001
 3913SOL    HW112191   3.161   0.453   5.045
 3913SOL    HW212192   3.040   0.399   4.972
 3914SOL     OW12193   1.937   1.577   5.078
 3914SOL    HW112194   1.904   1.640   5.014
 3914SOL    HW212195   2.032   1.576   5.063
 3915SOL     OW12196   2.202   1.116   4.214
 3915SOL    HW112197   2.207   1.192   4.155
 3915SOL    HW212198   2.199   1.040   4.156
 3916SOL     OW12199   2.415   0.528   4.579
 3916SOL    HW112200   2.427   0.588   4.506
 3916SOL    HW212201   2.480   0.555   4.644
 3917SOL     OW12202   3.109   1.350   4.114
 3917SOL    HW112203   3.165   1.421   4.146
 3917SOL    HW212204   3.022   1.371   4.148
 3918SOL     OW12205   3.151   1.461   4.872
 3918SOL    HW112206   3.206   1.466   4.950
 3918SOL    HW212207   3.097   1.383   4.886
 3919SOL     OW12208   3.431   0.634   4.212
 3919SOL    HW112209   3.388   0.686   4.280
 3919SOL    HW212210   3.477   0.698   4.159
 3920SOL     OW12211   2.214   1.515   5.038
 3920SOL    HW112212   2.200   1.470   4.954
 3920SOL    HW212213   2.308   1.526   5.044
 3921SOL     OW12214   2.283   0.745   5.328
 3921SOL    HW112215   2.344   0.789   5.268
 3921SOL    HW212216   2.324   0.660   5.346
 3922SOL     OW12217   3.469   0.780   5.410
 3922SOL    HW112218   3.383   0.823   5.404
 3922SOL    HW212219   3.521   0.823   5.343
 3923SOL     OW12220   2.868   0.141   5.506
 3923SOL    HW112221   2.926   0.209   5.471
 3923SOL    HW212222   2.855   0.080   5.433
 3924SOL     OW12223   2.352   0.035   5.484
 3924SOL    HW112224   2.352   0.051   5.390
 3924SOL    HW212225   2.292   0.100   5.520
 3925SOL     OW12226   2.447   0.875   4.756
 3925SOL    HW112227   2.478   0.965   4.759
 3925SOL    HW212228   2.389   0.867   4.832
 3926SOL     OW12229   3.209   0.859   4.746
 3926SOL    HW112230   3.123   0.844   4.706
 3926SOL    HW212231   3.255   0.775   4.737
 3927SOL     OW12232   3.060   0.539   3.978
 3927SOL    HW112233   3.067   0.460   4.032
 3927SOL    HW212234   3.017   0.603   4.036
 3928SOL     OW12235   2.159   0.208   4.967
 3928SOL    HW112236   2.116   0.236   5.048
 3928SOL    HW212237   2.149   0.113   4.967
 3929SOL     OW12238   1.907   1.313   5.001
 3929SOL    HW112239   1.940   1.257   5.071
 3929SOL    HW212240   1.914   1.402   5.035
 3930SOL     OW12241   2.582   0.631   4.773
 3930SOL    HW112242   2.659   0.620   4.717
 3930SOL    HW212243   2.552   0.720   4.756
 3931SOL     OW12244   3.593   0.957   5.591
 3931SOL    HW112245   3.552   0.892   5.534
 3931SOL    HW212246   3.528   0.973   5.659
 3932SOL     OW12247   2.186   0.054   4.381
 3932SOL    HW112248   2.165   0.147   4.391
 3932SOL    HW212249   2.158   0.014   4.463
 3933SOL     OW12250   3.476   0.397   4.102
 3933SOL    HW112251   3.433   0.328   4.152
 3933SOL    HW212252   3.455   0.478   4.148
 3934SOL     OW12253   2.893   0.759   4.681
 3934SOL    HW112254   2.883   0.776   4.775
 3934SOL    HW212255   2.865   0.668   4.670
 3935SOL     OW12256   2.845   1.569   5.445
 3935SOL    HW112257   2.829   1.612   5.361
 3935SOL    HW212258   2.886   1.485   5.422
 3936SOL     OW12259   3.702   1.494   5.321
 3936SOL    HW112260   3.727   1.526   5.234
 3936SOL    HW212261   3.782   1.502   5.373
 3937SOL     OW12262   2.214   0.916   5.533
 3937SOL    HW112263   2.294   0.935   5.581
 3937SOL    HW212264   2.240   0.853   5.466
 3938SOL     OW12265   3.359   0.271   3.856
 3938SOL    HW112266   3.287   0.208   3.865
 3938SOL    HW212267   3.369   0.309   3.943
 3939SOL     OW12268   3.148   0.827   3.751
 3939SOL    HW112269   3.190   0.741   3.755
 3939SOL    HW212270   3.181   0.866   3.670
 3940SOL     OW12271   2.931   1.339   4.581
 3940SOL    HW112272   2.935   1.267   4.518
 3940SOL    HW212273   2.988   1.406   4.545
 3941SOL     OW12274   2.169   0.811   4.670
 3941SOL    HW112275   2.263   0.831   4.663
 3941SOL    HW212276   2.167   0.720   4.702
 3942SOL     OW12277   2.198   0.538   4.739
 3942SOL    HW112278   2.156   0.453   4.724
 3942SOL    HW212279   2.274   0.538   4.680
 3943SOL     OW12280   2.995   0.379   5.423
 3943SOL    HW112281   2.946   0.433   5.485
 3943SOL    HW212282   3.082   0.420   5.419
 3944SOL     OW12283   3.014   0.226   5.205
 3944SOL    HW112284   3.004   0.279   5.284
 3944SOL    HW212285   3.041   0.288   5.138
 3945SOL     OW12286   1.867   1.316   3.917
 3945SOL    HW112287   1.780   1.329   3.880
 3945SOL    HW212288   1.865   1.226   3.952
 3946SOL     OW12289   1.989   1.711   4.719
 3946SOL    HW112290   1.945   1.654   4.655
 3946SOL    HW212291   2.043   1.769   4.666
 3947SOL     OW12292   2.357   1.571   4.632
 3947SOL    HW112293   2.425   1.634   4.655
 3947SOL    HW212294   2.400   1.509   4.573
 3948SOL     OW12295   2.836   0.785   4.946
 3948SOL    HW112296   2.894   0.769   5.020
 3948SOL    HW212297   2.751   0.748   4.973
 3949SOL     OW12298   1.895   0.549   4.841
 3949SOL    HW112299   1.969   0.524   4.786
 3949SOL    HW212300   1.930   0.547   4.930
 3950SOL     OW12301   2.066   0.528   5.436
 3950SOL    HW112302   2.139   0.507   5.377
 3950SOL    HW212303   2.024   0.604   5.396
 3951SOL     OW12304   3.243   0.934   5.380
 3951SOL    HW112305   3.264   1.027   5.377
 3951SOL    HW212306   3.238   0.907   5.289
 3952SOL     OW12307   2.679   0.573   4.091
 3952SOL    HW112308   2.686   0.498   4.032
 3952SOL    HW212309   2.604   0.623   4.058
 3953SOL     OW12310   3.500   0.602   4.904
 3953SOL    HW112311   3.489   0.542   4.977
 3953SOL    HW212312   3.586   0.582   4.868
 3954SOL     OW12313   2.113   1.535   5.428
 3954SOL    HW112314   2.094   1.604   5.491
 3954SOL    HW212315   2.119   1.455   5.480
 3955SOL     OW12316   2.577   0.450   4.975
 3955SOL    HW112317   2.523   0.374   4.953
 3955SOL    HW212318   2.564   0.510   4.902
 3956SOL     OW12319   2.781   1.680   5.196
 3956SOL    HW112320   2.760   1.639   5.112
 3956SOL    HW212321   2.777   1.774   5.179
 3957SOL     OW12322   2.323   0.493   3.903
 3957SOL    HW112323   2.381   0.565   3.929
 3957SOL    HW212324   2.237   0.534   3.892
 3958SOL     OW12325   2.002   1.142   5.198
 3958SOL    HW112326   2.005   1.095   5.282
 3958SOL    HW212327   2.019   1.075   5.132
 3959SOL     OW12328   3.181   1.043   4.944
 3959SOL    HW112329   3.203   0.980   4.875
 3959SOL    HW212330   3.115   1.100   4.904
 3960SOL     OW12331   3.177   0.854   4.027
 3960SOL    HW112332   3.102   0.827   4.080
 3960SOL    HW212333   3.149   0.843   3.937
 3961SOL     OW12334   3.646   1.738   4.884
 3961SOL    HW112335   3.701   1.766   4.811
 3961SOL    HW212336   3.614   1.652   4.859
 3962SOL     OW12337   3.102   1.733   4.830
 3962SOL    HW112338   3.184   1.758   4.788
 3962SOL    HW212339   3.111   1.640   4.851
 3963SOL     OW12340   1.951   1.262   4.738
 3963SOL    HW112341   1.932   1.279   4.830
 3963SOL    HW212342   1.877   1.210   4.707
 3964SOL     OW12343   2.546   1.666   5.456
 3964SOL    HW112344   2.493   1.745   5.453
 3964SOL    HW212345   2.616   1.682   5.393
 3965SOL     OW12346   3.548   0.118   4.213
 3965SOL    HW112347   3.629   0.135   4.164
 3965SOL    HW212348   3.553   0.025   4.235
 3966SOL     OW12349   3.253   1.567   4.215
 3966SOL    HW112350   3.312   1.601   4.147
 3966SOL    HW212351   3.204   1.644   4.243
 3967SOL     OW12352   2.036   1.735   5.586
 3967SOL    HW112353   1.974   1.690   5.643
 3967SOL    HW212354   2.012   1.828   5.592
 3968SOL     OW12355   3.139   0.928   4.395
 3968SOL    HW112356   3.214   0.870   4.407
 3968SOL    HW212357   3.173   1.000   4.341
 3969SOL     OW12358   2.667   1.275   5.147
 3969SOL    HW112359   2.639   1.316   5.229
 3969SOL    HW212360   2.597   1.294   5.085
 3970SOL     OW12361   2.536   1.624   3.873
 3970SOL    HW112362   2.548   1.636   3.779
 3970SOL    HW212363   2.480   1.547   3.881
 3971SOL     OW12364   3.479   1.728   5.116
 3971SOL    HW112365   3.536   1.732   5.039
 3971SOL    HW212366   3.465   1.819   5.140
 3972SOL     OW12367   3.705   0.182   4.695
 3972SOL    HW112368   3.729   0.097   4.658
 3972SOL    HW212369   3.619   0.201   4.658
 3973SOL     OW12370   2.124   0.315   4.438
 3973SOL    HW112371   2.038   0.349   4.415
 3973SOL    HW212372   2.123   0.309   4.534
 3974SOL     OW12373   3.070   1.601   3.757
 3974SOL    HW112374   3.059   1.510   3.783
 3974SOL    HW212375   3.004   1.615   3.689
 3975SOL     OW12376   2.686   1.006   5.098
 3975SOL    HW112377   2.727   1.001   5.012
 3975SOL    HW212378   2.682   1.100   5.117
 3976SOL     OW12379   2.778   0.911   4.014
 3976SOL    HW112380   2.838   0.944   3.948
 3976SOL    HW212381   2.827   0.843   4.061
 3977SOL     OW12382   3.349   1.632   3.769
 3977SOL    HW112383   3.255   1.620   3.753
 3977SOL    HW212384   3.387   1.637   3.681
 3978SOL     OW12385   2.231   1.298   5.219
 3978SOL    HW112386   2.220   1.375   5.164
 3978SOL    HW212387   2.153   1.245   5.202
 3979SOL     OW12388   3.460   1.280   4.999
 3979SOL    HW112389   3.529   1.270   5.065
 3979SOL    HW212390   3.403   1.349   5.035
 3980SOL     OW12391   2.922   1.111   4.435
 3980SOL    HW112392   2.850   1.060   4.472
 3980SOL    HW212393   2.986   1.044   4.407
 3981SOL     OW12394   2.877   0.250   4.695
 3981SOL    HW112395   2.868   0.199   4.615
 3981SOL    HW212396   2.876   0.185   4.765
 3982SOL     OW12397   2.468   1.490   4.206
 3982SOL    HW112398   2.511   1.439   4.137
 3982SOL    HW212399   2.407   1.547   4.159
 3983SOL     OW12400   3.583   0.396   5.094
 3983SOL    HW112401   3.656   0.458   5.095
 3983SOL    HW212402   3.614   0.323   5.041
 3984SOL     OW12403   2.123   1.344   4.011
 3984SOL    HW112404   2.030   1.338   3.989
 3984SOL    HW212405   2.125   1.378   4.100
 3985SOL     OW12406   1.978   1.038   5.453
 3985SOL    HW112407   1.901   1.008   5.500
 3985SOL    HW212408   2.051   0.990   5.493
 3986SOL     OW12409   2.558   0.264   5.229
 3986SOL    HW112410   2.623   0.207   5.187
 3986SOL    HW212411   2.584   0.267   5.321
 3987SOL     OW12412   1.965   0.317   3.716
 3987SOL    HW112413   1.898   0.336   3.782
 3987SOL    HW212414   1.971   0.397   3.664
 3988SOL     OW12415   3.284   0.856   5.120
 3988SOL    HW112416   3.234   0.918   5.067
 3988SOL    HW212417   3.373   0.859   5.084
 3989SOL     OW12418   1.942   0.150   4.063
 3989SOL    HW112419   1.910   0.207   3.993
 3989SOL    HW212420   2.029   0.123   4.034
 3990SOL     OW12421   3.040   1.335   3.842
 3990SOL    HW112422   2.949   1.304   3.844
 3990SOL    HW212423   3.066   1.336   3.934
 3991SOL     OW12424   2.485   0.828   5.158
 3991SOL    HW112425   2.541   0.904   5.144
 3991SOL    HW212426   2.545   0.754   5.167
 3992SOL     OW12427   3.344   1.786   4.706
 3992SOL    HW112428   3.366   1.852   4.640
 3992SOL    HW212429   3.428   1.753   4.737
 3993SOL     OW12430   2.581   0.559   5.427
 3993SOL    HW112431   2.625   0.620   5.486
 3993SOL    HW212432   2.602   0.472   5.462
 3994SOL     OW12433   3.336   1.194   5.352
 3994SOL    HW112434   3.325   1.210   5.446
 3994SOL    HW212435   3.428   1.211   5.336
 3995SOL     OW12436   2.232   1.745   5.289
 3995SOL    HW112437   2.168   1.758   5.220
 3995SOL    HW212438   2.206   1.663   5.331
 3996SOL     OW12439   3.524   0.880   4.983
 3996SOL    HW112440   3.524   0.795   4.939
 3996SOL    HW212441   3.517   0.944   4.912
 3997SOL     OW12442   3.081   0.340   4.164
 3997SOL    HW112443   3.150   0.275   4.155
 3997SOL    HW212444   3.099   0.384   4.248
 3998SOL     OW12445   2.450   0.734   4.396
 3998SOL    HW112446   2.489   0.820   4.382
 3998SOL    HW212447   2.384   0.726   4.327
 3999SOL     OW12448   3.614   0.381   5.366
 3999SOL    HW112449   3.594   0.391   5.273
 3999SOL    HW212450   3.553   0.314   5.397
 4000SOL     OW12451   3.617   0.929   5.236
 4000SOL    HW112452   3.606   1.023   5.255
 4000SOL    HW212453   3.591   0.920   5.145
 4001SOL     OW12454   2.725   1.365   3.766
 4001SOL    HW112455   2.688   1.391   3.850
 4001SOL    HW212456   2.741   1.448   3.720
 4002SOL     OW12457   2.524   1.789   4.663
 4002SOL    HW112458   2.510   1.881   4.638
 4002SOL    HW212459   2.619   1.777   4.655
 4003SOL     OW12460   2.731   0.971   4.578
 4003SOL    HW112461   2.782   0.898   4.615
 4003SOL    HW212462   2.693   1.015   4.653
 4004SOL     OW12463   2.939   0.990   3.814
 4004SOL    HW112464   2.917   1.041   3.736
 4004SOL    HW212465   3.013   0.935   3.786
 4005SOL     OW12466   3.711   1.556   4.564
 4005SOL    HW112467   3.631   1.540   4.514
 4005SOL    HW212468   3.711   1.488   4.631
 4006SOL     OW12469   2.081   1.294   5.578
 4006SOL    HW112470   2.032   1.223   5.537
 4006SOL    HW212471   2.036   1.310   5.661
 4007SOL     OW12472   1.946   1.221   4.390
 4007SOL    HW112473   1.963   1.177   4.474
 4007SOL    HW212474   2.017   1.192   4.333
 4008SOL     OW12475   2.543   1.406   5.351
 4008SOL    HW112476   2.465   1.364   5.388
 4008SOL    HW212477   2.543   1.494   5.389
 4009SOL     OW12478   3.674   0.181   4.968
 4009SOL    HW112479   3.676   0.086   4.978
 4009SOL    HW212480   3.694   0.197   4.876
 4010SOL     OW12481   2.290   0.435   4.249
 4010SOL    HW112482   2.325   0.364   4.196
 4010SOL    HW212483   2.242   0.391   4.319
 4011SOL     OW12484   3.556   1.491   4.819
 4011SOL    HW112485   3.479   1.469   4.767
 4011SOL    HW212486   3.563   1.418   4.882
 4012SOL     OW12487   2.196   0.558   5.020
 4012SOL    HW112488   2.248   0.498   5.074
 4012SOL    HW212489   2.215   0.531   4.930
 4013SOL     OW12490   2.694   1.578   4.400
 4013SOL    HW112491   2.675   1.643   4.332
 4013SOL    HW212492   2.618   1.519   4.398
 4014SOL     OW12493   3.322   0.254   4.833
 4014SOL    HW112494   3.337   0.167   4.869
 4014SOL    HW212495   3.267   0.298   4.899
 4015SOL     OW12496   2.864   0.025   4.869
 4015SOL    HW112497   2.780   0.002   4.829
 4015SOL    HW212498   2.910   3.941   4.878
 4016SOL     OW12499   2.637   1.334   4.043
 4016SOL    HW112500   2.608   1.243   4.052
 4016SOL    HW212501   2.717   1.339   4.095
 4017SOL     OW12502   2.483   1.555   5.011
 4017SOL    HW112503   2.483   1.638   5.059
 4017SOL    HW212504   2.572   1.548   4.975
 4018SOL     OW12505   3.168   0.069   3.882
 4018SOL    HW112506   3.171   3.980   3.846
 4018SOL    HW212507   3.086   0.072   3.932
 4019SOL     OW12508   3.140   0.456   4.408
 4019SOL    HW112509   3.094   0.540   4.402
 4019SOL    HW212510   3.144   0.437   4.501
 4020SOL     OW12511   3.453   0.210   4.592
 4020SOL    HW112512   3.405   0.234   4.670
 4020SOL    HW212513   3.451   0.289   4.537
 4021SOL     OW12514   1.906   1.068   4.031
 4021SOL    HW112515   2.000   1.059   4.013
 4021SOL    HW212516   1.878   0.980   4.056
 4022SOL     OW12517   2.753   1.658   4.060
 4022SOL    HW112518   2.677   1.644   4.004
 4022SOL    HW212519   2.728   1.731   4.117
 4023SOL     OW12520   2.085   0.619   5.707
 4023SOL    HW112521   1.995   0.628   5.739
 4023SOL    HW212522   2.076   0.599   5.614
 4024SOL     OW12523   2.078   0.303   6.579
 4024SOL    HW112524   2.115   0.259   6.655
 4024SOL    HW212525   1.993   0.261   6.565
 4025SOL     OW12526   1.870   0.400   6.217
 4025SOL    HW112527   1.785   0.415   6.257
 4025SOL    HW212528   1.854   0.332   6.151
 4026SOL     OW12529   2.439   1.282   6.772
 4026SOL    HW112530   2.351   1.273   6.735
 4026SOL    HW212531   2.445   1.373   6.799
 4027SOL     OW12532   3.431   1.514   6.294
 4027SOL    HW112533   3.388   1.491   6.377
 4027SOL    HW212534   3.359   1.519   6.230
 4028SOL     OW12535   2.995   0.699   6.280
 4028SOL    HW112536   3.043   0.781   6.268
 4028SOL    HW212537   2.947   0.710   6.362
 4029SOL     OW12538   3.626   0.624   5.810
 4029SOL    HW112539   3.606   0.612   5.718
 4029SOL    HW212540   3.605   0.540   5.851
 4030SOL     OW12541   2.617   1.135   6.630
 4030SOL    HW112542   2.553   1.172   6.691
 4030SOL    HW212543   2.654   1.211   6.585
 4031SOL     OW12544   2.737   0.765   7.411
 4031SOL    HW112545   2.724   0.836   7.475
 4031SOL    HW212546   2.758   0.810   7.329
 4032SOL     OW12547   2.549   0.995   6.229
 4032SOL    HW112548   2.615   0.988   6.297
 4032SOL    HW212549   2.480   1.050   6.267
 4033SOL     OW12550   2.581   1.147   7.403
 4033SOL    HW112551   2.627   1.225   7.433
 4033SOL    HW212552   2.500   1.180   7.364
 4034SOL     OW12553   3.320   1.502   6.947
 4034SOL    HW112554   3.375   1.580   6.955
 4034SOL    HW212555   3.254   1.512   7.015
 4035SOL     OW12556   2.309   0.391   7.076
 4035SOL    HW112557   2.401   0.363   7.077
 4035SOL    HW212558   2.259   0.310   7.085
 4036SOL     OW12559   3.472   0.450   6.321
 4036SOL    HW112560   3.406   0.484   6.261
 4036SOL    HW212561   3.490   0.522   6.380
 4037SOL     OW12562   2.095   1.699   6.025
 4037SOL    HW112563   2.101   1.788   6.059
 4037SOL    HW212564   2.181   1.682   5.986
 4038SOL     OW12565   3.000   1.344   7.280
 4038SOL    HW112566   3.043   1.336   7.366
 4038SOL    HW212567   2.948   1.263   7.272
 4039SOL     OW12568   2.131   1.090   6.475
 4039SOL    HW112569   2.126   1.000   6.507
 4039SOL    HW212570   2.068   1.138   6.530
 4040SOL     OW12571   2.440   0.985   5.725
 4040SOL    HW112572   2.489   1.029   5.656
 4040SOL    HW212573   2.480   1.016   5.807
 4041SOL     OW12574   3.446   0.143   7.041
 4041SOL    HW112575   3.474   0.215   6.985
 4041SOL    HW212576   3.404   0.187   7.116
 4042SOL     OW12577   1.982   0.658   6.146
 4042SOL    HW112578   1.953   0.570   6.169
 4042SOL    HW212579   1.973   0.708   6.227
 4043SOL     OW12580   3.704   1.757   5.921
 4043SOL    HW112581   3.774   1.733   5.981
 4043SOL    HW212582   3.720   1.849   5.900
 4044SOL     OW12583   1.869   1.603   5.751
 4044SOL    HW112584   1.853   1.511   5.729
 4044SOL    HW212585   1.872   1.604   5.847
 4045SOL     OW12586   3.552   0.919   6.236
 4045SOL    HW112587   3.635   0.875   6.219
 4045SOL    HW212588   3.534   0.968   6.156
 4046SOL     OW12589   3.505   1.102   6.019
 4046SOL    HW112590   3.590   1.107   5.974
 4046SOL    HW212591   3.511   1.166   6.090
 4047SOL     OW12592   1.986   0.749   7.163
 4047SOL    HW112593   2.076   0.781   7.166
 4047SOL    HW212594   1.932   0.827   7.175
 4048SOL     OW12595   2.518   1.364   6.304
 4048SOL    HW112596   2.459   1.289   6.316
 4048SOL    HW212597   2.497   1.397   6.217
 4049SOL     OW12598   3.147   1.236   7.007
 4049SOL    HW112599   3.179   1.168   6.947
 4049SOL    HW212600   3.207   1.231   7.081
 4050SOL     OW12601   2.684   0.007   6.105
 4050SOL    HW112602   2.729   0.087   6.078
 4050SOL    HW212603   2.591   0.030   6.103
 4051SOL     OW12604   2.051   0.959   6.867
 4051SOL    HW112605   2.136   0.918   6.851
 4051SOL    HW212606   1.993   0.919   6.803
 4052SOL     OW12607   3.389   0.999   5.788
 4052SOL    HW112608   3.320   0.941   5.822
 4052SOL    HW212609   3.432   1.033   5.866
 4053SOL     OW12610   3.050   1.807   7.206
 4053SOL    HW112611   3.064   1.869   7.134
 4053SOL    HW212612   3.068   1.721   7.167
 4054SOL     OW12613   2.223   0.249   7.441
 4054SOL    HW112614   2.268   0.333   7.444
 4054SOL    HW212615   2.130   0.272   7.439
 4055SOL     OW12616   3.328   1.420   6.532
 4055SOL    HW112617   3.263   1.436   6.600
 4055SOL    HW212618   3.317   1.329   6.508
 4056SOL     OW12619   3.512   1.752   6.165
 4056SOL    HW112620   3.498   1.718   6.077
 4056SOL    HW212621   3.496   1.678   6.223
 4057SOL     OW12622   2.456   0.718   5.856
 4057SOL    HW112623   2.459   0.802   5.810
 4057SOL    HW212624   2.391   0.731   5.926
 4058SOL     OW12625   3.136   0.373   6.527
 4058SOL    HW112626   3.049   0.333   6.536
 4058SOL    HW212627   3.194   0.312   6.573
 4059SOL     OW12628   3.439   1.672   5.897
 4059SOL    HW112629   3.530   1.700   5.890
 4059SOL    HW212630   3.412   1.656   5.807
 4060SOL     OW12631   2.656   0.615   7.036
 4060SOL    HW112632   2.629   0.588   7.124
 4060SOL    HW212633   2.621   0.547   6.978
 4061SOL     OW12634   3.254   0.475   7.263
 4061SOL    HW112635   3.261   0.521   7.347
 4061SOL    HW212636   3.309   0.398   7.274
 4062SOL     OW12637   2.812   0.886   7.172
 4062SOL    HW112638   2.867   0.818   7.134
 4062SOL    HW212639   2.763   0.921   7.098
 4063SOL     OW12640   2.857   0.402   6.820
 4063SOL    HW112641   2.770   0.419   6.857
 4063SOL    HW212642   2.840   0.375   6.730
 4064SOL     OW12643   2.915   0.700   6.010
 4064SOL    HW112644   2.933   0.694   6.104
 4064SOL    HW212645   2.832   0.655   5.998
 4065SOL     OW12646   1.949   0.821   6.362
 4065SOL    HW112647   2.028   0.815   6.415
 4065SOL    HW212648   1.898   0.892   6.402
 4066SOL     OW12649   2.757   0.353   5.787
 4066SOL    HW112650   2.800   0.413   5.725
 4066SOL    HW212651   2.746   0.272   5.738
 4067SOL     OW12652   3.566   0.572   7.416
 4067SOL    HW112653   3.530   0.647   7.368
 4067SOL    HW212654   3.593   0.510   7.348
 4068SOL     OW12655   3.240   1.141   6.124
 4068SOL    HW112656   3.320   1.129   6.074
 4068SOL    HW212657   3.189   1.204   6.074
 4069SOL     OW12658   2.422   0.199   6.466
 4069SOL    HW112659   2.424   0.219   6.560
 4069SOL    HW212660   2.416   0.285   6.424
 4070SOL     OW12661   2.863   1.443   6.049
 4070SOL    HW112662   2.830   1.520   6.002
 4070SOL    HW212663   2.838   1.458   6.140
 4071SOL     OW12664   3.669   1.062   6.456
 4071SOL    HW112665   3.617   1.034   6.380
 4071SOL    HW212666   3.606   1.065   6.528
 4072SOL     OW12667   3.087   1.539   7.099
 4072SOL    HW112668   3.076   1.469   7.163
 4072SOL    HW212669   3.025   1.517   7.028
 4073SOL     OW12670   2.177   0.963   5.840
 4073SOL    HW112671   2.260   0.981   5.796
 4073SOL    HW212672   2.149   0.879   5.804
 4074SOL     OW12673   3.343   0.751   6.313
 4074SOL    HW112674   3.339   0.710   6.400
 4074SOL    HW212675   3.421   0.807   6.317
 4075SOL     OW12676   2.330   1.239   7.330
 4075SOL    HW112677   2.293   1.263   7.245
 4075SOL    HW212678   2.271   1.172   7.364
 4076SOL     OW12679   2.986   1.778   5.814
 4076SOL    HW112680   2.913   1.737   5.859
 4076SOL    HW212681   3.011   1.715   5.746
 4077SOL     OW12682   2.030   0.276   7.086
 4077SOL    HW112683   1.977   0.354   7.071
 4077SOL    HW212684   2.029   0.264   7.181
 4078SOL     OW12685   3.486   1.385   5.673
 4078SOL    HW112686   3.442   1.469   5.659
 4078SOL    HW212687   3.419   1.320   5.653
 4079SOL     OW12688   2.348   1.692   5.924
 4079SOL    HW112689   2.348   1.784   5.949
 4079SOL    HW212690   2.401   1.689   5.844
 4080SOL     OW12691   3.299   0.176   5.988
 4080SOL    HW112692   3.247   0.100   5.960
 4080SOL    HW212693   3.374   0.138   6.034
 4081SOL     OW12694   2.831   1.691   6.476
 4081SOL    HW112695   2.915   1.647   6.485
 4081SOL    HW212696   2.783   1.639   6.412
 4082SOL     OW12697   2.258   0.695   6.059
 4082SOL    HW112698   2.275   0.602   6.072
 4082SOL    HW212699   2.164   0.705   6.077
 4083SOL     OW12700   3.391   0.228   7.312
 4083SOL    HW112701   3.381   0.251   7.404
 4083SOL    HW212702   3.379   0.133   7.311
 4084SOL     OW12703   2.507   0.126   5.696
 4084SOL    HW112704   2.525   0.040   5.735
 4084SOL    HW212705   2.444   0.108   5.626
 4085SOL     OW12706   2.634   0.284   7.360
 4085SOL    HW112707   2.713   0.229   7.361
 4085SOL    HW212708   2.580   0.250   7.431
 4086SOL     OW12709   2.736   1.519   6.784
 4086SOL    HW112710   2.724   1.489   6.694
 4086SOL    HW212711   2.808   1.466   6.818
 4087SOL     OW12712   3.200   0.588   7.017
 4087SOL    HW112713   3.231   0.559   7.103
 4087SOL    HW212714   3.235   0.676   7.007
 4088SOL     OW12715   2.678   1.391   6.531
 4088SOL    HW112716   2.766   1.381   6.494
 4088SOL    HW212717   2.620   1.386   6.456
 4089SOL     OW12718   2.792   0.512   6.484
 4089SOL    HW112719   2.767   0.504   6.392
 4089SOL    HW212720   2.817   0.424   6.510
 4090SOL     OW12721   2.406   0.056   6.076
 4090SOL    HW112722   2.332   0.061   6.137
 4090SOL    HW212723   2.401   0.137   6.026
 4091SOL     OW12724   3.289   1.200   5.625
 4091SOL    HW112725   3.319   1.126   5.676
 4091SOL    HW212726   3.204   1.223   5.662
 4092SOL     OW12727   2.193   0.046   5.799
 4092SOL    HW112728   2.198   0.110   5.728
 4092SOL    HW212729   2.273   0.062   5.850
 4093SOL     OW12730   2.807   0.252   6.044
 4093SOL    HW112731   2.782   0.290   5.960
 4093SOL    HW212732   2.902   0.258   6.045
 4094SOL     OW12733   2.941   0.686   7.043
 4094SOL    HW112734   2.873   0.619   7.049
 4094SOL    HW212735   3.023   0.636   7.038
 4095SOL     OW12736   3.081   1.575   6.386
 4095SOL    HW112737   3.096   1.637   6.315
 4095SOL    HW212738   3.157   1.587   6.444
 4096SOL     OW12739   2.338   1.152   6.313
 4096SOL    HW112740   2.271   1.129   6.378
 4096SOL    HW212741   2.294   1.143   6.229
 4097SOL     OW12742   3.127   1.792   6.199
 4097SOL    HW112743   3.176   1.853   6.143
 4097SOL    HW212744   3.063   1.847   6.244
 4098SOL     OW12745   2.883   0.539   5.617
 4098SOL    HW112746   2.839   0.622   5.597
 4098SOL    HW212747   2.947   0.561   5.685
 4099SOL     OW12748   1.947   0.548   6.982
 4099SOL    HW112749   2.038   0.551   6.952
 4099SOL    HW212750   1.938   0.621   7.043
 4100SOL     OW12751   2.423   0.231   6.746
 4100SOL    HW112752   2.447   0.138   6.756
 4100SOL    HW212753   2.334   0.237   6.781
 4101SOL     OW12754   2.732   0.460   6.223
 4101SOL    HW112755   2.686   0.515   6.159
 4101SOL    HW212756   2.754   0.381   6.174
 4102SOL     OW12757   2.859   0.037   6.368
 4102SOL    HW112758   2.819   0.068   6.287
 4102SOL    HW212759   2.871   3.943   6.354
 4103SOL     OW12760   3.303   1.160   6.443
 4103SOL    HW112761   3.231   1.098   6.441
 4103SOL    HW212762   3.330   1.169   6.352
 4104SOL     OW12763   3.325   0.610   6.556
 4104SOL    HW112764   3.269   0.532   6.561
 4104SOL    HW212765   3.384   0.602   6.631
 4105SOL     OW12766   3.721   0.825   5.961
 4105SOL    HW112767   3.761   0.768   6.026
 4105SOL    HW212768   3.684   0.765   5.896
 4106SOL     OW12769   2.357   1.416   5.735
 4106SOL    HW112770   2.286   1.385   5.791
 4106SOL    HW212771   2.347   1.367   5.653
 4107SOL     OW12772   3.531   1.265   6.229
 4107SOL    HW112773   3.626   1.267   6.238
 4107SOL    HW212774   3.503   1.355   6.249
 4108SOL     OW12775   3.257   0.578   5.654
 4108SOL    HW112776   3.193   0.558   5.723
 4108SOL    HW212777   3.342   0.563   5.695
 4109SOL     OW12778   2.387   0.266   5.901
 4109SOL    HW112779   2.445   0.228   5.835
 4109SOL    HW212780   2.358   0.349   5.862
 4110SOL     OW12781   3.612   1.232   7.147
 4110SOL    HW112782   3.700   1.198   7.130
 4110SOL    HW212783   3.627   1.322   7.176
 4111SOL     OW12784   2.918   1.356   6.921
 4111SOL    HW112785   2.843   1.322   6.971
 4111SOL    HW212786   2.994   1.312   6.960
 4112SOL     OW12787   3.467   1.628   7.243
 4112SOL    HW112788   3.459   1.664   7.155
 4112SOL    HW212789   3.547   1.575   7.240
 4113SOL     OW12790   2.998   1.211   6.690
 4113SOL    HW112791   2.935   1.248   6.753
 4113SOL    HW212792   2.969   1.245   6.605
 4114SOL     OW12793   3.487   1.093   6.660
 4114SOL    HW112794   3.477   1.156   6.731
 4114SOL    HW212795   3.412   1.111   6.602
 4115SOL     OW12796   2.773   0.120   6.987
 4115SOL    HW112797   2.793   0.089   6.899
 4115SOL    HW212798   2.854   0.161   7.017
 4116SOL     OW12799   2.847   1.116   7.309
 4116SOL    HW112800   2.756   1.131   7.333
 4116SOL    HW212801   2.845   1.037   7.254
 4117SOL     OW12802   2.572   1.061   5.956
 4117SOL    HW112803   2.557   1.042   6.049
 4117SOL    HW212804   2.647   1.007   5.932
 4118SOL     OW12805   2.285   0.818   6.838
 4118SOL    HW112806   2.353   0.825   6.905
 4118SOL    HW212807   2.250   0.730   6.849
 4119SOL     OW12808   3.128   0.375   6.863
 4119SOL    HW112809   3.161   0.453   6.907
 4119SOL    HW212810   3.040   0.399   6.834
 4120SOL     OW12811   2.198   1.123   6.077
 4120SOL    HW112812   2.199   1.196   6.015
 4120SOL    HW212813   2.199   1.045   6.021
 4121SOL     OW12814   2.415   0.527   6.442
 4121SOL    HW112815   2.427   0.588   6.368
 4121SOL    HW212816   2.480   0.554   6.506
 4122SOL     OW12817   3.111   1.350   5.976
 4122SOL    HW112818   3.166   1.421   6.008
 4122SOL    HW212819   3.023   1.371   6.008
 4123SOL     OW12820   3.151   1.460   6.734
 4123SOL    HW112821   3.207   1.465   6.812
 4123SOL    HW212822   3.099   1.381   6.748
 4124SOL     OW12823   3.431   0.634   6.074
 4124SOL    HW112824   3.388   0.686   6.142
 4124SOL    HW212825   3.478   0.698   6.021
 4125SOL     OW12826   2.224   1.492   6.897
 4125SOL    HW112827   2.212   1.446   6.814
 4125SOL    HW212828   2.317   1.513   6.900
 4126SOL     OW12829   2.281   0.748   7.192
 4126SOL    HW112830   2.343   0.790   7.132
 4126SOL    HW212831   2.320   0.662   7.210
 4127SOL     OW12832   3.468   0.780   7.272
 4127SOL    HW112833   3.383   0.823   7.266
 4127SOL    HW212834   3.521   0.823   7.205
 4128SOL     OW12835   2.868   0.141   7.368
 4128SOL    HW112836   2.926   0.208   7.333
 4128SOL    HW212837   2.855   0.080   7.295
 4129SOL     OW12838   2.353   0.035   7.346
 4129SOL    HW112839   2.352   0.051   7.252
 4129SOL    HW212840   2.292   0.100   7.382
 4130SOL     OW12841   2.446   0.873   6.617
 4130SOL    HW112842   2.480   0.963   6.621
 4130SOL    HW212843   2.390   0.866   6.694
 4131SOL     OW12844   3.209   0.859   6.608
 4131SOL    HW112845   3.124   0.844   6.568
 4131SOL    HW212846   3.255   0.775   6.599
 4132SOL     OW12847   3.060   0.539   5.840
 4132SOL    HW112848   3.068   0.460   5.894
 4132SOL    HW212849   3.017   0.603   5.898
 4133SOL     OW12850   2.159   0.208   6.830
 4133SOL    HW112851   2.116   0.236   6.911
 4133SOL    HW212852   2.149   0.113   6.829
 4134SOL     OW12853   1.951   1.314   6.875
 4134SOL    HW112854   1.953   1.253   6.949
 4134SOL    HW212855   1.873   1.367   6.891
 4135SOL     OW12856   2.583   0.631   6.635
 4135SOL    HW112857   2.659   0.619   6.579
 4135SOL    HW212858   2.553   0.720   6.616
 4136SOL     OW12859   3.593   0.957   7.453
 4136SOL    HW112860   3.553   0.892   7.396
 4136SOL    HW212861   3.528   0.973   7.521
 4137SOL     OW12862   2.186   0.054   6.243
 4137SOL    HW112863   2.165   0.147   6.253
 4137SOL    HW212864   2.158   0.014   6.325
 4138SOL     OW12865   3.476   0.396   5.964
 4138SOL    HW112866   3.433   0.328   6.014
 4138SOL    HW212867   3.455   0.477   6.010
 4139SOL     OW12868   2.893   0.759   6.544
 4139SOL    HW112869   2.883   0.776   6.637
 4139SOL    HW212870   2.865   0.668   6.532
 4140SOL     OW12871   2.836   1.563   7.312
 4140SOL    HW112872   2.815   1.609   7.232
 4140SOL    HW212873   2.885   1.485   7.283
 4141SOL     OW12874   3.702   1.494   7.183
 4141SOL    HW112875   3.727   1.526   7.096
 4141SOL    HW212876   3.782   1.502   7.235
 4142SOL     OW12877   2.228   0.934   7.391
 4142SOL    HW112878   2.305   0.932   7.448
 4142SOL    HW212879   2.245   0.866   7.326
 4143SOL     OW12880   3.359   0.271   5.718
 4143SOL    HW112881   3.287   0.209   5.727
 4143SOL    HW212882   3.369   0.309   5.805
 4144SOL     OW12883   3.148   0.827   5.613
 4144SOL    HW112884   3.190   0.741   5.617
 4144SOL    HW212885   3.180   0.866   5.532
 4145SOL     OW12886   2.930   1.338   6.447
 4145SOL    HW112887   2.934   1.267   6.383
 4145SOL    HW212888   2.987   1.406   6.411
 4146SOL     OW12889   2.170   0.811   6.530
 4146SOL    HW112890   2.264   0.830   6.524
 4146SOL    HW212891   2.165   0.721   6.562
 4147SOL     OW12892   2.198   0.539   6.600
 4147SOL    HW112893   2.156   0.454   6.586
 4147SOL    HW212894   2.274   0.538   6.542
 4148SOL     OW12895   2.995   0.379   7.285
 4148SOL    HW112896   2.946   0.433   7.347
 4148SOL    HW212897   3.082   0.420   7.280
 4149SOL     OW12898   3.014   0.226   7.067
 4149SOL    HW112899   3.004   0.279   7.146
 4149SOL    HW212900   3.041   0.288   7.000
 4150SOL     OW12901   1.878   1.315   5.780
 4150SOL    HW112902   1.790   1.329   5.745
 4150SOL    HW212903   1.876   1.226   5.816
 4151SOL     OW12904   2.835   0.787   6.809
 4151SOL    HW112905   2.893   0.769   6.882
 4151SOL    HW212906   2.751   0.746   6.834
 4152SOL     OW12907   1.894   0.549   6.703
 4152SOL    HW112908   1.968   0.522   6.648
 4152SOL    HW212909   1.929   0.547   6.792
 4153SOL     OW12910   2.067   0.528   7.299
 4153SOL    HW112911   2.137   0.504   7.238
 4153SOL    HW212912   2.024   0.603   7.257
 4154SOL     OW12913   3.243   0.934   7.242
 4154SOL    HW112914   3.264   1.027   7.239
 4154SOL    HW212915   3.238   0.907   7.151
 4155SOL     OW12916   2.679   0.573   5.953
 4155SOL    HW112917   2.686   0.498   5.894
 4155SOL    HW212918   2.604   0.622   5.920
 4156SOL     OW12919   3.500   0.602   6.766
 4156SOL    HW112920   3.489   0.541   6.839
 4156SOL    HW212921   3.586   0.582   6.730
 4157SOL     OW12922   2.577   0.449   6.837
 4157SOL    HW112923   2.523   0.374   6.815
 4157SOL    HW212924   2.565   0.510   6.764
 4158SOL     OW12925   2.780   1.678   7.045
 4158SOL    HW112926   2.779   1.637   6.959
 4158SOL    HW212927   2.800   1.770   7.028
 4159SOL     OW12928   2.322   0.493   5.765
 4159SOL    HW112929   2.381   0.565   5.791
 4159SOL    HW212930   2.237   0.535   5.754
 4160SOL     OW12931   1.999   1.131   7.069
 4160SOL    HW112932   1.999   1.081   7.150
 4160SOL    HW212933   2.019   1.067   7.001
 4161SOL     OW12934   3.181   1.042   6.806
 4161SOL    HW112935   3.203   0.980   6.737
 4161SOL    HW212936   3.116   1.100   6.766
 4162SOL     OW12937   3.177   0.854   5.890
 4162SOL    HW112938   3.102   0.826   5.942
 4162SOL    HW212939   3.149   0.843   5.799
 4163SOL     OW12940   3.646   1.739   6.746
 4163SOL    HW112941   3.701   1.766   6.673
 4163SOL    HW212942   3.614   1.652   6.721
 4164SOL     OW12943   3.104   1.732   6.694
 4164SOL    HW112944   3.186   1.756   6.651
 4164SOL    HW212945   3.114   1.638   6.712
 4165SOL     OW12946   1.950   1.229   6.618
 4165SOL    HW112947   1.947   1.258   6.709
 4165SOL    HW212948   1.866   1.186   6.603
 4166SOL     OW12949   3.548   0.118   6.075
 4166SOL    HW112950   3.629   0.135   6.026
 4166SOL    HW212951   3.553   0.025   6.097
 4167SOL     OW12952   3.253   1.568   6.077
 4167SOL    HW112953   3.312   1.601   6.009
 4167SOL    HW212954   3.204   1.645   6.106
 4168SOL     OW12955   3.139   0.929   6.257
 4168SOL    HW112956   3.214   0.870   6.270
 4168SOL    HW212957   3.173   1.000   6.204
 4169SOL     OW12958   2.670   1.273   7.011
 4169SOL    HW112959   2.640   1.312   7.093
 4169SOL    HW212960   2.600   1.292   6.949
 4170SOL     OW12961   2.541   1.618   5.731
 4170SOL    HW112962   2.552   1.632   5.637
 4170SOL    HW212963   2.483   1.542   5.738
 4171SOL     OW12964   3.479   1.728   6.977
 4171SOL    HW112965   3.536   1.732   6.901
 4171SOL    HW212966   3.465   1.819   7.002
 4172SOL     OW12967   3.705   0.182   6.557
 4172SOL    HW112968   3.729   0.097   6.520
 4172SOL    HW212969   3.619   0.201   6.520
 4173SOL     OW12970   2.124   0.315   6.300
 4173SOL    HW112971   2.038   0.350   6.277
 4173SOL    HW212972   2.123   0.310   6.396
 4174SOL     OW12973   3.069   1.601   5.619
 4174SOL    HW112974   3.059   1.510   5.645
 4174SOL    HW212975   3.004   1.615   5.551
 4175SOL     OW12976   2.685   1.005   6.960
 4175SOL    HW112977   2.730   0.998   6.876
 4175SOL    HW212978   2.684   1.099   6.979
 4176SOL     OW12979   2.779   0.910   5.876
 4176SOL    HW112980   2.839   0.944   5.810
 4176SOL    HW212981   2.828   0.843   5.922
 4177SOL     OW12982   3.349   1.632   5.631
 4177SOL    HW112983   3.255   1.621   5.615
 4177SOL    HW212984   3.387   1.637   5.543
 4178SOL     OW12985   2.214   1.305   7.099
 4178SOL    HW112986   2.213   1.372   7.031
 4178SOL    HW212987   2.144   1.244   7.074
 4179SOL     OW12988   3.460   1.279   6.861
 4179SOL    HW112989   3.530   1.270   6.925
 4179SOL    HW212990   3.404   1.349   6.897
 4180SOL     OW12991   2.922   1.112   6.298
 4180SOL    HW112992   2.850   1.060   6.333
 4180SOL    HW212993   2.986   1.046   6.270
 4181SOL     OW12994   2.877   0.250   6.557
 4181SOL    HW112995   2.868   0.199   6.477
 4181SOL    HW212996   2.876   0.184   6.627
 4182SOL     OW12997   2.501   1.472   6.045
 4182SOL    HW112998   2.538   1.422   5.972
 4182SOL    HW212999   2.434   1.528   6.005
 4183SOL     OW13000   3.583   0.396   6.956
 4183SOL    HW113001   3.656   0.458   6.957
 4183SOL    HW213002   3.614   0.323   6.903
 4184SOL     OW13003   2.132   1.351   5.899
 4184SOL    HW113004   2.040   1.341   5.872
 4184SOL    HW213005   2.135   1.437   5.941
 4185SOL     OW13006   1.972   1.011   7.306
 4185SOL    HW113007   1.897   0.997   7.363
 4185SOL    HW213008   2.047   0.983   7.358
 4186SOL     OW13009   2.558   0.265   7.091
 4186SOL    HW113010   2.623   0.208   7.049
 4186SOL    HW213011   2.584   0.268   7.183
 4187SOL     OW13012   1.965   0.317   5.578
 4187SOL    HW113013   1.898   0.336   5.644
 4187SOL    HW213014   1.970   0.397   5.526
 4188SOL     OW13015   3.285   0.856   6.983
 4188SOL    HW113016   3.235   0.918   6.929
 4188SOL    HW213017   3.373   0.859   6.946
 4189SOL     OW13018   1.942   0.150   5.925
 4189SOL    HW113019   1.910   0.207   5.855
 4189SOL    HW213020   2.029   0.123   5.896
 4190SOL     OW13021   3.041   1.335   5.704
 4190SOL    HW113022   2.951   1.300   5.706
 4190SOL    HW213023   3.068   1.336   5.796
 4191SOL     OW13024   2.484   0.829   7.021
 4191SOL    HW113025   2.542   0.903   7.006
 4191SOL    HW213026   2.543   0.754   7.029
 4192SOL     OW13027   3.344   1.784   6.566
 4192SOL    HW113028   3.366   1.851   6.502
 4192SOL    HW213029   3.429   1.753   6.598
 4193SOL     OW13030   2.581   0.559   7.290
 4193SOL    HW113031   2.625   0.619   7.349
 4193SOL    HW213032   2.602   0.472   7.324
 4194SOL     OW13033   3.335   1.195   7.214
 4194SOL    HW113034   3.325   1.210   7.308
 4194SOL    HW213035   3.428   1.211   7.197
 4195SOL     OW13036   3.524   0.880   6.845
 4195SOL    HW113037   3.524   0.795   6.801
 4195SOL    HW213038   3.517   0.943   6.774
 4196SOL     OW13039   3.081   0.340   6.026
 4196SOL    HW113040   3.150   0.275   6.017
 4196SOL    HW213041   3.099   0.383   6.110
 4197SOL     OW13042   2.449   0.734   6.259
 4197SOL    HW113043   2.489   0.819   6.244
 4197SOL    HW213044   2.384   0.725   6.189
 4198SOL     OW13045   3.614   0.381   7.228
 4198SOL    HW113046   3.594   0.391   7.135
 4198SOL    HW213047   3.553   0.314   7.259
 4199SOL     OW13048   3.617   0.929   7.099
 4199SOL    HW113049   3.607   1.023   7.117
 4199SOL    HW213050   3.591   0.920   7.007
 4200SOL     OW13051   2.725   1.361   5.616
 4200SOL    HW113052   2.696   1.377   5.706
 4200SOL    HW213053   2.741   1.449   5.581
 4201SOL     OW13054   2.732   0.968   6.438
 4201SOL    HW113055   2.783   0.896   6.476
 4201SOL    HW213056   2.695   1.014   6.513
 4202SOL     OW13057   2.940   0.991   5.676
 4202SOL    HW113058   2.917   1.041   5.598
 4202SOL    HW213059   3.013   0.935   5.648
 4203SOL     OW13060   3.711   1.556   6.426
 4203SOL    HW113061   3.631   1.540   6.376
 4203SOL    HW213062   3.712   1.487   6.492
 4204SOL     OW13063   1.935   1.173   6.239
 4204SOL    HW113064   1.960   1.141   6.326
 4204SOL    HW213065   2.014   1.161   6.186
 4205SOL     OW13066   2.541   1.405   7.210
 4205SOL    HW113067   2.461   1.376   7.255
 4205SOL    HW213068   2.540   1.500   7.217
 4206SOL     OW13069   3.674   0.181   6.830
 4206SOL    HW113070   3.676   0.086   6.840
 4206SOL    HW213071   3.694   0.197   6.738
 4207SOL     OW13072   2.290   0.435   6.112
 4207SOL    HW113073   2.325   0.364   6.058
 4207SOL    HW213074   2.242   0.391   6.181
 4208SOL     OW13075   3.556   1.491   6.681
 4208SOL    HW113076   3.479   1.469   6.629
 4208SOL    HW213077   3.564   1.418   6.743
 4209SOL     OW13078   2.197   0.558   6.882
 4209SOL    HW113079   2.248   0.498   6.936
 4209SOL    HW213080   2.215   0.531   6.792
 4210SOL     OW13081   2.711   1.558   6.263
 4210SOL    HW113082   2.669   1.609   6.194
 4210SOL    HW213083   2.648   1.488   6.284
 4211SOL     OW13084   3.322   0.254   6.695
 4211SOL    HW113085   3.337   0.166   6.730
 4211SOL    HW213086   3.267   0.297   6.761
 4212SOL     OW13087   2.864   0.025   6.731
 4212SOL    HW113088   2.780   0.002   6.691
 4212SOL    HW213089   2.910   3.941   6.740
 4213SOL     OW13090   2.658   1.318   5.883
 4213SOL    HW113091   2.624   1.231   5.901
 4213SOL    HW213092   2.730   1.329   5.946
 4214SOL     OW13093   2.489   1.539   6.888
 4214SOL    HW113094   2.500   1.596   6.964
 4214SOL    HW213095   2.576   1.535   6.848
 4215SOL     OW13096   3.168   0.069   5.744
 4215SOL    HW113097   3.172   3.980   5.709
 4215SOL    HW213098   3.086   0.072   5.794
 4216SOL     OW13099   3.140   0.456   6.270
 4216SOL    HW113100   3.094   0.540   6.264
 4216SOL    HW213101   3.143   0.437   6.364
 4217SOL     OW13102   3.453   0.210   6.454
 4217SOL    HW113103   3.405   0.234   6.532
 4217SOL    HW213104   3.451   0.289   6.399
 4218SOL     OW13105   1.910   1.067   5.892
 4218SOL    HW113106   2.004   1.055   5.874
 4218SOL    HW213107   1.880   0.981   5.918
 4219SOL     OW13108   2.745   1.664   5.925
 4219SOL    HW113109   2.678   1.636   5.863
 4219SOL    HW213110   2.710   1.744   5.964
 4220SOL     OW13111   2.086   0.623   7.568
 4220SOL    HW113112   1.997   0.628   7.601
 4220SOL    HW213113   2.076   0.599   7.476
 4221SOL     OW13114   2.078   0.303   8.440
 4221SOL    HW113115   2.115   0.258   8.517
 4221SOL    HW213116   1.993   0.261   8.427
 4222SOL     OW13117   1.870   0.400   8.079
 4222SOL    HW113118   1.784   0.415   8.119
 4222SOL    HW213119   1.855   0.332   8.013
 4223SOL     OW13120   2.431   1.296   8.630
 4223SOL    HW113121   2.345   1.301   8.588
 4223SOL    HW213122   2.448   1.385   8.661
 4224SOL     OW13123   3.430   1.514   8.156
 4224SOL    HW113124   3.387   1.492   8.239
 4224SOL    HW213125   3.359   1.519   8.093
 4225SOL     OW13126   2.995   0.699   8.142
 4225SOL    HW113127   3.043   0.781   8.130
 4225SOL    HW213128   2.947   0.710   8.224
 4226SOL     OW13129   3.626   0.624   7.672
 4226SOL    HW113130   3.606   0.611   7.580
 4226SOL    HW213131   3.605   0.540   7.713
 4227SOL     OW13132   2.610   1.138   8.495
 4227SOL    HW113133   2.543   1.175   8.552
 4227SOL    HW213134   2.649   1.213   8.451
 4228SOL     OW13135   2.736   0.765   9.273
 4228SOL    HW113136   2.722   0.835   9.336
 4228SOL    HW213137   2.757   0.810   9.191
 4229SOL     OW13138   2.548   0.998   8.091
 4229SOL    HW113139   2.614   0.990   8.160
 4229SOL    HW213140   2.480   1.052   8.130
 4230SOL     OW13141   2.576   1.149   9.266
 4230SOL    HW113142   2.623   1.227   9.297
 4230SOL    HW213143   2.496   1.184   9.228
 4231SOL     OW13144   2.194   1.413   8.517
 4231SOL    HW113145   2.118   1.377   8.471
 4231SOL    HW213146   2.237   1.468   8.452
 4232SOL     OW13147   3.320   1.502   8.809
 4232SOL    HW113148   3.375   1.580   8.818
 4232SOL    HW213149   3.253   1.512   8.876
 4233SOL     OW13150   2.309   0.390   8.937
 4233SOL    HW113151   2.401   0.364   8.939
 4233SOL    HW213152   2.260   0.309   8.947
 4234SOL     OW13153   3.472   0.450   8.183
 4234SOL    HW113154   3.406   0.484   8.123
 4234SOL    HW213155   3.490   0.522   8.243
 4235SOL     OW13156   2.100   1.690   7.922
 4235SOL    HW113157   2.135   1.756   7.983
 4235SOL    HW213158   2.160   1.693   7.848
 4236SOL     OW13159   2.999   1.343   9.143
 4236SOL    HW113160   3.041   1.336   9.229
 4236SOL    HW213161   2.947   1.263   9.135
 4237SOL     OW13162   2.094   1.418   7.968
 4237SOL    HW113163   2.088   1.513   7.965
 4237SOL    HW213164   2.036   1.393   8.039
 4238SOL     OW13165   2.129   1.092   8.340
 4238SOL    HW113166   2.123   1.003   8.376
 4238SOL    HW213167   2.070   1.144   8.395
 4239SOL     OW13168   2.466   1.794   8.877
 4239SOL    HW113169   2.387   1.777   8.929
 4239SOL    HW213170   2.491   1.883   8.899
 4240SOL     OW13171   2.444   0.983   7.587
 4240SOL    HW113172   2.493   1.028   7.518
 4240SOL    HW213173   2.482   1.016   7.668
 4241SOL     OW13174   3.446   0.143   8.904
 4241SOL    HW113175   3.474   0.215   8.847
 4241SOL    HW213176   3.404   0.187   8.978
 4242SOL     OW13177   1.983   0.657   8.010
 4242SOL    HW113178   1.954   0.568   8.033
 4242SOL    HW213179   1.974   0.707   8.091
 4243SOL     OW13180   3.703   1.757   7.784
 4243SOL    HW113181   3.774   1.733   7.843
 4243SOL    HW213182   3.720   1.849   7.762
 4244SOL     OW13183   3.552   0.919   8.098
 4244SOL    HW113184   3.635   0.875   8.081
 4244SOL    HW213185   3.534   0.968   8.017
 4245SOL     OW13186   3.505   1.102   7.880
 4245SOL    HW113187   3.590   1.107   7.836
 4245SOL    HW213188   3.511   1.166   7.951
 4246SOL     OW13189   1.985   0.751   9.026
 4246SOL    HW113190   2.074   0.785   9.029
 4246SOL    HW213191   1.929   0.829   9.030
 4247SOL     OW13192   2.480   1.392   8.183
 4247SOL    HW113193   2.436   1.307   8.193
 4247SOL    HW213194   2.459   1.419   8.093
 4248SOL     OW13195   3.147   1.236   8.869
 4248SOL    HW113196   3.179   1.169   8.809
 4248SOL    HW213197   3.207   1.231   8.944
 4249SOL     OW13198   2.684   0.007   7.967
 4249SOL    HW113199   2.729   0.086   7.940
 4249SOL    HW213200   2.591   0.030   7.965
 4250SOL     OW13201   2.050   0.960   8.728
 4250SOL    HW113202   2.136   0.921   8.712
 4250SOL    HW213203   1.992   0.914   8.667
 4251SOL     OW13204   3.389   0.999   7.650
 4251SOL    HW113205   3.320   0.942   7.684
 4251SOL    HW213206   3.432   1.033   7.728
 4252SOL     OW13207   3.045   1.812   9.073
 4252SOL    HW113208   3.053   1.872   8.999
 4252SOL    HW213209   3.064   1.726   9.036
 4253SOL     OW13210   2.223   0.249   9.303
 4253SOL    HW113211   2.268   0.333   9.306
 4253SOL    HW213212   2.130   0.272   9.301
 4254SOL     OW13213   3.328   1.420   8.395
 4254SOL    HW113214   3.262   1.436   8.462
 4254SOL    HW213215   3.317   1.328   8.370
 4255SOL     OW13216   3.512   1.752   8.027
 4255SOL    HW113217   3.498   1.718   7.939
 4255SOL    HW213218   3.495   1.678   8.085
 4256SOL     OW13219   2.456   0.717   7.718
 4256SOL    HW113220   2.461   0.802   7.674
 4256SOL    HW213221   2.392   0.729   7.788
 4257SOL     OW13222   3.136   0.373   8.389
 4257SOL    HW113223   3.049   0.334   8.398
 4257SOL    HW213224   3.194   0.312   8.435
 4258SOL     OW13225   3.439   1.672   7.759
 4258SOL    HW113226   3.530   1.700   7.752
 4258SOL    HW213227   3.412   1.656   7.669
 4259SOL     OW13228   2.657   0.615   8.898
 4259SOL    HW113229   2.630   0.588   8.986
 4259SOL    HW213230   2.622   0.547   8.840
 4260SOL     OW13231   3.254   0.475   9.125
 4260SOL    HW113232   3.261   0.521   9.209
 4260SOL    HW213233   3.309   0.398   9.136
 4261SOL     OW13234   2.812   0.886   9.034
 4261SOL    HW113235   2.867   0.819   8.996
 4261SOL    HW213236   2.763   0.923   8.960
 4262SOL     OW13237   2.857   0.401   8.683
 4262SOL    HW113238   2.770   0.419   8.719
 4262SOL    HW213239   2.839   0.376   8.592
 4263SOL     OW13240   2.915   0.701   7.872
 4263SOL    HW113241   2.933   0.694   7.965
 4263SOL    HW213242   2.832   0.655   7.860
 4264SOL     OW13243   1.949   0.822   8.226
 4264SOL    HW113244   2.029   0.815   8.278
 4264SOL    HW213245   1.904   0.899   8.261
 4265SOL     OW13246   2.757   0.353   7.649
 4265SOL    HW113247   2.800   0.412   7.587
 4265SOL    HW213248   2.745   0.272   7.600
 4266SOL     OW13249   3.566   0.572   9.278
 4266SOL    HW113250   3.531   0.646   9.230
 4266SOL    HW213251   3.593   0.510   9.210
 4267SOL     OW13252   3.240   1.141   7.986
 4267SOL    HW113253   3.320   1.130   7.936
 4267SOL    HW213254   3.189   1.204   7.936
 4268SOL     OW13255   2.422   0.199   8.328
 4268SOL    HW113256   2.424   0.219   8.422
 4268SOL    HW213257   2.417   0.285   8.286
 4269SOL     OW13258   2.859   1.443   7.914
 4269SOL    HW113259   2.831   1.522   7.868
 4269SOL    HW213260   2.839   1.461   8.006
 4270SOL     OW13261   2.233   1.801   8.264
 4270SOL    HW113262   2.258   1.714   8.294
 4270SOL    HW213263   2.293   1.861   8.309
 4271SOL     OW13264   3.669   1.062   8.318
 4271SOL    HW113265   3.617   1.034   8.242
 4271SOL    HW213266   3.606   1.065   8.390
 4272SOL     OW13267   3.088   1.540   8.962
 4272SOL    HW113268   3.077   1.468   9.024
 4272SOL    HW213269   3.022   1.525   8.894
 4273SOL     OW13270   2.181   0.966   7.703
 4273SOL    HW113271   2.264   0.978   7.657
 4273SOL    HW213272   2.150   0.880   7.675
 4274SOL     OW13273   3.343   0.751   8.175
 4274SOL    HW113274   3.339   0.711   8.262
 4274SOL    HW213275   3.421   0.807   8.178
 4275SOL     OW13276   2.333   1.265   9.185
 4275SOL    HW113277   2.307   1.270   9.093
 4275SOL    HW213278   2.251   1.262   9.234
 4276SOL     OW13279   2.990   1.776   7.681
 4276SOL    HW113280   2.911   1.739   7.720
 4276SOL    HW213281   3.013   1.715   7.611
 4277SOL     OW13282   2.028   0.274   8.948
 4277SOL    HW113283   1.978   0.354   8.932
 4277SOL    HW213284   2.030   0.266   9.043
 4278SOL     OW13285   3.486   1.385   7.536
 4278SOL    HW113286   3.442   1.469   7.521
 4278SOL    HW213287   3.419   1.320   7.515
 4279SOL     OW13288   3.299   0.176   7.850
 4279SOL    HW113289   3.247   0.100   7.822
 4279SOL    HW213290   3.374   0.138   7.896
 4280SOL     OW13291   2.170   1.784   8.664
 4280SOL    HW113292   2.204   1.701   8.699
 4280SOL    HW213293   2.121   1.758   8.586
 4281SOL     OW13294   2.800   1.699   8.346
 4281SOL    HW113295   2.880   1.652   8.369
 4281SOL    HW213296   2.761   1.648   8.275
 4282SOL     OW13297   2.258   0.695   7.919
 4282SOL    HW113298   2.275   0.602   7.933
 4282SOL    HW213299   2.166   0.706   7.939
 4283SOL     OW13300   3.391   0.228   9.174
 4283SOL    HW113301   3.381   0.252   9.266
 4283SOL    HW213302   3.379   0.133   9.173
 4284SOL     OW13303   2.507   0.126   7.558
 4284SOL    HW113304   2.525   0.041   7.596
 4284SOL    HW213305   2.444   0.109   7.488
 4285SOL     OW13306   2.634   0.284   9.222
 4285SOL    HW113307   2.713   0.228   9.223
 4285SOL    HW213308   2.580   0.250   9.293
 4286SOL     OW13309   2.737   1.523   8.643
 4286SOL    HW113310   2.720   1.485   8.557
 4286SOL    HW213311   2.807   1.469   8.680
 4287SOL     OW13312   3.200   0.587   8.879
 4287SOL    HW113313   3.231   0.559   8.965
 4287SOL    HW213314   3.235   0.676   8.869
 4288SOL     OW13315   2.681   1.390   8.394
 4288SOL    HW113316   2.766   1.378   8.352
 4288SOL    HW213317   2.618   1.395   8.322
 4289SOL     OW13318   2.793   0.512   8.346
 4289SOL    HW113319   2.767   0.503   8.254
 4289SOL    HW213320   2.817   0.424   8.372
 4290SOL     OW13321   2.406   0.056   7.938
 4290SOL    HW113322   2.332   0.061   7.999
 4290SOL    HW213323   2.401   0.137   7.888
 4291SOL     OW13324   3.289   1.200   7.486
 4291SOL    HW113325   3.320   1.125   7.538
 4291SOL    HW213326   3.205   1.223   7.524
 4292SOL     OW13327   2.193   0.047   7.661
 4292SOL    HW113328   2.198   0.111   7.590
 4292SOL    HW213329   2.273   0.062   7.712
 4293SOL     OW13330   2.807   0.252   7.906
 4293SOL    HW113331   2.782   0.290   7.822
 4293SOL    HW213332   2.902   0.258   7.907
 4294SOL     OW13333   2.941   0.686   8.905
 4294SOL    HW113334   2.872   0.620   8.911
 4294SOL    HW213335   3.023   0.636   8.900
 4295SOL     OW13336   3.081   1.573   8.242
 4295SOL    HW113337   3.096   1.638   8.174
 4295SOL    HW213338   3.151   1.587   8.306
 4296SOL     OW13339   2.337   1.154   8.178
 4296SOL    HW113340   2.270   1.134   8.244
 4296SOL    HW213341   2.294   1.138   8.094
 4297SOL     OW13342   3.126   1.792   8.060
 4297SOL    HW113343   3.175   1.853   8.005
 4297SOL    HW213344   3.059   1.846   8.102
 4298SOL     OW13345   2.883   0.539   7.479
 4298SOL    HW113346   2.840   0.622   7.460
 4298SOL    HW213347   2.947   0.560   7.547
 4299SOL     OW13348   1.947   0.548   8.845
 4299SOL    HW113349   2.038   0.552   8.815
 4299SOL    HW213350   1.939   0.621   8.907
 4300SOL     OW13351   2.423   0.231   8.608
 4300SOL    HW113352   2.446   0.138   8.618
 4300SOL    HW213353   2.334   0.237   8.642
 4301SOL     OW13354   2.732   0.460   8.085
 4301SOL    HW113355   2.686   0.515   8.021
 4301SOL    HW213356   2.754   0.381   8.036
 4302SOL     OW13357   2.859   0.037   8.230
 4302SOL    HW113358   2.819   0.068   8.149
 4302SOL    HW213359   2.871   3.943   8.216
 4303SOL     OW13360   3.304   1.160   8.306
 4303SOL    HW113361   3.231   1.097   8.304
 4303SOL    HW213362   3.330   1.169   8.214
 4304SOL     OW13363   3.325   0.610   8.418
 4304SOL    HW113364   3.269   0.532   8.423
 4304SOL    HW213365   3.384   0.602   8.493
 4305SOL     OW13366   3.721   0.825   7.823
 4305SOL    HW113367   3.761   0.768   7.888
 4305SOL    HW213368   3.684   0.765   7.758
 4306SOL     OW13369   3.531   1.266   8.090
 4306SOL    HW113370   3.626   1.268   8.100
 4306SOL    HW213371   3.503   1.355   8.111
 4307SOL     OW13372   3.257   0.578   7.516
 4307SOL    HW113373   3.193   0.558   7.585
 4307SOL    HW213374   3.342   0.563   7.557
 4308SOL     OW13375   2.388   0.266   7.763
 4308SOL    HW113376   2.445   0.228   7.697
 4308SOL    HW213377   2.358   0.349   7.724
 4309SOL     OW13378   3.612   1.232   9.009
 4309SOL    HW113379   3.700   1.198   8.991
 4309SOL    HW213380   3.627   1.322   9.038
 4310SOL     OW13381   2.916   1.354   8.780
 4310SOL    HW113382   2.841   1.322   8.830
 4310SOL    HW213383   2.992   1.312   8.822
 4311SOL     OW13384   3.468   1.629   9.106
 4311SOL    HW113385   3.459   1.664   9.017
 4311SOL    HW213386   3.547   1.576   9.103
 4312SOL     OW13387   2.996   1.210   8.550
 4312SOL    HW113388   2.936   1.248   8.615
 4312SOL    HW213389   2.967   1.245   8.466
 4313SOL     OW13390   3.487   1.094   8.522
 4313SOL    HW113391   3.477   1.156   8.594
 4313SOL    HW213392   3.413   1.111   8.464
 4314SOL     OW13393   2.773   0.120   8.849
 4314SOL    HW113394   2.793   0.089   8.760
 4314SOL    HW213395   2.854   0.161   8.879
 4315SOL     OW13396   2.846   1.116   9.172
 4315SOL    HW113397   2.755   1.132   9.196
 4315SOL    HW213398   2.842   1.037   9.117
 4316SOL     OW13399   2.573   1.067   7.818
 4316SOL    HW113400   2.557   1.046   7.910
 4316SOL    HW213401   2.648   1.012   7.793
 4317SOL     OW13402   2.284   0.818   8.700
 4317SOL    HW113403   2.353   0.826   8.766
 4317SOL    HW213404   2.249   0.729   8.713
 4318SOL     OW13405   3.128   0.375   8.725
 4318SOL    HW113406   3.161   0.453   8.769
 4318SOL    HW213407   3.040   0.399   8.696
 4319SOL     OW13408   1.940   1.577   8.803
 4319SOL    HW113409   1.908   1.636   8.735
 4319SOL    HW213410   2.034   1.572   8.788
 4320SOL     OW13411   2.206   1.115   7.943
 4320SOL    HW113412   2.194   1.198   7.896
 4320SOL    HW213413   2.201   1.048   7.874
 4321SOL     OW13414   2.415   0.528   8.303
 4321SOL    HW113415   2.427   0.588   8.230
 4321SOL    HW213416   2.480   0.555   8.368
 4322SOL     OW13417   3.108   1.350   7.838
 4322SOL    HW113418   3.164   1.421   7.870
 4322SOL    HW213419   3.021   1.371   7.871
 4323SOL     OW13420   3.151   1.461   8.597
 4323SOL    HW113421   3.206   1.466   8.674
 4323SOL    HW213422   3.096   1.384   8.611
 4324SOL     OW13423   3.430   0.634   7.936
 4324SOL    HW113424   3.388   0.686   8.004
 4324SOL    HW213425   3.478   0.698   7.883
 4325SOL     OW13426   2.211   1.525   8.759
 4325SOL    HW113427   2.198   1.479   8.676
 4325SOL    HW213428   2.306   1.533   8.768
 4326SOL     OW13429   2.283   0.745   9.052
 4326SOL    HW113430   2.343   0.789   8.993
 4326SOL    HW213431   2.324   0.661   9.070
 4327SOL     OW13432   3.469   0.780   9.134
 4327SOL    HW113433   3.383   0.823   9.128
 4327SOL    HW213434   3.522   0.823   9.067
 4328SOL     OW13435   2.868   0.140   9.230
 4328SOL    HW113436   2.926   0.209   9.195
 4328SOL    HW213437   2.855   0.080   9.156
 4329SOL     OW13438   2.353   0.035   9.208
 4329SOL    HW113439   2.352   0.051   9.114
 4329SOL    HW213440   2.292   0.100   9.244
 4330SOL     OW13441   2.447   0.875   8.480
 4330SOL    HW113442   2.478   0.965   8.483
 4330SOL    HW213443   2.389   0.867   8.556
 4331SOL     OW13444   3.209   0.859   8.469
 4331SOL    HW113445   3.123   0.844   8.431
 4331SOL    HW213446   3.255   0.775   8.461
 4332SOL     OW13447   3.059   0.539   7.702
 4332SOL    HW113448   3.067   0.460   7.756
 4332SOL    HW213449   3.017   0.603   7.760
 4333SOL     OW13450   2.159   0.208   8.691
 4333SOL    HW113451   2.116   0.236   8.772
 4333SOL    HW213452   2.149   0.113   8.691
 4334SOL     OW13453   1.907   1.312   8.725
 4334SOL    HW113454   1.940   1.256   8.795
 4334SOL    HW213455   1.913   1.401   8.761
 4335SOL     OW13456   2.582   0.631   8.497
 4335SOL    HW113457   2.659   0.620   8.441
 4335SOL    HW213458   2.552   0.720   8.480
 4336SOL     OW13459   3.594   0.957   9.315
 4336SOL    HW113460   3.553   0.892   9.258
 4336SOL    HW213461   3.528   0.973   9.383
 4337SOL     OW13462   2.186   0.054   8.105
 4337SOL    HW113463   2.165   0.147   8.115
 4337SOL    HW213464   2.158   0.014   8.187
 4338SOL     OW13465   3.476   0.396   7.826
 4338SOL    HW113466   3.433   0.328   7.876
 4338SOL    HW213467   3.454   0.477   7.872
 4339SOL     OW13468   2.893   0.759   8.405
 4339SOL    HW113469   2.883   0.776   8.499
 4339SOL    HW213470   2.865   0.668   8.394
 4340SOL     OW13471   2.843   1.567   9.170
 4340SOL    HW113472   2.827   1.610   9.086
 4340SOL    HW213473   2.886   1.485   9.146
 4341SOL     OW13474   3.703   1.494   9.045
 4341SOL    HW113475   3.727   1.526   8.958
 4341SOL    HW213476   3.783   1.502   9.097
 4342SOL     OW13477   2.213   0.915   9.258
 4342SOL    HW113478   2.294   0.936   9.305
 4342SOL    HW213479   2.240   0.853   9.190
 4343SOL     OW13480   3.359   0.271   7.580
 4343SOL    HW113481   3.287   0.209   7.589
 4343SOL    HW213482   3.369   0.309   7.667
 4344SOL     OW13483   3.147   0.827   7.475
 4344SOL    HW113484   3.190   0.741   7.479
 4344SOL    HW213485   3.180   0.866   7.394
 4345SOL     OW13486   2.931   1.339   8.305
 4345SOL    HW113487   2.936   1.267   8.242
 4345SOL    HW213488   2.989   1.406   8.269
 4346SOL     OW13489   2.169   0.811   8.394
 4346SOL    HW113490   2.263   0.831   8.387
 4346SOL    HW213491   2.167   0.720   8.426
 4347SOL     OW13492   2.199   0.538   8.463
 4347SOL    HW113493   2.156   0.453   8.448
 4347SOL    HW213494   2.274   0.538   8.404
 4348SOL     OW13495   2.995   0.379   9.147
 4348SOL    HW113496   2.946   0.433   9.209
 4348SOL    HW213497   3.081   0.420   9.143
 4349SOL     OW13498   3.014   0.226   8.929
 4349SOL    HW113499   3.004   0.279   9.008
 4349SOL    HW213500   3.041   0.288   8.862
 4350SOL     OW13501   1.989   1.724   8.446
 4350SOL    HW113502   1.951   1.659   8.386
 4350SOL    HW213503   2.013   1.798   8.389
 4351SOL     OW13504   2.357   1.571   8.359
 4351SOL    HW113505   2.423   1.636   8.381
 4351SOL    HW213506   2.403   1.510   8.301
 4352SOL     OW13507   2.836   0.786   8.670
 4352SOL    HW113508   2.894   0.769   8.744
 4352SOL    HW213509   2.751   0.749   8.697
 4353SOL     OW13510   1.895   0.549   8.565
 4353SOL    HW113511   1.969   0.524   8.510
 4353SOL    HW213512   1.930   0.547   8.654
 4354SOL     OW13513   2.066   0.528   9.159
 4354SOL    HW113514   2.139   0.507   9.101
 4354SOL    HW213515   2.024   0.604   9.119
 4355SOL     OW13516   3.243   0.934   9.104
 4355SOL    HW113517   3.264   1.027   9.101
 4355SOL    HW213518   3.238   0.907   9.013
 4356SOL     OW13519   2.680   0.572   7.815
 4356SOL    HW113520   2.687   0.497   7.756
 4356SOL    HW213521   2.604   0.622   7.782
 4357SOL     OW13522   3.500   0.602   8.628
 4357SOL    HW113523   3.489   0.542   8.701
 4357SOL    HW213524   3.586   0.582   8.592
 4358SOL     OW13525   2.113   1.535   9.153
 4358SOL    HW113526   2.092   1.604   9.216
 4358SOL    HW213527   2.119   1.455   9.205
 4359SOL     OW13528   2.577   0.450   8.699
 4359SOL    HW113529   2.523   0.374   8.677
 4359SOL    HW213530   2.564   0.510   8.626
 4360SOL     OW13531   2.783   1.679   8.919
 4360SOL    HW113532   2.760   1.640   8.835
 4360SOL    HW213533   2.778   1.773   8.904
 4361SOL     OW13534   2.322   0.493   7.627
 4361SOL    HW113535   2.380   0.564   7.653
 4361SOL    HW213536   2.237   0.536   7.616
 4362SOL     OW13537   2.003   1.142   8.922
 4362SOL    HW113538   2.005   1.095   9.005
 4362SOL    HW213539   2.020   1.075   8.856
 4363SOL     OW13540   3.181   1.043   8.668
 4363SOL    HW113541   3.203   0.980   8.599
 4363SOL    HW213542   3.115   1.100   8.628
 4364SOL     OW13543   3.177   0.854   7.752
 4364SOL    HW113544   3.102   0.826   7.804
 4364SOL    HW213545   3.149   0.843   7.661
 4365SOL     OW13546   3.646   1.739   8.608
 4365SOL    HW113547   3.701   1.766   8.535
 4365SOL    HW213548   3.614   1.652   8.583
 4366SOL     OW13549   3.101   1.733   8.553
 4366SOL    HW113550   3.184   1.757   8.512
 4366SOL    HW213551   3.112   1.640   8.574
 4367SOL     OW13552   1.950   1.262   8.461
 4367SOL    HW113553   1.931   1.280   8.554
 4367SOL    HW213554   1.876   1.210   8.431
 4368SOL     OW13555   2.540   1.671   9.183
 4368SOL    HW113556   2.485   1.750   9.180
 4368SOL    HW213557   2.609   1.688   9.118
 4369SOL     OW13558   3.548   0.118   7.937
 4369SOL    HW113559   3.629   0.135   7.888
 4369SOL    HW213560   3.553   0.025   7.959
 4370SOL     OW13561   3.253   1.567   7.938
 4370SOL    HW113562   3.312   1.601   7.871
 4370SOL    HW213563   3.203   1.644   7.967
 4371SOL     OW13564   2.029   1.735   9.308
 4371SOL    HW113565   1.966   1.697   9.369
 4371SOL    HW213566   2.002   1.827   9.300
 4372SOL     OW13567   3.139   0.929   8.119
 4372SOL    HW113568   3.214   0.870   8.131
 4372SOL    HW213569   3.173   1.000   8.065
 4373SOL     OW13570   2.667   1.276   8.872
 4373SOL    HW113571   2.640   1.317   8.954
 4373SOL    HW213572   2.596   1.295   8.811
 4374SOL     OW13573   3.479   1.728   8.840
 4374SOL    HW113574   3.536   1.732   8.763
 4374SOL    HW213575   3.465   1.819   8.864
 4375SOL     OW13576   3.705   0.182   8.419
 4375SOL    HW113577   3.729   0.097   8.382
 4375SOL    HW213578   3.619   0.201   8.382
 4376SOL     OW13579   2.124   0.315   8.162
 4376SOL    HW113580   2.038   0.349   8.139
 4376SOL    HW213581   2.123   0.310   8.258
 4377SOL     OW13582   3.069   1.603   7.481
 4377SOL    HW113583   3.058   1.511   7.506
 4377SOL    HW213584   3.003   1.617   7.414
 4378SOL     OW13585   2.686   1.007   8.822
 4378SOL    HW113586   2.727   1.002   8.736
 4378SOL    HW213587   2.682   1.100   8.842
 4379SOL     OW13588   2.777   0.912   7.738
 4379SOL    HW113589   2.839   0.944   7.672
 4379SOL    HW213590   2.826   0.844   7.784
 4380SOL     OW13591   3.349   1.631   7.492
 4380SOL    HW113592   3.255   1.621   7.477
 4380SOL    HW213593   3.387   1.636   7.405
 4381SOL     OW13594   2.232   1.300   8.939
 4381SOL    HW113595   2.217   1.379   8.887
 4381SOL    HW213596   2.153   1.247   8.925
 4382SOL     OW13597   3.460   1.280   8.724
 4382SOL    HW113598   3.529   1.270   8.789
 4382SOL    HW213599   3.403   1.349   8.759
 4383SOL     OW13600   2.922   1.111   8.158
 4383SOL    HW113601   2.850   1.060   8.195
 4383SOL    HW213602   2.986   1.045   8.132
 4384SOL     OW13603   2.877   0.250   8.419
 4384SOL    HW113604   2.868   0.199   8.338
 4384SOL    HW213605   2.876   0.185   8.489
 4385SOL     OW13606   2.459   1.487   7.924
 4385SOL    HW113607   2.518   1.437   7.868
 4385SOL    HW213608   2.375   1.486   7.878
 4386SOL     OW13609   3.583   0.396   8.818
 4386SOL    HW113610   3.656   0.458   8.819
 4386SOL    HW213611   3.614   0.323   8.765
 4387SOL     OW13612   1.976   1.032   9.173
 4387SOL    HW113613   1.900   1.005   9.223
 4387SOL    HW213614   2.050   0.989   9.215
 4388SOL     OW13615   2.558   0.264   8.953
 4388SOL    HW113616   2.623   0.207   8.911
 4388SOL    HW213617   2.584   0.267   9.045
 4389SOL     OW13618   1.965   0.317   7.441
 4389SOL    HW113619   1.898   0.335   7.506
 4389SOL    HW213620   1.970   0.397   7.388
 4390SOL     OW13621   3.284   0.856   8.844
 4390SOL    HW113622   3.234   0.918   8.791
 4390SOL    HW213623   3.373   0.859   8.808
 4391SOL     OW13624   1.942   0.150   7.787
 4391SOL    HW113625   1.910   0.207   7.717
 4391SOL    HW213626   2.029   0.123   7.758
 4392SOL     OW13627   3.042   1.334   7.566
 4392SOL    HW113628   2.954   1.297   7.569
 4392SOL    HW213629   3.069   1.338   7.658
 4393SOL     OW13630   2.485   0.828   8.882
 4393SOL    HW113631   2.541   0.904   8.868
 4393SOL    HW213632   2.545   0.754   8.891
 4394SOL     OW13633   3.344   1.786   8.429
 4394SOL    HW113634   3.367   1.852   8.364
 4394SOL    HW213635   3.428   1.753   8.461
 4395SOL     OW13636   2.580   0.559   9.151
 4395SOL    HW113637   2.624   0.620   9.210
 4395SOL    HW213638   2.602   0.473   9.186
 4396SOL     OW13639   3.335   1.194   9.076
 4396SOL    HW113640   3.325   1.210   9.170
 4396SOL    HW213641   3.428   1.211   9.060
 4397SOL     OW13642   2.233   1.748   9.020
 4397SOL    HW113643   2.160   1.758   8.959
 4397SOL    HW213644   2.216   1.665   9.065
 4398SOL     OW13645   3.524   0.880   8.707
 4398SOL    HW113646   3.524   0.795   8.663
 4398SOL    HW213647   3.517   0.944   8.636
 4399SOL     OW13648   3.081   0.340   7.888
 4399SOL    HW113649   3.151   0.275   7.879
 4399SOL    HW213650   3.099   0.384   7.972
 4400SOL     OW13651   2.450   0.734   8.120
 4400SOL    HW113652   2.489   0.821   8.106
 4400SOL    HW213653   2.384   0.726   8.051
 4401SOL     OW13654   3.615   0.381   9.090
 4401SOL    HW113655   3.594   0.391   8.997
 4401SOL    HW213656   3.553   0.314   9.121
 4402SOL     OW13657   3.617   0.930   8.960
 4402SOL    HW113658   3.606   1.023   8.979
 4402SOL    HW213659   3.591   0.920   8.869
 4403SOL     OW13660   2.721   1.365   7.487
 4403SOL    HW113661   2.694   1.398   7.572
 4403SOL    HW213662   2.744   1.444   7.437
 4404SOL     OW13663   2.525   1.790   8.385
 4404SOL    HW113664   2.513   1.882   8.360
 4404SOL    HW213665   2.620   1.777   8.380
 4405SOL     OW13666   2.732   0.971   8.301
 4405SOL    HW113667   2.782   0.899   8.339
 4405SOL    HW213668   2.692   1.015   8.377
 4406SOL     OW13669   2.940   0.991   7.537
 4406SOL    HW113670   2.918   1.041   7.459
 4406SOL    HW213671   3.013   0.936   7.511
 4407SOL     OW13672   3.711   1.556   8.289
 4407SOL    HW113673   3.631   1.540   8.238
 4407SOL    HW213674   3.712   1.488   8.355
 4408SOL     OW13675   2.091   1.298   9.302
 4408SOL    HW113676   2.025   1.234   9.274
 4408SOL    HW213677   2.075   1.310   9.395
 4409SOL     OW13678   1.945   1.226   8.117
 4409SOL    HW113679   1.962   1.182   8.200
 4409SOL    HW213680   2.008   1.188   8.056
 4410SOL     OW13681   2.546   1.408   9.078
 4410SOL    HW113682   2.468   1.364   9.112
 4410SOL    HW213683   2.543   1.496   9.115
 4411SOL     OW13684   3.675   0.181   8.692
 4411SOL    HW113685   3.676   0.086   8.702
 4411SOL    HW213686   3.694   0.197   8.600
 4412SOL     OW13687   2.290   0.435   7.973
 4412SOL    HW113688   2.325   0.363   7.920
 4412SOL    HW213689   2.242   0.391   8.043
 4413SOL     OW13690   3.556   1.491   8.543
 4413SOL    HW113691   3.479   1.469   8.491
 4413SOL    HW213692   3.563   1.418   8.606
 4414SOL     OW13693   2.196   0.558   8.744
 4414SOL    HW113694   2.248   0.497   8.798
 4414SOL    HW213695   2.215   0.531   8.654
 4415SOL     OW13696   2.694   1.579   8.124
 4415SOL    HW113697   2.669   1.647   8.061
 4415SOL    HW213698   2.618   1.520   8.127
 4416SOL     OW13699   3.322   0.254   8.557
 4416SOL    HW113700   3.336   0.166   8.593
 4416SOL    HW213701   3.267   0.298   8.623
 4417SOL     OW13702   2.864   0.025   8.593
 4417SOL    HW113703   2.780   0.002   8.553
 4417SOL    HW213704   2.910   3.941   8.602
 4418SOL     OW13705   2.632   1.339   7.769
 4418SOL    HW113706   2.607   1.247   7.775
 4418SOL    HW213707   2.715   1.345   7.816
 4419SOL     OW13708   2.483   1.556   8.736
 4419SOL    HW113709   2.483   1.639   8.785
 4419SOL    HW213710   2.571   1.549   8.700
 4420SOL     OW13711   3.168   0.069   7.606
 4420SOL    HW113712   3.172   3.980   7.570
 4420SOL    HW213713   3.086   0.072   7.655
 4421SOL     OW13714   3.140   0.456   8.132
 4421SOL    HW113715   3.094   0.540   8.126
 4421SOL    HW213716   3.143   0.437   8.225
 4422SOL     OW13717   3.453   0.210   8.316
 4422SOL    HW113718   3.405   0.234   8.394
 4422SOL    HW213719   3.451   0.289   8.261
 4423SOL     OW13720   1.901   1.073   7.770
 4423SOL    HW113721   1.990   1.070   7.734
 4423SOL    HW213722   1.882   0.981   7.791
 4424SOL     OW13723   2.750   1.665   7.793
 4424SOL    HW113724   2.668   1.657   7.744
 4424SOL    HW213725   2.733   1.736   7.855
 4425SOL     OW13726   2.085   0.618   9.431
 4425SOL    HW113727   1.995   0.628   9.462
 4425SOL    HW213728   2.076   0.599   9.338
 4426SOL     OW13729   2.078   0.303  10.302
 4426SOL    HW113730   2.115   0.258  10.379
 4426SOL    HW213731   1.993   0.261  10.289
 4427SOL     OW13732   1.870   0.400   9.941
 4427SOL    HW113733   1.785   0.415   9.981
 4427SOL    HW213734   1.855   0.332   9.875
 4428SOL     OW13735   2.432   1.295  10.491
 4428SOL    HW113736   2.346   1.301  10.449
 4428SOL    HW213737   2.449   1.384  10.522
 4429SOL     OW13738   3.430   1.514  10.018
 4429SOL    HW113739   3.387   1.492  10.101
 4429SOL    HW213740   3.359   1.519   9.955
 4430SOL     OW13741   2.995   0.699  10.004
 4430SOL    HW113742   3.043   0.781   9.992
 4430SOL    HW213743   2.947   0.710  10.086
 4431SOL     OW13744   3.627   0.624   9.534
 4431SOL    HW113745   3.607   0.611   9.442
 4431SOL    HW213746   3.604   0.541   9.575
 4432SOL     OW13747   2.610   1.138  10.357
 4432SOL    HW113748   2.543   1.175  10.414
 4432SOL    HW213749   2.649   1.213  10.313
 4433SOL     OW13750   2.736   0.765  11.135
 4433SOL    HW113751   2.722   0.835  11.198
 4433SOL    HW213752   2.757   0.810  11.053
 4434SOL     OW13753   2.548   0.997   9.954
 4434SOL    HW113754   2.614   0.990  10.023
 4434SOL    HW213755   2.479   1.052   9.992
 4435SOL     OW13756   2.576   1.149  11.128
 4435SOL    HW113757   2.624   1.227  11.159
 4435SOL    HW213758   2.496   1.184  11.090
 4436SOL     OW13759   2.195   1.412  10.378
 4436SOL    HW113760   2.118   1.378  10.332
 4436SOL    HW213761   2.239   1.468  10.314
 4437SOL     OW13762   3.320   1.502  10.671
 4437SOL    HW113763   3.375   1.580  10.680
 4437SOL    HW213764   3.253   1.512  10.738
 4438SOL     OW13765   2.309   0.390  10.800
 4438SOL    HW113766   2.401   0.364  10.801
 4438SOL    HW213767   2.261   0.308  10.809
 4439SOL     OW13768   3.472   0.450  10.045
 4439SOL    HW113769   3.405   0.484   9.985
 4439SOL    HW213770   3.489   0.522  10.105
 4440SOL     OW13771   2.090   1.690   9.765
 4440SOL    HW113772   2.098   1.763   9.826
 4440SOL    HW213773   2.173   1.691   9.716
 4441SOL     OW13774   2.999   1.343  11.005
 4441SOL    HW113775   3.041   1.336  11.091
 4441SOL    HW213776   2.947   1.263  10.997
 4442SOL     OW13777   2.092   1.430   9.845
 4442SOL    HW113778   2.083   1.525   9.835
 4442SOL    HW213779   2.032   1.408   9.917
 4443SOL     OW13780   2.127   1.091  10.200
 4443SOL    HW113781   2.123   1.003  10.238
 4443SOL    HW213782   2.070   1.144  10.256
 4444SOL     OW13783   2.469   1.792  10.740
 4444SOL    HW113784   2.389   1.776  10.791
 4444SOL    HW213785   2.494   1.881  10.765
 4445SOL     OW13786   2.441   0.985   9.449
 4445SOL    HW113787   2.490   1.030   9.380
 4445SOL    HW213788   2.480   1.017   9.531
 4446SOL     OW13789   3.446   0.143  10.766
 4446SOL    HW113790   3.474   0.215  10.709
 4446SOL    HW213791   3.404   0.187  10.840
 4447SOL     OW13792   1.981   0.659   9.871
 4447SOL    HW113793   1.953   0.570   9.894
 4447SOL    HW213794   1.973   0.708   9.953
 4448SOL     OW13795   3.703   1.757   9.645
 4448SOL    HW113796   3.774   1.733   9.705
 4448SOL    HW213797   3.720   1.849   9.624
 4449SOL     OW13798   1.862   1.611   9.487
 4449SOL    HW113799   1.848   1.519   9.464
 4449SOL    HW213800   1.908   1.608   9.571
 4450SOL     OW13801   3.552   0.919   9.960
 4450SOL    HW113802   3.635   0.875   9.943
 4450SOL    HW213803   3.534   0.968   9.880
 4451SOL     OW13804   3.505   1.102   9.743
 4451SOL    HW113805   3.590   1.107   9.698
 4451SOL    HW213806   3.511   1.166   9.813
 4452SOL     OW13807   1.985   0.751  10.888
 4452SOL    HW113808   2.074   0.785  10.891
 4452SOL    HW213809   1.929   0.829  10.892
 4453SOL     OW13810   2.479   1.390  10.044
 4453SOL    HW113811   2.433   1.307  10.053
 4453SOL    HW213812   2.461   1.418   9.955
 4454SOL     OW13813   3.147   1.236  10.731
 4454SOL    HW113814   3.178   1.169  10.671
 4454SOL    HW213815   3.207   1.231  10.806
 4455SOL     OW13816   2.684   0.007   9.829
 4455SOL    HW113817   2.729   0.086   9.801
 4455SOL    HW213818   2.591   0.030   9.827
 4456SOL     OW13819   2.050   0.960  10.590
 4456SOL    HW113820   2.136   0.921  10.574
 4456SOL    HW213821   1.992   0.914  10.529
 4457SOL     OW13822   3.389   0.999   9.512
 4457SOL    HW113823   3.320   0.941   9.545
 4457SOL    HW213824   3.432   1.033   9.590
 4458SOL     OW13825   3.046   1.812  10.935
 4458SOL    HW113826   3.052   1.872  10.861
 4458SOL    HW213827   3.064   1.726  10.898
 4459SOL     OW13828   2.223   0.249  11.166
 4459SOL    HW113829   2.268   0.333  11.168
 4459SOL    HW213830   2.130   0.272  11.163
 4460SOL     OW13831   3.329   1.420  10.257
 4460SOL    HW113832   3.262   1.436  10.324
 4460SOL    HW213833   3.317   1.328  10.232
 4461SOL     OW13834   3.512   1.752   9.889
 4461SOL    HW113835   3.497   1.718   9.801
 4461SOL    HW213836   3.495   1.678   9.947
 4462SOL     OW13837   2.456   0.718   9.580
 4462SOL    HW113838   2.460   0.802   9.535
 4462SOL    HW213839   2.392   0.731   9.650
 4463SOL     OW13840   3.136   0.373  10.251
 4463SOL    HW113841   3.049   0.334  10.260
 4463SOL    HW213842   3.194   0.311  10.297
 4464SOL     OW13843   3.439   1.672   9.621
 4464SOL    HW113844   3.530   1.700   9.614
 4464SOL    HW213845   3.411   1.657   9.531
 4465SOL     OW13846   2.658   0.615  10.760
 4465SOL    HW113847   2.630   0.588  10.848
 4465SOL    HW213848   2.622   0.547  10.702
 4466SOL     OW13849   3.254   0.475  10.987
 4466SOL    HW113850   3.261   0.521  11.071
 4466SOL    HW213851   3.309   0.398  10.998
 4467SOL     OW13852   2.812   0.886  10.896
 4467SOL    HW113853   2.867   0.819  10.858
 4467SOL    HW213854   2.763   0.923  10.822
 4468SOL     OW13855   2.857   0.401  10.545
 4468SOL    HW113856   2.770   0.419  10.581
 4468SOL    HW213857   2.839   0.376  10.454
 4469SOL     OW13858   2.915   0.700   9.734
 4469SOL    HW113859   2.933   0.694   9.828
 4469SOL    HW213860   2.832   0.655   9.722
 4470SOL     OW13861   1.949   0.823  10.088
 4470SOL    HW113862   2.029   0.816  10.139
 4470SOL    HW213863   1.904   0.900  10.124
 4471SOL     OW13864   2.757   0.353   9.511
 4471SOL    HW113865   2.800   0.413   9.449
 4471SOL    HW213866   2.746   0.272   9.461
 4472SOL     OW13867   3.566   0.572  11.140
 4472SOL    HW113868   3.531   0.647  11.092
 4472SOL    HW213869   3.593   0.510  11.072
 4473SOL     OW13870   3.240   1.141   9.849
 4473SOL    HW113871   3.320   1.130   9.798
 4473SOL    HW213872   3.188   1.204   9.799
 4474SOL     OW13873   2.422   0.199  10.190
 4474SOL    HW113874   2.424   0.219  10.284
 4474SOL    HW213875   2.417   0.285  10.148
 4475SOL     OW13876   2.862   1.444   9.778
 4475SOL    HW113877   2.830   1.519   9.728
 4475SOL    HW213878   2.838   1.464   9.869
 4476SOL     OW13879   2.230   1.802  10.135
 4476SOL    HW113880   2.258   1.714  10.162
 4476SOL    HW213881   2.294   1.861  10.173
 4477SOL     OW13882   3.669   1.062  10.179
 4477SOL    HW113883   3.617   1.034  10.104
 4477SOL    HW213884   3.606   1.065  10.252
 4478SOL     OW13885   3.088   1.540  10.824
 4478SOL    HW113886   3.076   1.468  10.885
 4478SOL    HW213887   3.022   1.525  10.756
 4479SOL     OW13888   2.177   0.962   9.564
 4479SOL    HW113889   2.260   0.981   9.520
 4479SOL    HW213890   2.149   0.878   9.527
 4480SOL     OW13891   3.343   0.751  10.037
 4480SOL    HW113892   3.339   0.710  10.124
 4480SOL    HW213893   3.421   0.807  10.040
 4481SOL     OW13894   2.334   1.265  11.049
 4481SOL    HW113895   2.307   1.268  10.957
 4481SOL    HW213896   2.251   1.262  11.097
 4482SOL     OW13897   2.987   1.778   9.539
 4482SOL    HW113898   2.911   1.739   9.582
 4482SOL    HW213899   3.011   1.715   9.472
 4483SOL     OW13900   2.028   0.274  10.810
 4483SOL    HW113901   1.978   0.354  10.794
 4483SOL    HW213902   2.030   0.266  10.906
 4484SOL     OW13903   3.486   1.385   9.397
 4484SOL    HW113904   3.442   1.469   9.383
 4484SOL    HW213905   3.419   1.320   9.377
 4485SOL     OW13906   2.342   1.708   9.657
 4485SOL    HW113907   2.375   1.786   9.702
 4485SOL    HW213908   2.396   1.701   9.578
 4486SOL     OW13909   3.299   0.176   9.712
 4486SOL    HW113910   3.247   0.101   9.683
 4486SOL    HW213911   3.374   0.138   9.758
 4487SOL     OW13912   2.160   1.766  10.527
 4487SOL    HW113913   2.199   1.683  10.555
 4487SOL    HW213914   2.115   1.744  10.446
 4488SOL     OW13915   2.799   1.700  10.205
 4488SOL    HW113916   2.879   1.651  10.227
 4488SOL    HW213917   2.759   1.649  10.135
 4489SOL     OW13918   2.258   0.695   9.782
 4489SOL    HW113919   2.275   0.602   9.796
 4489SOL    HW213920   2.165   0.706   9.801
 4490SOL     OW13921   3.391   0.228  11.036
 4490SOL    HW113922   3.381   0.252  11.128
 4490SOL    HW213923   3.379   0.133  11.035
 4491SOL     OW13924   2.507   0.126   9.420
 4491SOL    HW113925   2.525   0.040   9.459
 4491SOL    HW213926   2.444   0.108   9.350
 4492SOL     OW13927   2.635   0.284  11.084
 4492SOL    HW113928   2.713   0.228  11.085
 4492SOL    HW213929   2.580   0.250  11.155
 4493SOL     OW13930   2.738   1.523  10.504
 4493SOL    HW113931   2.721   1.486  10.418
 4493SOL    HW213932   2.808   1.469  10.541
 4494SOL     OW13933   3.200   0.587  10.741
 4494SOL    HW113934   3.231   0.559  10.827
 4494SOL    HW213935   3.235   0.676  10.731
 4495SOL     OW13936   2.680   1.390  10.256
 4495SOL    HW113937   2.765   1.378  10.213
 4495SOL    HW213938   2.617   1.395  10.184
 4496SOL     OW13939   2.792   0.512  10.208
 4496SOL    HW113940   2.767   0.504  10.116
 4496SOL    HW213941   2.817   0.423  10.234
 4497SOL     OW13942   2.406   0.056   9.800
 4497SOL    HW113943   2.332   0.061   9.861
 4497SOL    HW213944   2.401   0.137   9.750
 4498SOL     OW13945   3.289   1.200   9.349
 4498SOL    HW113946   3.318   1.126   9.401
 4498SOL    HW213947   3.203   1.223   9.386
 4499SOL     OW13948   2.193   0.047   9.523
 4499SOL    HW113949   2.198   0.110   9.452
 4499SOL    HW213950   2.273   0.062   9.574
 4500SOL     OW13951   2.807   0.252   9.768
 4500SOL    HW113952   2.782   0.290   9.684
 4500SOL    HW213953   2.902   0.259   9.769
 4501SOL     OW13954   2.941   0.686  10.767
 4501SOL    HW113955   2.872   0.620  10.773
 4501SOL    HW213956   3.022   0.636  10.762
 4502SOL     OW13957   3.081   1.573  10.105
 4502SOL    HW113958   3.096   1.638  10.036
 4502SOL    HW213959   3.151   1.588  10.168
 4503SOL     OW13960   2.335   1.153  10.038
 4503SOL    HW113961   2.268   1.133  10.103
 4503SOL    HW213962   2.292   1.140   9.953
 4504SOL     OW13963   3.127   1.792   9.922
 4504SOL    HW113964   3.176   1.853   9.867
 4504SOL    HW213965   3.059   1.846   9.963
 4505SOL     OW13966   2.883   0.539   9.341
 4505SOL    HW113967   2.839   0.622   9.321
 4505SOL    HW213968   2.946   0.561   9.409
 4506SOL     OW13969   1.947   0.548  10.707
 4506SOL    HW113970   2.038   0.552  10.678
 4506SOL    HW213971   1.939   0.621  10.769
 4507SOL     OW13972   2.423   0.231  10.470
 4507SOL    HW113973   2.446   0.138  10.480
 4507SOL    HW213974   2.334   0.237  10.504
 4508SOL     OW13975   2.732   0.460   9.947
 4508SOL    HW113976   2.686   0.515   9.884
 4508SOL    HW213977   2.754   0.381   9.898
 4509SOL     OW13978   2.859   0.037  10.092
 4509SOL    HW113979   2.819   0.069  10.011
 4509SOL    HW213980   2.871   3.943  10.078
 4510SOL     OW13981   3.303   1.160  10.168
 4510SOL    HW113982   3.230   1.098  10.166
 4510SOL    HW213983   3.329   1.169  10.076
 4511SOL     OW13984   3.325   0.610  10.280
 4511SOL    HW113985   3.269   0.533  10.285
 4511SOL    HW213986   3.384   0.602  10.355
 4512SOL     OW13987   3.722   0.825   9.685
 4512SOL    HW113988   3.762   0.768   9.750
 4512SOL    HW213989   3.685   0.765   9.620
 4513SOL     OW13990   2.355   1.422   9.460
 4513SOL    HW113991   2.279   1.397   9.513
 4513SOL    HW213992   2.345   1.371   9.379
 4514SOL     OW13993   3.531   1.266   9.952
 4514SOL    HW113994   3.626   1.268   9.962
 4514SOL    HW213995   3.503   1.355   9.973
 4515SOL     OW13996   3.257   0.578   9.378
 4515SOL    HW113997   3.193   0.558   9.447
 4515SOL    HW213998   3.342   0.564   9.419
 4516SOL     OW13999   2.388   0.266   9.625
 4516SOL    HW114000   2.445   0.228   9.559
 4516SOL    HW214001   2.358   0.349   9.587
 4517SOL     OW14002   3.612   1.232  10.871
 4517SOL    HW114003   3.700   1.198  10.854
 4517SOL    HW214004   3.627   1.322  10.900
 4518SOL     OW14005   2.916   1.354  10.642
 4518SOL    HW114006   2.841   1.322  10.692
 4518SOL    HW214007   2.992   1.312  10.684
 4519SOL     OW14008   3.468   1.629  10.968
 4519SOL    HW114009   3.459   1.664  10.879
 4519SOL    HW214010   3.547   1.576  10.965
 4520SOL     OW14011   2.997   1.210  10.412
 4520SOL    HW114012   2.936   1.248  10.476
 4520SOL    HW214013   2.967   1.245  10.328
 4521SOL     OW14014   3.487   1.094  10.384
 4521SOL    HW114015   3.477   1.156  10.456
 4521SOL    HW214016   3.413   1.111  10.326
 4522SOL     OW14017   2.773   0.120  10.711
 4522SOL    HW114018   2.793   0.089  10.622
 4522SOL    HW214019   2.854   0.161  10.741
 4523SOL     OW14020   2.846   1.116  11.034
 4523SOL    HW114021   2.755   1.132  11.058
 4523SOL    HW214022   2.843   1.037  10.979
 4524SOL     OW14023   2.572   1.063   9.681
 4524SOL    HW114024   2.557   1.043   9.773
 4524SOL    HW214025   2.647   1.009   9.656
 4525SOL     OW14026   2.284   0.818  10.562
 4525SOL    HW114027   2.353   0.826  10.628
 4525SOL    HW214028   2.249   0.729  10.575
 4526SOL     OW14029   3.128   0.375  10.587
 4526SOL    HW114030   3.161   0.453  10.631
 4526SOL    HW214031   3.040   0.399  10.558
 4527SOL     OW14032   1.939   1.576  10.664
 4527SOL    HW114033   1.908   1.642  10.601
 4527SOL    HW214034   2.034   1.574  10.652
 4528SOL     OW14035   2.202   1.116   9.800
 4528SOL    HW114036   2.207   1.192   9.742
 4528SOL    HW214037   2.199   1.041   9.741
 4529SOL     OW14038   2.415   0.528  10.165
 4529SOL    HW114039   2.427   0.588  10.092
 4529SOL    HW214040   2.480   0.555  10.230
 4530SOL     OW14041   3.109   1.350   9.700
 4530SOL    HW114042   3.165   1.421   9.732
 4530SOL    HW214043   3.022   1.371   9.734
 4531SOL     OW14044   3.151   1.461  10.458
 4531SOL    HW114045   3.206   1.466  10.536
 4531SOL    HW214046   3.096   1.384  10.472
 4532SOL     OW14047   3.431   0.634   9.798
 4532SOL    HW114048   3.388   0.686   9.866
 4532SOL    HW214049   3.477   0.698   9.744
 4533SOL     OW14050   2.214   1.513  10.625
 4533SOL    HW114051   2.201   1.469  10.541
 4533SOL    HW214052   2.309   1.525  10.631
 4534SOL     OW14053   2.283   0.745  10.914
 4534SOL    HW114054   2.343   0.789  10.855
 4534SOL    HW214055   2.325   0.661  10.932
 4535SOL     OW14056   3.469   0.780  10.996
 4535SOL    HW114057   3.383   0.823  10.990
 4535SOL    HW214058   3.522   0.823  10.929
 4536SOL     OW14059   2.868   0.140  11.092
 4536SOL    HW114060   2.926   0.209  11.057
 4536SOL    HW214061   2.855   0.081  11.018
 4537SOL     OW14062   2.352   0.035  11.070
 4537SOL    HW114063   2.352   0.051  10.976
 4537SOL    HW214064   2.292   0.100  11.107
 4538SOL     OW14065   2.447   0.874  10.342
 4538SOL    HW114066   2.478   0.965  10.345
 4538SOL    HW214067   2.389   0.867  10.418
 4539SOL     OW14068   3.209   0.859  10.332
 4539SOL    HW114069   3.123   0.844  10.292
 4539SOL    HW214070   3.255   0.775  10.323
 4540SOL     OW14071   3.060   0.539   9.564
 4540SOL    HW114072   3.067   0.460   9.618
 4540SOL    HW214073   3.017   0.603   9.622
 4541SOL     OW14074   2.159   0.208  10.553
 4541SOL    HW114075   2.116   0.236  10.634
 4541SOL    HW214076   2.149   0.112  10.553
 4542SOL     OW14077   1.905   1.313  10.587
 4542SOL    HW114078   1.940   1.257  10.657
 4542SOL    HW214079   1.914   1.402  10.621
 4543SOL     OW14080   2.582   0.631  10.359
 4543SOL    HW114081   2.659   0.621  10.303
 4543SOL    HW214082   2.552   0.720  10.342
 4544SOL     OW14083   3.594   0.957  11.177
 4544SOL    HW114084   3.553   0.892  11.120
 4544SOL    HW214085   3.528   0.973  11.245
 4545SOL     OW14086   2.186   0.054   9.967
 4545SOL    HW114087   2.165   0.147   9.977
 4545SOL    HW214088   2.159   0.014  10.050
 4546SOL     OW14089   3.476   0.397   9.688
 4546SOL    HW114090   3.432   0.328   9.738
 4546SOL    HW214091   3.455   0.478   9.734
 4547SOL     OW14092   2.893   0.759  10.267
 4547SOL    HW114093   2.883   0.775  10.361
 4547SOL    HW214094   2.865   0.668  10.256
 4548SOL     OW14095   2.843   1.567  11.031
 4548SOL    HW114096   2.827   1.610  10.948
 4548SOL    HW214097   2.887   1.485  11.008
 4549SOL     OW14098   3.703   1.494  10.907
 4549SOL    HW114099   3.727   1.526  10.820
 4549SOL    HW214100   3.783   1.502  10.959
 4550SOL     OW14101   2.213   0.914  11.120
 4550SOL    HW114102   2.294   0.936  11.167
 4550SOL    HW214103   2.240   0.853  11.052
 4551SOL     OW14104   3.359   0.271   9.442
 4551SOL    HW114105   3.287   0.208   9.451
 4551SOL    HW214106   3.369   0.309   9.529
 4552SOL     OW14107   3.148   0.827   9.337
 4552SOL    HW114108   3.190   0.741   9.340
 4552SOL    HW214109   3.181   0.866   9.256
 4553SOL     OW14110   2.931   1.339  10.167
 4553SOL    HW114111   2.936   1.267  10.104
 4553SOL    HW214112   2.989   1.406  10.131
 4554SOL     OW14113   2.169   0.811  10.256
 4554SOL    HW114114   2.263   0.831  10.248
 4554SOL    HW214115   2.167   0.721  10.288
 4555SOL     OW14116   2.198   0.538  10.325
 4555SOL    HW114117   2.156   0.453  10.310
 4555SOL    HW214118   2.274   0.538  10.266
 4556SOL     OW14119   2.995   0.379  11.009
 4556SOL    HW114120   2.946   0.433  11.071
 4556SOL    HW214121   3.081   0.420  11.005
 4557SOL     OW14122   3.014   0.226  10.791
 4557SOL    HW114123   3.004   0.279  10.870
 4557SOL    HW214124   3.041   0.288  10.724
 4558SOL     OW14125   1.867   1.317   9.504
 4558SOL    HW114126   1.780   1.331   9.466
 4558SOL    HW214127   1.865   1.228   9.538
 4559SOL     OW14128   1.984   1.725  10.303
 4559SOL    HW114129   1.948   1.660  10.242
 4559SOL    HW214130   2.013   1.797  10.247
 4560SOL     OW14131   2.358   1.570  10.221
 4560SOL    HW114132   2.424   1.636  10.243
 4560SOL    HW214133   2.402   1.510  10.160
 4561SOL     OW14134   2.836   0.785  10.532
 4561SOL    HW114135   2.894   0.769  10.606
 4561SOL    HW214136   2.751   0.749  10.559
 4562SOL     OW14137   1.895   0.549  10.427
 4562SOL    HW114138   1.969   0.524  10.372
 4562SOL    HW214139   1.930   0.547  10.516
 4563SOL     OW14140   2.066   0.528  11.021
 4563SOL    HW114141   2.139   0.507  10.963
 4563SOL    HW214142   2.024   0.604  10.981
 4564SOL     OW14143   3.243   0.934  10.966
 4564SOL    HW114144   3.264   1.027  10.963
 4564SOL    HW214145   3.238   0.907  10.875
 4565SOL     OW14146   2.679   0.573   9.677
 4565SOL    HW114147   2.686   0.498   9.618
 4565SOL    HW214148   2.605   0.623   9.645
 4566SOL     OW14149   3.500   0.602  10.490
 4566SOL    HW114150   3.489   0.542  10.563
 4566SOL    HW214151   3.586   0.582  10.454
 4567SOL     OW14152   2.113   1.536  11.014
 4567SOL    HW114153   2.093   1.604  11.078
 4567SOL    HW214154   2.119   1.455  11.065
 4568SOL     OW14155   2.576   0.450  10.561
 4568SOL    HW114156   2.522   0.374  10.539
 4568SOL    HW214157   2.564   0.510  10.488
 4569SOL     OW14158   2.784   1.679  10.781
 4569SOL    HW114159   2.761   1.639  10.697
 4569SOL    HW214160   2.778   1.773  10.766
 4570SOL     OW14161   2.323   0.493   9.489
 4570SOL    HW114162   2.381   0.565   9.515
 4570SOL    HW214163   2.237   0.534   9.478
 4571SOL     OW14164   2.001   1.142  10.784
 4571SOL    HW114165   2.004   1.095  10.867
 4571SOL    HW214166   2.019   1.075  10.718
 4572SOL     OW14167   3.181   1.043  10.530
 4572SOL    HW114168   3.203   0.980  10.461
 4572SOL    HW214169   3.115   1.100  10.490
 4573SOL     OW14170   3.177   0.854   9.614
 4573SOL    HW114171   3.102   0.827   9.666
 4573SOL    HW214172   3.149   0.843   9.523
 4574SOL     OW14173   3.646   1.738  10.470
 4574SOL    HW114174   3.701   1.766  10.397
 4574SOL    HW214175   3.614   1.652  10.445
 4575SOL     OW14176   3.102   1.734  10.416
 4575SOL    HW114177   3.184   1.758  10.374
 4575SOL    HW214178   3.111   1.640  10.437
 4576SOL     OW14179   1.952   1.261  10.324
 4576SOL    HW114180   1.931   1.279  10.416
 4576SOL    HW214181   1.877   1.210  10.293
 4577SOL     OW14182   2.540   1.671  11.045
 4577SOL    HW114183   2.484   1.749  11.041
 4577SOL    HW214184   2.608   1.687  10.980
 4578SOL     OW14185   3.548   0.118   9.799
 4578SOL    HW114186   3.629   0.135   9.750
 4578SOL    HW214187   3.553   0.025   9.821
 4579SOL     OW14188   3.254   1.567   9.801
 4579SOL    HW114189   3.312   1.601   9.733
 4579SOL    HW214190   3.203   1.644   9.829
 4580SOL     OW14191   2.030   1.734  11.172
 4580SOL    HW114192   1.965   1.699  11.233
 4580SOL    HW214193   2.004   1.824  11.158
 4581SOL     OW14194   3.139   0.928   9.981
 4581SOL    HW114195   3.214   0.870   9.993
 4581SOL    HW214196   3.173   1.000   9.927
 4582SOL     OW14197   2.667   1.276  10.735
 4582SOL    HW114198   2.639   1.317  10.816
 4582SOL    HW214199   2.596   1.295  10.673
 4583SOL     OW14200   2.536   1.626   9.461
 4583SOL    HW114201   2.545   1.638   9.366
 4583SOL    HW214202   2.479   1.549   9.469
 4584SOL     OW14203   3.479   1.728  10.702
 4584SOL    HW114204   3.536   1.732  10.625
 4584SOL    HW214205   3.465   1.819  10.726
 4585SOL     OW14206   3.705   0.182  10.281
 4585SOL    HW114207   3.729   0.097  10.244
 4585SOL    HW214208   3.619   0.202  10.244
 4586SOL     OW14209   2.124   0.314  10.024
 4586SOL    HW114210   2.038   0.349  10.001
 4586SOL    HW214211   2.123   0.309  10.120
 4587SOL     OW14212   3.070   1.602   9.343
 4587SOL    HW114213   3.058   1.510   9.370
 4587SOL    HW214214   3.003   1.615   9.275
 4588SOL     OW14215   2.686   1.007  10.684
 4588SOL    HW114216   2.727   1.002  10.598
 4588SOL    HW214217   2.682   1.100  10.704
 4589SOL     OW14218   2.778   0.911   9.601
 4589SOL    HW114219   2.838   0.944   9.534
 4589SOL    HW214220   2.828   0.843   9.647
 4590SOL     OW14221   3.349   1.631   9.355
 4590SOL    HW114222   3.255   1.621   9.339
 4590SOL    HW214223   3.387   1.637   9.267
 4591SOL     OW14224   2.232   1.295  10.804
 4591SOL    HW114225   2.220   1.374  10.750
 4591SOL    HW214226   2.153   1.244  10.788
 4592SOL     OW14227   3.460   1.280  10.586
 4592SOL    HW114228   3.529   1.270  10.652
 4592SOL    HW214229   3.403   1.349  10.621
 4593SOL     OW14230   2.923   1.111  10.021
 4593SOL    HW114231   2.850   1.060  10.058
 4593SOL    HW214232   2.986   1.044   9.993
 4594SOL     OW14233   2.877   0.250  10.281
 4594SOL    HW114234   2.868   0.199  10.200
 4594SOL    HW214235   2.876   0.185  10.351
 4595SOL     OW14236   2.467   1.489   9.791
 4595SOL    HW114237   2.511   1.439   9.722
 4595SOL    HW214238   2.407   1.547   9.745
 4596SOL     OW14239   3.583   0.396  10.680
 4596SOL    HW114240   3.656   0.458  10.681
 4596SOL    HW214241   3.614   0.323  10.627
 4597SOL     OW14242   2.123   1.343   9.595
 4597SOL    HW114243   2.030   1.338   9.574
 4597SOL    HW214244   2.125   1.378   9.685
 4598SOL     OW14245   1.976   1.031  11.034
 4598SOL    HW114246   1.900   1.004  11.085
 4598SOL    HW214247   2.050   0.988  11.078
 4599SOL     OW14248   2.558   0.264  10.815
 4599SOL    HW114249   2.623   0.207  10.773
 4599SOL    HW214250   2.584   0.267  10.907
 4600SOL     OW14251   1.965   0.317   9.302
 4600SOL    HW114252   1.898   0.336   9.368
 4600SOL    HW214253   1.971   0.397   9.250
 4601SOL     OW14254   3.284   0.855  10.706
 4601SOL    HW114255   3.234   0.917  10.653
 4601SOL    HW214256   3.373   0.859  10.670
 4602SOL     OW14257   1.942   0.150   9.649
 4602SOL    HW114258   1.910   0.208   9.579
 4602SOL    HW214259   2.029   0.123   9.620
 4603SOL     OW14260   3.040   1.335   9.428
 4603SOL    HW114261   2.949   1.305   9.430
 4603SOL    HW214262   3.066   1.336   9.520
 4604SOL     OW14263   2.485   0.828  10.744
 4604SOL    HW114264   2.541   0.904  10.730
 4604SOL    HW214265   2.545   0.755  10.753
 4605SOL     OW14266   3.344   1.786  10.292
 4605SOL    HW114267   3.366   1.852  10.226
 4605SOL    HW214268   3.428   1.753  10.322
 4606SOL     OW14269   2.580   0.559  11.013
 4606SOL    HW114270   2.624   0.620  11.072
 4606SOL    HW214271   2.602   0.473  11.048
 4607SOL     OW14272   3.335   1.194  10.938
 4607SOL    HW114273   3.325   1.210  11.032
 4607SOL    HW214274   3.428   1.211  10.922
 4608SOL     OW14275   2.233   1.749  10.879
 4608SOL    HW114276   2.171   1.756  10.807
 4608SOL    HW214277   2.209   1.668  10.924
 4609SOL     OW14278   3.524   0.880  10.569
 4609SOL    HW114279   3.524   0.795  10.525
 4609SOL    HW214280   3.517   0.944  10.498
 4610SOL     OW14281   3.080   0.340   9.751
 4610SOL    HW114282   3.150   0.275   9.741
 4610SOL    HW214283   3.099   0.384   9.834
 4611SOL     OW14284   2.450   0.734   9.982
 4611SOL    HW114285   2.489   0.820   9.968
 4611SOL    HW214286   2.384   0.726   9.913
 4612SOL     OW14287   3.615   0.380  10.952
 4612SOL    HW114288   3.594   0.390  10.859
 4612SOL    HW214289   3.553   0.314  10.983
 4613SOL     OW14290   3.617   0.930  10.822
 4613SOL    HW114291   3.606   1.023  10.841
 4613SOL    HW214292   3.591   0.920  10.731
 4614SOL     OW14293   2.725   1.365   9.352
 4614SOL    HW114294   2.687   1.391   9.436
 4614SOL    HW214295   2.740   1.448   9.306
 4615SOL     OW14296   2.525   1.790  10.248
 4615SOL    HW114297   2.511   1.882  10.226
 4615SOL    HW214298   2.619   1.778  10.241
 4616SOL     OW14299   2.732   0.971  10.164
 4616SOL    HW114300   2.782   0.899  10.202
 4616SOL    HW214301   2.693   1.015  10.239
 4617SOL     OW14302   2.939   0.990   9.400
 4617SOL    HW114303   2.917   1.041   9.322
 4617SOL    HW214304   3.013   0.935   9.372
 4618SOL     OW14305   3.711   1.556  10.151
 4618SOL    HW114306   3.631   1.540  10.100
 4618SOL    HW214307   3.711   1.488  10.217
 4619SOL     OW14308   2.091   1.298  11.164
 4619SOL    HW114309   2.025   1.234  11.136
 4619SOL    HW214310   2.074   1.310  11.257
 4620SOL     OW14311   1.945   1.221   9.977
 4620SOL    HW114312   1.963   1.177  10.060
 4620SOL    HW214313   2.016   1.193   9.919
 4621SOL     OW14314   2.546   1.408  10.940
 4621SOL    HW114315   2.467   1.364  10.974
 4621SOL    HW214316   2.542   1.496  10.978
 4622SOL     OW14317   3.675   0.181  10.554
 4622SOL    HW114318   3.676   0.086  10.564
 4622SOL    HW214319   3.694   0.197  10.462
 4623SOL     OW14320   2.290   0.435   9.835
 4623SOL    HW114321   2.325   0.364   9.782
 4623SOL    HW214322   2.242   0.391   9.905
 4624SOL     OW14323   3.556   1.490  10.405
 4624SOL    HW114324   3.479   1.469  10.353
 4624SOL    HW214325   3.563   1.418  10.468
 4625SOL     OW14326   2.196   0.557  10.606
 4625SOL    HW114327   2.248   0.497  10.659
 4625SOL    HW214328   2.215   0.531  10.516
 4626SOL     OW14329   2.692   1.578   9.985
 4626SOL    HW114330   2.670   1.639   9.914
 4626SOL    HW214331   2.618   1.517   9.987
 4627SOL     OW14332   3.322   0.254  10.420
 4627SOL    HW114333   3.336   0.166  10.455
 4627SOL    HW214334   3.267   0.298  10.485
 4628SOL     OW14335   2.864   0.025  10.455
 4628SOL    HW114336   2.780   0.002  10.415
 4628SOL    HW214337   2.910   3.941  10.464
 4629SOL     OW14338   2.637   1.333   9.628
 4629SOL    HW114339   2.609   1.243   9.638
 4629SOL    HW214340   2.717   1.339   9.681
 4630SOL     OW14341   2.484   1.555  10.598
 4630SOL    HW114342   2.483   1.638  10.646
 4630SOL    HW214343   2.572   1.549  10.561
 4631SOL     OW14344   3.168   0.069   9.469
 4631SOL    HW114345   3.171   3.981   9.432
 4631SOL    HW214346   3.086   0.072   9.518
 4632SOL     OW14347   3.140   0.456   9.994
 4632SOL    HW114348   3.094   0.540   9.988
 4632SOL    HW214349   3.144   0.437  10.088
 4633SOL     OW14350   3.453   0.210  10.178
 4633SOL    HW114351   3.405   0.234  10.256
 4633SOL    HW214352   3.451   0.289  10.123
 4634SOL     OW14353   1.906   1.068   9.617
 4634SOL    HW114354   2.000   1.060   9.600
 4634SOL    HW214355   1.878   0.980   9.642
 4635SOL     OW14356   2.750   1.660   9.648
 4635SOL    HW114357   2.677   1.643   9.589
 4635SOL    HW214358   2.721   1.733   9.703
 4636SOL     OW14359   2.085   0.618  11.293
 4636SOL    HW114360   1.995   0.628  11.324
 4636SOL    HW214361   2.076   0.599  11.200
 4637SOL     OW14362   2.078   0.303  12.164
 4637SOL    HW114363   2.115   0.258  12.241
 4637SOL    HW214364   1.993   0.261  12.151
 4638SOL     OW14365   1.870   0.400  11.803
 4638SOL    HW114366   1.785   0.415  11.843
 4638SOL    HW214367   1.855   0.332  11.737
 4639SOL     OW14368   2.432   1.295  12.353
 4639SOL    HW114369   2.346   1.301  12.311
 4639SOL    HW214370   2.449   1.384  12.383
 4640SOL     OW14371   3.430   1.514  11.880
 4640SOL    HW114372   3.387   1.492  11.963
 4640SOL    HW214373   3.359   1.519  11.817
 4641SOL     OW14374   2.995   0.699  11.866
 4641SOL    HW114375   3.043   0.781  11.854
 4641SOL    HW214376   2.947   0.710  11.948
 4642SOL     OW14377   3.627   0.624  11.396
 4642SOL    HW114378   3.607   0.611  11.304
 4642SOL    HW214379   3.604   0.541  11.437
 4643SOL     OW14380   2.610   1.138  12.219
 4643SOL    HW114381   2.543   1.175  12.276
 4643SOL    HW214382   2.649   1.213  12.175
 4644SOL     OW14383   2.736   0.765  12.996
 4644SOL    HW114384   2.722   0.836  13.058
 4644SOL    HW214385   2.758   0.809  12.914
 4645SOL     OW14386   2.548   0.997  11.816
 4645SOL    HW114387   2.614   0.990  11.885
 4645SOL    HW214388   2.479   1.052  11.854
 4646SOL     OW14389   2.577   1.150  12.990
 4646SOL    HW114390   2.624   1.227  13.021
 4646SOL    HW214391   2.496   1.185  12.952
 4647SOL     OW14392   2.195   1.412  12.240
 4647SOL    HW114393   2.118   1.378  12.194
 4647SOL    HW214394   2.239   1.468  12.175
 4648SOL     OW14395   3.320   1.502  12.533
 4648SOL    HW114396   3.375   1.580  12.542
 4648SOL    HW214397   3.253   1.512  12.600
 4649SOL     OW14398   2.309   0.390  12.662
 4649SOL    HW114399   2.401   0.364  12.663
 4649SOL    HW214400   2.260   0.309  12.671
 4650SOL     OW14401   3.472   0.450  11.907
 4650SOL    HW114402   3.405   0.483  11.847
 4650SOL    HW214403   3.489   0.522  11.967
 4651SOL     OW14404   2.092   1.687  11.626
 4651SOL    HW114405   2.100   1.758  11.690
 4651SOL    HW214406   2.174   1.690  11.576
 4652SOL     OW14407   2.999   1.342  12.866
 4652SOL    HW114408   3.040   1.336  12.952
 4652SOL    HW214409   2.947   1.262  12.858
 4653SOL     OW14410   2.092   1.429  11.708
 4653SOL    HW114411   2.084   1.523  11.696
 4653SOL    HW214412   2.032   1.408  11.779
 4654SOL     OW14413   2.127   1.091  12.062
 4654SOL    HW114414   2.123   1.003  12.100
 4654SOL    HW214415   2.070   1.144  12.118
 4655SOL     OW14416   2.469   1.792  12.602
 4655SOL    HW114417   2.389   1.776  12.652
 4655SOL    HW214418   2.495   1.881  12.627
 4656SOL     OW14419   2.441   0.985  11.311
 4656SOL    HW114420   2.490   1.030  11.242
 4656SOL    HW214421   2.480   1.017  11.393
 4657SOL     OW14422   3.446   0.143  12.627
 4657SOL    HW114423   3.474   0.215  12.571
 4657SOL    HW214424   3.403   0.187  12.702
 4658SOL     OW14425   1.981   0.659  11.733
 4658SOL    HW114426   1.953   0.570  11.756
 4658SOL    HW214427   1.973   0.708  11.815
 4659SOL     OW14428   3.703   1.758  11.507
 4659SOL    HW114429   3.774   1.733  11.567
 4659SOL    HW214430   3.720   1.849  11.486
 4660SOL     OW14431   1.859   1.613  11.351
 4660SOL    HW114432   1.846   1.522  11.325
 4660SOL    HW214433   1.907   1.608  11.433
 4661SOL     OW14434   3.552   0.919  11.822
 4661SOL    HW114435   3.635   0.875  11.804
 4661SOL    HW214436   3.534   0.969  11.742
 4662SOL     OW14437   3.505   1.102  11.605
 4662SOL    HW114438   3.589   1.107  11.560
 4662SOL    HW214439   3.511   1.166  11.675
 4663SOL     OW14440   1.985   0.751  12.751
 4663SOL    HW114441   2.074   0.785  12.753
 4663SOL    HW214442   1.929   0.829  12.754
 4664SOL     OW14443   2.479   1.390  11.906
 4664SOL    HW114444   2.433   1.307  11.915
 4664SOL    HW214445   2.461   1.418  11.817
 4665SOL     OW14446   3.147   1.236  12.593
 4665SOL    HW114447   3.178   1.169  12.533
 4665SOL    HW214448   3.207   1.231  12.668
 4666SOL     OW14449   2.684   0.007  11.691
 4666SOL    HW114450   2.729   0.086  11.663
 4666SOL    HW214451   2.591   0.030  11.689
 4667SOL     OW14452   2.050   0.959  12.452
 4667SOL    HW114453   2.136   0.921  12.437
 4667SOL    HW214454   1.992   0.914  12.390
 4668SOL     OW14455   3.389   0.999  11.374
 4668SOL    HW114456   3.320   0.941  11.407
 4668SOL    HW214457   3.432   1.033  11.452
 4669SOL     OW14458   3.046   1.812  12.797
 4669SOL    HW114459   3.052   1.872  12.723
 4669SOL    HW214460   3.064   1.726  12.760
 4670SOL     OW14461   2.222   0.249  13.028
 4670SOL    HW114462   2.268   0.333  13.030
 4670SOL    HW214463   2.129   0.272  13.025
 4671SOL     OW14464   3.329   1.420  12.119
 4671SOL    HW114465   3.262   1.436  12.186
 4671SOL    HW214466   3.317   1.328  12.094
 4672SOL     OW14467   3.512   1.752  11.751
 4672SOL    HW114468   3.497   1.718  11.663
 4672SOL    HW214469   3.495   1.678  11.809
 4673SOL     OW14470   2.456   0.718  11.442
 4673SOL    HW114471   2.459   0.802  11.397
 4673SOL    HW214472   2.392   0.731  11.512
 4674SOL     OW14473   3.136   0.373  12.113
 4674SOL    HW114474   3.049   0.334  12.122
 4674SOL    HW214475   3.194   0.311  12.159
 4675SOL     OW14476   3.439   1.672  11.483
 4675SOL    HW114477   3.530   1.700  11.476
 4675SOL    HW214478   3.411   1.657  11.393
 4676SOL     OW14479   2.658   0.615  12.622
 4676SOL    HW114480   2.629   0.588  12.710
 4676SOL    HW214481   2.622   0.547  12.564
 4677SOL     OW14482   3.254   0.475  12.849
 4677SOL    HW114483   3.260   0.521  12.933
 4677SOL    HW214484   3.309   0.398  12.860
 4678SOL     OW14485   2.812   0.886  12.758
 4678SOL    HW114486   2.867   0.819  12.720
 4678SOL    HW214487   2.764   0.923  12.684
 4679SOL     OW14488   2.857   0.401  12.407
 4679SOL    HW114489   2.770   0.419  12.443
 4679SOL    HW214490   2.840   0.376  12.316
 4680SOL     OW14491   2.915   0.700  11.596
 4680SOL    HW114492   2.933   0.694  11.690
 4680SOL    HW214493   2.832   0.655  11.584
 4681SOL     OW14494   1.949   0.823  11.950
 4681SOL    HW114495   2.029   0.816  12.001
 4681SOL    HW214496   1.904   0.900  11.986
 4682SOL     OW14497   2.758   0.353  11.373
 4682SOL    HW114498   2.800   0.413  11.311
 4682SOL    HW214499   2.746   0.272  11.323
 4683SOL     OW14500   3.565   0.573  13.002
 4683SOL    HW114501   3.530   0.648  12.954
 4683SOL    HW214502   3.592   0.511  12.935
 4684SOL     OW14503   3.240   1.141  11.711
 4684SOL    HW114504   3.320   1.130  11.660
 4684SOL    HW214505   3.188   1.204  11.661
 4685SOL     OW14506   2.422   0.199  12.052
 4685SOL    HW114507   2.424   0.219  12.146
 4685SOL    HW214508   2.417   0.285  12.010
 4686SOL     OW14509   2.862   1.444  11.640
 4686SOL    HW114510   2.830   1.519  11.590
 4686SOL    HW214511   2.838   1.464  11.731
 4687SOL     OW14512   2.231   1.802  11.998
 4687SOL    HW114513   2.260   1.714  12.025
 4687SOL    HW214514   2.296   1.861  12.036
 4688SOL     OW14515   3.669   1.062  12.041
 4688SOL    HW114516   3.617   1.034  11.966
 4688SOL    HW214517   3.606   1.065  12.114
 4689SOL     OW14518   3.088   1.540  12.686
 4689SOL    HW114519   3.076   1.468  12.747
 4689SOL    HW214520   3.022   1.525  12.618
 4690SOL     OW14521   2.178   0.962  11.426
 4690SOL    HW114522   2.260   0.981  11.382
 4690SOL    HW214523   2.149   0.879  11.388
 4691SOL     OW14524   3.343   0.751  11.899
 4691SOL    HW114525   3.339   0.710  11.986
 4691SOL    HW214526   3.421   0.807  11.902
 4692SOL     OW14527   2.334   1.265  12.911
 4692SOL    HW114528   2.308   1.267  12.819
 4692SOL    HW214529   2.251   1.261  12.960
 4693SOL     OW14530   2.987   1.778  11.401
 4693SOL    HW114531   2.911   1.739  11.444
 4693SOL    HW214532   3.011   1.715  11.333
 4694SOL     OW14533   2.028   0.274  12.672
 4694SOL    HW114534   1.978   0.354  12.656
 4694SOL    HW214535   2.029   0.265  12.767
 4695SOL     OW14536   3.486   1.385  11.259
 4695SOL    HW114537   3.442   1.469  11.245
 4695SOL    HW214538   3.419   1.320  11.239
 4696SOL     OW14539   2.343   1.708  11.518
 4696SOL    HW114540   2.376   1.786  11.563
 4696SOL    HW214541   2.397   1.701  11.440
 4697SOL     OW14542   3.299   0.176  11.574
 4697SOL    HW114543   3.247   0.101  11.545
 4697SOL    HW214544   3.374   0.138  11.620
 4698SOL     OW14545   2.159   1.763  12.394
 4698SOL    HW114546   2.199   1.680  12.420
 4698SOL    HW214547   2.116   1.743  12.310
 4699SOL     OW14548   2.799   1.700  12.067
 4699SOL    HW114549   2.879   1.651  12.089
 4699SOL    HW214550   2.759   1.649  11.997
 4700SOL     OW14551   2.258   0.695  11.644
 4700SOL    HW114552   2.275   0.602  11.658
 4700SOL    HW214553   2.165   0.706  11.663
 4701SOL     OW14554   3.391   0.227  12.898
 4701SOL    HW114555   3.381   0.252  12.990
 4701SOL    HW214556   3.380   0.132  12.897
 4702SOL     OW14557   2.507   0.126  11.282
 4702SOL    HW114558   2.525   0.040  11.321
 4702SOL    HW214559   2.444   0.108  11.212
 4703SOL     OW14560   2.635   0.284  12.945
 4703SOL    HW114561   2.713   0.228  12.946
 4703SOL    HW214562   2.580   0.250  13.016
 4704SOL     OW14563   2.738   1.523  12.366
 4704SOL    HW114564   2.721   1.486  12.280
 4704SOL    HW214565   2.808   1.469  12.403
 4705SOL     OW14566   3.200   0.587  12.603
 4705SOL    HW114567   3.231   0.559  12.689
 4705SOL    HW214568   3.235   0.676  12.593
 4706SOL     OW14569   2.680   1.390  12.118
 4706SOL    HW114570   2.765   1.378  12.075
 4706SOL    HW214571   2.617   1.395  12.046
 4707SOL     OW14572   2.792   0.512  12.070
 4707SOL    HW114573   2.767   0.504  11.978
 4707SOL    HW214574   2.817   0.423  12.096
 4708SOL     OW14575   2.406   0.056  11.662
 4708SOL    HW114576   2.332   0.061  11.723
 4708SOL    HW214577   2.401   0.137  11.612
 4709SOL     OW14578   3.289   1.201  11.211
 4709SOL    HW114579   3.318   1.126  11.263
 4709SOL    HW214580   3.203   1.223  11.248
 4710SOL     OW14581   2.193   0.047  11.385
 4710SOL    HW114582   2.198   0.110  11.314
 4710SOL    HW214583   2.273   0.062  11.436
 4711SOL     OW14584   2.807   0.252  11.630
 4711SOL    HW114585   2.782   0.290  11.546
 4711SOL    HW214586   2.902   0.259  11.631
 4712SOL     OW14587   2.941   0.686  12.629
 4712SOL    HW114588   2.872   0.620  12.635
 4712SOL    HW214589   3.022   0.635  12.624
 4713SOL     OW14590   3.080   1.573  11.967
 4713SOL    HW114591   3.095   1.638  11.898
 4713SOL    HW214592   3.151   1.588  12.030
 4714SOL     OW14593   2.335   1.153  11.900
 4714SOL    HW114594   2.268   1.133  11.965
 4714SOL    HW214595   2.292   1.140  11.815
 4715SOL     OW14596   3.127   1.792  11.784
 4715SOL    HW114597   3.176   1.853  11.729
 4715SOL    HW214598   3.059   1.846  11.825
 4716SOL     OW14599   2.883   0.539  11.203
 4716SOL    HW114600   2.839   0.622  11.183
 4716SOL    HW214601   2.946   0.561  11.271
 4717SOL     OW14602   1.947   0.548  12.569
 4717SOL    HW114603   2.038   0.552  12.539
 4717SOL    HW214604   1.939   0.621  12.631
 4718SOL     OW14605   2.423   0.231  12.333
 4718SOL    HW114606   2.446   0.138  12.342
 4718SOL    HW214607   2.334   0.237  12.366
 4719SOL     OW14608   2.732   0.460  11.809
 4719SOL    HW114609   2.686   0.516  11.746
 4719SOL    HW214610   2.754   0.381  11.760
 4720SOL     OW14611   2.859   0.037  11.954
 4720SOL    HW114612   2.819   0.069  11.873
 4720SOL    HW214613   2.871   3.943  11.940
 4721SOL     OW14614   3.304   1.160  12.030
 4721SOL    HW114615   3.230   1.098  12.028
 4721SOL    HW214616   3.329   1.169  11.938
 4722SOL     OW14617   3.325   0.610  12.142
 4722SOL    HW114618   3.269   0.533  12.147
 4722SOL    HW214619   3.384   0.602  12.217
 4723SOL     OW14620   3.722   0.825  11.547
 4723SOL    HW114621   3.762   0.768  11.612
 4723SOL    HW214622   3.685   0.765  11.482
 4724SOL     OW14623   2.355   1.422  11.322
 4724SOL    HW114624   2.280   1.397  11.375
 4724SOL    HW214625   2.346   1.372  11.241
 4725SOL     OW14626   3.531   1.266  11.814
 4725SOL    HW114627   3.626   1.268  11.824
 4725SOL    HW214628   3.503   1.355  11.835
 4726SOL     OW14629   3.257   0.578  11.240
 4726SOL    HW114630   3.193   0.558  11.309
 4726SOL    HW214631   3.342   0.564  11.281
 4727SOL     OW14632   2.388   0.266  11.487
 4727SOL    HW114633   2.445   0.228  11.421
 4727SOL    HW214634   2.358   0.349  11.449
 4728SOL     OW14635   3.612   1.232  12.733
 4728SOL    HW114636   3.700   1.198  12.716
 4728SOL    HW214637   3.627   1.322  12.762
 4729SOL     OW14638   2.916   1.354  12.504
 4729SOL    HW114639   2.841   1.322  12.554
 4729SOL    HW214640   2.992   1.312  12.546
 4730SOL     OW14641   3.468   1.629  12.830
 4730SOL    HW114642   3.459   1.664  12.741
 4730SOL    HW214643   3.547   1.576  12.827
 4731SOL     OW14644   2.997   1.211  12.274
 4731SOL    HW114645   2.936   1.248  12.338
 4731SOL    HW214646   2.967   1.245  12.190
 4732SOL     OW14647   3.487   1.094  12.246
 4732SOL    HW114648   3.477   1.156  12.318
 4732SOL    HW214649   3.413   1.111  12.188
 4733SOL     OW14650   2.773   0.120  12.573
 4733SOL    HW114651   2.793   0.089  12.484
 4733SOL    HW214652   2.854   0.161  12.603
 4734SOL     OW14653   2.846   1.115  12.896
 4734SOL    HW114654   2.755   1.132  12.920
 4734SOL    HW214655   2.843   1.037  12.842
 4735SOL     OW14656   2.572   1.063  11.543
 4735SOL    HW114657   2.557   1.043  11.635
 4735SOL    HW214658   2.647   1.009  11.518
 4736SOL     OW14659   2.284   0.818  12.424
 4736SOL    HW114660   2.353   0.826  12.490
 4736SOL    HW214661   2.249   0.729  12.437
 4737SOL     OW14662   3.128   0.375  12.449
 4737SOL    HW114663   3.161   0.453  12.493
 4737SOL    HW214664   3.040   0.399  12.420
 4738SOL     OW14665   1.938   1.576  12.526
 4738SOL    HW114666   1.906   1.642  12.464
 4738SOL    HW214667   2.033   1.575  12.514
 4739SOL     OW14668   2.203   1.116  11.662
 4739SOL    HW114669   2.207   1.192  11.604
 4739SOL    HW214670   2.200   1.041  11.603
 4740SOL     OW14671   2.415   0.528  12.027
 4740SOL    HW114672   2.427   0.588  11.954
 4740SOL    HW214673   2.480   0.555  12.092
 4741SOL     OW14674   3.109   1.350  11.562
 4741SOL    HW114675   3.165   1.421  11.594
 4741SOL    HW214676   3.022   1.371  11.596
 4742SOL     OW14677   3.151   1.461  12.320
 4742SOL    HW114678   3.206   1.466  12.398
 4742SOL    HW214679   3.096   1.384  12.334
 4743SOL     OW14680   3.431   0.634  11.660
 4743SOL    HW114681   3.388   0.686  11.728
 4743SOL    HW214682   3.477   0.698  11.606
 4744SOL     OW14683   2.216   1.511  12.488
 4744SOL    HW114684   2.201   1.468  12.403
 4744SOL    HW214685   2.310   1.522  12.493
 4745SOL     OW14686   2.283   0.745  12.776
 4745SOL    HW114687   2.343   0.790  12.717
 4745SOL    HW214688   2.324   0.661  12.794
 4746SOL     OW14689   3.469   0.781  12.858
 4746SOL    HW114690   3.383   0.823  12.852
 4746SOL    HW214691   3.521   0.823  12.790
 4747SOL     OW14692   2.870   0.140  12.955
 4747SOL    HW114693   2.926   0.209  12.919
 4747SOL    HW214694   2.855   0.080  12.882
 4748SOL     OW14695   2.352   0.035  12.932
 4748SOL    HW114696   2.352   0.051  12.838
 4748SOL    HW214697   2.292   0.100  12.968
 4749SOL     OW14698   2.447   0.874  12.204
 4749SOL    HW114699   2.478   0.965  12.206
 4749SOL    HW214700   2.389   0.867  12.280
 4750SOL     OW14701   3.209   0.859  12.194
 4750SOL    HW114702   3.123   0.844  12.154
 4750SOL    HW214703   3.255   0.775  12.185
 4751SOL     OW14704   3.060   0.539  11.426
 4751SOL    HW114705   3.067   0.460  11.480
 4751SOL    HW214706   3.017   0.603  11.484
 4752SOL     OW14707   2.159   0.208  12.415
 4752SOL    HW114708   2.116   0.236  12.496
 4752SOL    HW214709   2.149   0.113  12.415
 4753SOL     OW14710   1.905   1.312  12.449
 4753SOL    HW114711   1.940   1.257  12.519
 4753SOL    HW214712   1.914   1.402  12.483
 4754SOL     OW14713   2.582   0.631  12.221
 4754SOL    HW114714   2.659   0.621  12.165
 4754SOL    HW214715   2.552   0.720  12.204
 4755SOL     OW14716   3.594   0.955  13.041
 4755SOL    HW114717   3.553   0.892  12.982
 4755SOL    HW214718   3.528   0.972  13.108
 4756SOL     OW14719   2.186   0.054  11.829
 4756SOL    HW114720   2.165   0.147  11.839
 4756SOL    HW214721   2.159   0.014  11.912
 4757SOL     OW14722   3.476   0.396  11.550
 4757SOL    HW114723   3.432   0.328  11.600
 4757SOL    HW214724   3.455   0.477  11.596
 4758SOL     OW14725   2.893   0.759  12.129
 4758SOL    HW114726   2.883   0.775  12.223
 4758SOL    HW214727   2.865   0.668  12.118
 4759SOL     OW14728   2.843   1.567  12.893
 4759SOL    HW114729   2.827   1.610  12.810
 4759SOL    HW214730   2.887   1.485  12.870
 4760SOL     OW14731   3.703   1.494  12.769
 4760SOL    HW114732   3.727   1.525  12.682
 4760SOL    HW214733   3.783   1.503  12.821
 4761SOL     OW14734   2.213   0.914  12.983
 4761SOL    HW114735   2.295   0.936  13.029
 4761SOL    HW214736   2.240   0.853  12.915
 4762SOL     OW14737   3.359   0.271  11.304
 4762SOL    HW114738   3.287   0.208  11.313
 4762SOL    HW214739   3.369   0.309  11.391
 4763SOL     OW14740   3.148   0.827  11.199
 4763SOL    HW114741   3.190   0.741  11.202
 4763SOL    HW214742   3.181   0.866  11.118
 4764SOL     OW14743   2.931   1.339  12.029
 4764SOL    HW114744   2.936   1.267  11.966
 4764SOL    HW214745   2.989   1.406  11.993
 4765SOL     OW14746   2.169   0.811  12.118
 4765SOL    HW114747   2.263   0.831  12.110
 4765SOL    HW214748   2.167   0.720  12.150
 4766SOL     OW14749   2.199   0.538  12.187
 4766SOL    HW114750   2.156   0.453  12.172
 4766SOL    HW214751   2.274   0.538  12.128
 4767SOL     OW14752   2.995   0.379  12.871
 4767SOL    HW114753   2.946   0.433  12.933
 4767SOL    HW214754   3.081   0.420  12.866
 4768SOL     OW14755   3.014   0.226  12.653
 4768SOL    HW114756   3.004   0.279  12.732
 4768SOL    HW214757   3.041   0.288  12.586
 4769SOL     OW14758   1.868   1.318  11.366
 4769SOL    HW114759   1.781   1.332  11.328
 4769SOL    HW214760   1.865   1.228  11.400
 4770SOL     OW14761   1.982   1.726  12.162
 4770SOL    HW114762   1.946   1.661  12.102
 4770SOL    HW214763   2.012   1.797  12.106
 4771SOL     OW14764   2.358   1.570  12.083
 4771SOL    HW114765   2.425   1.635  12.105
 4771SOL    HW214766   2.402   1.510  12.022
 4772SOL     OW14767   2.836   0.785  12.394
 4772SOL    HW114768   2.894   0.769  12.468
 4772SOL    HW214769   2.752   0.749  12.421
 4773SOL     OW14770   1.895   0.549  12.289
 4773SOL    HW114771   1.969   0.524  12.234
 4773SOL    HW214772   1.930   0.547  12.378
 4774SOL     OW14773   2.067   0.528  12.884
 4774SOL    HW114774   2.139   0.507  12.824
 4774SOL    HW214775   2.024   0.604  12.844
 4775SOL     OW14776   3.243   0.934  12.828
 4775SOL    HW114777   3.264   1.027  12.824
 4775SOL    HW214778   3.238   0.907  12.736
 4776SOL     OW14779   2.679   0.573  11.539
 4776SOL    HW114780   2.686   0.498  11.480
 4776SOL    HW214781   2.605   0.623  11.507
 4777SOL     OW14782   3.500   0.602  12.352
 4777SOL    HW114783   3.489   0.541  12.425
 4777SOL    HW214784   3.586   0.582  12.316
 4778SOL     OW14785   2.114   1.535  12.875
 4778SOL    HW114786   2.094   1.602  12.940
 4778SOL    HW214787   2.120   1.454  12.926
 4779SOL     OW14788   2.577   0.450  12.423
 4779SOL    HW114789   2.522   0.374  12.401
 4779SOL    HW214790   2.565   0.510  12.350
 4780SOL     OW14791   2.784   1.679  12.643
 4780SOL    HW114792   2.761   1.639  12.559
 4780SOL    HW214793   2.778   1.773  12.628
 4781SOL     OW14794   2.323   0.493  11.352
 4781SOL    HW114795   2.381   0.565  11.377
 4781SOL    HW214796   2.237   0.534  11.340
 4782SOL     OW14797   2.001   1.142  12.646
 4782SOL    HW114798   2.004   1.094  12.730
 4782SOL    HW214799   2.019   1.075  12.580
 4783SOL     OW14800   3.181   1.043  12.392
 4783SOL    HW114801   3.203   0.980  12.323
 4783SOL    HW214802   3.115   1.100  12.352
 4784SOL     OW14803   3.178   0.854  11.476
 4784SOL    HW114804   3.102   0.827  11.528
 4784SOL    HW214805   3.149   0.843  11.385
 4785SOL     OW14806   3.646   1.738  12.332
 4785SOL    HW114807   3.701   1.766  12.259
 4785SOL    HW214808   3.614   1.652  12.307
 4786SOL     OW14809   3.102   1.734  12.278
 4786SOL    HW114810   3.184   1.758  12.236
 4786SOL    HW214811   3.111   1.640  12.299
 4787SOL     OW14812   1.952   1.260  12.187
 4787SOL    HW114813   1.931   1.279  12.278
 4787SOL    HW214814   1.877   1.210  12.155
 4788SOL     OW14815   2.540   1.671  12.907
 4788SOL    HW114816   2.484   1.748  12.903
 4788SOL    HW214817   2.608   1.687  12.842
 4789SOL     OW14818   3.548   0.118  11.661
 4789SOL    HW114819   3.629   0.135  11.612
 4789SOL    HW214820   3.553   0.025  11.683
 4790SOL     OW14821   3.254   1.567  11.663
 4790SOL    HW114822   3.312   1.601  11.595
 4790SOL    HW214823   3.203   1.644  11.691
 4791SOL     OW14824   2.031   1.730  13.035
 4791SOL    HW114825   1.964   1.697  13.095
 4791SOL    HW214826   2.005   1.821  13.019
 4792SOL     OW14827   3.139   0.928  11.843
 4792SOL    HW114828   3.214   0.870  11.855
 4792SOL    HW214829   3.173   1.000  11.789
 4793SOL     OW14830   2.667   1.276  12.597
 4793SOL    HW114831   2.639   1.317  12.678
 4793SOL    HW214832   2.597   1.296  12.535
 4794SOL     OW14833   2.536   1.626  11.323
 4794SOL    HW114834   2.546   1.638  11.228
 4794SOL    HW214835   2.479   1.549  11.331
 4795SOL     OW14836   3.479   1.728  12.564
 4795SOL    HW114837   3.536   1.732  12.487
 4795SOL    HW214838   3.465   1.819  12.588
 4796SOL     OW14839   3.705   0.182  12.143
 4796SOL    HW114840   3.729   0.097  12.106
 4796SOL    HW214841   3.619   0.202  12.106
 4797SOL     OW14842   2.124   0.314  11.886
 4797SOL    HW114843   2.038   0.349  11.863
 4797SOL    HW214844   2.123   0.309  11.982
 4798SOL     OW14845   3.070   1.602  11.205
 4798SOL    HW114846   3.059   1.510  11.232
 4798SOL    HW214847   3.003   1.615  11.137
 4799SOL     OW14848   2.686   1.007  12.546
 4799SOL    HW114849   2.726   1.002  12.460
 4799SOL    HW214850   2.682   1.100  12.566
 4800SOL     OW14851   2.778   0.911  11.463
 4800SOL    HW114852   2.838   0.944  11.396
 4800SOL    HW214853   2.828   0.843  11.509
 4801SOL     OW14854   3.349   1.632  11.217
 4801SOL    HW114855   3.255   1.621  11.201
 4801SOL    HW214856   3.387   1.637  11.129
 4802SOL     OW14857   2.232   1.294  12.666
 4802SOL    HW114858   2.221   1.372  12.612
 4802SOL    HW214859   2.153   1.243  12.651
 4803SOL     OW14860   3.460   1.280  12.448
 4803SOL    HW114861   3.529   1.270  12.513
 4803SOL    HW214862   3.403   1.349  12.483
 4804SOL     OW14863   2.923   1.111  11.883
 4804SOL    HW114864   2.850   1.060  11.920
 4804SOL    HW214865   2.986   1.044  11.855
 4805SOL     OW14866   2.877   0.250  12.143
 4805SOL    HW114867   2.868   0.199  12.063
 4805SOL    HW214868   2.876   0.185  12.213
 4806SOL     OW14869   2.467   1.489  11.653
 4806SOL    HW114870   2.511   1.439  11.584
 4806SOL    HW214871   2.408   1.547  11.607
 4807SOL     OW14872   3.583   0.395  12.543
 4807SOL    HW114873   3.656   0.458  12.543
 4807SOL    HW214874   3.615   0.323  12.489
 4808SOL     OW14875   2.123   1.343  11.457
 4808SOL    HW114876   2.030   1.338  11.436
 4808SOL    HW214877   2.126   1.377  11.547
 4809SOL     OW14878   1.976   1.031  12.897
 4809SOL    HW114879   1.900   1.004  12.948
 4809SOL    HW214880   2.050   0.988  12.940
 4810SOL     OW14881   2.558   0.264  12.677
 4810SOL    HW114882   2.623   0.207  12.635
 4810SOL    HW214883   2.584   0.267  12.769
 4811SOL     OW14884   1.965   0.317  11.164
 4811SOL    HW114885   1.898   0.336  11.230
 4811SOL    HW214886   1.971   0.397  11.112
 4812SOL     OW14887   3.285   0.856  12.568
 4812SOL    HW114888   3.234   0.917  12.515
 4812SOL    HW214889   3.373   0.859  12.532
 4813SOL     OW14890   1.942   0.150  11.511
 4813SOL    HW114891   1.910   0.208  11.441
 4813SOL    HW214892   2.029   0.123  11.482
 4814SOL     OW14893   3.040   1.335  11.290
 4814SOL    HW114894   2.948   1.306  11.291
 4814SOL    HW214895   3.066   1.336  11.382
 4815SOL     OW14896   2.485   0.828  12.606
 4815SOL    HW114897   2.541   0.904  12.592
 4815SOL    HW214898   2.545   0.755  12.615
 4816SOL     OW14899   3.344   1.786  12.154
 4816SOL    HW114900   3.366   1.852  12.088
 4816SOL    HW214901   3.428   1.753  12.184
 4817SOL     OW14902   2.580   0.559  12.875
 4817SOL    HW114903   2.624   0.620  12.934
 4817SOL    HW214904   2.602   0.472  12.910
 4818SOL     OW14905   3.336   1.194  12.801
 4818SOL    HW114906   3.325   1.210  12.894
 4818SOL    HW214907   3.428   1.211  12.784
 4819SOL     OW14908   2.233   1.748  12.740
 4819SOL    HW114909   2.173   1.755  12.666
 4819SOL    HW214910   2.208   1.667  12.784
 4820SOL     OW14911   3.524   0.880  12.431
 4820SOL    HW114912   3.524   0.795  12.387
 4820SOL    HW214913   3.517   0.944  12.360
 4821SOL     OW14914   3.080   0.340  11.613
 4821SOL    HW114915   3.150   0.275  11.603
 4821SOL    HW214916   3.099   0.384  11.696
 4822SOL     OW14917   2.450   0.734  11.844
 4822SOL    HW114918   2.489   0.820  11.830
 4822SOL    HW214919   2.384   0.726  11.775
 4823SOL     OW14920   3.614   0.381  12.814
 4823SOL    HW114921   3.594   0.391  12.721
 4823SOL    HW214922   3.553   0.314  12.845
 4824SOL     OW14923   3.617   0.930  12.684
 4824SOL    HW114924   3.606   1.023  12.703
 4824SOL    HW214925   3.591   0.920  12.593
 4825SOL     OW14926   2.726   1.365  11.214
 4825SOL    HW114927   2.687   1.391  11.298
 4825SOL    HW214928   2.741   1.447  11.168
 4826SOL     OW14929   2.525   1.790  12.110
 4826SOL    HW114930   2.511   1.882  12.088
 4826SOL    HW214931   2.620   1.778  12.103
 4827SOL     OW14932   2.732   0.971  12.026
 4827SOL    HW114933   2.782   0.899  12.064
 4827SOL    HW214934   2.693   1.015  12.101
 4828SOL     OW14935   2.939   0.990  11.262
 4828SOL    HW114936   2.917   1.041  11.184
 4828SOL    HW214937   3.013   0.935  11.234
 4829SOL     OW14938   3.710   1.556  12.013
 4829SOL    HW114939   3.631   1.540  11.962
 4829SOL    HW214940   3.711   1.488  12.079
 4830SOL     OW14941   2.090   1.297  13.025
 4830SOL    HW114942   2.025   1.234  12.997
 4830SOL    HW214943   2.074   1.310  13.119
 4831SOL     OW14944   1.944   1.220  11.839
 4831SOL    HW114945   1.963   1.176  11.922
 4831SOL    HW214946   2.016   1.194  11.781
 4832SOL     OW14947   2.546   1.408  12.803
 4832SOL    HW114948   2.467   1.365  12.836
 4832SOL    HW214949   2.542   1.496  12.839
 4833SOL     OW14950   3.675   0.181  12.417
 4833SOL    HW114951   3.677   0.086  12.426
 4833SOL    HW214952   3.694   0.197  12.324
 4834SOL     OW14953   2.290   0.435  11.697
 4834SOL    HW114954   2.325   0.364  11.644
 4834SOL    HW214955   2.242   0.390  11.767
 4835SOL     OW14956   3.556   1.490  12.267
 4835SOL    HW114957   3.479   1.469  12.215
 4835SOL    HW214958   3.563   1.418  12.330
 4836SOL     OW14959   2.196   0.558  12.468
 4836SOL    HW114960   2.248   0.497  12.521
 4836SOL    HW214961   2.215   0.531  12.378
 4837SOL     OW14962   2.692   1.578  11.847
 4837SOL    HW114963   2.670   1.639  11.776
 4837SOL    HW214964   2.618   1.517  11.849
 4838SOL     OW14965   3.322   0.254  12.282
 4838SOL    HW114966   3.336   0.166  12.316
 4838SOL    HW214967   3.267   0.298  12.347
 4839SOL     OW14968   2.864   0.025  12.317
 4839SOL    HW114969   2.780   0.002  12.277
 4839SOL    HW214970   2.910   3.941  12.326
 4840SOL     OW14971   2.637   1.334  11.491
 4840SOL    HW114972   2.608   1.243  11.500
 4840SOL    HW214973   2.717   1.339  11.543
 4841SOL     OW14974   2.484   1.555  12.460
 4841SOL    HW114975   2.484   1.638  12.508
 4841SOL    HW214976   2.572   1.549  12.423
 4842SOL     OW14977   3.168   0.069  11.331
 4842SOL    HW114978   3.171   3.981  11.294
 4842SOL    HW214979   3.086   0.072  11.380
 4843SOL     OW14980   3.140   0.456  11.856
 4843SOL    HW114981   3.094   0.540  11.850
 4843SOL    HW214982   3.144   0.437  11.950
 4844SOL     OW14983   3.453   0.210  12.040
 4844SOL    HW114984   3.405   0.234  12.118
 4844SOL    HW214985   3.451   0.289  11.985
 4845SOL     OW14986   1.906   1.068  11.479
 4845SOL    HW114987   2.000   1.060  11.462
 4845SOL    HW214988   1.878   0.980  11.504
 4846SOL     OW14989   2.750   1.660  11.510
 4846SOL    HW114990   2.677   1.643  11.451
 4846SOL    HW214991   2.721   1.732  11.565
 4847SOL     OW14992   2.085   0.618  13.156
 4847SOL    HW114993   1.994   0.626  13.187
 4847SOL    HW214994   2.077   0.599  13.063
 4848SOL     OW14995   2.116   0.267   0.127
 4848SOL    HW114996   2.164   0.333   0.176
 4848SOL    HW214997   2.024   0.294   0.134
 4849SOL     OW14998   1.870   0.388  13.644
 4849SOL    HW114999   1.776   0.399  13.656
 4849SOL    HW215000   1.880   0.299  13.610
 4850SOL     OW15001   3.381   1.496  13.731
 4850SOL    HW115002   3.329   1.422  13.763
 4850SOL    HW215003   3.338   1.522  13.649
 4851SOL     OW15004   2.996   0.697  13.727
 4851SOL    HW115005   3.047   0.775  13.708
 4851SOL    HW215006   2.937   0.723  13.798
 4852SOL     OW15007   3.639   0.621  13.256
 4852SOL    HW115008   3.614   0.612  13.164
 4852SOL    HW215009   3.605   0.542  13.299
 4853SOL     OW15010   2.545   1.013  13.671
 4853SOL    HW115011   2.598   0.994  13.749
 4853SOL    HW215012   2.470   1.062  13.704
 4854SOL     OW15013   3.471   0.457  13.757
 4854SOL    HW115014   3.382   0.465  13.723
 4854SOL    HW215015   3.494   0.545  13.785
 4855SOL     OW15016   2.095   1.686  13.495
 4855SOL    HW115017   2.101   1.765  13.549
 4855SOL    HW215018   2.174   1.688  13.441
 4856SOL     OW15019   2.098   1.426  13.569
 4856SOL    HW115020   2.090   1.521  13.560
 4856SOL    HW215021   2.035   1.403  13.637
 4857SOL     OW15022   2.100   1.112   0.030
 4857SOL    HW115023   2.120   1.048   0.098
 4857SOL    HW215024   2.033   1.168   0.067
 4858SOL     OW15025   2.441   0.985  13.171
 4858SOL    HW115026   2.489   1.030  13.102
 4858SOL    HW215027   2.480   1.017  13.252
 4859SOL     OW15028   1.983   0.660  13.588
 4859SOL    HW115029   1.955   0.569  13.601
 4859SOL    HW215030   1.967   0.702  13.672
 4860SOL     OW15031   3.703   1.759  13.368
 4860SOL    HW115032   3.775   1.733  13.426
 4860SOL    HW215033   3.721   1.850  13.347
 4861SOL     OW15034   1.856   1.613  13.215
 4861SOL    HW115035   1.843   1.523  13.187
 4861SOL    HW215036   1.907   1.606  13.296
 4862SOL     OW15037   3.547   0.917  13.668
 4862SOL    HW115038   3.633   0.882  13.646
 4862SOL    HW215039   3.524   0.975  13.595
 4863SOL     OW15040   3.504   1.104  13.463
 4863SOL    HW115041   3.588   1.107  13.418
 4863SOL    HW215042   3.512   1.169  13.532
 4864SOL     OW15043   2.466   1.382  13.758
 4864SOL    HW115044   2.421   1.298  13.764
 4864SOL    HW215045   2.443   1.416  13.671
 4865SOL     OW15046   2.685   0.007  13.550
 4865SOL    HW115047   2.728   0.088  13.522
 4865SOL    HW215048   2.591   0.028  13.546
 4866SOL     OW15049   3.388   0.998  13.236
 4866SOL    HW115050   3.320   0.940  13.270
 4866SOL    HW215051   3.429   1.034  13.314
 4867SOL     OW15052   3.513   1.749  13.613
 4867SOL    HW115053   3.493   1.716  13.525
 4867SOL    HW215054   3.511   1.672  13.669
 4868SOL     OW15055   2.454   0.720  13.301
 4868SOL    HW115056   2.456   0.803  13.255
 4868SOL    HW215057   2.389   0.732  13.370
 4869SOL     OW15058   3.094   0.342   0.047
 4869SOL    HW115059   3.010   0.328   0.090
 4869SOL    HW215060   3.157   0.298   0.103
 4870SOL     OW15061   3.439   1.677  13.343
 4870SOL    HW115062   3.531   1.704  13.337
 4870SOL    HW215063   3.413   1.660  13.252
 4871SOL     OW15064   2.913   0.697  13.457
 4871SOL    HW115065   2.929   0.684  13.550
 4871SOL    HW215066   2.830   0.652  13.441
 4872SOL     OW15067   1.941   0.816  13.813
 4872SOL    HW115068   2.019   0.814  13.868
 4872SOL    HW215069   1.892   0.892  13.844
 4873SOL     OW15070   2.757   0.352  13.233
 4873SOL    HW115071   2.799   0.412  13.171
 4873SOL    HW215072   2.746   0.271  13.184
 4874SOL     OW15073   3.223   1.133  13.547
 4874SOL    HW115074   3.313   1.134  13.516
 4874SOL    HW215075   3.181   1.206  13.501
 4875SOL     OW15076   2.858   1.439  13.500
 4875SOL    HW115077   2.830   1.516  13.451
 4875SOL    HW215078   2.824   1.454  13.589
 4876SOL     OW15079   2.283   1.789  13.842
 4876SOL    HW115080   2.240   1.717  13.889
 4876SOL    HW215081   2.361   1.808  13.894
 4877SOL     OW15082   3.655   1.049   0.000
 4877SOL    HW115083   3.599   1.042  13.823
 4877SOL    HW215084   3.595   1.048   0.074
 4878SOL     OW15085   2.178   0.962  13.289
 4878SOL    HW115086   2.260   0.982  13.243
 4878SOL    HW215087   2.149   0.879  13.251
 4879SOL     OW15088   3.360   0.732  13.753
 4879SOL    HW115089   3.346   0.699  13.842
 4879SOL    HW215090   3.426   0.801  13.763
 4880SOL     OW15091   2.986   1.779  13.262
 4880SOL    HW115092   2.911   1.740  13.307
 4880SOL    HW215093   3.010   1.715  13.195
 4881SOL     OW15094   3.486   1.385  13.121
 4881SOL    HW115095   3.442   1.469  13.107
 4881SOL    HW215096   3.419   1.320  13.101
 4882SOL     OW15097   2.341   1.709  13.376
 4882SOL    HW115098   2.375   1.785  13.424
 4882SOL    HW215099   2.397   1.703  13.299
 4883SOL     OW15100   3.284   0.175  13.437
 4883SOL    HW115101   3.245   0.114  13.375
 4883SOL    HW215102   3.371   0.138  13.455
 4884SOL     OW15103   2.779   1.687   0.007
 4884SOL    HW115104   2.801   1.621   0.073
 4884SOL    HW215105   2.745   1.637  13.833
 4885SOL     OW15106   2.257   0.699  13.503
 4885SOL    HW115107   2.275   0.605  13.516
 4885SOL    HW215108   2.163   0.707  13.520
 4886SOL     OW15109   2.507   0.126  13.143
 4886SOL    HW115110   2.525   0.040  13.181
 4886SOL    HW215111   2.445   0.108  13.073
 4887SOL     OW15112   2.412   0.055  13.525
 4887SOL    HW115113   2.336   0.057  13.584
 4887SOL    HW215114   2.404   0.135  13.473
 4888SOL     OW15115   3.289   1.200  13.073
 4888SOL    HW115116   3.318   1.125  13.125
 4888SOL    HW215117   3.203   1.223  13.109
 4889SOL     OW15118   2.196   0.047  13.244
 4889SOL    HW115119   2.202   0.111  13.173
 4889SOL    HW215120   2.277   0.059  13.294
 4890SOL     OW15121   2.805   0.252  13.491
 4890SOL    HW115122   2.780   0.290  13.407
 4890SOL    HW215123   2.900   0.262  13.493
 4891SOL     OW15124   2.323   1.144  13.768
 4891SOL    HW115125   2.251   1.132  13.830
 4891SOL    HW215126   2.282   1.133  13.682
 4892SOL     OW15127   3.128   1.795  13.634
 4892SOL    HW115128   3.173   1.863  13.584
 4892SOL    HW215129   3.060   1.842  13.682
 4893SOL     OW15130   2.883   0.539  13.065
 4893SOL    HW115131   2.839   0.622  13.045
 4893SOL    HW215132   2.946   0.561  13.133
 4894SOL     OW15133   2.766   0.474  13.671
 4894SOL    HW115134   2.697   0.521  13.625
 4894SOL    HW215135   2.773   0.390  13.625
 4895SOL     OW15136   2.864   0.038  13.792
 4895SOL    HW115137   2.829   0.063  13.707
 4895SOL    HW215138   2.888   3.945  13.782
 4896SOL     OW15139   3.729   0.822  13.412
 4896SOL    HW115140   3.775   0.765  13.473
 4896SOL    HW215141   3.693   0.762  13.346
 4897SOL     OW15142   2.356   1.422  13.183
 4897SOL    HW115143   2.280   1.396  13.236
 4897SOL    HW215144   2.346   1.372  13.102
 4898SOL     OW15145   3.541   1.272  13.663
 4898SOL    HW115146   3.636   1.273  13.678
 4898SOL    HW215147   3.511   1.355  13.700
 4899SOL     OW15148   3.256   0.578  13.102
 4899SOL    HW115149   3.193   0.557  13.172
 4899SOL    HW215150   3.341   0.559  13.141
 4900SOL     OW15151   2.390   0.266  13.349
 4900SOL    HW115152   2.447   0.227  13.282
 4900SOL    HW215153   2.359   0.347  13.309
 4901SOL     OW15154   2.572   1.066  13.400
 4901SOL    HW115155   2.557   1.049  13.493
 4901SOL    HW215156   2.648   1.012  13.377
 4902SOL     OW15157   2.205   1.114  13.525
 4902SOL    HW115158   2.209   1.192  13.469
 4902SOL    HW215159   2.200   1.041  13.463
 4903SOL     OW15160   2.429   0.542  13.864
 4903SOL    HW115161   2.439   0.609  13.796
 4903SOL    HW215162   2.491   0.567   0.032
 4904SOL     OW15163   3.105   1.354  13.418
 4904SOL    HW115164   3.160   1.427  13.446
 4904SOL    HW215165   3.019   1.374  13.453
 4905SOL     OW15166   3.443   0.638  13.509
 4905SOL    HW115167   3.405   0.678  13.587
 4905SOL    HW215168   3.476   0.711  13.458
 4906SOL     OW15169   3.060   0.534  13.291
 4906SOL    HW115170   3.065   0.455  13.344
 4906SOL    HW215171   3.018   0.599  13.347
 4907SOL     OW15172   2.196   0.052  13.685
 4907SOL    HW115173   2.178   0.144  13.701
 4907SOL    HW215174   2.115   0.007  13.711
 4908SOL     OW15175   3.466   0.395  13.405
 4908SOL    HW115176   3.428   0.329  13.463
 4908SOL    HW215177   3.450   0.478  13.450
 4909SOL     OW15178   3.357   0.277  13.163
 4909SOL    HW115179   3.288   0.212  13.177
 4909SOL    HW215180   3.372   0.316  13.250
 4910SOL     OW15181   3.148   0.827  13.060
 4910SOL    HW115182   3.190   0.741  13.064
 4910SOL    HW215183   3.180   0.866  12.979
 4911SOL     OW15184   1.867   1.318  13.228
 4911SOL    HW115185   1.781   1.332  13.190
 4911SOL    HW215186   1.865   1.229  13.262
 4912SOL     OW15187   2.679   0.576  13.391
 4912SOL    HW115188   2.683   0.498  13.336
 4912SOL    HW215189   2.602   0.623  13.361
 4913SOL     OW15190   2.323   0.492  13.212
 4913SOL    HW115191   2.380   0.564  13.237
 4913SOL    HW215192   2.236   0.533  13.202
 4914SOL     OW15193   3.180   0.847  13.336
 4914SOL    HW115194   3.102   0.827  13.388
 4914SOL    HW215195   3.151   0.839  13.245
 4915SOL     OW15196   3.537   0.102  13.463
 4915SOL    HW115197   3.627   0.124  13.440
 4915SOL    HW215198   3.545   0.031  13.527
 4916SOL     OW15199   3.243   1.575  13.509
 4916SOL    HW115200   3.303   1.613  13.444
 4916SOL    HW215201   3.197   1.651  13.545
 4917SOL     OW15202   3.155   0.911  13.684
 4917SOL    HW115203   3.232   0.857  13.669
 4917SOL    HW215204   3.175   0.994  13.640
 4918SOL     OW15205   2.536   1.625  13.184
 4918SOL    HW115206   2.546   1.638  13.090
 4918SOL    HW215207   2.479   1.549  13.192
 4919SOL     OW15208   3.667   0.169   0.063
 4919SOL    HW115209   3.701   0.080   0.065
 4919SOL    HW215210   3.581   0.161   0.020
 4920SOL     OW15211   2.140   0.309  13.746
 4920SOL    HW115212   2.049   0.329  13.723
 4920SOL    HW215213   2.139   0.303  13.841
 4921SOL     OW15214   3.070   1.602  13.067
 4921SOL    HW115215   3.059   1.510  13.092
 4921SOL    HW215216   3.004   1.616  12.999
 4922SOL     OW15217   2.782   0.915  13.332
 4922SOL    HW115218   2.840   0.944  13.262
 4922SOL    HW215219   2.828   0.841  13.371
 4923SOL     OW15220   3.349   1.631  13.078
 4923SOL    HW115221   3.255   1.621  13.063
 4923SOL    HW215222   3.387   1.636  12.991
 4924SOL     OW15223   2.912   1.089  13.756
 4924SOL    HW115224   2.825   1.057  13.730
 4924SOL    HW215225   2.970   1.062  13.685
 4925SOL     OW15226   2.459   1.488  13.506
 4925SOL    HW115227   2.504   1.440  13.437
 4925SOL    HW215228   2.403   1.550  13.459
 4926SOL     OW15229   2.123   1.342  13.318
 4926SOL    HW115230   2.030   1.338  13.297
 4926SOL    HW215231   2.127   1.376  13.407
 4927SOL     OW15232   1.964   0.317  13.026
 4927SOL    HW115233   1.897   0.336  13.091
 4927SOL    HW215234   1.970   0.397  12.974
 4928SOL     OW15235   1.952   0.149  13.363
 4928SOL    HW115236   1.922   0.210  13.295
 4928SOL    HW215237   2.039   0.122  13.334
 4929SOL     OW15238   3.039   1.334  13.149
 4929SOL    HW115239   2.947   1.307  13.150
 4929SOL    HW215240   3.065   1.337  13.241
 4930SOL     OW15241   3.075   0.337  13.484
 4930SOL    HW115242   3.145   0.273  13.470
 4930SOL    HW215243   3.103   0.386  13.561
 4931SOL     OW15244   2.456   0.749  13.689
 4931SOL    HW115245   2.489   0.837  13.670
 4931SOL    HW215246   2.386   0.736  13.625
 4932SOL     OW15247   2.728   1.365  13.076
 4932SOL    HW115248   2.687   1.391  13.159
 4932SOL    HW215249   2.741   1.447  13.029
 4933SOL     OW15250   2.523   1.853   0.064
 4933SOL    HW115251   2.536   1.946   0.048
 4933SOL    HW215252   2.612   1.818   0.077
 4934SOL     OW15253   2.681   0.969   0.002
 4934SOL    HW115254   2.700   0.884   0.041
 4934SOL    HW215255   2.731   1.031   0.055
 4935SOL     OW15256   2.938   0.987  13.124
 4935SOL    HW115257   2.916   1.040  13.047
 4935SOL    HW215258   3.012   0.933  13.096
 4936SOL     OW15259   1.949   1.222  13.702
 4936SOL    HW115260   1.957   1.166  13.779
 4936SOL    HW215261   2.019   1.194  13.644
 4937SOL     OW15262   2.291   0.438  13.551
 4937SOL    HW115263   2.328   0.367  13.499
 4937SOL    HW215264   2.252   0.394  13.627
 4938SOL     OW15265   3.545   1.449   0.358
 4938SOL    HW115266   3.512   1.430   0.270
 4938SOL    HW215267   3.638   1.424   0.354
 4939SOL     OW15268   2.679   1.546  13.703
 4939SOL    HW115269   2.649   1.602  13.631
 4939SOL    HW215270   2.605   1.488  13.722
 4940SOL     OW15271   2.636   1.335  13.348
 4940SOL    HW115272   2.608   1.244  13.357
 4940SOL    HW215273   2.716   1.341  13.401
 4941SOL     OW15274   3.169   0.071  13.204
 4941SOL    HW115275   3.184   3.985  13.163
 4941SOL    HW215276   3.079   0.068  13.234
 4942SOL     OW15277   3.158   0.462  13.714
 4942SOL    HW115278   3.108   0.544  13.712
 4942SOL    HW215279   3.143   0.428  13.803
 4943SOL     OW15280   1.907   1.069  13.340
 4943SOL    HW115281   2.001   1.060  13.322
 4943SOL    HW215282   1.879   0.980  13.363
 4944SOL     OW15283   2.750   1.658  13.373
 4944SOL    HW115284   2.677   1.644  13.313
 4944SOL    HW215285   2.722   1.730  13.429
 4945SOL     OW15286   2.095   2.504   0.102
 4945SOL    HW115287   2.009   2.475   0.134
 4945SOL    HW215288   2.113   2.447   0.027
 4946SOL     OW15289   1.871   2.290   0.628
 4946SOL    HW115290   1.780   2.284   0.659
 4946SOL    HW215291   1.882   2.213   0.572
 4947SOL     OW15292   2.429   3.158   1.181
 4947SOL    HW115293   2.343   3.165   1.140
 4947SOL    HW215294   2.447   3.246   1.215
 4948SOL     OW15295   3.429   3.375   0.709
 4948SOL    HW115296   3.385   3.349   0.790
 4948SOL    HW215297   3.360   3.377   0.643
 4949SOL     OW15298   2.993   2.561   0.698
 4949SOL    HW115299   3.042   2.642   0.685
 4949SOL    HW215300   2.947   2.573   0.780
 4950SOL     OW15301   3.629   2.457   0.227
 4950SOL    HW115302   3.653   2.411   0.146
 4950SOL    HW215303   3.585   2.391   0.280
 4951SOL     OW15304   2.607   2.999   1.046
 4951SOL    HW115305   2.541   3.037   1.104
 4951SOL    HW215306   2.647   3.075   1.003
 4952SOL     OW15307   2.735   2.624   1.823
 4952SOL    HW115308   2.722   2.694   1.888
 4952SOL    HW215309   2.758   2.670   1.743
 4953SOL     OW15310   2.546   2.856   0.647
 4953SOL    HW115311   2.613   2.850   0.715
 4953SOL    HW215312   2.479   2.913   0.684
 4954SOL     OW15313   2.576   3.012   1.818
 4954SOL    HW115314   2.623   3.089   1.849
 4954SOL    HW215315   2.496   3.047   1.780
 4955SOL     OW15316   2.194   3.279   1.066
 4955SOL    HW115317   2.119   3.242   1.020
 4955SOL    HW215318   2.238   3.333   1.000
 4956SOL     OW15319   3.320   3.364   1.360
 4956SOL    HW115320   3.375   3.442   1.370
 4956SOL    HW215321   3.252   3.374   1.427
 4957SOL     OW15322   2.283   2.222   1.464
 4957SOL    HW115323   2.369   2.185   1.482
 4957SOL    HW215324   2.222   2.149   1.479
 4958SOL     OW15325   3.469   2.304   0.745
 4958SOL    HW115326   3.397   2.325   0.685
 4958SOL    HW215327   3.477   2.382   0.801
 4959SOL     OW15328   2.082   3.573   0.483
 4959SOL    HW115329   2.105   3.642   0.545
 4959SOL    HW215330   2.149   3.579   0.414
 4960SOL     OW15331   2.999   3.204   1.695
 4960SOL    HW115332   3.041   3.197   1.781
 4960SOL    HW215333   2.947   3.124   1.686
 4961SOL     OW15334   2.079   3.303   0.528
 4961SOL    HW115335   2.073   3.399   0.531
 4961SOL    HW215336   2.027   3.273   0.602
 4962SOL     OW15337   2.128   2.955   0.890
 4962SOL    HW115338   2.123   2.868   0.930
 4962SOL    HW215339   2.070   3.009   0.944
 4963SOL     OW15340   2.466   3.647   1.428
 4963SOL    HW115341   2.385   3.633   1.477
 4963SOL    HW215342   2.493   3.735   1.452
 4964SOL     OW15343   2.426   2.839   0.168
 4964SOL    HW115344   2.463   2.873   0.086
 4964SOL    HW215345   2.478   2.881   0.237
 4965SOL     OW15346   3.455   1.990   1.464
 4965SOL    HW115347   3.478   2.070   1.418
 4965SOL    HW215348   3.438   2.018   1.554
 4966SOL     OW15349   1.988   2.529   0.560
 4966SOL    HW115350   1.953   2.443   0.581
 4966SOL    HW215351   1.976   2.580   0.640
 4967SOL     OW15352   3.697   3.613   0.341
 4967SOL    HW115353   3.766   3.579   0.397
 4967SOL    HW215354   3.719   3.705   0.329
 4968SOL     OW15355   1.881   3.462   0.100
 4968SOL    HW115356   1.893   3.372   0.129
 4968SOL    HW215357   1.867   3.512   0.180
 4969SOL     OW15358   3.550   2.782   0.653
 4969SOL    HW115359   3.633   2.738   0.634
 4969SOL    HW215360   3.531   2.831   0.573
 4970SOL     OW15361   3.506   2.963   0.435
 4970SOL    HW115362   3.592   2.969   0.393
 4970SOL    HW215363   3.510   3.028   0.505
 4971SOL     OW15364   1.984   2.611   1.581
 4971SOL    HW115365   2.074   2.643   1.588
 4971SOL    HW215366   1.930   2.689   1.588
 4972SOL     OW15367   2.479   3.254   0.735
 4972SOL    HW115368   2.434   3.170   0.743
 4972SOL    HW215369   2.462   3.280   0.644
 4973SOL     OW15370   3.147   3.097   1.421
 4973SOL    HW115371   3.179   3.030   1.361
 4973SOL    HW215372   3.207   3.093   1.496
 4974SOL     OW15373   2.708   1.864   0.519
 4974SOL    HW115374   2.749   1.947   0.494
 4974SOL    HW215375   2.614   1.880   0.513
 4975SOL     OW15376   2.051   2.825   1.279
 4975SOL    HW115377   2.136   2.784   1.263
 4975SOL    HW215378   1.989   2.776   1.224
 4976SOL     OW15379   3.390   2.863   0.206
 4976SOL    HW115380   3.322   2.804   0.240
 4976SOL    HW215381   3.431   2.899   0.285
 4977SOL     OW15382   3.087   3.668   1.629
 4977SOL    HW115383   3.058   3.729   1.561
 4977SOL    HW215384   3.086   3.582   1.586
 4978SOL     OW15385   3.326   3.282   0.946
 4978SOL    HW115386   3.261   3.296   1.015
 4978SOL    HW215387   3.315   3.190   0.922
 4979SOL     OW15388   3.513   3.609   0.590
 4979SOL    HW115389   3.506   3.579   0.499
 4979SOL    HW215390   3.495   3.530   0.642
 4980SOL     OW15391   2.458   2.580   0.271
 4980SOL    HW115392   2.459   2.663   0.225
 4980SOL    HW215393   2.397   2.593   0.344
 4981SOL     OW15394   3.139   2.226   0.934
 4981SOL    HW115395   3.051   2.191   0.942
 4981SOL    HW215396   3.193   2.172   0.992
 4982SOL     OW15397   3.421   3.594   0.315
 4982SOL    HW115398   3.517   3.596   0.314
 4982SOL    HW215399   3.397   3.563   0.228
 4983SOL     OW15400   2.653   2.480   1.445
 4983SOL    HW115401   2.630   2.455   1.534
 4983SOL    HW215402   2.618   2.411   1.390
 4984SOL     OW15403   3.255   2.335   1.678
 4984SOL    HW115404   3.259   2.380   1.763
 4984SOL    HW215405   3.312   2.259   1.688
 4985SOL     OW15406   2.812   2.747   1.586
 4985SOL    HW115407   2.867   2.679   1.547
 4985SOL    HW215408   2.764   2.784   1.511
 4986SOL     OW15409   2.856   2.273   1.234
 4986SOL    HW115410   2.767   2.290   1.265
 4986SOL    HW215411   2.844   2.230   1.149
 4987SOL     OW15412   2.915   2.563   0.428
 4987SOL    HW115413   2.934   2.555   0.522
 4987SOL    HW215414   2.832   2.518   0.417
 4988SOL     OW15415   1.952   2.689   0.777
 4988SOL    HW115416   2.032   2.683   0.830
 4988SOL    HW215417   1.905   2.764   0.814
 4989SOL     OW15418   1.979   3.718   1.579
 4989SOL    HW115419   1.985   3.696   1.672
 4989SOL    HW215420   1.887   3.699   1.556
 4990SOL     OW15421   2.729   2.223   0.217
 4990SOL    HW115422   2.767   2.285   0.155
 4990SOL    HW215423   2.746   2.137   0.178
 4991SOL     OW15424   3.568   2.433   1.830
 4991SOL    HW115425   3.532   2.507   1.781
 4991SOL    HW215426   3.594   2.370   1.763
 4992SOL     OW15427   3.240   3.003   0.543
 4992SOL    HW115428   3.319   2.991   0.490
 4992SOL    HW215429   3.188   3.067   0.494
 4993SOL     OW15430   2.414   2.050   0.899
 4993SOL    HW115431   2.413   2.075   0.991
 4993SOL    HW215432   2.430   2.131   0.851
 4994SOL     OW15433   2.861   3.303   0.473
 4994SOL    HW115434   2.833   3.380   0.423
 4994SOL    HW215435   2.838   3.324   0.564
 4995SOL     OW15436   2.214   3.677   0.839
 4995SOL    HW115437   2.263   3.597   0.857
 4995SOL    HW215438   2.273   3.748   0.863
 4996SOL     OW15439   3.669   2.921   0.871
 4996SOL    HW115440   3.616   2.895   0.796
 4996SOL    HW215441   3.606   2.925   0.944
 4997SOL     OW15442   3.088   3.400   1.512
 4997SOL    HW115443   3.077   3.328   1.574
 4997SOL    HW215444   3.019   3.388   1.447
 4998SOL     OW15445   2.167   2.800   0.235
 4998SOL    HW115446   2.259   2.811   0.210
 4998SOL    HW215447   2.152   2.706   0.227
 4999SOL     OW15448   3.342   2.610   0.723
 4999SOL    HW115449   3.339   2.570   0.810
 4999SOL    HW215450   3.419   2.667   0.726
 5000SOL     OW15451   2.332   3.129   1.737
 5000SOL    HW115452   2.306   3.134   1.645
 5000SOL    HW215453   2.250   3.126   1.786
 5001SOL     OW15454   2.990   3.640   0.229
 5001SOL    HW115455   2.926   3.596   0.283
 5001SOL    HW215456   3.017   3.574   0.165
 5002SOL     OW15457   3.493   3.243   0.091
 5002SOL    HW115458   3.457   3.325   0.055
 5002SOL    HW215459   3.426   3.177   0.071
 5003SOL     OW15460   2.334   3.598   0.327
 5003SOL    HW115461   2.370   3.660   0.391
 5003SOL    HW215462   2.410   3.566   0.279
 5004SOL     OW15463   3.266   1.971   0.443
 5004SOL    HW115464   3.263   1.938   0.353
 5004SOL    HW215465   3.359   1.972   0.466
 5005SOL     OW15466   2.123   3.652   1.219
 5005SOL    HW115467   2.169   3.579   1.261
 5005SOL    HW215468   2.105   3.621   1.130
 5006SOL     OW15469   2.802   3.565   0.898
 5006SOL    HW115470   2.880   3.515   0.920
 5006SOL    HW215471   2.759   3.514   0.829
 5007SOL     OW15472   2.257   2.554   0.472
 5007SOL    HW115473   2.275   2.461   0.486
 5007SOL    HW215474   2.165   2.565   0.494
 5008SOL     OW15475   3.392   2.086   1.724
 5008SOL    HW115476   3.402   2.107   1.817
 5008SOL    HW215477   3.324   2.018   1.722
 5009SOL     OW15478   2.624   2.139   1.755
 5009SOL    HW115479   2.706   2.089   1.750
 5009SOL    HW215480   2.582   2.109   1.835
 5010SOL     OW15481   2.738   3.383   1.195
 5010SOL    HW115482   2.720   3.346   1.109
 5010SOL    HW215483   2.808   3.328   1.231
 5011SOL     OW15484   3.201   2.452   1.433
 5011SOL    HW115485   3.232   2.421   1.518
 5011SOL    HW215486   3.238   2.539   1.425
 5012SOL     OW15487   2.681   3.251   0.946
 5012SOL    HW115488   2.765   3.240   0.903
 5012SOL    HW215489   2.618   3.258   0.874
 5013SOL     OW15490   2.789   2.370   0.901
 5013SOL    HW115491   2.764   2.362   0.809
 5013SOL    HW215492   2.822   2.283   0.924
 5014SOL     OW15493   2.451   1.923   0.477
 5014SOL    HW115494   2.377   1.913   0.537
 5014SOL    HW215495   2.431   2.001   0.426
 5015SOL     OW15496   3.292   3.072   0.044
 5015SOL    HW115497   3.310   2.991   0.092
 5015SOL    HW215498   3.201   3.093   0.065
 5016SOL     OW15499   2.812   2.113   0.460
 5016SOL    HW115500   2.779   2.152   0.379
 5016SOL    HW215501   2.905   2.133   0.460
 5017SOL     OW15502   2.944   2.547   1.457
 5017SOL    HW115503   2.879   2.476   1.461
 5017SOL    HW215504   3.028   2.502   1.452
 5018SOL     OW15505   3.079   3.435   0.795
 5018SOL    HW115506   3.095   3.500   0.727
 5018SOL    HW215507   3.152   3.446   0.857
 5019SOL     OW15508   2.334   3.016   0.725
 5019SOL    HW115509   2.267   2.996   0.791
 5019SOL    HW215510   2.290   3.004   0.641
 5020SOL     OW15511   3.125   3.655   0.610
 5020SOL    HW115512   3.174   3.720   0.559
 5020SOL    HW215513   3.051   3.704   0.646
 5021SOL     OW15514   2.857   2.399   0.051
 5021SOL    HW115515   2.850   2.382  13.857
 5021SOL    HW215516   2.950   2.393   0.070
 5022SOL     OW15517   1.942   2.425   1.386
 5022SOL    HW115518   2.035   2.421   1.365
 5022SOL    HW215519   1.935   2.491   1.455
 5023SOL     OW15520   2.417   2.081   1.175
 5023SOL    HW115521   2.471   2.006   1.200
 5023SOL    HW215522   2.334   2.068   1.222
 5024SOL     OW15523   2.725   2.318   0.639
 5024SOL    HW115524   2.688   2.375   0.572
 5024SOL    HW215525   2.752   2.239   0.592
 5025SOL     OW15526   2.877   1.916   0.750
 5025SOL    HW115527   2.822   1.906   0.672
 5025SOL    HW215528   2.855   1.841   0.805
 5026SOL     OW15529   3.303   3.022   0.857
 5026SOL    HW115530   3.231   2.959   0.856
 5026SOL    HW215531   3.329   3.032   0.766
 5027SOL     OW15532   3.326   2.472   0.969
 5027SOL    HW115533   3.272   2.394   0.971
 5027SOL    HW215534   3.384   2.464   1.045
 5028SOL     OW15535   3.726   2.674   0.367
 5028SOL    HW115536   3.764   2.620   0.436
 5028SOL    HW215537   3.683   2.611   0.309
 5029SOL     OW15538   2.352   3.269   0.156
 5029SOL    HW115539   2.278   3.234   0.206
 5029SOL    HW215540   2.338   3.239   0.067
 5030SOL     OW15541   3.529   3.126   0.645
 5030SOL    HW115542   3.625   3.127   0.655
 5030SOL    HW215543   3.502   3.217   0.658
 5031SOL     OW15544   3.283   2.448   0.085
 5031SOL    HW115545   3.218   2.439   0.155
 5031SOL    HW215546   3.318   2.360   0.073
 5032SOL     OW15547   2.386   2.128   0.316
 5032SOL    HW115548   2.448   2.100   0.248
 5032SOL    HW215549   2.347   2.209   0.281
 5033SOL     OW15550   3.612   3.095   1.560
 5033SOL    HW115551   3.699   3.060   1.543
 5033SOL    HW215552   3.627   3.185   1.589
 5034SOL     OW15553   2.917   3.213   1.331
 5034SOL    HW115554   2.841   3.183   1.381
 5034SOL    HW215555   2.992   3.173   1.373
 5035SOL     OW15556   3.469   3.492   1.659
 5035SOL    HW115557   3.459   3.526   1.570
 5035SOL    HW215558   3.549   3.439   1.655
 5036SOL     OW15559   2.996   3.071   1.101
 5036SOL    HW115560   2.937   3.109   1.166
 5036SOL    HW215561   2.966   3.107   1.018
 5037SOL     OW15562   3.487   2.956   1.074
 5037SOL    HW115563   3.477   3.018   1.146
 5037SOL    HW215564   3.412   2.973   1.017
 5038SOL     OW15565   2.778   1.957   1.390
 5038SOL    HW115566   2.802   1.937   1.300
 5038SOL    HW215567   2.857   1.996   1.428
 5039SOL     OW15568   2.846   2.977   1.723
 5039SOL    HW115569   2.755   2.993   1.747
 5039SOL    HW215570   2.842   2.898   1.669
 5040SOL     OW15571   2.580   2.922   0.379
 5040SOL    HW115572   2.564   2.901   0.470
 5040SOL    HW215573   2.654   2.867   0.353
 5041SOL     OW15574   2.282   2.676   1.251
 5041SOL    HW115575   2.350   2.689   1.318
 5041SOL    HW215576   2.249   2.588   1.267
 5042SOL     OW15577   3.125   2.237   1.281
 5042SOL    HW115578   3.158   2.314   1.326
 5042SOL    HW215579   3.035   2.258   1.259
 5043SOL     OW15580   1.936   3.436   1.356
 5043SOL    HW115581   1.909   3.509   1.301
 5043SOL    HW215582   2.032   3.436   1.349
 5044SOL     OW15583   2.201   2.978   0.485
 5044SOL    HW115584   2.197   3.049   0.421
 5044SOL    HW215585   2.209   2.899   0.432
 5045SOL     OW15586   2.402   2.393   0.864
 5045SOL    HW115587   2.415   2.450   0.789
 5045SOL    HW215588   2.470   2.420   0.926
 5046SOL     OW15589   3.110   3.209   0.400
 5046SOL    HW115590   3.165   3.282   0.427
 5046SOL    HW215591   3.022   3.233   0.432
 5047SOL     OW15592   3.150   3.323   1.149
 5047SOL    HW115593   3.206   3.328   1.226
 5047SOL    HW215594   3.095   3.246   1.165
 5048SOL     OW15595   3.438   2.483   0.488
 5048SOL    HW115596   3.389   2.529   0.556
 5048SOL    HW215597   3.461   2.551   0.425
 5049SOL     OW15598   2.207   3.393   1.309
 5049SOL    HW115599   2.196   3.347   1.226
 5049SOL    HW215600   2.302   3.403   1.318
 5050SOL     OW15601   2.281   2.609   1.606
 5050SOL    HW115602   2.343   2.651   1.545
 5050SOL    HW215603   2.327   2.530   1.635
 5051SOL     OW15604   3.469   2.641   1.686
 5051SOL    HW115605   3.384   2.684   1.680
 5051SOL    HW215606   3.522   2.684   1.618
 5052SOL     OW15607   2.857   1.995   1.751
 5052SOL    HW115608   2.917   2.067   1.731
 5052SOL    HW215609   2.906   1.916   1.727
 5053SOL     OW15610   2.373   1.890   1.750
 5053SOL    HW115611   2.322   1.835   1.689
 5053SOL    HW215612   2.320   1.969   1.761
 5054SOL     OW15613   2.448   2.736   1.033
 5054SOL    HW115614   2.482   2.825   1.034
 5054SOL    HW215615   2.391   2.731   1.110
 5055SOL     OW15616   3.211   2.721   1.022
 5055SOL    HW115617   3.125   2.706   0.981
 5055SOL    HW215618   3.257   2.638   1.013
 5056SOL     OW15619   3.083   2.405   0.271
 5056SOL    HW115620   3.087   2.325   0.323
 5056SOL    HW215621   3.025   2.464   0.321
 5057SOL     OW15622   1.908   3.174   1.274
 5057SOL    HW115623   1.940   3.119   1.346
 5057SOL    HW215624   1.914   3.263   1.309
 5058SOL     OW15625   2.579   2.488   1.052
 5058SOL    HW115626   2.658   2.475   0.998
 5058SOL    HW215627   2.554   2.579   1.036
 5059SOL     OW15628   3.592   2.821   1.866
 5059SOL    HW115629   3.553   2.753   1.810
 5059SOL    HW215630   3.527   2.836   1.934
 5060SOL     OW15631   2.225   1.906   0.611
 5060SOL    HW115632   2.145   1.953   0.587
 5060SOL    HW215633   2.209   1.876   0.700
 5061SOL     OW15634   3.485   2.242   0.369
 5061SOL    HW115635   3.508   2.174   0.433
 5061SOL    HW215636   3.459   2.317   0.422
 5062SOL     OW15637   2.889   2.619   0.958
 5062SOL    HW115638   2.881   2.636   1.052
 5062SOL    HW215639   2.863   2.528   0.948
 5063SOL     OW15640   2.848   3.430   1.723
 5063SOL    HW115641   2.828   3.470   1.638
 5063SOL    HW215642   2.889   3.347   1.700
 5064SOL     OW15643   3.703   3.357   1.596
 5064SOL    HW115644   3.728   3.388   1.510
 5064SOL    HW215645   3.783   3.364   1.649
 5065SOL     OW15646   2.215   2.783   1.809
 5065SOL    HW115647   2.295   2.800   1.858
 5065SOL    HW215648   2.240   2.720   1.742
 5066SOL     OW15649   3.415   2.117   0.138
 5066SOL    HW115650   3.352   2.050   0.162
 5066SOL    HW215651   3.435   2.162   0.220
 5067SOL     OW15652   3.150   2.691   0.056
 5067SOL    HW115653   3.196   2.608   0.059
 5067SOL    HW215654   3.167   2.725  13.868
 5068SOL     OW15655   2.930   3.200   0.856
 5068SOL    HW115656   2.936   3.128   0.793
 5068SOL    HW215657   2.988   3.268   0.821
 5069SOL     OW15658   2.172   2.673   0.945
 5069SOL    HW115659   2.265   2.695   0.937
 5069SOL    HW215660   2.171   2.585   0.983
 5070SOL     OW15661   2.180   2.360   1.013
 5070SOL    HW115662   2.138   2.289   0.965
 5070SOL    HW215663   2.261   2.377   0.964
 5071SOL     OW15664   2.996   2.235   1.685
 5071SOL    HW115665   2.948   2.289   1.748
 5071SOL    HW215666   3.083   2.275   1.681
 5072SOL     OW15667   3.021   2.060   1.471
 5072SOL    HW115668   3.010   2.123   1.543
 5072SOL    HW215669   3.064   2.110   1.402
 5073SOL     OW15670   1.885   3.171   0.180
 5073SOL    HW115671   1.803   3.187   0.134
 5073SOL    HW215672   1.874   3.085   0.220
 5074SOL     OW15673   1.961   3.635   0.940
 5074SOL    HW115674   1.929   3.558   0.893
 5074SOL    HW215675   2.044   3.656   0.898
 5075SOL     OW15676   2.353   3.439   0.904
 5075SOL    HW115677   2.421   3.502   0.929
 5075SOL    HW215678   2.398   3.376   0.847
 5076SOL     OW15679   2.836   2.648   1.224
 5076SOL    HW115680   2.897   2.631   1.295
 5076SOL    HW215681   2.752   2.613   1.255
 5077SOL     OW15682   1.900   2.400   1.118
 5077SOL    HW115683   1.984   2.402   1.073
 5077SOL    HW215684   1.922   2.414   1.210
 5078SOL     OW15685   2.059   2.392   1.726
 5078SOL    HW115686   2.120   2.357   1.660
 5078SOL    HW215687   2.016   2.465   1.681
 5079SOL     OW15688   3.243   2.796   1.657
 5079SOL    HW115689   3.264   2.889   1.654
 5079SOL    HW215690   3.238   2.769   1.566
 5080SOL     OW15691   2.676   2.439   0.381
 5080SOL    HW115692   2.685   2.364   0.322
 5080SOL    HW215693   2.605   2.490   0.343
 5081SOL     OW15694   3.501   2.463   1.180
 5081SOL    HW115695   3.490   2.403   1.254
 5081SOL    HW215696   3.588   2.443   1.146
 5082SOL     OW15697   2.102   3.409   1.722
 5082SOL    HW115698   2.079   3.476   1.787
 5082SOL    HW215699   2.107   3.328   1.772
 5083SOL     OW15700   2.570   2.306   1.254
 5083SOL    HW115701   2.514   2.234   1.228
 5083SOL    HW215702   2.563   2.370   1.183
 5084SOL     OW15703   2.786   3.532   1.471
 5084SOL    HW115704   2.760   3.492   1.388
 5084SOL    HW215705   2.778   3.626   1.456
 5085SOL     OW15706   2.300   2.361   0.224
 5085SOL    HW115707   2.365   2.430   0.239
 5085SOL    HW215708   2.225   2.406   0.186
 5086SOL     OW15709   2.004   3.006   1.475
 5086SOL    HW115710   2.005   2.958   1.557
 5086SOL    HW215711   2.022   2.939   1.408
 5087SOL     OW15712   3.181   2.905   1.220
 5087SOL    HW115713   3.204   2.842   1.151
 5087SOL    HW215714   3.115   2.962   1.180
 5088SOL     OW15715   3.180   2.719   0.327
 5088SOL    HW115716   3.108   2.686   0.380
 5088SOL    HW215717   3.153   2.703   0.237
 5089SOL     OW15718   3.643   3.598   1.158
 5089SOL    HW115719   3.700   3.625   1.087
 5089SOL    HW215720   3.613   3.511   1.134
 5090SOL     OW15721   3.107   3.595   1.107
 5090SOL    HW115722   3.190   3.617   1.065
 5090SOL    HW215723   3.115   3.501   1.127
 5091SOL     OW15724   1.951   3.125   1.012
 5091SOL    HW115725   1.933   3.142   1.104
 5091SOL    HW215726   1.876   3.074   0.982
 5092SOL     OW15727   2.542   3.529   1.738
 5092SOL    HW115728   2.483   3.604   1.741
 5092SOL    HW215729   2.603   3.549   1.667
 5093SOL     OW15730   2.797   1.976   0.125
 5093SOL    HW115731   2.827   1.963   0.035
 5093SOL    HW215732   2.847   1.912   0.176
 5094SOL     OW15733   3.566   2.014   0.514
 5094SOL    HW115734   3.644   2.005   0.459
 5094SOL    HW215735   3.557   1.929   0.556
 5095SOL     OW15736   3.252   3.434   0.490
 5095SOL    HW115737   3.314   3.469   0.426
 5095SOL    HW215738   3.204   3.510   0.521
 5096SOL     OW15739   2.000   3.650   1.838
 5096SOL    HW115740   1.948   3.586   1.887
 5096SOL    HW215741   2.047   3.699   1.905
 5097SOL     OW15742   3.138   2.789   0.671
 5097SOL    HW115743   3.213   2.730   0.681
 5097SOL    HW215744   3.172   2.861   0.618
 5098SOL     OW15745   2.667   3.138   1.425
 5098SOL    HW115746   2.640   3.179   1.507
 5098SOL    HW215747   2.597   3.160   1.363
 5099SOL     OW15748   2.540   3.460   0.188
 5099SOL    HW115749   2.524   3.508   0.107
 5099SOL    HW215750   2.485   3.382   0.180
 5100SOL     OW15751   3.479   3.589   1.390
 5100SOL    HW115752   3.536   3.591   1.313
 5100SOL    HW215753   3.465   3.681   1.413
 5101SOL     OW15754   3.701   2.043   0.965
 5101SOL    HW115755   3.732   1.955   0.942
 5101SOL    HW215756   3.614   2.049   0.925
 5102SOL     OW15757   3.084   3.458   0.037
 5102SOL    HW115758   3.073   3.367   0.062
 5102SOL    HW215759   3.037   3.466  13.854
 5103SOL     OW15760   2.686   2.869   1.374
 5103SOL    HW115761   2.729   2.864   1.289
 5103SOL    HW215762   2.682   2.963   1.394
 5104SOL     OW15763   2.786   2.773   0.291
 5104SOL    HW115764   2.854   2.814   0.237
 5104SOL    HW215765   2.831   2.703   0.338
 5105SOL     OW15766   3.346   3.518   0.063
 5105SOL    HW115767   3.254   3.492   0.059
 5105SOL    HW215768   3.379   3.502  13.874
 5106SOL     OW15769   2.231   3.167   1.491
 5106SOL    HW115770   2.216   3.244   1.436
 5106SOL    HW215771   2.153   3.113   1.477
 5107SOL     OW15772   3.460   3.142   1.276
 5107SOL    HW115773   3.529   3.132   1.341
 5107SOL    HW215774   3.403   3.211   1.311
 5108SOL     OW15775   2.922   2.972   0.710
 5108SOL    HW115776   2.850   2.921   0.748
 5108SOL    HW215777   2.986   2.906   0.684
 5109SOL     OW15778   2.884   2.103   0.966
 5109SOL    HW115779   2.881   2.056   0.882
 5109SOL    HW215780   2.881   2.034   1.032
 5110SOL     OW15781   2.469   3.350   0.479
 5110SOL    HW115782   2.516   3.299   0.413
 5110SOL    HW215783   2.399   3.393   0.432
 5111SOL     OW15784   3.588   2.250   1.378
 5111SOL    HW115785   3.661   2.313   1.375
 5111SOL    HW215786   3.616   2.178   1.321
 5112SOL     OW15787   2.135   3.181   0.298
 5112SOL    HW115788   2.052   3.188   0.251
 5112SOL    HW215789   2.121   3.229   0.380
 5113SOL     OW15790   1.975   2.893   1.724
 5113SOL    HW115791   1.899   2.867   1.775
 5113SOL    HW215792   2.049   2.852   1.768
 5114SOL     OW15793   2.536   2.058   1.501
 5114SOL    HW115794   2.619   2.037   1.458
 5114SOL    HW215795   2.560   2.091   1.587
 5115SOL     OW15796   1.861   2.282   0.051
 5115SOL    HW115797   1.859   2.187   0.057
 5115SOL    HW215798   1.931   2.300  13.888
 5116SOL     OW15799   3.286   2.719   1.397
 5116SOL    HW115800   3.235   2.781   1.344
 5116SOL    HW215801   3.374   2.722   1.360
 5117SOL     OW15802   3.049   3.204   0.123
 5117SOL    HW115803   2.954   3.198   0.113
 5117SOL    HW215804   3.063   3.193   0.217
 5118SOL     OW15805   2.482   2.693   1.434
 5118SOL    HW115806   2.538   2.769   1.420
 5118SOL    HW215807   2.543   2.619   1.441
 5119SOL     OW15808   3.348   3.646   0.984
 5119SOL    HW115809   3.371   3.702   0.909
 5119SOL    HW215810   3.432   3.610   1.013
 5120SOL     OW15811   2.579   2.421   1.698
 5120SOL    HW115812   2.622   2.482   1.758
 5120SOL    HW215813   2.597   2.334   1.733
 5121SOL     OW15814   3.336   3.056   1.628
 5121SOL    HW115815   3.326   3.072   1.722
 5121SOL    HW215816   3.428   3.073   1.611
 5122SOL     OW15817   2.233   3.605   1.568
 5122SOL    HW115818   2.149   3.648   1.550
 5122SOL    HW215819   2.209   3.521   1.608
 5123SOL     OW15820   3.524   2.741   1.259
 5123SOL    HW115821   3.524   2.656   1.215
 5123SOL    HW215822   3.517   2.805   1.188
 5124SOL     OW15823   3.082   2.184   0.453
 5124SOL    HW115824   3.145   2.111   0.448
 5124SOL    HW215825   3.109   2.233   0.531
 5125SOL     OW15826   2.443   2.595   0.677
 5125SOL    HW115827   2.486   2.679   0.663
 5125SOL    HW215828   2.380   2.587   0.605
 5126SOL     OW15829   3.617   2.228   1.650
 5126SOL    HW115830   3.602   2.242   1.557
 5126SOL    HW215831   3.547   2.170   1.679
 5127SOL     OW15832   3.620   2.788   1.512
 5127SOL    HW115833   3.610   2.881   1.532
 5127SOL    HW215834   3.594   2.779   1.421
 5128SOL     OW15835   2.772   3.262   0.074
 5128SOL    HW115836   2.708   3.243   0.142
 5128SOL    HW215837   2.722   3.256  13.892
 5129SOL     OW15838   2.524   3.648   0.935
 5129SOL    HW115839   2.503   3.740   0.917
 5129SOL    HW215840   2.619   3.644   0.932
 5130SOL     OW15841   2.731   2.832   0.854
 5130SOL    HW115842   2.781   2.760   0.892
 5130SOL    HW215843   2.693   2.877   0.930
 5131SOL     OW15844   2.958   2.876   0.111
 5131SOL    HW115845   2.950   2.922   0.027
 5131SOL    HW215846   3.032   2.816   0.099
 5132SOL     OW15847   3.709   3.414   0.839
 5132SOL    HW115848   3.630   3.399   0.789
 5132SOL    HW215849   3.708   3.347   0.908
 5133SOL     OW15850   2.088   3.161   1.854
 5133SOL    HW115851   2.025   3.096   1.821
 5133SOL    HW215852   2.064   3.173   1.946
 5134SOL     OW15853   1.949   3.089   0.667
 5134SOL    HW115854   1.960   3.042   0.750
 5134SOL    HW215855   2.020   3.056   0.612
 5135SOL     OW15856   2.548   3.269   1.632
 5135SOL    HW115857   2.468   3.226   1.664
 5135SOL    HW215858   2.545   3.357   1.669
 5136SOL     OW15859   3.671   2.037   1.236
 5136SOL    HW115860   3.664   1.942   1.238
 5136SOL    HW215861   3.688   2.059   1.144
 5137SOL     OW15862   2.292   2.291   0.532
 5137SOL    HW115863   2.328   2.235   0.463
 5137SOL    HW215864   2.250   2.230   0.593
 5138SOL     OW15865   3.556   3.350   1.093
 5138SOL    HW115866   3.478   3.328   1.042
 5138SOL    HW215867   3.564   3.279   1.157
 5139SOL     OW15868   2.197   2.417   1.290
 5139SOL    HW115869   2.239   2.353   1.347
 5139SOL    HW215870   2.209   2.382   1.201
 5140SOL     OW15871   2.693   3.441   0.677
 5140SOL    HW115872   2.672   3.500   0.604
 5140SOL    HW215873   2.619   3.381   0.681
 5141SOL     OW15874   3.291   2.092   1.116
 5141SOL    HW115875   3.310   2.007   1.156
 5141SOL    HW215876   3.241   2.139   1.182
 5142SOL     OW15877   2.870   1.878   1.136
 5142SOL    HW115878   2.817   1.811   1.092
 5142SOL    HW215879   2.958   1.840   1.139
 5143SOL     OW15880   2.641   3.186   0.321
 5143SOL    HW115881   2.612   3.096   0.338
 5143SOL    HW215882   2.721   3.196   0.372
 5144SOL     OW15883   2.482   3.414   1.286
 5144SOL    HW115884   2.482   3.496   1.336
 5144SOL    HW215885   2.570   3.409   1.249
 5145SOL     OW15886   3.213   1.927   0.166
 5145SOL    HW115887   3.251   1.861   0.107
 5145SOL    HW215888   3.129   1.889   0.193
 5146SOL     OW15889   3.156   2.325   0.677
 5146SOL    HW115890   3.104   2.406   0.683
 5146SOL    HW215891   3.152   2.288   0.765
 5147SOL     OW15892   3.442   2.057   0.880
 5147SOL    HW115893   3.388   2.083   0.955
 5147SOL    HW215894   3.444   2.135   0.824
 5148SOL     OW15895   1.901   2.928   0.312
 5148SOL    HW115896   1.997   2.923   0.309
 5148SOL    HW215897   1.873   2.839   0.329
 5149SOL     OW15898   2.760   3.523   0.345
 5149SOL    HW115899   2.685   3.495   0.292
 5149SOL    HW215900   2.727   3.598   0.394
 5150SOL     OW15901   2.093   2.495   1.986
 5150SOL    HW115902   2.009   2.463   2.020
 5150SOL    HW215903   2.091   2.471   1.893
 5151SOL     OW15904   1.870   2.293   2.490
 5151SOL    HW115905   1.779   2.287   2.520
 5151SOL    HW215906   1.881   2.216   2.434
 5152SOL     OW15907   2.430   3.158   3.044
 5152SOL    HW115908   2.344   3.164   3.002
 5152SOL    HW215909   2.446   3.246   3.077
 5153SOL     OW15910   3.429   3.375   2.572
 5153SOL    HW115911   3.386   3.351   2.654
 5153SOL    HW215912   3.357   3.378   2.508
 5154SOL     OW15913   2.993   2.561   2.558
 5154SOL    HW115914   3.042   2.642   2.545
 5154SOL    HW215915   2.946   2.574   2.640
 5155SOL     OW15916   3.632   2.466   2.090
 5155SOL    HW115917   3.610   2.458   1.997
 5155SOL    HW215918   3.597   2.386   2.130
 5156SOL     OW15919   2.608   2.999   2.908
 5156SOL    HW115920   2.541   3.037   2.966
 5156SOL    HW215921   2.648   3.075   2.865
 5157SOL     OW15922   2.735   2.624   3.685
 5157SOL    HW115923   2.722   2.694   3.750
 5157SOL    HW215924   2.758   2.670   3.605
 5158SOL     OW15925   2.547   2.857   2.506
 5158SOL    HW115926   2.614   2.851   2.575
 5158SOL    HW215927   2.479   2.913   2.544
 5159SOL     OW15928   2.576   3.012   3.680
 5159SOL    HW115929   2.623   3.089   3.711
 5159SOL    HW215930   2.496   3.047   3.642
 5160SOL     OW15931   2.194   3.280   2.928
 5160SOL    HW115932   2.119   3.241   2.882
 5160SOL    HW215933   2.238   3.333   2.862
 5161SOL     OW15934   3.320   3.364   3.222
 5161SOL    HW115935   3.375   3.442   3.232
 5161SOL    HW215936   3.252   3.374   3.289
 5162SOL     OW15937   2.283   2.224   3.327
 5162SOL    HW115938   2.370   2.187   3.345
 5162SOL    HW215939   2.224   2.150   3.340
 5163SOL     OW15940   3.469   2.305   2.608
 5163SOL    HW115941   3.399   2.325   2.546
 5163SOL    HW215942   3.475   2.382   2.663
 5164SOL     OW15943   2.084   3.578   2.341
 5164SOL    HW115944   2.113   3.637   2.410
 5164SOL    HW215945   2.157   3.576   2.279
 5165SOL     OW15946   2.999   3.204   3.557
 5165SOL    HW115947   3.041   3.197   3.643
 5165SOL    HW215948   2.947   3.124   3.548
 5166SOL     OW15949   2.093   3.304   2.398
 5166SOL    HW115950   2.074   3.398   2.401
 5166SOL    HW215951   2.035   3.266   2.464
 5167SOL     OW15952   2.128   2.955   2.754
 5167SOL    HW115953   2.123   2.868   2.792
 5167SOL    HW215954   2.070   3.009   2.807
 5168SOL     OW15955   2.465   3.647   3.289
 5168SOL    HW115956   2.385   3.633   3.339
 5168SOL    HW215957   2.493   3.735   3.314
 5169SOL     OW15958   2.442   2.846   2.000
 5169SOL    HW115959   2.490   2.892   1.932
 5169SOL    HW215960   2.480   2.878   2.082
 5170SOL     OW15961   3.455   1.990   3.326
 5170SOL    HW115962   3.478   2.070   3.280
 5170SOL    HW215963   3.438   2.018   3.416
 5171SOL     OW15964   1.989   2.530   2.423
 5171SOL    HW115965   1.953   2.444   2.443
 5171SOL    HW215966   1.978   2.581   2.503
 5172SOL     OW15967   3.700   3.611   2.205
 5172SOL    HW115968   3.772   3.586   2.262
 5172SOL    HW215969   3.718   3.702   2.182
 5173SOL     OW15970   1.895   3.450   1.982
 5173SOL    HW115971   1.879   3.358   2.003
 5173SOL    HW215972   1.873   3.497   2.063
 5174SOL     OW15973   3.552   2.783   2.512
 5174SOL    HW115974   3.634   2.738   2.493
 5174SOL    HW215975   3.532   2.831   2.432
 5175SOL     OW15976   3.504   2.964   2.294
 5175SOL    HW115977   3.589   2.967   2.251
 5175SOL    HW215978   3.511   3.028   2.365
 5176SOL     OW15979   1.984   2.612   3.442
 5176SOL    HW115980   2.074   2.645   3.449
 5176SOL    HW215981   1.930   2.690   3.449
 5177SOL     OW15982   2.479   3.254   2.596
 5177SOL    HW115983   2.434   3.170   2.605
 5177SOL    HW215984   2.462   3.281   2.506
 5178SOL     OW15985   3.147   3.097   3.283
 5178SOL    HW115986   3.179   3.030   3.223
 5178SOL    HW215987   3.207   3.093   3.358
 5179SOL     OW15988   2.706   1.866   2.380
 5179SOL    HW115989   2.747   1.949   2.354
 5179SOL    HW215990   2.612   1.883   2.373
 5180SOL     OW15991   2.051   2.825   3.141
 5180SOL    HW115992   2.136   2.784   3.125
 5180SOL    HW215993   1.989   2.776   3.086
 5181SOL     OW15994   3.388   2.861   2.063
 5181SOL    HW115995   3.319   2.804   2.097
 5181SOL    HW215996   3.431   2.895   2.142
 5182SOL     OW15997   3.087   3.668   3.491
 5182SOL    HW115998   3.058   3.729   3.422
 5182SOL    HW215999   3.086   3.582   3.448
 5183SOL     OW16000   3.327   3.282   2.808
 5183SOL    HW116001   3.261   3.297   2.877
 5183SOL    HW216002   3.316   3.190   2.784
 5184SOL     OW16003   3.506   3.609   2.442
 5184SOL    HW116004   3.498   3.573   2.354
 5184SOL    HW216005   3.491   3.534   2.500
 5185SOL     OW16006   2.459   2.584   2.135
 5185SOL    HW116007   2.460   2.667   2.087
 5185SOL    HW216008   2.393   2.597   2.203
 5186SOL     OW16009   3.139   2.227   2.796
 5186SOL    HW116010   3.051   2.191   2.804
 5186SOL    HW216011   3.193   2.172   2.854
 5187SOL     OW16012   3.434   3.540   2.171
 5187SOL    HW116013   3.527   3.562   2.166
 5187SOL    HW216014   3.409   3.521   2.080
 5188SOL     OW16015   2.653   2.480   3.307
 5188SOL    HW116016   2.630   2.455   3.396
 5188SOL    HW216017   2.618   2.410   3.252
 5189SOL     OW16018   3.255   2.335   3.540
 5189SOL    HW116019   3.259   2.380   3.625
 5189SOL    HW216020   3.312   2.259   3.550
 5190SOL     OW16021   2.812   2.747   3.448
 5190SOL    HW116022   2.867   2.679   3.409
 5190SOL    HW216023   2.764   2.784   3.373
 5191SOL     OW16024   2.856   2.273   3.096
 5191SOL    HW116025   2.767   2.290   3.127
 5191SOL    HW216026   2.844   2.230   3.011
 5192SOL     OW16027   2.916   2.560   2.286
 5192SOL    HW116028   2.934   2.554   2.380
 5192SOL    HW216029   2.832   2.515   2.275
 5193SOL     OW16030   1.951   2.688   2.641
 5193SOL    HW116031   2.032   2.682   2.693
 5193SOL    HW216032   1.905   2.764   2.676
 5194SOL     OW16033   1.978   3.718   3.441
 5194SOL    HW116034   1.985   3.696   3.534
 5194SOL    HW216035   1.887   3.700   3.418
 5195SOL     OW16036   2.761   2.214   2.058
 5195SOL    HW116037   2.802   2.276   1.998
 5195SOL    HW216038   2.765   2.130   2.013
 5196SOL     OW16039   3.568   2.433   3.692
 5196SOL    HW116040   3.532   2.507   3.643
 5196SOL    HW216041   3.594   2.370   3.625
 5197SOL     OW16042   3.240   3.003   2.401
 5197SOL    HW116043   3.320   2.991   2.350
 5197SOL    HW216044   3.188   3.066   2.351
 5198SOL     OW16045   2.413   2.049   2.760
 5198SOL    HW116046   2.412   2.075   2.853
 5198SOL    HW216047   2.429   2.131   2.713
 5199SOL     OW16048   2.863   3.307   2.331
 5199SOL    HW116049   2.829   3.382   2.282
 5199SOL    HW216050   2.840   3.326   2.422
 5200SOL     OW16051   2.213   3.676   2.699
 5200SOL    HW116052   2.263   3.596   2.718
 5200SOL    HW216053   2.271   3.747   2.724
 5201SOL     OW16054   3.669   2.923   2.731
 5201SOL    HW116055   3.617   2.894   2.656
 5201SOL    HW216056   3.606   2.926   2.804
 5202SOL     OW16057   3.088   3.400   3.374
 5202SOL    HW116058   3.077   3.328   3.436
 5202SOL    HW216059   3.019   3.388   3.309
 5203SOL     OW16060   2.175   2.820   2.116
 5203SOL    HW116061   2.257   2.838   2.070
 5203SOL    HW216062   2.145   2.737   2.079
 5204SOL     OW16063   3.343   2.612   2.585
 5204SOL    HW116064   3.339   2.571   2.671
 5204SOL    HW216065   3.421   2.667   2.588
 5205SOL     OW16066   2.332   3.129   3.599
 5205SOL    HW116067   2.306   3.134   3.507
 5205SOL    HW216068   2.250   3.126   3.648
 5206SOL     OW16069   2.977   3.644   2.082
 5206SOL    HW116070   2.911   3.600   2.134
 5206SOL    HW216071   3.008   3.577   2.020
 5207SOL     OW16072   3.485   3.249   1.952
 5207SOL    HW116073   3.442   3.332   1.933
 5207SOL    HW216074   3.419   3.183   1.930
 5208SOL     OW16075   2.327   3.600   2.187
 5208SOL    HW116076   2.366   3.663   2.247
 5208SOL    HW216077   2.399   3.572   2.130
 5209SOL     OW16078   3.263   1.969   2.303
 5209SOL    HW116079   3.257   1.943   2.210
 5209SOL    HW216080   3.357   1.976   2.320
 5210SOL     OW16081   2.123   3.652   3.081
 5210SOL    HW116082   2.169   3.580   3.124
 5210SOL    HW216083   2.105   3.620   2.992
 5211SOL     OW16084   2.801   3.565   2.760
 5211SOL    HW116085   2.878   3.514   2.783
 5211SOL    HW216086   2.758   3.514   2.690
 5212SOL     OW16087   2.260   2.554   2.336
 5212SOL    HW116088   2.275   2.460   2.347
 5212SOL    HW216089   2.167   2.566   2.353
 5213SOL     OW16090   3.392   2.086   3.586
 5213SOL    HW116091   3.402   2.107   3.679
 5213SOL    HW216092   3.324   2.018   3.584
 5214SOL     OW16093   2.516   1.981   1.966
 5214SOL    HW116094   2.572   1.911   1.999
 5214SOL    HW216095   2.466   1.940   1.895
 5215SOL     OW16096   2.624   2.139   3.617
 5215SOL    HW116097   2.706   2.089   3.612
 5215SOL    HW216098   2.582   2.108   3.697
 5216SOL     OW16099   2.738   3.383   3.057
 5216SOL    HW116100   2.720   3.346   2.971
 5216SOL    HW216101   2.808   3.328   3.093
 5217SOL     OW16102   3.201   2.452   3.295
 5217SOL    HW116103   3.232   2.421   3.380
 5217SOL    HW216104   3.238   2.539   3.287
 5218SOL     OW16105   2.680   3.251   2.808
 5218SOL    HW116106   2.765   3.240   2.765
 5218SOL    HW216107   2.617   3.257   2.736
 5219SOL     OW16108   2.790   2.370   2.762
 5219SOL    HW116109   2.765   2.362   2.670
 5219SOL    HW216110   2.822   2.283   2.786
 5220SOL     OW16111   2.449   1.924   2.331
 5220SOL    HW116112   2.375   1.915   2.391
 5220SOL    HW216113   2.431   2.004   2.282
 5221SOL     OW16114   3.289   3.063   1.901
 5221SOL    HW116115   3.320   2.988   1.952
 5221SOL    HW216116   3.204   3.084   1.938
 5222SOL     OW16117   2.810   2.115   2.317
 5222SOL    HW116118   2.784   2.153   2.233
 5222SOL    HW216119   2.904   2.131   2.322
 5223SOL     OW16120   2.943   2.547   3.320
 5223SOL    HW116121   2.879   2.476   3.323
 5223SOL    HW216122   3.028   2.502   3.314
 5224SOL     OW16123   3.080   3.434   2.656
 5224SOL    HW116124   3.095   3.500   2.589
 5224SOL    HW216125   3.151   3.447   2.719
 5225SOL     OW16126   2.335   3.016   2.588
 5225SOL    HW116127   2.268   2.996   2.654
 5225SOL    HW216128   2.291   3.002   2.504
 5226SOL     OW16129   3.125   3.654   2.472
 5226SOL    HW116130   3.173   3.719   2.421
 5226SOL    HW216131   3.051   3.702   2.508
 5227SOL     OW16132   2.886   2.397   1.888
 5227SOL    HW116133   2.842   2.480   1.869
 5227SOL    HW216134   2.951   2.419   1.955
 5228SOL     OW16135   1.942   2.425   3.248
 5228SOL    HW116136   2.035   2.421   3.227
 5228SOL    HW216137   1.935   2.491   3.317
 5229SOL     OW16138   2.416   2.081   3.037
 5229SOL    HW116139   2.470   2.006   3.062
 5229SOL    HW216140   2.333   2.066   3.082
 5230SOL     OW16141   2.725   2.318   2.501
 5230SOL    HW116142   2.685   2.375   2.435
 5230SOL    HW216143   2.752   2.240   2.452
 5231SOL     OW16144   2.876   1.916   2.612
 5231SOL    HW116145   2.821   1.906   2.534
 5231SOL    HW216146   2.854   1.841   2.667
 5232SOL     OW16147   3.303   3.022   2.719
 5232SOL    HW116148   3.231   2.959   2.719
 5232SOL    HW216149   3.328   3.030   2.627
 5233SOL     OW16150   3.327   2.473   2.830
 5233SOL    HW116151   3.272   2.394   2.833
 5233SOL    HW216152   3.384   2.464   2.906
 5234SOL     OW16153   3.724   2.677   2.237
 5234SOL    HW116154   3.767   2.621   2.302
 5234SOL    HW216155   3.687   2.615   2.173
 5235SOL     OW16156   2.352   3.282   2.013
 5235SOL    HW116157   2.276   3.255   2.065
 5235SOL    HW216158   2.343   3.234   1.931
 5236SOL     OW16159   3.531   3.128   2.503
 5236SOL    HW116160   3.626   3.129   2.514
 5236SOL    HW216161   3.503   3.217   2.525
 5237SOL     OW16162   3.256   2.434   1.933
 5237SOL    HW116163   3.194   2.413   2.003
 5237SOL    HW216164   3.340   2.404   1.966
 5238SOL     OW16165   2.386   2.130   2.166
 5238SOL    HW116166   2.433   2.083   2.097
 5238SOL    HW216167   2.361   2.213   2.126
 5239SOL     OW16168   3.612   3.095   3.422
 5239SOL    HW116169   3.699   3.060   3.405
 5239SOL    HW216170   3.627   3.185   3.451
 5240SOL     OW16171   2.917   3.214   3.193
 5240SOL    HW116172   2.841   3.183   3.244
 5240SOL    HW216173   2.992   3.173   3.235
 5241SOL     OW16174   3.469   3.492   3.521
 5241SOL    HW116175   3.459   3.526   3.432
 5241SOL    HW216176   3.549   3.439   3.517
 5242SOL     OW16177   2.996   3.072   2.964
 5242SOL    HW116178   2.937   3.109   3.028
 5242SOL    HW216179   2.966   3.107   2.880
 5243SOL     OW16180   3.488   2.956   2.936
 5243SOL    HW116181   3.478   3.018   3.008
 5243SOL    HW216182   3.413   2.973   2.879
 5244SOL     OW16183   2.778   1.957   3.252
 5244SOL    HW116184   2.802   1.937   3.162
 5244SOL    HW216185   2.857   1.996   3.290
 5245SOL     OW16186   2.846   2.977   3.585
 5245SOL    HW116187   2.755   2.993   3.609
 5245SOL    HW216188   2.842   2.898   3.531
 5246SOL     OW16189   2.572   2.924   2.233
 5246SOL    HW116190   2.557   2.903   2.325
 5246SOL    HW216191   2.647   2.871   2.208
 5247SOL     OW16192   2.282   2.677   3.114
 5247SOL    HW116193   2.350   2.689   3.180
 5247SOL    HW216194   2.249   2.588   3.129
 5248SOL     OW16195   3.125   2.237   3.143
 5248SOL    HW116196   3.158   2.314   3.188
 5248SOL    HW216197   3.035   2.258   3.121
 5249SOL     OW16198   1.936   3.435   3.218
 5249SOL    HW116199   1.909   3.510   3.164
 5249SOL    HW216200   2.032   3.435   3.211
 5250SOL     OW16201   2.201   2.979   2.350
 5250SOL    HW116202   2.204   3.053   2.289
 5250SOL    HW216203   2.198   2.902   2.294
 5251SOL     OW16204   2.402   2.394   2.726
 5251SOL    HW116205   2.415   2.452   2.650
 5251SOL    HW216206   2.471   2.420   2.788
 5252SOL     OW16207   3.109   3.212   2.252
 5252SOL    HW116208   3.165   3.282   2.284
 5252SOL    HW216209   3.022   3.233   2.286
 5253SOL     OW16210   3.150   3.323   3.011
 5253SOL    HW116211   3.206   3.328   3.088
 5253SOL    HW216212   3.096   3.246   3.025
 5254SOL     OW16213   3.437   2.480   2.347
 5254SOL    HW116214   3.389   2.530   2.413
 5254SOL    HW216215   3.479   2.545   2.292
 5255SOL     OW16216   2.207   3.393   3.171
 5255SOL    HW116217   2.196   3.347   3.088
 5255SOL    HW216218   2.302   3.403   3.180
 5256SOL     OW16219   2.282   2.610   3.468
 5256SOL    HW116220   2.343   2.651   3.407
 5256SOL    HW216221   2.327   2.530   3.496
 5257SOL     OW16222   3.469   2.641   3.548
 5257SOL    HW116223   3.384   2.684   3.542
 5257SOL    HW216224   3.522   2.684   3.480
 5258SOL     OW16225   2.857   1.995   3.613
 5258SOL    HW116226   2.917   2.067   3.593
 5258SOL    HW216227   2.906   1.916   3.589
 5259SOL     OW16228   2.371   1.890   3.612
 5259SOL    HW116229   2.321   1.835   3.552
 5259SOL    HW216230   2.317   1.967   3.626
 5260SOL     OW16231   2.449   2.735   2.896
 5260SOL    HW116232   2.482   2.825   2.896
 5260SOL    HW216233   2.391   2.731   2.972
 5261SOL     OW16234   3.210   2.721   2.883
 5261SOL    HW116235   3.125   2.706   2.843
 5261SOL    HW216236   3.257   2.638   2.874
 5262SOL     OW16237   3.061   2.389   2.123
 5262SOL    HW116238   3.071   2.311   2.178
 5262SOL    HW216239   3.019   2.454   2.180
 5263SOL     OW16240   1.908   3.174   3.136
 5263SOL    HW116241   1.940   3.118   3.207
 5263SOL    HW216242   1.914   3.263   3.170
 5264SOL     OW16243   2.579   2.487   2.914
 5264SOL    HW116244   2.658   2.475   2.861
 5264SOL    HW216245   2.553   2.578   2.898
 5265SOL     OW16246   3.592   2.821   3.727
 5265SOL    HW116247   3.553   2.753   3.672
 5265SOL    HW216248   3.527   2.836   3.796
 5266SOL     OW16249   2.225   1.900   2.469
 5266SOL    HW116250   2.148   1.953   2.449
 5266SOL    HW216251   2.212   1.873   2.559
 5267SOL     OW16252   3.483   2.241   2.223
 5267SOL    HW116253   3.510   2.175   2.287
 5267SOL    HW216254   3.459   2.317   2.275
 5268SOL     OW16255   2.890   2.619   2.820
 5268SOL    HW116256   2.882   2.636   2.914
 5268SOL    HW216257   2.864   2.528   2.810
 5269SOL     OW16258   2.848   3.430   3.585
 5269SOL    HW116259   2.828   3.470   3.500
 5269SOL    HW216260   2.889   3.347   3.563
 5270SOL     OW16261   3.703   3.357   3.459
 5270SOL    HW116262   3.728   3.388   3.372
 5270SOL    HW216263   3.782   3.364   3.511
 5271SOL     OW16264   2.215   2.783   3.671
 5271SOL    HW116265   2.295   2.800   3.720
 5271SOL    HW216266   2.240   2.720   3.604
 5272SOL     OW16267   3.390   2.133   1.988
 5272SOL    HW116268   3.326   2.068   2.016
 5272SOL    HW216269   3.423   2.170   2.070
 5273SOL     OW16270   3.149   2.686   1.890
 5273SOL    HW116271   3.192   2.601   1.895
 5273SOL    HW216272   3.182   2.725   1.809
 5274SOL     OW16273   2.930   3.201   2.719
 5274SOL    HW116274   2.935   3.128   2.656
 5274SOL    HW216275   2.988   3.268   2.683
 5275SOL     OW16276   2.172   2.673   2.808
 5275SOL    HW116277   2.265   2.695   2.797
 5275SOL    HW216278   2.172   2.585   2.846
 5276SOL     OW16279   2.181   2.361   2.874
 5276SOL    HW116280   2.137   2.291   2.825
 5276SOL    HW216281   2.261   2.378   2.826
 5277SOL     OW16282   2.996   2.235   3.547
 5277SOL    HW116283   2.948   2.289   3.610
 5277SOL    HW216284   3.083   2.275   3.543
 5278SOL     OW16285   3.021   2.060   3.333
 5278SOL    HW116286   3.010   2.123   3.405
 5278SOL    HW216287   3.064   2.110   3.264
 5279SOL     OW16288   1.869   3.179   2.056
 5279SOL    HW116289   1.781   3.194   2.021
 5279SOL    HW216290   1.865   3.090   2.091
 5280SOL     OW16291   1.961   3.636   2.801
 5280SOL    HW116292   1.928   3.559   2.755
 5280SOL    HW216293   2.044   3.656   2.759
 5281SOL     OW16294   2.353   3.439   2.766
 5281SOL    HW116295   2.421   3.502   2.790
 5281SOL    HW216296   2.397   3.376   2.709
 5282SOL     OW16297   2.836   2.648   3.086
 5282SOL    HW116298   2.897   2.631   3.157
 5282SOL    HW216299   2.752   2.613   3.117
 5283SOL     OW16300   1.900   2.400   2.980
 5283SOL    HW116301   1.984   2.403   2.935
 5283SOL    HW216302   1.922   2.414   3.072
 5284SOL     OW16303   2.062   2.394   3.587
 5284SOL    HW116304   2.123   2.359   3.522
 5284SOL    HW216305   2.018   2.467   3.542
 5285SOL     OW16306   3.243   2.796   3.519
 5285SOL    HW116307   3.264   2.889   3.516
 5285SOL    HW216308   3.238   2.769   3.428
 5286SOL     OW16309   2.679   2.432   2.231
 5286SOL    HW116310   2.684   2.359   2.169
 5286SOL    HW216311   2.606   2.485   2.199
 5287SOL     OW16312   3.501   2.463   3.042
 5287SOL    HW116313   3.490   2.403   3.116
 5287SOL    HW216314   3.588   2.443   3.008
 5288SOL     OW16315   2.102   3.409   3.584
 5288SOL    HW116316   2.079   3.476   3.649
 5288SOL    HW216317   2.107   3.328   3.634
 5289SOL     OW16318   2.569   2.306   3.117
 5289SOL    HW116319   2.513   2.233   3.090
 5289SOL    HW216320   2.563   2.370   3.045
 5290SOL     OW16321   2.786   3.532   3.333
 5290SOL    HW116322   2.760   3.492   3.250
 5290SOL    HW216323   2.778   3.626   3.318
 5291SOL     OW16324   2.324   2.362   2.049
 5291SOL    HW116325   2.382   2.434   2.073
 5291SOL    HW216326   2.239   2.404   2.031
 5292SOL     OW16327   2.004   3.006   3.337
 5292SOL    HW116328   2.005   2.958   3.419
 5292SOL    HW216329   2.022   2.939   3.270
 5293SOL     OW16330   3.181   2.905   3.082
 5293SOL    HW116331   3.203   2.842   3.013
 5293SOL    HW216332   3.115   2.962   3.042
 5294SOL     OW16333   3.176   2.717   2.166
 5294SOL    HW116334   3.102   2.686   2.218
 5294SOL    HW216335   3.149   2.704   2.075
 5295SOL     OW16336   3.642   3.599   3.020
 5295SOL    HW116337   3.700   3.625   2.949
 5295SOL    HW216338   3.613   3.511   2.996
 5296SOL     OW16339   3.107   3.594   2.968
 5296SOL    HW116340   3.190   3.617   2.926
 5296SOL    HW216341   3.114   3.501   2.989
 5297SOL     OW16342   1.949   3.127   2.872
 5297SOL    HW116343   1.932   3.142   2.965
 5297SOL    HW216344   1.876   3.073   2.843
 5298SOL     OW16345   2.542   3.529   3.600
 5298SOL    HW116346   2.483   3.604   3.603
 5298SOL    HW216347   2.603   3.549   3.529
 5299SOL     OW16348   3.569   2.016   2.372
 5299SOL    HW116349   3.637   2.004   2.306
 5299SOL    HW216350   3.559   1.930   2.412
 5300SOL     OW16351   3.253   3.430   2.352
 5300SOL    HW116352   3.311   3.465   2.284
 5300SOL    HW216353   3.203   3.506   2.383
 5301SOL     OW16354   2.000   3.650   3.700
 5301SOL    HW116355   1.948   3.586   3.749
 5301SOL    HW216356   2.047   3.699   3.767
 5302SOL     OW16357   3.139   2.789   2.533
 5302SOL    HW116358   3.213   2.730   2.543
 5302SOL    HW216359   3.173   2.861   2.479
 5303SOL     OW16360   2.667   3.138   3.287
 5303SOL    HW116361   2.640   3.179   3.369
 5303SOL    HW216362   2.597   3.159   3.225
 5304SOL     OW16363   2.536   3.482   2.021
 5304SOL    HW116364   2.546   3.500   1.928
 5304SOL    HW216365   2.476   3.406   2.024
 5305SOL     OW16366   3.479   3.589   3.252
 5305SOL    HW116367   3.536   3.591   3.175
 5305SOL    HW216368   3.465   3.681   3.275
 5306SOL     OW16369   3.701   2.043   2.827
 5306SOL    HW116370   3.732   1.956   2.804
 5306SOL    HW216371   3.614   2.049   2.787
 5307SOL     OW16372   3.070   3.463   1.899
 5307SOL    HW116373   3.059   3.371   1.923
 5307SOL    HW216374   3.008   3.476   1.827
 5308SOL     OW16375   2.686   2.869   3.236
 5308SOL    HW116376   2.729   2.864   3.151
 5308SOL    HW216377   2.682   2.963   3.256
 5309SOL     OW16378   2.779   2.773   2.153
 5309SOL    HW116379   2.839   2.806   2.086
 5309SOL    HW216380   2.829   2.705   2.199
 5310SOL     OW16381   3.348   3.498   1.905
 5310SOL    HW116382   3.255   3.483   1.889
 5310SOL    HW216383   3.388   3.502   1.818
 5311SOL     OW16384   2.231   3.167   3.353
 5311SOL    HW116385   2.216   3.244   3.298
 5311SOL    HW216386   2.153   3.113   3.339
 5312SOL     OW16387   3.460   3.142   3.138
 5312SOL    HW116388   3.529   3.131   3.203
 5312SOL    HW216389   3.403   3.210   3.173
 5313SOL     OW16390   2.922   2.972   2.573
 5313SOL    HW116391   2.850   2.922   2.609
 5313SOL    HW216392   2.986   2.906   2.545
 5314SOL     OW16393   2.884   2.103   2.828
 5314SOL    HW116394   2.881   2.057   2.744
 5314SOL    HW216395   2.881   2.034   2.894
 5315SOL     OW16396   2.468   3.353   2.341
 5315SOL    HW116397   2.516   3.302   2.276
 5315SOL    HW216398   2.397   3.394   2.292
 5316SOL     OW16399   3.588   2.250   3.240
 5316SOL    HW116400   3.661   2.313   3.237
 5316SOL    HW216401   3.616   2.178   3.183
 5317SOL     OW16402   2.124   3.204   2.154
 5317SOL    HW116403   2.031   3.200   2.130
 5317SOL    HW216404   2.125   3.244   2.241
 5318SOL     OW16405   1.975   2.894   3.586
 5318SOL    HW116406   1.899   2.867   3.637
 5318SOL    HW216407   2.049   2.852   3.630
 5319SOL     OW16408   2.536   2.058   3.363
 5319SOL    HW116409   2.619   2.037   3.320
 5319SOL    HW216410   2.560   2.091   3.449
 5320SOL     OW16411   1.898   2.286   1.931
 5320SOL    HW116412   1.862   2.200   1.907
 5320SOL    HW216413   1.944   2.315   1.852
 5321SOL     OW16414   3.286   2.719   3.259
 5321SOL    HW116415   3.236   2.781   3.206
 5321SOL    HW216416   3.374   2.722   3.222
 5322SOL     OW16417   3.039   3.196   1.980
 5322SOL    HW116418   2.948   3.167   1.981
 5322SOL    HW216419   3.065   3.196   2.072
 5323SOL     OW16420   2.482   2.693   3.296
 5323SOL    HW116421   2.538   2.769   3.282
 5323SOL    HW216422   2.543   2.619   3.303
 5324SOL     OW16423   3.348   3.645   2.846
 5324SOL    HW116424   3.371   3.703   2.773
 5324SOL    HW216425   3.432   3.610   2.876
 5325SOL     OW16426   2.579   2.421   3.560
 5325SOL    HW116427   2.622   2.482   3.620
 5325SOL    HW216428   2.597   2.334   3.595
 5326SOL     OW16429   3.336   3.056   3.490
 5326SOL    HW116430   3.326   3.072   3.584
 5326SOL    HW216431   3.428   3.073   3.473
 5327SOL     OW16432   2.233   3.605   3.430
 5327SOL    HW116433   2.149   3.648   3.412
 5327SOL    HW216434   2.209   3.521   3.470
 5328SOL     OW16435   3.524   2.741   3.121
 5328SOL    HW116436   3.524   2.656   3.077
 5328SOL    HW216437   3.517   2.805   3.049
 5329SOL     OW16438   3.080   2.182   2.318
 5329SOL    HW116439   3.142   2.109   2.312
 5329SOL    HW216440   3.109   2.232   2.395
 5330SOL     OW16441   2.444   2.595   2.539
 5330SOL    HW116442   2.487   2.680   2.524
 5330SOL    HW216443   2.382   2.587   2.466
 5331SOL     OW16444   3.617   2.228   3.513
 5331SOL    HW116445   3.602   2.242   3.419
 5331SOL    HW216446   3.547   2.170   3.541
 5332SOL     OW16447   3.620   2.788   3.374
 5332SOL    HW116448   3.610   2.881   3.393
 5332SOL    HW216449   3.594   2.779   3.283
 5333SOL     OW16450   2.727   3.228   1.906
 5333SOL    HW116451   2.686   3.255   1.988
 5333SOL    HW216452   2.740   3.310   1.857
 5334SOL     OW16453   2.523   3.648   2.797
 5334SOL    HW116454   2.503   3.740   2.779
 5334SOL    HW216455   2.619   3.643   2.794
 5335SOL     OW16456   2.731   2.833   2.716
 5335SOL    HW116457   2.781   2.760   2.753
 5335SOL    HW216458   2.693   2.877   2.792
 5336SOL     OW16459   2.939   2.850   1.951
 5336SOL    HW116460   2.918   2.902   1.873
 5336SOL    HW216461   3.013   2.796   1.924
 5337SOL     OW16462   3.709   3.416   2.702
 5337SOL    HW116463   3.629   3.397   2.653
 5337SOL    HW216464   3.714   3.346   2.768
 5338SOL     OW16465   2.088   3.161   3.716
 5338SOL    HW116466   2.026   3.096   3.683
 5338SOL    HW216467   2.064   3.173   3.808
 5339SOL     OW16468   1.951   3.091   2.527
 5339SOL    HW116469   1.961   3.046   2.611
 5339SOL    HW216470   2.016   3.052   2.470
 5340SOL     OW16471   2.547   3.269   3.494
 5340SOL    HW116472   2.468   3.226   3.526
 5340SOL    HW216473   2.545   3.357   3.531
 5341SOL     OW16474   3.671   2.037   3.098
 5341SOL    HW116475   3.664   1.942   3.100
 5341SOL    HW216476   3.688   2.059   3.007
 5342SOL     OW16477   2.292   2.289   2.382
 5342SOL    HW116478   2.328   2.232   2.314
 5342SOL    HW216479   2.249   2.228   2.442
 5343SOL     OW16480   3.555   3.351   2.957
 5343SOL    HW116481   3.478   3.328   2.906
 5343SOL    HW216482   3.564   3.279   3.020
 5344SOL     OW16483   2.197   2.417   3.151
 5344SOL    HW116484   2.239   2.353   3.209
 5344SOL    HW216485   2.209   2.382   3.063
 5345SOL     OW16486   2.692   3.441   2.538
 5345SOL    HW116487   2.669   3.496   2.463
 5345SOL    HW216488   2.619   3.379   2.546
 5346SOL     OW16489   3.291   2.092   2.978
 5346SOL    HW116490   3.310   2.007   3.019
 5346SOL    HW216491   3.241   2.140   3.044
 5347SOL     OW16492   2.870   1.878   2.998
 5347SOL    HW116493   2.817   1.811   2.954
 5347SOL    HW216494   2.958   1.840   3.001
 5348SOL     OW16495   2.636   3.195   2.184
 5348SOL    HW116496   2.608   3.104   2.191
 5348SOL    HW216497   2.718   3.198   2.232
 5349SOL     OW16498   2.482   3.414   3.148
 5349SOL    HW116499   2.481   3.496   3.198
 5349SOL    HW216500   2.570   3.409   3.111
 5350SOL     OW16501   3.220   1.914   2.033
 5350SOL    HW116502   3.253   1.843   1.978
 5350SOL    HW216503   3.130   1.887   2.054
 5351SOL     OW16504   3.156   2.325   2.540
 5351SOL    HW116505   3.104   2.406   2.545
 5351SOL    HW216506   3.152   2.289   2.628
 5352SOL     OW16507   3.442   2.057   2.742
 5352SOL    HW116508   3.388   2.083   2.817
 5352SOL    HW216509   3.444   2.134   2.686
 5353SOL     OW16510   1.906   2.930   2.170
 5353SOL    HW116511   1.999   2.920   2.151
 5353SOL    HW216512   1.877   2.841   2.193
 5354SOL     OW16513   2.750   3.525   2.203
 5354SOL    HW116514   2.678   3.506   2.143
 5354SOL    HW216515   2.719   3.599   2.255
 5355SOL     OW16516   2.092   2.495   3.848
 5355SOL    HW116517   2.008   2.463   3.882
 5355SOL    HW216518   2.092   2.471   3.755
 5356SOL     OW16519   1.866   2.295   4.348
 5356SOL    HW116520   1.776   2.290   4.381
 5356SOL    HW216521   1.873   2.221   4.287
 5357SOL     OW16522   2.429   3.158   4.906
 5357SOL    HW116523   2.344   3.164   4.864
 5357SOL    HW216524   2.447   3.246   4.939
 5358SOL     OW16525   3.429   3.375   4.434
 5358SOL    HW116526   3.387   3.351   4.516
 5358SOL    HW216527   3.357   3.378   4.370
 5359SOL     OW16528   2.993   2.561   4.420
 5359SOL    HW116529   3.042   2.642   4.407
 5359SOL    HW216530   2.946   2.574   4.502
 5360SOL     OW16531   3.631   2.466   3.952
 5360SOL    HW116532   3.610   2.458   3.859
 5360SOL    HW216533   3.597   2.386   3.992
 5361SOL     OW16534   2.608   2.999   4.770
 5361SOL    HW116535   2.541   3.037   4.828
 5361SOL    HW216536   2.648   3.075   4.727
 5362SOL     OW16537   2.735   2.626   5.548
 5362SOL    HW116538   2.727   2.696   5.613
 5362SOL    HW216539   2.757   2.671   5.466
 5363SOL     OW16540   2.547   2.857   4.368
 5363SOL    HW116541   2.614   2.851   4.437
 5363SOL    HW216542   2.479   2.913   4.406
 5364SOL     OW16543   2.576   3.013   5.541
 5364SOL    HW116544   2.624   3.090   5.572
 5364SOL    HW216545   2.496   3.048   5.502
 5365SOL     OW16546   2.194   3.280   4.790
 5365SOL    HW116547   2.119   3.241   4.744
 5365SOL    HW216548   2.238   3.333   4.724
 5366SOL     OW16549   3.320   3.364   5.084
 5366SOL    HW116550   3.375   3.442   5.094
 5366SOL    HW216551   3.252   3.374   5.151
 5367SOL     OW16552   2.284   2.226   5.192
 5367SOL    HW116553   2.371   2.190   5.208
 5367SOL    HW216554   2.226   2.150   5.197
 5368SOL     OW16555   3.469   2.305   4.470
 5368SOL    HW116556   3.399   2.325   4.408
 5368SOL    HW216557   3.476   2.382   4.525
 5369SOL     OW16558   2.084   3.578   4.203
 5369SOL    HW116559   2.113   3.637   4.272
 5369SOL    HW216560   2.157   3.576   4.141
 5370SOL     OW16561   2.999   3.204   5.419
 5370SOL    HW116562   3.041   3.197   5.505
 5370SOL    HW216563   2.947   3.124   5.410
 5371SOL     OW16564   2.093   3.304   4.260
 5371SOL    HW116565   2.074   3.398   4.263
 5371SOL    HW216566   2.035   3.266   4.326
 5372SOL     OW16567   2.128   2.955   4.616
 5372SOL    HW116568   2.123   2.868   4.654
 5372SOL    HW216569   2.070   3.009   4.669
 5373SOL     OW16570   2.465   3.647   5.151
 5373SOL    HW116571   2.385   3.633   5.201
 5373SOL    HW216572   2.493   3.735   5.175
 5374SOL     OW16573   2.441   2.847   3.862
 5374SOL    HW116574   2.490   2.892   3.794
 5374SOL    HW216575   2.480   2.878   3.944
 5375SOL     OW16576   3.455   1.990   5.188
 5375SOL    HW116577   3.478   2.070   5.141
 5375SOL    HW216578   3.438   2.018   5.278
 5376SOL     OW16579   1.990   2.531   4.284
 5376SOL    HW116580   1.952   2.445   4.304
 5376SOL    HW216581   1.979   2.581   4.365
 5377SOL     OW16582   3.700   3.611   4.067
 5377SOL    HW116583   3.772   3.586   4.124
 5377SOL    HW216584   3.718   3.702   4.044
 5378SOL     OW16585   1.895   3.450   3.844
 5378SOL    HW116586   1.879   3.358   3.864
 5378SOL    HW216587   1.873   3.497   3.925
 5379SOL     OW16588   3.552   2.783   4.374
 5379SOL    HW116589   3.634   2.738   4.355
 5379SOL    HW216590   3.532   2.831   4.294
 5380SOL     OW16591   3.504   2.964   4.156
 5380SOL    HW116592   3.589   2.967   4.113
 5380SOL    HW216593   3.511   3.028   4.227
 5381SOL     OW16594   1.984   2.612   5.303
 5381SOL    HW116595   2.073   2.647   5.310
 5381SOL    HW216596   1.928   2.690   5.308
 5382SOL     OW16597   2.479   3.254   4.458
 5382SOL    HW116598   2.434   3.170   4.467
 5382SOL    HW216599   2.462   3.281   4.368
 5383SOL     OW16600   3.147   3.097   5.145
 5383SOL    HW116601   3.179   3.030   5.085
 5383SOL    HW216602   3.207   3.093   5.220
 5384SOL     OW16603   2.707   1.866   4.243
 5384SOL    HW116604   2.748   1.949   4.216
 5384SOL    HW216605   2.613   1.883   4.235
 5385SOL     OW16606   2.051   2.825   5.004
 5385SOL    HW116607   2.136   2.784   4.987
 5385SOL    HW216608   1.989   2.777   4.948
 5386SOL     OW16609   3.388   2.861   3.925
 5386SOL    HW116610   3.319   2.804   3.959
 5386SOL    HW216611   3.431   2.895   4.004
 5387SOL     OW16612   3.086   3.668   5.353
 5387SOL    HW116613   3.058   3.729   5.284
 5387SOL    HW216614   3.086   3.582   5.310
 5388SOL     OW16615   3.327   3.282   4.670
 5388SOL    HW116616   3.261   3.297   4.739
 5388SOL    HW216617   3.316   3.190   4.646
 5389SOL     OW16618   3.506   3.609   4.304
 5389SOL    HW116619   3.498   3.573   4.216
 5389SOL    HW216620   3.491   3.534   4.362
 5390SOL     OW16621   2.459   2.584   3.997
 5390SOL    HW116622   2.461   2.667   3.949
 5390SOL    HW216623   2.393   2.597   4.065
 5391SOL     OW16624   3.139   2.227   4.658
 5391SOL    HW116625   3.051   2.191   4.666
 5391SOL    HW216626   3.193   2.172   4.716
 5392SOL     OW16627   3.434   3.540   4.033
 5392SOL    HW116628   3.527   3.562   4.028
 5392SOL    HW216629   3.409   3.521   3.942
 5393SOL     OW16630   2.653   2.480   5.169
 5393SOL    HW116631   2.629   2.455   5.258
 5393SOL    HW216632   2.618   2.410   5.114
 5394SOL     OW16633   3.255   2.335   5.402
 5394SOL    HW116634   3.259   2.380   5.486
 5394SOL    HW216635   3.312   2.259   5.412
 5395SOL     OW16636   2.811   2.747   5.310
 5395SOL    HW116637   2.867   2.679   5.272
 5395SOL    HW216638   2.764   2.784   5.235
 5396SOL     OW16639   2.856   2.273   4.958
 5396SOL    HW116640   2.766   2.289   4.989
 5396SOL    HW216641   2.844   2.230   4.873
 5397SOL     OW16642   2.916   2.560   4.148
 5397SOL    HW116643   2.934   2.554   4.242
 5397SOL    HW216644   2.832   2.515   4.137
 5398SOL     OW16645   1.951   2.688   4.504
 5398SOL    HW116646   2.032   2.682   4.556
 5398SOL    HW216647   1.905   2.764   4.538
 5399SOL     OW16648   1.978   3.717   5.302
 5399SOL    HW116649   1.985   3.696   5.395
 5399SOL    HW216650   1.887   3.700   5.280
 5400SOL     OW16651   2.761   2.214   3.921
 5400SOL    HW116652   2.802   2.276   3.860
 5400SOL    HW216653   2.764   2.130   3.875
 5401SOL     OW16654   3.568   2.433   5.554
 5401SOL    HW116655   3.532   2.507   5.505
 5401SOL    HW216656   3.594   2.370   5.487
 5402SOL     OW16657   3.240   3.003   4.263
 5402SOL    HW116658   3.320   2.991   4.212
 5402SOL    HW216659   3.188   3.066   4.213
 5403SOL     OW16660   2.412   2.050   4.622
 5403SOL    HW116661   2.412   2.075   4.714
 5403SOL    HW216662   2.429   2.131   4.575
 5404SOL     OW16663   2.863   3.307   4.193
 5404SOL    HW116664   2.829   3.382   4.144
 5404SOL    HW216665   2.840   3.326   4.284
 5405SOL     OW16666   2.213   3.676   4.561
 5405SOL    HW116667   2.263   3.596   4.580
 5405SOL    HW216668   2.271   3.747   4.586
 5406SOL     OW16669   3.669   2.923   4.593
 5406SOL    HW116670   3.617   2.894   4.518
 5406SOL    HW216671   3.606   2.926   4.666
 5407SOL     OW16672   3.088   3.400   5.236
 5407SOL    HW116673   3.077   3.328   5.298
 5407SOL    HW216674   3.019   3.388   5.171
 5408SOL     OW16675   2.175   2.820   3.978
 5408SOL    HW116676   2.257   2.839   3.932
 5408SOL    HW216677   2.145   2.737   3.941
 5409SOL     OW16678   3.343   2.612   4.447
 5409SOL    HW116679   3.339   2.571   4.533
 5409SOL    HW216680   3.421   2.667   4.450
 5410SOL     OW16681   2.331   3.129   5.461
 5410SOL    HW116682   2.305   3.134   5.369
 5410SOL    HW216683   2.249   3.126   5.510
 5411SOL     OW16684   2.977   3.644   3.944
 5411SOL    HW116685   2.911   3.600   3.996
 5411SOL    HW216686   3.008   3.577   3.882
 5412SOL     OW16687   3.485   3.249   3.813
 5412SOL    HW116688   3.442   3.332   3.795
 5412SOL    HW216689   3.419   3.183   3.792
 5413SOL     OW16690   2.327   3.600   4.049
 5413SOL    HW116691   2.366   3.663   4.109
 5413SOL    HW216692   2.399   3.572   3.992
 5414SOL     OW16693   3.263   1.969   4.165
 5414SOL    HW116694   3.257   1.943   4.072
 5414SOL    HW216695   3.357   1.976   4.182
 5415SOL     OW16696   2.123   3.652   4.943
 5415SOL    HW116697   2.169   3.580   4.986
 5415SOL    HW216698   2.105   3.620   4.854
 5416SOL     OW16699   2.801   3.565   4.622
 5416SOL    HW116700   2.878   3.514   4.645
 5416SOL    HW216701   2.758   3.514   4.552
 5417SOL     OW16702   2.260   2.555   4.197
 5417SOL    HW116703   2.276   2.461   4.208
 5417SOL    HW216704   2.167   2.566   4.215
 5418SOL     OW16705   3.392   2.086   5.448
 5418SOL    HW116706   3.402   2.107   5.541
 5418SOL    HW216707   3.325   2.018   5.446
 5419SOL     OW16708   2.516   1.981   3.827
 5419SOL    HW116709   2.572   1.911   3.860
 5419SOL    HW216710   2.465   1.941   3.757
 5420SOL     OW16711   2.626   2.141   5.477
 5420SOL    HW116712   2.708   2.091   5.472
 5420SOL    HW216713   2.583   2.110   5.556
 5421SOL     OW16714   2.738   3.383   4.919
 5421SOL    HW116715   2.720   3.346   4.833
 5421SOL    HW216716   2.808   3.328   4.955
 5422SOL     OW16717   3.201   2.452   5.157
 5422SOL    HW116718   3.232   2.421   5.242
 5422SOL    HW216719   3.238   2.539   5.149
 5423SOL     OW16720   2.680   3.251   4.670
 5423SOL    HW116721   2.765   3.240   4.627
 5423SOL    HW216722   2.617   3.257   4.598
 5424SOL     OW16723   2.790   2.370   4.624
 5424SOL    HW116724   2.765   2.362   4.532
 5424SOL    HW216725   2.822   2.283   4.648
 5425SOL     OW16726   2.450   1.924   4.193
 5425SOL    HW116727   2.375   1.913   4.251
 5425SOL    HW216728   2.431   2.004   4.144
 5426SOL     OW16729   3.289   3.063   3.763
 5426SOL    HW116730   3.320   2.988   3.814
 5426SOL    HW216731   3.204   3.084   3.800
 5427SOL     OW16732   2.810   2.115   4.179
 5427SOL    HW116733   2.784   2.153   4.095
 5427SOL    HW216734   2.904   2.131   4.184
 5428SOL     OW16735   2.943   2.546   5.182
 5428SOL    HW116736   2.879   2.476   5.185
 5428SOL    HW216737   3.028   2.502   5.176
 5429SOL     OW16738   3.080   3.434   4.519
 5429SOL    HW116739   3.095   3.500   4.451
 5429SOL    HW216740   3.151   3.447   4.581
 5430SOL     OW16741   2.335   3.016   4.450
 5430SOL    HW116742   2.268   2.996   4.516
 5430SOL    HW216743   2.291   3.002   4.366
 5431SOL     OW16744   3.125   3.654   4.334
 5431SOL    HW116745   3.173   3.719   4.283
 5431SOL    HW216746   3.051   3.702   4.370
 5432SOL     OW16747   2.886   2.397   3.750
 5432SOL    HW116748   2.842   2.480   3.731
 5432SOL    HW216749   2.951   2.419   3.817
 5433SOL     OW16750   1.942   2.425   5.110
 5433SOL    HW116751   2.036   2.421   5.089
 5433SOL    HW216752   1.936   2.491   5.179
 5434SOL     OW16753   2.415   2.080   4.899
 5434SOL    HW116754   2.470   2.006   4.923
 5434SOL    HW216755   2.331   2.063   4.942
 5435SOL     OW16756   2.725   2.318   4.362
 5435SOL    HW116757   2.685   2.375   4.297
 5435SOL    HW216758   2.752   2.240   4.314
 5436SOL     OW16759   2.876   1.916   4.474
 5436SOL    HW116760   2.821   1.906   4.396
 5436SOL    HW216761   2.854   1.841   4.529
 5437SOL     OW16762   3.303   3.022   4.581
 5437SOL    HW116763   3.231   2.959   4.580
 5437SOL    HW216764   3.328   3.030   4.489
 5438SOL     OW16765   3.327   2.473   4.692
 5438SOL    HW116766   3.272   2.394   4.695
 5438SOL    HW216767   3.384   2.464   4.768
 5439SOL     OW16768   3.724   2.677   4.099
 5439SOL    HW116769   3.767   2.621   4.164
 5439SOL    HW216770   3.687   2.615   4.035
 5440SOL     OW16771   2.352   3.282   3.875
 5440SOL    HW116772   2.276   3.255   3.927
 5440SOL    HW216773   2.343   3.234   3.793
 5441SOL     OW16774   3.531   3.128   4.365
 5441SOL    HW116775   3.626   3.129   4.376
 5441SOL    HW216776   3.503   3.217   4.387
 5442SOL     OW16777   3.256   2.434   3.795
 5442SOL    HW116778   3.194   2.413   3.865
 5442SOL    HW216779   3.340   2.404   3.828
 5443SOL     OW16780   2.386   2.130   4.028
 5443SOL    HW116781   2.433   2.083   3.959
 5443SOL    HW216782   2.360   2.213   3.987
 5444SOL     OW16783   3.612   3.095   5.284
 5444SOL    HW116784   3.699   3.060   5.267
 5444SOL    HW216785   3.627   3.185   5.313
 5445SOL     OW16786   2.917   3.214   5.055
 5445SOL    HW116787   2.841   3.183   5.106
 5445SOL    HW216788   2.992   3.173   5.097
 5446SOL     OW16789   3.469   3.492   5.383
 5446SOL    HW116790   3.459   3.526   5.294
 5446SOL    HW216791   3.549   3.439   5.379
 5447SOL     OW16792   2.996   3.072   4.826
 5447SOL    HW116793   2.937   3.110   4.890
 5447SOL    HW216794   2.966   3.107   4.742
 5448SOL     OW16795   3.488   2.956   4.798
 5448SOL    HW116796   3.478   3.018   4.870
 5448SOL    HW216797   3.413   2.973   4.741
 5449SOL     OW16798   2.778   1.957   5.114
 5449SOL    HW116799   2.802   1.937   5.024
 5449SOL    HW216800   2.857   1.996   5.152
 5450SOL     OW16801   2.846   2.977   5.447
 5450SOL    HW116802   2.755   2.994   5.471
 5450SOL    HW216803   2.843   2.898   5.392
 5451SOL     OW16804   2.572   2.924   4.095
 5451SOL    HW116805   2.557   2.903   4.187
 5451SOL    HW216806   2.647   2.871   4.070
 5452SOL     OW16807   2.282   2.677   4.976
 5452SOL    HW116808   2.350   2.689   5.042
 5452SOL    HW216809   2.249   2.589   4.991
 5453SOL     OW16810   3.125   2.236   5.006
 5453SOL    HW116811   3.158   2.314   5.050
 5453SOL    HW216812   3.035   2.258   4.983
 5454SOL     OW16813   1.936   3.435   5.080
 5454SOL    HW116814   1.909   3.510   5.026
 5454SOL    HW216815   2.032   3.435   5.073
 5455SOL     OW16816   2.201   2.979   4.212
 5455SOL    HW116817   2.204   3.053   4.151
 5455SOL    HW216818   2.198   2.901   4.157
 5456SOL     OW16819   2.403   2.394   4.587
 5456SOL    HW116820   2.416   2.452   4.512
 5456SOL    HW216821   2.471   2.420   4.649
 5457SOL     OW16822   3.109   3.212   4.114
 5457SOL    HW116823   3.165   3.282   4.146
 5457SOL    HW216824   3.022   3.233   4.148
 5458SOL     OW16825   3.150   3.323   4.873
 5458SOL    HW116826   3.206   3.328   4.950
 5458SOL    HW216827   3.096   3.246   4.888
 5459SOL     OW16828   3.437   2.479   4.209
 5459SOL    HW116829   3.389   2.530   4.275
 5459SOL    HW216830   3.479   2.545   4.154
 5460SOL     OW16831   2.207   3.393   5.033
 5460SOL    HW116832   2.196   3.347   4.950
 5460SOL    HW216833   2.302   3.403   5.042
 5461SOL     OW16834   2.281   2.613   5.330
 5461SOL    HW116835   2.343   2.654   5.270
 5461SOL    HW216836   2.324   2.532   5.358
 5462SOL     OW16837   3.469   2.641   5.410
 5462SOL    HW116838   3.384   2.684   5.404
 5462SOL    HW216839   3.522   2.684   5.342
 5463SOL     OW16840   2.858   1.995   5.475
 5463SOL    HW116841   2.917   2.067   5.455
 5463SOL    HW216842   2.906   1.916   5.451
 5464SOL     OW16843   2.370   1.888   5.474
 5464SOL    HW116844   2.320   1.834   5.414
 5464SOL    HW216845   2.316   1.965   5.488
 5465SOL     OW16846   2.449   2.735   4.758
 5465SOL    HW116847   2.482   2.825   4.758
 5465SOL    HW216848   2.391   2.731   4.834
 5466SOL     OW16849   3.210   2.721   4.745
 5466SOL    HW116850   3.125   2.706   4.705
 5466SOL    HW216851   3.257   2.638   4.736
 5467SOL     OW16852   3.061   2.389   3.985
 5467SOL    HW116853   3.071   2.311   4.040
 5467SOL    HW216854   3.019   2.454   4.042
 5468SOL     OW16855   1.908   3.173   4.998
 5468SOL    HW116856   1.940   3.119   5.070
 5468SOL    HW216857   1.914   3.263   5.032
 5469SOL     OW16858   2.579   2.487   4.776
 5469SOL    HW116859   2.658   2.475   4.723
 5469SOL    HW216860   2.554   2.578   4.760
 5470SOL     OW16861   3.591   2.822   5.589
 5470SOL    HW116862   3.553   2.753   5.534
 5470SOL    HW216863   3.527   2.836   5.658
 5471SOL     OW16864   2.224   1.896   4.326
 5471SOL    HW116865   2.149   1.950   4.305
 5471SOL    HW216866   2.211   1.871   4.418
 5472SOL     OW16867   3.483   2.241   4.085
 5472SOL    HW116868   3.510   2.175   4.149
 5472SOL    HW216869   3.459   2.317   4.137
 5473SOL     OW16870   2.890   2.619   4.682
 5473SOL    HW116871   2.882   2.636   4.776
 5473SOL    HW216872   2.863   2.528   4.672
 5474SOL     OW16873   2.848   3.430   5.447
 5474SOL    HW116874   2.828   3.470   5.362
 5474SOL    HW216875   2.889   3.347   5.425
 5475SOL     OW16876   3.703   3.357   5.321
 5475SOL    HW116877   3.728   3.388   5.234
 5475SOL    HW216878   3.782   3.364   5.373
 5476SOL     OW16879   2.214   2.779   5.540
 5476SOL    HW116880   2.296   2.802   5.582
 5476SOL    HW216881   2.239   2.719   5.469
 5477SOL     OW16882   3.390   2.133   3.850
 5477SOL    HW116883   3.326   2.068   3.878
 5477SOL    HW216884   3.423   2.170   3.932
 5478SOL     OW16885   3.149   2.686   3.752
 5478SOL    HW116886   3.192   2.601   3.757
 5478SOL    HW216887   3.182   2.725   3.671
 5479SOL     OW16888   2.930   3.201   4.581
 5479SOL    HW116889   2.935   3.128   4.518
 5479SOL    HW216890   2.988   3.268   4.545
 5480SOL     OW16891   2.172   2.673   4.670
 5480SOL    HW116892   2.265   2.695   4.659
 5480SOL    HW216893   2.172   2.585   4.707
 5481SOL     OW16894   2.181   2.362   4.736
 5481SOL    HW116895   2.137   2.293   4.686
 5481SOL    HW216896   2.262   2.379   4.688
 5482SOL     OW16897   2.996   2.235   5.409
 5482SOL    HW116898   2.948   2.289   5.472
 5482SOL    HW216899   3.083   2.274   5.405
 5483SOL     OW16900   3.020   2.060   5.195
 5483SOL    HW116901   3.010   2.123   5.267
 5483SOL    HW216902   3.064   2.110   5.126
 5484SOL     OW16903   1.869   3.179   3.918
 5484SOL    HW116904   1.781   3.194   3.883
 5484SOL    HW216905   1.865   3.090   3.953
 5485SOL     OW16906   1.961   3.636   4.663
 5485SOL    HW116907   1.928   3.559   4.617
 5485SOL    HW216908   2.044   3.656   4.621
 5486SOL     OW16909   2.353   3.439   4.628
 5486SOL    HW116910   2.421   3.502   4.652
 5486SOL    HW216911   2.397   3.376   4.571
 5487SOL     OW16912   2.836   2.649   4.948
 5487SOL    HW116913   2.897   2.631   5.019
 5487SOL    HW216914   2.752   2.612   4.979
 5488SOL     OW16915   1.900   2.400   4.842
 5488SOL    HW116916   1.985   2.404   4.797
 5488SOL    HW216917   1.922   2.413   4.934
 5489SOL     OW16918   2.067   2.396   5.448
 5489SOL    HW116919   2.127   2.361   5.382
 5489SOL    HW216920   2.022   2.468   5.403
 5490SOL     OW16921   3.243   2.796   5.381
 5490SOL    HW116922   3.264   2.889   5.378
 5490SOL    HW216923   3.238   2.769   5.290
 5491SOL     OW16924   2.679   2.432   4.093
 5491SOL    HW116925   2.684   2.359   4.031
 5491SOL    HW216926   2.606   2.485   4.061
 5492SOL     OW16927   3.501   2.463   4.904
 5492SOL    HW116928   3.490   2.403   4.978
 5492SOL    HW216929   3.588   2.443   4.870
 5493SOL     OW16930   2.102   3.410   5.446
 5493SOL    HW116931   2.079   3.477   5.510
 5493SOL    HW216932   2.108   3.329   5.496
 5494SOL     OW16933   2.569   2.306   4.979
 5494SOL    HW116934   2.513   2.233   4.952
 5494SOL    HW216935   2.562   2.369   4.907
 5495SOL     OW16936   2.786   3.532   5.195
 5495SOL    HW116937   2.760   3.492   5.112
 5495SOL    HW216938   2.778   3.626   5.180
 5496SOL     OW16939   2.324   2.362   3.911
 5496SOL    HW116940   2.382   2.434   3.935
 5496SOL    HW216941   2.239   2.403   3.894
 5497SOL     OW16942   2.004   3.006   5.199
 5497SOL    HW116943   2.005   2.958   5.282
 5497SOL    HW216944   2.021   2.939   5.133
 5498SOL     OW16945   3.181   2.905   4.944
 5498SOL    HW116946   3.203   2.842   4.875
 5498SOL    HW216947   3.115   2.962   4.904
 5499SOL     OW16948   3.176   2.717   4.028
 5499SOL    HW116949   3.102   2.686   4.080
 5499SOL    HW216950   3.149   2.704   3.937
 5500SOL     OW16951   3.642   3.599   4.882
 5500SOL    HW116952   3.700   3.626   4.811
 5500SOL    HW216953   3.613   3.511   4.858
 5501SOL     OW16954   3.107   3.594   4.830
 5501SOL    HW116955   3.190   3.617   4.788
 5501SOL    HW216956   3.114   3.501   4.851
 5502SOL     OW16957   1.949   3.127   4.735
 5502SOL    HW116958   1.932   3.142   4.827
 5502SOL    HW216959   1.876   3.073   4.705
 5503SOL     OW16960   2.542   3.528   5.461
 5503SOL    HW116961   2.483   3.604   5.465
 5503SOL    HW216962   2.603   3.549   5.391
 5504SOL     OW16963   3.569   2.016   4.234
 5504SOL    HW116964   3.637   2.004   4.167
 5504SOL    HW216965   3.559   1.930   4.274
 5505SOL     OW16966   3.253   3.430   4.214
 5505SOL    HW116967   3.311   3.465   4.146
 5505SOL    HW216968   3.203   3.506   4.245
 5506SOL     OW16969   2.000   3.651   5.562
 5506SOL    HW116970   1.948   3.587   5.610
 5506SOL    HW216971   2.048   3.700   5.629
 5507SOL     OW16972   3.139   2.789   4.395
 5507SOL    HW116973   3.213   2.730   4.405
 5507SOL    HW216974   3.173   2.861   4.341
 5508SOL     OW16975   2.667   3.138   5.149
 5508SOL    HW116976   2.640   3.179   5.231
 5508SOL    HW216977   2.597   3.159   5.087
 5509SOL     OW16978   2.536   3.482   3.883
 5509SOL    HW116979   2.546   3.500   3.790
 5509SOL    HW216980   2.476   3.406   3.886
 5510SOL     OW16981   3.479   3.589   5.114
 5510SOL    HW116982   3.536   3.591   5.037
 5510SOL    HW216983   3.465   3.681   5.137
 5511SOL     OW16984   3.701   2.043   4.689
 5511SOL    HW116985   3.732   1.956   4.666
 5511SOL    HW216986   3.614   2.049   4.649
 5512SOL     OW16987   3.070   3.463   3.761
 5512SOL    HW116988   3.059   3.371   3.785
 5512SOL    HW216989   3.008   3.476   3.689
 5513SOL     OW16990   2.686   2.869   5.099
 5513SOL    HW116991   2.729   2.864   5.013
 5513SOL    HW216992   2.682   2.963   5.118
 5514SOL     OW16993   2.779   2.773   4.015
 5514SOL    HW116994   2.839   2.806   3.948
 5514SOL    HW216995   2.829   2.705   4.061
 5515SOL     OW16996   3.348   3.498   3.767
 5515SOL    HW116997   3.255   3.483   3.751
 5515SOL    HW216998   3.388   3.502   3.680
 5516SOL     OW16999   2.230   3.167   5.215
 5516SOL    HW117000   2.217   3.244   5.160
 5516SOL    HW217001   2.152   3.113   5.201
 5517SOL     OW17002   3.460   3.142   5.000
 5517SOL    HW117003   3.529   3.131   5.065
 5517SOL    HW217004   3.403   3.210   5.035
 5518SOL     OW17005   2.922   2.972   4.435
 5518SOL    HW117006   2.850   2.922   4.471
 5518SOL    HW217007   2.986   2.906   4.407
 5519SOL     OW17008   2.884   2.103   4.690
 5519SOL    HW117009   2.881   2.057   4.606
 5519SOL    HW217010   2.881   2.034   4.756
 5520SOL     OW17011   2.468   3.353   4.203
 5520SOL    HW117012   2.516   3.302   4.138
 5520SOL    HW217013   2.397   3.393   4.154
 5521SOL     OW17014   3.588   2.250   5.102
 5521SOL    HW117015   3.661   2.313   5.099
 5521SOL    HW217016   3.616   2.179   5.045
 5522SOL     OW17017   2.124   3.204   4.016
 5522SOL    HW117018   2.031   3.200   3.992
 5522SOL    HW217019   2.125   3.244   4.103
 5523SOL     OW17020   1.976   2.894   5.449
 5523SOL    HW117021   1.899   2.866   5.499
 5523SOL    HW217022   2.049   2.851   5.494
 5524SOL     OW17023   2.536   2.058   5.224
 5524SOL    HW117024   2.619   2.037   5.182
 5524SOL    HW217025   2.561   2.091   5.311
 5525SOL     OW17026   1.898   2.286   3.787
 5525SOL    HW117027   1.863   2.200   3.762
 5525SOL    HW217028   1.945   2.316   3.710
 5526SOL     OW17029   3.286   2.720   5.121
 5526SOL    HW117030   3.236   2.781   5.068
 5526SOL    HW217031   3.374   2.722   5.084
 5527SOL     OW17032   3.039   3.196   3.842
 5527SOL    HW117033   2.948   3.167   3.843
 5527SOL    HW217034   3.065   3.196   3.934
 5528SOL     OW17035   2.482   2.693   5.158
 5528SOL    HW117036   2.539   2.769   5.144
 5528SOL    HW217037   2.543   2.619   5.165
 5529SOL     OW17038   3.348   3.645   4.708
 5529SOL    HW117039   3.371   3.703   4.635
 5529SOL    HW217040   3.432   3.610   4.738
 5530SOL     OW17041   2.579   2.422   5.422
 5530SOL    HW117042   2.623   2.482   5.482
 5530SOL    HW217043   2.598   2.335   5.457
 5531SOL     OW17044   3.336   3.057   5.352
 5531SOL    HW117045   3.326   3.072   5.446
 5531SOL    HW217046   3.428   3.073   5.335
 5532SOL     OW17047   2.233   3.605   5.292
 5532SOL    HW117048   2.149   3.648   5.274
 5532SOL    HW217049   2.209   3.521   5.331
 5533SOL     OW17050   3.524   2.741   4.983
 5533SOL    HW117051   3.524   2.656   4.939
 5533SOL    HW217052   3.517   2.805   4.911
 5534SOL     OW17053   3.081   2.182   4.180
 5534SOL    HW117054   3.142   2.109   4.174
 5534SOL    HW217055   3.109   2.232   4.257
 5535SOL     OW17056   2.444   2.596   4.401
 5535SOL    HW117057   2.487   2.680   4.386
 5535SOL    HW217058   2.382   2.587   4.328
 5536SOL     OW17059   3.618   2.228   5.374
 5536SOL    HW117060   3.602   2.242   5.281
 5536SOL    HW217061   3.547   2.170   5.402
 5537SOL     OW17062   3.620   2.788   5.236
 5537SOL    HW117063   3.610   2.881   5.255
 5537SOL    HW217064   3.594   2.779   5.145
 5538SOL     OW17065   2.727   3.228   3.767
 5538SOL    HW117066   2.686   3.255   3.850
 5538SOL    HW217067   2.740   3.310   3.719
 5539SOL     OW17068   2.523   3.648   4.659
 5539SOL    HW117069   2.503   3.740   4.641
 5539SOL    HW217070   2.619   3.643   4.656
 5540SOL     OW17071   2.731   2.833   4.578
 5540SOL    HW117072   2.781   2.760   4.615
 5540SOL    HW217073   2.693   2.877   4.654
 5541SOL     OW17074   2.939   2.851   3.813
 5541SOL    HW117075   2.918   2.902   3.735
 5541SOL    HW217076   3.013   2.796   3.786
 5542SOL     OW17077   3.709   3.416   4.563
 5542SOL    HW117078   3.629   3.397   4.515
 5542SOL    HW217079   3.714   3.346   4.629
 5543SOL     OW17080   2.088   3.160   5.577
 5543SOL    HW117081   2.025   3.097   5.542
 5543SOL    HW217082   2.059   3.175   5.668
 5544SOL     OW17083   1.951   3.091   4.389
 5544SOL    HW117084   1.961   3.046   4.473
 5544SOL    HW217085   2.016   3.052   4.332
 5545SOL     OW17086   2.547   3.269   5.355
 5545SOL    HW117087   2.467   3.227   5.388
 5545SOL    HW217088   2.545   3.357   5.393
 5546SOL     OW17089   3.671   2.037   4.960
 5546SOL    HW117090   3.664   1.942   4.962
 5546SOL    HW217091   3.688   2.059   4.869
 5547SOL     OW17092   2.293   2.290   4.244
 5547SOL    HW117093   2.329   2.233   4.175
 5547SOL    HW217094   2.249   2.230   4.304
 5548SOL     OW17095   3.555   3.351   4.819
 5548SOL    HW117096   3.478   3.328   4.768
 5548SOL    HW217097   3.564   3.279   4.882
 5549SOL     OW17098   2.197   2.417   5.013
 5549SOL    HW117099   2.240   2.354   5.071
 5549SOL    HW217100   2.210   2.382   4.925
 5550SOL     OW17101   2.692   3.441   4.400
 5550SOL    HW117102   2.669   3.496   4.325
 5550SOL    HW217103   2.619   3.379   4.407
 5551SOL     OW17104   3.291   2.092   4.840
 5551SOL    HW117105   3.310   2.007   4.881
 5551SOL    HW217106   3.241   2.139   4.906
 5552SOL     OW17107   2.870   1.878   4.860
 5552SOL    HW117108   2.817   1.811   4.816
 5552SOL    HW217109   2.958   1.840   4.863
 5553SOL     OW17110   2.636   3.195   4.046
 5553SOL    HW117111   2.608   3.104   4.053
 5553SOL    HW217112   2.718   3.198   4.094
 5554SOL     OW17113   2.482   3.414   5.010
 5554SOL    HW117114   2.481   3.496   5.060
 5554SOL    HW217115   2.570   3.409   4.973
 5555SOL     OW17116   3.220   1.914   3.895
 5555SOL    HW117117   3.253   1.843   3.840
 5555SOL    HW217118   3.130   1.887   3.916
 5556SOL     OW17119   3.156   2.325   4.402
 5556SOL    HW117120   3.104   2.406   4.407
 5556SOL    HW217121   3.152   2.289   4.490
 5557SOL     OW17122   3.442   2.057   4.604
 5557SOL    HW117123   3.388   2.083   4.679
 5557SOL    HW217124   3.444   2.134   4.548
 5558SOL     OW17125   1.906   2.930   4.032
 5558SOL    HW117126   1.999   2.920   4.013
 5558SOL    HW217127   1.877   2.841   4.055
 5559SOL     OW17128   2.750   3.525   4.065
 5559SOL    HW117129   2.678   3.506   4.005
 5559SOL    HW217130   2.719   3.599   4.117
 5560SOL     OW17131   2.081   2.496   5.715
 5560SOL    HW117132   1.999   2.453   5.740
 5560SOL    HW217133   2.090   2.477   5.621
 5561SOL     OW17134   2.431   3.158   6.768
 5561SOL    HW117135   2.345   3.162   6.727
 5561SOL    HW217136   2.447   3.246   6.801
 5562SOL     OW17137   3.429   3.375   6.296
 5562SOL    HW117138   3.387   3.351   6.378
 5562SOL    HW217139   3.357   3.378   6.232
 5563SOL     OW17140   2.997   2.561   6.282
 5563SOL    HW117141   3.045   2.643   6.268
 5563SOL    HW217142   2.952   2.574   6.366
 5564SOL     OW17143   3.632   2.466   5.814
 5564SOL    HW117144   3.610   2.458   5.721
 5564SOL    HW217145   3.597   2.386   5.854
 5565SOL     OW17146   2.612   3.000   6.631
 5565SOL    HW117147   2.544   3.035   6.689
 5565SOL    HW217148   2.649   3.078   6.589
 5566SOL     OW17149   2.744   2.637   7.417
 5566SOL    HW117150   2.730   2.713   7.474
 5566SOL    HW217151   2.759   2.676   7.330
 5567SOL     OW17152   2.557   2.883   6.223
 5567SOL    HW117153   2.615   2.856   6.294
 5567SOL    HW217154   2.482   2.923   6.267
 5568SOL     OW17155   2.577   3.013   7.402
 5568SOL    HW117156   2.625   3.089   7.433
 5568SOL    HW217157   2.497   3.048   7.364
 5569SOL     OW17158   2.194   3.281   6.653
 5569SOL    HW117159   2.118   3.245   6.608
 5569SOL    HW217160   2.238   3.334   6.586
 5570SOL     OW17161   3.320   3.364   6.946
 5570SOL    HW117162   3.375   3.442   6.956
 5570SOL    HW217163   3.252   3.374   7.013
 5571SOL     OW17164   3.468   2.305   6.331
 5571SOL    HW117165   3.397   2.325   6.270
 5571SOL    HW217166   3.475   2.382   6.387
 5572SOL     OW17167   2.084   3.578   6.065
 5572SOL    HW117168   2.112   3.637   6.135
 5572SOL    HW217169   2.157   3.576   6.003
 5573SOL     OW17170   2.998   3.203   7.281
 5573SOL    HW117171   3.040   3.196   7.367
 5573SOL    HW217172   2.947   3.123   7.272
 5574SOL     OW17173   2.093   3.304   6.123
 5574SOL    HW117174   2.074   3.397   6.126
 5574SOL    HW217175   2.034   3.265   6.188
 5575SOL     OW17176   2.127   2.953   6.488
 5575SOL    HW117177   2.095   2.876   6.534
 5575SOL    HW217178   2.074   3.025   6.524
 5576SOL     OW17179   2.465   3.647   7.014
 5576SOL    HW117180   2.384   3.633   7.063
 5576SOL    HW217181   2.493   3.735   7.038
 5577SOL     OW17182   2.444   2.849   5.722
 5577SOL    HW117183   2.492   2.895   5.653
 5577SOL    HW217184   2.482   2.880   5.804
 5578SOL     OW17185   3.455   1.989   7.050
 5578SOL    HW117186   3.478   2.069   7.004
 5578SOL    HW217187   3.438   2.017   7.140
 5579SOL     OW17188   3.700   3.611   5.929
 5579SOL    HW117189   3.772   3.586   5.986
 5579SOL    HW217190   3.718   3.702   5.906
 5580SOL     OW17191   1.895   3.452   5.706
 5580SOL    HW117192   1.880   3.360   5.726
 5580SOL    HW217193   1.873   3.499   5.786
 5581SOL     OW17194   3.553   2.783   6.236
 5581SOL    HW117195   3.634   2.738   6.216
 5581SOL    HW217196   3.532   2.831   6.156
 5582SOL     OW17197   3.504   2.964   6.018
 5582SOL    HW117198   3.589   2.967   5.974
 5582SOL    HW217199   3.511   3.028   6.089
 5583SOL     OW17200   2.479   3.253   6.321
 5583SOL    HW117201   2.434   3.169   6.330
 5583SOL    HW217202   2.462   3.280   6.230
 5584SOL     OW17203   3.147   3.097   7.008
 5584SOL    HW117204   3.179   3.030   6.947
 5584SOL    HW217205   3.207   3.092   7.082
 5585SOL     OW17206   2.046   2.828   6.854
 5585SOL    HW117207   2.135   2.796   6.840
 5585SOL    HW217208   1.990   2.758   6.821
 5586SOL     OW17209   3.388   2.861   5.787
 5586SOL    HW117210   3.319   2.804   5.821
 5586SOL    HW217211   3.432   2.895   5.866
 5587SOL     OW17212   3.087   3.668   7.215
 5587SOL    HW117213   3.058   3.729   7.146
 5587SOL    HW217214   3.086   3.582   7.173
 5588SOL     OW17215   3.327   3.282   6.532
 5588SOL    HW117216   3.262   3.297   6.600
 5588SOL    HW217217   3.316   3.190   6.508
 5589SOL     OW17218   3.505   3.609   6.167
 5589SOL    HW117219   3.498   3.573   6.078
 5589SOL    HW217220   3.491   3.534   6.224
 5590SOL     OW17221   2.463   2.589   5.851
 5590SOL    HW117222   2.472   2.666   5.795
 5590SOL    HW217223   2.423   2.622   5.932
 5591SOL     OW17224   3.141   2.228   6.521
 5591SOL    HW117225   3.053   2.193   6.530
 5591SOL    HW217226   3.195   2.173   6.579
 5592SOL     OW17227   3.434   3.540   5.895
 5592SOL    HW117228   3.527   3.562   5.890
 5592SOL    HW217229   3.409   3.521   5.804
 5593SOL     OW17230   3.255   2.337   7.262
 5593SOL    HW117231   3.258   2.381   7.347
 5593SOL    HW217232   3.312   2.260   7.273
 5594SOL     OW17233   2.813   2.742   7.166
 5594SOL    HW117234   2.865   2.671   7.127
 5594SOL    HW217235   2.771   2.785   7.091
 5595SOL     OW17236   2.865   2.267   6.812
 5595SOL    HW117237   2.779   2.297   6.844
 5595SOL    HW217238   2.846   2.225   6.728
 5596SOL     OW17239   2.913   2.559   6.012
 5596SOL    HW117240   2.933   2.552   6.105
 5596SOL    HW217241   2.830   2.513   6.001
 5597SOL     OW17242   1.979   3.720   7.165
 5597SOL    HW117243   1.986   3.698   7.258
 5597SOL    HW217244   1.888   3.698   7.142
 5598SOL     OW17245   2.761   2.215   5.783
 5598SOL    HW117246   2.801   2.277   5.722
 5598SOL    HW217247   2.768   2.130   5.739
 5599SOL     OW17248   3.569   2.433   7.416
 5599SOL    HW117249   3.532   2.507   7.367
 5599SOL    HW217250   3.595   2.370   7.349
 5600SOL     OW17251   3.240   3.004   6.125
 5600SOL    HW117252   3.320   2.992   6.074
 5600SOL    HW217253   3.188   3.066   6.074
 5601SOL     OW17254   2.862   3.307   6.055
 5601SOL    HW117255   2.829   3.382   6.006
 5601SOL    HW217256   2.840   3.325   6.146
 5602SOL     OW17257   2.213   3.676   6.422
 5602SOL    HW117258   2.263   3.596   6.441
 5602SOL    HW217259   2.272   3.747   6.448
 5603SOL     OW17260   3.669   2.923   6.455
 5603SOL    HW117261   3.618   2.894   6.380
 5603SOL    HW217262   3.606   2.926   6.528
 5604SOL     OW17263   3.088   3.400   7.098
 5604SOL    HW117264   3.076   3.328   7.160
 5604SOL    HW217265   3.020   3.387   7.033
 5605SOL     OW17266   2.180   2.807   5.842
 5605SOL    HW117267   2.261   2.835   5.800
 5605SOL    HW217268   2.148   2.735   5.788
 5606SOL     OW17269   3.344   2.612   6.308
 5606SOL    HW117270   3.339   2.571   6.395
 5606SOL    HW217271   3.422   2.667   6.312
 5607SOL     OW17272   2.331   3.127   7.323
 5607SOL    HW117273   2.305   3.133   7.231
 5607SOL    HW217274   2.248   3.126   7.371
 5608SOL     OW17275   2.977   3.644   5.805
 5608SOL    HW117276   2.911   3.600   5.859
 5608SOL    HW217277   3.008   3.577   5.744
 5609SOL     OW17278   3.485   3.249   5.675
 5609SOL    HW117279   3.442   3.332   5.657
 5609SOL    HW217280   3.419   3.183   5.654
 5610SOL     OW17281   2.327   3.600   5.911
 5610SOL    HW117282   2.366   3.663   5.971
 5610SOL    HW217283   2.399   3.573   5.854
 5611SOL     OW17284   3.265   1.966   6.027
 5611SOL    HW117285   3.259   1.942   5.935
 5611SOL    HW217286   3.359   1.973   6.044
 5612SOL     OW17287   2.123   3.652   6.805
 5612SOL    HW117288   2.169   3.580   6.848
 5612SOL    HW217289   2.105   3.620   6.717
 5613SOL     OW17290   2.801   3.565   6.483
 5613SOL    HW117291   2.877   3.513   6.508
 5613SOL    HW217292   2.758   3.514   6.414
 5614SOL     OW17293   3.391   2.087   7.310
 5614SOL    HW117294   3.402   2.107   7.403
 5614SOL    HW217295   3.322   2.021   7.308
 5615SOL     OW17296   2.521   1.984   5.682
 5615SOL    HW117297   2.578   1.914   5.714
 5615SOL    HW217298   2.468   1.942   5.614
 5616SOL     OW17299   2.738   3.384   6.781
 5616SOL    HW117300   2.720   3.347   6.695
 5616SOL    HW217301   2.808   3.329   6.817
 5617SOL     OW17302   3.195   2.461   7.022
 5617SOL    HW117303   3.228   2.427   7.104
 5617SOL    HW217304   3.238   2.546   7.012
 5618SOL     OW17305   2.680   3.253   6.532
 5618SOL    HW117306   2.765   3.241   6.489
 5618SOL    HW217307   2.617   3.257   6.460
 5619SOL     OW17308   2.782   2.366   6.494
 5619SOL    HW117309   2.774   2.365   6.399
 5619SOL    HW217310   2.822   2.281   6.516
 5620SOL     OW17311   2.339   1.934   6.042
 5620SOL    HW117312   2.307   1.977   6.122
 5620SOL    HW217313   2.364   2.007   5.984
 5621SOL     OW17314   3.289   3.063   5.625
 5621SOL    HW117315   3.320   2.988   5.676
 5621SOL    HW217316   3.204   3.084   5.662
 5622SOL     OW17317   2.827   2.130   6.050
 5622SOL    HW117318   2.791   2.153   5.964
 5622SOL    HW217319   2.921   2.141   6.040
 5623SOL     OW17320   2.927   2.521   7.040
 5623SOL    HW117321   2.901   2.444   7.091
 5623SOL    HW217322   3.021   2.509   7.027
 5624SOL     OW17323   3.081   3.434   6.380
 5624SOL    HW117324   3.096   3.501   6.313
 5624SOL    HW217325   3.151   3.447   6.443
 5625SOL     OW17326   2.330   3.015   6.317
 5625SOL    HW117327   2.265   2.993   6.383
 5625SOL    HW217328   2.286   3.000   6.233
 5626SOL     OW17329   3.125   3.654   6.196
 5626SOL    HW117330   3.173   3.719   6.145
 5626SOL    HW217331   3.051   3.702   6.232
 5627SOL     OW17332   2.886   2.397   5.611
 5627SOL    HW117333   2.843   2.481   5.593
 5627SOL    HW217334   2.951   2.418   5.679
 5628SOL     OW17335   1.913   2.489   6.944
 5628SOL    HW117336   2.000   2.508   6.909
 5628SOL    HW217337   1.915   2.520   7.034
 5629SOL     OW17338   2.763   2.331   6.226
 5629SOL    HW117339   2.705   2.376   6.165
 5629SOL    HW217340   2.789   2.250   6.181
 5630SOL     OW17341   2.905   1.925   6.338
 5630SOL    HW117342   2.842   1.937   6.267
 5630SOL    HW217343   2.875   1.845   6.381
 5631SOL     OW17344   3.302   3.022   6.443
 5631SOL    HW117345   3.231   2.959   6.443
 5631SOL    HW217346   3.328   3.030   6.351
 5632SOL     OW17347   3.327   2.473   6.554
 5632SOL    HW117348   3.272   2.395   6.556
 5632SOL    HW217349   3.384   2.464   6.630
 5633SOL     OW17350   3.724   2.677   5.961
 5633SOL    HW117351   3.767   2.621   6.026
 5633SOL    HW217352   3.687   2.615   5.897
 5634SOL     OW17353   2.351   3.282   5.737
 5634SOL    HW117354   2.276   3.254   5.789
 5634SOL    HW217355   2.343   3.234   5.655
 5635SOL     OW17356   3.531   3.128   6.227
 5635SOL    HW117357   3.626   3.129   6.238
 5635SOL    HW217358   3.503   3.217   6.249
 5636SOL     OW17359   3.256   2.434   5.657
 5636SOL    HW117360   3.194   2.414   5.726
 5636SOL    HW217361   3.340   2.404   5.690
 5637SOL     OW17362   2.402   2.137   5.884
 5637SOL    HW117363   2.453   2.099   5.812
 5637SOL    HW217364   2.370   2.220   5.849
 5638SOL     OW17365   3.612   3.095   7.146
 5638SOL    HW117366   3.699   3.060   7.129
 5638SOL    HW217367   3.627   3.185   7.175
 5639SOL     OW17368   2.917   3.216   6.918
 5639SOL    HW117369   2.841   3.184   6.968
 5639SOL    HW217370   2.992   3.173   6.960
 5640SOL     OW17371   3.469   3.492   7.245
 5640SOL    HW117372   3.459   3.526   7.156
 5640SOL    HW217373   3.549   3.439   7.241
 5641SOL     OW17374   2.998   3.074   6.688
 5641SOL    HW117375   2.936   3.109   6.752
 5641SOL    HW217376   2.967   3.107   6.604
 5642SOL     OW17377   3.488   2.956   6.659
 5642SOL    HW117378   3.477   3.018   6.732
 5642SOL    HW217379   3.412   2.973   6.603
 5643SOL     OW17380   2.814   1.936   6.971
 5643SOL    HW117381   2.831   1.928   6.877
 5643SOL    HW217382   2.889   1.984   7.005
 5644SOL     OW17383   2.846   2.973   7.306
 5644SOL    HW117384   2.755   2.991   7.330
 5644SOL    HW217385   2.842   2.895   7.252
 5645SOL     OW17386   2.571   2.924   5.953
 5645SOL    HW117387   2.561   2.912   6.048
 5645SOL    HW217388   2.647   2.869   5.930
 5646SOL     OW17389   2.289   2.696   6.833
 5646SOL    HW117390   2.357   2.700   6.900
 5646SOL    HW217391   2.243   2.614   6.850
 5647SOL     OW17392   3.131   2.241   6.868
 5647SOL    HW117393   3.159   2.321   6.913
 5647SOL    HW217394   3.040   2.258   6.843
 5648SOL     OW17395   1.937   3.435   6.942
 5648SOL    HW117396   1.909   3.509   6.887
 5648SOL    HW217397   2.032   3.435   6.935
 5649SOL     OW17398   2.196   2.977   6.075
 5649SOL    HW117399   2.202   3.053   6.018
 5649SOL    HW217400   2.200   2.902   6.016
 5650SOL     OW17401   3.109   3.212   5.976
 5650SOL    HW117402   3.165   3.283   6.008
 5650SOL    HW217403   3.022   3.233   6.009
 5651SOL     OW17404   3.150   3.323   6.734
 5651SOL    HW117405   3.205   3.327   6.812
 5651SOL    HW217406   3.096   3.245   6.747
 5652SOL     OW17407   3.437   2.480   6.071
 5652SOL    HW117408   3.389   2.530   6.137
 5652SOL    HW217409   3.479   2.546   6.016
 5653SOL     OW17410   2.207   3.393   6.895
 5653SOL    HW117411   2.196   3.347   6.812
 5653SOL    HW217412   2.302   3.404   6.905
 5654SOL     OW17413   2.277   2.653   7.167
 5654SOL    HW117414   2.360   2.661   7.119
 5654SOL    HW217415   2.278   2.563   7.201
 5655SOL     OW17416   3.469   2.641   7.272
 5655SOL    HW117417   3.384   2.685   7.267
 5655SOL    HW217418   3.522   2.685   7.205
 5656SOL     OW17419   2.857   1.964   7.335
 5656SOL    HW117420   2.898   2.049   7.319
 5656SOL    HW217421   2.920   1.901   7.301
 5657SOL     OW17422   2.455   2.719   6.615
 5657SOL    HW117423   2.479   2.811   6.600
 5657SOL    HW217424   2.390   2.723   6.685
 5658SOL     OW17425   3.210   2.721   6.607
 5658SOL    HW117426   3.124   2.705   6.567
 5658SOL    HW217427   3.256   2.638   6.598
 5659SOL     OW17428   3.060   2.392   5.846
 5659SOL    HW117429   3.075   2.315   5.900
 5659SOL    HW217430   3.017   2.454   5.904
 5660SOL     OW17431   1.906   3.174   6.858
 5660SOL    HW117432   1.938   3.117   6.928
 5660SOL    HW217433   1.913   3.262   6.895
 5661SOL     OW17434   2.633   2.518   6.691
 5661SOL    HW117435   2.661   2.467   6.615
 5661SOL    HW217436   2.567   2.579   6.657
 5662SOL     OW17437   3.592   2.822   7.451
 5662SOL    HW117438   3.553   2.753   7.396
 5662SOL    HW217439   3.527   2.836   7.520
 5663SOL     OW17440   3.484   2.241   5.947
 5663SOL    HW117441   3.510   2.175   6.011
 5663SOL    HW217442   3.459   2.317   5.999
 5664SOL     OW17443   2.897   2.618   6.540
 5664SOL    HW117444   2.892   2.641   6.633
 5664SOL    HW217445   2.860   2.530   6.536
 5665SOL     OW17446   2.848   3.430   7.309
 5665SOL    HW117447   2.828   3.470   7.224
 5665SOL    HW217448   2.889   3.347   7.286
 5666SOL     OW17449   3.703   3.357   7.183
 5666SOL    HW117450   3.728   3.388   7.096
 5666SOL    HW217451   3.782   3.364   7.235
 5667SOL     OW17452   2.206   2.795   7.386
 5667SOL    HW117453   2.292   2.821   7.420
 5667SOL    HW217454   2.226   2.750   7.305
 5668SOL     OW17455   3.390   2.134   5.712
 5668SOL    HW117456   3.326   2.068   5.740
 5668SOL    HW217457   3.423   2.171   5.794
 5669SOL     OW17458   3.148   2.686   5.614
 5669SOL    HW117459   3.192   2.601   5.619
 5669SOL    HW217460   3.182   2.725   5.533
 5670SOL     OW17461   2.930   3.201   6.442
 5670SOL    HW117462   2.935   3.128   6.380
 5670SOL    HW217463   2.988   3.267   6.406
 5671SOL     OW17464   2.992   2.247   7.257
 5671SOL    HW117465   2.946   2.296   7.325
 5671SOL    HW217466   3.082   2.281   7.260
 5672SOL     OW17467   3.037   2.062   7.059
 5672SOL    HW117468   3.017   2.125   7.129
 5672SOL    HW217469   3.078   2.116   6.991
 5673SOL     OW17470   1.869   3.184   5.776
 5673SOL    HW117471   1.781   3.199   5.741
 5673SOL    HW217472   1.865   3.095   5.813
 5674SOL     OW17473   1.961   3.636   6.526
 5674SOL    HW117474   1.928   3.559   6.479
 5674SOL    HW217475   2.044   3.656   6.483
 5675SOL     OW17476   2.353   3.439   6.489
 5675SOL    HW117477   2.420   3.502   6.514
 5675SOL    HW217478   2.397   3.376   6.433
 5676SOL     OW17479   2.842   2.654   6.807
 5676SOL    HW117480   2.876   2.610   6.885
 5676SOL    HW217481   2.764   2.604   6.783
 5677SOL     OW17482   3.243   2.796   7.243
 5677SOL    HW117483   3.264   2.889   7.241
 5677SOL    HW217484   3.241   2.770   7.151
 5678SOL     OW17485   2.675   2.429   5.956
 5678SOL    HW117486   2.685   2.354   5.898
 5678SOL    HW217487   2.606   2.482   5.915
 5679SOL     OW17488   3.501   2.462   6.767
 5679SOL    HW117489   3.490   2.402   6.840
 5679SOL    HW217490   3.588   2.443   6.732
 5680SOL     OW17491   2.102   3.408   7.308
 5680SOL    HW117492   2.080   3.474   7.374
 5680SOL    HW217493   2.106   3.326   7.357
 5681SOL     OW17494   2.785   3.532   7.058
 5681SOL    HW117495   2.760   3.492   6.974
 5681SOL    HW217496   2.777   3.626   7.042
 5682SOL     OW17497   2.319   2.369   5.776
 5682SOL    HW117498   2.376   2.443   5.796
 5682SOL    HW217499   2.233   2.407   5.759
 5683SOL     OW17500   2.006   3.004   7.056
 5683SOL    HW117501   2.007   2.955   7.139
 5683SOL    HW217502   2.020   2.937   6.989
 5684SOL     OW17503   3.182   2.905   6.805
 5684SOL    HW117504   3.203   2.842   6.736
 5684SOL    HW217505   3.116   2.963   6.766
 5685SOL     OW17506   3.176   2.718   5.890
 5685SOL    HW117507   3.103   2.686   5.942
 5685SOL    HW217508   3.149   2.703   5.799
 5686SOL     OW17509   3.643   3.599   6.744
 5686SOL    HW117510   3.700   3.625   6.673
 5686SOL    HW217511   3.613   3.511   6.720
 5687SOL     OW17512   3.107   3.594   6.692
 5687SOL    HW117513   3.190   3.617   6.651
 5687SOL    HW217514   3.114   3.501   6.713
 5688SOL     OW17515   1.951   3.137   6.592
 5688SOL    HW117516   1.932   3.147   6.685
 5688SOL    HW217517   1.883   3.079   6.559
 5689SOL     OW17518   2.542   3.528   7.323
 5689SOL    HW117519   2.483   3.604   7.327
 5689SOL    HW217520   2.603   3.549   7.253
 5690SOL     OW17521   3.568   2.016   6.095
 5690SOL    HW117522   3.637   2.004   6.029
 5690SOL    HW217523   3.559   1.930   6.136
 5691SOL     OW17524   3.253   3.430   6.076
 5691SOL    HW117525   3.311   3.465   6.008
 5691SOL    HW217526   3.204   3.506   6.107
 5692SOL     OW17527   2.000   3.652   7.424
 5692SOL    HW117528   1.948   3.587   7.472
 5692SOL    HW217529   2.048   3.700   7.491
 5693SOL     OW17530   3.140   2.790   6.257
 5693SOL    HW117531   3.214   2.731   6.267
 5693SOL    HW217532   3.174   2.862   6.203
 5694SOL     OW17533   2.667   3.140   7.009
 5694SOL    HW117534   2.639   3.180   7.092
 5694SOL    HW217535   2.597   3.160   6.948
 5695SOL     OW17536   2.536   3.481   5.745
 5695SOL    HW117537   2.546   3.500   5.652
 5695SOL    HW217538   2.476   3.406   5.748
 5696SOL     OW17539   3.479   3.589   6.976
 5696SOL    HW117540   3.536   3.591   6.899
 5696SOL    HW217541   3.465   3.681   6.999
 5697SOL     OW17542   3.701   2.043   6.551
 5697SOL    HW117543   3.732   1.956   6.528
 5697SOL    HW217544   3.614   2.049   6.511
 5698SOL     OW17545   3.070   3.463   5.623
 5698SOL    HW117546   3.059   3.371   5.647
 5698SOL    HW217547   3.008   3.476   5.551
 5699SOL     OW17548   2.691   2.871   6.961
 5699SOL    HW117549   2.732   2.863   6.875
 5699SOL    HW217550   2.686   2.966   6.976
 5700SOL     OW17551   2.777   2.769   5.875
 5700SOL    HW117552   2.838   2.803   5.809
 5700SOL    HW217553   2.827   2.703   5.923
 5701SOL     OW17554   3.348   3.498   5.629
 5701SOL    HW117555   3.255   3.483   5.613
 5701SOL    HW217556   3.388   3.502   5.542
 5702SOL     OW17557   2.230   3.166   7.077
 5702SOL    HW117558   2.216   3.243   7.022
 5702SOL    HW217559   2.153   3.111   7.062
 5703SOL     OW17560   3.460   3.141   6.862
 5703SOL    HW117561   3.529   3.131   6.927
 5703SOL    HW217562   3.403   3.210   6.897
 5704SOL     OW17563   2.922   2.971   6.298
 5704SOL    HW117564   2.848   2.921   6.332
 5704SOL    HW217565   2.986   2.905   6.271
 5705SOL     OW17566   2.886   2.105   6.552
 5705SOL    HW117567   2.897   2.058   6.469
 5705SOL    HW217568   2.881   2.036   6.618
 5706SOL     OW17569   2.468   3.353   6.065
 5706SOL    HW117570   2.516   3.301   6.000
 5706SOL    HW217571   2.397   3.394   6.015
 5707SOL     OW17572   3.588   2.250   6.964
 5707SOL    HW117573   3.661   2.313   6.961
 5707SOL    HW217574   3.616   2.179   6.907
 5708SOL     OW17575   2.124   3.202   5.879
 5708SOL    HW117576   2.032   3.202   5.853
 5708SOL    HW217577   2.125   3.243   5.965
 5709SOL     OW17578   1.970   2.922   7.324
 5709SOL    HW117579   1.894   2.879   7.363
 5709SOL    HW217580   2.044   2.869   7.351
 5710SOL     OW17581   2.573   2.030   7.052
 5710SOL    HW117582   2.657   1.996   7.021
 5710SOL    HW217583   2.587   2.046   7.145
 5711SOL     OW17584   1.905   2.281   5.642
 5711SOL    HW117585   1.855   2.206   5.609
 5711SOL    HW217586   1.954   2.313   5.566
 5712SOL     OW17587   3.287   2.723   6.983
 5712SOL    HW117588   3.237   2.783   6.929
 5712SOL    HW217589   3.375   2.724   6.946
 5713SOL     OW17590   3.039   3.196   5.704
 5713SOL    HW117591   2.948   3.167   5.705
 5713SOL    HW217592   3.066   3.197   5.796
 5714SOL     OW17593   2.500   2.681   7.011
 5714SOL    HW117594   2.545   2.765   7.002
 5714SOL    HW217595   2.569   2.616   7.004
 5715SOL     OW17596   3.348   3.646   6.570
 5715SOL    HW117597   3.372   3.703   6.497
 5715SOL    HW217598   3.432   3.610   6.600
 5716SOL     OW17599   3.336   3.057   7.215
 5716SOL    HW117600   3.326   3.072   7.309
 5716SOL    HW217601   3.428   3.073   7.197
 5717SOL     OW17602   2.233   3.605   7.155
 5717SOL    HW117603   2.149   3.648   7.137
 5717SOL    HW217604   2.209   3.521   7.194
 5718SOL     OW17605   3.525   2.742   6.844
 5718SOL    HW117606   3.524   2.656   6.801
 5718SOL    HW217607   3.518   2.805   6.773
 5719SOL     OW17608   3.095   2.188   6.035
 5719SOL    HW117609   3.152   2.111   6.034
 5719SOL    HW217610   3.119   2.235   6.115
 5720SOL     OW17611   3.617   2.228   7.236
 5720SOL    HW117612   3.602   2.242   7.143
 5720SOL    HW217613   3.546   2.171   7.264
 5721SOL     OW17614   3.620   2.788   7.098
 5721SOL    HW117615   3.610   2.882   7.117
 5721SOL    HW217616   3.594   2.780   7.007
 5722SOL     OW17617   2.726   3.228   5.629
 5722SOL    HW117618   2.686   3.255   5.712
 5722SOL    HW217619   2.740   3.310   5.581
 5723SOL     OW17620   2.523   3.648   6.522
 5723SOL    HW117621   2.504   3.740   6.503
 5723SOL    HW217622   2.619   3.643   6.518
 5724SOL     OW17623   2.729   2.829   6.439
 5724SOL    HW117624   2.779   2.757   6.477
 5724SOL    HW217625   2.693   2.876   6.515
 5725SOL     OW17626   2.938   2.849   5.674
 5725SOL    HW117627   2.918   2.902   5.597
 5725SOL    HW217628   3.013   2.796   5.648
 5726SOL     OW17629   3.709   3.416   6.426
 5726SOL    HW117630   3.629   3.397   6.377
 5726SOL    HW217631   3.714   3.346   6.491
 5727SOL     OW17632   2.085   3.157   7.436
 5727SOL    HW117633   2.035   3.086   7.396
 5727SOL    HW217634   2.045   3.170   7.522
 5728SOL     OW17635   1.948   3.093   6.252
 5728SOL    HW117636   1.936   3.040   6.330
 5728SOL    HW217637   2.019   3.050   6.204
 5729SOL     OW17638   2.546   3.268   7.218
 5729SOL    HW117639   2.466   3.227   7.249
 5729SOL    HW217640   2.544   3.356   7.255
 5730SOL     OW17641   3.670   2.037   6.822
 5730SOL    HW117642   3.664   1.942   6.824
 5730SOL    HW217643   3.688   2.059   6.731
 5731SOL     OW17644   3.555   3.351   6.681
 5731SOL    HW117645   3.478   3.328   6.630
 5731SOL    HW217646   3.564   3.279   6.744
 5732SOL     OW17647   2.692   3.440   6.262
 5732SOL    HW117648   2.668   3.495   6.187
 5732SOL    HW217649   2.619   3.378   6.271
 5733SOL     OW17650   3.291   2.092   6.703
 5733SOL    HW117651   3.310   2.007   6.744
 5733SOL    HW217652   3.243   2.141   6.769
 5734SOL     OW17653   2.875   1.877   6.709
 5734SOL    HW117654   2.821   1.818   6.656
 5734SOL    HW217655   2.961   1.834   6.713
 5735SOL     OW17656   2.636   3.195   5.908
 5735SOL    HW117657   2.608   3.103   5.915
 5735SOL    HW217658   2.718   3.198   5.957
 5736SOL     OW17659   2.482   3.415   6.872
 5736SOL    HW117660   2.482   3.496   6.922
 5736SOL    HW217661   2.570   3.409   6.835
 5737SOL     OW17662   3.220   1.914   5.757
 5737SOL    HW117663   3.253   1.843   5.702
 5737SOL    HW217664   3.130   1.888   5.778
 5738SOL     OW17665   3.158   2.325   6.264
 5738SOL    HW117666   3.104   2.405   6.268
 5738SOL    HW217667   3.153   2.289   6.352
 5739SOL     OW17668   3.442   2.057   6.466
 5739SOL    HW117669   3.388   2.083   6.541
 5739SOL    HW217670   3.444   2.134   6.410
 5740SOL     OW17671   1.901   2.938   5.890
 5740SOL    HW117672   1.995   2.928   5.878
 5740SOL    HW217673   1.869   2.850   5.910
 5741SOL     OW17674   2.750   3.525   5.927
 5741SOL    HW117675   2.678   3.506   5.867
 5741SOL    HW217676   2.719   3.599   5.979
 5742SOL     OW17677   1.849   2.284   8.062
 5742SOL    HW117678   1.772   2.293   8.119
 5742SOL    HW217679   1.822   2.218   7.997
 5743SOL     OW17680   2.430   3.158   8.630
 5743SOL    HW117681   2.344   3.164   8.588
 5743SOL    HW217682   2.446   3.246   8.663
 5744SOL     OW17683   3.429   3.375   8.158
 5744SOL    HW117684   3.387   3.351   8.240
 5744SOL    HW217685   3.357   3.378   8.094
 5745SOL     OW17686   2.993   2.562   8.144
 5745SOL    HW117687   3.042   2.643   8.132
 5745SOL    HW217688   2.946   2.574   8.227
 5746SOL     OW17689   3.631   2.466   7.677
 5746SOL    HW117690   3.610   2.459   7.583
 5746SOL    HW217691   3.597   2.385   7.715
 5747SOL     OW17692   2.608   2.999   8.495
 5747SOL    HW117693   2.542   3.037   8.552
 5747SOL    HW217694   2.648   3.075   8.451
 5748SOL     OW17695   2.735   2.624   9.271
 5748SOL    HW117696   2.723   2.694   9.336
 5748SOL    HW217697   2.758   2.670   9.190
 5749SOL     OW17698   2.550   2.863   8.093
 5749SOL    HW117699   2.616   2.856   8.162
 5749SOL    HW217700   2.480   2.916   8.131
 5750SOL     OW17701   2.576   3.012   9.266
 5750SOL    HW117702   2.623   3.089   9.297
 5750SOL    HW217703   2.496   3.047   9.228
 5751SOL     OW17704   2.194   3.280   8.514
 5751SOL    HW117705   2.119   3.241   8.468
 5751SOL    HW217706   2.238   3.333   8.448
 5752SOL     OW17707   3.320   3.364   8.808
 5752SOL    HW117708   3.375   3.442   8.818
 5752SOL    HW217709   3.252   3.374   8.875
 5753SOL     OW17710   2.297   2.259   8.946
 5753SOL    HW117711   2.391   2.243   8.952
 5753SOL    HW217712   2.257   2.171   8.943
 5754SOL     OW17713   3.469   2.305   8.194
 5754SOL    HW117714   3.400   2.326   8.131
 5754SOL    HW217715   3.476   2.382   8.250
 5755SOL     OW17716   2.084   3.578   7.927
 5755SOL    HW117717   2.113   3.637   7.996
 5755SOL    HW217718   2.157   3.576   7.865
 5756SOL     OW17719   2.999   3.204   9.143
 5756SOL    HW117720   3.041   3.196   9.229
 5756SOL    HW217721   2.947   3.124   9.134
 5757SOL     OW17722   2.092   3.306   7.987
 5757SOL    HW117723   2.073   3.399   7.989
 5757SOL    HW217724   2.034   3.267   8.052
 5758SOL     OW17725   2.128   2.954   8.341
 5758SOL    HW117726   2.122   2.867   8.379
 5758SOL    HW217727   2.069   3.008   8.394
 5759SOL     OW17728   2.465   3.647   8.875
 5759SOL    HW117729   2.385   3.633   8.925
 5759SOL    HW217730   2.493   3.735   8.900
 5760SOL     OW17731   2.443   2.853   7.586
 5760SOL    HW117732   2.493   2.898   7.518
 5760SOL    HW217733   2.480   2.885   7.668
 5761SOL     OW17734   3.455   1.989   8.912
 5761SOL    HW117735   3.478   2.070   8.866
 5761SOL    HW217736   3.438   2.018   9.002
 5762SOL     OW17737   1.975   2.520   8.010
 5762SOL    HW117738   1.933   2.436   8.029
 5762SOL    HW217739   1.964   2.571   8.090
 5763SOL     OW17740   3.700   3.611   7.791
 5763SOL    HW117741   3.772   3.586   7.848
 5763SOL    HW217742   3.718   3.702   7.768
 5764SOL     OW17743   1.894   3.453   7.567
 5764SOL    HW117744   1.881   3.360   7.588
 5764SOL    HW217745   1.872   3.498   7.649
 5765SOL     OW17746   3.552   2.783   8.098
 5765SOL    HW117747   3.634   2.737   8.079
 5765SOL    HW217748   3.531   2.831   8.018
 5766SOL     OW17749   3.504   2.964   7.880
 5766SOL    HW117750   3.589   2.967   7.837
 5766SOL    HW217751   3.511   3.028   7.951
 5767SOL     OW17752   1.984   2.604   9.033
 5767SOL    HW117753   2.075   2.632   9.041
 5767SOL    HW217754   1.932   2.684   9.039
 5768SOL     OW17755   2.479   3.254   8.183
 5768SOL    HW117756   2.435   3.170   8.192
 5768SOL    HW217757   2.462   3.281   8.092
 5769SOL     OW17758   3.147   3.097   8.869
 5769SOL    HW117759   3.179   3.030   8.809
 5769SOL    HW217760   3.207   3.093   8.944
 5770SOL     OW17761   2.676   1.857   7.976
 5770SOL    HW117762   2.714   1.941   7.949
 5770SOL    HW217763   2.582   1.871   7.973
 5771SOL     OW17764   2.051   2.825   8.726
 5771SOL    HW117765   2.136   2.783   8.711
 5771SOL    HW217766   1.990   2.775   8.673
 5772SOL     OW17767   3.389   2.861   7.649
 5772SOL    HW117768   3.320   2.803   7.683
 5772SOL    HW217769   3.432   2.895   7.728
 5773SOL     OW17770   3.087   3.668   9.077
 5773SOL    HW117771   3.058   3.729   9.009
 5773SOL    HW217772   3.086   3.582   9.034
 5774SOL     OW17773   2.268   2.163   9.266
 5774SOL    HW117774   2.320   2.226   9.317
 5774SOL    HW217775   2.180   2.201   9.264
 5775SOL     OW17776   3.327   3.282   8.394
 5775SOL    HW117777   3.261   3.297   8.463
 5775SOL    HW217778   3.316   3.190   8.370
 5776SOL     OW17779   3.505   3.609   8.029
 5776SOL    HW117780   3.498   3.573   7.940
 5776SOL    HW217781   3.491   3.534   8.086
 5777SOL     OW17782   2.515   2.608   7.736
 5777SOL    HW117783   2.512   2.686   7.681
 5777SOL    HW217784   2.423   2.588   7.756
 5778SOL     OW17785   3.140   2.227   8.382
 5778SOL    HW117786   3.051   2.191   8.391
 5778SOL    HW217787   3.193   2.172   8.440
 5779SOL     OW17788   3.434   3.540   7.757
 5779SOL    HW117789   3.527   3.562   7.752
 5779SOL    HW217790   3.409   3.521   7.666
 5780SOL     OW17791   2.655   2.482   8.897
 5780SOL    HW117792   2.630   2.455   8.985
 5780SOL    HW217793   2.619   2.414   8.840
 5781SOL     OW17794   3.255   2.336   9.126
 5781SOL    HW117795   3.259   2.380   9.211
 5781SOL    HW217796   3.312   2.259   9.136
 5782SOL     OW17797   2.812   2.747   9.034
 5782SOL    HW117798   2.867   2.679   8.995
 5782SOL    HW217799   2.764   2.784   8.959
 5783SOL     OW17800   2.856   2.273   8.683
 5783SOL    HW117801   2.767   2.292   8.715
 5783SOL    HW217802   2.842   2.230   8.598
 5784SOL     OW17803   2.919   2.562   7.874
 5784SOL    HW117804   2.938   2.558   7.968
 5784SOL    HW217805   2.838   2.512   7.864
 5785SOL     OW17806   1.951   2.684   8.225
 5785SOL    HW117807   2.032   2.679   8.276
 5785SOL    HW217808   1.906   2.761   8.259
 5786SOL     OW17809   1.979   3.718   9.027
 5786SOL    HW117810   1.985   3.696   9.120
 5786SOL    HW217811   1.887   3.700   9.004
 5787SOL     OW17812   3.568   2.433   9.278
 5787SOL    HW117813   3.532   2.507   9.229
 5787SOL    HW217814   3.594   2.370   9.211
 5788SOL     OW17815   3.240   3.003   7.988
 5788SOL    HW117816   3.320   2.991   7.936
 5788SOL    HW217817   3.188   3.066   7.937
 5789SOL     OW17818   2.415   2.057   8.331
 5789SOL    HW117819   2.426   2.071   8.425
 5789SOL    HW217820   2.427   2.143   8.292
 5790SOL     OW17821   2.863   3.307   7.917
 5790SOL    HW117822   2.829   3.382   7.868
 5790SOL    HW217823   2.839   3.326   8.008
 5791SOL     OW17824   2.213   3.676   8.285
 5791SOL    HW117825   2.263   3.596   8.304
 5791SOL    HW217826   2.272   3.747   8.310
 5792SOL     OW17827   3.669   2.923   8.317
 5792SOL    HW117828   3.617   2.894   8.242
 5792SOL    HW217829   3.606   2.926   8.390
 5793SOL     OW17830   3.088   3.400   8.960
 5793SOL    HW117831   3.077   3.328   9.022
 5793SOL    HW217832   3.019   3.387   8.895
 5794SOL     OW17833   2.178   2.846   7.707
 5794SOL    HW117834   2.260   2.861   7.660
 5794SOL    HW217835   2.150   2.759   7.678
 5795SOL     OW17836   3.343   2.611   8.171
 5795SOL    HW117837   3.339   2.571   8.258
 5795SOL    HW217838   3.421   2.667   8.174
 5796SOL     OW17839   2.332   3.129   9.185
 5796SOL    HW117840   2.305   3.134   9.093
 5796SOL    HW217841   2.249   3.126   9.234
 5797SOL     OW17842   2.977   3.644   7.668
 5797SOL    HW117843   2.911   3.600   7.720
 5797SOL    HW217844   3.008   3.577   7.606
 5798SOL     OW17845   3.485   3.249   7.538
 5798SOL    HW117846   3.442   3.332   7.519
 5798SOL    HW217847   3.419   3.183   7.517
 5799SOL     OW17848   2.327   3.600   7.773
 5799SOL    HW117849   2.366   3.663   7.833
 5799SOL    HW217850   2.399   3.572   7.716
 5800SOL     OW17851   3.262   1.969   7.889
 5800SOL    HW117852   3.257   1.944   7.797
 5800SOL    HW217853   3.356   1.976   7.906
 5801SOL     OW17854   2.123   3.652   8.667
 5801SOL    HW117855   2.169   3.580   8.710
 5801SOL    HW217856   2.105   3.620   8.578
 5802SOL     OW17857   2.801   3.565   8.345
 5802SOL    HW117858   2.878   3.513   8.369
 5802SOL    HW217859   2.758   3.514   8.276
 5803SOL     OW17860   2.245   2.562   7.987
 5803SOL    HW117861   2.271   2.471   7.970
 5803SOL    HW217862   2.150   2.558   7.998
 5804SOL     OW17863   3.391   2.086   9.172
 5804SOL    HW117864   3.402   2.107   9.265
 5804SOL    HW217865   3.324   2.019   9.170
 5805SOL     OW17866   2.626   2.141   9.207
 5805SOL    HW117867   2.707   2.088   9.201
 5805SOL    HW217868   2.579   2.104   9.281
 5806SOL     OW17869   2.738   3.383   8.643
 5806SOL    HW117870   2.720   3.346   8.557
 5806SOL    HW217871   2.808   3.328   8.679
 5807SOL     OW17872   3.201   2.451   8.881
 5807SOL    HW117873   3.232   2.421   8.966
 5807SOL    HW217874   3.238   2.539   8.872
 5808SOL     OW17875   2.680   3.251   8.394
 5808SOL    HW117876   2.765   3.240   8.351
 5808SOL    HW217877   2.617   3.257   8.323
 5809SOL     OW17878   2.790   2.370   8.350
 5809SOL    HW117879   2.765   2.361   8.258
 5809SOL    HW217880   2.822   2.283   8.374
 5810SOL     OW17881   2.403   1.913   7.967
 5810SOL    HW117882   2.357   1.927   8.049
 5810SOL    HW217883   2.398   1.998   7.922
 5811SOL     OW17884   3.289   3.063   7.487
 5811SOL    HW117885   3.320   2.988   7.538
 5811SOL    HW217886   3.203   3.084   7.524
 5812SOL     OW17887   2.805   2.101   7.918
 5812SOL    HW117888   2.781   2.107   7.825
 5812SOL    HW217889   2.899   2.122   7.920
 5813SOL     OW17890   2.944   2.547   8.905
 5813SOL    HW117891   2.878   2.477   8.910
 5813SOL    HW217892   3.027   2.501   8.900
 5814SOL     OW17893   3.080   3.434   8.243
 5814SOL    HW117894   3.095   3.500   8.175
 5814SOL    HW217895   3.152   3.447   8.305
 5815SOL     OW17896   2.337   3.016   8.179
 5815SOL    HW117897   2.270   2.996   8.244
 5815SOL    HW217898   2.292   3.006   8.095
 5816SOL     OW17899   3.125   3.654   8.058
 5816SOL    HW117900   3.173   3.719   8.007
 5816SOL    HW217901   3.051   3.702   8.094
 5817SOL     OW17902   2.893   2.409   7.455
 5817SOL    HW117903   2.840   2.488   7.443
 5817SOL    HW217904   2.948   2.428   7.531
 5818SOL     OW17905   1.942   2.423   8.834
 5818SOL    HW117906   2.036   2.419   8.813
 5818SOL    HW217907   1.936   2.487   8.905
 5819SOL     OW17908   2.461   2.082   8.602
 5819SOL    HW117909   2.512   2.008   8.636
 5819SOL    HW217910   2.380   2.081   8.652
 5820SOL     OW17911   2.726   2.314   8.089
 5820SOL    HW117912   2.688   2.372   8.023
 5820SOL    HW217913   2.754   2.237   8.040
 5821SOL     OW17914   2.878   1.917   8.199
 5821SOL    HW117915   2.820   1.910   8.122
 5821SOL    HW217916   2.855   1.841   8.252
 5822SOL     OW17917   3.303   3.022   8.305
 5822SOL    HW117918   3.231   2.959   8.305
 5822SOL    HW217919   3.328   3.030   8.213
 5823SOL     OW17920   3.327   2.473   8.417
 5823SOL    HW117921   3.272   2.394   8.419
 5823SOL    HW217922   3.384   2.464   8.492
 5824SOL     OW17923   3.724   2.677   7.823
 5824SOL    HW117924   3.767   2.621   7.887
 5824SOL    HW217925   3.687   2.615   7.759
 5825SOL     OW17926   2.351   3.282   7.599
 5825SOL    HW117927   2.276   3.255   7.651
 5825SOL    HW217928   2.342   3.234   7.516
 5826SOL     OW17929   3.531   3.128   8.089
 5826SOL    HW117930   3.626   3.129   8.100
 5826SOL    HW217931   3.503   3.217   8.111
 5827SOL     OW17932   3.255   2.434   7.518
 5827SOL    HW117933   3.192   2.413   7.587
 5827SOL    HW217934   3.339   2.403   7.553
 5828SOL     OW17935   3.612   3.095   9.009
 5828SOL    HW117936   3.699   3.060   8.991
 5828SOL    HW217937   3.627   3.185   9.037
 5829SOL     OW17938   2.917   3.214   8.779
 5829SOL    HW117939   2.841   3.183   8.830
 5829SOL    HW217940   2.992   3.173   8.821
 5830SOL     OW17941   3.469   3.492   9.107
 5830SOL    HW117942   3.459   3.526   9.018
 5830SOL    HW217943   3.549   3.439   9.103
 5831SOL     OW17944   2.997   3.072   8.550
 5831SOL    HW117945   2.937   3.109   8.614
 5831SOL    HW217946   2.966   3.107   8.466
 5832SOL     OW17947   3.488   2.956   8.522
 5832SOL    HW117948   3.478   3.018   8.594
 5832SOL    HW217949   3.413   2.973   8.465
 5833SOL     OW17950   2.782   1.955   8.838
 5833SOL    HW117951   2.806   1.936   8.748
 5833SOL    HW217952   2.860   1.995   8.876
 5834SOL     OW17953   2.846   2.977   9.171
 5834SOL    HW117954   2.755   2.993   9.195
 5834SOL    HW217955   2.843   2.898   9.117
 5835SOL     OW17956   2.573   2.926   7.818
 5835SOL    HW117957   2.556   2.905   7.910
 5835SOL    HW217958   2.649   2.874   7.795
 5836SOL     OW17959   2.281   2.675   8.700
 5836SOL    HW117960   2.349   2.688   8.766
 5836SOL    HW217961   2.248   2.587   8.715
 5837SOL     OW17962   3.125   2.237   8.729
 5837SOL    HW117963   3.158   2.315   8.774
 5837SOL    HW217964   3.035   2.258   8.707
 5838SOL     OW17965   1.936   3.435   8.804
 5838SOL    HW117966   1.909   3.509   8.750
 5838SOL    HW217967   2.032   3.435   8.797
 5839SOL     OW17968   2.199   2.990   7.945
 5839SOL    HW117969   2.201   3.064   7.884
 5839SOL    HW217970   2.200   2.913   7.888
 5840SOL     OW17971   2.406   2.392   8.311
 5840SOL    HW117972   2.424   2.450   8.237
 5840SOL    HW217973   2.471   2.416   8.377
 5841SOL     OW17974   3.109   3.212   7.838
 5841SOL    HW117975   3.165   3.282   7.870
 5841SOL    HW217976   3.022   3.233   7.872
 5842SOL     OW17977   3.150   3.323   8.597
 5842SOL    HW117978   3.206   3.328   8.674
 5842SOL    HW217979   3.096   3.246   8.611
 5843SOL     OW17980   3.437   2.479   7.934
 5843SOL    HW117981   3.390   2.531   7.999
 5843SOL    HW217982   3.479   2.544   7.877
 5844SOL     OW17983   2.207   3.393   8.757
 5844SOL    HW117984   2.196   3.347   8.674
 5844SOL    HW217985   2.302   3.403   8.766
 5845SOL     OW17986   2.278   2.611   9.052
 5845SOL    HW117987   2.342   2.651   8.994
 5845SOL    HW217988   2.315   2.525   9.073
 5846SOL     OW17989   3.469   2.641   9.134
 5846SOL    HW117990   3.384   2.684   9.128
 5846SOL    HW217991   3.522   2.684   9.066
 5847SOL     OW17992   2.857   1.994   9.198
 5847SOL    HW117993   2.917   2.066   9.179
 5847SOL    HW217994   2.906   1.915   9.174
 5848SOL     OW17995   2.370   1.906   9.203
 5848SOL    HW117996   2.312   1.858   9.145
 5848SOL    HW217997   2.329   1.992   9.211
 5849SOL     OW17998   2.447   2.735   8.481
 5849SOL    HW117999   2.480   2.825   8.482
 5849SOL    HW218000   2.390   2.730   8.558
 5850SOL     OW18001   3.210   2.721   8.469
 5850SOL    HW118002   3.125   2.706   8.429
 5850SOL    HW218003   3.256   2.638   8.460
 5851SOL     OW18004   3.063   2.388   7.711
 5851SOL    HW118005   3.072   2.311   7.767
 5851SOL    HW218006   3.024   2.455   7.769
 5852SOL     OW18007   2.239   2.043   8.743
 5852SOL    HW118008   2.152   2.062   8.780
 5852SOL    HW218009   2.235   1.951   8.718
 5853SOL     OW18010   1.908   3.173   8.722
 5853SOL    HW118011   1.940   3.118   8.793
 5853SOL    HW218012   1.914   3.263   8.756
 5854SOL     OW18013   2.579   2.489   8.500
 5854SOL    HW118014   2.657   2.476   8.445
 5854SOL    HW218015   2.552   2.579   8.482
 5855SOL     OW18016   3.592   2.821   9.314
 5855SOL    HW118017   3.553   2.754   9.258
 5855SOL    HW218018   3.527   2.836   9.382
 5856SOL     OW18019   3.483   2.241   7.809
 5856SOL    HW118020   3.510   2.175   7.873
 5856SOL    HW218021   3.460   2.317   7.862
 5857SOL     OW18022   2.890   2.619   8.406
 5857SOL    HW118023   2.882   2.637   8.500
 5857SOL    HW218024   2.864   2.528   8.396
 5858SOL     OW18025   2.848   3.430   9.171
 5858SOL    HW118026   2.828   3.470   9.086
 5858SOL    HW218027   2.889   3.347   9.148
 5859SOL     OW18028   3.703   3.357   9.045
 5859SOL    HW118029   3.728   3.388   8.958
 5859SOL    HW218030   3.783   3.364   9.097
 5860SOL     OW18031   2.213   2.779   9.260
 5860SOL    HW118032   2.295   2.798   9.306
 5860SOL    HW218033   2.238   2.717   9.191
 5861SOL     OW18034   3.390   2.134   7.574
 5861SOL    HW118035   3.326   2.068   7.602
 5861SOL    HW218036   3.424   2.171   7.656
 5862SOL     OW18037   3.150   2.687   7.477
 5862SOL    HW118038   3.191   2.600   7.480
 5862SOL    HW218039   3.183   2.725   7.395
 5863SOL     OW18040   2.930   3.201   8.305
 5863SOL    HW118041   2.935   3.128   8.242
 5863SOL    HW218042   2.988   3.268   8.269
 5864SOL     OW18043   2.171   2.671   8.393
 5864SOL    HW118044   2.264   2.694   8.385
 5864SOL    HW218045   2.171   2.583   8.431
 5865SOL     OW18046   2.181   2.367   8.457
 5865SOL    HW118047   2.144   2.287   8.418
 5865SOL    HW218048   2.262   2.382   8.408
 5866SOL     OW18049   2.996   2.235   9.133
 5866SOL    HW118050   2.948   2.289   9.196
 5866SOL    HW218051   3.083   2.275   9.129
 5867SOL     OW18052   3.022   2.060   8.919
 5867SOL    HW118053   3.011   2.123   8.991
 5867SOL    HW218054   3.065   2.111   8.850
 5868SOL     OW18055   1.872   3.183   7.638
 5868SOL    HW118056   1.784   3.198   7.604
 5868SOL    HW218057   1.869   3.096   7.677
 5869SOL     OW18058   1.961   3.636   8.387
 5869SOL    HW118059   1.928   3.559   8.341
 5869SOL    HW218060   2.044   3.656   8.345
 5870SOL     OW18061   2.353   3.439   8.352
 5870SOL    HW118062   2.421   3.502   8.376
 5870SOL    HW218063   2.397   3.376   8.295
 5871SOL     OW18064   2.836   2.649   8.672
 5871SOL    HW118065   2.897   2.631   8.743
 5871SOL    HW218066   2.752   2.614   8.702
 5872SOL     OW18067   1.903   2.396   8.566
 5872SOL    HW118068   1.987   2.404   8.521
 5872SOL    HW218069   1.923   2.411   8.658
 5873SOL     OW18070   2.079   2.383   9.179
 5873SOL    HW118071   2.135   2.356   9.106
 5873SOL    HW218072   2.018   2.446   9.139
 5874SOL     OW18073   3.243   2.796   9.105
 5874SOL    HW118074   3.264   2.889   9.102
 5874SOL    HW218075   3.238   2.769   9.014
 5875SOL     OW18076   2.691   2.418   7.806
 5875SOL    HW118077   2.713   2.393   7.716
 5875SOL    HW218078   2.627   2.488   7.797
 5876SOL     OW18079   3.501   2.463   8.628
 5876SOL    HW118080   3.489   2.403   8.702
 5876SOL    HW218081   3.588   2.443   8.594
 5877SOL     OW18082   2.102   3.409   9.170
 5877SOL    HW118083   2.079   3.476   9.235
 5877SOL    HW218084   2.107   3.328   9.220
 5878SOL     OW18085   2.570   2.313   8.706
 5878SOL    HW118086   2.529   2.234   8.672
 5878SOL    HW218087   2.563   2.376   8.634
 5879SOL     OW18088   2.786   3.532   8.919
 5879SOL    HW118089   2.760   3.492   8.836
 5879SOL    HW218090   2.778   3.626   8.904
 5880SOL     OW18091   2.004   3.005   8.923
 5880SOL    HW118092   2.005   2.957   9.005
 5880SOL    HW218093   2.022   2.939   8.856
 5881SOL     OW18094   3.181   2.905   8.668
 5881SOL    HW118095   3.203   2.842   8.599
 5881SOL    HW218096   3.115   2.962   8.628
 5882SOL     OW18097   3.177   2.717   7.752
 5882SOL    HW118098   3.101   2.688   7.803
 5882SOL    HW218099   3.151   2.704   7.661
 5883SOL     OW18100   3.643   3.599   8.606
 5883SOL    HW118101   3.700   3.625   8.535
 5883SOL    HW218102   3.613   3.511   8.582
 5884SOL     OW18103   3.107   3.594   8.554
 5884SOL    HW118104   3.190   3.617   8.513
 5884SOL    HW218105   3.114   3.501   8.575
 5885SOL     OW18106   1.949   3.128   8.458
 5885SOL    HW118107   1.931   3.143   8.551
 5885SOL    HW218108   1.877   3.073   8.428
 5886SOL     OW18109   2.542   3.529   9.186
 5886SOL    HW118110   2.483   3.604   9.189
 5886SOL    HW218111   2.603   3.549   9.115
 5887SOL     OW18112   3.569   2.016   7.958
 5887SOL    HW118113   3.637   2.004   7.892
 5887SOL    HW218114   3.559   1.930   7.998
 5888SOL     OW18115   3.253   3.430   7.938
 5888SOL    HW118116   3.311   3.465   7.870
 5888SOL    HW218117   3.203   3.506   7.969
 5889SOL     OW18118   2.000   3.650   9.286
 5889SOL    HW118119   1.948   3.586   9.335
 5889SOL    HW218120   2.047   3.699   9.353
 5890SOL     OW18121   3.139   2.789   8.119
 5890SOL    HW118122   3.214   2.730   8.129
 5890SOL    HW218123   3.173   2.861   8.065
 5891SOL     OW18124   2.667   3.138   8.873
 5891SOL    HW118125   2.640   3.179   8.955
 5891SOL    HW218126   2.597   3.159   8.811
 5892SOL     OW18127   2.535   3.481   7.607
 5892SOL    HW118128   2.546   3.500   7.514
 5892SOL    HW218129   2.476   3.406   7.610
 5893SOL     OW18130   3.479   3.589   8.838
 5893SOL    HW118131   3.536   3.591   8.761
 5893SOL    HW218132   3.465   3.681   8.861
 5894SOL     OW18133   3.700   2.043   8.413
 5894SOL    HW118134   3.732   1.956   8.390
 5894SOL    HW218135   3.614   2.049   8.373
 5895SOL     OW18136   3.069   3.463   7.485
 5895SOL    HW118137   3.059   3.371   7.510
 5895SOL    HW218138   3.008   3.476   7.413
 5896SOL     OW18139   2.686   2.869   8.822
 5896SOL    HW118140   2.729   2.864   8.737
 5896SOL    HW218141   2.682   2.963   8.842
 5897SOL     OW18142   2.786   2.781   7.742
 5897SOL    HW118143   2.846   2.812   7.674
 5897SOL    HW218144   2.834   2.711   7.786
 5898SOL     OW18145   3.348   3.498   7.491
 5898SOL    HW118146   3.255   3.483   7.475
 5898SOL    HW218147   3.388   3.502   7.404
 5899SOL     OW18148   2.230   3.167   8.939
 5899SOL    HW118149   2.216   3.243   8.884
 5899SOL    HW218150   2.153   3.113   8.925
 5900SOL     OW18151   3.460   3.142   8.724
 5900SOL    HW118152   3.529   3.131   8.789
 5900SOL    HW218153   3.403   3.210   8.759
 5901SOL     OW18154   2.923   2.973   8.159
 5901SOL    HW118155   2.850   2.922   8.196
 5901SOL    HW218156   2.986   2.906   8.131
 5902SOL     OW18157   2.885   2.104   8.414
 5902SOL    HW118158   2.882   2.057   8.331
 5902SOL    HW218159   2.881   2.035   8.481
 5903SOL     OW18160   2.468   3.353   7.927
 5903SOL    HW118161   2.516   3.302   7.862
 5903SOL    HW218162   2.396   3.393   7.878
 5904SOL     OW18163   3.589   2.250   8.826
 5904SOL    HW118164   3.661   2.313   8.823
 5904SOL    HW218165   3.616   2.178   8.769
 5905SOL     OW18166   2.127   3.206   7.743
 5905SOL    HW118167   2.036   3.203   7.715
 5905SOL    HW218168   2.124   3.246   7.830
 5906SOL     OW18169   1.976   2.893   9.172
 5906SOL    HW118170   1.899   2.866   9.223
 5906SOL    HW218171   2.050   2.851   9.216
 5907SOL     OW18172   2.543   2.057   8.948
 5907SOL    HW118173   2.628   2.033   8.911
 5907SOL    HW218174   2.564   2.088   9.036
 5908SOL     OW18175   3.286   2.719   8.846
 5908SOL    HW118176   3.235   2.781   8.792
 5908SOL    HW218177   3.374   2.722   8.808
 5909SOL     OW18178   3.039   3.197   7.566
 5909SOL    HW118179   2.948   3.166   7.567
 5909SOL    HW218180   3.066   3.196   7.658
 5910SOL     OW18181   2.482   2.692   8.882
 5910SOL    HW118182   2.538   2.769   8.868
 5910SOL    HW218183   2.543   2.619   8.890
 5911SOL     OW18184   3.348   3.645   8.432
 5911SOL    HW118185   3.371   3.703   8.359
 5911SOL    HW218186   3.432   3.610   8.462
 5912SOL     OW18187   2.580   2.418   9.147
 5912SOL    HW118188   2.623   2.479   9.207
 5912SOL    HW218189   2.599   2.331   9.182
 5913SOL     OW18190   3.336   3.056   9.076
 5913SOL    HW118191   3.326   3.072   9.170
 5913SOL    HW218192   3.428   3.073   9.059
 5914SOL     OW18193   2.233   3.605   9.016
 5914SOL    HW118194   2.149   3.648   8.998
 5914SOL    HW218195   2.209   3.521   9.055
 5915SOL     OW18196   3.524   2.741   8.707
 5915SOL    HW118197   3.524   2.656   8.663
 5915SOL    HW218198   3.517   2.805   8.635
 5916SOL     OW18199   3.075   2.179   7.906
 5916SOL    HW118200   3.139   2.108   7.899
 5916SOL    HW218201   3.105   2.230   7.982
 5917SOL     OW18202   2.468   2.596   8.132
 5917SOL    HW118203   2.506   2.682   8.113
 5917SOL    HW218204   2.389   2.593   8.077
 5918SOL     OW18205   3.617   2.228   9.099
 5918SOL    HW118206   3.602   2.242   9.005
 5918SOL    HW218207   3.546   2.170   9.127
 5919SOL     OW18208   3.620   2.788   8.960
 5919SOL    HW118209   3.610   2.881   8.979
 5919SOL    HW218210   3.594   2.779   8.869
 5920SOL     OW18211   2.727   3.228   7.491
 5920SOL    HW118212   2.686   3.254   7.574
 5920SOL    HW218213   2.740   3.309   7.443
 5921SOL     OW18214   2.523   3.648   8.384
 5921SOL    HW118215   2.503   3.740   8.365
 5921SOL    HW218216   2.619   3.643   8.380
 5922SOL     OW18217   2.732   2.833   8.303
 5922SOL    HW118218   2.781   2.760   8.340
 5922SOL    HW218219   2.693   2.877   8.378
 5923SOL     OW18220   2.944   2.856   7.537
 5923SOL    HW118221   2.921   2.904   7.457
 5923SOL    HW218222   3.016   2.798   7.510
 5924SOL     OW18223   3.709   3.416   8.288
 5924SOL    HW118224   3.629   3.397   8.239
 5924SOL    HW218225   3.714   3.346   8.353
 5925SOL     OW18226   2.088   3.161   9.302
 5925SOL    HW118227   2.026   3.096   9.268
 5925SOL    HW218228   2.063   3.173   9.393
 5926SOL     OW18229   1.951   3.091   8.113
 5926SOL    HW118230   1.960   3.045   8.197
 5926SOL    HW218231   2.019   3.054   8.058
 5927SOL     OW18232   2.547   3.269   9.080
 5927SOL    HW118233   2.468   3.226   9.112
 5927SOL    HW218234   2.545   3.357   9.117
 5928SOL     OW18235   3.671   2.037   8.684
 5928SOL    HW118236   3.664   1.942   8.686
 5928SOL    HW218237   3.688   2.059   8.593
 5929SOL     OW18238   2.280   2.284   7.981
 5929SOL    HW118239   2.269   2.248   7.893
 5929SOL    HW218240   2.209   2.246   8.032
 5930SOL     OW18241   3.555   3.351   8.543
 5930SOL    HW118242   3.478   3.328   8.492
 5930SOL    HW218243   3.564   3.279   8.606
 5931SOL     OW18244   2.197   2.415   8.739
 5931SOL    HW118245   2.243   2.358   8.801
 5931SOL    HW218246   2.214   2.376   8.653
 5932SOL     OW18247   2.692   3.441   8.124
 5932SOL    HW118248   2.669   3.496   8.049
 5932SOL    HW218249   2.619   3.379   8.132
 5933SOL     OW18250   3.291   2.092   8.564
 5933SOL    HW118251   3.310   2.008   8.606
 5933SOL    HW218252   3.241   2.140   8.630
 5934SOL     OW18253   2.870   1.878   8.584
 5934SOL    HW118254   2.817   1.811   8.541
 5934SOL    HW218255   2.958   1.840   8.586
 5935SOL     OW18256   2.637   3.195   7.769
 5935SOL    HW118257   2.608   3.104   7.777
 5935SOL    HW218258   2.719   3.199   7.818
 5936SOL     OW18259   2.482   3.414   8.734
 5936SOL    HW118260   2.482   3.496   8.784
 5936SOL    HW218261   2.570   3.409   8.697
 5937SOL     OW18262   3.220   1.915   7.619
 5937SOL    HW118263   3.252   1.845   7.562
 5937SOL    HW218264   3.131   1.888   7.642
 5938SOL     OW18265   3.154   2.325   8.125
 5938SOL    HW118266   3.104   2.406   8.131
 5938SOL    HW218267   3.152   2.289   8.214
 5939SOL     OW18268   3.442   2.057   8.328
 5939SOL    HW118269   3.388   2.083   8.403
 5939SOL    HW218270   3.444   2.134   8.272
 5940SOL     OW18271   1.907   2.940   7.759
 5940SOL    HW118272   2.000   2.929   7.739
 5940SOL    HW218273   1.882   2.856   7.798
 5941SOL     OW18274   2.750   3.525   7.789
 5941SOL    HW118275   2.678   3.506   7.729
 5941SOL    HW218276   2.719   3.599   7.841
 5942SOL     OW18277   2.082   2.474   9.441
 5942SOL    HW118278   1.991   2.478   9.470
 5942SOL    HW218279   2.076   2.449   9.348
 5943SOL     OW18280   1.855   2.295   9.929
 5943SOL    HW118281   1.769   2.292   9.971
 5943SOL    HW218282   1.852   2.225   9.863
 5944SOL     OW18283   2.430   3.158  10.492
 5944SOL    HW118284   2.344   3.164  10.450
 5944SOL    HW218285   2.447   3.246  10.525
 5945SOL     OW18286   3.429   3.375  10.020
 5945SOL    HW118287   3.386   3.351  10.102
 5945SOL    HW218288   3.357   3.378   9.956
 5946SOL     OW18289   2.993   2.561  10.006
 5946SOL    HW118290   3.042   2.642   9.993
 5946SOL    HW218291   2.946   2.574  10.088
 5947SOL     OW18292   3.631   2.466   9.538
 5947SOL    HW118293   3.610   2.458   9.445
 5947SOL    HW218294   3.597   2.386   9.578
 5948SOL     OW18295   2.608   2.999  10.356
 5948SOL    HW118296   2.541   3.037  10.414
 5948SOL    HW218297   2.648   3.075  10.313
 5949SOL     OW18298   2.735   2.624  11.133
 5949SOL    HW118299   2.723   2.694  11.197
 5949SOL    HW218300   2.758   2.670  11.052
 5950SOL     OW18301   2.547   2.857   9.955
 5950SOL    HW118302   2.614   2.851  10.023
 5950SOL    HW218303   2.479   2.913   9.992
 5951SOL     OW18304   2.576   3.012  11.128
 5951SOL    HW118305   2.623   3.089  11.159
 5951SOL    HW218306   2.496   3.047  11.090
 5952SOL     OW18307   2.194   3.280  10.376
 5952SOL    HW118308   2.119   3.242  10.330
 5952SOL    HW218309   2.238   3.333  10.310
 5953SOL     OW18310   3.320   3.364  10.670
 5953SOL    HW118311   3.375   3.442  10.680
 5953SOL    HW218312   3.252   3.374  10.737
 5954SOL     OW18313   2.296   2.231  10.772
 5954SOL    HW118314   2.386   2.202  10.789
 5954SOL    HW218315   2.242   2.159  10.805
 5955SOL     OW18316   3.469   2.305  10.056
 5955SOL    HW118317   3.399   2.325   9.994
 5955SOL    HW218318   3.475   2.382  10.111
 5956SOL     OW18319   2.084   3.578   9.789
 5956SOL    HW118320   2.113   3.637   9.858
 5956SOL    HW218321   2.157   3.576   9.727
 5957SOL     OW18322   2.999   3.204  11.005
 5957SOL    HW118323   3.041   3.196  11.091
 5957SOL    HW218324   2.947   3.124  10.996
 5958SOL     OW18325   2.093   3.304   9.846
 5958SOL    HW118326   2.075   3.398   9.849
 5958SOL    HW218327   2.034   3.267   9.913
 5959SOL     OW18328   2.128   2.955  10.201
 5959SOL    HW118329   2.123   2.867  10.240
 5959SOL    HW218330   2.070   3.008  10.255
 5960SOL     OW18331   2.465   3.647  10.737
 5960SOL    HW118332   2.385   3.633  10.787
 5960SOL    HW218333   2.493   3.735  10.761
 5961SOL     OW18334   2.442   2.846   9.449
 5961SOL    HW118335   2.490   2.892   9.380
 5961SOL    HW218336   2.481   2.878   9.531
 5962SOL     OW18337   3.455   1.989  10.774
 5962SOL    HW118338   3.478   2.070  10.728
 5962SOL    HW218339   3.438   2.018  10.864
 5963SOL     OW18340   1.989   2.528   9.871
 5963SOL    HW118341   1.948   2.444   9.889
 5963SOL    HW218342   1.977   2.578   9.952
 5964SOL     OW18343   3.700   3.611   9.653
 5964SOL    HW118344   3.772   3.586   9.710
 5964SOL    HW218345   3.717   3.702   9.630
 5965SOL     OW18346   1.895   3.450   9.430
 5965SOL    HW118347   1.879   3.358   9.451
 5965SOL    HW218348   1.873   3.497   9.511
 5966SOL     OW18349   3.552   2.783   9.960
 5966SOL    HW118350   3.634   2.738   9.941
 5966SOL    HW218351   3.532   2.831   9.880
 5967SOL     OW18352   3.504   2.964   9.742
 5967SOL    HW118353   3.589   2.967   9.699
 5967SOL    HW218354   3.511   3.028   9.813
 5968SOL     OW18355   1.983   2.605  10.895
 5968SOL    HW118356   2.074   2.633  10.903
 5968SOL    HW218357   1.932   2.686  10.901
 5969SOL     OW18358   2.479   3.254  10.044
 5969SOL    HW118359   2.434   3.170  10.053
 5969SOL    HW218360   2.462   3.281   9.954
 5970SOL     OW18361   3.147   3.097  10.731
 5970SOL    HW118362   3.179   3.030  10.671
 5970SOL    HW218363   3.207   3.093  10.806
 5971SOL     OW18364   2.679   1.867   9.821
 5971SOL    HW118365   2.720   1.951   9.798
 5971SOL    HW218366   2.586   1.886   9.825
 5972SOL     OW18367   2.051   2.825  10.588
 5972SOL    HW118368   2.136   2.784  10.573
 5972SOL    HW218369   1.990   2.775  10.535
 5973SOL     OW18370   3.388   2.861   9.511
 5973SOL    HW118371   3.319   2.804   9.545
 5973SOL    HW218372   3.431   2.895   9.590
 5974SOL     OW18373   3.087   3.668  10.939
 5974SOL    HW118374   3.058   3.729  10.871
 5974SOL    HW218375   3.086   3.582  10.896
 5975SOL     OW18376   2.270   2.170  11.119
 5975SOL    HW118377   2.320   2.228  11.177
 5975SOL    HW218378   2.181   2.206  11.121
 5976SOL     OW18379   3.327   3.282  10.256
 5976SOL    HW118380   3.261   3.297  10.325
 5976SOL    HW218381   3.316   3.190  10.232
 5977SOL     OW18382   3.506   3.609   9.891
 5977SOL    HW118383   3.498   3.573   9.802
 5977SOL    HW218384   3.491   3.534   9.948
 5978SOL     OW18385   2.456   2.579   9.580
 5978SOL    HW118386   2.460   2.663   9.534
 5978SOL    HW218387   2.391   2.593   9.649
 5979SOL     OW18388   3.139   2.227  10.244
 5979SOL    HW118389   3.051   2.191  10.253
 5979SOL    HW218390   3.193   2.172  10.302
 5980SOL     OW18391   3.434   3.540   9.619
 5980SOL    HW118392   3.527   3.562   9.614
 5980SOL    HW218393   3.409   3.521   9.528
 5981SOL     OW18394   2.652   2.480  10.756
 5981SOL    HW118395   2.628   2.454  10.845
 5981SOL    HW218396   2.618   2.410  10.700
 5982SOL     OW18397   3.255   2.336  10.988
 5982SOL    HW118398   3.259   2.380  11.073
 5982SOL    HW218399   3.312   2.259  10.998
 5983SOL     OW18400   2.812   2.747  10.896
 5983SOL    HW118401   2.867   2.679  10.857
 5983SOL    HW218402   2.764   2.784  10.821
 5984SOL     OW18403   2.856   2.273  10.544
 5984SOL    HW118404   2.766   2.289  10.575
 5984SOL    HW218405   2.845   2.229  10.459
 5985SOL     OW18406   2.916   2.561   9.734
 5985SOL    HW118407   2.934   2.554   9.828
 5985SOL    HW218408   2.832   2.516   9.723
 5986SOL     OW18409   1.950   2.688  10.089
 5986SOL    HW118410   2.031   2.682  10.141
 5986SOL    HW218411   1.905   2.764  10.125
 5987SOL     OW18412   1.978   3.717  10.889
 5987SOL    HW118413   1.985   3.696  10.982
 5987SOL    HW218414   1.887   3.700  10.866
 5988SOL     OW18415   2.758   2.216   9.509
 5988SOL    HW118416   2.802   2.275   9.447
 5988SOL    HW218417   2.751   2.133   9.462
 5989SOL     OW18418   3.568   2.433  11.140
 5989SOL    HW118419   3.532   2.507  11.091
 5989SOL    HW218420   3.594   2.370  11.073
 5990SOL     OW18421   3.240   3.003   9.850
 5990SOL    HW118422   3.320   2.991   9.798
 5990SOL    HW218423   3.188   3.066   9.799
 5991SOL     OW18424   2.417   2.053  10.204
 5991SOL    HW118425   2.410   2.072  10.298
 5991SOL    HW218426   2.431   2.138  10.164
 5992SOL     OW18427   2.863   3.307   9.779
 5992SOL    HW118428   2.829   3.382   9.730
 5992SOL    HW218429   2.840   3.326   9.870
 5993SOL     OW18430   2.213   3.676  10.147
 5993SOL    HW118431   2.263   3.596  10.166
 5993SOL    HW218432   2.271   3.747  10.172
 5994SOL     OW18433   3.669   2.923  10.179
 5994SOL    HW118434   3.617   2.894  10.104
 5994SOL    HW218435   3.606   2.926  10.252
 5995SOL     OW18436   3.088   3.400  10.822
 5995SOL    HW118437   3.077   3.328  10.884
 5995SOL    HW218438   3.019   3.387  10.757
 5996SOL     OW18439   2.177   2.823   9.565
 5996SOL    HW118440   2.259   2.842   9.520
 5996SOL    HW218441   2.147   2.741   9.525
 5997SOL     OW18442   3.343   2.612  10.033
 5997SOL    HW118443   3.339   2.571  10.119
 5997SOL    HW218444   3.421   2.667  10.036
 5998SOL     OW18445   2.332   3.129  11.047
 5998SOL    HW118446   2.305   3.134  10.955
 5998SOL    HW218447   2.249   3.126  11.096
 5999SOL     OW18448   2.977   3.644   9.530
 5999SOL    HW118449   2.911   3.600   9.582
 5999SOL    HW218450   3.008   3.577   9.468
 6000SOL     OW18451   3.485   3.249   9.400
 6000SOL    HW118452   3.442   3.333   9.381
 6000SOL    HW218453   3.419   3.183   9.378
 6001SOL     OW18454   2.327   3.600   9.635
 6001SOL    HW118455   2.366   3.663   9.695
 6001SOL    HW218456   2.399   3.572   9.578
 6002SOL     OW18457   3.262   1.969   9.751
 6002SOL    HW118458   3.257   1.943   9.658
 6002SOL    HW218459   3.356   1.976   9.768
 6003SOL     OW18460   2.123   3.652  10.529
 6003SOL    HW118461   2.169   3.580  10.572
 6003SOL    HW218462   2.105   3.620  10.440
 6004SOL     OW18463   2.801   3.565  10.208
 6004SOL    HW118464   2.878   3.514  10.231
 6004SOL    HW218465   2.758   3.514  10.138
 6005SOL     OW18466   2.260   2.555   9.783
 6005SOL    HW118467   2.277   2.462   9.796
 6005SOL    HW218468   2.166   2.565   9.801
 6006SOL     OW18469   3.391   2.086  11.034
 6006SOL    HW118470   3.402   2.107  11.127
 6006SOL    HW218471   3.324   2.019  11.032
 6007SOL     OW18472   2.518   1.980   9.421
 6007SOL    HW118473   2.574   1.904   9.437
 6007SOL    HW218474   2.457   1.951   9.353
 6008SOL     OW18475   2.626   2.140  11.067
 6008SOL    HW118476   2.706   2.088  11.062
 6008SOL    HW218477   2.579   2.104  11.143
 6009SOL     OW18478   2.738   3.383  10.505
 6009SOL    HW118479   2.720   3.346  10.419
 6009SOL    HW218480   2.808   3.328  10.541
 6010SOL     OW18481   3.201   2.452  10.743
 6010SOL    HW118482   3.232   2.421  10.828
 6010SOL    HW218483   3.238   2.539  10.735
 6011SOL     OW18484   2.680   3.251  10.256
 6011SOL    HW118485   2.765   3.240  10.213
 6011SOL    HW218486   2.617   3.257  10.184
 6012SOL     OW18487   2.790   2.370  10.210
 6012SOL    HW118488   2.765   2.362  10.118
 6012SOL    HW218489   2.822   2.283  10.235
 6013SOL     OW18490   2.411   1.928   9.810
 6013SOL    HW118491   2.355   1.942   9.886
 6013SOL    HW218492   2.395   2.004   9.754
 6014SOL     OW18493   3.289   3.063   9.349
 6014SOL    HW118494   3.320   2.988   9.400
 6014SOL    HW218495   3.204   3.084   9.386
 6015SOL     OW18496   2.804   2.112   9.766
 6015SOL    HW118497   2.780   2.150   9.682
 6015SOL    HW218498   2.899   2.126   9.773
 6016SOL     OW18499   2.943   2.546  10.767
 6016SOL    HW118500   2.879   2.475  10.771
 6016SOL    HW218501   3.027   2.501  10.762
 6017SOL     OW18502   3.080   3.434  10.105
 6017SOL    HW118503   3.095   3.500  10.037
 6017SOL    HW218504   3.151   3.447  10.167
 6018SOL     OW18505   2.335   3.016  10.037
 6018SOL    HW118506   2.268   2.996  10.102
 6018SOL    HW218507   2.291   3.002   9.953
 6019SOL     OW18508   3.125   3.654   9.920
 6019SOL    HW118509   3.173   3.719   9.869
 6019SOL    HW218510   3.051   3.702   9.956
 6020SOL     OW18511   2.886   2.396   9.336
 6020SOL    HW118512   2.842   2.479   9.317
 6020SOL    HW218513   2.951   2.419   9.403
 6021SOL     OW18514   1.941   2.424  10.696
 6021SOL    HW118515   2.035   2.421  10.675
 6021SOL    HW218516   1.935   2.488  10.767
 6022SOL     OW18517   2.410   2.081  10.483
 6022SOL    HW118518   2.463   2.005  10.509
 6022SOL    HW218519   2.329   2.072  10.533
 6023SOL     OW18520   2.725   2.318   9.948
 6023SOL    HW118521   2.685   2.375   9.883
 6023SOL    HW218522   2.751   2.240   9.900
 6024SOL     OW18523   2.876   1.918  10.059
 6024SOL    HW118524   2.820   1.911   9.981
 6024SOL    HW218525   2.854   1.842  10.112
 6025SOL     OW18526   3.303   3.022  10.167
 6025SOL    HW118527   3.231   2.959  10.167
 6025SOL    HW218528   3.328   3.030  10.075
 6026SOL     OW18529   3.327   2.473  10.278
 6026SOL    HW118530   3.272   2.394  10.281
 6026SOL    HW218531   3.384   2.464  10.354
 6027SOL     OW18532   3.724   2.677   9.685
 6027SOL    HW118533   3.767   2.621   9.750
 6027SOL    HW218534   3.687   2.615   9.621
 6028SOL     OW18535   2.352   3.282   9.461
 6028SOL    HW118536   2.276   3.255   9.513
 6028SOL    HW218537   2.344   3.233   9.379
 6029SOL     OW18538   3.531   3.128   9.951
 6029SOL    HW118539   3.626   3.129   9.962
 6029SOL    HW218540   3.503   3.217   9.973
 6030SOL     OW18541   3.256   2.434   9.381
 6030SOL    HW118542   3.194   2.413   9.451
 6030SOL    HW218543   3.340   2.403   9.414
 6031SOL     OW18544   2.385   2.127   9.622
 6031SOL    HW118545   2.435   2.076   9.558
 6031SOL    HW218546   2.360   2.207   9.576
 6032SOL     OW18547   3.612   3.095  10.870
 6032SOL    HW118548   3.699   3.060  10.853
 6032SOL    HW218549   3.627   3.185  10.899
 6033SOL     OW18550   2.917   3.214  10.641
 6033SOL    HW118551   2.841   3.183  10.692
 6033SOL    HW218552   2.992   3.173  10.683
 6034SOL     OW18553   3.469   3.492  10.969
 6034SOL    HW118554   3.459   3.526  10.880
 6034SOL    HW218555   3.549   3.439  10.965
 6035SOL     OW18556   2.997   3.072  10.412
 6035SOL    HW118557   2.937   3.109  10.476
 6035SOL    HW218558   2.966   3.107  10.328
 6036SOL     OW18559   3.488   2.956  10.384
 6036SOL    HW118560   3.478   3.018  10.456
 6036SOL    HW218561   3.413   2.973  10.327
 6037SOL     OW18562   2.779   1.956  10.701
 6037SOL    HW118563   2.803   1.937  10.611
 6037SOL    HW218564   2.858   1.995  10.739
 6038SOL     OW18565   2.846   2.977  11.033
 6038SOL    HW118566   2.755   2.993  11.057
 6038SOL    HW218567   2.842   2.898  10.979
 6039SOL     OW18568   2.572   2.924   9.681
 6039SOL    HW118569   2.557   2.903   9.774
 6039SOL    HW218570   2.647   2.871   9.656
 6040SOL     OW18571   2.282   2.677  10.562
 6040SOL    HW118572   2.350   2.689  10.628
 6040SOL    HW218573   2.249   2.588  10.576
 6041SOL     OW18574   3.125   2.237  10.591
 6041SOL    HW118575   3.158   2.315  10.636
 6041SOL    HW218576   3.035   2.258  10.569
 6042SOL     OW18577   1.936   3.435  10.666
 6042SOL    HW118578   1.909   3.510  10.612
 6042SOL    HW218579   2.032   3.435  10.659
 6043SOL     OW18580   2.200   2.980   9.799
 6043SOL    HW118581   2.204   3.054   9.738
 6043SOL    HW218582   2.198   2.903   9.743
 6044SOL     OW18583   2.405   2.392  10.172
 6044SOL    HW118584   2.418   2.451  10.097
 6044SOL    HW218585   2.472   2.419  10.235
 6045SOL     OW18586   3.109   3.212   9.700
 6045SOL    HW118587   3.165   3.282   9.732
 6045SOL    HW218588   3.022   3.233   9.734
 6046SOL     OW18589   3.150   3.323  10.459
 6046SOL    HW118590   3.206   3.328  10.536
 6046SOL    HW218591   3.096   3.246  10.473
 6047SOL     OW18592   3.437   2.479   9.795
 6047SOL    HW118593   3.389   2.530   9.861
 6047SOL    HW218594   3.479   2.545   9.739
 6048SOL     OW18595   2.207   3.393  10.619
 6048SOL    HW118596   2.196   3.347  10.536
 6048SOL    HW218597   2.302   3.403  10.628
 6049SOL     OW18598   2.279   2.611  10.915
 6049SOL    HW118599   2.342   2.652  10.855
 6049SOL    HW218600   2.321   2.529  10.941
 6050SOL     OW18601   3.469   2.641  10.996
 6050SOL    HW118602   3.384   2.684  10.990
 6050SOL    HW218603   3.522   2.684  10.928
 6051SOL     OW18604   2.857   1.994  11.060
 6051SOL    HW118605   2.917   2.066  11.041
 6051SOL    HW218606   2.906   1.915  11.037
 6052SOL     OW18607   2.370   1.907  11.063
 6052SOL    HW118608   2.311   1.857  11.007
 6052SOL    HW218609   2.330   1.994  11.070
 6053SOL     OW18610   2.448   2.735  10.343
 6053SOL    HW118611   2.482   2.825  10.344
 6053SOL    HW218612   2.391   2.730  10.420
 6054SOL     OW18613   3.210   2.721  10.331
 6054SOL    HW118614   3.125   2.706  10.291
 6054SOL    HW218615   3.257   2.638  10.322
 6055SOL     OW18616   3.061   2.389   9.572
 6055SOL    HW118617   3.070   2.311   9.626
 6055SOL    HW218618   3.020   2.453   9.629
 6056SOL     OW18619   1.908   3.174  10.584
 6056SOL    HW118620   1.940   3.118  10.655
 6056SOL    HW218621   1.914   3.263  10.618
 6057SOL     OW18622   2.579   2.488  10.362
 6057SOL    HW118623   2.658   2.475  10.309
 6057SOL    HW218624   2.553   2.578  10.346
 6058SOL     OW18625   3.592   2.821  11.176
 6058SOL    HW118626   3.553   2.754  11.120
 6058SOL    HW218627   3.527   2.836  11.244
 6059SOL     OW18628   3.484   2.241   9.671
 6059SOL    HW118629   3.510   2.175   9.735
 6059SOL    HW218630   3.460   2.317   9.724
 6060SOL     OW18631   2.890   2.620  10.268
 6060SOL    HW118632   2.882   2.636  10.362
 6060SOL    HW218633   2.864   2.528  10.258
 6061SOL     OW18634   2.848   3.430  11.033
 6061SOL    HW118635   2.828   3.470  10.948
 6061SOL    HW218636   2.889   3.347  11.010
 6062SOL     OW18637   3.703   3.357  10.907
 6062SOL    HW118638   3.728   3.388  10.820
 6062SOL    HW218639   3.783   3.364  10.959
 6063SOL     OW18640   2.213   2.779  11.123
 6063SOL    HW118641   2.295   2.799  11.168
 6063SOL    HW218642   2.238   2.718  11.053
 6064SOL     OW18643   3.390   2.133   9.436
 6064SOL    HW118644   3.326   2.068   9.464
 6064SOL    HW218645   3.423   2.170   9.518
 6065SOL     OW18646   3.149   2.686   9.338
 6065SOL    HW118647   3.192   2.601   9.343
 6065SOL    HW218648   3.182   2.725   9.257
 6066SOL     OW18649   2.930   3.201  10.167
 6066SOL    HW118650   2.935   3.128  10.104
 6066SOL    HW218651   2.988   3.268  10.131
 6067SOL     OW18652   2.172   2.673  10.256
 6067SOL    HW118653   2.264   2.694  10.246
 6067SOL    HW218654   2.171   2.584  10.292
 6068SOL     OW18655   2.180   2.367  10.318
 6068SOL    HW118656   2.137   2.297  10.270
 6068SOL    HW218657   2.263   2.382  10.272
 6069SOL     OW18658   2.996   2.235  10.995
 6069SOL    HW118659   2.948   2.289  11.058
 6069SOL    HW218660   3.083   2.275  10.991
 6070SOL     OW18661   3.022   2.060  10.781
 6070SOL    HW118662   3.011   2.123  10.853
 6070SOL    HW218663   3.065   2.110  10.712
 6071SOL     OW18664   1.869   3.178   9.504
 6071SOL    HW118665   1.781   3.194   9.469
 6071SOL    HW218666   1.864   3.089   9.539
 6072SOL     OW18667   1.961   3.636  10.249
 6072SOL    HW118668   1.929   3.558  10.203
 6072SOL    HW218669   2.044   3.656  10.207
 6073SOL     OW18670   2.353   3.439  10.214
 6073SOL    HW118671   2.421   3.502  10.238
 6073SOL    HW218672   2.398   3.376  10.157
 6074SOL     OW18673   2.836   2.649  10.534
 6074SOL    HW118674   2.897   2.630  10.605
 6074SOL    HW218675   2.752   2.612  10.564
 6075SOL     OW18676   1.902   2.397  10.427
 6075SOL    HW118677   1.987   2.404  10.383
 6075SOL    HW218678   1.922   2.410  10.520
 6076SOL     OW18679   2.073   2.384  11.042
 6076SOL    HW118680   2.125   2.357  10.967
 6076SOL    HW218681   2.011   2.448  11.007
 6077SOL     OW18682   3.243   2.796  10.967
 6077SOL    HW118683   3.264   2.889  10.964
 6077SOL    HW218684   3.238   2.769  10.876
 6078SOL     OW18685   2.679   2.432   9.679
 6078SOL    HW118686   2.687   2.359   9.618
 6078SOL    HW218687   2.605   2.483   9.646
 6079SOL     OW18688   3.501   2.463  10.490
 6079SOL    HW118689   3.489   2.403  10.564
 6079SOL    HW218690   3.588   2.443  10.456
 6080SOL     OW18691   2.102   3.409  11.032
 6080SOL    HW118692   2.079   3.476  11.096
 6080SOL    HW218693   2.107   3.328  11.082
 6081SOL     OW18694   2.570   2.305  10.564
 6081SOL    HW118695   2.512   2.233  10.538
 6081SOL    HW218696   2.563   2.369  10.493
 6082SOL     OW18697   2.786   3.532  10.781
 6082SOL    HW118698   2.760   3.492  10.698
 6082SOL    HW218699   2.778   3.626  10.766
 6083SOL     OW18700   2.325   2.355   9.485
 6083SOL    HW118701   2.382   2.426   9.512
 6083SOL    HW218702   2.238   2.395   9.478
 6084SOL     OW18703   2.004   3.005  10.785
 6084SOL    HW118704   2.005   2.957  10.867
 6084SOL    HW218705   2.021   2.939  10.718
 6085SOL     OW18706   3.181   2.905  10.530
 6085SOL    HW118707   3.203   2.842  10.461
 6085SOL    HW218708   3.115   2.962  10.490
 6086SOL     OW18709   3.176   2.717   9.614
 6086SOL    HW118710   3.102   2.686   9.666
 6086SOL    HW218711   3.150   2.704   9.523
 6087SOL     OW18712   3.643   3.599  10.468
 6087SOL    HW118713   3.700   3.625  10.397
 6087SOL    HW218714   3.613   3.511  10.444
 6088SOL     OW18715   3.107   3.594  10.416
 6088SOL    HW118716   3.190   3.617  10.374
 6088SOL    HW218717   3.114   3.501  10.437
 6089SOL     OW18718   1.949   3.127  10.321
 6089SOL    HW118719   1.932   3.142  10.413
 6089SOL    HW218720   1.876   3.073  10.291
 6090SOL     OW18721   2.542   3.529  11.048
 6090SOL    HW118722   2.483   3.604  11.051
 6090SOL    HW218723   2.603   3.549  10.977
 6091SOL     OW18724   3.569   2.016   9.820
 6091SOL    HW118725   3.637   2.004   9.754
 6091SOL    HW218726   3.559   1.930   9.860
 6092SOL     OW18727   3.253   3.430   9.800
 6092SOL    HW118728   3.311   3.465   9.732
 6092SOL    HW218729   3.203   3.506   9.831
 6093SOL     OW18730   2.000   3.650  11.148
 6093SOL    HW118731   1.948   3.586  11.197
 6093SOL    HW218732   2.047   3.699  11.215
 6094SOL     OW18733   3.139   2.790   9.981
 6094SOL    HW118734   3.213   2.730   9.991
 6094SOL    HW218735   3.173   2.861   9.928
 6095SOL     OW18736   2.667   3.138  10.735
 6095SOL    HW118737   2.640   3.179  10.817
 6095SOL    HW218738   2.597   3.159  10.673
 6096SOL     OW18739   2.536   3.482   9.469
 6096SOL    HW118740   2.546   3.500   9.376
 6096SOL    HW218741   2.476   3.406   9.472
 6097SOL     OW18742   3.479   3.589  10.700
 6097SOL    HW118743   3.536   3.591  10.623
 6097SOL    HW218744   3.465   3.681  10.723
 6098SOL     OW18745   3.701   2.043  10.276
 6098SOL    HW118746   3.732   1.956  10.252
 6098SOL    HW218747   3.614   2.049  10.235
 6099SOL     OW18748   3.069   3.463   9.347
 6099SOL    HW118749   3.059   3.371   9.371
 6099SOL    HW218750   3.008   3.476   9.275
 6100SOL     OW18751   2.686   2.869  10.685
 6100SOL    HW118752   2.729   2.863  10.599
 6100SOL    HW218753   2.682   2.963  10.704
 6101SOL     OW18754   2.779   2.772   9.601
 6101SOL    HW118755   2.839   2.805   9.534
 6101SOL    HW218756   2.829   2.705   9.647
 6102SOL     OW18757   3.348   3.498   9.353
 6102SOL    HW118758   3.255   3.483   9.337
 6102SOL    HW218759   3.388   3.502   9.266
 6103SOL     OW18760   2.230   3.167  10.801
 6103SOL    HW118761   2.216   3.244  10.746
 6103SOL    HW218762   2.153   3.113  10.787
 6104SOL     OW18763   3.460   3.142  10.586
 6104SOL    HW118764   3.529   3.131  10.651
 6104SOL    HW218765   3.403   3.210  10.621
 6105SOL     OW18766   2.922   2.972  10.021
 6105SOL    HW118767   2.850   2.922  10.057
 6105SOL    HW218768   2.986   2.906   9.993
 6106SOL     OW18769   2.885   2.103  10.276
 6106SOL    HW118770   2.882   2.057  10.193
 6106SOL    HW218771   2.881   2.034  10.343
 6107SOL     OW18772   2.468   3.353   9.789
 6107SOL    HW118773   2.516   3.302   9.724
 6107SOL    HW218774   2.397   3.394   9.740
 6108SOL     OW18775   3.589   2.250  10.688
 6108SOL    HW118776   3.661   2.313  10.685
 6108SOL    HW218777   3.616   2.178  10.631
 6109SOL     OW18778   2.124   3.204   9.602
 6109SOL    HW118779   2.031   3.200   9.578
 6109SOL    HW218780   2.124   3.244   9.689
 6110SOL     OW18781   1.976   2.892  11.034
 6110SOL    HW118782   1.899   2.866  11.085
 6110SOL    HW218783   2.049   2.851  11.078
 6111SOL     OW18784   2.539   2.059  10.810
 6111SOL    HW118785   2.623   2.037  10.770
 6111SOL    HW218786   2.561   2.090  10.898
 6112SOL     OW18787   3.286   2.720  10.708
 6112SOL    HW118788   3.236   2.781  10.654
 6112SOL    HW218789   3.374   2.722  10.670
 6113SOL     OW18790   3.039   3.196   9.428
 6113SOL    HW118791   2.948   3.167   9.429
 6113SOL    HW218792   3.065   3.196   9.520
 6114SOL     OW18793   2.482   2.693  10.744
 6114SOL    HW118794   2.539   2.769  10.730
 6114SOL    HW218795   2.542   2.619  10.751
 6115SOL     OW18796   3.348   3.645  10.294
 6115SOL    HW118797   3.371   3.703  10.221
 6115SOL    HW218798   3.432   3.610  10.324
 6116SOL     OW18799   2.578   2.419  11.009
 6116SOL    HW118800   2.623   2.479  11.069
 6116SOL    HW218801   2.598   2.332  11.043
 6117SOL     OW18802   3.336   3.056  10.938
 6117SOL    HW118803   3.326   3.072  11.032
 6117SOL    HW218804   3.428   3.073  10.921
 6118SOL     OW18805   2.233   3.605  10.878
 6118SOL    HW118806   2.149   3.648  10.860
 6118SOL    HW218807   2.209   3.521  10.917
 6119SOL     OW18808   3.524   2.741  10.569
 6119SOL    HW118809   3.524   2.656  10.525
 6119SOL    HW218810   3.517   2.805  10.497
 6120SOL     OW18811   3.078   2.181   9.767
 6120SOL    HW118812   3.140   2.108   9.761
 6120SOL    HW218813   3.107   2.231   9.843
 6121SOL     OW18814   2.445   2.596   9.986
 6121SOL    HW118815   2.487   2.680   9.972
 6121SOL    HW218816   2.382   2.588   9.914
 6122SOL     OW18817   3.617   2.228  10.961
 6122SOL    HW118818   3.602   2.242  10.867
 6122SOL    HW218819   3.546   2.170  10.989
 6123SOL     OW18820   3.620   2.788  10.822
 6123SOL    HW118821   3.610   2.881  10.841
 6123SOL    HW218822   3.594   2.779  10.731
 6124SOL     OW18823   2.727   3.228   9.354
 6124SOL    HW118824   2.686   3.256   9.435
 6124SOL    HW218825   2.740   3.310   9.305
 6125SOL     OW18826   2.523   3.648  10.246
 6125SOL    HW118827   2.503   3.740  10.227
 6125SOL    HW218828   2.619   3.643  10.242
 6126SOL     OW18829   2.731   2.833  10.164
 6126SOL    HW118830   2.781   2.760  10.201
 6126SOL    HW218831   2.693   2.877  10.240
 6127SOL     OW18832   2.939   2.851   9.399
 6127SOL    HW118833   2.918   2.902   9.321
 6127SOL    HW218834   3.013   2.796   9.372
 6128SOL     OW18835   3.709   3.416  10.150
 6128SOL    HW118836   3.629   3.397  10.101
 6128SOL    HW218837   3.714   3.346  10.215
 6129SOL     OW18838   2.088   3.161  11.164
 6129SOL    HW118839   2.025   3.097  11.131
 6129SOL    HW218840   2.064   3.173  11.256
 6130SOL     OW18841   1.951   3.091   9.975
 6130SOL    HW118842   1.962   3.046  10.059
 6130SOL    HW218843   2.017   3.052   9.918
 6131SOL     OW18844   2.547   3.268  10.942
 6131SOL    HW118845   2.468   3.226  10.974
 6131SOL    HW218846   2.545   3.357  10.979
 6132SOL     OW18847   3.672   2.037  10.547
 6132SOL    HW118848   3.664   1.942  10.548
 6132SOL    HW218849   3.689   2.059  10.455
 6133SOL     OW18850   2.295   2.292   9.832
 6133SOL    HW118851   2.328   2.233   9.764
 6133SOL    HW218852   2.234   2.237   9.882
 6134SOL     OW18853   3.555   3.351  10.405
 6134SOL    HW118854   3.478   3.328  10.353
 6134SOL    HW218855   3.564   3.279  10.468
 6135SOL     OW18856   2.196   2.417  10.598
 6135SOL    HW118857   2.240   2.354  10.655
 6135SOL    HW218858   2.209   2.383  10.510
 6136SOL     OW18859   2.692   3.441   9.986
 6136SOL    HW118860   2.669   3.496   9.911
 6136SOL    HW218861   2.619   3.379   9.993
 6137SOL     OW18862   3.291   2.092  10.426
 6137SOL    HW118863   3.309   2.007  10.467
 6137SOL    HW218864   3.241   2.140  10.492
 6138SOL     OW18865   2.870   1.878  10.446
 6138SOL    HW118866   2.816   1.811  10.404
 6138SOL    HW218867   2.958   1.840  10.448
 6139SOL     OW18868   2.636   3.195   9.632
 6139SOL    HW118869   2.608   3.104   9.639
 6139SOL    HW218870   2.718   3.198   9.680
 6140SOL     OW18871   2.482   3.414  10.596
 6140SOL    HW118872   2.481   3.496  10.646
 6140SOL    HW218873   2.570   3.409  10.559
 6141SOL     OW18874   3.219   1.914   9.481
 6141SOL    HW118875   3.252   1.843   9.425
 6141SOL    HW218876   3.130   1.887   9.503
 6142SOL     OW18877   3.156   2.325   9.988
 6142SOL    HW118878   3.104   2.406   9.993
 6142SOL    HW218879   3.152   2.289  10.076
 6143SOL     OW18880   3.442   2.057  10.190
 6143SOL    HW118881   3.388   2.083  10.265
 6143SOL    HW218882   3.444   2.134  10.134
 6144SOL     OW18883   1.904   2.928   9.619
 6144SOL    HW118884   1.998   2.920   9.601
 6144SOL    HW218885   1.876   2.839   9.640
 6145SOL     OW18886   2.750   3.525   9.651
 6145SOL    HW118887   2.678   3.506   9.591
 6145SOL    HW218888   2.719   3.599   9.703
 6146SOL     OW18889   2.082   2.474  11.303
 6146SOL    HW118890   1.991   2.479  11.334
 6146SOL    HW218891   2.075   2.449  11.211
 6147SOL     OW18892   1.853   2.295  11.792
 6147SOL    HW118893   1.768   2.294  11.836
 6147SOL    HW218894   1.848   2.226  11.726
 6148SOL     OW18895   2.430   3.158  12.354
 6148SOL    HW118896   2.344   3.164  12.312
 6148SOL    HW218897   2.447   3.246  12.387
 6149SOL     OW18898   3.429   3.375  11.882
 6149SOL    HW118899   3.386   3.351  11.964
 6149SOL    HW218900   3.357   3.378  11.818
 6150SOL     OW18901   2.993   2.561  11.868
 6150SOL    HW118902   3.042   2.642  11.855
 6150SOL    HW218903   2.946   2.574  11.950
 6151SOL     OW18904   3.631   2.466  11.400
 6151SOL    HW118905   3.610   2.458  11.307
 6151SOL    HW218906   3.597   2.386  11.440
 6152SOL     OW18907   2.608   2.999  12.218
 6152SOL    HW118908   2.541   3.037  12.276
 6152SOL    HW218909   2.648   3.075  12.175
 6153SOL     OW18910   2.735   2.624  12.995
 6153SOL    HW118911   2.723   2.695  13.058
 6153SOL    HW218912   2.758   2.669  12.913
 6154SOL     OW18913   2.547   2.857  11.817
 6154SOL    HW118914   2.614   2.851  11.885
 6154SOL    HW218915   2.479   2.913  11.854
 6155SOL     OW18916   2.576   3.012  12.990
 6155SOL    HW118917   2.623   3.089  13.020
 6155SOL    HW218918   2.496   3.047  12.951
 6156SOL     OW18919   2.194   3.280  12.238
 6156SOL    HW118920   2.119   3.242  12.192
 6156SOL    HW218921   2.238   3.333  12.172
 6157SOL     OW18922   3.320   3.364  12.532
 6157SOL    HW118923   3.375   3.442  12.542
 6157SOL    HW218924   3.252   3.374  12.599
 6158SOL     OW18925   2.299   2.231  12.633
 6158SOL    HW118926   2.389   2.203  12.648
 6158SOL    HW218927   2.246   2.164  12.675
 6159SOL     OW18928   3.469   2.305  11.918
 6159SOL    HW118929   3.399   2.325  11.856
 6159SOL    HW218930   3.475   2.382  11.973
 6160SOL     OW18931   2.084   3.578  11.651
 6160SOL    HW118932   2.113   3.637  11.720
 6160SOL    HW218933   2.157   3.576  11.589
 6161SOL     OW18934   2.999   3.204  12.866
 6161SOL    HW118935   3.040   3.197  12.952
 6161SOL    HW218936   2.947   3.124  12.858
 6162SOL     OW18937   2.093   3.304  11.708
 6162SOL    HW118938   2.075   3.398  11.711
 6162SOL    HW218939   2.034   3.267  11.774
 6163SOL     OW18940   2.128   2.955  12.063
 6163SOL    HW118941   2.123   2.867  12.102
 6163SOL    HW218942   2.070   3.008  12.117
 6164SOL     OW18943   2.465   3.647  12.599
 6164SOL    HW118944   2.384   3.633  12.649
 6164SOL    HW218945   2.493   3.735  12.624
 6165SOL     OW18946   2.442   2.846  11.311
 6165SOL    HW118947   2.490   2.892  11.242
 6165SOL    HW218948   2.481   2.878  11.393
 6166SOL     OW18949   3.455   1.989  12.636
 6166SOL    HW118950   3.478   2.070  12.590
 6166SOL    HW218951   3.438   2.018  12.726
 6167SOL     OW18952   1.988   2.528  11.733
 6167SOL    HW118953   1.947   2.443  11.751
 6167SOL    HW218954   1.977   2.577  11.814
 6168SOL     OW18955   3.700   3.611  11.515
 6168SOL    HW118956   3.772   3.586  11.572
 6168SOL    HW218957   3.717   3.702  11.492
 6169SOL     OW18958   1.894   3.450  11.292
 6169SOL    HW118959   1.879   3.358  11.313
 6169SOL    HW218960   1.873   3.497  11.373
 6170SOL     OW18961   3.552   2.783  11.822
 6170SOL    HW118962   3.634   2.738  11.803
 6170SOL    HW218963   3.532   2.831  11.742
 6171SOL     OW18964   3.504   2.964  11.604
 6171SOL    HW118965   3.589   2.967  11.561
 6171SOL    HW218966   3.511   3.028  11.675
 6172SOL     OW18967   1.983   2.605  12.757
 6172SOL    HW118968   2.074   2.633  12.765
 6172SOL    HW218969   1.932   2.686  12.764
 6173SOL     OW18970   2.479   3.254  11.906
 6173SOL    HW118971   2.434   3.170  11.915
 6173SOL    HW218972   2.462   3.281  11.816
 6174SOL     OW18973   3.147   3.097  12.593
 6174SOL    HW118974   3.179   3.030  12.533
 6174SOL    HW218975   3.207   3.093  12.668
 6175SOL     OW18976   2.680   1.867  11.683
 6175SOL    HW118977   2.720   1.951  11.660
 6175SOL    HW218978   2.586   1.886  11.687
 6176SOL     OW18979   2.051   2.825  12.450
 6176SOL    HW118980   2.136   2.784  12.434
 6176SOL    HW218981   1.989   2.774  12.398
 6177SOL     OW18982   3.388   2.861  11.373
 6177SOL    HW118983   3.319   2.804  11.407
 6177SOL    HW218984   3.431   2.895  11.452
 6178SOL     OW18985   3.087   3.668  12.800
 6178SOL    HW118986   3.058   3.729  12.732
 6178SOL    HW218987   3.086   3.582  12.758
 6179SOL     OW18988   2.267   2.169  12.980
 6179SOL    HW118989   2.317   2.224  13.041
 6179SOL    HW218990   2.179   2.208  12.980
 6180SOL     OW18991   3.327   3.282  12.118
 6180SOL    HW118992   3.261   3.297  12.187
 6180SOL    HW218993   3.316   3.190  12.094
 6181SOL     OW18994   3.506   3.609  11.752
 6181SOL    HW118995   3.498   3.573  11.664
 6181SOL    HW218996   3.491   3.534  11.810
 6182SOL     OW18997   2.456   2.578  11.441
 6182SOL    HW118998   2.460   2.662  11.395
 6182SOL    HW218999   2.391   2.592  11.510
 6183SOL     OW19000   3.139   2.227  12.106
 6183SOL    HW119001   3.051   2.191  12.115
 6183SOL    HW219002   3.193   2.172  12.164
 6184SOL     OW19003   3.434   3.540  11.481
 6184SOL    HW119004   3.527   3.562  11.476
 6184SOL    HW219005   3.409   3.521  11.390
 6185SOL     OW19006   2.652   2.480  12.618
 6185SOL    HW119007   2.629   2.454  12.707
 6185SOL    HW219008   2.618   2.410  12.562
 6186SOL     OW19009   3.255   2.336  12.850
 6186SOL    HW119010   3.259   2.380  12.935
 6186SOL    HW219011   3.312   2.259  12.860
 6187SOL     OW19012   2.812   2.747  12.758
 6187SOL    HW119013   2.867   2.679  12.719
 6187SOL    HW219014   2.764   2.784  12.683
 6188SOL     OW19015   2.856   2.273  12.406
 6188SOL    HW119016   2.766   2.289  12.436
 6188SOL    HW219017   2.845   2.229  12.321
 6189SOL     OW19018   2.916   2.561  11.596
 6189SOL    HW119019   2.934   2.555  11.690
 6189SOL    HW219020   2.832   2.515  11.585
 6190SOL     OW19021   1.950   2.688  11.951
 6190SOL    HW119022   2.031   2.682  12.002
 6190SOL    HW219023   1.905   2.764  11.987
 6191SOL     OW19024   1.979   3.718  12.751
 6191SOL    HW119025   1.985   3.696  12.844
 6191SOL    HW219026   1.887   3.700  12.728
 6192SOL     OW19027   2.758   2.216  11.371
 6192SOL    HW119028   2.802   2.275  11.309
 6192SOL    HW219029   2.752   2.133  11.324
 6193SOL     OW19030   3.568   2.434  13.002
 6193SOL    HW119031   3.532   2.507  12.953
 6193SOL    HW219032   3.594   2.370  12.936
 6194SOL     OW19033   3.240   3.003  11.712
 6194SOL    HW119034   3.320   2.991  11.660
 6194SOL    HW219035   3.188   3.066  11.661
 6195SOL     OW19036   2.417   2.053  12.067
 6195SOL    HW119037   2.410   2.072  12.161
 6195SOL    HW219038   2.432   2.139  12.027
 6196SOL     OW19039   2.863   3.307  11.641
 6196SOL    HW119040   2.829   3.382  11.592
 6196SOL    HW219041   2.840   3.326  11.732
 6197SOL     OW19042   2.213   3.676  12.009
 6197SOL    HW119043   2.263   3.596  12.028
 6197SOL    HW219044   2.271   3.747  12.034
 6198SOL     OW19045   3.669   2.923  12.041
 6198SOL    HW119046   3.617   2.894  11.966
 6198SOL    HW219047   3.606   2.926  12.114
 6199SOL     OW19048   3.088   3.400  12.684
 6199SOL    HW119049   3.077   3.328  12.745
 6199SOL    HW219050   3.019   3.388  12.619
 6200SOL     OW19051   2.177   2.823  11.427
 6200SOL    HW119052   2.259   2.842  11.382
 6200SOL    HW219053   2.147   2.741  11.388
 6201SOL     OW19054   3.343   2.612  11.895
 6201SOL    HW119055   3.339   2.571  11.981
 6201SOL    HW219056   3.421   2.667  11.898
 6202SOL     OW19057   2.332   3.129  12.909
 6202SOL    HW119058   2.305   3.134  12.817
 6202SOL    HW219059   2.249   3.126  12.958
 6203SOL     OW19060   2.977   3.644  11.392
 6203SOL    HW119061   2.911   3.600  11.444
 6203SOL    HW219062   3.008   3.577  11.330
 6204SOL     OW19063   3.485   3.249  11.262
 6204SOL    HW119064   3.442   3.333  11.243
 6204SOL    HW219065   3.419   3.183  11.240
 6205SOL     OW19066   2.327   3.600  11.497
 6205SOL    HW119067   2.366   3.663  11.557
 6205SOL    HW219068   2.399   3.572  11.440
 6206SOL     OW19069   3.262   1.969  11.612
 6206SOL    HW119070   3.256   1.943  11.520
 6206SOL    HW219071   3.356   1.976  11.629
 6207SOL     OW19072   2.123   3.652  12.391
 6207SOL    HW119073   2.169   3.580  12.434
 6207SOL    HW219074   2.105   3.620  12.302
 6208SOL     OW19075   2.801   3.565  12.070
 6208SOL    HW119076   2.878   3.514  12.093
 6208SOL    HW219077   2.758   3.514  12.000
 6209SOL     OW19078   2.259   2.556  11.645
 6209SOL    HW119079   2.276   2.463  11.657
 6209SOL    HW219080   2.166   2.566  11.663
 6210SOL     OW19081   3.391   2.086  12.896
 6210SOL    HW119082   3.402   2.106  12.989
 6210SOL    HW219083   3.324   2.019  12.894
 6211SOL     OW19084   2.517   1.980  11.282
 6211SOL    HW119085   2.574   1.904  11.299
 6211SOL    HW219086   2.457   1.951  11.214
 6212SOL     OW19087   2.626   2.140  12.929
 6212SOL    HW119088   2.707   2.089  12.924
 6212SOL    HW219089   2.579   2.105  13.004
 6213SOL     OW19090   2.738   3.383  12.367
 6213SOL    HW119091   2.720   3.346  12.281
 6213SOL    HW219092   2.808   3.328  12.403
 6214SOL     OW19093   3.201   2.452  12.605
 6214SOL    HW119094   3.232   2.421  12.690
 6214SOL    HW219095   3.238   2.539  12.597
 6215SOL     OW19096   2.680   3.251  12.118
 6215SOL    HW119097   2.765   3.240  12.075
 6215SOL    HW219098   2.617   3.257  12.046
 6216SOL     OW19099   2.790   2.370  12.072
 6216SOL    HW119100   2.765   2.362  11.980
 6216SOL    HW219101   2.822   2.283  12.097
 6217SOL     OW19102   2.411   1.928  11.672
 6217SOL    HW119103   2.355   1.941  11.748
 6217SOL    HW219104   2.395   2.004  11.616
 6218SOL     OW19105   3.289   3.063  11.211
 6218SOL    HW119106   3.320   2.988  11.262
 6218SOL    HW219107   3.204   3.084  11.248
 6219SOL     OW19108   2.804   2.112  11.628
 6219SOL    HW119109   2.780   2.150  11.544
 6219SOL    HW219110   2.899   2.126  11.635
 6220SOL     OW19111   2.943   2.546  12.630
 6220SOL    HW119112   2.879   2.476  12.633
 6220SOL    HW219113   3.027   2.501  12.624
 6221SOL     OW19114   3.080   3.434  11.966
 6221SOL    HW119115   3.095   3.500  11.899
 6221SOL    HW219116   3.151   3.447  12.029
 6222SOL     OW19117   2.335   3.016  11.899
 6222SOL    HW119118   2.268   2.996  11.964
 6222SOL    HW219119   2.291   3.002  11.815
 6223SOL     OW19120   3.125   3.654  11.782
 6223SOL    HW119121   3.173   3.719  11.731
 6223SOL    HW219122   3.051   3.702  11.818
 6224SOL     OW19123   2.886   2.396  11.198
 6224SOL    HW119124   2.842   2.479  11.179
 6224SOL    HW219125   2.951   2.419  11.265
 6225SOL     OW19126   1.941   2.424  12.558
 6225SOL    HW119127   2.034   2.421  12.536
 6225SOL    HW219128   1.935   2.488  12.629
 6226SOL     OW19129   2.409   2.081  12.346
 6226SOL    HW119130   2.461   2.005  12.372
 6226SOL    HW219131   2.329   2.075  12.397
 6227SOL     OW19132   2.725   2.318  11.810
 6227SOL    HW119133   2.685   2.375  11.745
 6227SOL    HW219134   2.751   2.240  11.762
 6228SOL     OW19135   2.876   1.918  11.921
 6228SOL    HW119136   2.820   1.910  11.843
 6228SOL    HW219137   2.854   1.842  11.974
 6229SOL     OW19138   3.303   3.022  12.029
 6229SOL    HW119139   3.231   2.959  12.029
 6229SOL    HW219140   3.328   3.030  11.937
 6230SOL     OW19141   3.327   2.473  12.140
 6230SOL    HW119142   3.272   2.394  12.143
 6230SOL    HW219143   3.384   2.464  12.216
 6231SOL     OW19144   3.724   2.677  11.547
 6231SOL    HW119145   3.767   2.621  11.612
 6231SOL    HW219146   3.687   2.615  11.483
 6232SOL     OW19147   2.352   3.282  11.323
 6232SOL    HW119148   2.276   3.255  11.375
 6232SOL    HW219149   2.343   3.233  11.241
 6233SOL     OW19150   3.531   3.128  11.813
 6233SOL    HW119151   3.626   3.129  11.824
 6233SOL    HW219152   3.503   3.217  11.835
 6234SOL     OW19153   3.256   2.434  11.243
 6234SOL    HW119154   3.194   2.413  11.313
 6234SOL    HW219155   3.340   2.403  11.276
 6235SOL     OW19156   2.386   2.128  11.485
 6235SOL    HW119157   2.435   2.076  11.420
 6235SOL    HW219158   2.361   2.207  11.438
 6236SOL     OW19159   3.612   3.095  12.733
 6236SOL    HW119160   3.699   3.060  12.715
 6236SOL    HW219161   3.627   3.185  12.761
 6237SOL     OW19162   2.917   3.214  12.503
 6237SOL    HW119163   2.841   3.183  12.554
 6237SOL    HW219164   2.992   3.173  12.545
 6238SOL     OW19165   3.469   3.492  12.830
 6238SOL    HW119166   3.459   3.526  12.741
 6238SOL    HW219167   3.549   3.439  12.827
 6239SOL     OW19168   2.997   3.072  12.274
 6239SOL    HW119169   2.937   3.109  12.338
 6239SOL    HW219170   2.966   3.107  12.190
 6240SOL     OW19171   3.488   2.956  12.246
 6240SOL    HW119172   3.478   3.018  12.318
 6240SOL    HW219173   3.413   2.973  12.189
 6241SOL     OW19174   2.780   1.956  12.563
 6241SOL    HW119175   2.803   1.937  12.473
 6241SOL    HW219176   2.859   1.995  12.601
 6242SOL     OW19177   2.846   2.977  12.895
 6242SOL    HW119178   2.755   2.993  12.919
 6242SOL    HW219179   2.843   2.898  12.841
 6243SOL     OW19180   2.572   2.924  11.543
 6243SOL    HW119181   2.557   2.903  11.636
 6243SOL    HW219182   2.647   2.871  11.518
 6244SOL     OW19183   2.282   2.677  12.424
 6244SOL    HW119184   2.350   2.689  12.490
 6244SOL    HW219185   2.249   2.588  12.439
 6245SOL     OW19186   3.125   2.237  12.453
 6245SOL    HW119187   3.158   2.315  12.498
 6245SOL    HW219188   3.035   2.258  12.431
 6246SOL     OW19189   1.937   3.435  12.528
 6246SOL    HW119190   1.909   3.510  12.474
 6246SOL    HW219191   2.032   3.435  12.521
 6247SOL     OW19192   2.200   2.980  11.661
 6247SOL    HW119193   2.204   3.054  11.600
 6247SOL    HW219194   2.198   2.903  11.605
 6248SOL     OW19195   2.405   2.392  12.034
 6248SOL    HW119196   2.418   2.451  11.959
 6248SOL    HW219197   2.473   2.419  12.097
 6249SOL     OW19198   3.109   3.212  11.562
 6249SOL    HW119199   3.165   3.282  11.594
 6249SOL    HW219200   3.022   3.233  11.596
 6250SOL     OW19201   3.150   3.323  12.321
 6250SOL    HW119202   3.206   3.328  12.398
 6250SOL    HW219203   3.096   3.246  12.335
 6251SOL     OW19204   3.437   2.480  11.657
 6251SOL    HW119205   3.389   2.530  11.723
 6251SOL    HW219206   3.479   2.545  11.601
 6252SOL     OW19207   2.207   3.393  12.481
 6252SOL    HW119208   2.196   3.347  12.398
 6252SOL    HW219209   2.302   3.403  12.490
 6253SOL     OW19210   2.279   2.610  12.777
 6253SOL    HW119211   2.341   2.652  12.718
 6253SOL    HW219212   2.322   2.529  12.804
 6254SOL     OW19213   3.469   2.642  12.858
 6254SOL    HW119214   3.384   2.685  12.852
 6254SOL    HW219215   3.522   2.684  12.790
 6255SOL     OW19216   2.857   1.994  12.922
 6255SOL    HW119217   2.917   2.066  12.903
 6255SOL    HW219218   2.906   1.915  12.899
 6256SOL     OW19219   2.370   1.907  12.924
 6256SOL    HW119220   2.311   1.857  12.868
 6256SOL    HW219221   2.329   1.993  12.931
 6257SOL     OW19222   2.448   2.735  12.205
 6257SOL    HW119223   2.481   2.825  12.206
 6257SOL    HW219224   2.391   2.730  12.282
 6258SOL     OW19225   3.210   2.721  12.193
 6258SOL    HW119226   3.125   2.706  12.153
 6258SOL    HW219227   3.257   2.638  12.184
 6259SOL     OW19228   3.061   2.389  11.434
 6259SOL    HW119229   3.070   2.311  11.488
 6259SOL    HW219230   3.020   2.453  11.491
 6260SOL     OW19231   1.908   3.174  12.446
 6260SOL    HW119232   1.940   3.118  12.517
 6260SOL    HW219233   1.914   3.263  12.480
 6261SOL     OW19234   2.579   2.487  12.224
 6261SOL    HW119235   2.658   2.475  12.171
 6261SOL    HW219236   2.553   2.578  12.208
 6262SOL     OW19237   3.592   2.820  13.039
 6262SOL    HW119238   3.553   2.753  12.983
 6262SOL    HW219239   3.526   2.836  13.107
 6263SOL     OW19240   3.484   2.241  11.533
 6263SOL    HW119241   3.510   2.175  11.597
 6263SOL    HW219242   3.460   2.317  11.586
 6264SOL     OW19243   2.890   2.620  12.130
 6264SOL    HW119244   2.882   2.636  12.224
 6264SOL    HW219245   2.864   2.528  12.120
 6265SOL     OW19246   2.848   3.431  12.894
 6265SOL    HW119247   2.828   3.470  12.810
 6265SOL    HW219248   2.889   3.347  12.872
 6266SOL     OW19249   3.703   3.357  12.769
 6266SOL    HW119250   3.728   3.388  12.682
 6266SOL    HW219251   3.782   3.365  12.821
 6267SOL     OW19252   2.213   2.780  12.984
 6267SOL    HW119253   2.295   2.799  13.030
 6267SOL    HW219254   2.238   2.718  12.915
 6268SOL     OW19255   3.389   2.133  11.298
 6268SOL    HW119256   3.326   2.068  11.326
 6268SOL    HW219257   3.423   2.170  11.380
 6269SOL     OW19258   3.149   2.686  11.200
 6269SOL    HW119259   3.192   2.601  11.205
 6269SOL    HW219260   3.182   2.725  11.119
 6270SOL     OW19261   2.930   3.201  12.028
 6270SOL    HW119262   2.935   3.128  11.966
 6270SOL    HW219263   2.988   3.268  11.993
 6271SOL     OW19264   2.172   2.673  12.118
 6271SOL    HW119265   2.264   2.694  12.108
 6271SOL    HW219266   2.171   2.584  12.154
 6272SOL     OW19267   2.181   2.368  12.180
 6272SOL    HW119268   2.137   2.298  12.132
 6272SOL    HW219269   2.263   2.382  12.133
 6273SOL     OW19270   2.996   2.235  12.857
 6273SOL    HW119271   2.948   2.289  12.920
 6273SOL    HW219272   3.083   2.275  12.853
 6274SOL     OW19273   3.022   2.060  12.643
 6274SOL    HW119274   3.011   2.123  12.715
 6274SOL    HW219275   3.065   2.110  12.574
 6275SOL     OW19276   1.869   3.178  11.366
 6275SOL    HW119277   1.781   3.194  11.331
 6275SOL    HW219278   1.864   3.089  11.401
 6276SOL     OW19279   1.961   3.636  12.111
 6276SOL    HW119280   1.929   3.558  12.065
 6276SOL    HW219281   2.044   3.656  12.069
 6277SOL     OW19282   2.353   3.439  12.076
 6277SOL    HW119283   2.421   3.502  12.100
 6277SOL    HW219284   2.398   3.376  12.019
 6278SOL     OW19285   2.835   2.649  12.396
 6278SOL    HW119286   2.897   2.630  12.467
 6278SOL    HW219287   2.752   2.612  12.426
 6279SOL     OW19288   1.902   2.397  12.289
 6279SOL    HW119289   1.987   2.404  12.245
 6279SOL    HW219290   1.922   2.410  12.382
 6280SOL     OW19291   2.071   2.383  12.904
 6280SOL    HW119292   2.125   2.359  12.829
 6280SOL    HW219293   2.008   2.446  12.870
 6281SOL     OW19294   3.243   2.796  12.829
 6281SOL    HW119295   3.264   2.889  12.826
 6281SOL    HW219296   3.238   2.769  12.737
 6282SOL     OW19297   2.679   2.432  11.541
 6282SOL    HW119298   2.687   2.359  11.480
 6282SOL    HW219299   2.605   2.483  11.508
 6283SOL     OW19300   3.501   2.463  12.352
 6283SOL    HW119301   3.489   2.403  12.426
 6283SOL    HW219302   3.588   2.443  12.318
 6284SOL     OW19303   2.102   3.409  12.894
 6284SOL    HW119304   2.079   3.476  12.958
 6284SOL    HW219305   2.107   3.328  12.944
 6285SOL     OW19306   2.570   2.305  12.426
 6285SOL    HW119307   2.512   2.233  12.400
 6285SOL    HW219308   2.563   2.369  12.355
 6286SOL     OW19309   2.786   3.532  12.643
 6286SOL    HW119310   2.760   3.492  12.560
 6286SOL    HW219311   2.778   3.626  12.628
 6287SOL     OW19312   2.325   2.353  11.344
 6287SOL    HW119313   2.383   2.424  11.372
 6287SOL    HW219314   2.238   2.394  11.339
 6288SOL     OW19315   2.004   3.005  12.646
 6288SOL    HW119316   2.005   2.957  12.729
 6288SOL    HW219317   2.022   2.939  12.580
 6289SOL     OW19318   3.181   2.905  12.392
 6289SOL    HW119319   3.203   2.842  12.323
 6289SOL    HW219320   3.115   2.962  12.352
 6290SOL     OW19321   3.176   2.717  11.476
 6290SOL    HW119322   3.102   2.686  11.528
 6290SOL    HW219323   3.150   2.704  11.385
 6291SOL     OW19324   3.643   3.599  12.330
 6291SOL    HW119325   3.700   3.625  12.259
 6291SOL    HW219326   3.613   3.511  12.306
 6292SOL     OW19327   3.107   3.594  12.278
 6292SOL    HW119328   3.190   3.617  12.236
 6292SOL    HW219329   3.114   3.501  12.299
 6293SOL     OW19330   1.949   3.127  12.182
 6293SOL    HW119331   1.932   3.142  12.275
 6293SOL    HW219332   1.876   3.073  12.153
 6294SOL     OW19333   2.542   3.528  12.909
 6294SOL    HW119334   2.483   3.604  12.913
 6294SOL    HW219335   2.603   3.549  12.839
 6295SOL     OW19336   3.569   2.016  11.682
 6295SOL    HW119337   3.637   2.004  11.616
 6295SOL    HW219338   3.559   1.930  11.722
 6296SOL     OW19339   3.253   3.430  11.662
 6296SOL    HW119340   3.311   3.465  11.594
 6296SOL    HW219341   3.203   3.506  11.693
 6297SOL     OW19342   1.999   3.650  13.010
 6297SOL    HW119343   1.947   3.586  13.059
 6297SOL    HW219344   2.047   3.699  13.077
 6298SOL     OW19345   3.139   2.790  11.843
 6298SOL    HW119346   3.213   2.730  11.853
 6298SOL    HW219347   3.173   2.861  11.790
 6299SOL     OW19348   2.667   3.138  12.597
 6299SOL    HW119349   2.640   3.179  12.679
 6299SOL    HW219350   2.597   3.159  12.535
 6300SOL     OW19351   2.536   3.482  11.331
 6300SOL    HW119352   2.546   3.500  11.238
 6300SOL    HW219353   2.476   3.406  11.334
 6301SOL     OW19354   3.479   3.589  12.562
 6301SOL    HW119355   3.536   3.591  12.485
 6301SOL    HW219356   3.466   3.681  12.585
 6302SOL     OW19357   3.701   2.043  12.138
 6302SOL    HW119358   3.732   1.956  12.114
 6302SOL    HW219359   3.614   2.049  12.097
 6303SOL     OW19360   3.070   3.463  11.209
 6303SOL    HW119361   3.059   3.371  11.233
 6303SOL    HW219362   3.008   3.476  11.137
 6304SOL     OW19363   2.686   2.869  12.547
 6304SOL    HW119364   2.729   2.863  12.461
 6304SOL    HW219365   2.682   2.963  12.566
 6305SOL     OW19366   2.779   2.772  11.463
 6305SOL    HW119367   2.838   2.805  11.396
 6305SOL    HW219368   2.829   2.705  11.509
 6306SOL     OW19369   3.348   3.498  11.215
 6306SOL    HW119370   3.255   3.483  11.199
 6306SOL    HW219371   3.388   3.502  11.128
 6307SOL     OW19372   2.230   3.167  12.663
 6307SOL    HW119373   2.216   3.244  12.608
 6307SOL    HW219374   2.153   3.112  12.649
 6308SOL     OW19375   3.460   3.142  12.448
 6308SOL    HW119376   3.529   3.131  12.514
 6308SOL    HW219377   3.403   3.210  12.483
 6309SOL     OW19378   2.922   2.972  11.883
 6309SOL    HW119379   2.850   2.921  11.919
 6309SOL    HW219380   2.986   2.906  11.855
 6310SOL     OW19381   2.885   2.103  12.138
 6310SOL    HW119382   2.882   2.057  12.055
 6310SOL    HW219383   2.881   2.035  12.205
 6311SOL     OW19384   2.468   3.353  11.651
 6311SOL    HW119385   2.516   3.302  11.586
 6311SOL    HW219386   2.397   3.394  11.602
 6312SOL     OW19387   3.589   2.250  12.550
 6312SOL    HW119388   3.661   2.313  12.547
 6312SOL    HW219389   3.616   2.178  12.493
 6313SOL     OW19390   2.124   3.204  11.464
 6313SOL    HW119391   2.031   3.200  11.440
 6313SOL    HW219392   2.124   3.244  11.551
 6314SOL     OW19393   1.975   2.892  12.895
 6314SOL    HW119394   1.899   2.866  12.946
 6314SOL    HW219395   2.049   2.851  12.940
 6315SOL     OW19396   2.540   2.060  12.671
 6315SOL    HW119397   2.624   2.036  12.632
 6315SOL    HW219398   2.562   2.090  12.759
 6316SOL     OW19399   3.286   2.720  12.569
 6316SOL    HW119400   3.236   2.781  12.516
 6316SOL    HW219401   3.374   2.722  12.532
 6317SOL     OW19402   3.039   3.196  11.290
 6317SOL    HW119403   2.948   3.167  11.291
 6317SOL    HW219404   3.065   3.196  11.382
 6318SOL     OW19405   2.482   2.693  12.606
 6318SOL    HW119406   2.538   2.769  12.592
 6318SOL    HW219407   2.542   2.619  12.613
 6319SOL     OW19408   3.348   3.645  12.156
 6319SOL    HW119409   3.371   3.703  12.083
 6319SOL    HW219410   3.432   3.610  12.186
 6320SOL     OW19411   2.578   2.420  12.871
 6320SOL    HW119412   2.623   2.479  12.931
 6320SOL    HW219413   2.598   2.332  12.905
 6321SOL     OW19414   3.336   3.057  12.801
 6321SOL    HW119415   3.325   3.072  12.895
 6321SOL    HW219416   3.428   3.073  12.784
 6322SOL     OW19417   2.233   3.605  12.740
 6322SOL    HW119418   2.149   3.648  12.722
 6322SOL    HW219419   2.209   3.521  12.780
 6323SOL     OW19420   3.525   2.741  12.431
 6323SOL    HW119421   3.524   2.656  12.387
 6323SOL    HW219422   3.517   2.805  12.359
 6324SOL     OW19423   3.078   2.181  11.629
 6324SOL    HW119424   3.140   2.108  11.623
 6324SOL    HW219425   3.107   2.231  11.705
 6325SOL     OW19426   2.444   2.596  11.848
 6325SOL    HW119427   2.487   2.680  11.834
 6325SOL    HW219428   2.382   2.588  11.776
 6326SOL     OW19429   3.617   2.229  12.823
 6326SOL    HW119430   3.602   2.242  12.729
 6326SOL    HW219431   3.546   2.170  12.851
 6327SOL     OW19432   3.620   2.788  12.684
 6327SOL    HW119433   3.610   2.882  12.703
 6327SOL    HW219434   3.594   2.779  12.593
 6328SOL     OW19435   2.727   3.228  11.215
 6328SOL    HW119436   2.686   3.256  11.297
 6328SOL    HW219437   2.740   3.310  11.167
 6329SOL     OW19438   2.523   3.648  12.107
 6329SOL    HW119439   2.503   3.740  12.089
 6329SOL    HW219440   2.619   3.643  12.104
 6330SOL     OW19441   2.731   2.833  12.026
 6330SOL    HW119442   2.781   2.760  12.063
 6330SOL    HW219443   2.693   2.877  12.102
 6331SOL     OW19444   2.939   2.850  11.261
 6331SOL    HW119445   2.918   2.902  11.183
 6331SOL    HW219446   3.013   2.796  11.234
 6332SOL     OW19447   3.709   3.416  12.012
 6332SOL    HW119448   3.629   3.397  11.963
 6332SOL    HW219449   3.714   3.346  12.077
 6333SOL     OW19450   2.088   3.161  13.026
 6333SOL    HW119451   2.025   3.097  12.992
 6333SOL    HW219452   2.063   3.174  13.117
 6334SOL     OW19453   1.951   3.091  11.837
 6334SOL    HW119454   1.962   3.046  11.921
 6334SOL    HW219455   2.017   3.052  11.780
 6335SOL     OW19456   2.547   3.268  12.804
 6335SOL    HW119457   2.468   3.227  12.836
 6335SOL    HW219458   2.545   3.357  12.841
 6336SOL     OW19459   3.672   2.037  12.409
 6336SOL    HW119460   3.664   1.942  12.410
 6336SOL    HW219461   3.689   2.059  12.317
 6337SOL     OW19462   2.295   2.293  11.693
 6337SOL    HW119463   2.327   2.233  11.626
 6337SOL    HW219464   2.240   2.238  11.749
 6338SOL     OW19465   3.555   3.351  12.267
 6338SOL    HW119466   3.478   3.328  12.216
 6338SOL    HW219467   3.564   3.279  12.330
 6339SOL     OW19468   2.196   2.417  12.460
 6339SOL    HW119469   2.240   2.353  12.517
 6339SOL    HW219470   2.208   2.383  12.372
 6340SOL     OW19471   2.692   3.441  11.848
 6340SOL    HW119472   2.669   3.496  11.773
 6340SOL    HW219473   2.619   3.379  11.855
 6341SOL     OW19474   3.291   2.092  12.288
 6341SOL    HW119475   3.309   2.007  12.329
 6341SOL    HW219476   3.241   2.140  12.354
 6342SOL     OW19477   2.870   1.878  12.308
 6342SOL    HW119478   2.816   1.811  12.265
 6342SOL    HW219479   2.958   1.840  12.310
 6343SOL     OW19480   2.636   3.195  11.494
 6343SOL    HW119481   2.608   3.104  11.501
 6343SOL    HW219482   2.718   3.198  11.542
 6344SOL     OW19483   2.482   3.414  12.458
 6344SOL    HW119484   2.481   3.496  12.508
 6344SOL    HW219485   2.570   3.409  12.421
 6345SOL     OW19486   3.219   1.914  11.343
 6345SOL    HW119487   3.252   1.843  11.287
 6345SOL    HW219488   3.130   1.887  11.365
 6346SOL     OW19489   3.156   2.325  11.850
 6346SOL    HW119490   3.104   2.406  11.855
 6346SOL    HW219491   3.153   2.289  11.938
 6347SOL     OW19492   3.442   2.057  12.052
 6347SOL    HW119493   3.388   2.083  12.127
 6347SOL    HW219494   3.444   2.134  11.996
 6348SOL     OW19495   1.904   2.928  11.481
 6348SOL    HW119496   1.998   2.920  11.463
 6348SOL    HW219497   1.876   2.839  11.502
 6349SOL     OW19498   2.750   3.525  11.513
 6349SOL    HW119499   2.678   3.506  11.453
 6349SOL    HW219500   2.719   3.599  11.565
 6350SOL     OW19501   2.081   2.474  13.166
 6350SOL    HW119502   1.991   2.476  13.198
 6350SOL    HW219503   2.073   2.448  13.074
 6351SOL     OW19504   1.879   2.284  13.643
 6351SOL    HW119505   1.790   2.292  13.677
 6351SOL    HW219506   1.870   2.230  13.564
 6352SOL     OW19507   3.379   3.356  13.731
 6352SOL    HW119508   3.328   3.280  13.762
 6352SOL    HW219509   3.335   3.382  13.650
 6353SOL     OW19510   2.994   2.558  13.726
 6353SOL    HW119511   3.044   2.637  13.709
 6353SOL    HW219512   2.943   2.577  13.805
 6354SOL     OW19513   3.645   2.464  13.259
 6354SOL    HW119514   3.618   2.458  13.167
 6354SOL    HW219515   3.602   2.391  13.302
 6355SOL     OW19516   2.544   2.872  13.671
 6355SOL    HW119517   2.598   2.855  13.749
 6355SOL    HW219518   2.469   2.922  13.704
 6356SOL     OW19519   3.479   2.321  13.755
 6356SOL    HW119520   3.392   2.307  13.717
 6356SOL    HW219521   3.471   2.401  13.807
 6357SOL     OW19522   2.087   3.579  13.521
 6357SOL    HW119523   2.123   3.627  13.595
 6357SOL    HW219524   2.158   3.579  13.456
 6358SOL     OW19525   2.095   3.303  13.570
 6358SOL    HW119526   2.076   3.397  13.574
 6358SOL    HW219527   2.035   3.264  13.634
 6359SOL     OW19528   2.103   2.975   0.031
 6359SOL    HW119529   2.122   2.911   0.099
 6359SOL    HW219530   2.031   3.027   0.066
 6360SOL     OW19531   2.441   2.845  13.170
 6360SOL    HW119532   2.489   2.891  13.102
 6360SOL    HW219533   2.480   2.878  13.252
 6361SOL     OW19534   1.985   2.534  13.591
 6361SOL    HW119535   1.952   2.446  13.608
 6361SOL    HW219536   1.972   2.581  13.673
 6362SOL     OW19537   3.699   3.611  13.374
 6362SOL    HW119538   3.773   3.585  13.430
 6362SOL    HW219539   3.715   3.704  13.356
 6363SOL     OW19540   1.894   3.451  13.155
 6363SOL    HW119541   1.878   3.359  13.175
 6363SOL    HW219542   1.874   3.497  13.236
 6364SOL     OW19543   3.549   2.781  13.671
 6364SOL    HW119544   3.633   2.743  13.646
 6364SOL    HW219545   3.525   2.836  13.597
 6365SOL     OW19546   3.503   2.965  13.463
 6365SOL    HW119547   3.588   2.966  13.418
 6365SOL    HW219548   3.511   3.031  13.532
 6366SOL     OW19549   2.467   3.244  13.757
 6366SOL    HW119550   2.422   3.160  13.763
 6366SOL    HW219551   2.443   3.277  13.671
 6367SOL     OW19552   2.680   1.867  13.543
 6367SOL    HW119553   2.719   1.951  13.521
 6367SOL    HW219554   2.586   1.884  13.549
 6368SOL     OW19555   3.387   2.860  13.235
 6368SOL    HW119556   3.319   2.802  13.269
 6368SOL    HW219557   3.429   2.896  13.314
 6369SOL     OW19558   3.509   3.599  13.616
 6369SOL    HW119559   3.495   3.570  13.526
 6369SOL    HW219560   3.504   3.519  13.668
 6370SOL     OW19561   2.453   2.578  13.300
 6370SOL    HW119562   2.457   2.661  13.253
 6370SOL    HW219563   2.387   2.592  13.368
 6371SOL     OW19564   3.117   2.188   0.041
 6371SOL    HW119565   3.037   2.142   0.068
 6371SOL    HW219566   3.188   2.136   0.078
 6372SOL     OW19567   3.434   3.544  13.340
 6372SOL    HW119568   3.528   3.565  13.337
 6372SOL    HW219569   3.411   3.523  13.250
 6373SOL     OW19570   2.912   2.558  13.457
 6373SOL    HW119571   2.931   2.546  13.550
 6373SOL    HW219572   2.829   2.513  13.443
 6374SOL     OW19573   1.948   2.688  13.810
 6374SOL    HW119574   2.018   2.671  13.873
 6374SOL    HW219575   1.900   2.762  13.848
 6375SOL     OW19576   2.758   2.215  13.232
 6375SOL    HW119577   2.802   2.274  13.170
 6375SOL    HW219578   2.754   2.131  13.185
 6376SOL     OW19579   3.224   2.996  13.548
 6376SOL    HW119580   3.313   2.995  13.515
 6376SOL    HW219581   3.182   3.068  13.501
 6377SOL     OW19582   2.858   3.302  13.501
 6377SOL    HW119583   2.829   3.380  13.452
 6377SOL    HW219584   2.825   3.315  13.589
 6378SOL     OW19585   2.262   3.670  13.792
 6378SOL    HW119586   2.206   3.611  13.843
 6378SOL    HW219587   2.330   3.697  13.853
 6379SOL     OW19588   3.654   2.912   0.000
 6379SOL    HW119589   3.601   2.897  13.822
 6379SOL    HW219590   3.592   2.907   0.073
 6380SOL     OW19591   2.177   2.823  13.290
 6380SOL    HW119592   2.258   2.843  13.242
 6380SOL    HW219593   2.147   2.740  13.252
 6381SOL     OW19594   3.356   2.596  13.745
 6381SOL    HW119595   3.346   2.562  13.834
 6381SOL    HW219596   3.427   2.659  13.751
 6382SOL     OW19597   2.977   3.645  13.252
 6382SOL    HW119598   2.912   3.601  13.307
 6382SOL    HW219599   3.008   3.578  13.192
 6383SOL     OW19600   3.485   3.249  13.123
 6383SOL    HW119601   3.442   3.332  13.105
 6383SOL    HW219602   3.419   3.183  13.102
 6384SOL     OW19603   2.327   3.599  13.357
 6384SOL    HW119604   2.365   3.661  13.419
 6384SOL    HW219605   2.399   3.573  13.300
 6385SOL     OW19606   3.264   1.975  13.470
 6385SOL    HW119607   3.257   1.947  13.379
 6385SOL    HW219608   3.358   1.976  13.487
 6386SOL     OW19609   2.791   3.544   0.005
 6386SOL    HW119610   2.801   3.477   0.074
 6386SOL    HW219611   2.749   3.498  13.833
 6387SOL     OW19612   2.253   2.563  13.501
 6387SOL    HW119613   2.264   2.469  13.510
 6387SOL    HW219614   2.161   2.579  13.520
 6388SOL     OW19615   2.517   1.981  13.142
 6388SOL    HW119616   2.573   1.905  13.160
 6388SOL    HW219617   2.457   1.951  13.074
 6389SOL     OW19618   2.411   1.925  13.534
 6389SOL    HW119619   2.349   1.932  13.606
 6389SOL    HW219620   2.394   2.001  13.479
 6390SOL     OW19621   3.289   3.063  13.073
 6390SOL    HW119622   3.319   2.987  13.124
 6390SOL    HW219623   3.203   3.084  13.109
 6391SOL     OW19624   2.804   2.111  13.491
 6391SOL    HW119625   2.779   2.150  13.406
 6391SOL    HW219626   2.899   2.125  13.496
 6392SOL     OW19627   2.323   3.007  13.766
 6392SOL    HW119628   2.252   2.994  13.829
 6392SOL    HW219629   2.281   2.996  13.681
 6393SOL     OW19630   3.127   3.659  13.628
 6393SOL    HW119631   3.173   3.728  13.580
 6393SOL    HW219632   3.057   3.705  13.675
 6394SOL     OW19633   2.886   2.396  13.060
 6394SOL    HW119634   2.842   2.479  13.040
 6394SOL    HW219635   2.950   2.418  13.127
 6395SOL     OW19636   2.763   2.331  13.674
 6395SOL    HW119637   2.700   2.382  13.623
 6395SOL    HW219638   2.772   2.248  13.626
 6396SOL     OW19639   2.886   1.896  13.771
 6396SOL    HW119640   2.829   1.904  13.695
 6396SOL    HW219641   2.856   1.817  13.816
 6397SOL     OW19642   3.729   2.675  13.411
 6397SOL    HW119643   3.778   2.620  13.473
 6397SOL    HW219644   3.694   2.613  13.347
 6398SOL     OW19645   2.352   3.282  13.185
 6398SOL    HW119646   2.276   3.255  13.237
 6398SOL    HW219647   2.343   3.234  13.103
 6399SOL     OW19648   3.542   3.135  13.661
 6399SOL    HW119649   3.636   3.135  13.677
 6399SOL    HW219650   3.511   3.217  13.700
 6400SOL     OW19651   3.256   2.434  13.105
 6400SOL    HW119652   3.193   2.414  13.175
 6400SOL    HW219653   3.340   2.403  13.138
 6401SOL     OW19654   2.390   2.127  13.351
 6401SOL    HW119655   2.437   2.077  13.284
 6401SOL    HW219656   2.360   2.206  13.305
 6402SOL     OW19657   2.572   2.927  13.400
 6402SOL    HW119658   2.557   2.909  13.492
 6402SOL    HW219659   2.648   2.873  13.377
 6403SOL     OW19660   2.203   2.979  13.523
 6403SOL    HW119661   2.204   3.054  13.464
 6403SOL    HW219662   2.199   2.903  13.465
 6404SOL     OW19663   2.445   2.388  13.845
 6404SOL    HW119664   2.449   2.466  13.790
 6404SOL    HW219665   2.483   2.415   0.029
 6405SOL     OW19666   3.105   3.216  13.418
 6405SOL    HW119667   3.160   3.289  13.446
 6405SOL    HW219668   3.019   3.236  13.453
 6406SOL     OW19669   3.441   2.486  13.500
 6406SOL    HW119670   3.400   2.521  13.578
 6406SOL    HW219671   3.470   2.563  13.451
 6407SOL     OW19672   3.060   2.389  13.295
 6407SOL    HW119673   3.069   2.310  13.349
 6407SOL    HW219674   3.018   2.453  13.352
 6408SOL     OW19675   3.484   2.240  13.393
 6408SOL    HW119676   3.507   2.176  13.461
 6408SOL    HW219677   3.460   2.319  13.442
 6409SOL     OW19678   3.390   2.133  13.160
 6409SOL    HW119679   3.325   2.068  13.188
 6409SOL    HW219680   3.424   2.170  13.241
 6410SOL     OW19681   3.148   2.685  13.061
 6410SOL    HW119682   3.192   2.600  13.066
 6410SOL    HW219683   3.181   2.725  12.980
 6411SOL     OW19684   1.869   3.179  13.227
 6411SOL    HW119685   1.782   3.195  13.192
 6411SOL    HW219686   1.865   3.090  13.263
 6412SOL     OW19687   2.677   2.434  13.396
 6412SOL    HW119688   2.685   2.359  13.337
 6412SOL    HW219689   2.602   2.483  13.363
 6413SOL     OW19690   2.324   2.350  13.204
 6413SOL    HW119691   2.382   2.422  13.230
 6413SOL    HW219692   2.237   2.390  13.200
 6414SOL     OW19693   3.178   2.712  13.337
 6414SOL    HW119694   3.102   2.686  13.388
 6414SOL    HW219695   3.151   2.700  13.246
 6415SOL     OW19696   3.572   2.014  13.545
 6415SOL    HW119697   3.639   2.003  13.477
 6415SOL    HW219698   3.561   1.927  13.583
 6416SOL     OW19699   3.243   3.438  13.509
 6416SOL    HW119700   3.303   3.476  13.444
 6416SOL    HW219701   3.197   3.513  13.546
 6417SOL     OW19702   3.152   2.775  13.685
 6417SOL    HW119703   3.228   2.718  13.671
 6417SOL    HW219704   3.174   2.857  13.640
 6418SOL     OW19705   2.536   3.482  13.192
 6418SOL    HW119706   2.547   3.501  13.099
 6418SOL    HW219707   2.477   3.407  13.195
 6419SOL     OW19708   3.679   2.025   0.089
 6419SOL    HW119709   3.687   1.940   0.046
 6419SOL    HW219710   3.585   2.044   0.087
 6420SOL     OW19711   2.100   2.299  13.816
 6420SOL    HW119712   2.062   2.288  13.729
 6420SOL    HW219713   2.153   2.220  13.830
 6421SOL     OW19714   3.070   3.463  13.071
 6421SOL    HW119715   3.059   3.371  13.095
 6421SOL    HW219716   3.008   3.477  12.999
 6422SOL     OW19717   2.782   2.776  13.331
 6422SOL    HW119718   2.840   2.806  13.261
 6422SOL    HW219719   2.829   2.702  13.371
 6423SOL     OW19720   3.348   3.498  13.077
 6423SOL    HW119721   3.255   3.483  13.060
 6423SOL    HW219722   3.388   3.501  12.990
 6424SOL     OW19723   2.912   2.952  13.755
 6424SOL    HW119724   2.827   2.916  13.731
 6424SOL    HW219725   2.972   2.920  13.688
 6425SOL     OW19726   2.461   3.354  13.504
 6425SOL    HW119727   2.509   3.303  13.438
 6425SOL    HW219728   2.393   3.399  13.453
 6426SOL     OW19729   2.125   3.203  13.326
 6426SOL    HW119730   2.032   3.200  13.302
 6426SOL    HW219731   2.126   3.244  13.412
 6427SOL     OW19732   3.039   3.196  13.149
 6427SOL    HW119733   2.947   3.168  13.150
 6427SOL    HW219734   3.064   3.198  13.241
 6428SOL     OW19735   3.078   2.181  13.490
 6428SOL    HW119736   3.140   2.109  13.481
 6428SOL    HW219737   3.109   2.231  13.565
 6429SOL     OW19738   2.450   2.610  13.690
 6429SOL    HW119739   2.487   2.697  13.673
 6429SOL    HW219740   2.380   2.601  13.625
 6430SOL     OW19741   2.728   3.228  13.077
 6430SOL    HW119742   2.686   3.254  13.159
 6430SOL    HW219743   2.740   3.310  13.029
 6431SOL     OW19744   2.512   3.720   0.062
 6431SOL    HW119745   2.505   3.812   0.086
 6431SOL    HW219746   2.605   3.699   0.075
 6432SOL     OW19747   2.682   2.830   0.001
 6432SOL    HW119748   2.703   2.743   0.036
 6432SOL    HW219749   2.732   2.890   0.056
 6433SOL     OW19750   2.938   2.848  13.123
 6433SOL    HW119751   2.917   2.901  13.046
 6433SOL    HW219752   3.012   2.794  13.096
 6434SOL     OW19753   1.955   3.090  13.698
 6434SOL    HW119754   1.953   3.033  13.776
 6434SOL    HW219755   2.022   3.050  13.642
 6435SOL     OW19756   2.276   2.298  13.555
 6435SOL    HW119757   2.323   2.234  13.502
 6435SOL    HW219758   2.316   2.291  13.642
 6436SOL     OW19759   3.543   3.318   0.354
 6436SOL    HW119760   3.511   3.292   0.268
 6436SOL    HW219761   3.633   3.286   0.357
 6437SOL     OW19762   2.678   3.409  13.704
 6437SOL    HW119763   2.646   3.459  13.629
 6437SOL    HW219764   2.605   3.351  13.726
 6438SOL     OW19765   2.635   3.196  13.351
 6438SOL    HW119766   2.607   3.105  13.358
 6438SOL    HW219767   2.716   3.201  13.401
 6439SOL     OW19768   3.219   1.913  13.203
 6439SOL    HW119769   3.252   1.843  13.148
 6439SOL    HW219770   3.130   1.887  13.225
 6440SOL     OW19771   3.167   2.323  13.709
 6440SOL    HW119772   3.113   2.402  13.715
 6440SOL    HW219773   3.149   2.277  13.791
 6441SOL     OW19774   1.906   2.929  13.341
 6441SOL    HW119775   2.000   2.920  13.322
 6441SOL    HW219776   1.877   2.840  13.361
 6442SOL     OW19777   2.751   3.524  13.376
 6442SOL    HW119778   2.678   3.507  13.316
 6442SOL    HW219779   2.721   3.597  13.430
 6443SOL     OW19780   2.094   3.981   0.981
 6443SOL    HW119781   2.117   3.961   1.071
 6443SOL    HW219782   2.002   3.953   0.973
 6444SOL     OW19783   1.875   0.063   0.714
 6444SOL    HW119784   1.797   0.098   0.671
 6444SOL    HW219785   1.923   0.017   0.645
 6445SOL     OW19786   3.659   0.360   0.258
 6445SOL    HW119787   3.638   0.301   0.185
 6445SOL    HW219788   3.577   0.365   0.308
 6446SOL     OW19789   2.304   0.093   1.504
 6446SOL    HW119790   2.373   0.046   1.458
 6446SOL    HW219791   2.225   0.042   1.486
 6447SOL     OW19792   3.455   3.852   1.457
 6447SOL    HW119793   3.462   3.939   1.418
 6447SOL    HW219794   3.440   3.869   1.550
 6448SOL     OW19795   2.671   3.728   0.510
 6448SOL    HW119796   2.697   3.819   0.500
 6448SOL    HW219797   2.576   3.731   0.519
 6449SOL     OW19798   3.129   0.062   0.933
 6449SOL    HW119799   3.054   0.010   0.905
 6449SOL    HW219800   3.183   0.001   0.984
 6450SOL     OW19801   2.416   3.903   0.893
 6450SOL    HW119802   2.411   3.923   0.987
 6450SOL    HW219803   2.412   3.988   0.850
 6451SOL     OW19804   2.055   3.980   1.488
 6451SOL    HW119805   2.000   0.057   1.506
 6451SOL    HW219806   2.014   3.910   1.538
 6452SOL     OW19807   3.270   3.835   0.435
 6452SOL    HW119808   3.265   3.797   0.347
 6452SOL    HW219809   3.360   3.819   0.462
 6453SOL     OW19810   3.398   3.936   1.723
 6453SOL    HW119811   3.423   3.938   1.815
 6453SOL    HW219812   3.327   3.873   1.718
 6454SOL     OW19813   2.634   3.954   1.741
 6454SOL    HW119814   2.684   3.925   1.817
 6454SOL    HW219815   2.547   3.974   1.776
 6455SOL     OW19816   2.399   3.780   0.520
 6455SOL    HW119817   2.351   3.779   0.602
 6455SOL    HW219818   2.406   3.873   0.498
 6456SOL     OW19819   2.133   3.746   0.209
 6456SOL    HW119820   2.167   3.834   0.190
 6456SOL    HW219821   2.210   3.696   0.236
 6457SOL     OW19822   2.419   3.944   1.171
 6457SOL    HW119823   2.462   3.876   1.223
 6457SOL    HW219824   2.327   3.938   1.196
 6458SOL     OW19825   2.883   3.766   0.727
 6458SOL    HW119826   2.817   3.754   0.659
 6458SOL    HW219827   2.860   3.702   0.795
 6459SOL     OW19828   2.786   3.801   1.395
 6459SOL    HW119829   2.815   3.779   1.306
 6459SOL    HW219830   2.860   3.847   1.434
 6460SOL     OW19831   3.129   0.072   1.266
 6460SOL    HW119832   3.135   0.142   1.331
 6460SOL    HW219833   3.059   0.100   1.207
 6461SOL     OW19834   2.372   3.750   1.758
 6461SOL    HW119835   2.314   3.705   1.697
 6461SOL    HW219836   2.346   3.842   1.754
 6462SOL     OW19837   2.156   3.918   1.249
 6462SOL    HW119838   2.112   3.937   1.332
 6462SOL    HW219839   2.144   3.824   1.236
 6463SOL     OW19840   3.462   3.931   0.160
 6463SOL    HW119841   3.382   3.880   0.155
 6463SOL    HW219842   3.436   0.015   0.195
 6464SOL     OW19843   3.025   3.918   1.473
 6464SOL    HW119844   3.026   3.994   1.532
 6464SOL    HW219845   3.069   3.949   1.394
 6465SOL     OW19846   2.785   3.824   0.147
 6465SOL    HW119847   2.815   3.817   0.056
 6465SOL    HW219848   2.847   3.770   0.197
 6466SOL     OW19849   3.591   3.863   0.538
 6466SOL    HW119850   3.657   3.849   0.470
 6466SOL    HW219851   3.568   3.775   0.568
 6467SOL     OW19852   3.699   3.895   0.961
 6467SOL    HW119853   3.731   3.807   0.939
 6467SOL    HW219854   3.612   3.900   0.920
 6468SOL     OW19855   2.541   3.907   1.486
 6468SOL    HW119856   2.624   3.895   1.441
 6468SOL    HW219857   2.565   3.930   1.576
 6469SOL     OW19858   1.922   3.854   0.342
 6469SOL    HW119859   1.911   3.940   0.303
 6469SOL    HW219860   2.001   3.819   0.301
 6470SOL     OW19861   3.053   0.009   0.466
 6470SOL    HW119862   3.114   3.935   0.470
 6470SOL    HW219863   3.074   0.061   0.543
 6471SOL     OW19864   3.647   0.046   1.625
 6471SOL    HW119865   3.600   0.083   1.550
 6471SOL    HW219866   3.580   3.997   1.673
 6472SOL     OW19867   3.676   3.909   1.234
 6472SOL    HW119868   3.662   3.817   1.257
 6472SOL    HW219869   3.687   3.908   1.139
 6473SOL     OW19870   3.300   3.930   1.116
 6473SOL    HW119871   3.326   3.847   1.155
 6473SOL    HW219872   3.244   3.971   1.181
 6474SOL     OW19873   2.880   3.737   1.145
 6474SOL    HW119874   2.822   3.683   1.091
 6474SOL    HW219875   2.965   3.693   1.141
 6475SOL     OW19876   3.218   3.783   0.151
 6475SOL    HW119877   3.259   3.711   0.104
 6475SOL    HW219878   3.134   3.748   0.181
 6476SOL     OW19879   3.147   0.163   0.677
 6476SOL    HW119880   3.145   0.258   0.685
 6476SOL    HW219881   3.148   0.131   0.767
 6477SOL     OW19882   3.441   3.929   0.882
 6477SOL    HW119883   3.390   3.931   0.963
 6477SOL    HW219884   3.437   0.019   0.849
 6478SOL     OW19885   2.095   3.979   2.841
 6478SOL    HW119886   2.118   3.961   2.932
 6478SOL    HW219887   2.003   3.953   2.834
 6479SOL     OW19888   1.873   0.060   2.579
 6479SOL    HW119889   1.801   0.102   2.533
 6479SOL    HW219890   1.922   0.014   2.511
 6480SOL     OW19891   3.631   0.316   2.041
 6480SOL    HW119892   3.554   0.299   1.986
 6480SOL    HW219893   3.594   0.343   2.126
 6481SOL     OW19894   2.304   0.093   3.366
 6481SOL    HW119895   2.373   0.046   3.320
 6481SOL    HW219896   2.225   0.042   3.348
 6482SOL     OW19897   3.455   3.852   3.319
 6482SOL    HW119898   3.462   3.939   3.280
 6482SOL    HW219899   3.440   3.869   3.412
 6483SOL     OW19900   2.670   3.731   2.371
 6483SOL    HW119901   2.695   3.823   2.364
 6483SOL    HW219902   2.575   3.733   2.378
 6484SOL     OW19903   3.128   0.062   2.799
 6484SOL    HW119904   3.054   0.010   2.768
 6484SOL    HW219905   3.183   0.000   2.847
 6485SOL     OW19906   2.416   3.904   2.755
 6485SOL    HW119907   2.411   3.922   2.849
 6485SOL    HW219908   2.412   3.990   2.713
 6486SOL     OW19909   2.055   3.980   3.350
 6486SOL    HW119910   2.000   0.057   3.367
 6486SOL    HW219911   2.014   3.910   3.400
 6487SOL     OW19912   3.268   3.828   2.297
 6487SOL    HW119913   3.260   3.797   2.207
 6487SOL    HW219914   3.360   3.815   2.319
 6488SOL     OW19915   3.398   3.936   3.584
 6488SOL    HW119916   3.423   3.938   3.677
 6488SOL    HW219917   3.327   3.873   3.580
 6489SOL     OW19918   2.492   3.847   1.993
 6489SOL    HW119919   2.583   3.818   1.989
 6489SOL    HW219920   2.449   3.800   1.922
 6490SOL     OW19921   2.634   3.954   3.603
 6490SOL    HW119922   2.684   3.925   3.679
 6490SOL    HW219923   2.547   3.974   3.638
 6491SOL     OW19924   2.399   3.783   2.380
 6491SOL    HW119925   2.352   3.785   2.464
 6491SOL    HW219926   2.405   3.875   2.354
 6492SOL     OW19927   2.146   3.763   2.043
 6492SOL    HW119928   2.185   3.851   2.039
 6492SOL    HW219929   2.214   3.708   2.081
 6493SOL     OW19930   2.419   3.944   3.033
 6493SOL    HW119931   2.462   3.876   3.085
 6493SOL    HW219932   2.327   3.938   3.058
 6494SOL     OW19933   2.883   3.765   2.589
 6494SOL    HW119934   2.817   3.752   2.521
 6494SOL    HW219935   2.860   3.702   2.657
 6495SOL     OW19936   2.786   3.801   3.257
 6495SOL    HW119937   2.815   3.780   3.168
 6495SOL    HW219938   2.860   3.848   3.296
 6496SOL     OW19939   3.129   0.072   3.128
 6496SOL    HW119940   3.134   0.142   3.193
 6496SOL    HW219941   3.061   0.100   3.068
 6497SOL     OW19942   2.372   3.750   3.620
 6497SOL    HW119943   2.314   3.705   3.559
 6497SOL    HW219944   2.346   3.842   3.616
 6498SOL     OW19945   2.156   3.919   3.110
 6498SOL    HW119946   2.111   3.937   3.193
 6498SOL    HW219947   2.144   3.824   3.098
 6499SOL     OW19948   3.444   3.952   1.984
 6499SOL    HW119949   3.379   3.895   2.025
 6499SOL    HW219950   3.459   0.021   2.048
 6500SOL     OW19951   3.025   3.918   3.335
 6500SOL    HW119952   3.026   3.993   3.394
 6500SOL    HW219953   3.069   3.949   3.256
 6501SOL     OW19954   2.763   3.810   1.960
 6501SOL    HW119955   2.820   3.764   1.897
 6501SOL    HW219956   2.807   3.799   2.044
 6502SOL     OW19957   3.595   3.859   2.391
 6502SOL    HW119958   3.662   3.845   2.324
 6502SOL    HW219959   3.571   3.771   2.421
 6503SOL     OW19960   3.698   3.895   2.825
 6503SOL    HW119961   3.731   3.808   2.802
 6503SOL    HW219962   3.612   3.900   2.783
 6504SOL     OW19963   2.541   3.907   3.348
 6504SOL    HW119964   2.624   3.895   3.303
 6504SOL    HW219965   2.565   3.930   3.438
 6505SOL     OW19966   1.905   0.053   1.896
 6505SOL    HW119967   1.870   0.026   1.811
 6505SOL    HW219968   1.933   0.143   1.883
 6506SOL     OW19969   1.919   3.862   2.168
 6506SOL    HW119970   1.910   3.952   2.137
 6506SOL    HW219971   2.000   3.831   2.127
 6507SOL     OW19972   3.062   0.014   2.322
 6507SOL    HW119973   3.124   3.941   2.327
 6507SOL    HW219974   3.079   0.065   2.401
 6508SOL     OW19975   3.647   0.046   3.487
 6508SOL    HW119976   3.600   0.083   3.412
 6508SOL    HW219977   3.580   3.997   3.535
 6509SOL     OW19978   3.676   3.909   3.096
 6509SOL    HW119979   3.662   3.817   3.119
 6509SOL    HW219980   3.687   3.909   3.001
 6510SOL     OW19981   3.301   3.930   2.979
 6510SOL    HW119982   3.326   3.847   3.019
 6510SOL    HW219983   3.244   3.971   3.043
 6511SOL     OW19984   2.880   3.737   3.007
 6511SOL    HW119985   2.822   3.683   2.954
 6511SOL    HW219986   2.965   3.693   3.002
 6512SOL     OW19987   3.219   3.770   2.024
 6512SOL    HW119988   3.255   3.699   1.972
 6512SOL    HW219989   3.131   3.741   2.047
 6513SOL     OW19990   3.143   0.162   2.543
 6513SOL    HW119991   3.148   0.257   2.547
 6513SOL    HW219992   3.146   0.133   2.634
 6514SOL     OW19993   3.440   3.928   2.743
 6514SOL    HW119994   3.391   3.931   2.825
 6514SOL    HW219995   3.437   0.018   2.711
 6515SOL     OW19996   2.095   3.979   4.703
 6515SOL    HW119997   2.118   3.961   4.794
 6515SOL    HW219998   2.003   3.953   4.696
 6516SOL     OW19999   1.873   0.060   4.441
 6516SOL    HW120000   1.801   0.102   4.395
 6516SOL    HW220001   1.922   0.014   4.373
 6517SOL     OW20002   3.631   0.316   3.903
 6517SOL    HW120003   3.554   0.299   3.848
 6517SOL    HW220004   3.594   0.343   3.987
 6518SOL     OW20005   2.304   0.093   5.228
 6518SOL    HW120006   2.373   0.046   5.182
 6518SOL    HW220007   2.225   0.042   5.210
 6519SOL     OW20008   3.455   3.852   5.181
 6519SOL    HW120009   3.462   3.939   5.142
 6519SOL    HW220010   3.440   3.869   5.274
 6520SOL     OW20011   2.670   3.731   4.233
 6520SOL    HW120012   2.695   3.823   4.226
 6520SOL    HW220013   2.575   3.733   4.240
 6521SOL     OW20014   3.128   0.062   4.661
 6521SOL    HW120015   3.054   0.010   4.630
 6521SOL    HW220016   3.183   0.000   4.709
 6522SOL     OW20017   2.416   3.904   4.617
 6522SOL    HW120018   2.411   3.922   4.711
 6522SOL    HW220019   2.412   3.990   4.575
 6523SOL     OW20020   2.055   3.980   5.212
 6523SOL    HW120021   2.000   0.057   5.229
 6523SOL    HW220022   2.014   3.910   5.263
 6524SOL     OW20023   3.268   3.828   4.159
 6524SOL    HW120024   3.260   3.797   4.069
 6524SOL    HW220025   3.360   3.815   4.181
 6525SOL     OW20026   3.398   3.936   5.446
 6525SOL    HW120027   3.423   3.938   5.539
 6525SOL    HW220028   3.327   3.873   5.442
 6526SOL     OW20029   2.492   3.847   3.855
 6526SOL    HW120030   2.583   3.818   3.851
 6526SOL    HW220031   2.449   3.800   3.784
 6527SOL     OW20032   2.634   3.954   5.465
 6527SOL    HW120033   2.684   3.925   5.541
 6527SOL    HW220034   2.547   3.974   5.500
 6528SOL     OW20035   2.399   3.783   4.242
 6528SOL    HW120036   2.352   3.785   4.326
 6528SOL    HW220037   2.405   3.875   4.216
 6529SOL     OW20038   2.146   3.764   3.905
 6529SOL    HW120039   2.185   3.851   3.901
 6529SOL    HW220040   2.214   3.708   3.943
 6530SOL     OW20041   2.419   3.944   4.895
 6530SOL    HW120042   2.462   3.876   4.947
 6530SOL    HW220043   2.327   3.938   4.920
 6531SOL     OW20044   2.883   3.765   4.451
 6531SOL    HW120045   2.817   3.752   4.383
 6531SOL    HW220046   2.860   3.702   4.519
 6532SOL     OW20047   2.786   3.801   5.119
 6532SOL    HW120048   2.815   3.779   5.030
 6532SOL    HW220049   2.860   3.847   5.158
 6533SOL     OW20050   3.129   0.072   4.990
 6533SOL    HW120051   3.135   0.142   5.055
 6533SOL    HW220052   3.061   0.100   4.930
 6534SOL     OW20053   2.372   3.750   5.482
 6534SOL    HW120054   2.314   3.705   5.421
 6534SOL    HW220055   2.346   3.842   5.478
 6535SOL     OW20056   2.156   3.919   4.973
 6535SOL    HW120057   2.111   3.937   5.055
 6535SOL    HW220058   2.144   3.824   4.960
 6536SOL     OW20059   3.444   3.952   3.846
 6536SOL    HW120060   3.379   3.895   3.887
 6536SOL    HW220061   3.459   0.021   3.910
 6537SOL     OW20062   3.025   3.918   5.197
 6537SOL    HW120063   3.026   3.994   5.256
 6537SOL    HW220064   3.069   3.949   5.118
 6538SOL     OW20065   2.763   3.810   3.822
 6538SOL    HW120066   2.820   3.764   3.759
 6538SOL    HW220067   2.807   3.799   3.906
 6539SOL     OW20068   3.595   3.859   4.253
 6539SOL    HW120069   3.662   3.845   4.186
 6539SOL    HW220070   3.571   3.771   4.283
 6540SOL     OW20071   3.698   3.895   4.687
 6540SOL    HW120072   3.731   3.808   4.664
 6540SOL    HW220073   3.612   3.900   4.645
 6541SOL     OW20074   2.541   3.907   5.210
 6541SOL    HW120075   2.624   3.895   5.165
 6541SOL    HW220076   2.565   3.930   5.300
 6542SOL     OW20077   1.905   0.053   3.758
 6542SOL    HW120078   1.870   0.026   3.673
 6542SOL    HW220079   1.933   0.143   3.745
 6543SOL     OW20080   1.919   3.862   4.030
 6543SOL    HW120081   1.910   3.952   3.999
 6543SOL    HW220082   2.000   3.831   3.989
 6544SOL     OW20083   3.062   0.014   4.184
 6544SOL    HW120084   3.124   3.941   4.189
 6544SOL    HW220085   3.079   0.065   4.263
 6545SOL     OW20086   3.647   0.046   5.349
 6545SOL    HW120087   3.600   0.083   5.274
 6545SOL    HW220088   3.580   3.997   5.397
 6546SOL     OW20089   3.675   3.909   4.958
 6546SOL    HW120090   3.662   3.817   4.981
 6546SOL    HW220091   3.686   3.909   4.863
 6547SOL     OW20092   3.301   3.930   4.841
 6547SOL    HW120093   3.327   3.847   4.881
 6547SOL    HW220094   3.244   3.971   4.905
 6548SOL     OW20095   2.880   3.737   4.869
 6548SOL    HW120096   2.822   3.683   4.816
 6548SOL    HW220097   2.965   3.693   4.864
 6549SOL     OW20098   3.219   3.770   3.886
 6549SOL    HW120099   3.255   3.699   3.834
 6549SOL    HW220100   3.131   3.741   3.909
 6550SOL     OW20101   3.143   0.162   4.405
 6550SOL    HW120102   3.148   0.257   4.409
 6550SOL    HW220103   3.146   0.133   4.496
 6551SOL     OW20104   3.440   3.928   4.605
 6551SOL    HW120105   3.391   3.931   4.687
 6551SOL    HW220106   3.437   0.018   4.573
 6552SOL     OW20107   2.095   3.979   6.565
 6552SOL    HW120108   2.118   3.961   6.656
 6552SOL    HW220109   2.003   3.953   6.558
 6553SOL     OW20110   1.873   0.060   6.303
 6553SOL    HW120111   1.801   0.103   6.257
 6553SOL    HW220112   1.921   0.013   6.235
 6554SOL     OW20113   3.631   0.316   5.765
 6554SOL    HW120114   3.554   0.299   5.710
 6554SOL    HW220115   3.593   0.343   5.850
 6555SOL     OW20116   2.304   0.093   7.090
 6555SOL    HW120117   2.373   0.045   7.044
 6555SOL    HW220118   2.224   0.043   7.073
 6556SOL     OW20119   3.455   3.852   7.043
 6556SOL    HW120120   3.462   3.939   7.004
 6556SOL    HW220121   3.440   3.869   7.136
 6557SOL     OW20122   2.670   3.731   6.094
 6557SOL    HW120123   2.695   3.823   6.088
 6557SOL    HW220124   2.575   3.733   6.102
 6558SOL     OW20125   3.128   0.062   6.523
 6558SOL    HW120126   3.054   0.009   6.492
 6558SOL    HW220127   3.183   0.001   6.571
 6559SOL     OW20128   2.416   3.904   6.479
 6559SOL    HW120129   2.411   3.922   6.573
 6559SOL    HW220130   2.412   3.990   6.437
 6560SOL     OW20131   2.055   3.979   7.075
 6560SOL    HW120132   1.997   0.053   7.093
 6560SOL    HW220133   2.016   3.906   7.123
 6561SOL     OW20134   3.268   3.828   6.021
 6561SOL    HW120135   3.260   3.797   5.931
 6561SOL    HW220136   3.360   3.815   6.043
 6562SOL     OW20137   3.398   3.936   7.309
 6562SOL    HW120138   3.423   3.938   7.401
 6562SOL    HW220139   3.327   3.873   7.304
 6563SOL     OW20140   2.492   3.847   5.717
 6563SOL    HW120141   2.583   3.819   5.713
 6563SOL    HW220142   2.449   3.800   5.646
 6564SOL     OW20143   2.634   3.954   7.327
 6564SOL    HW120144   2.684   3.925   7.403
 6564SOL    HW220145   2.547   3.974   7.362
 6565SOL     OW20146   2.398   3.783   6.104
 6565SOL    HW120147   2.353   3.785   6.188
 6565SOL    HW220148   2.404   3.875   6.078
 6566SOL     OW20149   2.146   3.764   5.767
 6566SOL    HW120150   2.185   3.851   5.764
 6566SOL    HW220151   2.214   3.708   5.805
 6567SOL     OW20152   2.419   3.944   6.756
 6567SOL    HW120153   2.462   3.876   6.808
 6567SOL    HW220154   2.327   3.938   6.782
 6568SOL     OW20155   2.883   3.765   6.313
 6568SOL    HW120156   2.817   3.752   6.245
 6568SOL    HW220157   2.860   3.702   6.381
 6569SOL     OW20158   2.786   3.801   6.981
 6569SOL    HW120159   2.815   3.780   6.892
 6569SOL    HW220160   2.860   3.847   7.020
 6570SOL     OW20161   3.130   0.071   6.852
 6570SOL    HW120162   3.134   0.142   6.917
 6570SOL    HW220163   3.061   0.099   6.792
 6571SOL     OW20164   2.372   3.750   7.344
 6571SOL    HW120165   2.314   3.705   7.283
 6571SOL    HW220166   2.346   3.842   7.340
 6572SOL     OW20167   2.156   3.919   6.835
 6572SOL    HW120168   2.112   3.937   6.917
 6572SOL    HW220169   2.144   3.825   6.822
 6573SOL     OW20170   3.444   3.952   5.708
 6573SOL    HW120171   3.379   3.895   5.749
 6573SOL    HW220172   3.460   0.021   5.772
 6574SOL     OW20173   3.024   3.918   7.059
 6574SOL    HW120174   3.026   3.993   7.118
 6574SOL    HW220175   3.069   3.949   6.980
 6575SOL     OW20176   2.763   3.810   5.684
 6575SOL    HW120177   2.820   3.764   5.622
 6575SOL    HW220178   2.807   3.799   5.768
 6576SOL     OW20179   3.595   3.859   6.115
 6576SOL    HW120180   3.662   3.845   6.048
 6576SOL    HW220181   3.571   3.771   6.145
 6577SOL     OW20182   3.698   3.895   6.549
 6577SOL    HW120183   3.731   3.808   6.526
 6577SOL    HW220184   3.612   3.900   6.507
 6578SOL     OW20185   2.541   3.907   7.072
 6578SOL    HW120186   2.624   3.895   7.027
 6578SOL    HW220187   2.565   3.930   7.162
 6579SOL     OW20188   1.906   0.053   5.620
 6579SOL    HW120189   1.871   0.026   5.535
 6579SOL    HW220190   1.934   0.143   5.607
 6580SOL     OW20191   1.920   3.862   5.892
 6580SOL    HW120192   1.910   3.952   5.861
 6580SOL    HW220193   2.000   3.831   5.851
 6581SOL     OW20194   3.062   0.014   6.046
 6581SOL    HW120195   3.124   3.941   6.051
 6581SOL    HW220196   3.079   0.065   6.125
 6582SOL     OW20197   3.647   0.046   7.212
 6582SOL    HW120198   3.600   0.082   7.136
 6582SOL    HW220199   3.580   3.997   7.259
 6583SOL     OW20200   3.675   3.909   6.821
 6583SOL    HW120201   3.662   3.817   6.843
 6583SOL    HW220202   3.687   3.909   6.725
 6584SOL     OW20203   3.301   3.930   6.702
 6584SOL    HW120204   3.326   3.847   6.742
 6584SOL    HW220205   3.244   3.971   6.767
 6585SOL     OW20206   2.880   3.737   6.731
 6585SOL    HW120207   2.822   3.683   6.678
 6585SOL    HW220208   2.965   3.693   6.727
 6586SOL     OW20209   3.219   3.770   5.748
 6586SOL    HW120210   3.255   3.699   5.696
 6586SOL    HW220211   3.131   3.741   5.771
 6587SOL     OW20212   3.143   0.162   6.267
 6587SOL    HW120213   3.148   0.257   6.271
 6587SOL    HW220214   3.146   0.133   6.358
 6588SOL     OW20215   3.441   3.928   6.467
 6588SOL    HW120216   3.391   3.931   6.549
 6588SOL    HW220217   3.437   0.018   6.435
 6589SOL     OW20218   2.095   3.979   8.427
 6589SOL    HW120219   2.118   3.961   8.518
 6589SOL    HW220220   2.003   3.953   8.420
 6590SOL     OW20221   1.873   0.060   8.165
 6590SOL    HW120222   1.801   0.102   8.119
 6590SOL    HW220223   1.922   0.014   8.097
 6591SOL     OW20224   3.630   0.316   7.627
 6591SOL    HW120225   3.554   0.299   7.572
 6591SOL    HW220226   3.593   0.343   7.712
 6592SOL     OW20227   2.304   0.093   8.952
 6592SOL    HW120228   2.373   0.046   8.906
 6592SOL    HW220229   2.225   0.042   8.934
 6593SOL     OW20230   3.455   3.852   8.905
 6593SOL    HW120231   3.462   3.939   8.866
 6593SOL    HW220232   3.440   3.869   8.998
 6594SOL     OW20233   2.670   3.731   7.957
 6594SOL    HW120234   2.695   3.823   7.950
 6594SOL    HW220235   2.575   3.733   7.964
 6595SOL     OW20236   3.128   0.062   8.385
 6595SOL    HW120237   3.054   0.009   8.354
 6595SOL    HW220238   3.183   0.000   8.433
 6596SOL     OW20239   2.416   3.904   8.341
 6596SOL    HW120240   2.411   3.922   8.435
 6596SOL    HW220241   2.412   3.990   8.299
 6597SOL     OW20242   2.055   3.980   8.936
 6597SOL    HW120243   2.000   0.057   8.953
 6597SOL    HW220244   2.014   3.910   8.986
 6598SOL     OW20245   3.268   3.828   7.883
 6598SOL    HW120246   3.260   3.797   7.793
 6598SOL    HW220247   3.360   3.814   7.905
 6599SOL     OW20248   3.398   3.936   9.171
 6599SOL    HW120249   3.423   3.938   9.263
 6599SOL    HW220250   3.327   3.873   9.166
 6600SOL     OW20251   2.492   3.847   7.579
 6600SOL    HW120252   2.583   3.818   7.575
 6600SOL    HW220253   2.449   3.800   7.508
 6601SOL     OW20254   2.634   3.954   9.189
 6601SOL    HW120255   2.684   3.925   9.265
 6601SOL    HW220256   2.547   3.975   9.224
 6602SOL     OW20257   2.399   3.783   7.966
 6602SOL    HW120258   2.352   3.785   8.050
 6602SOL    HW220259   2.405   3.875   7.940
 6603SOL     OW20260   2.146   3.763   7.629
 6603SOL    HW120261   2.185   3.851   7.625
 6603SOL    HW220262   2.213   3.708   7.667
 6604SOL     OW20263   2.419   3.944   8.619
 6604SOL    HW120264   2.462   3.876   8.671
 6604SOL    HW220265   2.327   3.938   8.644
 6605SOL     OW20266   2.883   3.765   8.175
 6605SOL    HW120267   2.817   3.752   8.107
 6605SOL    HW220268   2.860   3.702   8.243
 6606SOL     OW20269   2.786   3.801   8.843
 6606SOL    HW120270   2.815   3.780   8.754
 6606SOL    HW220271   2.860   3.848   8.882
 6607SOL     OW20272   3.129   0.072   8.714
 6607SOL    HW120273   3.134   0.142   8.779
 6607SOL    HW220274   3.061   0.099   8.654
 6608SOL     OW20275   2.372   3.750   9.206
 6608SOL    HW120276   2.314   3.705   9.145
 6608SOL    HW220277   2.346   3.842   9.202
 6609SOL     OW20278   2.156   3.919   8.696
 6609SOL    HW120279   2.111   3.937   8.779
 6609SOL    HW220280   2.144   3.824   8.684
 6610SOL     OW20281   3.444   3.952   7.570
 6610SOL    HW120282   3.379   3.895   7.611
 6610SOL    HW220283   3.459   0.021   7.634
 6611SOL     OW20284   3.025   3.918   8.921
 6611SOL    HW120285   3.026   3.994   8.980
 6611SOL    HW220286   3.069   3.949   8.842
 6612SOL     OW20287   2.763   3.810   7.546
 6612SOL    HW120288   2.820   3.764   7.483
 6612SOL    HW220289   2.807   3.799   7.630
 6613SOL     OW20290   3.595   3.859   7.977
 6613SOL    HW120291   3.662   3.845   7.910
 6613SOL    HW220292   3.571   3.771   8.007
 6614SOL     OW20293   3.698   3.895   8.411
 6614SOL    HW120294   3.731   3.808   8.388
 6614SOL    HW220295   3.612   3.900   8.369
 6615SOL     OW20296   2.541   3.907   8.934
 6615SOL    HW120297   2.624   3.895   8.889
 6615SOL    HW220298   2.565   3.930   9.024
 6616SOL     OW20299   1.905   0.053   7.482
 6616SOL    HW120300   1.871   0.026   7.397
 6616SOL    HW220301   1.933   0.143   7.469
 6617SOL     OW20302   1.919   3.862   7.754
 6617SOL    HW120303   1.910   3.952   7.722
 6617SOL    HW220304   2.000   3.831   7.713
 6618SOL     OW20305   3.062   0.014   7.908
 6618SOL    HW120306   3.124   3.941   7.913
 6618SOL    HW220307   3.079   0.065   7.987
 6619SOL     OW20308   3.647   0.046   9.073
 6619SOL    HW120309   3.600   0.083   8.998
 6619SOL    HW220310   3.580   3.997   9.121
 6620SOL     OW20311   3.676   3.909   8.683
 6620SOL    HW120312   3.662   3.817   8.705
 6620SOL    HW220313   3.687   3.909   8.587
 6621SOL     OW20314   3.301   3.930   8.565
 6621SOL    HW120315   3.326   3.847   8.605
 6621SOL    HW220316   3.244   3.971   8.629
 6622SOL     OW20317   2.880   3.737   8.593
 6622SOL    HW120318   2.822   3.683   8.540
 6622SOL    HW220319   2.965   3.693   8.588
 6623SOL     OW20320   3.219   3.770   7.610
 6623SOL    HW120321   3.255   3.699   7.558
 6623SOL    HW220322   3.131   3.741   7.633
 6624SOL     OW20323   3.143   0.162   8.129
 6624SOL    HW120324   3.148   0.257   8.133
 6624SOL    HW220325   3.146   0.133   8.220
 6625SOL     OW20326   3.440   3.928   8.329
 6625SOL    HW120327   3.391   3.931   8.411
 6625SOL    HW220328   3.437   0.018   8.297
 6626SOL     OW20329   2.095   3.979  10.289
 6626SOL    HW120330   2.118   3.961  10.380
 6626SOL    HW220331   2.003   3.953  10.282
 6627SOL     OW20332   1.873   0.060  10.027
 6627SOL    HW120333   1.801   0.102   9.981
 6627SOL    HW220334   1.922   0.015   9.959
 6628SOL     OW20335   3.631   0.316   9.489
 6628SOL    HW120336   3.554   0.299   9.434
 6628SOL    HW220337   3.594   0.343   9.573
 6629SOL     OW20338   2.304   0.093  10.814
 6629SOL    HW120339   2.374   0.047  10.768
 6629SOL    HW220340   2.225   0.042  10.796
 6630SOL     OW20341   3.455   3.852  10.767
 6630SOL    HW120342   3.462   3.939  10.728
 6630SOL    HW220343   3.440   3.869  10.860
 6631SOL     OW20344   2.670   3.731   9.819
 6631SOL    HW120345   2.695   3.823   9.812
 6631SOL    HW220346   2.575   3.733   9.826
 6632SOL     OW20347   3.128   0.062  10.247
 6632SOL    HW120348   3.054   0.010  10.216
 6632SOL    HW220349   3.183   0.000  10.295
 6633SOL     OW20350   2.416   3.904  10.203
 6633SOL    HW120351   2.411   3.922  10.297
 6633SOL    HW220352   2.412   3.990  10.161
 6634SOL     OW20353   2.054   3.981  10.798
 6634SOL    HW120354   2.001   0.058  10.815
 6634SOL    HW220355   2.013   3.911  10.849
 6635SOL     OW20356   3.268   3.828   9.745
 6635SOL    HW120357   3.260   3.797   9.655
 6635SOL    HW220358   3.360   3.815   9.767
 6636SOL     OW20359   3.399   3.936  11.033
 6636SOL    HW120360   3.423   3.938  11.125
 6636SOL    HW220361   3.327   3.873  11.028
 6637SOL     OW20362   2.492   3.847   9.441
 6637SOL    HW120363   2.583   3.818   9.437
 6637SOL    HW220364   2.449   3.800   9.370
 6638SOL     OW20365   2.634   3.954  11.051
 6638SOL    HW120366   2.684   3.925  11.127
 6638SOL    HW220367   2.547   3.975  11.086
 6639SOL     OW20368   2.399   3.783   9.828
 6639SOL    HW120369   2.352   3.785   9.912
 6639SOL    HW220370   2.405   3.875   9.802
 6640SOL     OW20371   2.146   3.763   9.491
 6640SOL    HW120372   2.185   3.851   9.487
 6640SOL    HW220373   2.214   3.708   9.529
 6641SOL     OW20374   2.419   3.944  10.481
 6641SOL    HW120375   2.462   3.876  10.533
 6641SOL    HW220376   2.327   3.938  10.506
 6642SOL     OW20377   2.883   3.765  10.037
 6642SOL    HW120378   2.817   3.752   9.969
 6642SOL    HW220379   2.860   3.702  10.105
 6643SOL     OW20380   2.786   3.801  10.705
 6643SOL    HW120381   2.815   3.780  10.616
 6643SOL    HW220382   2.860   3.848  10.744
 6644SOL     OW20383   3.129   0.072  10.576
 6644SOL    HW120384   3.134   0.142  10.641
 6644SOL    HW220385   3.061   0.100  10.516
 6645SOL     OW20386   2.372   3.750  11.068
 6645SOL    HW120387   2.314   3.705  11.007
 6645SOL    HW220388   2.346   3.842  11.064
 6646SOL     OW20389   2.156   3.919  10.558
 6646SOL    HW120390   2.111   3.937  10.641
 6646SOL    HW220391   2.144   3.824  10.546
 6647SOL     OW20392   3.444   3.951   9.432
 6647SOL    HW120393   3.379   3.895   9.473
 6647SOL    HW220394   3.459   0.022   9.496
 6648SOL     OW20395   3.025   3.918  10.783
 6648SOL    HW120396   3.026   3.994  10.842
 6648SOL    HW220397   3.069   3.949  10.704
 6649SOL     OW20398   2.763   3.810   9.408
 6649SOL    HW120399   2.820   3.764   9.345
 6649SOL    HW220400   2.807   3.799   9.492
 6650SOL     OW20401   3.595   3.859   9.839
 6650SOL    HW120402   3.662   3.845   9.772
 6650SOL    HW220403   3.571   3.771   9.869
 6651SOL     OW20404   3.698   3.895  10.273
 6651SOL    HW120405   3.731   3.808  10.250
 6651SOL    HW220406   3.612   3.900  10.231
 6652SOL     OW20407   2.541   3.907  10.796
 6652SOL    HW120408   2.624   3.895  10.751
 6652SOL    HW220409   2.565   3.930  10.886
 6653SOL     OW20410   1.905   0.053   9.344
 6653SOL    HW120411   1.870   0.026   9.259
 6653SOL    HW220412   1.933   0.143   9.331
 6654SOL     OW20413   1.919   3.862   9.616
 6654SOL    HW120414   1.910   3.952   9.585
 6654SOL    HW220415   2.000   3.831   9.575
 6655SOL     OW20416   3.062   0.014   9.770
 6655SOL    HW120417   3.125   3.941   9.775
 6655SOL    HW220418   3.079   0.065   9.849
 6656SOL     OW20419   3.647   0.046  10.935
 6656SOL    HW120420   3.600   0.083  10.860
 6656SOL    HW220421   3.580   3.997  10.983
 6657SOL     OW20422   3.676   3.909  10.545
 6657SOL    HW120423   3.662   3.817  10.567
 6657SOL    HW220424   3.687   3.909  10.449
 6658SOL     OW20425   3.301   3.930  10.427
 6658SOL    HW120426   3.326   3.847  10.467
 6658SOL    HW220427   3.244   3.971  10.491
 6659SOL     OW20428   2.880   3.737  10.455
 6659SOL    HW120429   2.822   3.683  10.402
 6659SOL    HW220430   2.965   3.693  10.450
 6660SOL     OW20431   3.219   3.770   9.472
 6660SOL    HW120432   3.255   3.699   9.420
 6660SOL    HW220433   3.131   3.741   9.495
 6661SOL     OW20434   3.143   0.162   9.991
 6661SOL    HW120435   3.148   0.257   9.995
 6661SOL    HW220436   3.146   0.133  10.082
 6662SOL     OW20437   3.440   3.928  10.191
 6662SOL    HW120438   3.391   3.931  10.273
 6662SOL    HW220439   3.437   0.018  10.159
 6663SOL     OW20440   2.095   3.979  12.151
 6663SOL    HW120441   2.118   3.961  12.242
 6663SOL    HW220442   2.003   3.953  12.144
 6664SOL     OW20443   1.873   0.060  11.889
 6664SOL    HW120444   1.801   0.102  11.843
 6664SOL    HW220445   1.923   0.015  11.821
 6665SOL     OW20446   3.631   0.316  11.351
 6665SOL    HW120447   3.554   0.299  11.296
 6665SOL    HW220448   3.594   0.343  11.435
 6666SOL     OW20449   2.304   0.093  12.676
 6666SOL    HW120450   2.373   0.046  12.630
 6666SOL    HW220451   2.225   0.042  12.658
 6667SOL     OW20452   3.455   3.852  12.629
 6667SOL    HW120453   3.462   3.939  12.590
 6667SOL    HW220454   3.440   3.869  12.722
 6668SOL     OW20455   2.670   3.731  11.681
 6668SOL    HW120456   2.695   3.823  11.674
 6668SOL    HW220457   2.575   3.733  11.688
 6669SOL     OW20458   3.128   0.062  12.109
 6669SOL    HW120459   3.054   0.010  12.077
 6669SOL    HW220460   3.183   0.000  12.157
 6670SOL     OW20461   2.416   3.904  12.065
 6670SOL    HW120462   2.411   3.922  12.159
 6670SOL    HW220463   2.413   3.990  12.023
 6671SOL     OW20464   2.055   3.980  12.660
 6671SOL    HW120465   2.000   0.057  12.677
 6671SOL    HW220466   2.014   3.910  12.710
 6672SOL     OW20467   3.268   3.828  11.607
 6672SOL    HW120468   3.260   3.797  11.517
 6672SOL    HW220469   3.360   3.815  11.629
 6673SOL     OW20470   3.398   3.937  12.896
 6673SOL    HW120471   3.422   3.941  12.989
 6673SOL    HW220472   3.327   3.873  12.892
 6674SOL     OW20473   2.492   3.847  11.304
 6674SOL    HW120474   2.583   3.818  11.299
 6674SOL    HW220475   2.449   3.800  11.232
 6675SOL     OW20476   2.634   3.955  12.913
 6675SOL    HW120477   2.685   3.924  12.989
 6675SOL    HW220478   2.547   3.973  12.948
 6676SOL     OW20479   2.398   3.783  11.690
 6676SOL    HW120480   2.352   3.785  11.774
 6676SOL    HW220481   2.405   3.875  11.664
 6677SOL     OW20482   2.146   3.764  11.353
 6677SOL    HW120483   2.185   3.851  11.349
 6677SOL    HW220484   2.214   3.708  11.391
 6678SOL     OW20485   2.419   3.944  12.343
 6678SOL    HW120486   2.462   3.876  12.395
 6678SOL    HW220487   2.327   3.938  12.368
 6679SOL     OW20488   2.883   3.765  11.899
 6679SOL    HW120489   2.817   3.752  11.831
 6679SOL    HW220490   2.860   3.702  11.967
 6680SOL     OW20491   2.786   3.801  12.567
 6680SOL    HW120492   2.815   3.780  12.478
 6680SOL    HW220493   2.860   3.848  12.606
 6681SOL     OW20494   3.129   0.072  12.438
 6681SOL    HW120495   3.134   0.142  12.503
 6681SOL    HW220496   3.061   0.099  12.378
 6682SOL     OW20497   2.372   3.750  12.930
 6682SOL    HW120498   2.314   3.705  12.869
 6682SOL    HW220499   2.346   3.842  12.926
 6683SOL     OW20500   2.156   3.919  12.420
 6683SOL    HW120501   2.111   3.937  12.503
 6683SOL    HW220502   2.144   3.824  12.408
 6684SOL     OW20503   3.444   3.951  11.294
 6684SOL    HW120504   3.378   3.895  11.335
 6684SOL    HW220505   3.459   0.022  11.358
 6685SOL     OW20506   3.025   3.918  12.645
 6685SOL    HW120507   3.026   3.993  12.704
 6685SOL    HW220508   3.069   3.949  12.566
 6686SOL     OW20509   2.763   3.810  11.270
 6686SOL    HW120510   2.820   3.764  11.207
 6686SOL    HW220511   2.807   3.799  11.354
 6687SOL     OW20512   3.595   3.859  11.701
 6687SOL    HW120513   3.662   3.845  11.634
 6687SOL    HW220514   3.571   3.771  11.731
 6688SOL     OW20515   3.698   3.895  12.135
 6688SOL    HW120516   3.731   3.808  12.112
 6688SOL    HW220517   3.612   3.900  12.093
 6689SOL     OW20518   2.541   3.907  12.658
 6689SOL    HW120519   2.624   3.895  12.613
 6689SOL    HW220520   2.565   3.931  12.748
 6690SOL     OW20521   1.905   0.053  11.206
 6690SOL    HW120522   1.870   0.026  11.121
 6690SOL    HW220523   1.933   0.143  11.193
 6691SOL     OW20524   1.919   3.862  11.478
 6691SOL    HW120525   1.910   3.952  11.447
 6691SOL    HW220526   2.000   3.831  11.437
 6692SOL     OW20527   3.062   0.014  11.632
 6692SOL    HW120528   3.125   3.941  11.637
 6692SOL    HW220529   3.079   0.065  11.711
 6693SOL     OW20530   3.646   0.046  12.797
 6693SOL    HW120531   3.600   0.083  12.722
 6693SOL    HW220532   3.579   3.998  12.845
 6694SOL     OW20533   3.676   3.909  12.407
 6694SOL    HW120534   3.662   3.817  12.429
 6694SOL    HW220535   3.687   3.909  12.312
 6695SOL     OW20536   3.301   3.930  12.289
 6695SOL    HW120537   3.326   3.847  12.329
 6695SOL    HW220538   3.244   3.971  12.353
 6696SOL     OW20539   2.880   3.737  12.317
 6696SOL    HW120540   2.822   3.683  12.264
 6696SOL    HW220541   2.965   3.693  12.312
 6697SOL     OW20542   3.219   3.770  11.334
 6697SOL    HW120543   3.255   3.699  11.282
 6697SOL    HW220544   3.131   3.741  11.357
 6698SOL     OW20545   3.143   0.162  11.853
 6698SOL    HW120546   3.148   0.257  11.857
 6698SOL    HW220547   3.146   0.133  11.944
 6699SOL     OW20548   3.440   3.928  12.053
 6699SOL    HW120549   3.391   3.931  12.135
 6699SOL    HW220550   3.437   0.018  12.021
 6700SOL     OW20551   1.876   0.090  13.687
 6700SOL    HW120552   1.793   0.113  13.728
 6700SOL    HW220553   1.865   3.999  13.659
 6701SOL     OW20554   3.630   0.314  13.213
 6701SOL    HW120555   3.555   0.296  13.157
 6701SOL    HW220556   3.593   0.338  13.298
 6702SOL     OW20557   3.466   0.174  13.771
 6702SOL    HW120558   3.379   0.146  13.744
 6702SOL    HW220559   3.456   0.266  13.794
 6703SOL     OW20560   2.673   3.732  13.542
 6703SOL    HW120561   2.695   3.825  13.535
 6703SOL    HW220562   2.577   3.731  13.551
 6704SOL     OW20563   3.270   3.835  13.465
 6704SOL    HW120564   3.265   3.799  13.376
 6704SOL    HW220565   3.362   3.826  13.489
 6705SOL     OW20566   2.492   3.848  13.164
 6705SOL    HW120567   2.583   3.818  13.161
 6705SOL    HW220568   2.449   3.800  13.094
 6706SOL     OW20569   2.400   3.776  13.552
 6706SOL    HW120570   2.348   3.763  13.631
 6706SOL    HW220571   2.399   3.871  13.538
 6707SOL     OW20572   2.144   3.764  13.214
 6707SOL    HW120573   2.184   3.851  13.211
 6707SOL    HW220574   2.212   3.708  13.254
 6708SOL     OW20575   2.874   3.760  13.767
 6708SOL    HW120576   2.816   3.755  13.691
 6708SOL    HW220577   2.853   3.681  13.818
 6709SOL     OW20578   3.445   3.956  13.159
 6709SOL    HW120579   3.386   3.894  13.201
 6709SOL    HW220580   3.485   0.005  13.231
 6710SOL     OW20581   2.764   3.810  13.131
 6710SOL    HW120582   2.820   3.764  13.069
 6710SOL    HW220583   2.806   3.797  13.216
 6711SOL     OW20584   3.592   3.857  13.568
 6711SOL    HW120585   3.661   3.845  13.503
 6711SOL    HW220586   3.573   3.769  13.600
 6712SOL     OW20587   3.713   3.900   0.045
 6712SOL    HW120588   3.751   3.813   0.055
 6712SOL    HW220589   3.626   3.893   0.084
 6713SOL     OW20590   1.905   0.052  13.063
 6713SOL    HW120591   1.870   0.028  12.978
 6713SOL    HW220592   1.933   0.143  13.053
 6714SOL     OW20593   1.917   3.864  13.341
 6714SOL    HW120594   1.914   3.958  13.323
 6714SOL    HW220595   1.997   3.834  13.297
 6715SOL     OW20596   3.054   0.002  13.519
 6715SOL    HW120597   3.126   3.942  13.499
 6715SOL    HW220598   3.087   0.057  13.590
 6716SOL     OW20599   3.220   3.770  13.194
 6716SOL    HW120600   3.255   3.698  13.142
 6716SOL    HW220601   3.132   3.742  13.219
 6717SOL     OW20602   3.177   0.152  13.736
 6717SOL    HW120603   3.145   0.241  13.723
 6717SOL    HW220604   3.155   0.131  13.827
 6718SOL     OW20605   3.952   0.627   0.130
 6718SOL    HW120606   3.894   0.634   0.206
 6718SOL    HW220607   3.904   0.573   0.068
 6719SOL     OW20608   3.954   0.303   0.998
 6719SOL    HW120609   3.963   0.274   1.089
 6719SOL    HW220610   3.870   0.267   0.970
 6720SOL     OW20611   3.732   0.395   0.636
 6720SOL    HW120612   3.644   0.408   0.673
 6720SOL    HW220613   3.723   0.319   0.579
 6721SOL     OW20614   0.013   1.528   1.054
 6721SOL    HW120615   3.955   1.453   1.038
 6721SOL    HW220616   0.077   1.523   0.983
 6722SOL     OW20617   3.947   1.716   0.476
 6722SOL    HW120618   3.942   1.790   0.537
 6722SOL    HW220619   0.041   1.707   0.458
 6723SOL     OW20620   3.936   1.436   0.506
 6723SOL    HW120621   3.927   1.532   0.507
 6723SOL    HW220622   3.882   1.406   0.579
 6724SOL     OW20623   3.804   0.650   0.558
 6724SOL    HW120624   3.787   0.559   0.582
 6724SOL    HW220625   3.809   0.697   0.641
 6725SOL     OW20626   3.692   1.616   0.097
 6725SOL    HW120627   3.729   1.530   0.115
 6725SOL    HW220628   3.699   1.663   0.180
 6726SOL     OW20629   3.822   0.753   1.573
 6726SOL    HW120630   3.901   0.804   1.593
 6726SOL    HW220631   3.753   0.818   1.565
 6727SOL     OW20632   3.806   0.820   0.771
 6727SOL    HW120633   3.900   0.817   0.788
 6727SOL    HW220634   3.774   0.891   0.827
 6728SOL     OW20635   3.847   1.881   1.570
 6728SOL    HW120636   3.846   1.851   1.661
 6728SOL    HW220637   3.772   1.838   1.529
 6729SOL     OW20638   3.924   0.309   1.520
 6729SOL    HW120639   3.853   0.361   1.483
 6729SOL    HW220640   3.881   0.248   1.579
 6730SOL     OW20641   3.811   0.546   1.392
 6730SOL    HW120642   3.906   0.546   1.380
 6730SOL    HW220643   3.795   0.623   1.448
 6731SOL     OW20644   3.792   1.574   1.352
 6731SOL    HW120645   3.765   1.636   1.284
 6731SOL    HW220646   3.888   1.582   1.354
 6732SOL     OW20647   0.070   1.101   0.543
 6732SOL    HW120648   0.076   1.152   0.461
 6732SOL    HW220649   0.147   1.045   0.541
 6733SOL     OW20650   0.002   0.214   1.250
 6733SOL    HW120651   3.973   0.237   1.338
 6733SOL    HW220652   0.001   0.118   1.249
 6734SOL     OW20653   3.750   1.313   1.276
 6734SOL    HW120654   3.792   1.263   1.346
 6734SOL    HW220655   3.764   1.405   1.301
 6735SOL     OW20656   3.745   1.320   0.171
 6735SOL    HW120657   3.660   1.335   0.129
 6735SOL    HW220658   3.734   1.237   0.217
 6736SOL     OW20659   3.802   1.792   0.940
 6736SOL    HW120660   3.778   1.713   0.892
 6736SOL    HW220661   3.896   1.801   0.926
 6737SOL     OW20662   0.209   1.548   0.863
 6737SOL    HW120663   0.297   1.586   0.860
 6737SOL    HW220664   0.210   1.481   0.793
 6738SOL     OW20665   3.752   0.537   1.117
 6738SOL    HW120666   3.830   0.531   1.063
 6738SOL    HW220667   3.785   0.544   1.207
 6739SOL     OW20668   3.901   0.533   1.713
 6739SOL    HW120669   3.939   0.479   1.643
 6739SOL    HW220670   3.862   0.608   1.667
 6740SOL     OW20671   3.939   1.530   1.726
 6740SOL    HW120672   3.926   1.618   1.762
 6740SOL    HW220673   3.989   1.484   1.793
 6741SOL     OW20674   3.860   1.139   1.471
 6741SOL    HW120675   3.936   1.142   1.528
 6741SOL    HW220676   3.889   1.089   1.394
 6742SOL     OW20677   3.812   1.270   1.011
 6742SOL    HW120678   3.783   1.281   1.102
 6742SOL    HW220679   3.754   1.203   0.975
 6743SOL     OW20680   3.847   1.788   1.823
 6743SOL    HW120681   3.794   1.725   1.872
 6743SOL    HW220682   3.896   1.835   1.890
 6744SOL     OW20683   3.801   0.410   0.004
 6744SOL    HW120684   3.762   0.331   0.040
 6744SOL    HW220685   3.777   0.408  13.811
 6745SOL     OW20686   3.794   0.146   0.355
 6745SOL    HW120687   3.756   0.223   0.311
 6745SOL    HW220688   3.888   0.160   0.351
 6746SOL     OW20689   3.801   1.233   0.666
 6746SOL    HW120690   3.791   1.186   0.749
 6746SOL    HW220691   3.884   1.201   0.629
 6747SOL     OW20692   3.754   1.082   0.307
 6747SOL    HW120693   3.849   1.091   0.319
 6747SOL    HW220694   3.735   0.991   0.326
 6748SOL     OW20695   3.956   0.633   1.969
 6748SOL    HW120696   3.875   0.635   2.020
 6748SOL    HW220697   3.929   0.600   1.883
 6749SOL     OW20698   3.954   0.300   2.859
 6749SOL    HW120699   3.963   0.274   2.950
 6749SOL    HW220700   3.869   0.266   2.832
 6750SOL     OW20701   3.731   0.394   2.498
 6750SOL    HW120702   3.644   0.407   2.535
 6750SOL    HW220703   3.721   0.318   2.440
 6751SOL     OW20704   0.012   1.528   2.915
 6751SOL    HW120705   3.956   1.452   2.900
 6751SOL    HW220706   0.077   1.524   2.845
 6752SOL     OW20707   3.941   1.720   2.339
 6752SOL    HW120708   3.943   1.792   2.402
 6752SOL    HW220709   0.033   1.707   2.315
 6753SOL     OW20710   3.946   1.438   2.369
 6753SOL    HW120711   3.925   1.531   2.368
 6753SOL    HW220712   3.888   1.401   2.435
 6754SOL     OW20713   3.802   0.650   2.422
 6754SOL    HW120714   3.787   0.559   2.447
 6754SOL    HW220715   3.808   0.697   2.505
 6755SOL     OW20716   3.761   1.596   1.991
 6755SOL    HW120717   3.739   1.504   2.008
 6755SOL    HW220718   3.728   1.643   2.068
 6756SOL     OW20719   3.822   0.753   3.435
 6756SOL    HW120720   3.901   0.804   3.455
 6756SOL    HW220721   3.753   0.819   3.427
 6757SOL     OW20722   3.806   0.820   2.636
 6757SOL    HW120723   3.900   0.817   2.651
 6757SOL    HW220724   3.774   0.892   2.690
 6758SOL     OW20725   3.847   1.881   3.432
 6758SOL    HW120726   3.846   1.851   3.523
 6758SOL    HW220727   3.772   1.838   3.392
 6759SOL     OW20728   3.924   0.309   3.382
 6759SOL    HW120729   3.853   0.362   3.345
 6759SOL    HW220730   3.880   0.248   3.442
 6760SOL     OW20731   3.811   0.546   3.255
 6760SOL    HW120732   3.906   0.546   3.241
 6760SOL    HW220733   3.795   0.623   3.310
 6761SOL     OW20734   0.266   0.294   2.193
 6761SOL    HW120735   0.324   0.227   2.156
 6761SOL    HW220736   0.309   0.377   2.172
 6762SOL     OW20737   3.792   1.574   3.213
 6762SOL    HW120738   3.765   1.636   3.146
 6762SOL    HW220739   3.888   1.581   3.216
 6763SOL     OW20740   0.062   1.099   2.398
 6763SOL    HW120741   0.053   1.131   2.308
 6763SOL    HW220742   0.131   1.033   2.393
 6764SOL     OW20743   0.002   0.214   3.112
 6764SOL    HW120744   3.973   0.238   3.200
 6764SOL    HW220745   0.001   0.118   3.111
 6765SOL     OW20746   3.750   1.313   3.138
 6765SOL    HW120747   3.792   1.262   3.208
 6765SOL    HW220748   3.764   1.404   3.163
 6766SOL     OW20749   3.728   1.327   2.048
 6766SOL    HW120750   3.642   1.341   2.008
 6766SOL    HW220751   3.719   1.244   2.095
 6767SOL     OW20752   3.802   1.793   2.802
 6767SOL    HW120753   3.778   1.713   2.755
 6767SOL    HW220754   3.896   1.801   2.789
 6768SOL     OW20755   0.209   1.547   2.724
 6768SOL    HW120756   0.297   1.585   2.722
 6768SOL    HW220757   0.210   1.481   2.656
 6769SOL     OW20758   3.752   0.536   2.980
 6769SOL    HW120759   3.831   0.532   2.926
 6769SOL    HW220760   3.785   0.544   3.069
 6770SOL     OW20761   3.901   0.533   3.575
 6770SOL    HW120762   3.939   0.480   3.505
 6770SOL    HW220763   3.862   0.608   3.530
 6771SOL     OW20764   3.939   1.530   3.588
 6771SOL    HW120765   3.926   1.618   3.624
 6771SOL    HW220766   3.990   1.484   3.655
 6772SOL     OW20767   3.860   1.138   3.333
 6772SOL    HW120768   3.936   1.143   3.390
 6772SOL    HW220769   3.889   1.089   3.256
 6773SOL     OW20770   3.811   1.271   2.873
 6773SOL    HW120771   3.782   1.282   2.964
 6773SOL    HW220772   3.754   1.203   2.837
 6774SOL     OW20773   3.847   1.788   3.685
 6774SOL    HW120774   3.794   1.725   3.734
 6774SOL    HW220775   3.896   1.835   3.752
 6775SOL     OW20776   3.823   0.316   1.858
 6775SOL    HW120777   3.755   0.332   1.924
 6775SOL    HW220778   3.819   0.393   1.801
 6776SOL     OW20779   3.774   0.150   2.206
 6776SOL    HW120780   3.740   0.205   2.135
 6776SOL    HW220781   3.869   0.157   2.199
 6777SOL     OW20782   3.803   1.236   2.527
 6777SOL    HW120783   3.794   1.188   2.609
 6777SOL    HW220784   3.879   1.197   2.484
 6778SOL     OW20785   3.753   1.083   2.174
 6778SOL    HW120786   3.843   1.084   2.143
 6778SOL    HW220787   3.735   0.991   2.194
 6779SOL     OW20788   3.956   0.633   3.831
 6779SOL    HW120789   3.875   0.635   3.882
 6779SOL    HW220790   3.929   0.600   3.745
 6780SOL     OW20791   3.954   0.300   4.721
 6780SOL    HW120792   3.963   0.274   4.812
 6780SOL    HW220793   3.869   0.266   4.694
 6781SOL     OW20794   3.731   0.394   4.360
 6781SOL    HW120795   3.644   0.407   4.397
 6781SOL    HW220796   3.721   0.318   4.302
 6782SOL     OW20797   0.012   1.528   4.777
 6782SOL    HW120798   3.956   1.452   4.762
 6782SOL    HW220799   0.077   1.524   4.707
 6783SOL     OW20800   3.941   1.720   4.201
 6783SOL    HW120801   3.943   1.792   4.264
 6783SOL    HW220802   0.033   1.707   4.177
 6784SOL     OW20803   3.946   1.438   4.231
 6784SOL    HW120804   3.925   1.531   4.230
 6784SOL    HW220805   3.888   1.401   4.297
 6785SOL     OW20806   3.802   0.650   4.284
 6785SOL    HW120807   3.787   0.559   4.309
 6785SOL    HW220808   3.808   0.697   4.367
 6786SOL     OW20809   3.761   1.596   3.853
 6786SOL    HW120810   3.739   1.504   3.870
 6786SOL    HW220811   3.728   1.643   3.930
 6787SOL     OW20812   3.822   0.753   5.297
 6787SOL    HW120813   3.901   0.804   5.317
 6787SOL    HW220814   3.753   0.819   5.289
 6788SOL     OW20815   3.806   0.820   4.498
 6788SOL    HW120816   3.900   0.817   4.513
 6788SOL    HW220817   3.774   0.892   4.552
 6789SOL     OW20818   3.847   1.881   5.294
 6789SOL    HW120819   3.846   1.851   5.385
 6789SOL    HW220820   3.772   1.838   5.254
 6790SOL     OW20821   3.924   0.309   5.244
 6790SOL    HW120822   3.853   0.362   5.207
 6790SOL    HW220823   3.881   0.248   5.304
 6791SOL     OW20824   3.811   0.546   5.117
 6791SOL    HW120825   3.906   0.546   5.104
 6791SOL    HW220826   3.795   0.623   5.172
 6792SOL     OW20827   0.266   0.294   4.055
 6792SOL    HW120828   0.324   0.228   4.018
 6792SOL    HW220829   0.309   0.377   4.035
 6793SOL     OW20830   3.792   1.574   5.075
 6793SOL    HW120831   3.765   1.636   5.007
 6793SOL    HW220832   3.888   1.581   5.078
 6794SOL     OW20833   0.062   1.099   4.260
 6794SOL    HW120834   0.054   1.131   4.170
 6794SOL    HW220835   0.131   1.033   4.255
 6795SOL     OW20836   0.002   0.214   4.974
 6795SOL    HW120837   3.973   0.238   5.062
 6795SOL    HW220838   0.001   0.118   4.973
 6796SOL     OW20839   3.750   1.313   5.000
 6796SOL    HW120840   3.792   1.262   5.069
 6796SOL    HW220841   3.764   1.404   5.025
 6797SOL     OW20842   3.728   1.327   3.910
 6797SOL    HW120843   3.642   1.341   3.870
 6797SOL    HW220844   3.719   1.244   3.957
 6798SOL     OW20845   3.802   1.793   4.664
 6798SOL    HW120846   3.778   1.713   4.617
 6798SOL    HW220847   3.896   1.801   4.651
 6799SOL     OW20848   0.209   1.547   4.586
 6799SOL    HW120849   0.297   1.585   4.585
 6799SOL    HW220850   0.210   1.481   4.518
 6800SOL     OW20851   3.752   0.536   4.842
 6800SOL    HW120852   3.831   0.532   4.788
 6800SOL    HW220853   3.785   0.544   4.931
 6801SOL     OW20854   3.901   0.533   5.437
 6801SOL    HW120855   3.939   0.480   5.367
 6801SOL    HW220856   3.862   0.608   5.392
 6802SOL     OW20857   3.939   1.530   5.450
 6802SOL    HW120858   3.926   1.618   5.487
 6802SOL    HW220859   3.991   1.484   5.516
 6803SOL     OW20860   3.860   1.138   5.195
 6803SOL    HW120861   3.936   1.143   5.252
 6803SOL    HW220862   3.890   1.089   5.118
 6804SOL     OW20863   3.811   1.271   4.735
 6804SOL    HW120864   3.782   1.282   4.826
 6804SOL    HW220865   3.754   1.203   4.699
 6805SOL     OW20866   3.846   1.788   5.547
 6805SOL    HW120867   3.794   1.725   5.596
 6805SOL    HW220868   3.896   1.835   5.614
 6806SOL     OW20869   3.823   0.316   3.720
 6806SOL    HW120870   3.755   0.332   3.786
 6806SOL    HW220871   3.819   0.393   3.663
 6807SOL     OW20872   3.774   0.150   4.068
 6807SOL    HW120873   3.740   0.205   3.997
 6807SOL    HW220874   3.869   0.157   4.061
 6808SOL     OW20875   3.803   1.236   4.389
 6808SOL    HW120876   3.794   1.188   4.471
 6808SOL    HW220877   3.879   1.197   4.346
 6809SOL     OW20878   3.753   1.083   4.036
 6809SOL    HW120879   3.843   1.084   4.005
 6809SOL    HW220880   3.735   0.991   4.056
 6810SOL     OW20881   3.956   0.633   5.693
 6810SOL    HW120882   3.875   0.635   5.744
 6810SOL    HW220883   3.929   0.600   5.607
 6811SOL     OW20884   3.954   0.300   6.583
 6811SOL    HW120885   3.963   0.274   6.674
 6811SOL    HW220886   3.869   0.266   6.556
 6812SOL     OW20887   3.731   0.394   6.222
 6812SOL    HW120888   3.644   0.407   6.259
 6812SOL    HW220889   3.722   0.318   6.164
 6813SOL     OW20890   0.012   1.528   6.639
 6813SOL    HW120891   3.956   1.452   6.624
 6813SOL    HW220892   0.077   1.524   6.569
 6814SOL     OW20893   3.941   1.720   6.063
 6814SOL    HW120894   3.943   1.792   6.126
 6814SOL    HW220895   0.033   1.707   6.039
 6815SOL     OW20896   3.946   1.438   6.093
 6815SOL    HW120897   3.925   1.531   6.091
 6815SOL    HW220898   3.887   1.401   6.159
 6816SOL     OW20899   3.801   0.650   6.146
 6816SOL    HW120900   3.787   0.559   6.171
 6816SOL    HW220901   3.808   0.697   6.229
 6817SOL     OW20902   3.761   1.596   5.715
 6817SOL    HW120903   3.739   1.504   5.732
 6817SOL    HW220904   3.728   1.643   5.792
 6818SOL     OW20905   3.822   0.753   7.159
 6818SOL    HW120906   3.901   0.804   7.178
 6818SOL    HW220907   3.753   0.819   7.151
 6819SOL     OW20908   3.806   0.820   6.360
 6819SOL    HW120909   3.900   0.817   6.375
 6819SOL    HW220910   3.775   0.892   6.414
 6820SOL     OW20911   3.847   1.881   7.156
 6820SOL    HW120912   3.846   1.851   7.247
 6820SOL    HW220913   3.772   1.838   7.116
 6821SOL     OW20914   3.924   0.309   7.106
 6821SOL    HW120915   3.853   0.362   7.069
 6821SOL    HW220916   3.880   0.248   7.166
 6822SOL     OW20917   3.811   0.546   6.979
 6822SOL    HW120918   3.906   0.546   6.965
 6822SOL    HW220919   3.795   0.623   7.034
 6823SOL     OW20920   0.266   0.294   5.916
 6823SOL    HW120921   0.325   0.228   5.880
 6823SOL    HW220922   0.309   0.378   5.898
 6824SOL     OW20923   3.793   1.574   6.937
 6824SOL    HW120924   3.766   1.636   6.869
 6824SOL    HW220925   3.888   1.581   6.940
 6825SOL     OW20926   0.062   1.099   6.122
 6825SOL    HW120927   0.054   1.132   6.032
 6825SOL    HW220928   0.133   1.035   6.118
 6826SOL     OW20929   0.002   0.214   6.836
 6826SOL    HW120930   3.974   0.238   6.924
 6826SOL    HW220931   0.001   0.118   6.835
 6827SOL     OW20932   3.748   1.313   6.863
 6827SOL    HW120933   3.792   1.263   6.931
 6827SOL    HW220934   3.763   1.405   6.887
 6828SOL     OW20935   3.728   1.327   5.772
 6828SOL    HW120936   3.642   1.341   5.732
 6828SOL    HW220937   3.719   1.244   5.819
 6829SOL     OW20938   3.802   1.793   6.526
 6829SOL    HW120939   3.778   1.713   6.479
 6829SOL    HW220940   3.896   1.801   6.513
 6830SOL     OW20941   0.209   1.547   6.448
 6830SOL    HW120942   0.297   1.585   6.447
 6830SOL    HW220943   0.211   1.481   6.380
 6831SOL     OW20944   3.752   0.537   6.704
 6831SOL    HW120945   3.831   0.532   6.649
 6831SOL    HW220946   3.785   0.544   6.793
 6832SOL     OW20947   3.901   0.533   7.299
 6832SOL    HW120948   3.940   0.480   7.229
 6832SOL    HW220949   3.862   0.608   7.254
 6833SOL     OW20950   3.938   1.530   7.312
 6833SOL    HW120951   3.926   1.618   7.349
 6833SOL    HW220952   3.991   1.484   7.377
 6834SOL     OW20953   3.859   1.138   7.057
 6834SOL    HW120954   3.936   1.143   7.114
 6834SOL    HW220955   3.890   1.090   6.980
 6835SOL     OW20956   3.811   1.271   6.597
 6835SOL    HW120957   3.782   1.282   6.688
 6835SOL    HW220958   3.754   1.203   6.561
 6836SOL     OW20959   3.846   1.788   7.409
 6836SOL    HW120960   3.794   1.725   7.458
 6836SOL    HW220961   3.896   1.835   7.476
 6837SOL     OW20962   3.823   0.316   5.582
 6837SOL    HW120963   3.755   0.332   5.648
 6837SOL    HW220964   3.819   0.393   5.525
 6838SOL     OW20965   3.774   0.150   5.930
 6838SOL    HW120966   3.740   0.205   5.859
 6838SOL    HW220967   3.869   0.157   5.923
 6839SOL     OW20968   3.803   1.236   6.251
 6839SOL    HW120969   3.795   1.188   6.333
 6839SOL    HW220970   3.878   1.197   6.207
 6840SOL     OW20971   3.753   1.083   5.898
 6840SOL    HW120972   3.843   1.084   5.866
 6840SOL    HW220973   3.735   0.991   5.918
 6841SOL     OW20974   3.956   0.633   7.555
 6841SOL    HW120975   3.875   0.635   7.606
 6841SOL    HW220976   3.929   0.600   7.469
 6842SOL     OW20977   3.954   0.300   8.445
 6842SOL    HW120978   3.963   0.274   8.536
 6842SOL    HW220979   3.869   0.266   8.418
 6843SOL     OW20980   3.731   0.394   8.084
 6843SOL    HW120981   3.644   0.407   8.121
 6843SOL    HW220982   3.721   0.318   8.026
 6844SOL     OW20983   0.012   1.528   8.501
 6844SOL    HW120984   3.956   1.452   8.486
 6844SOL    HW220985   0.077   1.524   8.431
 6845SOL     OW20986   3.941   1.720   7.925
 6845SOL    HW120987   3.943   1.792   7.988
 6845SOL    HW220988   0.033   1.707   7.901
 6846SOL     OW20989   3.946   1.438   7.955
 6846SOL    HW120990   3.925   1.531   7.953
 6846SOL    HW220991   3.887   1.401   8.021
 6847SOL     OW20992   3.801   0.650   8.008
 6847SOL    HW120993   3.787   0.559   8.033
 6847SOL    HW220994   3.808   0.697   8.091
 6848SOL     OW20995   3.761   1.596   7.578
 6848SOL    HW120996   3.739   1.504   7.594
 6848SOL    HW220997   3.728   1.643   7.655
 6849SOL     OW20998   3.822   0.753   9.022
 6849SOL    HW120999   3.901   0.804   9.041
 6849SOL    HW221000   3.753   0.819   9.013
 6850SOL     OW21001   3.806   0.820   8.222
 6850SOL    HW121002   3.900   0.817   8.237
 6850SOL    HW221003   3.774   0.892   8.276
 6851SOL     OW21004   3.847   1.881   9.018
 6851SOL    HW121005   3.846   1.851   9.109
 6851SOL    HW221006   3.772   1.838   8.978
 6852SOL     OW21007   3.924   0.309   8.968
 6852SOL    HW121008   3.853   0.362   8.931
 6852SOL    HW221009   3.880   0.248   9.028
 6853SOL     OW21010   3.811   0.546   8.841
 6853SOL    HW121011   3.906   0.546   8.827
 6853SOL    HW221012   3.795   0.623   8.896
 6854SOL     OW21013   0.266   0.294   7.779
 6854SOL    HW121014   0.324   0.228   7.742
 6854SOL    HW221015   0.309   0.377   7.759
 6855SOL     OW21016   3.792   1.574   8.799
 6855SOL    HW121017   3.765   1.636   8.731
 6855SOL    HW221018   3.888   1.581   8.802
 6856SOL     OW21019   0.062   1.099   7.984
 6856SOL    HW121020   0.054   1.132   7.894
 6856SOL    HW221021   0.133   1.035   7.979
 6857SOL     OW21022   0.002   0.214   8.698
 6857SOL    HW121023   3.973   0.238   8.786
 6857SOL    HW221024   0.001   0.118   8.697
 6858SOL     OW21025   3.750   1.313   8.724
 6858SOL    HW121026   3.792   1.262   8.793
 6858SOL    HW221027   3.764   1.404   8.749
 6859SOL     OW21028   3.728   1.327   7.634
 6859SOL    HW121029   3.642   1.341   7.594
 6859SOL    HW221030   3.719   1.244   7.681
 6860SOL     OW21031   3.802   1.793   8.388
 6860SOL    HW121032   3.778   1.713   8.341
 6860SOL    HW221033   3.896   1.801   8.375
 6861SOL     OW21034   0.209   1.547   8.310
 6861SOL    HW121035   0.297   1.585   8.309
 6861SOL    HW221036   0.210   1.481   8.241
 6862SOL     OW21037   3.752   0.536   8.566
 6862SOL    HW121038   3.830   0.532   8.511
 6862SOL    HW221039   3.785   0.544   8.655
 6863SOL     OW21040   3.901   0.533   9.161
 6863SOL    HW121041   3.939   0.480   9.091
 6863SOL    HW221042   3.862   0.608   9.116
 6864SOL     OW21043   3.939   1.530   9.174
 6864SOL    HW121044   3.926   1.618   9.210
 6864SOL    HW221045   3.989   1.484   9.241
 6865SOL     OW21046   3.860   1.138   8.919
 6865SOL    HW121047   3.936   1.143   8.976
 6865SOL    HW221048   3.890   1.089   8.842
 6866SOL     OW21049   3.811   1.271   8.459
 6866SOL    HW121050   3.782   1.282   8.550
 6866SOL    HW221051   3.754   1.203   8.423
 6867SOL     OW21052   3.847   1.788   9.271
 6867SOL    HW121053   3.794   1.725   9.320
 6867SOL    HW221054   3.896   1.835   9.338
 6868SOL     OW21055   3.823   0.316   7.444
 6868SOL    HW121056   3.755   0.332   7.510
 6868SOL    HW221057   3.819   0.393   7.387
 6869SOL     OW21058   3.774   0.150   7.792
 6869SOL    HW121059   3.740   0.205   7.721
 6869SOL    HW221060   3.869   0.157   7.785
 6870SOL     OW21061   3.803   1.236   8.113
 6870SOL    HW121062   3.795   1.188   8.195
 6870SOL    HW221063   3.878   1.197   8.070
 6871SOL     OW21064   3.753   1.083   7.760
 6871SOL    HW121065   3.843   1.084   7.728
 6871SOL    HW221066   3.735   0.991   7.780
 6872SOL     OW21067   3.956   0.633   9.417
 6872SOL    HW121068   3.875   0.635   9.468
 6872SOL    HW221069   3.929   0.600   9.331
 6873SOL     OW21070   3.954   0.300  10.307
 6873SOL    HW121071   3.963   0.274  10.398
 6873SOL    HW221072   3.869   0.266  10.280
 6874SOL     OW21073   3.731   0.394   9.946
 6874SOL    HW121074   3.644   0.407   9.983
 6874SOL    HW221075   3.721   0.318   9.888
 6875SOL     OW21076   0.012   1.528  10.363
 6875SOL    HW121077   3.956   1.452  10.348
 6875SOL    HW221078   0.077   1.524  10.293
 6876SOL     OW21079   3.941   1.720   9.787
 6876SOL    HW121080   3.943   1.792   9.850
 6876SOL    HW221081   0.033   1.707   9.763
 6877SOL     OW21082   3.947   1.438   9.817
 6877SOL    HW121083   3.925   1.531   9.816
 6877SOL    HW221084   3.888   1.401   9.883
 6878SOL     OW21085   3.802   0.650   9.870
 6878SOL    HW121086   3.787   0.559   9.895
 6878SOL    HW221087   3.808   0.697   9.953
 6879SOL     OW21088   3.761   1.596   9.440
 6879SOL    HW121089   3.739   1.504   9.456
 6879SOL    HW221090   3.728   1.643   9.516
 6880SOL     OW21091   3.822   0.753  10.884
 6880SOL    HW121092   3.901   0.804  10.903
 6880SOL    HW221093   3.752   0.819  10.875
 6881SOL     OW21094   3.806   0.819  10.084
 6881SOL    HW121095   3.900   0.817  10.099
 6881SOL    HW221096   3.774   0.892  10.138
 6882SOL     OW21097   3.847   1.882  10.880
 6882SOL    HW121098   3.846   1.851  10.971
 6882SOL    HW221099   3.772   1.838  10.839
 6883SOL     OW21100   3.924   0.309  10.830
 6883SOL    HW121101   3.853   0.362  10.793
 6883SOL    HW221102   3.880   0.248  10.890
 6884SOL     OW21103   3.811   0.546  10.703
 6884SOL    HW121104   3.906   0.546  10.690
 6884SOL    HW221105   3.795   0.623  10.758
 6885SOL     OW21106   0.266   0.294   9.641
 6885SOL    HW121107   0.324   0.227   9.604
 6885SOL    HW221108   0.309   0.377   9.620
 6886SOL     OW21109   3.792   1.574  10.662
 6886SOL    HW121110   3.765   1.636  10.594
 6886SOL    HW221111   3.888   1.582  10.664
 6887SOL     OW21112   0.062   1.099   9.846
 6887SOL    HW121113   0.053   1.131   9.756
 6887SOL    HW221114   0.131   1.033   9.841
 6888SOL     OW21115   0.002   0.214  10.560
 6888SOL    HW121116   3.973   0.238  10.648
 6888SOL    HW221117   0.001   0.118  10.559
 6889SOL     OW21118   3.750   1.313  10.586
 6889SOL    HW121119   3.792   1.263  10.656
 6889SOL    HW221120   3.764   1.404  10.611
 6890SOL     OW21121   3.728   1.327   9.496
 6890SOL    HW121122   3.642   1.340   9.456
 6890SOL    HW221123   3.719   1.244   9.543
 6891SOL     OW21124   3.802   1.793  10.250
 6891SOL    HW121125   3.778   1.713  10.203
 6891SOL    HW221126   3.896   1.801  10.237
 6892SOL     OW21127   0.209   1.547  10.172
 6892SOL    HW121128   0.297   1.585  10.170
 6892SOL    HW221129   0.210   1.480  10.104
 6893SOL     OW21130   3.752   0.536  10.428
 6893SOL    HW121131   3.830   0.532  10.374
 6893SOL    HW221132   3.785   0.544  10.517
 6894SOL     OW21133   3.901   0.533  11.023
 6894SOL    HW121134   3.939   0.480  10.953
 6894SOL    HW221135   3.862   0.608  10.978
 6895SOL     OW21136   3.939   1.530  11.036
 6895SOL    HW121137   3.926   1.618  11.072
 6895SOL    HW221138   3.989   1.484  11.103
 6896SOL     OW21139   3.860   1.138  10.781
 6896SOL    HW121140   3.937   1.143  10.838
 6896SOL    HW221141   3.889   1.089  10.704
 6897SOL     OW21142   3.811   1.271  10.321
 6897SOL    HW121143   3.782   1.282  10.412
 6897SOL    HW221144   3.754   1.204  10.285
 6898SOL     OW21145   3.847   1.788  11.133
 6898SOL    HW121146   3.794   1.725  11.182
 6898SOL    HW221147   3.896   1.835  11.200
 6899SOL     OW21148   3.823   0.316   9.306
 6899SOL    HW121149   3.755   0.332   9.372
 6899SOL    HW221150   3.819   0.393   9.249
 6900SOL     OW21151   3.774   0.150   9.654
 6900SOL    HW121152   3.740   0.205   9.583
 6900SOL    HW221153   3.869   0.157   9.647
 6901SOL     OW21154   3.803   1.236   9.975
 6901SOL    HW121155   3.794   1.188  10.057
 6901SOL    HW221156   3.879   1.197   9.932
 6902SOL     OW21157   3.753   1.083   9.623
 6902SOL    HW121158   3.843   1.084   9.590
 6902SOL    HW221159   3.735   0.991   9.642
 6903SOL     OW21160   3.956   0.633  11.279
 6903SOL    HW121161   3.874   0.635  11.330
 6903SOL    HW221162   3.929   0.600  11.193
 6904SOL     OW21163   3.954   0.300  12.169
 6904SOL    HW121164   3.963   0.274  12.261
 6904SOL    HW221165   3.869   0.266  12.142
 6905SOL     OW21166   3.731   0.394  11.808
 6905SOL    HW121167   3.644   0.407  11.845
 6905SOL    HW221168   3.721   0.318  11.750
 6906SOL     OW21169   0.012   1.528  12.225
 6906SOL    HW121170   3.956   1.452  12.210
 6906SOL    HW221171   0.077   1.524  12.155
 6907SOL     OW21172   3.941   1.720  11.649
 6907SOL    HW121173   3.943   1.792  11.712
 6907SOL    HW221174   0.033   1.707  11.625
 6908SOL     OW21175   3.947   1.438  11.679
 6908SOL    HW121176   3.925   1.531  11.678
 6908SOL    HW221177   3.888   1.401  11.745
 6909SOL     OW21178   3.802   0.650  11.732
 6909SOL    HW121179   3.787   0.559  11.757
 6909SOL    HW221180   3.808   0.697  11.815
 6910SOL     OW21181   3.761   1.596  11.302
 6910SOL    HW121182   3.739   1.504  11.318
 6910SOL    HW221183   3.729   1.643  11.378
 6911SOL     OW21184   3.822   0.753  12.746
 6911SOL    HW121185   3.901   0.805  12.764
 6911SOL    HW221186   3.752   0.819  12.737
 6912SOL     OW21187   3.806   0.819  11.946
 6912SOL    HW121188   3.900   0.817  11.961
 6912SOL    HW221189   3.774   0.892  12.000
 6913SOL     OW21190   3.847   1.881  12.743
 6913SOL    HW121191   3.846   1.852  12.834
 6913SOL    HW221192   3.772   1.838  12.703
 6914SOL     OW21193   3.924   0.309  12.693
 6914SOL    HW121194   3.853   0.361  12.655
 6914SOL    HW221195   3.880   0.248  12.751
 6915SOL     OW21196   3.811   0.546  12.565
 6915SOL    HW121197   3.906   0.546  12.552
 6915SOL    HW221198   3.795   0.623  12.620
 6916SOL     OW21199   0.266   0.294  11.503
 6916SOL    HW121200   0.324   0.227  11.466
 6916SOL    HW221201   0.309   0.377  11.482
 6917SOL     OW21202   3.792   1.574  12.523
 6917SOL    HW121203   3.765   1.636  12.456
 6917SOL    HW221204   3.888   1.582  12.526
 6918SOL     OW21205   0.062   1.099  11.708
 6918SOL    HW121206   0.053   1.131  11.618
 6918SOL    HW221207   0.131   1.033  11.703
 6919SOL     OW21208   0.003   0.214  12.422
 6919SOL    HW121209   3.973   0.238  12.510
 6919SOL    HW221210   0.001   0.118  12.421
 6920SOL     OW21211   3.750   1.313  12.448
 6920SOL    HW121212   3.793   1.263  12.518
 6920SOL    HW221213   3.764   1.405  12.473
 6921SOL     OW21214   3.728   1.327  11.358
 6921SOL    HW121215   3.642   1.341  11.318
 6921SOL    HW221216   3.719   1.244  11.405
 6922SOL     OW21217   3.802   1.793  12.112
 6922SOL    HW121218   3.778   1.713  12.065
 6922SOL    HW221219   3.896   1.801  12.099
 6923SOL     OW21220   0.209   1.547  12.034
 6923SOL    HW121221   0.297   1.585  12.032
 6923SOL    HW221222   0.210   1.481  11.966
 6924SOL     OW21223   3.752   0.536  12.290
 6924SOL    HW121224   3.830   0.532  12.235
 6924SOL    HW221225   3.785   0.544  12.379
 6925SOL     OW21226   3.903   0.534  12.885
 6925SOL    HW121227   3.939   0.479  12.815
 6925SOL    HW221228   3.863   0.608  12.840
 6926SOL     OW21229   3.939   1.531  12.899
 6926SOL    HW121230   3.926   1.619  12.935
 6926SOL    HW221231   3.988   1.484  12.967
 6927SOL     OW21232   3.860   1.138  12.643
 6927SOL    HW121233   3.937   1.143  12.699
 6927SOL    HW221234   3.889   1.089  12.566
 6928SOL     OW21235   3.811   1.271  12.183
 6928SOL    HW121236   3.782   1.282  12.274
 6928SOL    HW221237   3.754   1.204  12.147
 6929SOL     OW21238   3.847   1.789  12.996
 6929SOL    HW121239   3.795   1.725  13.045
 6929SOL    HW221240   3.896   1.836  13.063
 6930SOL     OW21241   3.823   0.316  11.168
 6930SOL    HW121242   3.755   0.332  11.234
 6930SOL    HW221243   3.819   0.393  11.111
 6931SOL     OW21244   3.774   0.150  11.516
 6931SOL    HW121245   3.740   0.205  11.445
 6931SOL    HW221246   3.869   0.157  11.509
 6932SOL     OW21247   3.803   1.236  11.837
 6932SOL    HW121248   3.794   1.188  11.919
 6932SOL    HW221249   3.879   1.197  11.794
 6933SOL     OW21250   3.753   1.083  11.485
 6933SOL    HW121251   3.843   1.084  11.452
 6933SOL    HW221252   3.735   0.991  11.504
 6934SOL     OW21253   3.953   0.631  13.142
 6934SOL    HW121254   3.869   0.634  13.190
 6934SOL    HW221255   3.930   0.599  13.055
 6935SOL     OW21256   3.720   0.386  13.645
 6935SOL    HW121257   3.628   0.402  13.668
 6935SOL    HW221258   3.722   0.296  13.615
 6936SOL     OW21259   3.940   1.714  13.504
 6936SOL    HW121260   3.939   1.788  13.565
 6936SOL    HW221261   0.033   1.702  13.484
 6937SOL     OW21262   3.945   1.435  13.535
 6937SOL    HW121263   3.927   1.528  13.535
 6937SOL    HW221264   3.885   1.398  13.600
 6938SOL     OW21265   3.939   1.099   0.010
 6938SOL    HW121266   3.980   1.056   0.085
 6938SOL    HW221267   3.847   1.106   0.034
 6939SOL     OW21268   3.823   0.645  13.595
 6939SOL    HW121269   3.779   0.561  13.610
 6939SOL    HW221270   3.812   0.693  13.677
 6940SOL     OW21271   3.759   1.596  13.163
 6940SOL    HW121272   3.738   1.504  13.180
 6940SOL    HW221273   3.727   1.643  13.240
 6941SOL     OW21274   3.797   0.808  13.812
 6941SOL    HW121275   3.891   0.817  13.825
 6941SOL    HW221276   3.759   0.886  13.852
 6942SOL     OW21277   0.098   1.812  13.888
 6942SOL    HW121278   0.059   1.735   0.029
 6942SOL    HW221279   0.166   1.840   0.049
 6943SOL     OW21280   0.267   0.295  13.368
 6943SOL    HW121281   0.321   0.223  13.334
 6943SOL    HW221282   0.316   0.374  13.345
 6944SOL     OW21283   0.067   1.101  13.561
 6944SOL    HW121284   0.060   1.134  13.472
 6944SOL    HW221285   0.139   1.038  13.558
 6945SOL     OW21286   3.728   1.327  13.220
 6945SOL    HW121287   3.642   1.341  13.180
 6945SOL    HW221288   3.719   1.244  13.268
 6946SOL     OW21289   0.310   1.536   0.012
 6946SOL    HW121290   0.244   1.593   0.051
 6946SOL    HW221291   0.260   1.478  13.854
 6947SOL     OW21292   3.823   0.317  13.030
 6947SOL    HW121293   3.754   0.331  13.095
 6947SOL    HW221294   3.818   0.393  12.973
 6948SOL     OW21295   3.785   0.150  13.370
 6948SOL    HW121296   3.748   0.206  13.302
 6948SOL    HW221297   3.880   0.156  13.356
 6949SOL     OW21298   3.810   1.229  13.685
 6949SOL    HW121299   3.807   1.173  13.762
 6949SOL    HW221300   3.886   1.198  13.635
 6950SOL     OW21301   3.752   1.081  13.345
 6950SOL    HW121302   3.842   1.083  13.310
 6950SOL    HW221303   3.737   0.989  13.365
 6951SOL     OW21304   3.953   2.496   0.134
 6951SOL    HW121305   3.887   2.503   0.203
 6951SOL    HW221306   3.910   2.447   0.064
 6952SOL     OW21307   3.962   2.126   0.988
 6952SOL    HW121308   3.966   2.119   1.083
 6952SOL    HW221309   3.870   2.113   0.967
 6953SOL     OW21310   3.722   2.245   0.637
 6953SOL    HW121311   3.642   2.268   0.684
 6953SOL    HW221312   3.702   2.162   0.595
 6954SOL     OW21313   0.013   3.386   1.055
 6954SOL    HW121314   3.957   3.312   1.034
 6954SOL    HW221315   0.077   3.388   0.983
 6955SOL     OW21316   3.938   3.572   0.480
 6955SOL    HW121317   3.948   3.647   0.539
 6955SOL    HW221318   0.025   3.560   0.442
 6956SOL     OW21319   3.934   3.295   0.507
 6956SOL    HW121320   3.926   3.391   0.504
 6956SOL    HW221321   3.881   3.269   0.582
 6957SOL     OW21322   3.811   2.502   0.559
 6957SOL    HW121323   3.780   2.415   0.584
 6957SOL    HW221324   3.809   2.552   0.641
 6958SOL     OW21325   3.756   3.465   0.119
 6958SOL    HW121326   3.730   3.375   0.136
 6958SOL    HW221327   3.721   3.515   0.193
 6959SOL     OW21328   3.823   2.604   1.581
 6959SOL    HW121329   3.902   2.653   1.602
 6959SOL    HW221330   3.755   2.672   1.572
 6960SOL     OW21331   3.806   2.680   0.768
 6960SOL    HW121332   3.900   2.678   0.786
 6960SOL    HW221333   3.772   2.750   0.824
 6961SOL     OW21334   3.849   3.728   1.569
 6961SOL    HW121335   3.846   3.699   1.661
 6961SOL    HW221336   3.766   3.697   1.532
 6962SOL     OW21337   3.921   2.151   1.516
 6962SOL    HW121338   3.839   2.194   1.492
 6962SOL    HW221339   3.893   2.065   1.548
 6963SOL     OW21340   3.811   2.407   1.392
 6963SOL    HW121341   3.906   2.404   1.382
 6963SOL    HW221342   3.796   2.481   1.451
 6964SOL     OW21343   3.793   3.436   1.351
 6964SOL    HW121344   3.766   3.499   1.284
 6964SOL    HW221345   3.888   3.444   1.355
 6965SOL     OW21346   0.075   2.959   0.541
 6965SOL    HW121347   0.074   3.014   0.463
 6965SOL    HW221348   0.159   2.913   0.537
 6966SOL     OW21349   0.002   2.073   1.253
 6966SOL    HW121350   3.973   2.105   1.338
 6966SOL    HW221351   0.012   1.978   1.265
 6967SOL     OW21352   3.750   3.175   1.276
 6967SOL    HW121353   3.792   3.125   1.345
 6967SOL    HW221354   3.764   3.267   1.300
 6968SOL     OW21355   3.988   1.921   0.656
 6968SOL    HW121356   0.007   2.015   0.667
 6968SOL    HW221357   0.014   1.882   0.739
 6969SOL     OW21358   3.740   3.177   0.175
 6969SOL    HW121359   3.657   3.188   0.128
 6969SOL    HW221360   3.731   3.093   0.220
 6970SOL     OW21361   3.803   3.649   0.940
 6970SOL    HW121362   3.780   3.569   0.892
 6970SOL    HW221363   3.897   3.657   0.928
 6971SOL     OW21364   0.209   3.419   0.864
 6971SOL    HW121365   0.281   3.481   0.859
 6971SOL    HW221366   0.225   3.357   0.794
 6972SOL     OW21367   3.756   2.403   1.120
 6972SOL    HW121368   3.839   2.401   1.072
 6972SOL    HW221369   3.782   2.406   1.212
 6973SOL     OW21370   3.897   2.378   1.724
 6973SOL    HW121371   3.922   2.315   1.656
 6973SOL    HW221372   3.858   2.451   1.676
 6974SOL     OW21373   3.938   3.391   1.728
 6974SOL    HW121374   3.925   3.480   1.760
 6974SOL    HW221375   3.990   3.348   1.796
 6975SOL     OW21376   3.859   3.001   1.471
 6975SOL    HW121377   3.935   3.005   1.530
 6975SOL    HW221378   3.891   2.953   1.394
 6976SOL     OW21379   3.811   3.132   1.011
 6976SOL    HW121380   3.782   3.144   1.101
 6976SOL    HW221381   3.753   3.064   0.976
 6977SOL     OW21382   3.843   3.645   1.823
 6977SOL    HW121383   3.792   3.581   1.873
 6977SOL    HW221384   3.888   3.697   1.889
 6978SOL     OW21385   3.775   2.274   0.032
 6978SOL    HW121386   3.742   2.191   0.064
 6978SOL    HW221387   3.756   2.273  13.838
 6979SOL     OW21388   3.782   2.018   0.346
 6979SOL    HW121389   3.756   2.039   0.257
 6979SOL    HW221390   3.878   2.023   0.345
 6980SOL     OW21391   3.798   3.094   0.668
 6980SOL    HW121392   3.792   3.047   0.751
 6980SOL    HW221393   3.884   3.070   0.633
 6981SOL     OW21394   3.752   2.936   0.309
 6981SOL    HW121395   3.847   2.945   0.318
 6981SOL    HW221396   3.734   2.844   0.325
 6982SOL     OW21397   3.953   2.495   1.973
 6982SOL    HW121398   3.873   2.491   2.024
 6982SOL    HW221399   3.929   2.458   1.888
 6983SOL     OW21400   3.962   2.125   2.850
 6983SOL    HW121401   3.966   2.119   2.945
 6983SOL    HW221402   3.870   2.113   2.829
 6984SOL     OW21403   3.721   2.242   2.498
 6984SOL    HW121404   3.642   2.268   2.546
 6984SOL    HW221405   3.698   2.159   2.457
 6985SOL     OW21406   0.012   3.387   2.916
 6985SOL    HW121407   3.957   3.311   2.898
 6985SOL    HW221408   0.076   3.388   2.846
 6986SOL     OW21409   3.940   3.580   2.339
 6986SOL    HW121410   3.948   3.654   2.399
 6986SOL    HW221411   0.030   3.562   2.311
 6987SOL     OW21412   3.942   3.299   2.367
 6987SOL    HW121413   3.925   3.394   2.369
 6987SOL    HW221414   3.887   3.263   2.436
 6988SOL     OW21415   3.813   2.501   2.424
 6988SOL    HW121416   3.782   2.413   2.447
 6988SOL    HW221417   3.810   2.550   2.505
 6989SOL     OW21418   3.757   3.456   1.994
 6989SOL    HW121419   3.737   3.364   2.009
 6989SOL    HW221420   3.725   3.501   2.072
 6990SOL     OW21421   3.823   2.604   3.443
 6990SOL    HW121422   3.903   2.653   3.463
 6990SOL    HW221423   3.755   2.672   3.434
 6991SOL     OW21424   3.806   2.679   2.632
 6991SOL    HW121425   3.900   2.678   2.649
 6991SOL    HW221426   3.772   2.750   2.686
 6992SOL     OW21427   3.849   3.728   3.431
 6992SOL    HW121428   3.846   3.699   3.523
 6992SOL    HW221429   3.766   3.697   3.394
 6993SOL     OW21430   3.921   2.151   3.378
 6993SOL    HW121431   3.839   2.194   3.354
 6993SOL    HW221432   3.893   2.065   3.411
 6994SOL     OW21433   4.000   1.893   2.022
 6994SOL    HW121434   0.038   1.980   2.007
 6994SOL    HW221435   0.058   1.852   2.086
 6995SOL     OW21436   3.812   2.407   3.254
 6995SOL    HW121437   3.907   2.404   3.244
 6995SOL    HW221438   3.796   2.481   3.313
 6996SOL     OW21439   0.279   2.151   2.181
 6996SOL    HW121440   0.296   2.074   2.126
 6996SOL    HW221441   0.328   2.222   2.138
 6997SOL     OW21442   3.793   3.436   3.213
 6997SOL    HW121443   3.767   3.498   3.146
 6997SOL    HW221444   3.888   3.443   3.217
 6998SOL     OW21445   0.064   2.958   2.397
 6998SOL    HW121446   0.054   2.994   2.309
 6998SOL    HW221447   0.140   2.900   2.390
 6999SOL     OW21448   0.002   2.073   3.115
 6999SOL    HW121449   3.973   2.105   3.201
 6999SOL    HW221450   0.012   1.978   3.127
 7000SOL     OW21451   3.750   3.175   3.138
 7000SOL    HW121452   3.792   3.124   3.207
 7000SOL    HW221453   3.764   3.266   3.162
 7001SOL     OW21454   3.994   1.922   2.517
 7001SOL    HW121455   0.002   2.017   2.531
 7001SOL    HW221456   0.018   1.883   2.601
 7002SOL     OW21457   3.727   3.187   2.049
 7002SOL    HW121458   3.641   3.201   2.010
 7002SOL    HW221459   3.718   3.103   2.096
 7003SOL     OW21460   3.803   3.650   2.802
 7003SOL    HW121461   3.779   3.570   2.755
 7003SOL    HW221462   3.898   3.657   2.791
 7004SOL     OW21463   0.208   3.418   2.726
 7004SOL    HW121464   0.282   3.478   2.720
 7004SOL    HW221465   0.224   3.354   2.657
 7005SOL     OW21466   3.756   2.403   2.982
 7005SOL    HW121467   3.839   2.401   2.934
 7005SOL    HW221468   3.783   2.406   3.074
 7006SOL     OW21469   3.897   2.377   3.586
 7006SOL    HW121470   3.922   2.315   3.518
 7006SOL    HW221471   3.859   2.451   3.538
 7007SOL     OW21472   3.938   3.391   3.590
 7007SOL    HW121473   3.925   3.480   3.622
 7007SOL    HW221474   3.990   3.348   3.658
 7008SOL     OW21475   3.859   3.001   3.333
 7008SOL    HW121476   3.935   3.005   3.392
 7008SOL    HW221477   3.891   2.953   3.256
 7009SOL     OW21478   3.810   3.134   2.872
 7009SOL    HW121479   3.782   3.144   2.963
 7009SOL    HW221480   3.753   3.065   2.837
 7010SOL     OW21481   3.843   3.645   3.685
 7010SOL    HW121482   3.792   3.581   3.735
 7010SOL    HW221483   3.888   3.697   3.751
 7011SOL     OW21484   3.801   2.193   1.906
 7011SOL    HW121485   3.717   2.158   1.874
 7011SOL    HW221486   3.820   2.266   1.847
 7012SOL     OW21487   3.761   2.025   2.174
 7012SOL    HW121488   3.754   2.083   2.099
 7012SOL    HW221489   3.851   2.036   2.204
 7013SOL     OW21490   3.801   3.099   2.528
 7013SOL    HW121491   3.794   3.050   2.611
 7013SOL    HW221492   3.879   3.062   2.486
 7014SOL     OW21493   3.751   2.939   2.175
 7014SOL    HW121494   3.841   2.942   2.142
 7014SOL    HW221495   3.735   2.846   2.193
 7015SOL     OW21496   3.953   2.495   3.835
 7015SOL    HW121497   3.873   2.491   3.886
 7015SOL    HW221498   3.929   2.458   3.750
 7016SOL     OW21499   3.962   2.125   4.712
 7016SOL    HW121500   3.966   2.118   4.807
 7016SOL    HW221501   3.870   2.113   4.691
 7017SOL     OW21502   3.721   2.242   4.360
 7017SOL    HW121503   3.642   2.268   4.408
 7017SOL    HW221504   3.698   2.159   4.319
 7018SOL     OW21505   0.012   3.387   4.778
 7018SOL    HW121506   3.957   3.311   4.760
 7018SOL    HW221507   0.076   3.388   4.707
 7019SOL     OW21508   3.940   3.580   4.201
 7019SOL    HW121509   3.948   3.654   4.261
 7019SOL    HW221510   0.030   3.562   4.174
 7020SOL     OW21511   3.942   3.299   4.229
 7020SOL    HW121512   3.925   3.394   4.231
 7020SOL    HW221513   3.887   3.263   4.298
 7021SOL     OW21514   3.813   2.501   4.286
 7021SOL    HW121515   3.782   2.413   4.309
 7021SOL    HW221516   3.810   2.550   4.367
 7022SOL     OW21517   3.757   3.456   3.856
 7022SOL    HW121518   3.737   3.364   3.871
 7022SOL    HW221519   3.725   3.501   3.934
 7023SOL     OW21520   3.823   2.604   5.305
 7023SOL    HW121521   3.903   2.653   5.325
 7023SOL    HW221522   3.755   2.672   5.296
 7024SOL     OW21523   3.806   2.679   4.494
 7024SOL    HW121524   3.900   2.678   4.511
 7024SOL    HW221525   3.773   2.750   4.549
 7025SOL     OW21526   3.849   3.728   5.293
 7025SOL    HW121527   3.846   3.699   5.385
 7025SOL    HW221528   3.766   3.697   5.256
 7026SOL     OW21529   3.921   2.151   5.240
 7026SOL    HW121530   3.840   2.194   5.216
 7026SOL    HW221531   3.893   2.065   5.273
 7027SOL     OW21532   4.000   1.893   3.884
 7027SOL    HW121533   0.038   1.980   3.869
 7027SOL    HW221534   0.058   1.852   3.948
 7028SOL     OW21535   3.811   2.407   5.116
 7028SOL    HW121536   3.907   2.404   5.106
 7028SOL    HW221537   3.796   2.481   5.175
 7029SOL     OW21538   0.279   2.151   4.043
 7029SOL    HW121539   0.296   2.074   3.988
 7029SOL    HW221540   0.328   2.222   4.000
 7030SOL     OW21541   3.793   3.436   5.075
 7030SOL    HW121542   3.767   3.498   5.008
 7030SOL    HW221543   3.888   3.443   5.079
 7031SOL     OW21544   0.064   2.958   4.259
 7031SOL    HW121545   0.054   2.994   4.171
 7031SOL    HW221546   0.140   2.899   4.252
 7032SOL     OW21547   0.002   2.073   4.977
 7032SOL    HW121548   3.973   2.105   5.063
 7032SOL    HW221549   0.013   1.978   4.989
 7033SOL     OW21550   3.750   3.175   5.000
 7033SOL    HW121551   3.792   3.124   5.069
 7033SOL    HW221552   3.764   3.266   5.024
 7034SOL     OW21553   3.994   1.922   4.379
 7034SOL    HW121554   0.002   2.017   4.393
 7034SOL    HW221555   0.018   1.883   4.463
 7035SOL     OW21556   3.727   3.187   3.911
 7035SOL    HW121557   3.641   3.201   3.872
 7035SOL    HW221558   3.718   3.103   3.958
 7036SOL     OW21559   3.803   3.650   4.664
 7036SOL    HW121560   3.779   3.570   4.617
 7036SOL    HW221561   3.897   3.657   4.653
 7037SOL     OW21562   0.208   3.418   4.589
 7037SOL    HW121563   0.282   3.478   4.582
 7037SOL    HW221564   0.224   3.354   4.519
 7038SOL     OW21565   3.756   2.403   4.844
 7038SOL    HW121566   3.839   2.401   4.796
 7038SOL    HW221567   3.783   2.406   4.936
 7039SOL     OW21568   3.897   2.378   5.448
 7039SOL    HW121569   3.922   2.315   5.380
 7039SOL    HW221570   3.858   2.451   5.400
 7040SOL     OW21571   3.938   3.391   5.451
 7040SOL    HW121572   3.925   3.480   5.484
 7040SOL    HW221573   3.990   3.348   5.519
 7041SOL     OW21574   3.859   3.001   5.195
 7041SOL    HW121575   3.934   3.005   5.254
 7041SOL    HW221576   3.891   2.953   5.118
 7042SOL     OW21577   3.810   3.134   4.734
 7042SOL    HW121578   3.782   3.144   4.825
 7042SOL    HW221579   3.753   3.065   4.699
 7043SOL     OW21580   3.843   3.645   5.547
 7043SOL    HW121581   3.792   3.581   5.597
 7043SOL    HW221582   3.888   3.697   5.613
 7044SOL     OW21583   3.801   2.193   3.768
 7044SOL    HW121584   3.717   2.158   3.736
 7044SOL    HW221585   3.820   2.266   3.709
 7045SOL     OW21586   3.761   2.025   4.036
 7045SOL    HW121587   3.754   2.083   3.961
 7045SOL    HW221588   3.851   2.036   4.066
 7046SOL     OW21589   3.801   3.099   4.390
 7046SOL    HW121590   3.794   3.050   4.473
 7046SOL    HW221591   3.879   3.062   4.348
 7047SOL     OW21592   3.751   2.939   4.037
 7047SOL    HW121593   3.841   2.942   4.004
 7047SOL    HW221594   3.735   2.846   4.055
 7048SOL     OW21595   3.953   2.495   5.697
 7048SOL    HW121596   3.873   2.491   5.748
 7048SOL    HW221597   3.929   2.458   5.612
 7049SOL     OW21598   3.962   2.125   6.574
 7049SOL    HW121599   3.966   2.118   6.670
 7049SOL    HW221600   3.870   2.113   6.553
 7050SOL     OW21601   3.721   2.242   6.223
 7050SOL    HW121602   3.642   2.268   6.270
 7050SOL    HW221603   3.698   2.159   6.181
 7051SOL     OW21604   0.012   3.387   6.640
 7051SOL    HW121605   3.957   3.311   6.622
 7051SOL    HW221606   0.076   3.388   6.570
 7052SOL     OW21607   3.940   3.580   6.063
 7052SOL    HW121608   3.948   3.654   6.123
 7052SOL    HW221609   0.030   3.562   6.036
 7053SOL     OW21610   3.942   3.299   6.091
 7053SOL    HW121611   3.925   3.394   6.093
 7053SOL    HW221612   3.887   3.263   6.160
 7054SOL     OW21613   3.813   2.501   6.148
 7054SOL    HW121614   3.782   2.413   6.171
 7054SOL    HW221615   3.810   2.550   6.230
 7055SOL     OW21616   3.757   3.456   5.718
 7055SOL    HW121617   3.737   3.364   5.733
 7055SOL    HW221618   3.725   3.501   5.796
 7056SOL     OW21619   3.823   2.604   7.167
 7056SOL    HW121620   3.903   2.653   7.187
 7056SOL    HW221621   3.755   2.672   7.158
 7057SOL     OW21622   3.806   2.678   6.357
 7057SOL    HW121623   3.900   2.678   6.373
 7057SOL    HW221624   3.773   2.750   6.411
 7058SOL     OW21625   3.849   3.728   7.155
 7058SOL    HW121626   3.846   3.699   7.247
 7058SOL    HW221627   3.766   3.697   7.118
 7059SOL     OW21628   3.921   2.151   7.102
 7059SOL    HW121629   3.840   2.194   7.078
 7059SOL    HW221630   3.893   2.065   7.135
 7060SOL     OW21631   0.000   1.893   5.746
 7060SOL    HW121632   0.038   1.980   5.731
 7060SOL    HW221633   0.059   1.852   5.810
 7061SOL     OW21634   3.812   2.407   6.978
 7061SOL    HW121635   3.907   2.403   6.968
 7061SOL    HW221636   3.797   2.481   7.037
 7062SOL     OW21637   0.279   2.151   5.904
 7062SOL    HW121638   0.296   2.074   5.850
 7062SOL    HW221639   0.328   2.222   5.862
 7063SOL     OW21640   3.793   3.436   6.937
 7063SOL    HW121641   3.767   3.498   6.870
 7063SOL    HW221642   3.888   3.443   6.941
 7064SOL     OW21643   0.064   2.959   6.121
 7064SOL    HW121644   0.054   2.994   6.033
 7064SOL    HW221645   0.139   2.899   6.114
 7065SOL     OW21646   0.002   2.073   6.839
 7065SOL    HW121647   3.973   2.104   6.925
 7065SOL    HW221648   0.013   1.978   6.851
 7066SOL     OW21649   3.749   3.175   6.862
 7066SOL    HW121650   3.792   3.124   6.931
 7066SOL    HW221651   3.764   3.267   6.887
 7067SOL     OW21652   3.993   1.922   6.241
 7067SOL    HW121653   0.002   2.017   6.255
 7067SOL    HW221654   0.017   1.883   6.325
 7068SOL     OW21655   3.727   3.187   5.773
 7068SOL    HW121656   3.641   3.201   5.734
 7068SOL    HW221657   3.718   3.103   5.820
 7069SOL     OW21658   3.803   3.650   6.526
 7069SOL    HW121659   3.779   3.570   6.479
 7069SOL    HW221660   3.898   3.657   6.515
 7070SOL     OW21661   0.208   3.418   6.451
 7070SOL    HW121662   0.282   3.478   6.444
 7070SOL    HW221663   0.224   3.354   6.381
 7071SOL     OW21664   3.756   2.403   6.706
 7071SOL    HW121665   3.839   2.401   6.657
 7071SOL    HW221666   3.783   2.406   6.798
 7072SOL     OW21667   3.897   2.377   7.310
 7072SOL    HW121668   3.922   2.315   7.242
 7072SOL    HW221669   3.858   2.451   7.262
 7073SOL     OW21670   3.938   3.391   7.314
 7073SOL    HW121671   3.926   3.480   7.346
 7073SOL    HW221672   3.990   3.348   7.382
 7074SOL     OW21673   3.859   3.001   7.057
 7074SOL    HW121674   3.935   3.004   7.116
 7074SOL    HW221675   3.891   2.953   6.980
 7075SOL     OW21676   3.810   3.134   6.596
 7075SOL    HW121677   3.782   3.144   6.687
 7075SOL    HW221678   3.753   3.065   6.561
 7076SOL     OW21679   3.843   3.645   7.409
 7076SOL    HW121680   3.792   3.581   7.459
 7076SOL    HW221681   3.888   3.697   7.475
 7077SOL     OW21682   3.801   2.193   5.630
 7077SOL    HW121683   3.717   2.158   5.598
 7077SOL    HW221684   3.820   2.266   5.571
 7078SOL     OW21685   3.761   2.025   5.898
 7078SOL    HW121686   3.753   2.083   5.823
 7078SOL    HW221687   3.851   2.036   5.928
 7079SOL     OW21688   3.802   3.099   6.253
 7079SOL    HW121689   3.794   3.050   6.335
 7079SOL    HW221690   3.879   3.062   6.210
 7080SOL     OW21691   3.751   2.939   5.899
 7080SOL    HW121692   3.841   2.942   5.866
 7080SOL    HW221693   3.735   2.846   5.917
 7081SOL     OW21694   3.953   2.495   7.559
 7081SOL    HW121695   3.873   2.491   7.610
 7081SOL    HW221696   3.929   2.459   7.473
 7082SOL     OW21697   3.962   2.125   8.436
 7082SOL    HW121698   3.966   2.119   8.532
 7082SOL    HW221699   3.870   2.113   8.415
 7083SOL     OW21700   3.721   2.242   8.085
 7083SOL    HW121701   3.642   2.268   8.133
 7083SOL    HW221702   3.698   2.159   8.043
 7084SOL     OW21703   0.012   3.387   8.502
 7084SOL    HW121704   3.957   3.311   8.484
 7084SOL    HW221705   0.077   3.388   8.432
 7085SOL     OW21706   3.940   3.580   7.925
 7085SOL    HW121707   3.948   3.654   7.985
 7085SOL    HW221708   0.030   3.562   7.897
 7086SOL     OW21709   3.943   3.299   7.953
 7086SOL    HW121710   3.925   3.394   7.955
 7086SOL    HW221711   3.887   3.263   8.022
 7087SOL     OW21712   3.813   2.501   8.010
 7087SOL    HW121713   3.782   2.413   8.033
 7087SOL    HW221714   3.810   2.550   8.092
 7088SOL     OW21715   3.757   3.456   7.580
 7088SOL    HW121716   3.737   3.364   7.595
 7088SOL    HW221717   3.725   3.501   7.658
 7089SOL     OW21718   3.823   2.604   9.029
 7089SOL    HW121719   3.903   2.653   9.049
 7089SOL    HW221720   3.755   2.672   9.020
 7090SOL     OW21721   3.806   2.678   8.219
 7090SOL    HW121722   3.900   2.678   8.235
 7090SOL    HW221723   3.772   2.750   8.273
 7091SOL     OW21724   3.849   3.728   9.017
 7091SOL    HW121725   3.846   3.699   9.109
 7091SOL    HW221726   3.766   3.697   8.980
 7092SOL     OW21727   3.921   2.151   8.964
 7092SOL    HW121728   3.839   2.194   8.939
 7092SOL    HW221729   3.893   2.065   8.997
 7093SOL     OW21730   0.000   1.893   7.608
 7093SOL    HW121731   0.038   1.980   7.592
 7093SOL    HW221732   0.059   1.853   7.672
 7094SOL     OW21733   3.812   2.407   8.840
 7094SOL    HW121734   3.907   2.404   8.830
 7094SOL    HW221735   3.797   2.481   8.899
 7095SOL     OW21736   0.278   2.151   7.766
 7095SOL    HW121737   0.296   2.074   7.712
 7095SOL    HW221738   0.328   2.221   7.724
 7096SOL     OW21739   3.793   3.436   8.799
 7096SOL    HW121740   3.766   3.498   8.732
 7096SOL    HW221741   3.888   3.443   8.803
 7097SOL     OW21742   0.064   2.958   7.983
 7097SOL    HW121743   0.054   2.994   7.895
 7097SOL    HW221744   0.139   2.899   7.976
 7098SOL     OW21745   0.002   2.073   8.702
 7098SOL    HW121746   3.973   2.104   8.787
 7098SOL    HW221747   0.012   1.978   8.713
 7099SOL     OW21748   3.750   3.175   8.724
 7099SOL    HW121749   3.792   3.124   8.793
 7099SOL    HW221750   3.764   3.267   8.748
 7100SOL     OW21751   3.993   1.922   8.103
 7100SOL    HW121752   0.002   2.017   8.116
 7100SOL    HW221753   0.017   1.884   8.187
 7101SOL     OW21754   3.727   3.187   7.635
 7101SOL    HW121755   3.641   3.201   7.596
 7101SOL    HW221756   3.718   3.103   7.682
 7102SOL     OW21757   3.803   3.650   8.388
 7102SOL    HW121758   3.779   3.570   8.341
 7102SOL    HW221759   3.898   3.657   8.377
 7103SOL     OW21760   0.208   3.418   8.312
 7103SOL    HW121761   0.282   3.478   8.306
 7103SOL    HW221762   0.223   3.354   8.243
 7104SOL     OW21763   3.756   2.402   8.568
 7104SOL    HW121764   3.838   2.401   8.519
 7104SOL    HW221765   3.783   2.406   8.660
 7105SOL     OW21766   3.897   2.377   9.172
 7105SOL    HW121767   3.922   2.315   9.104
 7105SOL    HW221768   3.859   2.451   9.124
 7106SOL     OW21769   3.938   3.391   9.176
 7106SOL    HW121770   3.925   3.480   9.208
 7106SOL    HW221771   3.990   3.348   9.244
 7107SOL     OW21772   3.859   3.001   8.919
 7107SOL    HW121773   3.935   3.005   8.977
 7107SOL    HW221774   3.890   2.953   8.842
 7108SOL     OW21775   3.810   3.134   8.458
 7108SOL    HW121776   3.782   3.144   8.549
 7108SOL    HW221777   3.753   3.065   8.423
 7109SOL     OW21778   3.843   3.645   9.271
 7109SOL    HW121779   3.792   3.581   9.321
 7109SOL    HW221780   3.888   3.697   9.337
 7110SOL     OW21781   3.800   2.193   7.492
 7110SOL    HW121782   3.717   2.158   7.460
 7110SOL    HW221783   3.820   2.266   7.433
 7111SOL     OW21784   3.761   2.025   7.760
 7111SOL    HW121785   3.754   2.083   7.684
 7111SOL    HW221786   3.851   2.036   7.790
 7112SOL     OW21787   3.801   3.099   8.114
 7112SOL    HW121788   3.794   3.050   8.197
 7112SOL    HW221789   3.879   3.062   8.072
 7113SOL     OW21790   3.751   2.939   7.761
 7113SOL    HW121791   3.841   2.942   7.728
 7113SOL    HW221792   3.735   2.846   7.779
 7114SOL     OW21793   3.953   2.495   9.421
 7114SOL    HW121794   3.873   2.491   9.472
 7114SOL    HW221795   3.930   2.458   9.335
 7115SOL     OW21796   3.962   2.125  10.298
 7115SOL    HW121797   3.966   2.119  10.394
 7115SOL    HW221798   3.870   2.113  10.277
 7116SOL     OW21799   3.721   2.242   9.946
 7116SOL    HW121800   3.642   2.268   9.994
 7116SOL    HW221801   3.698   2.159   9.905
 7117SOL     OW21802   0.012   3.387  10.364
 7117SOL    HW121803   3.957   3.311  10.346
 7117SOL    HW221804   0.076   3.388  10.294
 7118SOL     OW21805   3.940   3.580   9.787
 7118SOL    HW121806   3.948   3.654   9.847
 7118SOL    HW221807   0.030   3.562   9.759
 7119SOL     OW21808   3.943   3.299   9.815
 7119SOL    HW121809   3.925   3.394   9.817
 7119SOL    HW221810   3.887   3.263   9.884
 7120SOL     OW21811   3.814   2.500   9.872
 7120SOL    HW121812   3.782   2.413   9.895
 7120SOL    HW221813   3.810   2.550   9.953
 7121SOL     OW21814   3.757   3.456   9.442
 7121SOL    HW121815   3.737   3.364   9.457
 7121SOL    HW221816   3.725   3.501   9.520
 7122SOL     OW21817   3.823   2.604  10.891
 7122SOL    HW121818   3.903   2.653  10.911
 7122SOL    HW221819   3.755   2.672  10.882
 7123SOL     OW21820   3.806   2.678  10.081
 7123SOL    HW121821   3.900   2.678  10.097
 7123SOL    HW221822   3.772   2.750  10.134
 7124SOL     OW21823   3.849   3.728  10.879
 7124SOL    HW121824   3.846   3.699  10.971
 7124SOL    HW221825   3.766   3.697  10.842
 7125SOL     OW21826   3.921   2.151  10.826
 7125SOL    HW121827   3.839   2.194  10.801
 7125SOL    HW221828   3.893   2.065  10.859
 7126SOL     OW21829   4.000   1.893   9.470
 7126SOL    HW121830   0.038   1.980   9.454
 7126SOL    HW221831   0.058   1.852   9.534
 7127SOL     OW21832   3.812   2.407  10.702
 7127SOL    HW121833   3.907   2.404  10.692
 7127SOL    HW221834   3.797   2.481  10.761
 7128SOL     OW21835   0.280   2.151   9.629
 7128SOL    HW121836   0.296   2.074   9.574
 7128SOL    HW221837   0.328   2.221   9.586
 7129SOL     OW21838   3.793   3.436  10.661
 7129SOL    HW121839   3.766   3.498  10.594
 7129SOL    HW221840   3.888   3.443  10.665
 7130SOL     OW21841   0.064   2.958   9.845
 7130SOL    HW121842   0.053   2.994   9.757
 7130SOL    HW221843   0.139   2.899   9.838
 7131SOL     OW21844   0.003   2.073  10.564
 7131SOL    HW121845   3.973   2.105  10.649
 7131SOL    HW221846   0.012   1.978  10.575
 7132SOL     OW21847   3.750   3.175  10.586
 7132SOL    HW121848   3.792   3.124  10.655
 7132SOL    HW221849   3.764   3.267  10.610
 7133SOL     OW21850   3.994   1.922   9.965
 7133SOL    HW121851   0.002   2.017   9.979
 7133SOL    HW221852   0.018   1.884  10.049
 7134SOL     OW21853   3.727   3.186   9.497
 7134SOL    HW121854   3.641   3.201   9.458
 7134SOL    HW221855   3.718   3.103   9.544
 7135SOL     OW21856   3.803   3.650  10.250
 7135SOL    HW121857   3.779   3.570  10.203
 7135SOL    HW221858   3.898   3.657  10.239
 7136SOL     OW21859   0.208   3.418  10.175
 7136SOL    HW121860   0.282   3.478  10.168
 7136SOL    HW221861   0.223   3.354  10.105
 7137SOL     OW21862   3.756   2.403  10.430
 7137SOL    HW121863   3.838   2.401  10.382
 7137SOL    HW221864   3.783   2.406  10.522
 7138SOL     OW21865   3.897   2.377  11.034
 7138SOL    HW121866   3.922   2.315  10.966
 7138SOL    HW221867   3.859   2.451  10.986
 7139SOL     OW21868   3.938   3.391  11.038
 7139SOL    HW121869   3.925   3.480  11.070
 7139SOL    HW221870   3.990   3.348  11.106
 7140SOL     OW21871   3.859   3.001  10.781
 7140SOL    HW121872   3.935   3.005  10.839
 7140SOL    HW221873   3.890   2.953  10.704
 7141SOL     OW21874   3.810   3.134  10.320
 7141SOL    HW121875   3.782   3.144  10.411
 7141SOL    HW221876   3.753   3.065  10.285
 7142SOL     OW21877   3.843   3.645  11.133
 7142SOL    HW121878   3.792   3.581  11.183
 7142SOL    HW221879   3.888   3.697  11.199
 7143SOL     OW21880   3.801   2.193   9.354
 7143SOL    HW121881   3.717   2.158   9.322
 7143SOL    HW221882   3.820   2.266   9.295
 7144SOL     OW21883   3.761   2.025   9.622
 7144SOL    HW121884   3.754   2.083   9.547
 7144SOL    HW221885   3.852   2.036   9.652
 7145SOL     OW21886   3.801   3.099   9.977
 7145SOL    HW121887   3.794   3.050  10.059
 7145SOL    HW221888   3.879   3.062   9.934
 7146SOL     OW21889   3.751   2.939   9.623
 7146SOL    HW121890   3.841   2.942   9.590
 7146SOL    HW221891   3.735   2.846   9.641
 7147SOL     OW21892   3.953   2.495  11.283
 7147SOL    HW121893   3.873   2.491  11.334
 7147SOL    HW221894   3.929   2.458  11.197
 7148SOL     OW21895   3.962   2.125  12.160
 7148SOL    HW121896   3.966   2.119  12.256
 7148SOL    HW221897   3.870   2.113  12.139
 7149SOL     OW21898   3.721   2.242  11.808
 7149SOL    HW121899   3.642   2.268  11.856
 7149SOL    HW221900   3.698   2.159  11.767
 7150SOL     OW21901   0.012   3.387  12.226
 7150SOL    HW121902   3.957   3.311  12.208
 7150SOL    HW221903   0.077   3.388  12.156
 7151SOL     OW21904   3.940   3.580  11.649
 7151SOL    HW121905   3.948   3.654  11.709
 7151SOL    HW221906   0.030   3.562  11.621
 7152SOL     OW21907   3.943   3.299  11.677
 7152SOL    HW121908   3.925   3.394  11.679
 7152SOL    HW221909   3.887   3.263  11.746
 7153SOL     OW21910   3.813   2.500  11.734
 7153SOL    HW121911   3.782   2.413  11.757
 7153SOL    HW221912   3.810   2.550  11.815
 7154SOL     OW21913   3.757   3.456  11.304
 7154SOL    HW121914   3.737   3.364  11.319
 7154SOL    HW221915   3.725   3.501  11.382
 7155SOL     OW21916   3.822   2.604  12.754
 7155SOL    HW121917   3.903   2.653  12.773
 7155SOL    HW221918   3.755   2.672  12.744
 7156SOL     OW21919   3.806   2.678  11.942
 7156SOL    HW121920   3.900   2.678  11.959
 7156SOL    HW221921   3.772   2.750  11.996
 7157SOL     OW21922   3.849   3.728  12.743
 7157SOL    HW121923   3.847   3.700  12.835
 7157SOL    HW221924   3.767   3.696  12.706
 7158SOL     OW21925   3.921   2.151  12.688
 7158SOL    HW121926   3.839   2.194  12.663
 7158SOL    HW221927   3.893   2.065  12.721
 7159SOL     OW21928   4.000   1.893  11.332
 7159SOL    HW121929   0.038   1.980  11.317
 7159SOL    HW221930   0.058   1.852  11.396
 7160SOL     OW21931   3.812   2.407  12.564
 7160SOL    HW121932   3.907   2.404  12.554
 7160SOL    HW221933   3.797   2.481  12.623
 7161SOL     OW21934   0.280   2.151  11.491
 7161SOL    HW121935   0.296   2.074  11.436
 7161SOL    HW221936   0.328   2.221  11.448
 7162SOL     OW21937   3.793   3.436  12.523
 7162SOL    HW121938   3.766   3.498  12.456
 7162SOL    HW221939   3.888   3.443  12.527
 7163SOL     OW21940   0.064   2.958  11.707
 7163SOL    HW121941   0.053   2.994  11.619
 7163SOL    HW221942   0.139   2.899  11.700
 7164SOL     OW21943   0.002   2.073  12.426
 7164SOL    HW121944   3.973   2.105  12.511
 7164SOL    HW221945   0.012   1.979  12.437
 7165SOL     OW21946   3.750   3.175  12.448
 7165SOL    HW121947   3.792   3.124  12.517
 7165SOL    HW221948   3.764   3.267  12.472
 7166SOL     OW21949   3.994   1.922  11.827
 7166SOL    HW121950   0.002   2.017  11.841
 7166SOL    HW221951   0.018   1.884  11.911
 7167SOL     OW21952   3.727   3.186  11.359
 7167SOL    HW121953   3.641   3.201  11.320
 7167SOL    HW221954   3.718   3.103  11.406
 7168SOL     OW21955   3.803   3.650  12.112
 7168SOL    HW121956   3.780   3.570  12.065
 7168SOL    HW221957   3.898   3.657  12.101
 7169SOL     OW21958   0.208   3.418  12.036
 7169SOL    HW121959   0.282   3.478  12.030
 7169SOL    HW221960   0.223   3.354  11.967
 7170SOL     OW21961   3.756   2.403  12.292
 7170SOL    HW121962   3.838   2.401  12.244
 7170SOL    HW221963   3.783   2.406  12.384
 7171SOL     OW21964   3.897   2.378  12.896
 7171SOL    HW121965   3.922   2.315  12.828
 7171SOL    HW221966   3.859   2.451  12.849
 7172SOL     OW21967   3.938   3.392  12.900
 7172SOL    HW121968   3.925   3.481  12.934
 7172SOL    HW221969   3.987   3.347  12.969
 7173SOL     OW21970   3.859   3.001  12.643
 7173SOL    HW121971   3.935   3.005  12.701
 7173SOL    HW221972   3.890   2.953  12.566
 7174SOL     OW21973   3.810   3.134  12.182
 7174SOL    HW121974   3.782   3.144  12.273
 7174SOL    HW221975   3.753   3.065  12.147
 7175SOL     OW21976   3.844   3.647  12.997
 7175SOL    HW121977   3.794   3.583  13.047
 7175SOL    HW221978   3.888   3.700  13.064
 7176SOL     OW21979   3.801   2.193  11.216
 7176SOL    HW121980   3.717   2.158  11.184
 7176SOL    HW221981   3.820   2.266  11.157
 7177SOL     OW21982   3.761   2.025  11.484
 7177SOL    HW121983   3.754   2.083  11.409
 7177SOL    HW221984   3.852   2.036  11.514
 7178SOL     OW21985   3.801   3.099  11.839
 7178SOL    HW121986   3.794   3.050  11.921
 7178SOL    HW221987   3.879   3.062  11.796
 7179SOL     OW21988   3.751   2.939  11.485
 7179SOL    HW121989   3.841   2.942  11.452
 7179SOL    HW221990   3.735   2.846  11.503
 7180SOL     OW21991   3.950   2.494  13.146
 7180SOL    HW121992   3.868   2.489  13.195
 7180SOL    HW221993   3.929   2.458  13.060
 7181SOL     OW21994   3.719   2.244  13.661
 7181SOL    HW121995   3.632   2.274  13.689
 7181SOL    HW221996   3.703   2.160  13.619
 7182SOL     OW21997   3.942   3.577  13.502
 7182SOL    HW121998   3.937   3.654  13.559
 7182SOL    HW221999   0.036   3.565  13.486
 7183SOL     OW22000   3.943   3.297  13.534
 7183SOL    HW122001   3.929   3.391  13.535
 7183SOL    HW222002   3.885   3.263  13.602
 7184SOL     OW22003   3.940   2.958   0.009
 7184SOL    HW122004   3.980   2.918   0.086
 7184SOL    HW222005   3.847   2.968   0.033
 7185SOL     OW22006   3.833   2.500  13.597
 7185SOL    HW122007   3.783   2.421  13.612
 7185SOL    HW222008   3.817   2.554  13.675
 7186SOL     OW22009   3.753   3.457  13.163
 7186SOL    HW122010   3.735   3.364  13.179
 7186SOL    HW222011   3.723   3.502  13.242
 7187SOL     OW22012   3.801   2.672  13.806
 7187SOL    HW122013   3.895   2.684  13.821
 7187SOL    HW222014   3.761   2.746  13.851
 7188SOL     OW22015   0.120   3.640  13.843
 7188SOL    HW122016   0.077   3.580   0.004
 7188SOL    HW222017   0.189   3.680  13.895
 7189SOL     OW22018   0.001   1.895  13.195
 7189SOL    HW122019   0.044   1.978  13.173
 7189SOL    HW222020   0.060   1.854  13.258
 7190SOL     OW22021   0.277   2.153  13.344
 7190SOL    HW122022   0.299   2.074  13.293
 7190SOL    HW222023   0.332   2.221  13.306
 7191SOL     OW22024   0.067   2.962  13.561
 7191SOL    HW122025   0.060   2.999  13.473
 7191SOL    HW222026   0.143   2.905  13.557
 7192SOL     OW22027   3.979   1.923  13.673
 7192SOL    HW122028   3.999   2.016  13.683
 7192SOL    HW222029   0.021   1.881  13.747
 7193SOL     OW22030   3.727   3.187  13.221
 7193SOL    HW122031   3.641   3.201  13.181
 7193SOL    HW222032   3.717   3.104  13.268
 7194SOL     OW22033   0.320   3.406   0.007
 7194SOL    HW122034   0.253   3.462   0.048
 7194SOL    HW222035   0.271   3.348  13.849
 7195SOL     OW22036   3.800   2.192  13.077
 7195SOL    HW122037   3.716   2.158  13.046
 7195SOL    HW222038   3.820   2.265  13.019
 7196SOL     OW22039   3.763   2.026  13.347
 7196SOL    HW122040   3.756   2.082  13.269
 7196SOL    HW222041   3.853   2.037  13.376
 7197SOL     OW22042   3.809   3.092  13.686
 7197SOL    HW122043   3.805   3.032  13.761
 7197SOL    HW222044   3.885   3.061  13.636
 7198SOL     OW22045   3.751   2.938  13.345
 7198SOL    HW122046   3.840   2.942  13.311
 7198SOL    HW222047   3.737   2.845  13.364
 7199SOL     OW22048   3.965   3.974   0.989
 7199SOL    HW122049   3.967   3.966   1.085
 7199SOL    HW222050   3.876   3.951   0.965
 7200SOL     OW22051   3.749   0.052   0.690
 7200SOL    HW122052   3.674   0.111   0.690
 7200SOL    HW222053   3.715   3.971   0.651
 7201SOL     OW22054   3.908   3.996   1.513
 7201SOL    HW122055   3.820   0.031   1.522
 7201SOL    HW222056   3.905   3.911   1.556
 7202SOL     OW22057   3.975   3.775   0.178
 7202SOL    HW122058   0.009   3.842   0.119
 7202SOL    HW222059   0.046   3.711   0.186
 7203SOL     OW22060   3.996   3.933   1.258
 7203SOL    HW122061   3.954   3.942   1.343
 7203SOL    HW222062   0.028   3.844   1.256
 7204SOL     OW22063   0.023   3.775   0.648
 7204SOL    HW122064   0.044   3.868   0.650
 7204SOL    HW222065   0.032   3.746   0.738
 7205SOL     OW22066   3.783   3.869   0.345
 7205SOL    HW122067   3.788   3.964   0.337
 7205SOL    HW222068   3.857   3.837   0.292
 7206SOL     OW22069   3.966   3.971   2.850
 7206SOL    HW122070   3.967   3.966   2.946
 7206SOL    HW222071   3.876   3.951   2.826
 7207SOL     OW22072   3.746   0.051   2.555
 7207SOL    HW122073   3.671   0.111   2.553
 7207SOL    HW222074   3.714   3.971   2.514
 7208SOL     OW22075   3.908   3.995   3.375
 7208SOL    HW122076   3.820   0.031   3.384
 7208SOL    HW222077   3.905   3.910   3.418
 7209SOL     OW22078   3.987   3.768   2.019
 7209SOL    HW122079   0.028   3.841   1.972
 7209SOL    HW222080   0.056   3.735   2.076
 7210SOL     OW22081   3.995   3.934   3.119
 7210SOL    HW122082   3.954   3.943   3.205
 7210SOL    HW222083   0.028   3.844   3.118
 7211SOL     OW22084   0.014   3.777   2.515
 7211SOL    HW122085   0.047   3.867   2.518
 7211SOL    HW222086   0.027   3.744   2.604
 7212SOL     OW22087   3.805   0.048   1.884
 7212SOL    HW122088   3.742   0.018   1.819
 7212SOL    HW222089   3.805   0.144   1.876
 7213SOL     OW22090   3.780   3.868   2.186
 7213SOL    HW122091   3.777   3.963   2.173
 7213SOL    HW222092   3.863   3.841   2.146
 7214SOL     OW22093   3.966   3.971   4.712
 7214SOL    HW122094   3.967   3.966   4.808
 7214SOL    HW222095   3.876   3.951   4.688
 7215SOL     OW22096   3.746   0.051   4.417
 7215SOL    HW122097   3.671   0.111   4.415
 7215SOL    HW222098   3.714   3.971   4.376
 7216SOL     OW22099   3.908   3.995   5.236
 7216SOL    HW122100   3.820   0.031   5.246
 7216SOL    HW222101   3.905   3.910   5.280
 7217SOL     OW22102   3.987   3.768   3.881
 7217SOL    HW122103   0.028   3.841   3.834
 7217SOL    HW222104   0.056   3.735   3.939
 7218SOL     OW22105   3.995   3.934   4.981
 7218SOL    HW122106   3.954   3.943   5.067
 7218SOL    HW222107   0.028   3.844   4.980
 7219SOL     OW22108   0.014   3.777   4.377
 7219SOL    HW122109   0.047   3.867   4.380
 7219SOL    HW222110   0.027   3.744   4.466
 7220SOL     OW22111   3.806   0.048   3.747
 7220SOL    HW122112   3.742   0.018   3.681
 7220SOL    HW222113   3.806   0.143   3.738
 7221SOL     OW22114   3.780   3.868   4.048
 7221SOL    HW122115   3.777   3.963   4.035
 7221SOL    HW222116   3.863   3.841   4.008
 7222SOL     OW22117   3.966   3.971   6.574
 7222SOL    HW122118   3.967   3.966   6.670
 7222SOL    HW222119   3.876   3.950   6.550
 7223SOL     OW22120   3.746   0.051   6.279
 7223SOL    HW122121   3.671   0.111   6.277
 7223SOL    HW222122   3.714   3.971   6.238
 7224SOL     OW22123   3.908   3.995   7.098
 7224SOL    HW122124   3.820   0.031   7.108
 7224SOL    HW222125   3.905   3.910   7.142
 7225SOL     OW22126   3.987   3.768   5.743
 7225SOL    HW122127   0.028   3.841   5.696
 7225SOL    HW222128   0.056   3.735   5.801
 7226SOL     OW22129   3.996   3.934   6.843
 7226SOL    HW122130   3.954   3.943   6.929
 7226SOL    HW222131   0.028   3.844   6.842
 7227SOL     OW22132   0.014   3.777   6.239
 7227SOL    HW122133   0.047   3.867   6.242
 7227SOL    HW222134   0.027   3.744   6.328
 7228SOL     OW22135   3.805   0.048   5.609
 7228SOL    HW122136   3.742   0.018   5.543
 7228SOL    HW222137   3.805   0.143   5.600
 7229SOL     OW22138   3.780   3.868   5.910
 7229SOL    HW122139   3.777   3.963   5.897
 7229SOL    HW222140   3.863   3.841   5.870
 7230SOL     OW22141   3.966   3.971   8.436
 7230SOL    HW122142   3.967   3.966   8.532
 7230SOL    HW222143   3.876   3.951   8.412
 7231SOL     OW22144   3.746   0.051   8.141
 7231SOL    HW122145   3.671   0.111   8.139
 7231SOL    HW222146   3.714   3.971   8.100
 7232SOL     OW22147   3.908   3.995   8.960
 7232SOL    HW122148   3.820   0.031   8.970
 7232SOL    HW222149   3.905   3.910   9.004
 7233SOL     OW22150   3.987   3.768   7.605
 7233SOL    HW122151   0.028   3.841   7.558
 7233SOL    HW222152   0.056   3.735   7.662
 7234SOL     OW22153   3.996   3.934   8.705
 7234SOL    HW122154   3.954   3.943   8.791
 7234SOL    HW222155   0.028   3.844   8.704
 7235SOL     OW22156   0.014   3.777   8.101
 7235SOL    HW122157   0.047   3.867   8.103
 7235SOL    HW222158   0.027   3.744   8.190
 7236SOL     OW22159   3.805   0.048   7.471
 7236SOL    HW122160   3.742   0.018   7.405
 7236SOL    HW222161   3.805   0.144   7.462
 7237SOL     OW22162   3.780   3.868   7.772
 7237SOL    HW122163   3.777   3.963   7.759
 7237SOL    HW222164   3.863   3.841   7.732
 7238SOL     OW22165   3.966   3.971  10.298
 7238SOL    HW122166   3.967   3.966  10.394
 7238SOL    HW222167   3.876   3.951  10.274
 7239SOL     OW22168   3.746   0.051  10.003
 7239SOL    HW122169   3.671   0.111  10.001
 7239SOL    HW222170   3.714   3.971   9.962
 7240SOL     OW22171   3.908   3.995  10.822
 7240SOL    HW122172   3.820   0.031  10.832
 7240SOL    HW222173   3.905   3.910  10.866
 7241SOL     OW22174   3.987   3.768   9.467
 7241SOL    HW122175   0.028   3.841   9.420
 7241SOL    HW222176   0.056   3.735   9.524
 7242SOL     OW22177   3.996   3.934  10.567
 7242SOL    HW122178   3.954   3.943  10.653
 7242SOL    HW222179   0.028   3.844  10.566
 7243SOL     OW22180   0.014   3.777   9.963
 7243SOL    HW122181   0.047   3.867   9.965
 7243SOL    HW222182   0.027   3.744  10.052
 7244SOL     OW22183   3.806   0.048   9.333
 7244SOL    HW122184   3.742   0.018   9.267
 7244SOL    HW222185   3.806   0.143   9.324
 7245SOL     OW22186   3.780   3.868   9.634
 7245SOL    HW122187   3.777   3.963   9.621
 7245SOL    HW222188   3.863   3.841   9.594
 7246SOL     OW22189   3.966   3.971  12.160
 7246SOL    HW122190   3.967   3.966  12.256
 7246SOL    HW222191   3.876   3.951  12.136
 7247SOL     OW22192   3.746   0.051  11.866
 7247SOL    HW122193   3.672   0.111  11.863
 7247SOL    HW222194   3.714   3.971  11.824
 7248SOL     OW22195   3.908   3.995  12.685
 7248SOL    HW122196   3.819   0.031  12.694
 7248SOL    HW222197   3.904   3.910  12.728
 7249SOL     OW22198   3.987   3.769  11.329
 7249SOL    HW122199   0.028   3.841  11.282
 7249SOL    HW222200   0.056   3.735  11.386
 7250SOL     OW22201   3.995   3.934  12.429
 7250SOL    HW122202   3.954   3.943  12.515
 7250SOL    HW222203   0.028   3.844  12.427
 7251SOL     OW22204   0.014   3.777  11.825
 7251SOL    HW122205   0.047   3.867  11.827
 7251SOL    HW222206   0.027   3.744  11.914
 7252SOL     OW22207   3.805   0.048  11.195
 7252SOL    HW122208   3.742   0.018  11.129
 7252SOL    HW222209   3.806   0.144  11.186
 7253SOL     OW22210   3.780   3.868  11.496
 7253SOL    HW122211   3.777   3.963  11.483
 7253SOL    HW222212   3.863   3.841  11.456
 7254SOL     OW22213   3.740   0.080  13.685
 7254SOL    HW122214   3.667   0.110  13.739
 7254SOL    HW222215   3.719   3.988  13.667
 7255SOL     OW22216   3.988   3.772  13.196
 7255SOL    HW122217   0.032   3.841  13.146
 7255SOL    HW222218   0.056   3.735  13.252
 7256SOL     OW22219   3.973   3.788  13.673
 7256SOL    HW122220   0.022   3.870  13.671
 7256SOL    HW222221   0.020   3.734  13.736
 7257SOL     OW22222   3.806   0.048  13.054
 7257SOL    HW122223   3.743   0.019  12.989
 7257SOL    HW222224   3.806   0.143  13.047
 7258SOL     OW22225   3.777   3.869  13.356
 7258SOL    HW122226   3.778   3.965  13.350
 7258SOL    HW222227   3.857   3.842  13.313
   4.00000   4.00000  13.90000
