Built with Packmol
22149
    1LIG      O    1   2.627   2.620   0.038
    1LIG      C    2   2.692   2.670   0.126
    1LIG     C1    3   2.621   2.617   0.219
    1LIG     O1    4   2.685   2.667   0.308
    1LIG     C2    5   2.620   2.618   0.396
    1LIG     C3    6   2.691   2.673   0.487
    1LIG     O2    7   2.627   2.625   0.575
    1LIG     C4    8   2.690   2.675   0.664
    1LIG     C5    9   2.618   2.620   0.756
    1LIG     O3   10   2.681   2.670   0.844
    1LIG     C6   11   2.616   2.621   0.932
    1LIG     C7   12   2.688   2.677   1.023
    1LIG     O4   13   2.624   2.629   1.112
    1LIG     C8   14   2.688   2.679   1.200
    1LIG     C9   15   2.615   2.623   1.291
    1LIG     O5   16   2.678   2.673   1.379
    1LIG    C10   17   2.614   2.624   1.468
    1LIG    C11   18   2.687   2.680   1.559
    1LIG     O6   19   2.623   2.631   1.647
    1LIG    C12   20   2.686   2.680   1.735
    1LIG    C13   21   2.613   2.625   1.827
    1LIG     O7   22   2.677   2.674   1.915
    1LIG    C14   23   2.613   2.625   2.003
    1LIG    C15   24   2.685   2.680   2.095
    1LIG     O8   25   2.621   2.631   2.184
    1LIG    C16   26   2.685   2.681   2.272
    1LIG    C17   27   2.614   2.626   2.363
    1LIG     O9   28   2.677   2.675   2.452
    1LIG    C18   29   2.612   2.626   2.540
    1LIG    C19   30   2.684   2.681   2.631
    1LIG    O10   31   2.620   2.632   2.720
    1LIG    C20   32   2.684   2.682   2.807
    1LIG    C21   33   2.612   2.626   2.899
    1LIG    O11   34   2.676   2.675   2.987
    1LIG    C22   35   2.612   2.626   3.075
    1LIG    C23   36   2.684   2.682   3.166
    1LIG    O12   37   2.620   2.633   3.254
    1LIG    C24   38   2.684   2.682   3.343
    1LIG    C25   39   2.612   2.627   3.435
    1LIG    O13   40   2.675   2.676   3.524
    1LIG    C26   41   2.611   2.627   3.611
    1LIG    C27   42   2.683   2.682   3.703
    1LIG    O14   43   2.619   2.633   3.791
    1LIG    C28   44   2.684   2.682   3.879
    1LIG    C29   45   2.612   2.626   3.971
    1LIG    O15   46   2.676   2.675   4.059
    1LIG    C30   47   2.612   2.626   4.147
    1LIG    C31   48   2.684   2.681   4.238
    1LIG    O16   49   2.620   2.632   4.326
    1LIG    C32   50   2.684   2.681   4.415
    1LIG    C33   51   2.612   2.626   4.506
    1LIG    O17   52   2.676   2.675   4.595
    1LIG    C34   53   2.612   2.625   4.683
    1LIG    C35   54   2.683   2.680   4.774
    1LIG    O18   55   2.620   2.631   4.863
    1LIG    C36   56   2.684   2.680   4.951
    1LIG    C37   57   2.613   2.625   5.042
    1LIG    O19   58   2.677   2.674   5.131
    1LIG    C38   59   2.613   2.624   5.219
    1LIG    C39   60   2.684   2.679   5.311
    1LIG    O20   61   2.621   2.630   5.399
    1LIG    C40   62   2.685   2.679   5.487
    1LIG    C41   63   2.614   2.624   5.579
    1LIG    O21   64   2.677   2.673   5.667
    1LIG    C42   65   2.613   2.623   5.755
    1LIG    C43   66   2.685   2.678   5.846
    1LIG    O22   67   2.622   2.629   5.935
    1LIG    C44   68   2.686   2.678   6.023
    1LIG    C45   69   2.614   2.622   6.114
    1LIG    O23   70   2.677   2.671   6.202
    1LIG    C46   71   2.614   2.622   6.291
    1LIG    C47   72   2.686   2.678   6.382
    1LIG    O24   73   2.623   2.628   6.470
    1LIG    C48   74   2.686   2.677   6.558
    1LIG    C49   75   2.614   2.621   6.650
    1LIG    O25   76   2.678   2.670   6.738
    1LIG    C50   77   2.615   2.621   6.826
    1LIG    C51   78   2.687   2.677   6.917
    1LIG    O26   79   2.623   2.627   7.005
    1LIG    C52   80   2.687   2.676   7.094
    1LIG    C53   81   2.615   2.619   7.185
    1LIG    O27   82   2.679   2.669   7.273
    1LIG    C54   83   2.616   2.619   7.362
    1LIG    C55   84   2.688   2.675   7.454
    1LIG    O28   85   2.624   2.625   7.542
    1LIG    C56   86   2.688   2.674   7.630
    1LIG    C57   87   2.617   2.618   7.723
    1LIG    O29   88   2.681   2.667   7.811
    1LIG    C58   89   2.617   2.617   7.899
    1LIG    C59   90   2.688   2.672   7.991
    1LIG      H   91   2.689   2.780   0.125
    1LIG     H1   92   2.797   2.639   0.125
    1LIG     H2   93   2.624   2.508   0.219
    1LIG     H3   94   2.516   2.648   0.218
    1LIG     H4   95   2.622   2.508   0.397
    1LIG     H5   96   2.515   2.649   0.396
    1LIG     H6   97   2.689   2.783   0.486
    1LIG     H7   98   2.796   2.642   0.487
    1LIG     H8   99   2.688   2.784   0.664
    1LIG     H9  100   2.795   2.644   0.665
    1LIG    H10  101   2.621   2.511   0.755
    1LIG    H11  102   2.513   2.651   0.754
    1LIG    H12  103   2.619   2.512   0.933
    1LIG    H13  104   2.511   2.652   0.933
    1LIG    H14  105   2.685   2.787   1.022
    1LIG    H15  106   2.793   2.646   1.023
    1LIG    H16  107   2.685   2.788   1.201
    1LIG    H17  108   2.793   2.648   1.202
    1LIG    H18  109   2.618   2.514   1.290
    1LIG    H19  110   2.510   2.654   1.290
    1LIG    H20  111   2.617   2.514   1.469
    1LIG    H21  112   2.509   2.655   1.469
    1LIG    H22  113   2.684   2.789   1.558
    1LIG    H23  114   2.792   2.649   1.558
    1LIG    H24  115   2.683   2.789   1.736
    1LIG    H25  116   2.791   2.649   1.737
    1LIG    H26  117   2.616   2.515   1.826
    1LIG    H27  118   2.508   2.656   1.825
    1LIG    H28  119   2.616   2.515   2.004
    1LIG    H29  120   2.508   2.656   2.004
    1LIG    H30  121   2.682   2.790   2.094
    1LIG    H31  122   2.790   2.649   2.094
    1LIG    H32  123   2.682   2.791   2.272
    1LIG    H33  124   2.790   2.650   2.273
    1LIG    H34  125   2.616   2.517   2.362
    1LIG    H35  126   2.508   2.657   2.362
    1LIG    H36  127   2.615   2.516   2.541
    1LIG    H37  128   2.507   2.657   2.541
    1LIG    H38  129   2.681   2.791   2.630
    1LIG    H39  130   2.789   2.650   2.630
    1LIG    H40  131   2.682   2.791   2.809
    1LIG    H41  132   2.790   2.651   2.809
    1LIG    H42  133   2.615   2.517   2.897
    1LIG    H43  134   2.507   2.657   2.897
    1LIG    H44  135   2.615   2.517   3.076
    1LIG    H45  136   2.507   2.657   3.076
    1LIG    H46  137   2.681   2.792   3.165
    1LIG    H47  138   2.789   2.651   3.165
    1LIG    H48  139   2.681   2.791   3.344
    1LIG    H49  140   2.789   2.651   3.344
    1LIG    H50  141   2.614   2.517   3.434
    1LIG    H51  142   2.507   2.658   3.434
    1LIG    H52  143   2.614   2.517   3.612
    1LIG    H53  144   2.506   2.658   3.612
    1LIG    H54  145   2.680   2.792   3.702
    1LIG    H55  146   2.788   2.651   3.701
    1LIG    H56  147   2.681   2.791   3.880
    1LIG    H57  148   2.789   2.651   3.880
    1LIG    H58  149   2.615   2.517   3.970
    1LIG    H59  150   2.507   2.657   3.970
    1LIG    H60  151   2.615   2.516   4.148
    1LIG    H61  152   2.507   2.657   4.148
    1LIG    H62  153   2.681   2.791   4.237
    1LIG    H63  154   2.789   2.650   4.237
    1LIG    H64  155   2.681   2.790   4.416
    1LIG    H65  156   2.789   2.650   4.416
    1LIG    H66  157   2.615   2.516   4.505
    1LIG    H67  158   2.507   2.657   4.505
    1LIG    H68  159   2.615   2.516   4.683
    1LIG    H69  160   2.507   2.656   4.683
    1LIG    H70  161   2.680   2.790   4.773
    1LIG    H71  162   2.789   2.650   4.773
    1LIG    H72  163   2.681   2.790   4.952
    1LIG    H73  164   2.789   2.650   4.951
    1LIG    H74  165   2.616   2.516   5.041
    1LIG    H75  166   2.508   2.656   5.042
    1LIG    H76  167   2.616   2.515   5.219
    1LIG    H77  168   2.507   2.655   5.220
    1LIG    H78  169   2.681   2.788   5.310
    1LIG    H79  170   2.789   2.648   5.309
    1LIG    H80  171   2.682   2.789   5.488
    1LIG    H81  172   2.790   2.649   5.488
    1LIG    H82  173   2.617   2.514   5.577
    1LIG    H83  174   2.508   2.654   5.578
    1LIG    H84  175   2.617   2.513   5.756
    1LIG    H85  176   2.508   2.653   5.756
    1LIG    H86  177   2.682   2.788   5.845
    1LIG    H87  178   2.791   2.648   5.845
    1LIG    H88  179   2.683   2.788   6.024
    1LIG    H89  180   2.791   2.648   6.024
    1LIG    H90  181   2.617   2.513   6.113
    1LIG    H91  182   2.509   2.653   6.113
    1LIG    H92  183   2.617   2.512   6.292
    1LIG    H93  184   2.509   2.652   6.292
    1LIG    H94  185   2.683   2.787   6.381
    1LIG    H95  186   2.792   2.647   6.381
    1LIG    H96  187   2.683   2.786   6.560
    1LIG    H97  188   2.791   2.646   6.560
    1LIG    H98  189   2.617   2.511   6.648
    1LIG    H99  190   2.509   2.651   6.649
    1LIG   H100  191   2.618   2.511   6.827
    1LIG   H101  192   2.510   2.651   6.828
    1LIG   H102  193   2.684   2.786   6.916
    1LIG   H103  194   2.792   2.646   6.916
    1LIG   H104  195   2.684   2.785   7.095
    1LIG   H105  196   2.792   2.645   7.095
    1LIG   H106  197   2.619   2.510   7.184
    1LIG   H107  198   2.510   2.650   7.184
    1LIG   H108  199   2.619   2.510   7.363
    1LIG   H109  200   2.511   2.650   7.363
    1LIG   H110  201   2.684   2.784   7.453
    1LIG   H111  202   2.793   2.644   7.452
    1LIG   H112  203   2.685   2.784   7.631
    1LIG   H113  204   2.794   2.644   7.631
    1LIG   H114  205   2.621   2.509   7.721
    1LIG   H115  206   2.512   2.649   7.722
    1LIG   H116  207   2.621   2.507   7.899
    1LIG   H117  208   2.512   2.649   7.900
    1LIG   H118  209   2.793   2.642   7.991
    1LIG   H119  210   2.641   2.635   8.060
    1MOL     C1  211   2.303   2.237   4.037
    1MOL     H1  212   2.295   2.130   4.059
    1MOL     O1  213   2.254   2.301   4.154
    1MOL     C2  214   2.257   2.445   4.152
    1MOL     H2  215   2.361   2.479   4.146
    1MOL     C3  216   2.195   2.491   4.282
    1MOL     H3  217   2.094   2.446   4.290
    1MOL     H4  218   2.185   2.600   4.282
    1MOL     O2  219   2.274   2.448   4.392
    1MOL     C4  220   2.218   2.490   4.515
    1MOL     C5  221   2.210   2.275   3.920
    1MOL     H5  222   2.109   2.244   3.949
    1MOL     O3  223   2.245   2.215   3.797
    1MOL     C6  224   2.209   2.078   3.786
    1MOL     C7  225   2.210   2.427   3.899
    1MOL     H6  226   2.309   2.458   3.864
    1MOL     O4  227   2.109   2.463   3.806
    1MOL     C8  228   2.157   2.494   3.676
    1MOL     C9  229   2.179   2.501   4.030
    1MOL     H7  230   2.071   2.490   4.049
    1MOL     O5  231   2.211   2.639   4.008
    1MOL    C10  232   2.118   2.737   4.046
    1MOL     H8  233   2.021   2.692   4.068
    1MOL     O6  234   2.155   2.803   4.166
    1MOL    C11  235   2.284   2.866   4.163
    1MOL     H9  236   2.362   2.792   4.140
    1MOL    C12  237   2.308   2.922   4.302
    1MOL    H10  238   2.222   2.985   4.331
    1MOL    H11  239   2.398   2.986   4.302
    1MOL     O7  240   2.325   2.815   4.394
    1MOL    C13  241   2.363   2.861   4.522
    1MOL    C14  242   2.105   2.844   3.936
    1MOL    H12  243   2.026   2.913   3.969
    1MOL     O8  244   2.071   2.791   3.809
    1MOL    C15  245   1.937   2.748   3.796
    1MOL    C16  246   2.234   2.925   3.920
    1MOL    H13  247   2.311   2.860   3.876
    1MOL     O9  248   2.210   3.037   3.837
    1MOL    C17  249   2.257   3.024   3.703
    1MOL    C18  250   2.286   2.976   4.055
    1MOL    H14  251   2.222   3.059   4.086
    1MOL    O10  252   2.420   3.024   4.032
    1MOL    C19  253   2.456   3.152   4.079
    1MOL    H15  254   2.367   3.206   4.112
    1MOL    O11  255   2.540   3.146   4.192
    1MOL    C20  256   2.663   3.075   4.174
    1MOL    H16  257   2.642   2.970   4.151
    1MOL    C21  258   2.738   3.085   4.306
    1MOL    H17  259   2.735   3.190   4.340
    1MOL    H18  260   2.843   3.056   4.292
    1MOL    O12  261   2.676   3.000   4.402
    1MOL    C22  262   2.743   3.005   4.527
    1MOL    C23  263   2.529   3.230   3.968
    1MOL    H19  264   2.551   3.330   4.010
    1MOL    O13  265   2.455   3.244   3.849
    1MOL    C24  266   2.348   3.337   3.855
    1MOL    C25  267   2.662   3.163   3.933
    1MOL    H20  268   2.641   3.067   3.884
    1MOL    O14  269   2.738   3.248   3.848
    1MOL    C26  270   2.735   3.212   3.711
    1MOL    C27  271   2.746   3.135   4.058
    1MOL    H21  272   2.791   3.230   4.090
    1MOL    O15  273   2.850   3.044   4.019
    1MOL    C28  274   2.984   3.074   4.049
    1MOL    H22  275   2.993   3.180   4.077
    1MOL    O16  276   3.031   3.003   4.162
    1MOL    C29  277   3.023   2.860   4.149
    1MOL    H23  278   2.918   2.831   4.134
    1MOL    C30  279   3.070   2.801   4.281
    1MOL    H24  280   3.044   2.694   4.284
    1MOL    H25  281   3.016   2.851   4.364
    1MOL    O17  282   3.210   2.818   4.295
    1MOL    C31  283   3.261   2.752   4.408
    1MOL    C32  284   3.074   3.041   3.928
    1MOL    H26  285   3.176   3.071   3.957
    1MOL    O18  286   3.036   3.106   3.809
    1MOL    C33  287   3.072   3.243   3.803
    1MOL    C34  288   3.075   2.890   3.901
    1MOL    H27  289   2.976   2.860   3.863
    1MOL    O19  290   3.176   2.860   3.806
    1MOL    C35  291   3.128   2.830   3.676
    1MOL    C36  292   3.105   2.810   4.028
    1MOL    H28  293   3.212   2.822   4.052
    1MOL    O20  294   3.075   2.673   4.000
    1MOL    C37  295   3.167   2.574   4.039
    1MOL    H29  296   3.263   2.620   4.066
    1MOL    O21  297   3.127   2.504   4.155
    1MOL    C38  298   2.999   2.439   4.144
    1MOL    H30  299   2.922   2.514   4.121
    1MOL    C39  300   2.968   2.379   4.281
    1MOL    H31  301   2.861   2.355   4.287
    1MOL    H32  302   2.989   2.455   4.358
    1MOL    O22  303   3.047   2.264   4.302
    1MOL    C40  304   3.009   2.195   4.420
    1MOL    C41  305   3.185   2.472   3.924
    1MOL    H33  306   3.263   2.402   3.956
    1MOL    O23  307   3.222   2.531   3.801
    1MOL    C42  308   3.356   2.576   3.794
    1MOL    C43  309   3.056   2.393   3.900
    1MOL    H34  310   2.981   2.460   3.857
    1MOL    O24  311   3.083   2.284   3.812
    1MOL    C44  312   3.037   2.303   3.679
    1MOL    C45  313   3.001   2.335   4.031
    1MOL    H35  314   3.065   2.251   4.061
    1MOL    O25  315   2.869   2.287   4.003
    1MOL    C46  316   2.832   2.159   4.048
    1MOL    H36  317   2.921   2.103   4.078
    1MOL    O26  318   2.751   2.163   4.164
    1MOL    C47  319   2.630   2.238   4.151
    1MOL    H37  320   2.653   2.342   4.126
    1MOL    C48  321   2.563   2.233   4.288
    1MOL    H38  322   2.554   2.128   4.319
    1MOL    H39  323   2.462   2.275   4.282
    1MOL    O27  324   2.643   2.306   4.379
    1MOL    C49  325   2.583   2.316   4.507
    1MOL    C50  326   2.754   2.086   3.937
    1MOL    H40  327   2.733   1.984   3.976
    1MOL    O28  328   2.823   2.076   3.814
    1MOL    C51  329   2.933   1.986   3.815
    1MOL    C52  330   2.620   2.155   3.910
    1MOL    H41  331   2.639   2.252   3.863
    1MOL    O29  332   2.539   2.073   3.826
    1MOL    C53  333   2.541   2.110   3.688
    1MOL    C54  334   2.541   2.180   4.039
    1MOL    H42  335   2.498   2.084   4.072
    1MOL    O30  336   2.435   2.271   4.007
    1MOL    H43  337   2.379   2.772   4.584
    1MOL    H44  338   2.456   2.919   4.517
    1MOL    H45  339   2.285   2.923   4.568
    1MOL    H46  340   2.286   2.457   4.594
    1MOL    H47  341   2.207   2.599   4.519
    1MOL    H48  342   2.119   2.444   4.532
    1MOL    H49  343   2.651   2.375   4.569
    1MOL    H50  344   2.486   2.366   4.501
    1MOL    H51  345   2.570   2.217   4.553
    1MOL    H52  346   3.071   2.105   4.426
    1MOL    H53  347   3.028   2.256   4.510
    1MOL    H54  348   2.903   2.167   4.418
    1MOL    H55  349   3.369   2.771   4.410
    1MOL    H56  350   3.217   2.791   4.501
    1MOL    H57  351   3.243   2.644   4.403
    1MOL    H58  352   2.690   2.936   4.594
    1MOL    H59  353   2.848   2.973   4.518
    1MOL    H60  354   2.741   3.106   4.570
    1MOL    H61  355   3.377   2.598   3.689
    1MOL    H62  356   3.372   2.668   3.852
    1MOL    H63  357   3.426   2.499   3.829
    1MOL    H64  358   3.216   2.815   3.613
    1MOL    H65  359   3.069   2.738   3.676
    1MOL    H66  360   3.069   2.913   3.635
    1MOL    H67  361   3.057   3.275   3.700
    1MOL    H68  362   3.009   3.305   3.868
    1MOL    H69  363   3.178   3.258   3.830
    1MOL    H70  364   2.792   3.289   3.657
    1MOL    H71  365   2.784   3.115   3.694
    1MOL    H72  366   2.632   3.210   3.672
    1MOL    H73  367   2.315   3.354   3.752
    1MOL    H74  368   2.263   3.298   3.913
    1MOL    H75  369   2.381   3.433   3.898
    1MOL    H76  370   2.227   3.116   3.651
    1MOL    H77  371   2.366   3.016   3.700
    1MOL    H78  372   2.211   2.938   3.654
    1MOL    H79  373   1.919   2.732   3.689
    1MOL    H80  374   1.919   2.653   3.848
    1MOL    H81  375   1.867   2.825   3.833
    1MOL    H82  376   2.069   2.513   3.614
    1MOL    H83  377   2.219   2.584   3.678
    1MOL    H84  378   2.214   2.410   3.633
    1MOL    H85  379   2.221   2.051   3.681
    1MOL    H86  380   2.275   2.014   3.846
    1MOL    H87  381   2.105   2.062   3.816
    1MOL    H88  382   2.481   2.036   3.635
    1MOL    H89  383   2.495   2.209   3.674
    1MOL    H90  384   2.643   2.110   3.648
    1MOL    H91  385   2.961   1.971   3.710
    1MOL    H92  386   3.019   2.027   3.869
    1MOL    H93  387   2.904   1.889   3.858
    1MOL    H94  388   3.069   2.215   3.623
    1MOL    H95  389   2.927   2.308   3.676
    1MOL    H96  390   3.080   2.393   3.634
    2SOL     OW  391   0.230   0.628   0.113
    2SOL    HW1  392   0.137   0.626   0.150
    2SOL    HW2  393   0.231   0.589   0.021
    3SOL     OW  394   0.225   0.275   0.996
    3SOL    HW1  395   0.260   0.258   1.088
    3SOL    HW2  396   0.137   0.230   0.984
    4SOL     OW  397   0.019   0.368   0.647
    4SOL    HW1  398  -0.063   0.411   0.686
    4SOL    HW2  399  -0.009   0.295   0.584
    5SOL     OW  400   0.569   1.275   1.165
    5SOL    HW1  401   0.476   1.268   1.128
    5SOL    HW2  402   0.580   1.364   1.209
    6SOL     OW  403   1.555   1.511   0.703
    6SOL    HW1  404   1.498   1.495   0.784
    6SOL    HW2  405   1.496   1.521   0.623
    7SOL     OW  406   1.135   0.703   0.717
    7SOL    HW1  407   1.192   0.781   0.692
    7SOL    HW2  408   1.075   0.729   0.793
    8SOL     OW  409   1.755   0.607   0.231
    8SOL    HW1  410   1.743   0.594   0.132
    8SOL    HW2  411   1.725   0.526   0.280
    9SOL     OW  412   0.768   1.144   1.023
    9SOL    HW1  413   0.690   1.161   1.083
    9SOL    HW2  414   0.802   1.231   0.987
   10SOL     OW  415   0.850   0.798   1.823
   10SOL    HW1  416   0.846   0.874   1.888
   10SOL    HW2  417   0.872   0.834   1.732
   11SOL     OW  418   0.685   1.012   0.665
   11SOL    HW1  419   0.754   0.996   0.735
   11SOL    HW2  420   0.612   1.069   0.703
   12SOL     OW  421   0.686   1.161   1.803
   12SOL    HW1  422   0.746   1.240   1.817
   12SOL    HW2  423   0.600   1.192   1.762
   13SOL     OW  424   0.335   1.435   1.061
   13SOL    HW1  425   0.257   1.404   1.008
   13SOL    HW2  426   0.393   1.493   1.004
   14SOL     OW  427   1.460   1.505   1.339
   14SOL    HW1  428   1.484   1.599   1.365
   14SOL    HW2  429   1.444   1.451   1.421
   15SOL     OW  430   0.438   0.392   1.499
   15SOL    HW1  431   0.520   0.336   1.508
   15SOL    HW2  432   0.357   0.334   1.503
   16SOL     OW  433   1.603   0.447   0.737
   16SOL    HW1  434   1.529   0.493   0.687
   16SOL    HW2  435   1.654   0.515   0.790
   17SOL     OW  436   0.231   1.713   0.483
   17SOL    HW1  437   0.265   1.790   0.537
   17SOL    HW2  438   0.275   1.713   0.393
   18SOL     OW  439   1.127   1.341   1.690
   18SOL    HW1  440   1.174   1.341   1.778
   18SOL    HW2  441   1.079   1.254   1.679
   19SOL     OW  442   0.230   1.434   0.538
   19SOL    HW1  443   0.204   1.530   0.538
   19SOL    HW2  444   0.159   1.380   0.583
   20SOL     OW  445   0.240   1.091   0.886
   20SOL    HW1  446   0.254   1.007   0.938
   20SOL    HW2  447   0.185   1.155   0.941
   21SOL     OW  448   0.620   1.786   1.439
   21SOL    HW1  449   0.528   1.769   1.474
   21SOL    HW2  450   0.648   1.878   1.465
   22SOL     OW  451   0.606   0.964   0.123
   22SOL    HW1  452   0.613   1.048   0.069
   22SOL    HW2  453   0.652   0.977   0.211
   23SOL     OW  454   1.594   0.114   1.480
   23SOL    HW1  455   1.576   0.181   1.408
   23SOL    HW2  456   1.591   0.160   1.569
   24SOL     OW  457   0.122   0.643   0.563
   24SOL    HW1  458   0.077   0.555   0.580
   24SOL    HW2  459   0.121   0.697   0.647
   25SOL     OW  460   1.842   1.767   0.359
   25SOL    HW1  461   1.896   1.738   0.439
   25SOL    HW2  462   1.872   1.857   0.330
   26SOL     OW  463   0.027   1.596   0.117
   26SOL    HW1  464   0.008   1.500   0.138
   26SOL    HW2  465  -0.006   1.654   0.192
   27SOL     OW  466   1.689   0.922   0.612
   27SOL    HW1  467   1.784   0.893   0.620
   27SOL    HW2  468   1.681   0.987   0.537
   28SOL     OW  469   1.641   1.108   0.432
   28SOL    HW1  470   1.727   1.110   0.380
   28SOL    HW2  471   1.655   1.155   0.520
   29SOL     OW  472   0.113   0.737   1.597
   29SOL    HW1  473   0.201   0.724   1.642
   29SOL    HW2  474   0.100   0.834   1.575
   30SOL     OW  475   0.613   1.365   0.726
   30SOL    HW1  476   0.564   1.278   0.735
   30SOL    HW2  477   0.590   1.408   0.639
   31SOL     OW  478   1.293   1.228   1.423
   31SOL    HW1  479   1.330   1.155   1.365
   31SOL    HW2  480   1.345   1.233   1.508
   32SOL     OW  481   0.809   0.004   0.502
   32SOL    HW1  482   0.849   0.095   0.493
   32SOL    HW2  483   0.709   0.012   0.508
   33SOL     OW  484   0.197   0.976   1.264
   33SOL    HW1  485   0.286   0.931   1.250
   33SOL    HW2  486   0.124   0.911   1.245
   34SOL     OW  487   1.525   0.999   0.190
   34SOL    HW1  488   1.462   0.923   0.203
   34SOL    HW2  489   1.573   1.017   0.276
   35SOL     OW  490   1.187   1.792   1.616
   35SOL    HW1  491   1.211   1.852   1.540
   35SOL    HW2  492   1.194   1.697   1.586
   36SOL     OW  493   0.317   0.251   1.801
   36SOL    HW1  494   0.388   0.322   1.807
   36SOL    HW2  495   0.229   0.290   1.829
   37SOL     OW  496   1.466   1.417   0.953
   37SOL    HW1  497   1.407   1.423   1.033
   37SOL    HW2  498   1.451   1.329   0.907
   38SOL     OW  499   1.667   1.714   0.572
   38SOL    HW1  500   1.626   1.691   0.484
   38SOL    HW2  501   1.649   1.640   0.637
   39SOL     OW  502   0.598   0.729   0.270
   39SOL    HW1  503   0.622   0.798   0.202
   39SOL    HW2  504   0.520   0.762   0.324
   40SOL     OW  505   1.281   0.345   0.944
   40SOL    HW1  506   1.195   0.295   0.931
   40SOL    HW2  507   1.343   0.291   1.000
   41SOL     OW  508   1.576   1.662   0.307
   41SOL    HW1  509   1.665   1.708   0.310
   41SOL    HW2  510   1.555   1.638   0.212
   42SOL     OW  511   0.807   0.605   1.465
   42SOL    HW1  512   0.760   0.602   1.554
   42SOL    HW2  513   0.756   0.550   1.399
   43SOL     OW  514   1.394   0.469   1.674
   43SOL    HW1  515   1.374   0.512   1.762
   43SOL    HW2  516   1.472   0.407   1.683
   44SOL     OW  517   0.973   0.890   1.572
   44SOL    HW1  518   1.019   0.806   1.543
   44SOL    HW2  519   0.917   0.924   1.497
   45SOL     OW  520   0.991   0.410   1.242
   45SOL    HW1  521   0.914   0.444   1.296
   45SOL    HW2  522   0.957   0.359   1.163
   46SOL     OW  523   1.041   0.701   0.429
   46SOL    HW1  524   1.067   0.697   0.525
   46SOL    HW2  525   0.956   0.650   0.415
   47SOL     OW  526   0.076   0.811   0.789
   47SOL    HW1  527   0.175   0.799   0.798
   47SOL    HW2  528   0.052   0.906   0.810
   48SOL     OW  529   0.130   1.821   1.571
   48SOL    HW1  530   0.120   1.806   1.670
   48SOL    HW2  531   0.044   1.857   1.535
   49SOL     OW  532   0.865   0.348   0.195
   49SOL    HW1  533   0.924   0.411   0.146
   49SOL    HW2  534   0.884   0.254   0.166
   50SOL     OW  535   1.719   0.585   1.831
   50SOL    HW1  536   1.693   0.674   1.795
   50SOL    HW2  537   1.717   0.517   1.758
   51SOL     OW  538   1.362   1.144   0.545
   51SOL    HW1  539   1.445   1.115   0.497
   51SOL    HW2  540   1.313   1.211   0.489
   52SOL     OW  541   0.550   0.196   0.885
   52SOL    HW1  542   0.545   0.191   0.985
   52SOL    HW2  543   0.552   0.292   0.856
   53SOL     OW  544   1.008   1.456   0.477
   53SOL    HW1  545   0.962   1.528   0.425
   53SOL    HW2  546   1.004   1.476   0.575
   54SOL     OW  547   0.351   1.801   0.853
   54SOL    HW1  548   0.401   1.715   0.859
   54SOL    HW2  549   0.416   1.878   0.850
   55SOL     OW  550   1.795   1.066   0.873
   55SOL    HW1  551   1.733   1.051   0.797
   55SOL    HW2  552   1.743   1.077   0.958
   56SOL     OW  553   1.227   1.550   1.506
   56SOL    HW1  554   1.233   1.473   1.570
   56SOL    HW2  555   1.175   1.524   1.426
   57SOL     OW  556   0.321   0.943   0.242
   57SOL    HW1  557   0.403   0.982   0.200
   57SOL    HW2  558   0.294   0.861   0.193
   58SOL     OW  559   1.458   0.735   0.728
   58SOL    HW1  560   1.453   0.670   0.803
   58SOL    HW2  561   1.538   0.794   0.741
   59SOL     OW  562   0.461   1.266   1.727
   59SOL    HW1  563   0.411   1.267   1.641
   59SOL    HW2  564   0.398   1.248   1.803
   60SOL     OW  565   1.111   1.776   0.237
   60SOL    HW1  566   1.051   1.714   0.287
   60SOL    HW2  567   1.142   1.732   0.152
   61SOL     OW  568   0.202   0.285   1.498
   61SOL    HW1  569   0.122   0.345   1.485
   61SOL    HW2  570   0.192   0.236   1.584
   62SOL     OW  571   1.632   1.377   0.081
   62SOL    HW1  572   1.600   1.471   0.071
   62SOL    HW2  573   1.556   1.314   0.069
   63SOL     OW  574   0.464   1.743   0.323
   63SOL    HW1  575   0.497   1.782   0.409
   63SOL    HW2  576   0.540   1.736   0.258
   64SOL     OW  577   1.400   0.107   0.426
   64SOL    HW1  578   1.376   0.070   0.336
   64SOL    HW2  579   1.499   0.123   0.430
   65SOL     OW  580   0.249   1.785   1.241
   65SOL    HW1  581   0.306   1.720   1.291
   65SOL    HW2  582   0.233   1.752   1.148
   66SOL     OW  583   0.940   1.698   0.904
   66SOL    HW1  584   1.020   1.641   0.925
   66SOL    HW2  585   0.891   1.658   0.827
   67SOL     OW  586   0.382   0.700   0.480
   67SOL    HW1  587   0.427   0.610   0.477
   67SOL    HW2  588   0.288   0.689   0.513
   68SOL     OW  589   1.547   0.222   1.729
   68SOL    HW1  590   1.542   0.259   1.821
   68SOL    HW2  591   1.475   0.153   1.717
   69SOL     OW  592   0.614   0.122   0.117
   69SOL    HW1  593   0.712   0.100   0.124
   69SOL    HW2  594   0.583   0.105   0.024
   70SOL     OW  595   0.781   0.264   1.749
   70SOL    HW1  596   0.848   0.203   1.792
   70SOL    HW2  597   0.708   0.283   1.814
   71SOL     OW  598   0.888   1.514   1.195
   71SOL    HW1  599   0.865   1.489   1.101
   71SOL    HW2  600   0.949   1.445   1.234
   72SOL     OW  601   1.351   0.590   1.433
   72SOL    HW1  602   1.379   0.547   1.518
   72SOL    HW2  603   1.376   0.686   1.434
   73SOL     OW  604   0.803   1.402   0.924
   73SOL    HW1  605   0.893   1.416   0.882
   73SOL    HW2  606   0.732   1.404   0.853
   74SOL     OW  607   0.922   0.503   0.899
   74SOL    HW1  608   0.897   0.494   0.803
   74SOL    HW2  609   0.970   0.421   0.930
   75SOL     OW  610   0.539   0.064   0.512
   75SOL    HW1  611   0.458   0.065   0.570
   75SOL    HW2  612   0.542   0.147   0.457
   76SOL     OW  613   1.434   1.188   0.041
   76SOL    HW1  614   1.466   1.112   0.098
   76SOL    HW2  615   1.342   1.215   0.071
   77SOL     OW  616   0.297   0.035   0.171
   77SOL    HW1  617   0.346   0.119   0.150
   77SOL    HW2  618   0.359  -0.030   0.216
   78SOL     OW  619   0.935   0.236   0.480
   78SOL    HW1  620   0.887   0.277   0.402
   78SOL    HW2  621   1.034   0.234   0.461
   79SOL     OW  622   1.076   0.683   1.464
   79SOL    HW1  623   0.996   0.622   1.467
   79SOL    HW2  624   1.157   0.630   1.440
   80SOL     OW  625   1.227   1.570   0.793
   80SOL    HW1  626   1.248   1.644   0.728
   80SOL    HW2  627   1.295   1.570   0.866
   81SOL     OW  628   0.459   1.152   0.741
   81SOL    HW1  629   0.388   1.125   0.806
   81SOL    HW2  630   0.433   1.124   0.648
   82SOL     OW  631   1.271   1.797   0.591
   82SOL    HW1  632   1.315   1.861   0.527
   82SOL    HW2  633   1.221   1.849   0.661
   83SOL     OW  634   1.032   0.549   0.016
   83SOL    HW1  635   0.991   0.631  -0.023
   83SOL    HW2  636   1.096   0.575   0.089
   84SOL     OW  637   0.078   0.556   1.386
   84SOL    HW1  638   0.170   0.555   1.345
   84SOL    HW2  639   0.072   0.630   1.453
   85SOL     OW  640   0.561   0.222   1.147
   85SOL    HW1  641   0.599   0.138   1.184
   85SOL    HW2  642   0.473   0.241   1.191
   86SOL     OW  643   0.866   0.454   0.642
   86SOL    HW1  644   0.834   0.526   0.580
   86SOL    HW2  645   0.890   0.373   0.589
   87SOL     OW  646   1.017   0.039   0.753
   87SOL    HW1  647   0.945   0.044   0.684
   87SOL    HW2  648   0.993  -0.030   0.822
   88SOL     OW  649   1.429   1.173   0.867
   88SOL    HW1  650   1.374   1.089   0.860
   88SOL    HW2  651   1.455   1.202   0.775
   89SOL     OW  652   1.466   0.590   0.992
   89SOL    HW1  653   1.436   0.495   0.999
   89SOL    HW2  654   1.539   0.606   1.058
   90SOL     OW  655   1.857   0.833   0.377
   90SOL    HW1  656   1.899   0.769   0.441
   90SOL    HW2  657   1.819   0.782   0.299
   91SOL     OW  658   0.488   1.385   0.174
   91SOL    HW1  659   0.401   1.370   0.221
   91SOL    HW2  660   0.471   1.411   0.079
   92SOL     OW  661   1.664   1.280   0.657
   92SOL    HW1  662   1.763   1.288   0.671
   92SOL    HW2  663   1.619   1.364   0.688
   93SOL     OW  664   1.390   0.575   0.078
   93SOL    HW1  665   1.336   0.554   0.159
   93SOL    HW2  666   1.481   0.534   0.087
   94SOL     OW  667   0.527   0.256   0.328
   94SOL    HW1  668   0.554   0.197   0.253
   94SOL    HW2  669   0.527   0.351   0.297
   95SOL     OW  670   1.754   1.223   1.588
   95SOL    HW1  671   1.845   1.184   1.575
   95SOL    HW2  672   1.762   1.319   1.612
   96SOL     OW  673   1.064   1.347   1.340
   96SOL    HW1  674   0.984   1.324   1.395
   96SOL    HW2  675   1.147   1.321   1.389
   97SOL     OW  676   1.592   1.629   1.625
   97SOL    HW1  677   1.619   1.663   1.535
   97SOL    HW2  678   1.671   1.591   1.671
   98SOL     OW  679   1.111   1.195   1.100
   98SOL    HW1  680   1.071   1.239   1.181
   98SOL    HW2  681   1.070   1.232   1.017
   99SOL     OW  682   1.638   1.099   1.079
   99SOL    HW1  683   1.643   1.180   1.138
   99SOL    HW2  684   1.552   1.101   1.028
  100SOL     OW  685   0.915   0.089   1.402
  100SOL    HW1  686   0.940   0.069   1.307
  100SOL    HW2  687   0.987   0.145   1.444
  101SOL     OW  688   0.980   1.116   1.719
  101SOL    HW1  689   0.881   1.122   1.729
  101SOL    HW2  690   1.003   1.036   1.663
  102SOL     OW  691   0.705   1.050   0.368
  102SOL    HW1  692   0.691   1.057   0.467
  102SOL    HW2  693   0.789   0.999   0.350
  103SOL     OW  694   0.410   0.813   1.251
  103SOL    HW1  695   0.496   0.825   1.301
  103SOL    HW2  696   0.368   0.726   1.278
  104SOL     OW  697   1.274   0.386   1.262
  104SOL    HW1  698   1.295   0.460   1.326
  104SOL    HW2  699   1.185   0.403   1.219
  105SOL     OW  700   0.064   1.564   1.331
  105SOL    HW1  701   0.018   1.646   1.297
  105SOL    HW2  702   0.162   1.583   1.340
  106SOL     OW  703   0.367   1.100   0.501
  106SOL    HW1  704   0.360   1.183   0.445
  106SOL    HW2  705   0.371   1.020   0.441
  107SOL     OW  706   0.566   0.537   0.865
  107SOL    HW1  707   0.578   0.603   0.791
  107SOL    HW2  708   0.612   0.571   0.948
  108SOL     OW  709   1.252   1.348   0.388
  108SOL    HW1  710   1.302   1.425   0.428
  108SOL    HW2  711   1.157   1.350   0.420
  109SOL     OW  712   1.272   1.445   1.142
  109SOL    HW1  713   1.319   1.458   1.229
  109SOL    HW2  714   1.206   1.371   1.151
  110SOL     OW  715   1.582   0.639   0.472
  110SOL    HW1  716   1.551   0.700   0.545
  110SOL    HW2  717   1.632   0.691   0.403
  111SOL     OW  718   0.354   1.510   1.329
  111SOL    HW1  719   0.333   1.466   1.242
  111SOL    HW2  720   0.451   1.536   1.332
  112SOL     OW  721   0.402   0.751   1.598
  112SOL    HW1  722   0.470   0.806   1.551
  112SOL    HW2  723   0.442   0.663   1.625
  113SOL     OW  724   1.587   0.779   1.670
  113SOL    HW1  725   1.495   0.817   1.665
  113SOL    HW2  726   1.647   0.826   1.605
  114SOL     OW  727   1.013   0.105   1.770
  114SOL    HW1  728   1.019   0.190   1.718
  114SOL    HW2  729   1.045   0.029   1.713
  115SOL     OW  730   0.504   0.050   1.740
  115SOL    HW1  731   0.462  -0.007   1.670
  115SOL    HW2  732   0.438   0.119   1.772
  116SOL     OW  733   0.573   0.870   1.029
  116SOL    HW1  734   0.617   0.959   1.020
  116SOL    HW2  735   0.510   0.870   1.106
  117SOL     OW  736   1.360   0.862   1.045
  117SOL    HW1  737   1.285   0.862   0.979
  117SOL    HW2  738   1.397   0.770   1.054
  118SOL     OW  739   1.209   0.525   0.275
  118SOL    HW1  740   1.222   0.441   0.329
  118SOL    HW2  741   1.180   0.599   0.335
  119SOL     OW  742   0.307   0.213   1.231
  119SOL    HW1  743   0.284   0.250   1.321
  119SOL    HW2  744   0.277   0.118   1.225
  120SOL     OW  745   0.037   1.310   1.282
  120SOL    HW1  746   0.090   1.261   1.350
  120SOL    HW2  747   0.059   1.408   1.287
  121SOL     OW  748   0.732   0.634   1.064
  121SOL    HW1  749   0.791   0.608   0.988
  121SOL    HW2  750   0.704   0.730   1.053
  122SOL     OW  751   1.728   0.935   1.854
  122SOL    HW1  752   1.682   0.928   1.765
  122SOL    HW2  753   1.666   0.979   1.920
  123SOL     OW  754   0.307   0.063   0.618
  123SOL    HW1  755   0.296   0.157   0.651
  123SOL    HW2  756   0.302   0.000   0.695
  124SOL     OW  757   1.622   0.367   0.374
  124SOL    HW1  758   1.624   0.291   0.438
  124SOL    HW2  759   1.574   0.444   0.414
  125SOL     OW  760   1.023   0.766   0.966
  125SOL    HW1  761   1.038   0.787   1.062
  125SOL    HW2  762   0.993   0.671   0.957
  126SOL     OW  763   0.980   1.573   1.700
  126SOL    HW1  764   0.960   1.617   1.612
  126SOL    HW2  765   1.019   1.482   1.684
  127SOL     OW  766   1.859   1.518   1.605
  127SOL    HW1  767   1.873   1.545   1.510
  127SOL    HW2  768   1.942   1.540   1.658
  128SOL     OW  769   0.350   0.898   1.804
  128SOL    HW1  770   0.426   0.942   1.852
  128SOL    HW2  771   0.385   0.851   1.722
  129SOL     OW  772   1.540   0.274   0.125
  129SOL    HW1  773   1.479   0.199   0.148
  129SOL    HW2  774   1.562   0.326   0.208
  130SOL     OW  775   1.303   0.838   0.042
  130SOL    HW1  776   1.337   0.745   0.057
  130SOL    HW2  777   1.321   0.865  -0.053
  131SOL     OW  778   1.068   1.333   0.849
  131SOL    HW1  779   1.075   1.249   0.794
  131SOL    HW2  780   1.130   1.402   0.813
  132SOL     OW  781   0.319   0.810   0.949
  132SOL    HW1  782   0.412   0.846   0.954
  132SOL    HW2  783   0.313   0.725   1.001
  133SOL     OW  784   0.339   0.509   1.006
  133SOL    HW1  785   0.287   0.426   0.989
  133SOL    HW2  786   0.416   0.514   0.942
  134SOL     OW  787   1.138   0.380   1.678
  134SOL    HW1  788   1.093   0.443   1.742
  134SOL    HW2  789   1.231   0.411   1.661
  135SOL     OW  790   1.160   0.207   1.477
  135SOL    HW1  791   1.160   0.271   1.554
  135SOL    HW2  792   1.188   0.255   1.394
  136SOL     OW  793   0.008   1.326   0.200
  136SOL    HW1  794  -0.085   1.347   0.169
  136SOL    HW2  795   0.018   1.227   0.213
  137SOL     OW  796   0.088   1.801   0.927
  137SOL    HW1  797   0.046   1.715   0.900
  137SOL    HW2  798   0.182   1.804   0.893
  138SOL     OW  799   0.504   1.568   0.910
  138SOL    HW1  800   0.570   1.642   0.919
  138SOL    HW2  801   0.548   1.489   0.868
  139SOL     OW  802   1.002   0.796   1.238
  139SOL    HW1  803   1.043   0.764   1.324
  139SOL    HW2  804   0.906   0.769   1.235
  140SOL     OW  805   0.040   0.544   1.114
  140SOL    HW1  806   0.125   0.511   1.073
  140SOL    HW2  807   0.053   0.559   1.212
  141SOL     OW  808   0.189   0.520   1.722
  141SOL    HW1  809   0.248   0.480   1.652
  141SOL    HW2  810   0.131   0.591   1.681
  142SOL     OW  811   1.369   0.950   1.660
  142SOL    HW1  812   1.408   1.039   1.680
  142SOL    HW2  813   1.379   0.930   1.563
  143SOL     OW  814   0.815   0.572   0.325
  143SOL    HW1  815   0.822   0.483   0.279
  143SOL    HW2  816   0.721   0.606   0.317
  144SOL     OW  817   1.657   0.604   1.206
  144SOL    HW1  818   1.619   0.535   1.268
  144SOL    HW2  819   1.739   0.568   1.162
  145SOL     OW  820   0.252   1.564   1.744
  145SOL    HW1  821   0.222   1.621   1.820
  145SOL    HW2  822   0.245   1.467   1.770
  146SOL     OW  823   0.671   0.464   1.269
  146SOL    HW1  824   0.637   0.375   1.239
  146SOL    HW2  825   0.697   0.518   1.189
  147SOL     OW  826   0.930   1.678   1.465
  147SOL    HW1  827   0.906   1.660   1.370
  147SOL    HW2  828   0.960   1.772   1.475
  148SOL     OW  829   0.473   0.500   0.191
  148SOL    HW1  830   0.534   0.580   0.195
  148SOL    HW2  831   0.378   0.531   0.198
  149SOL     OW  832   0.159   1.137   1.466
  149SOL    HW1  833   0.181   1.076   1.542
  149SOL    HW2  834   0.169   1.088   1.380
  150SOL     OW  835   1.347   1.059   1.234
  150SOL    HW1  836   1.371   0.996   1.160
  150SOL    HW2  837   1.257   1.099   1.216
  151SOL     OW  838   1.302   0.855   0.309
  151SOL    HW1  839   1.216   0.824   0.351
  151SOL    HW2  840   1.298   0.841   0.210
  152SOL     OW  841   1.759   1.747   1.154
  152SOL    HW1  842   1.820   1.777   1.081
  152SOL    HW2  843   1.721   1.658   1.132
  153SOL     OW  844   1.252   1.731   1.128
  153SOL    HW1  845   1.336   1.736   1.074
  153SOL    HW2  846   1.229   1.635   1.146
  154SOL     OW  847   0.083   1.258   1.022
  154SOL    HW1  848   0.078   1.257   1.122
  154SOL    HW2  849   0.000   1.217   0.984
  155SOL     OW  850   0.688   1.662   1.716
  155SOL    HW1  851   0.632   1.743   1.725
  155SOL    HW2  852   0.740   1.666   1.630
  156SOL     OW  853   0.903   0.086   0.133
  156SOL    HW1  854   0.954   0.087   0.047
  156SOL    HW2  855   0.959   0.044   0.204
  157SOL     OW  856   1.726   0.135   0.523
  157SOL    HW1  857   1.799   0.118   0.456
  157SOL    HW2  858   1.695   0.048   0.561
  158SOL     OW  859   1.388   1.573   0.477
  158SOL    HW1  860   1.455   1.585   0.403
  158SOL    HW2  861   1.348   1.662   0.500
  159SOL     OW  862   0.130   1.794   1.851
  159SOL    HW1  863   0.089   1.720   1.904
  159SOL    HW2  864   0.194   1.845   1.909
  160SOL     OW  865   1.280   0.927   0.672
  160SOL    HW1  866   1.340   0.846   0.674
  160SOL    HW2  867   1.320   0.996   0.612
  161SOL     OW  868   0.830   1.273   1.422
  161SOL    HW1  869   0.825   1.306   1.517
  161SOL    HW2  870   0.744   1.292   1.376
  162SOL     OW  871   0.672   1.616   0.154
  162SOL    HW1  872   0.681   1.626   0.055
  162SOL    HW2  873   0.632   1.527   0.175
  163SOL     OW  874   1.650   1.720   1.394
  163SOL    HW1  875   1.703   1.730   1.310
  163SOL    HW2  876   1.623   1.810   1.428
  164SOL     OW  877   1.841   0.175   0.963
  164SOL    HW1  878   1.880   0.090   0.927
  164SOL    HW2  879   1.743   0.177   0.944
  165SOL     OW  880   0.263   0.326   0.720
  165SOL    HW1  881   0.184   0.377   0.686
  165SOL    HW2  882   0.254   0.311   0.818
  166SOL     OW  883   1.194   1.612   0.031
  166SOL    HW1  884   1.200   1.519   0.068
  166SOL    HW2  885   1.135   1.612  -0.049
  167SOL     OW  886   0.822   1.002   1.372
  167SOL    HW1  887   0.862   1.001   1.280
  167SOL    HW2  888   0.832   1.094   1.412
  168SOL     OW  889   0.916   0.910   0.291
  168SOL    HW1  890   0.979   0.948   0.223
  168SOL    HW2  891   0.956   0.827   0.330
  169SOL     OW  892   1.504   1.607   0.044
  169SOL    HW1  893   1.412   1.644   0.051
  169SOL    HW2  894   1.542   1.627  -0.046
  170SOL     OW  895   0.372   1.288   1.490
  170SOL    HW1  896   0.359   1.381   1.456
  170SOL    HW2  897   0.288   1.236   1.477
  171SOL     OW  898   1.614   1.292   1.289
  171SOL    HW1  899   1.674   1.295   1.369
  171SOL    HW2  900   1.539   1.356   1.302
  172SOL     OW  901   1.039   1.098   0.696
  172SOL    HW1  902   0.969   1.051   0.750
  172SOL    HW2  903   1.098   1.030   0.653
  173SOL     OW  904   1.014   0.236   0.971
  173SOL    HW1  905   1.006   0.200   0.878
  173SOL    HW2  906   1.012   0.160   1.036
  174SOL     OW  907   0.590   1.487   0.491
  174SOL    HW1  908   0.632   1.429   0.421
  174SOL    HW2  909   0.546   1.566   0.447
  175SOL     OW  910   1.709   0.385   1.381
  175SOL    HW1  911   1.782   0.454   1.385
  175SOL    HW2  912   1.737   0.310   1.322
  176SOL     OW  913   0.255   1.348   0.290
  176SOL    HW1  914   0.159   1.349   0.263
  176SOL    HW2  915   0.267   1.401   0.374
  177SOL     OW  916   0.105   1.013   1.726
  177SOL    HW1  917   0.028   0.980   1.780
  177SOL    HW2  918   0.190   0.983   1.768
  178SOL     OW  919   0.672   0.203   1.489
  178SOL    HW1  920   0.762   0.187   1.449
  178SOL    HW2  921   0.680   0.208   1.588
  179SOL     OW  922   0.075   0.345   0.033
  179SOL    HW1  923  -0.017   0.317   0.004
  179SOL    HW2  924   0.106   0.422  -0.023
  180SOL     OW  925   1.440   0.856   1.398
  180SOL    HW1  926   1.383   0.908   1.335
  180SOL    HW2  927   1.536   0.868   1.374
  181SOL     OW  928   0.072   0.166   0.318
  181SOL    HW1  929   0.055   0.249   0.264
  181SOL    HW2  930   0.162   0.129   0.296
  182SOL     OW  931   1.183   1.335   0.119
  182SOL    HW1  932   1.084   1.324   0.121
  182SOL    HW2  933   1.217   1.350   0.212
  183SOL     OW  934   0.613   0.842   1.431
  183SOL    HW1  935   0.669   0.923   1.414
  183SOL    HW2  936   0.672   0.762   1.434
  184SOL     OW  937   1.493   1.767   0.959
  184SOL    HW1  938   1.526   1.831   0.890
  184SOL    HW2  939   1.559   1.761   1.034
  185SOL     OW  940   0.716   0.565   1.708
  185SOL    HW1  941   0.735   0.630   1.782
  185SOL    HW2  942   0.776   0.485   1.717
  186SOL     OW  943   1.450   1.220   1.633
  186SOL    HW1  944   1.441   1.210   1.732
  186SOL    HW2  945   1.546   1.213   1.607
  187SOL     OW  946   0.390   1.741   1.560
  187SOL    HW1  947   0.299   1.782   1.558
  187SOL    HW2  948   0.383   1.647   1.592
  188SOL     OW  949   1.674   0.883   1.254
  188SOL    HW1  950   1.647   0.794   1.217
  188SOL    HW2  951   1.675   0.951   1.181
  189SOL     OW  952   1.225   0.325   0.449
  189SOL    HW1  953   1.290   0.251   0.438
  189SOL    HW2  954   1.245   0.375   0.533
  190SOL     OW  955   0.594   0.745   0.652
  190SOL    HW1  956   0.644   0.830   0.633
  190SOL    HW2  957   0.506   0.747   0.604
  191SOL     OW  958   1.777   0.342   1.642
  191SOL    HW1  959   1.760   0.373   1.548
  191SOL    HW2  960   1.693   0.305   1.680
  192SOL     OW  961   1.730   0.934   1.517
  192SOL    HW1  962   1.768   1.025   1.532
  192SOL    HW2  963   1.722   0.917   1.418
  193SOL     OW  964   0.859   1.374   0.016
  193SOL    HW1  965   0.813   1.389   0.104
  193SOL    HW2  966   0.903   1.459  -0.014
  194SOL     OW  967   0.661   1.790   0.953
  194SOL    HW1  968   0.615   1.878   0.940
  194SOL    HW2  969   0.760   1.802   0.946
  195SOL     OW  970   0.859   0.956   0.861
  195SOL    HW1  971   0.913   0.887   0.909
  195SOL    HW2  972   0.827   1.025   0.927
  196SOL     OW  973   1.083   0.984   0.087
  196SOL    HW1  974   1.060   1.037   0.005
  196SOL    HW2  975   1.164   0.928   0.068
  197SOL     OW  976   1.861   1.569   0.851
  197SOL    HW1  977   1.790   1.557   0.781
  197SOL    HW2  978   1.862   1.490   0.911
  198SOL     OW  979   0.221   1.314   1.844
  198SOL    HW1  980   0.156   1.241   1.823
  198SOL    HW2  981   0.225   1.328   1.942
  199SOL     OW  982   0.079   1.240   0.653
  199SOL    HW1  983   0.078   1.193   0.741
  199SOL    HW2  984   0.161   1.212   0.602
  200SOL     OW  985   0.672   1.391   1.624
  200SOL    HW1  986   0.594   1.341   1.662
  200SOL    HW2  987   0.669   1.486   1.655
  201SOL     OW  988   1.824   0.192   1.227
  201SOL    HW1  989   1.820   0.102   1.271
  201SOL    HW2  990   1.827   0.181   1.128
  202SOL     OW  991   0.428   0.424   0.520
  202SOL    HW1  992   0.458   0.352   0.458
  202SOL    HW2  993   0.389   0.384   0.603
  203SOL     OW  994   1.705   1.487   1.104
  203SOL    HW1  995   1.612   1.462   1.077
  203SOL    HW2  996   1.731   1.437   1.186
  204SOL     OW  997   0.317   0.547   1.280
  204SOL    HW1  998   0.355   0.488   1.352
  204SOL    HW2  999   0.357   0.521   1.192
  205SOL     OW 1000   0.812   1.586   0.687
  205SOL    HW1 1001   0.844   1.596   0.593
  205SOL    HW2 1002   0.733   1.524   0.689
  206SOL     OW 1003   1.424   0.214   1.112
  206SOL    HW1 1004   1.476   0.149   1.167
  206SOL    HW2 1005   1.375   0.277   1.173
  207SOL     OW 1006   1.001   0.034   1.154
  207SOL    HW1 1007   0.938  -0.038   1.123
  207SOL    HW2 1008   1.094  -0.002   1.154
  208SOL     OW 1009   0.770   1.330   0.301
  208SOL    HW1 1010   0.724   1.243   0.318
  208SOL    HW2 1011   0.861   1.327   0.342
  209SOL     OW 1012   0.618   1.567   1.284
  209SOL    HW1 1013   0.613   1.649   1.341
  209SOL    HW2 1014   0.707   1.564   1.239
  210SOL     OW 1015   1.352   0.052   0.168
  210SOL    HW1 1016   1.387   0.011   0.084
  210SOL    HW2 1017   1.262   0.014   0.188
  211SOL     OW 1018   1.300   0.453   0.691
  211SOL    HW1 1019   1.241   0.533   0.695
  211SOL    HW2 1020   1.315   0.418   0.784
  212SOL     OW 1021   1.593   0.221   0.882
  212SOL    HW1 1022   1.509   0.220   0.936
  212SOL    HW2 1023   1.595   0.304   0.826
  213SOL     OW 1024   0.039   1.077   0.300
  213SOL    HW1 1025   0.138   1.066   0.291
  213SOL    HW2 1026  -0.001   0.991   0.332
  214SOL     OW 1027   0.875   1.646   0.337
  214SOL    HW1 1028   0.798   1.611   0.283
  214SOL    HW2 1029   0.843   1.717   0.399
  215SOL     OW 1030   0.230   0.628   1.975
  215SOL    HW1 1031   0.137   0.626   2.012
  215SOL    HW2 1032   0.231   0.589   1.883
  216SOL     OW 1033   0.225   0.275   2.858
  216SOL    HW1 1034   0.260   0.258   2.950
  216SOL    HW2 1035   0.137   0.230   2.846
  217SOL     OW 1036   0.019   0.368   2.509
  217SOL    HW1 1037  -0.063   0.411   2.548
  217SOL    HW2 1038  -0.009   0.295   2.446
  218SOL     OW 1039   0.569   1.275   3.027
  218SOL    HW1 1040   0.476   1.268   2.990
  218SOL    HW2 1041   0.580   1.364   3.071
  219SOL     OW 1042   1.555   1.511   2.565
  219SOL    HW1 1043   1.498   1.495   2.646
  219SOL    HW2 1044   1.496   1.521   2.485
  220SOL     OW 1045   1.135   0.703   2.579
  220SOL    HW1 1046   1.192   0.781   2.554
  220SOL    HW2 1047   1.075   0.729   2.655
  221SOL     OW 1048   1.755   0.607   2.093
  221SOL    HW1 1049   1.743   0.594   1.994
  221SOL    HW2 1050   1.725   0.526   2.142
  222SOL     OW 1051   0.768   1.144   2.885
  222SOL    HW1 1052   0.690   1.161   2.945
  222SOL    HW2 1053   0.802   1.231   2.849
  223SOL     OW 1054   0.850   0.798   3.685
  223SOL    HW1 1055   0.846   0.874   3.750
  223SOL    HW2 1056   0.872   0.834   3.594
  224SOL     OW 1057   0.685   1.012   2.527
  224SOL    HW1 1058   0.754   0.996   2.597
  224SOL    HW2 1059   0.612   1.069   2.565
  225SOL     OW 1060   0.686   1.161   3.665
  225SOL    HW1 1061   0.746   1.240   3.679
  225SOL    HW2 1062   0.600   1.192   3.624
  226SOL     OW 1063   0.335   1.435   2.923
  226SOL    HW1 1064   0.257   1.404   2.870
  226SOL    HW2 1065   0.393   1.493   2.866
  227SOL     OW 1066   1.460   1.505   3.201
  227SOL    HW1 1067   1.484   1.599   3.227
  227SOL    HW2 1068   1.444   1.451   3.283
  228SOL     OW 1069   0.438   0.392   3.361
  228SOL    HW1 1070   0.520   0.336   3.370
  228SOL    HW2 1071   0.357   0.334   3.365
  229SOL     OW 1072   1.603   0.447   2.599
  229SOL    HW1 1073   1.529   0.493   2.549
  229SOL    HW2 1074   1.654   0.515   2.652
  230SOL     OW 1075   0.231   1.713   2.345
  230SOL    HW1 1076   0.265   1.790   2.399
  230SOL    HW2 1077   0.275   1.713   2.255
  231SOL     OW 1078   1.127   1.341   3.552
  231SOL    HW1 1079   1.174   1.341   3.640
  231SOL    HW2 1080   1.079   1.254   3.541
  232SOL     OW 1081   0.230   1.434   2.400
  232SOL    HW1 1082   0.204   1.530   2.400
  232SOL    HW2 1083   0.159   1.380   2.445
  233SOL     OW 1084   0.240   1.091   2.748
  233SOL    HW1 1085   0.254   1.007   2.800
  233SOL    HW2 1086   0.185   1.155   2.803
  234SOL     OW 1087   0.620   1.786   3.301
  234SOL    HW1 1088   0.528   1.769   3.336
  234SOL    HW2 1089   0.648   1.878   3.327
  235SOL     OW 1090   0.606   0.964   1.985
  235SOL    HW1 1091   0.613   1.048   1.931
  235SOL    HW2 1092   0.652   0.977   2.073
  236SOL     OW 1093   1.594   0.114   3.342
  236SOL    HW1 1094   1.576   0.181   3.270
  236SOL    HW2 1095   1.591   0.160   3.431
  237SOL     OW 1096   0.122   0.643   2.425
  237SOL    HW1 1097   0.077   0.555   2.442
  237SOL    HW2 1098   0.121   0.697   2.509
  238SOL     OW 1099   1.842   1.767   2.221
  238SOL    HW1 1100   1.896   1.738   2.301
  238SOL    HW2 1101   1.872   1.857   2.192
  239SOL     OW 1102   0.027   1.596   1.979
  239SOL    HW1 1103   0.008   1.500   2.000
  239SOL    HW2 1104  -0.006   1.654   2.054
  240SOL     OW 1105   1.689   0.922   2.474
  240SOL    HW1 1106   1.784   0.893   2.482
  240SOL    HW2 1107   1.681   0.987   2.399
  241SOL     OW 1108   1.641   1.108   2.294
  241SOL    HW1 1109   1.727   1.110   2.242
  241SOL    HW2 1110   1.655   1.155   2.382
  242SOL     OW 1111   0.113   0.737   3.459
  242SOL    HW1 1112   0.201   0.724   3.504
  242SOL    HW2 1113   0.100   0.834   3.437
  243SOL     OW 1114   0.613   1.365   2.588
  243SOL    HW1 1115   0.564   1.278   2.597
  243SOL    HW2 1116   0.590   1.408   2.501
  244SOL     OW 1117   1.293   1.228   3.285
  244SOL    HW1 1118   1.330   1.155   3.227
  244SOL    HW2 1119   1.345   1.233   3.370
  245SOL     OW 1120   0.809   0.004   2.364
  245SOL    HW1 1121   0.849   0.095   2.355
  245SOL    HW2 1122   0.709   0.012   2.370
  246SOL     OW 1123   0.197   0.976   3.126
  246SOL    HW1 1124   0.286   0.931   3.112
  246SOL    HW2 1125   0.124   0.911   3.107
  247SOL     OW 1126   1.525   0.999   2.052
  247SOL    HW1 1127   1.462   0.923   2.065
  247SOL    HW2 1128   1.573   1.017   2.138
  248SOL     OW 1129   1.187   1.792   3.478
  248SOL    HW1 1130   1.211   1.852   3.402
  248SOL    HW2 1131   1.194   1.697   3.448
  249SOL     OW 1132   0.317   0.251   3.663
  249SOL    HW1 1133   0.388   0.322   3.669
  249SOL    HW2 1134   0.229   0.290   3.691
  250SOL     OW 1135   1.466   1.417   2.815
  250SOL    HW1 1136   1.407   1.423   2.895
  250SOL    HW2 1137   1.451   1.329   2.769
  251SOL     OW 1138   1.667   1.714   2.434
  251SOL    HW1 1139   1.626   1.691   2.346
  251SOL    HW2 1140   1.649   1.640   2.499
  252SOL     OW 1141   0.598   0.729   2.132
  252SOL    HW1 1142   0.622   0.798   2.064
  252SOL    HW2 1143   0.520   0.762   2.186
  253SOL     OW 1144   1.281   0.345   2.806
  253SOL    HW1 1145   1.195   0.295   2.793
  253SOL    HW2 1146   1.343   0.291   2.862
  254SOL     OW 1147   1.576   1.662   2.169
  254SOL    HW1 1148   1.665   1.708   2.172
  254SOL    HW2 1149   1.555   1.638   2.074
  255SOL     OW 1150   0.807   0.605   3.327
  255SOL    HW1 1151   0.760   0.602   3.416
  255SOL    HW2 1152   0.756   0.550   3.261
  256SOL     OW 1153   1.394   0.469   3.536
  256SOL    HW1 1154   1.374   0.512   3.624
  256SOL    HW2 1155   1.472   0.407   3.545
  257SOL     OW 1156   0.973   0.890   3.434
  257SOL    HW1 1157   1.019   0.806   3.405
  257SOL    HW2 1158   0.917   0.924   3.359
  258SOL     OW 1159   0.991   0.410   3.104
  258SOL    HW1 1160   0.914   0.444   3.158
  258SOL    HW2 1161   0.957   0.359   3.025
  259SOL     OW 1162   1.041   0.701   2.291
  259SOL    HW1 1163   1.067   0.697   2.387
  259SOL    HW2 1164   0.956   0.650   2.277
  260SOL     OW 1165   0.076   0.811   2.651
  260SOL    HW1 1166   0.175   0.799   2.660
  260SOL    HW2 1167   0.052   0.906   2.672
  261SOL     OW 1168   0.130   1.821   3.433
  261SOL    HW1 1169   0.120   1.806   3.532
  261SOL    HW2 1170   0.044   1.857   3.397
  262SOL     OW 1171   0.865   0.348   2.057
  262SOL    HW1 1172   0.924   0.411   2.008
  262SOL    HW2 1173   0.884   0.254   2.028
  263SOL     OW 1174   1.719   0.585   3.693
  263SOL    HW1 1175   1.693   0.674   3.657
  263SOL    HW2 1176   1.717   0.517   3.620
  264SOL     OW 1177   1.362   1.144   2.407
  264SOL    HW1 1178   1.445   1.115   2.359
  264SOL    HW2 1179   1.313   1.211   2.351
  265SOL     OW 1180   0.550   0.196   2.747
  265SOL    HW1 1181   0.545   0.191   2.847
  265SOL    HW2 1182   0.552   0.292   2.718
  266SOL     OW 1183   1.008   1.456   2.339
  266SOL    HW1 1184   0.962   1.528   2.287
  266SOL    HW2 1185   1.004   1.476   2.437
  267SOL     OW 1186   0.351   1.801   2.715
  267SOL    HW1 1187   0.401   1.715   2.721
  267SOL    HW2 1188   0.416   1.878   2.712
  268SOL     OW 1189   1.795   1.066   2.735
  268SOL    HW1 1190   1.733   1.051   2.659
  268SOL    HW2 1191   1.743   1.077   2.820
  269SOL     OW 1192   1.227   1.550   3.368
  269SOL    HW1 1193   1.233   1.473   3.432
  269SOL    HW2 1194   1.175   1.524   3.288
  270SOL     OW 1195   0.321   0.943   2.104
  270SOL    HW1 1196   0.403   0.982   2.062
  270SOL    HW2 1197   0.294   0.861   2.055
  271SOL     OW 1198   1.458   0.735   2.590
  271SOL    HW1 1199   1.453   0.670   2.665
  271SOL    HW2 1200   1.538   0.794   2.603
  272SOL     OW 1201   0.461   1.266   3.589
  272SOL    HW1 1202   0.411   1.267   3.503
  272SOL    HW2 1203   0.398   1.248   3.665
  273SOL     OW 1204   1.111   1.776   2.099
  273SOL    HW1 1205   1.051   1.714   2.149
  273SOL    HW2 1206   1.142   1.732   2.014
  274SOL     OW 1207   0.202   0.285   3.360
  274SOL    HW1 1208   0.122   0.345   3.347
  274SOL    HW2 1209   0.192   0.236   3.446
  275SOL     OW 1210   1.632   1.377   1.943
  275SOL    HW1 1211   1.600   1.471   1.933
  275SOL    HW2 1212   1.556   1.314   1.931
  276SOL     OW 1213   0.464   1.743   2.185
  276SOL    HW1 1214   0.497   1.782   2.271
  276SOL    HW2 1215   0.540   1.736   2.120
  277SOL     OW 1216   1.400   0.107   2.288
  277SOL    HW1 1217   1.376   0.070   2.198
  277SOL    HW2 1218   1.499   0.123   2.292
  278SOL     OW 1219   0.249   1.785   3.103
  278SOL    HW1 1220   0.306   1.720   3.153
  278SOL    HW2 1221   0.233   1.752   3.010
  279SOL     OW 1222   0.940   1.698   2.766
  279SOL    HW1 1223   1.020   1.641   2.787
  279SOL    HW2 1224   0.891   1.658   2.689
  280SOL     OW 1225   0.382   0.700   2.342
  280SOL    HW1 1226   0.427   0.610   2.339
  280SOL    HW2 1227   0.288   0.689   2.375
  281SOL     OW 1228   1.547   0.222   3.591
  281SOL    HW1 1229   1.542   0.259   3.683
  281SOL    HW2 1230   1.475   0.153   3.579
  282SOL     OW 1231   0.614   0.122   1.979
  282SOL    HW1 1232   0.712   0.100   1.986
  282SOL    HW2 1233   0.583   0.105   1.886
  283SOL     OW 1234   0.781   0.264   3.611
  283SOL    HW1 1235   0.848   0.203   3.654
  283SOL    HW2 1236   0.708   0.283   3.676
  284SOL     OW 1237   0.888   1.514   3.057
  284SOL    HW1 1238   0.865   1.489   2.963
  284SOL    HW2 1239   0.949   1.445   3.096
  285SOL     OW 1240   1.351   0.590   3.295
  285SOL    HW1 1241   1.379   0.547   3.380
  285SOL    HW2 1242   1.376   0.686   3.296
  286SOL     OW 1243   0.803   1.402   2.786
  286SOL    HW1 1244   0.893   1.416   2.744
  286SOL    HW2 1245   0.732   1.404   2.715
  287SOL     OW 1246   0.922   0.503   2.761
  287SOL    HW1 1247   0.897   0.494   2.665
  287SOL    HW2 1248   0.970   0.421   2.792
  288SOL     OW 1249   0.539   0.064   2.374
  288SOL    HW1 1250   0.458   0.065   2.432
  288SOL    HW2 1251   0.542   0.147   2.319
  289SOL     OW 1252   1.434   1.188   1.903
  289SOL    HW1 1253   1.466   1.112   1.960
  289SOL    HW2 1254   1.342   1.215   1.933
  290SOL     OW 1255   0.297   0.035   2.033
  290SOL    HW1 1256   0.346   0.119   2.012
  290SOL    HW2 1257   0.359  -0.030   2.078
  291SOL     OW 1258   0.935   0.236   2.342
  291SOL    HW1 1259   0.887   0.277   2.264
  291SOL    HW2 1260   1.034   0.234   2.323
  292SOL     OW 1261   1.076   0.683   3.326
  292SOL    HW1 1262   0.996   0.622   3.329
  292SOL    HW2 1263   1.157   0.630   3.302
  293SOL     OW 1264   1.227   1.570   2.655
  293SOL    HW1 1265   1.248   1.644   2.590
  293SOL    HW2 1266   1.295   1.570   2.728
  294SOL     OW 1267   0.459   1.152   2.603
  294SOL    HW1 1268   0.388   1.125   2.668
  294SOL    HW2 1269   0.433   1.124   2.510
  295SOL     OW 1270   1.271   1.797   2.453
  295SOL    HW1 1271   1.315   1.861   2.389
  295SOL    HW2 1272   1.221   1.849   2.523
  296SOL     OW 1273   1.032   0.549   1.878
  296SOL    HW1 1274   0.991   0.631   1.839
  296SOL    HW2 1275   1.096   0.575   1.951
  297SOL     OW 1276   0.078   0.556   3.248
  297SOL    HW1 1277   0.170   0.555   3.207
  297SOL    HW2 1278   0.072   0.630   3.315
  298SOL     OW 1279   0.561   0.222   3.009
  298SOL    HW1 1280   0.599   0.138   3.046
  298SOL    HW2 1281   0.473   0.241   3.053
  299SOL     OW 1282   0.866   0.454   2.504
  299SOL    HW1 1283   0.834   0.526   2.442
  299SOL    HW2 1284   0.890   0.373   2.451
  300SOL     OW 1285   1.017   0.039   2.615
  300SOL    HW1 1286   0.945   0.044   2.546
  300SOL    HW2 1287   0.993  -0.030   2.684
  301SOL     OW 1288   1.429   1.173   2.729
  301SOL    HW1 1289   1.374   1.089   2.722
  301SOL    HW2 1290   1.455   1.202   2.637
  302SOL     OW 1291   1.466   0.590   2.854
  302SOL    HW1 1292   1.436   0.495   2.861
  302SOL    HW2 1293   1.539   0.606   2.920
  303SOL     OW 1294   1.857   0.833   2.239
  303SOL    HW1 1295   1.899   0.769   2.303
  303SOL    HW2 1296   1.819   0.782   2.161
  304SOL     OW 1297   0.488   1.385   2.036
  304SOL    HW1 1298   0.401   1.370   2.083
  304SOL    HW2 1299   0.471   1.411   1.941
  305SOL     OW 1300   1.664   1.280   2.519
  305SOL    HW1 1301   1.763   1.288   2.533
  305SOL    HW2 1302   1.619   1.364   2.550
  306SOL     OW 1303   1.390   0.575   1.940
  306SOL    HW1 1304   1.336   0.554   2.021
  306SOL    HW2 1305   1.481   0.534   1.949
  307SOL     OW 1306   0.527   0.256   2.190
  307SOL    HW1 1307   0.554   0.197   2.115
  307SOL    HW2 1308   0.527   0.351   2.159
  308SOL     OW 1309   1.754   1.223   3.450
  308SOL    HW1 1310   1.845   1.184   3.437
  308SOL    HW2 1311   1.762   1.319   3.474
  309SOL     OW 1312   1.064   1.347   3.202
  309SOL    HW1 1313   0.984   1.324   3.257
  309SOL    HW2 1314   1.147   1.321   3.251
  310SOL     OW 1315   1.592   1.629   3.487
  310SOL    HW1 1316   1.619   1.663   3.397
  310SOL    HW2 1317   1.671   1.591   3.533
  311SOL     OW 1318   1.111   1.195   2.962
  311SOL    HW1 1319   1.071   1.239   3.043
  311SOL    HW2 1320   1.070   1.232   2.879
  312SOL     OW 1321   1.638   1.099   2.941
  312SOL    HW1 1322   1.643   1.180   3.000
  312SOL    HW2 1323   1.552   1.101   2.890
  313SOL     OW 1324   0.915   0.089   3.264
  313SOL    HW1 1325   0.940   0.069   3.169
  313SOL    HW2 1326   0.987   0.145   3.306
  314SOL     OW 1327   0.980   1.116   3.581
  314SOL    HW1 1328   0.881   1.122   3.591
  314SOL    HW2 1329   1.003   1.036   3.525
  315SOL     OW 1330   0.705   1.050   2.230
  315SOL    HW1 1331   0.691   1.057   2.329
  315SOL    HW2 1332   0.789   0.999   2.212
  316SOL     OW 1333   0.410   0.813   3.113
  316SOL    HW1 1334   0.496   0.825   3.163
  316SOL    HW2 1335   0.368   0.726   3.140
  317SOL     OW 1336   1.274   0.386   3.124
  317SOL    HW1 1337   1.295   0.460   3.188
  317SOL    HW2 1338   1.185   0.403   3.081
  318SOL     OW 1339   0.064   1.564   3.193
  318SOL    HW1 1340   0.018   1.646   3.159
  318SOL    HW2 1341   0.162   1.583   3.202
  319SOL     OW 1342   0.367   1.100   2.363
  319SOL    HW1 1343   0.360   1.183   2.307
  319SOL    HW2 1344   0.371   1.020   2.303
  320SOL     OW 1345   0.566   0.537   2.727
  320SOL    HW1 1346   0.578   0.603   2.653
  320SOL    HW2 1347   0.612   0.571   2.810
  321SOL     OW 1348   1.252   1.348   2.250
  321SOL    HW1 1349   1.302   1.425   2.290
  321SOL    HW2 1350   1.157   1.350   2.282
  322SOL     OW 1351   1.272   1.445   3.004
  322SOL    HW1 1352   1.319   1.458   3.091
  322SOL    HW2 1353   1.206   1.371   3.013
  323SOL     OW 1354   1.582   0.639   2.334
  323SOL    HW1 1355   1.551   0.700   2.407
  323SOL    HW2 1356   1.632   0.691   2.265
  324SOL     OW 1357   0.354   1.510   3.191
  324SOL    HW1 1358   0.333   1.466   3.104
  324SOL    HW2 1359   0.451   1.536   3.194
  325SOL     OW 1360   0.402   0.751   3.460
  325SOL    HW1 1361   0.470   0.806   3.413
  325SOL    HW2 1362   0.442   0.663   3.487
  326SOL     OW 1363   1.587   0.779   3.532
  326SOL    HW1 1364   1.495   0.817   3.527
  326SOL    HW2 1365   1.647   0.826   3.467
  327SOL     OW 1366   1.013   0.105   3.632
  327SOL    HW1 1367   1.019   0.190   3.580
  327SOL    HW2 1368   1.045   0.029   3.575
  328SOL     OW 1369   0.504   0.050   3.602
  328SOL    HW1 1370   0.462  -0.007   3.532
  328SOL    HW2 1371   0.438   0.119   3.634
  329SOL     OW 1372   0.573   0.870   2.891
  329SOL    HW1 1373   0.617   0.959   2.882
  329SOL    HW2 1374   0.510   0.870   2.968
  330SOL     OW 1375   1.360   0.862   2.907
  330SOL    HW1 1376   1.285   0.862   2.841
  330SOL    HW2 1377   1.397   0.770   2.916
  331SOL     OW 1378   1.209   0.525   2.137
  331SOL    HW1 1379   1.222   0.441   2.191
  331SOL    HW2 1380   1.180   0.599   2.197
  332SOL     OW 1381   0.307   0.213   3.093
  332SOL    HW1 1382   0.284   0.250   3.183
  332SOL    HW2 1383   0.277   0.118   3.087
  333SOL     OW 1384   0.037   1.310   3.144
  333SOL    HW1 1385   0.090   1.261   3.212
  333SOL    HW2 1386   0.059   1.408   3.149
  334SOL     OW 1387   0.732   0.634   2.926
  334SOL    HW1 1388   0.791   0.608   2.850
  334SOL    HW2 1389   0.704   0.730   2.915
  335SOL     OW 1390   1.728   0.935   3.716
  335SOL    HW1 1391   1.682   0.928   3.627
  335SOL    HW2 1392   1.666   0.979   3.782
  336SOL     OW 1393   0.307   0.063   2.480
  336SOL    HW1 1394   0.296   0.157   2.513
  336SOL    HW2 1395   0.302   0.000   2.557
  337SOL     OW 1396   1.622   0.367   2.236
  337SOL    HW1 1397   1.624   0.291   2.300
  337SOL    HW2 1398   1.574   0.444   2.276
  338SOL     OW 1399   1.023   0.766   2.828
  338SOL    HW1 1400   1.038   0.787   2.924
  338SOL    HW2 1401   0.993   0.671   2.819
  339SOL     OW 1402   0.980   1.573   3.562
  339SOL    HW1 1403   0.960   1.617   3.474
  339SOL    HW2 1404   1.019   1.482   3.546
  340SOL     OW 1405   1.859   1.518   3.467
  340SOL    HW1 1406   1.873   1.545   3.372
  340SOL    HW2 1407   1.942   1.540   3.520
  341SOL     OW 1408   0.350   0.898   3.666
  341SOL    HW1 1409   0.426   0.942   3.714
  341SOL    HW2 1410   0.385   0.851   3.584
  342SOL     OW 1411   1.540   0.274   1.987
  342SOL    HW1 1412   1.479   0.199   2.010
  342SOL    HW2 1413   1.562   0.326   2.070
  343SOL     OW 1414   1.303   0.838   1.904
  343SOL    HW1 1415   1.337   0.745   1.919
  343SOL    HW2 1416   1.321   0.865   1.809
  344SOL     OW 1417   1.068   1.333   2.711
  344SOL    HW1 1418   1.075   1.249   2.656
  344SOL    HW2 1419   1.130   1.402   2.675
  345SOL     OW 1420   0.319   0.810   2.811
  345SOL    HW1 1421   0.412   0.846   2.816
  345SOL    HW2 1422   0.313   0.725   2.863
  346SOL     OW 1423   0.339   0.509   2.868
  346SOL    HW1 1424   0.287   0.426   2.851
  346SOL    HW2 1425   0.416   0.514   2.804
  347SOL     OW 1426   1.138   0.380   3.540
  347SOL    HW1 1427   1.093   0.443   3.604
  347SOL    HW2 1428   1.231   0.411   3.523
  348SOL     OW 1429   1.160   0.207   3.339
  348SOL    HW1 1430   1.160   0.271   3.416
  348SOL    HW2 1431   1.188   0.255   3.256
  349SOL     OW 1432   0.008   1.326   2.062
  349SOL    HW1 1433  -0.085   1.347   2.031
  349SOL    HW2 1434   0.018   1.227   2.075
  350SOL     OW 1435   0.088   1.801   2.789
  350SOL    HW1 1436   0.046   1.715   2.762
  350SOL    HW2 1437   0.182   1.804   2.755
  351SOL     OW 1438   0.504   1.568   2.772
  351SOL    HW1 1439   0.570   1.642   2.781
  351SOL    HW2 1440   0.548   1.489   2.730
  352SOL     OW 1441   1.002   0.796   3.100
  352SOL    HW1 1442   1.043   0.764   3.186
  352SOL    HW2 1443   0.906   0.769   3.097
  353SOL     OW 1444   0.040   0.544   2.976
  353SOL    HW1 1445   0.125   0.511   2.935
  353SOL    HW2 1446   0.053   0.559   3.074
  354SOL     OW 1447   0.189   0.520   3.584
  354SOL    HW1 1448   0.248   0.480   3.514
  354SOL    HW2 1449   0.131   0.591   3.543
  355SOL     OW 1450   1.369   0.950   3.522
  355SOL    HW1 1451   1.408   1.039   3.542
  355SOL    HW2 1452   1.379   0.930   3.425
  356SOL     OW 1453   0.815   0.572   2.187
  356SOL    HW1 1454   0.822   0.483   2.141
  356SOL    HW2 1455   0.721   0.606   2.179
  357SOL     OW 1456   1.657   0.604   3.068
  357SOL    HW1 1457   1.619   0.535   3.130
  357SOL    HW2 1458   1.739   0.568   3.024
  358SOL     OW 1459   0.252   1.564   3.606
  358SOL    HW1 1460   0.222   1.621   3.682
  358SOL    HW2 1461   0.245   1.467   3.632
  359SOL     OW 1462   0.671   0.464   3.131
  359SOL    HW1 1463   0.637   0.375   3.101
  359SOL    HW2 1464   0.697   0.518   3.051
  360SOL     OW 1465   0.930   1.678   3.327
  360SOL    HW1 1466   0.906   1.660   3.232
  360SOL    HW2 1467   0.960   1.772   3.337
  361SOL     OW 1468   0.473   0.500   2.053
  361SOL    HW1 1469   0.534   0.580   2.057
  361SOL    HW2 1470   0.378   0.531   2.060
  362SOL     OW 1471   0.159   1.137   3.328
  362SOL    HW1 1472   0.181   1.076   3.404
  362SOL    HW2 1473   0.169   1.088   3.242
  363SOL     OW 1474   1.347   1.059   3.096
  363SOL    HW1 1475   1.371   0.996   3.022
  363SOL    HW2 1476   1.257   1.099   3.078
  364SOL     OW 1477   1.302   0.855   2.171
  364SOL    HW1 1478   1.216   0.824   2.213
  364SOL    HW2 1479   1.298   0.841   2.072
  365SOL     OW 1480   1.759   1.747   3.016
  365SOL    HW1 1481   1.820   1.777   2.943
  365SOL    HW2 1482   1.721   1.658   2.994
  366SOL     OW 1483   1.252   1.731   2.990
  366SOL    HW1 1484   1.336   1.736   2.936
  366SOL    HW2 1485   1.229   1.635   3.008
  367SOL     OW 1486   0.083   1.258   2.884
  367SOL    HW1 1487   0.078   1.257   2.984
  367SOL    HW2 1488   0.000   1.217   2.846
  368SOL     OW 1489   0.688   1.662   3.578
  368SOL    HW1 1490   0.632   1.743   3.587
  368SOL    HW2 1491   0.740   1.666   3.492
  369SOL     OW 1492   1.726   0.135   2.385
  369SOL    HW1 1493   1.799   0.118   2.318
  369SOL    HW2 1494   1.695   0.048   2.423
  370SOL     OW 1495   1.388   1.573   2.339
  370SOL    HW1 1496   1.455   1.585   2.265
  370SOL    HW2 1497   1.348   1.662   2.362
  371SOL     OW 1498   0.130   1.794   3.713
  371SOL    HW1 1499   0.089   1.720   3.766
  371SOL    HW2 1500   0.194   1.845   3.771
  372SOL     OW 1501   1.280   0.927   2.534
  372SOL    HW1 1502   1.340   0.846   2.536
  372SOL    HW2 1503   1.320   0.996   2.474
  373SOL     OW 1504   0.830   1.273   3.284
  373SOL    HW1 1505   0.825   1.306   3.379
  373SOL    HW2 1506   0.744   1.292   3.238
  374SOL     OW 1507   0.672   1.616   2.016
  374SOL    HW1 1508   0.681   1.626   1.917
  374SOL    HW2 1509   0.632   1.527   2.037
  375SOL     OW 1510   1.650   1.720   3.256
  375SOL    HW1 1511   1.703   1.730   3.172
  375SOL    HW2 1512   1.623   1.810   3.290
  376SOL     OW 1513   1.841   0.175   2.825
  376SOL    HW1 1514   1.880   0.090   2.789
  376SOL    HW2 1515   1.743   0.177   2.806
  377SOL     OW 1516   0.263   0.326   2.582
  377SOL    HW1 1517   0.184   0.377   2.548
  377SOL    HW2 1518   0.254   0.311   2.680
  378SOL     OW 1519   1.194   1.612   1.893
  378SOL    HW1 1520   1.200   1.519   1.930
  378SOL    HW2 1521   1.135   1.612   1.813
  379SOL     OW 1522   0.822   1.002   3.234
  379SOL    HW1 1523   0.862   1.001   3.142
  379SOL    HW2 1524   0.832   1.094   3.274
  380SOL     OW 1525   0.916   0.910   2.153
  380SOL    HW1 1526   0.979   0.948   2.085
  380SOL    HW2 1527   0.956   0.827   2.192
  381SOL     OW 1528   1.504   1.607   1.906
  381SOL    HW1 1529   1.412   1.644   1.913
  381SOL    HW2 1530   1.542   1.627   1.816
  382SOL     OW 1531   0.372   1.288   3.352
  382SOL    HW1 1532   0.359   1.381   3.318
  382SOL    HW2 1533   0.288   1.236   3.339
  383SOL     OW 1534   1.614   1.292   3.151
  383SOL    HW1 1535   1.674   1.295   3.231
  383SOL    HW2 1536   1.539   1.356   3.164
  384SOL     OW 1537   1.039   1.098   2.558
  384SOL    HW1 1538   0.969   1.051   2.612
  384SOL    HW2 1539   1.098   1.030   2.515
  385SOL     OW 1540   1.014   0.236   2.833
  385SOL    HW1 1541   1.006   0.200   2.740
  385SOL    HW2 1542   1.012   0.160   2.898
  386SOL     OW 1543   0.590   1.487   2.353
  386SOL    HW1 1544   0.632   1.429   2.283
  386SOL    HW2 1545   0.546   1.566   2.309
  387SOL     OW 1546   1.709   0.385   3.243
  387SOL    HW1 1547   1.782   0.454   3.247
  387SOL    HW2 1548   1.737   0.310   3.184
  388SOL     OW 1549   0.255   1.348   2.152
  388SOL    HW1 1550   0.159   1.349   2.125
  388SOL    HW2 1551   0.267   1.401   2.236
  389SOL     OW 1552   0.105   1.013   3.588
  389SOL    HW1 1553   0.028   0.980   3.642
  389SOL    HW2 1554   0.190   0.983   3.630
  390SOL     OW 1555   0.672   0.203   3.351
  390SOL    HW1 1556   0.762   0.187   3.311
  390SOL    HW2 1557   0.680   0.208   3.450
  391SOL     OW 1558   0.075   0.345   1.895
  391SOL    HW1 1559  -0.017   0.317   1.866
  391SOL    HW2 1560   0.106   0.422   1.839
  392SOL     OW 1561   1.440   0.856   3.260
  392SOL    HW1 1562   1.383   0.908   3.197
  392SOL    HW2 1563   1.536   0.868   3.236
  393SOL     OW 1564   0.072   0.166   2.180
  393SOL    HW1 1565   0.055   0.249   2.126
  393SOL    HW2 1566   0.162   0.129   2.158
  394SOL     OW 1567   1.183   1.335   1.981
  394SOL    HW1 1568   1.084   1.324   1.983
  394SOL    HW2 1569   1.217   1.350   2.074
  395SOL     OW 1570   0.613   0.842   3.293
  395SOL    HW1 1571   0.669   0.923   3.276
  395SOL    HW2 1572   0.672   0.762   3.296
  396SOL     OW 1573   1.493   1.767   2.821
  396SOL    HW1 1574   1.526   1.831   2.752
  396SOL    HW2 1575   1.559   1.761   2.896
  397SOL     OW 1576   0.716   0.565   3.570
  397SOL    HW1 1577   0.735   0.630   3.644
  397SOL    HW2 1578   0.776   0.485   3.579
  398SOL     OW 1579   1.450   1.220   3.495
  398SOL    HW1 1580   1.441   1.210   3.594
  398SOL    HW2 1581   1.546   1.213   3.469
  399SOL     OW 1582   0.390   1.741   3.422
  399SOL    HW1 1583   0.299   1.782   3.420
  399SOL    HW2 1584   0.383   1.647   3.454
  400SOL     OW 1585   1.674   0.883   3.116
  400SOL    HW1 1586   1.647   0.794   3.079
  400SOL    HW2 1587   1.675   0.951   3.043
  401SOL     OW 1588   1.225   0.325   2.311
  401SOL    HW1 1589   1.290   0.251   2.300
  401SOL    HW2 1590   1.245   0.375   2.395
  402SOL     OW 1591   0.594   0.745   2.514
  402SOL    HW1 1592   0.644   0.830   2.495
  402SOL    HW2 1593   0.506   0.747   2.466
  403SOL     OW 1594   1.777   0.342   3.504
  403SOL    HW1 1595   1.760   0.373   3.410
  403SOL    HW2 1596   1.693   0.305   3.542
  404SOL     OW 1597   1.730   0.934   3.379
  404SOL    HW1 1598   1.768   1.025   3.394
  404SOL    HW2 1599   1.722   0.917   3.280
  405SOL     OW 1600   0.859   1.374   1.878
  405SOL    HW1 1601   0.813   1.389   1.966
  405SOL    HW2 1602   0.903   1.459   1.848
  406SOL     OW 1603   0.661   1.790   2.815
  406SOL    HW1 1604   0.615   1.878   2.802
  406SOL    HW2 1605   0.760   1.802   2.808
  407SOL     OW 1606   0.859   0.956   2.723
  407SOL    HW1 1607   0.913   0.887   2.771
  407SOL    HW2 1608   0.827   1.025   2.789
  408SOL     OW 1609   1.083   0.984   1.949
  408SOL    HW1 1610   1.060   1.037   1.867
  408SOL    HW2 1611   1.164   0.928   1.930
  409SOL     OW 1612   1.861   1.569   2.713
  409SOL    HW1 1613   1.790   1.557   2.643
  409SOL    HW2 1614   1.862   1.490   2.773
  410SOL     OW 1615   0.221   1.314   3.706
  410SOL    HW1 1616   0.156   1.241   3.685
  410SOL    HW2 1617   0.225   1.328   3.804
  411SOL     OW 1618   0.079   1.240   2.515
  411SOL    HW1 1619   0.078   1.193   2.603
  411SOL    HW2 1620   0.161   1.212   2.464
  412SOL     OW 1621   0.672   1.391   3.486
  412SOL    HW1 1622   0.594   1.341   3.524
  412SOL    HW2 1623   0.669   1.486   3.517
  413SOL     OW 1624   1.824   0.192   3.089
  413SOL    HW1 1625   1.820   0.102   3.133
  413SOL    HW2 1626   1.827   0.181   2.990
  414SOL     OW 1627   0.428   0.424   2.382
  414SOL    HW1 1628   0.458   0.352   2.320
  414SOL    HW2 1629   0.389   0.384   2.465
  415SOL     OW 1630   1.705   1.487   2.966
  415SOL    HW1 1631   1.612   1.462   2.939
  415SOL    HW2 1632   1.731   1.437   3.048
  416SOL     OW 1633   0.317   0.547   3.142
  416SOL    HW1 1634   0.355   0.488   3.214
  416SOL    HW2 1635   0.357   0.521   3.054
  417SOL     OW 1636   0.812   1.586   2.549
  417SOL    HW1 1637   0.844   1.596   2.455
  417SOL    HW2 1638   0.733   1.524   2.551
  418SOL     OW 1639   1.424   0.214   2.974
  418SOL    HW1 1640   1.476   0.149   3.029
  418SOL    HW2 1641   1.375   0.277   3.035
  419SOL     OW 1642   1.001   0.034   3.016
  419SOL    HW1 1643   0.938  -0.038   2.985
  419SOL    HW2 1644   1.094  -0.002   3.016
  420SOL     OW 1645   0.770   1.330   2.163
  420SOL    HW1 1646   0.724   1.243   2.180
  420SOL    HW2 1647   0.861   1.327   2.204
  421SOL     OW 1648   0.618   1.567   3.146
  421SOL    HW1 1649   0.613   1.649   3.203
  421SOL    HW2 1650   0.707   1.564   3.101
  422SOL     OW 1651   1.352   0.052   2.030
  422SOL    HW1 1652   1.387   0.011   1.946
  422SOL    HW2 1653   1.262   0.014   2.050
  423SOL     OW 1654   1.300   0.453   2.553
  423SOL    HW1 1655   1.241   0.533   2.557
  423SOL    HW2 1656   1.315   0.418   2.646
  424SOL     OW 1657   1.593   0.221   2.744
  424SOL    HW1 1658   1.509   0.220   2.798
  424SOL    HW2 1659   1.595   0.304   2.688
  425SOL     OW 1660   0.039   1.077   2.162
  425SOL    HW1 1661   0.138   1.066   2.153
  425SOL    HW2 1662  -0.001   0.991   2.194
  426SOL     OW 1663   0.875   1.646   2.199
  426SOL    HW1 1664   0.798   1.611   2.145
  426SOL    HW2 1665   0.843   1.717   2.261
  427SOL     OW 1666   0.230   0.628   3.837
  427SOL    HW1 1667   0.137   0.626   3.874
  427SOL    HW2 1668   0.231   0.589   3.745
  428SOL     OW 1669   0.225   0.275   4.720
  428SOL    HW1 1670   0.260   0.258   4.812
  428SOL    HW2 1671   0.137   0.230   4.708
  429SOL     OW 1672   0.019   0.368   4.371
  429SOL    HW1 1673  -0.063   0.411   4.410
  429SOL    HW2 1674  -0.009   0.295   4.308
  430SOL     OW 1675   0.569   1.275   4.889
  430SOL    HW1 1676   0.476   1.268   4.852
  430SOL    HW2 1677   0.580   1.364   4.933
  431SOL     OW 1678   1.555   1.511   4.427
  431SOL    HW1 1679   1.498   1.495   4.508
  431SOL    HW2 1680   1.496   1.521   4.347
  432SOL     OW 1681   1.135   0.703   4.441
  432SOL    HW1 1682   1.192   0.781   4.416
  432SOL    HW2 1683   1.075   0.729   4.517
  433SOL     OW 1684   1.755   0.607   3.955
  433SOL    HW1 1685   1.743   0.594   3.856
  433SOL    HW2 1686   1.725   0.526   4.004
  434SOL     OW 1687   0.768   1.144   4.747
  434SOL    HW1 1688   0.690   1.161   4.807
  434SOL    HW2 1689   0.802   1.231   4.711
  435SOL     OW 1690   0.850   0.798   5.547
  435SOL    HW1 1691   0.846   0.874   5.612
  435SOL    HW2 1692   0.872   0.834   5.456
  436SOL     OW 1693   0.685   1.012   4.389
  436SOL    HW1 1694   0.754   0.996   4.459
  436SOL    HW2 1695   0.612   1.069   4.427
  437SOL     OW 1696   0.686   1.161   5.527
  437SOL    HW1 1697   0.746   1.240   5.541
  437SOL    HW2 1698   0.600   1.192   5.486
  438SOL     OW 1699   0.335   1.435   4.785
  438SOL    HW1 1700   0.257   1.404   4.732
  438SOL    HW2 1701   0.393   1.493   4.728
  439SOL     OW 1702   1.460   1.505   5.063
  439SOL    HW1 1703   1.484   1.599   5.089
  439SOL    HW2 1704   1.444   1.451   5.145
  440SOL     OW 1705   0.438   0.392   5.223
  440SOL    HW1 1706   0.520   0.336   5.232
  440SOL    HW2 1707   0.357   0.334   5.227
  441SOL     OW 1708   1.603   0.447   4.461
  441SOL    HW1 1709   1.529   0.493   4.411
  441SOL    HW2 1710   1.654   0.515   4.514
  442SOL     OW 1711   0.231   1.713   4.207
  442SOL    HW1 1712   0.265   1.790   4.261
  442SOL    HW2 1713   0.275   1.713   4.117
  443SOL     OW 1714   1.127   1.341   5.414
  443SOL    HW1 1715   1.174   1.341   5.502
  443SOL    HW2 1716   1.079   1.254   5.403
  444SOL     OW 1717   0.230   1.434   4.262
  444SOL    HW1 1718   0.204   1.530   4.262
  444SOL    HW2 1719   0.159   1.380   4.307
  445SOL     OW 1720   0.240   1.091   4.610
  445SOL    HW1 1721   0.254   1.007   4.662
  445SOL    HW2 1722   0.185   1.155   4.665
  446SOL     OW 1723   0.620   1.786   5.163
  446SOL    HW1 1724   0.528   1.769   5.198
  446SOL    HW2 1725   0.648   1.878   5.189
  447SOL     OW 1726   0.606   0.964   3.847
  447SOL    HW1 1727   0.613   1.048   3.793
  447SOL    HW2 1728   0.652   0.977   3.935
  448SOL     OW 1729   1.594   0.114   5.204
  448SOL    HW1 1730   1.576   0.181   5.132
  448SOL    HW2 1731   1.591   0.160   5.293
  449SOL     OW 1732   0.122   0.643   4.287
  449SOL    HW1 1733   0.077   0.555   4.304
  449SOL    HW2 1734   0.121   0.697   4.371
  450SOL     OW 1735   1.842   1.767   4.083
  450SOL    HW1 1736   1.896   1.738   4.163
  450SOL    HW2 1737   1.872   1.857   4.054
  451SOL     OW 1738   0.027   1.596   3.841
  451SOL    HW1 1739   0.008   1.500   3.862
  451SOL    HW2 1740  -0.006   1.654   3.916
  452SOL     OW 1741   1.689   0.922   4.336
  452SOL    HW1 1742   1.784   0.893   4.344
  452SOL    HW2 1743   1.681   0.987   4.261
  453SOL     OW 1744   1.641   1.108   4.156
  453SOL    HW1 1745   1.727   1.110   4.104
  453SOL    HW2 1746   1.655   1.155   4.244
  454SOL     OW 1747   0.113   0.737   5.321
  454SOL    HW1 1748   0.201   0.724   5.366
  454SOL    HW2 1749   0.100   0.834   5.299
  455SOL     OW 1750   0.613   1.365   4.450
  455SOL    HW1 1751   0.564   1.278   4.459
  455SOL    HW2 1752   0.590   1.408   4.363
  456SOL     OW 1753   1.293   1.228   5.147
  456SOL    HW1 1754   1.330   1.155   5.089
  456SOL    HW2 1755   1.345   1.233   5.232
  457SOL     OW 1756   0.809   0.004   4.226
  457SOL    HW1 1757   0.849   0.095   4.217
  457SOL    HW2 1758   0.709   0.012   4.232
  458SOL     OW 1759   0.197   0.976   4.988
  458SOL    HW1 1760   0.286   0.931   4.974
  458SOL    HW2 1761   0.124   0.911   4.969
  459SOL     OW 1762   1.525   0.999   3.914
  459SOL    HW1 1763   1.462   0.923   3.927
  459SOL    HW2 1764   1.573   1.017   4.000
  460SOL     OW 1765   1.187   1.792   5.340
  460SOL    HW1 1766   1.211   1.852   5.264
  460SOL    HW2 1767   1.194   1.697   5.310
  461SOL     OW 1768   0.317   0.251   5.525
  461SOL    HW1 1769   0.388   0.322   5.531
  461SOL    HW2 1770   0.229   0.290   5.553
  462SOL     OW 1771   1.466   1.417   4.677
  462SOL    HW1 1772   1.407   1.423   4.757
  462SOL    HW2 1773   1.451   1.329   4.631
  463SOL     OW 1774   1.667   1.714   4.296
  463SOL    HW1 1775   1.626   1.691   4.208
  463SOL    HW2 1776   1.649   1.640   4.361
  464SOL     OW 1777   0.598   0.729   3.994
  464SOL    HW1 1778   0.622   0.798   3.926
  464SOL    HW2 1779   0.520   0.762   4.048
  465SOL     OW 1780   1.281   0.345   4.668
  465SOL    HW1 1781   1.195   0.295   4.655
  465SOL    HW2 1782   1.343   0.291   4.724
  466SOL     OW 1783   1.576   1.662   4.031
  466SOL    HW1 1784   1.665   1.708   4.034
  466SOL    HW2 1785   1.555   1.638   3.936
  467SOL     OW 1786   0.807   0.605   5.189
  467SOL    HW1 1787   0.760   0.602   5.278
  467SOL    HW2 1788   0.756   0.550   5.123
  468SOL     OW 1789   1.394   0.469   5.398
  468SOL    HW1 1790   1.374   0.512   5.486
  468SOL    HW2 1791   1.472   0.407   5.407
  469SOL     OW 1792   0.973   0.890   5.296
  469SOL    HW1 1793   1.019   0.806   5.267
  469SOL    HW2 1794   0.917   0.924   5.221
  470SOL     OW 1795   0.991   0.410   4.966
  470SOL    HW1 1796   0.914   0.444   5.020
  470SOL    HW2 1797   0.957   0.359   4.887
  471SOL     OW 1798   1.041   0.701   4.153
  471SOL    HW1 1799   1.067   0.697   4.249
  471SOL    HW2 1800   0.956   0.650   4.139
  472SOL     OW 1801   0.076   0.811   4.513
  472SOL    HW1 1802   0.175   0.799   4.522
  472SOL    HW2 1803   0.052   0.906   4.534
  473SOL     OW 1804   0.130   1.821   5.295
  473SOL    HW1 1805   0.120   1.806   5.394
  473SOL    HW2 1806   0.044   1.857   5.259
  474SOL     OW 1807   0.865   0.348   3.919
  474SOL    HW1 1808   0.924   0.411   3.870
  474SOL    HW2 1809   0.884   0.254   3.890
  475SOL     OW 1810   1.719   0.585   5.555
  475SOL    HW1 1811   1.693   0.674   5.519
  475SOL    HW2 1812   1.717   0.517   5.482
  476SOL     OW 1813   1.362   1.144   4.269
  476SOL    HW1 1814   1.445   1.115   4.221
  476SOL    HW2 1815   1.313   1.211   4.213
  477SOL     OW 1816   0.550   0.196   4.609
  477SOL    HW1 1817   0.545   0.191   4.709
  477SOL    HW2 1818   0.552   0.292   4.580
  478SOL     OW 1819   1.008   1.456   4.201
  478SOL    HW1 1820   0.962   1.528   4.149
  478SOL    HW2 1821   1.004   1.476   4.299
  479SOL     OW 1822   0.351   1.801   4.577
  479SOL    HW1 1823   0.401   1.715   4.583
  479SOL    HW2 1824   0.416   1.878   4.574
  480SOL     OW 1825   1.795   1.066   4.597
  480SOL    HW1 1826   1.733   1.051   4.521
  480SOL    HW2 1827   1.743   1.077   4.682
  481SOL     OW 1828   1.227   1.550   5.230
  481SOL    HW1 1829   1.233   1.473   5.294
  481SOL    HW2 1830   1.175   1.524   5.150
  482SOL     OW 1831   0.321   0.943   3.966
  482SOL    HW1 1832   0.403   0.982   3.924
  482SOL    HW2 1833   0.294   0.861   3.917
  483SOL     OW 1834   1.458   0.735   4.452
  483SOL    HW1 1835   1.453   0.670   4.527
  483SOL    HW2 1836   1.538   0.794   4.465
  484SOL     OW 1837   0.461   1.266   5.451
  484SOL    HW1 1838   0.411   1.267   5.365
  484SOL    HW2 1839   0.398   1.248   5.527
  485SOL     OW 1840   1.111   1.776   3.961
  485SOL    HW1 1841   1.051   1.714   4.011
  485SOL    HW2 1842   1.142   1.732   3.876
  486SOL     OW 1843   0.202   0.285   5.222
  486SOL    HW1 1844   0.122   0.345   5.209
  486SOL    HW2 1845   0.192   0.236   5.308
  487SOL     OW 1846   1.632   1.377   3.805
  487SOL    HW1 1847   1.600   1.471   3.795
  487SOL    HW2 1848   1.556   1.314   3.793
  488SOL     OW 1849   0.464   1.743   4.047
  488SOL    HW1 1850   0.497   1.782   4.133
  488SOL    HW2 1851   0.540   1.736   3.982
  489SOL     OW 1852   1.400   0.107   4.150
  489SOL    HW1 1853   1.376   0.070   4.060
  489SOL    HW2 1854   1.499   0.123   4.154
  490SOL     OW 1855   0.249   1.785   4.965
  490SOL    HW1 1856   0.306   1.720   5.015
  490SOL    HW2 1857   0.233   1.752   4.872
  491SOL     OW 1858   0.940   1.698   4.628
  491SOL    HW1 1859   1.020   1.641   4.649
  491SOL    HW2 1860   0.891   1.658   4.551
  492SOL     OW 1861   0.382   0.700   4.204
  492SOL    HW1 1862   0.427   0.610   4.201
  492SOL    HW2 1863   0.288   0.689   4.237
  493SOL     OW 1864   1.547   0.222   5.453
  493SOL    HW1 1865   1.542   0.259   5.545
  493SOL    HW2 1866   1.475   0.153   5.441
  494SOL     OW 1867   0.614   0.122   3.841
  494SOL    HW1 1868   0.712   0.100   3.848
  494SOL    HW2 1869   0.583   0.105   3.748
  495SOL     OW 1870   0.781   0.264   5.473
  495SOL    HW1 1871   0.848   0.203   5.516
  495SOL    HW2 1872   0.708   0.283   5.538
  496SOL     OW 1873   0.888   1.514   4.919
  496SOL    HW1 1874   0.865   1.489   4.825
  496SOL    HW2 1875   0.949   1.445   4.958
  497SOL     OW 1876   1.351   0.590   5.157
  497SOL    HW1 1877   1.379   0.547   5.242
  497SOL    HW2 1878   1.376   0.686   5.158
  498SOL     OW 1879   0.803   1.402   4.648
  498SOL    HW1 1880   0.893   1.416   4.606
  498SOL    HW2 1881   0.732   1.404   4.577
  499SOL     OW 1882   0.922   0.503   4.623
  499SOL    HW1 1883   0.897   0.494   4.527
  499SOL    HW2 1884   0.970   0.421   4.654
  500SOL     OW 1885   0.539   0.064   4.236
  500SOL    HW1 1886   0.458   0.065   4.294
  500SOL    HW2 1887   0.542   0.147   4.181
  501SOL     OW 1888   1.434   1.188   3.765
  501SOL    HW1 1889   1.466   1.112   3.822
  501SOL    HW2 1890   1.342   1.215   3.795
  502SOL     OW 1891   0.297   0.035   3.895
  502SOL    HW1 1892   0.346   0.119   3.874
  502SOL    HW2 1893   0.359  -0.030   3.940
  503SOL     OW 1894   0.935   0.236   4.204
  503SOL    HW1 1895   0.887   0.277   4.126
  503SOL    HW2 1896   1.034   0.234   4.185
  504SOL     OW 1897   1.076   0.683   5.188
  504SOL    HW1 1898   0.996   0.622   5.191
  504SOL    HW2 1899   1.157   0.630   5.164
  505SOL     OW 1900   1.227   1.570   4.517
  505SOL    HW1 1901   1.248   1.644   4.452
  505SOL    HW2 1902   1.295   1.570   4.590
  506SOL     OW 1903   0.459   1.152   4.465
  506SOL    HW1 1904   0.388   1.125   4.530
  506SOL    HW2 1905   0.433   1.124   4.372
  507SOL     OW 1906   1.271   1.797   4.315
  507SOL    HW1 1907   1.315   1.861   4.251
  507SOL    HW2 1908   1.221   1.849   4.385
  508SOL     OW 1909   1.032   0.549   3.740
  508SOL    HW1 1910   0.991   0.631   3.701
  508SOL    HW2 1911   1.096   0.575   3.813
  509SOL     OW 1912   0.078   0.556   5.110
  509SOL    HW1 1913   0.170   0.555   5.069
  509SOL    HW2 1914   0.072   0.630   5.177
  510SOL     OW 1915   0.561   0.222   4.871
  510SOL    HW1 1916   0.599   0.138   4.908
  510SOL    HW2 1917   0.473   0.241   4.915
  511SOL     OW 1918   0.866   0.454   4.366
  511SOL    HW1 1919   0.834   0.526   4.304
  511SOL    HW2 1920   0.890   0.373   4.313
  512SOL     OW 1921   1.017   0.039   4.477
  512SOL    HW1 1922   0.945   0.044   4.408
  512SOL    HW2 1923   0.993  -0.030   4.546
  513SOL     OW 1924   1.429   1.173   4.591
  513SOL    HW1 1925   1.374   1.089   4.584
  513SOL    HW2 1926   1.455   1.202   4.499
  514SOL     OW 1927   1.466   0.590   4.716
  514SOL    HW1 1928   1.436   0.495   4.723
  514SOL    HW2 1929   1.539   0.606   4.782
  515SOL     OW 1930   1.857   0.833   4.101
  515SOL    HW1 1931   1.899   0.769   4.165
  515SOL    HW2 1932   1.819   0.782   4.023
  516SOL     OW 1933   0.488   1.385   3.898
  516SOL    HW1 1934   0.401   1.370   3.945
  516SOL    HW2 1935   0.471   1.411   3.803
  517SOL     OW 1936   1.664   1.280   4.381
  517SOL    HW1 1937   1.763   1.288   4.395
  517SOL    HW2 1938   1.619   1.364   4.412
  518SOL     OW 1939   1.390   0.575   3.802
  518SOL    HW1 1940   1.336   0.554   3.883
  518SOL    HW2 1941   1.481   0.534   3.811
  519SOL     OW 1942   0.527   0.256   4.052
  519SOL    HW1 1943   0.554   0.197   3.977
  519SOL    HW2 1944   0.527   0.351   4.021
  520SOL     OW 1945   1.754   1.223   5.312
  520SOL    HW1 1946   1.845   1.184   5.299
  520SOL    HW2 1947   1.762   1.319   5.336
  521SOL     OW 1948   1.064   1.347   5.064
  521SOL    HW1 1949   0.984   1.324   5.119
  521SOL    HW2 1950   1.147   1.321   5.113
  522SOL     OW 1951   1.592   1.629   5.349
  522SOL    HW1 1952   1.619   1.663   5.259
  522SOL    HW2 1953   1.671   1.591   5.395
  523SOL     OW 1954   1.111   1.195   4.824
  523SOL    HW1 1955   1.071   1.239   4.905
  523SOL    HW2 1956   1.070   1.232   4.741
  524SOL     OW 1957   1.638   1.099   4.803
  524SOL    HW1 1958   1.643   1.180   4.862
  524SOL    HW2 1959   1.552   1.101   4.752
  525SOL     OW 1960   0.915   0.089   5.126
  525SOL    HW1 1961   0.940   0.069   5.031
  525SOL    HW2 1962   0.987   0.145   5.168
  526SOL     OW 1963   0.980   1.116   5.443
  526SOL    HW1 1964   0.881   1.122   5.453
  526SOL    HW2 1965   1.003   1.036   5.387
  527SOL     OW 1966   0.705   1.050   4.092
  527SOL    HW1 1967   0.691   1.057   4.191
  527SOL    HW2 1968   0.789   0.999   4.074
  528SOL     OW 1969   0.410   0.813   4.975
  528SOL    HW1 1970   0.496   0.825   5.025
  528SOL    HW2 1971   0.368   0.726   5.002
  529SOL     OW 1972   1.274   0.386   4.986
  529SOL    HW1 1973   1.295   0.460   5.050
  529SOL    HW2 1974   1.185   0.403   4.943
  530SOL     OW 1975   0.064   1.564   5.055
  530SOL    HW1 1976   0.018   1.646   5.021
  530SOL    HW2 1977   0.162   1.583   5.064
  531SOL     OW 1978   0.367   1.100   4.225
  531SOL    HW1 1979   0.360   1.183   4.169
  531SOL    HW2 1980   0.371   1.020   4.165
  532SOL     OW 1981   0.566   0.537   4.589
  532SOL    HW1 1982   0.578   0.603   4.515
  532SOL    HW2 1983   0.612   0.571   4.672
  533SOL     OW 1984   1.252   1.348   4.112
  533SOL    HW1 1985   1.302   1.425   4.152
  533SOL    HW2 1986   1.157   1.350   4.144
  534SOL     OW 1987   1.272   1.445   4.866
  534SOL    HW1 1988   1.319   1.458   4.953
  534SOL    HW2 1989   1.206   1.371   4.875
  535SOL     OW 1990   1.582   0.639   4.196
  535SOL    HW1 1991   1.551   0.700   4.269
  535SOL    HW2 1992   1.632   0.691   4.127
  536SOL     OW 1993   0.354   1.510   5.053
  536SOL    HW1 1994   0.333   1.466   4.966
  536SOL    HW2 1995   0.451   1.536   5.056
  537SOL     OW 1996   0.402   0.751   5.322
  537SOL    HW1 1997   0.470   0.806   5.275
  537SOL    HW2 1998   0.442   0.663   5.349
  538SOL     OW 1999   1.587   0.779   5.394
  538SOL    HW1 2000   1.495   0.817   5.389
  538SOL    HW2 2001   1.647   0.826   5.329
  539SOL     OW 2002   1.013   0.105   5.494
  539SOL    HW1 2003   1.019   0.190   5.442
  539SOL    HW2 2004   1.045   0.029   5.437
  540SOL     OW 2005   0.504   0.050   5.464
  540SOL    HW1 2006   0.462  -0.007   5.394
  540SOL    HW2 2007   0.438   0.119   5.496
  541SOL     OW 2008   0.573   0.870   4.753
  541SOL    HW1 2009   0.617   0.959   4.744
  541SOL    HW2 2010   0.510   0.870   4.830
  542SOL     OW 2011   1.360   0.862   4.769
  542SOL    HW1 2012   1.285   0.862   4.703
  542SOL    HW2 2013   1.397   0.770   4.778
  543SOL     OW 2014   1.209   0.525   3.999
  543SOL    HW1 2015   1.222   0.441   4.053
  543SOL    HW2 2016   1.180   0.599   4.059
  544SOL     OW 2017   0.307   0.213   4.955
  544SOL    HW1 2018   0.284   0.250   5.045
  544SOL    HW2 2019   0.277   0.118   4.949
  545SOL     OW 2020   0.037   1.310   5.006
  545SOL    HW1 2021   0.090   1.261   5.074
  545SOL    HW2 2022   0.059   1.408   5.011
  546SOL     OW 2023   0.732   0.634   4.788
  546SOL    HW1 2024   0.791   0.608   4.712
  546SOL    HW2 2025   0.704   0.730   4.777
  547SOL     OW 2026   1.728   0.935   5.578
  547SOL    HW1 2027   1.682   0.928   5.489
  547SOL    HW2 2028   1.666   0.979   5.644
  548SOL     OW 2029   0.307   0.063   4.342
  548SOL    HW1 2030   0.296   0.157   4.375
  548SOL    HW2 2031   0.302   0.000   4.419
  549SOL     OW 2032   1.622   0.367   4.098
  549SOL    HW1 2033   1.624   0.291   4.162
  549SOL    HW2 2034   1.574   0.444   4.138
  550SOL     OW 2035   1.023   0.766   4.690
  550SOL    HW1 2036   1.038   0.787   4.786
  550SOL    HW2 2037   0.993   0.671   4.681
  551SOL     OW 2038   0.980   1.573   5.424
  551SOL    HW1 2039   0.960   1.617   5.336
  551SOL    HW2 2040   1.019   1.482   5.408
  552SOL     OW 2041   1.859   1.518   5.329
  552SOL    HW1 2042   1.873   1.545   5.234
  552SOL    HW2 2043   1.942   1.540   5.382
  553SOL     OW 2044   0.350   0.898   5.528
  553SOL    HW1 2045   0.426   0.942   5.576
  553SOL    HW2 2046   0.385   0.851   5.446
  554SOL     OW 2047   1.540   0.274   3.849
  554SOL    HW1 2048   1.479   0.199   3.872
  554SOL    HW2 2049   1.562   0.326   3.932
  555SOL     OW 2050   1.303   0.838   3.766
  555SOL    HW1 2051   1.337   0.745   3.781
  555SOL    HW2 2052   1.321   0.865   3.671
  556SOL     OW 2053   1.068   1.333   4.573
  556SOL    HW1 2054   1.075   1.249   4.518
  556SOL    HW2 2055   1.130   1.402   4.537
  557SOL     OW 2056   0.319   0.810   4.673
  557SOL    HW1 2057   0.412   0.846   4.678
  557SOL    HW2 2058   0.313   0.725   4.725
  558SOL     OW 2059   0.339   0.509   4.730
  558SOL    HW1 2060   0.287   0.426   4.713
  558SOL    HW2 2061   0.416   0.514   4.666
  559SOL     OW 2062   1.138   0.380   5.402
  559SOL    HW1 2063   1.093   0.443   5.466
  559SOL    HW2 2064   1.231   0.411   5.385
  560SOL     OW 2065   1.160   0.207   5.201
  560SOL    HW1 2066   1.160   0.271   5.278
  560SOL    HW2 2067   1.188   0.255   5.118
  561SOL     OW 2068   0.008   1.326   3.924
  561SOL    HW1 2069  -0.085   1.347   3.893
  561SOL    HW2 2070   0.018   1.227   3.937
  562SOL     OW 2071   0.088   1.801   4.651
  562SOL    HW1 2072   0.046   1.715   4.624
  562SOL    HW2 2073   0.182   1.804   4.617
  563SOL     OW 2074   0.504   1.568   4.634
  563SOL    HW1 2075   0.570   1.642   4.643
  563SOL    HW2 2076   0.548   1.489   4.592
  564SOL     OW 2077   1.002   0.796   4.962
  564SOL    HW1 2078   1.043   0.764   5.048
  564SOL    HW2 2079   0.906   0.769   4.959
  565SOL     OW 2080   0.040   0.544   4.838
  565SOL    HW1 2081   0.125   0.511   4.797
  565SOL    HW2 2082   0.053   0.559   4.936
  566SOL     OW 2083   0.189   0.520   5.446
  566SOL    HW1 2084   0.248   0.480   5.376
  566SOL    HW2 2085   0.131   0.591   5.405
  567SOL     OW 2086   1.369   0.950   5.384
  567SOL    HW1 2087   1.408   1.039   5.404
  567SOL    HW2 2088   1.379   0.930   5.287
  568SOL     OW 2089   0.815   0.572   4.049
  568SOL    HW1 2090   0.822   0.483   4.003
  568SOL    HW2 2091   0.721   0.606   4.041
  569SOL     OW 2092   1.657   0.604   4.930
  569SOL    HW1 2093   1.619   0.535   4.992
  569SOL    HW2 2094   1.739   0.568   4.886
  570SOL     OW 2095   0.252   1.564   5.468
  570SOL    HW1 2096   0.222   1.621   5.544
  570SOL    HW2 2097   0.245   1.467   5.494
  571SOL     OW 2098   0.671   0.464   4.993
  571SOL    HW1 2099   0.637   0.375   4.963
  571SOL    HW2 2100   0.697   0.518   4.913
  572SOL     OW 2101   0.930   1.678   5.189
  572SOL    HW1 2102   0.906   1.660   5.094
  572SOL    HW2 2103   0.960   1.772   5.199
  573SOL     OW 2104   0.473   0.500   3.915
  573SOL    HW1 2105   0.534   0.580   3.919
  573SOL    HW2 2106   0.378   0.531   3.922
  574SOL     OW 2107   0.159   1.137   5.190
  574SOL    HW1 2108   0.181   1.076   5.266
  574SOL    HW2 2109   0.169   1.088   5.104
  575SOL     OW 2110   1.347   1.059   4.958
  575SOL    HW1 2111   1.371   0.996   4.884
  575SOL    HW2 2112   1.257   1.099   4.940
  576SOL     OW 2113   1.302   0.855   4.033
  576SOL    HW1 2114   1.216   0.824   4.075
  576SOL    HW2 2115   1.298   0.841   3.934
  577SOL     OW 2116   1.759   1.747   4.878
  577SOL    HW1 2117   1.820   1.777   4.805
  577SOL    HW2 2118   1.721   1.658   4.856
  578SOL     OW 2119   1.252   1.731   4.852
  578SOL    HW1 2120   1.336   1.736   4.798
  578SOL    HW2 2121   1.229   1.635   4.870
  579SOL     OW 2122   0.083   1.258   4.746
  579SOL    HW1 2123   0.078   1.257   4.846
  579SOL    HW2 2124   0.000   1.217   4.708
  580SOL     OW 2125   0.688   1.662   5.440
  580SOL    HW1 2126   0.632   1.743   5.449
  580SOL    HW2 2127   0.740   1.666   5.354
  581SOL     OW 2128   1.726   0.135   4.247
  581SOL    HW1 2129   1.799   0.118   4.180
  581SOL    HW2 2130   1.695   0.048   4.285
  582SOL     OW 2131   1.388   1.573   4.201
  582SOL    HW1 2132   1.455   1.585   4.127
  582SOL    HW2 2133   1.348   1.662   4.224
  583SOL     OW 2134   0.130   1.794   5.575
  583SOL    HW1 2135   0.089   1.720   5.628
  583SOL    HW2 2136   0.194   1.845   5.633
  584SOL     OW 2137   1.280   0.927   4.396
  584SOL    HW1 2138   1.340   0.846   4.398
  584SOL    HW2 2139   1.320   0.996   4.336
  585SOL     OW 2140   0.830   1.273   5.146
  585SOL    HW1 2141   0.825   1.306   5.241
  585SOL    HW2 2142   0.744   1.292   5.100
  586SOL     OW 2143   0.672   1.616   3.878
  586SOL    HW1 2144   0.681   1.626   3.779
  586SOL    HW2 2145   0.632   1.527   3.899
  587SOL     OW 2146   1.650   1.720   5.118
  587SOL    HW1 2147   1.703   1.730   5.034
  587SOL    HW2 2148   1.623   1.810   5.152
  588SOL     OW 2149   1.841   0.175   4.687
  588SOL    HW1 2150   1.880   0.090   4.651
  588SOL    HW2 2151   1.743   0.177   4.668
  589SOL     OW 2152   0.263   0.326   4.444
  589SOL    HW1 2153   0.184   0.377   4.410
  589SOL    HW2 2154   0.254   0.311   4.542
  590SOL     OW 2155   1.194   1.612   3.755
  590SOL    HW1 2156   1.200   1.519   3.792
  590SOL    HW2 2157   1.135   1.612   3.675
  591SOL     OW 2158   0.822   1.002   5.096
  591SOL    HW1 2159   0.862   1.001   5.004
  591SOL    HW2 2160   0.832   1.094   5.136
  592SOL     OW 2161   0.916   0.910   4.015
  592SOL    HW1 2162   0.979   0.948   3.947
  592SOL    HW2 2163   0.956   0.827   4.054
  593SOL     OW 2164   1.504   1.607   3.768
  593SOL    HW1 2165   1.412   1.644   3.775
  593SOL    HW2 2166   1.542   1.627   3.678
  594SOL     OW 2167   0.372   1.288   5.214
  594SOL    HW1 2168   0.359   1.381   5.180
  594SOL    HW2 2169   0.288   1.236   5.201
  595SOL     OW 2170   1.614   1.292   5.013
  595SOL    HW1 2171   1.674   1.295   5.093
  595SOL    HW2 2172   1.539   1.356   5.026
  596SOL     OW 2173   1.039   1.098   4.420
  596SOL    HW1 2174   0.969   1.051   4.474
  596SOL    HW2 2175   1.098   1.030   4.377
  597SOL     OW 2176   1.014   0.236   4.695
  597SOL    HW1 2177   1.006   0.200   4.602
  597SOL    HW2 2178   1.012   0.160   4.760
  598SOL     OW 2179   0.590   1.487   4.215
  598SOL    HW1 2180   0.632   1.429   4.145
  598SOL    HW2 2181   0.546   1.566   4.171
  599SOL     OW 2182   1.709   0.385   5.105
  599SOL    HW1 2183   1.782   0.454   5.109
  599SOL    HW2 2184   1.737   0.310   5.046
  600SOL     OW 2185   0.255   1.348   4.014
  600SOL    HW1 2186   0.159   1.349   3.987
  600SOL    HW2 2187   0.267   1.401   4.098
  601SOL     OW 2188   0.105   1.013   5.450
  601SOL    HW1 2189   0.028   0.980   5.504
  601SOL    HW2 2190   0.190   0.983   5.492
  602SOL     OW 2191   0.672   0.203   5.213
  602SOL    HW1 2192   0.762   0.187   5.173
  602SOL    HW2 2193   0.680   0.208   5.312
  603SOL     OW 2194   0.075   0.345   3.757
  603SOL    HW1 2195  -0.017   0.317   3.728
  603SOL    HW2 2196   0.106   0.422   3.701
  604SOL     OW 2197   1.440   0.856   5.122
  604SOL    HW1 2198   1.383   0.908   5.059
  604SOL    HW2 2199   1.536   0.868   5.098
  605SOL     OW 2200   0.072   0.166   4.042
  605SOL    HW1 2201   0.055   0.249   3.988
  605SOL    HW2 2202   0.162   0.129   4.020
  606SOL     OW 2203   1.183   1.335   3.843
  606SOL    HW1 2204   1.084   1.324   3.845
  606SOL    HW2 2205   1.217   1.350   3.936
  607SOL     OW 2206   0.613   0.842   5.155
  607SOL    HW1 2207   0.669   0.923   5.138
  607SOL    HW2 2208   0.672   0.762   5.158
  608SOL     OW 2209   1.493   1.767   4.683
  608SOL    HW1 2210   1.526   1.831   4.614
  608SOL    HW2 2211   1.559   1.761   4.758
  609SOL     OW 2212   0.716   0.565   5.432
  609SOL    HW1 2213   0.735   0.630   5.506
  609SOL    HW2 2214   0.776   0.485   5.441
  610SOL     OW 2215   1.450   1.220   5.357
  610SOL    HW1 2216   1.441   1.210   5.456
  610SOL    HW2 2217   1.546   1.213   5.331
  611SOL     OW 2218   0.390   1.741   5.284
  611SOL    HW1 2219   0.299   1.782   5.282
  611SOL    HW2 2220   0.383   1.647   5.316
  612SOL     OW 2221   1.674   0.883   4.978
  612SOL    HW1 2222   1.647   0.794   4.941
  612SOL    HW2 2223   1.675   0.951   4.905
  613SOL     OW 2224   1.225   0.325   4.173
  613SOL    HW1 2225   1.290   0.251   4.162
  613SOL    HW2 2226   1.245   0.375   4.257
  614SOL     OW 2227   0.594   0.745   4.376
  614SOL    HW1 2228   0.644   0.830   4.357
  614SOL    HW2 2229   0.506   0.747   4.328
  615SOL     OW 2230   1.777   0.342   5.366
  615SOL    HW1 2231   1.760   0.373   5.272
  615SOL    HW2 2232   1.693   0.305   5.404
  616SOL     OW 2233   1.730   0.934   5.241
  616SOL    HW1 2234   1.768   1.025   5.256
  616SOL    HW2 2235   1.722   0.917   5.142
  617SOL     OW 2236   0.859   1.374   3.740
  617SOL    HW1 2237   0.813   1.389   3.828
  617SOL    HW2 2238   0.903   1.459   3.710
  618SOL     OW 2239   0.661   1.790   4.677
  618SOL    HW1 2240   0.615   1.878   4.664
  618SOL    HW2 2241   0.760   1.802   4.670
  619SOL     OW 2242   0.859   0.956   4.585
  619SOL    HW1 2243   0.913   0.887   4.633
  619SOL    HW2 2244   0.827   1.025   4.651
  620SOL     OW 2245   1.083   0.984   3.811
  620SOL    HW1 2246   1.060   1.037   3.729
  620SOL    HW2 2247   1.164   0.928   3.792
  621SOL     OW 2248   1.861   1.569   4.575
  621SOL    HW1 2249   1.790   1.557   4.505
  621SOL    HW2 2250   1.862   1.490   4.635
  622SOL     OW 2251   0.221   1.314   5.568
  622SOL    HW1 2252   0.156   1.241   5.547
  622SOL    HW2 2253   0.225   1.328   5.666
  623SOL     OW 2254   0.079   1.240   4.377
  623SOL    HW1 2255   0.078   1.193   4.465
  623SOL    HW2 2256   0.161   1.212   4.326
  624SOL     OW 2257   0.672   1.391   5.348
  624SOL    HW1 2258   0.594   1.341   5.386
  624SOL    HW2 2259   0.669   1.486   5.379
  625SOL     OW 2260   1.824   0.192   4.951
  625SOL    HW1 2261   1.820   0.102   4.995
  625SOL    HW2 2262   1.827   0.181   4.852
  626SOL     OW 2263   0.428   0.424   4.244
  626SOL    HW1 2264   0.458   0.352   4.182
  626SOL    HW2 2265   0.389   0.384   4.327
  627SOL     OW 2266   1.705   1.487   4.828
  627SOL    HW1 2267   1.612   1.462   4.801
  627SOL    HW2 2268   1.731   1.437   4.910
  628SOL     OW 2269   0.317   0.547   5.004
  628SOL    HW1 2270   0.355   0.488   5.076
  628SOL    HW2 2271   0.357   0.521   4.916
  629SOL     OW 2272   0.812   1.586   4.411
  629SOL    HW1 2273   0.844   1.596   4.317
  629SOL    HW2 2274   0.733   1.524   4.413
  630SOL     OW 2275   1.424   0.214   4.836
  630SOL    HW1 2276   1.476   0.149   4.891
  630SOL    HW2 2277   1.375   0.277   4.897
  631SOL     OW 2278   1.001   0.034   4.878
  631SOL    HW1 2279   0.938  -0.038   4.847
  631SOL    HW2 2280   1.094  -0.002   4.878
  632SOL     OW 2281   0.770   1.330   4.025
  632SOL    HW1 2282   0.724   1.243   4.042
  632SOL    HW2 2283   0.861   1.327   4.066
  633SOL     OW 2284   0.618   1.567   5.008
  633SOL    HW1 2285   0.613   1.649   5.065
  633SOL    HW2 2286   0.707   1.564   4.963
  634SOL     OW 2287   1.352   0.052   3.892
  634SOL    HW1 2288   1.387   0.011   3.808
  634SOL    HW2 2289   1.262   0.014   3.912
  635SOL     OW 2290   1.300   0.453   4.415
  635SOL    HW1 2291   1.241   0.533   4.419
  635SOL    HW2 2292   1.315   0.418   4.508
  636SOL     OW 2293   1.593   0.221   4.606
  636SOL    HW1 2294   1.509   0.220   4.660
  636SOL    HW2 2295   1.595   0.304   4.550
  637SOL     OW 2296   0.039   1.077   4.024
  637SOL    HW1 2297   0.138   1.066   4.015
  637SOL    HW2 2298  -0.001   0.991   4.056
  638SOL     OW 2299   0.875   1.646   4.061
  638SOL    HW1 2300   0.798   1.611   4.007
  638SOL    HW2 2301   0.843   1.717   4.123
  639SOL     OW 2302   0.230   0.628   5.699
  639SOL    HW1 2303   0.137   0.626   5.736
  639SOL    HW2 2304   0.231   0.589   5.607
  640SOL     OW 2305   0.225   0.275   6.582
  640SOL    HW1 2306   0.260   0.258   6.674
  640SOL    HW2 2307   0.137   0.230   6.570
  641SOL     OW 2308   0.019   0.368   6.233
  641SOL    HW1 2309  -0.063   0.411   6.272
  641SOL    HW2 2310  -0.009   0.295   6.170
  642SOL     OW 2311   0.569   1.275   6.751
  642SOL    HW1 2312   0.476   1.268   6.714
  642SOL    HW2 2313   0.580   1.364   6.795
  643SOL     OW 2314   1.555   1.511   6.289
  643SOL    HW1 2315   1.498   1.495   6.370
  643SOL    HW2 2316   1.496   1.521   6.209
  644SOL     OW 2317   1.135   0.703   6.303
  644SOL    HW1 2318   1.192   0.781   6.278
  644SOL    HW2 2319   1.075   0.729   6.379
  645SOL     OW 2320   1.755   0.607   5.817
  645SOL    HW1 2321   1.743   0.594   5.718
  645SOL    HW2 2322   1.725   0.526   5.866
  646SOL     OW 2323   0.768   1.144   6.609
  646SOL    HW1 2324   0.690   1.161   6.669
  646SOL    HW2 2325   0.802   1.231   6.573
  647SOL     OW 2326   0.850   0.798   7.409
  647SOL    HW1 2327   0.846   0.874   7.474
  647SOL    HW2 2328   0.872   0.834   7.318
  648SOL     OW 2329   0.685   1.012   6.251
  648SOL    HW1 2330   0.754   0.996   6.321
  648SOL    HW2 2331   0.612   1.069   6.289
  649SOL     OW 2332   0.686   1.161   7.389
  649SOL    HW1 2333   0.746   1.240   7.403
  649SOL    HW2 2334   0.600   1.192   7.348
  650SOL     OW 2335   0.335   1.435   6.647
  650SOL    HW1 2336   0.257   1.404   6.594
  650SOL    HW2 2337   0.393   1.493   6.590
  651SOL     OW 2338   1.460   1.505   6.925
  651SOL    HW1 2339   1.484   1.599   6.951
  651SOL    HW2 2340   1.444   1.451   7.007
  652SOL     OW 2341   0.438   0.392   7.085
  652SOL    HW1 2342   0.520   0.336   7.094
  652SOL    HW2 2343   0.357   0.334   7.089
  653SOL     OW 2344   1.603   0.447   6.323
  653SOL    HW1 2345   1.529   0.493   6.273
  653SOL    HW2 2346   1.654   0.515   6.376
  654SOL     OW 2347   0.231   1.713   6.069
  654SOL    HW1 2348   0.265   1.790   6.123
  654SOL    HW2 2349   0.275   1.713   5.979
  655SOL     OW 2350   1.127   1.341   7.276
  655SOL    HW1 2351   1.174   1.341   7.364
  655SOL    HW2 2352   1.079   1.254   7.265
  656SOL     OW 2353   0.230   1.434   6.124
  656SOL    HW1 2354   0.204   1.530   6.124
  656SOL    HW2 2355   0.159   1.380   6.169
  657SOL     OW 2356   0.240   1.091   6.472
  657SOL    HW1 2357   0.254   1.007   6.524
  657SOL    HW2 2358   0.185   1.155   6.527
  658SOL     OW 2359   0.620   1.786   7.025
  658SOL    HW1 2360   0.528   1.769   7.060
  658SOL    HW2 2361   0.648   1.878   7.051
  659SOL     OW 2362   0.606   0.964   5.709
  659SOL    HW1 2363   0.613   1.048   5.655
  659SOL    HW2 2364   0.652   0.977   5.797
  660SOL     OW 2365   1.594   0.114   7.066
  660SOL    HW1 2366   1.576   0.181   6.994
  660SOL    HW2 2367   1.591   0.160   7.155
  661SOL     OW 2368   0.122   0.643   6.149
  661SOL    HW1 2369   0.077   0.555   6.166
  661SOL    HW2 2370   0.121   0.697   6.233
  662SOL     OW 2371   1.842   1.767   5.945
  662SOL    HW1 2372   1.896   1.738   6.025
  662SOL    HW2 2373   1.872   1.857   5.916
  663SOL     OW 2374   0.027   1.596   5.703
  663SOL    HW1 2375   0.008   1.500   5.724
  663SOL    HW2 2376  -0.006   1.654   5.778
  664SOL     OW 2377   1.689   0.922   6.198
  664SOL    HW1 2378   1.784   0.893   6.206
  664SOL    HW2 2379   1.681   0.987   6.123
  665SOL     OW 2380   1.641   1.108   6.018
  665SOL    HW1 2381   1.727   1.110   5.966
  665SOL    HW2 2382   1.655   1.155   6.106
  666SOL     OW 2383   0.113   0.737   7.183
  666SOL    HW1 2384   0.201   0.724   7.228
  666SOL    HW2 2385   0.100   0.834   7.161
  667SOL     OW 2386   0.613   1.365   6.312
  667SOL    HW1 2387   0.564   1.278   6.321
  667SOL    HW2 2388   0.590   1.408   6.225
  668SOL     OW 2389   1.293   1.228   7.009
  668SOL    HW1 2390   1.330   1.155   6.951
  668SOL    HW2 2391   1.345   1.233   7.094
  669SOL     OW 2392   0.809   0.004   6.088
  669SOL    HW1 2393   0.849   0.095   6.079
  669SOL    HW2 2394   0.709   0.012   6.094
  670SOL     OW 2395   0.197   0.976   6.850
  670SOL    HW1 2396   0.286   0.931   6.836
  670SOL    HW2 2397   0.124   0.911   6.831
  671SOL     OW 2398   1.525   0.999   5.776
  671SOL    HW1 2399   1.462   0.923   5.789
  671SOL    HW2 2400   1.573   1.017   5.862
  672SOL     OW 2401   1.187   1.792   7.202
  672SOL    HW1 2402   1.211   1.852   7.126
  672SOL    HW2 2403   1.194   1.697   7.172
  673SOL     OW 2404   0.317   0.251   7.387
  673SOL    HW1 2405   0.388   0.322   7.393
  673SOL    HW2 2406   0.229   0.290   7.415
  674SOL     OW 2407   1.466   1.417   6.539
  674SOL    HW1 2408   1.407   1.423   6.619
  674SOL    HW2 2409   1.451   1.329   6.493
  675SOL     OW 2410   1.667   1.714   6.158
  675SOL    HW1 2411   1.626   1.691   6.070
  675SOL    HW2 2412   1.649   1.640   6.223
  676SOL     OW 2413   0.598   0.729   5.856
  676SOL    HW1 2414   0.622   0.798   5.788
  676SOL    HW2 2415   0.520   0.762   5.910
  677SOL     OW 2416   1.281   0.345   6.530
  677SOL    HW1 2417   1.195   0.295   6.517
  677SOL    HW2 2418   1.343   0.291   6.586
  678SOL     OW 2419   1.576   1.662   5.893
  678SOL    HW1 2420   1.665   1.708   5.896
  678SOL    HW2 2421   1.555   1.638   5.798
  679SOL     OW 2422   0.807   0.605   7.051
  679SOL    HW1 2423   0.760   0.602   7.140
  679SOL    HW2 2424   0.756   0.550   6.985
  680SOL     OW 2425   1.394   0.469   7.260
  680SOL    HW1 2426   1.374   0.512   7.348
  680SOL    HW2 2427   1.472   0.407   7.269
  681SOL     OW 2428   0.973   0.890   7.158
  681SOL    HW1 2429   1.019   0.806   7.129
  681SOL    HW2 2430   0.917   0.924   7.083
  682SOL     OW 2431   0.991   0.410   6.828
  682SOL    HW1 2432   0.914   0.444   6.882
  682SOL    HW2 2433   0.957   0.359   6.749
  683SOL     OW 2434   1.041   0.701   6.015
  683SOL    HW1 2435   1.067   0.697   6.111
  683SOL    HW2 2436   0.956   0.650   6.001
  684SOL     OW 2437   0.076   0.811   6.375
  684SOL    HW1 2438   0.175   0.799   6.384
  684SOL    HW2 2439   0.052   0.906   6.396
  685SOL     OW 2440   0.130   1.821   7.157
  685SOL    HW1 2441   0.120   1.806   7.256
  685SOL    HW2 2442   0.044   1.857   7.121
  686SOL     OW 2443   0.865   0.348   5.781
  686SOL    HW1 2444   0.924   0.411   5.732
  686SOL    HW2 2445   0.884   0.254   5.752
  687SOL     OW 2446   1.719   0.585   7.417
  687SOL    HW1 2447   1.693   0.674   7.381
  687SOL    HW2 2448   1.717   0.517   7.344
  688SOL     OW 2449   1.362   1.144   6.131
  688SOL    HW1 2450   1.445   1.115   6.083
  688SOL    HW2 2451   1.313   1.211   6.075
  689SOL     OW 2452   0.550   0.196   6.471
  689SOL    HW1 2453   0.545   0.191   6.571
  689SOL    HW2 2454   0.552   0.292   6.442
  690SOL     OW 2455   1.008   1.456   6.063
  690SOL    HW1 2456   0.962   1.528   6.011
  690SOL    HW2 2457   1.004   1.476   6.161
  691SOL     OW 2458   0.351   1.801   6.439
  691SOL    HW1 2459   0.401   1.715   6.445
  691SOL    HW2 2460   0.416   1.878   6.436
  692SOL     OW 2461   1.795   1.066   6.459
  692SOL    HW1 2462   1.733   1.051   6.383
  692SOL    HW2 2463   1.743   1.077   6.544
  693SOL     OW 2464   1.227   1.550   7.092
  693SOL    HW1 2465   1.233   1.473   7.156
  693SOL    HW2 2466   1.175   1.524   7.012
  694SOL     OW 2467   0.321   0.943   5.828
  694SOL    HW1 2468   0.403   0.982   5.786
  694SOL    HW2 2469   0.294   0.861   5.779
  695SOL     OW 2470   1.458   0.735   6.314
  695SOL    HW1 2471   1.453   0.670   6.389
  695SOL    HW2 2472   1.538   0.794   6.327
  696SOL     OW 2473   0.461   1.266   7.313
  696SOL    HW1 2474   0.411   1.267   7.227
  696SOL    HW2 2475   0.398   1.248   7.389
  697SOL     OW 2476   1.111   1.776   5.823
  697SOL    HW1 2477   1.051   1.714   5.873
  697SOL    HW2 2478   1.142   1.732   5.738
  698SOL     OW 2479   0.202   0.285   7.084
  698SOL    HW1 2480   0.122   0.345   7.071
  698SOL    HW2 2481   0.192   0.236   7.170
  699SOL     OW 2482   1.632   1.377   5.667
  699SOL    HW1 2483   1.600   1.471   5.657
  699SOL    HW2 2484   1.556   1.314   5.655
  700SOL     OW 2485   0.464   1.743   5.909
  700SOL    HW1 2486   0.497   1.782   5.995
  700SOL    HW2 2487   0.540   1.736   5.844
  701SOL     OW 2488   1.400   0.107   6.012
  701SOL    HW1 2489   1.376   0.070   5.922
  701SOL    HW2 2490   1.499   0.123   6.016
  702SOL     OW 2491   0.249   1.785   6.827
  702SOL    HW1 2492   0.306   1.720   6.877
  702SOL    HW2 2493   0.233   1.752   6.734
  703SOL     OW 2494   0.940   1.698   6.490
  703SOL    HW1 2495   1.020   1.641   6.511
  703SOL    HW2 2496   0.891   1.658   6.413
  704SOL     OW 2497   0.382   0.700   6.066
  704SOL    HW1 2498   0.427   0.610   6.063
  704SOL    HW2 2499   0.288   0.689   6.099
  705SOL     OW 2500   1.547   0.222   7.315
  705SOL    HW1 2501   1.542   0.259   7.407
  705SOL    HW2 2502   1.475   0.153   7.303
  706SOL     OW 2503   0.614   0.122   5.703
  706SOL    HW1 2504   0.712   0.100   5.710
  706SOL    HW2 2505   0.583   0.105   5.610
  707SOL     OW 2506   0.781   0.264   7.335
  707SOL    HW1 2507   0.848   0.203   7.378
  707SOL    HW2 2508   0.708   0.283   7.400
  708SOL     OW 2509   0.888   1.514   6.781
  708SOL    HW1 2510   0.865   1.489   6.687
  708SOL    HW2 2511   0.949   1.445   6.820
  709SOL     OW 2512   1.351   0.590   7.019
  709SOL    HW1 2513   1.379   0.547   7.104
  709SOL    HW2 2514   1.376   0.686   7.020
  710SOL     OW 2515   0.803   1.402   6.510
  710SOL    HW1 2516   0.893   1.416   6.468
  710SOL    HW2 2517   0.732   1.404   6.439
  711SOL     OW 2518   0.922   0.503   6.485
  711SOL    HW1 2519   0.897   0.494   6.389
  711SOL    HW2 2520   0.970   0.421   6.516
  712SOL     OW 2521   0.539   0.064   6.098
  712SOL    HW1 2522   0.458   0.065   6.156
  712SOL    HW2 2523   0.542   0.147   6.043
  713SOL     OW 2524   1.434   1.188   5.627
  713SOL    HW1 2525   1.466   1.112   5.684
  713SOL    HW2 2526   1.342   1.215   5.657
  714SOL     OW 2527   0.297   0.035   5.757
  714SOL    HW1 2528   0.346   0.119   5.736
  714SOL    HW2 2529   0.359  -0.030   5.802
  715SOL     OW 2530   0.935   0.236   6.066
  715SOL    HW1 2531   0.887   0.277   5.988
  715SOL    HW2 2532   1.034   0.234   6.047
  716SOL     OW 2533   1.076   0.683   7.050
  716SOL    HW1 2534   0.996   0.622   7.053
  716SOL    HW2 2535   1.157   0.630   7.026
  717SOL     OW 2536   1.227   1.570   6.379
  717SOL    HW1 2537   1.248   1.644   6.314
  717SOL    HW2 2538   1.295   1.570   6.452
  718SOL     OW 2539   0.459   1.152   6.327
  718SOL    HW1 2540   0.388   1.125   6.392
  718SOL    HW2 2541   0.433   1.124   6.234
  719SOL     OW 2542   1.271   1.797   6.177
  719SOL    HW1 2543   1.315   1.861   6.113
  719SOL    HW2 2544   1.221   1.849   6.247
  720SOL     OW 2545   1.032   0.549   5.602
  720SOL    HW1 2546   0.991   0.631   5.563
  720SOL    HW2 2547   1.096   0.575   5.675
  721SOL     OW 2548   0.078   0.556   6.972
  721SOL    HW1 2549   0.170   0.555   6.931
  721SOL    HW2 2550   0.072   0.630   7.039
  722SOL     OW 2551   0.561   0.222   6.733
  722SOL    HW1 2552   0.599   0.138   6.770
  722SOL    HW2 2553   0.473   0.241   6.777
  723SOL     OW 2554   0.866   0.454   6.228
  723SOL    HW1 2555   0.834   0.526   6.166
  723SOL    HW2 2556   0.890   0.373   6.175
  724SOL     OW 2557   1.017   0.039   6.339
  724SOL    HW1 2558   0.945   0.044   6.270
  724SOL    HW2 2559   0.993  -0.030   6.408
  725SOL     OW 2560   1.429   1.173   6.453
  725SOL    HW1 2561   1.374   1.089   6.446
  725SOL    HW2 2562   1.455   1.202   6.361
  726SOL     OW 2563   1.466   0.590   6.578
  726SOL    HW1 2564   1.436   0.495   6.585
  726SOL    HW2 2565   1.539   0.606   6.644
  727SOL     OW 2566   1.857   0.833   5.963
  727SOL    HW1 2567   1.899   0.769   6.027
  727SOL    HW2 2568   1.819   0.782   5.885
  728SOL     OW 2569   0.488   1.385   5.760
  728SOL    HW1 2570   0.401   1.370   5.807
  728SOL    HW2 2571   0.471   1.411   5.665
  729SOL     OW 2572   1.664   1.280   6.243
  729SOL    HW1 2573   1.763   1.288   6.257
  729SOL    HW2 2574   1.619   1.364   6.274
  730SOL     OW 2575   1.390   0.575   5.664
  730SOL    HW1 2576   1.336   0.554   5.745
  730SOL    HW2 2577   1.481   0.534   5.673
  731SOL     OW 2578   0.527   0.256   5.914
  731SOL    HW1 2579   0.554   0.197   5.839
  731SOL    HW2 2580   0.527   0.351   5.883
  732SOL     OW 2581   1.754   1.223   7.174
  732SOL    HW1 2582   1.845   1.184   7.161
  732SOL    HW2 2583   1.762   1.319   7.198
  733SOL     OW 2584   1.064   1.347   6.926
  733SOL    HW1 2585   0.984   1.324   6.981
  733SOL    HW2 2586   1.147   1.321   6.975
  734SOL     OW 2587   1.592   1.629   7.211
  734SOL    HW1 2588   1.619   1.663   7.121
  734SOL    HW2 2589   1.671   1.591   7.257
  735SOL     OW 2590   1.111   1.195   6.686
  735SOL    HW1 2591   1.071   1.239   6.767
  735SOL    HW2 2592   1.070   1.232   6.603
  736SOL     OW 2593   1.638   1.099   6.665
  736SOL    HW1 2594   1.643   1.180   6.724
  736SOL    HW2 2595   1.552   1.101   6.614
  737SOL     OW 2596   0.915   0.089   6.988
  737SOL    HW1 2597   0.940   0.069   6.893
  737SOL    HW2 2598   0.987   0.145   7.030
  738SOL     OW 2599   0.980   1.116   7.305
  738SOL    HW1 2600   0.881   1.122   7.315
  738SOL    HW2 2601   1.003   1.036   7.249
  739SOL     OW 2602   0.705   1.050   5.954
  739SOL    HW1 2603   0.691   1.057   6.053
  739SOL    HW2 2604   0.789   0.999   5.936
  740SOL     OW 2605   0.410   0.813   6.837
  740SOL    HW1 2606   0.496   0.825   6.887
  740SOL    HW2 2607   0.368   0.726   6.864
  741SOL     OW 2608   1.274   0.386   6.848
  741SOL    HW1 2609   1.295   0.460   6.912
  741SOL    HW2 2610   1.185   0.403   6.805
  742SOL     OW 2611   0.064   1.564   6.917
  742SOL    HW1 2612   0.018   1.646   6.883
  742SOL    HW2 2613   0.162   1.583   6.926
  743SOL     OW 2614   0.367   1.100   6.087
  743SOL    HW1 2615   0.360   1.183   6.031
  743SOL    HW2 2616   0.371   1.020   6.027
  744SOL     OW 2617   0.566   0.537   6.451
  744SOL    HW1 2618   0.578   0.603   6.377
  744SOL    HW2 2619   0.612   0.571   6.534
  745SOL     OW 2620   1.252   1.348   5.974
  745SOL    HW1 2621   1.302   1.425   6.014
  745SOL    HW2 2622   1.157   1.350   6.006
  746SOL     OW 2623   1.272   1.445   6.728
  746SOL    HW1 2624   1.319   1.458   6.815
  746SOL    HW2 2625   1.206   1.371   6.737
  747SOL     OW 2626   1.582   0.639   6.058
  747SOL    HW1 2627   1.551   0.700   6.131
  747SOL    HW2 2628   1.632   0.691   5.989
  748SOL     OW 2629   0.354   1.510   6.915
  748SOL    HW1 2630   0.333   1.466   6.828
  748SOL    HW2 2631   0.451   1.536   6.918
  749SOL     OW 2632   0.402   0.751   7.184
  749SOL    HW1 2633   0.470   0.806   7.137
  749SOL    HW2 2634   0.442   0.663   7.211
  750SOL     OW 2635   1.587   0.779   7.256
  750SOL    HW1 2636   1.495   0.817   7.251
  750SOL    HW2 2637   1.647   0.826   7.191
  751SOL     OW 2638   1.013   0.105   7.356
  751SOL    HW1 2639   1.019   0.190   7.304
  751SOL    HW2 2640   1.045   0.029   7.299
  752SOL     OW 2641   0.504   0.050   7.326
  752SOL    HW1 2642   0.462  -0.007   7.256
  752SOL    HW2 2643   0.438   0.119   7.358
  753SOL     OW 2644   0.573   0.870   6.615
  753SOL    HW1 2645   0.617   0.959   6.606
  753SOL    HW2 2646   0.510   0.870   6.692
  754SOL     OW 2647   1.360   0.862   6.631
  754SOL    HW1 2648   1.285   0.862   6.565
  754SOL    HW2 2649   1.397   0.770   6.640
  755SOL     OW 2650   1.209   0.525   5.861
  755SOL    HW1 2651   1.222   0.441   5.915
  755SOL    HW2 2652   1.180   0.599   5.921
  756SOL     OW 2653   0.307   0.213   6.817
  756SOL    HW1 2654   0.284   0.250   6.907
  756SOL    HW2 2655   0.277   0.118   6.811
  757SOL     OW 2656   0.037   1.310   6.868
  757SOL    HW1 2657   0.090   1.261   6.936
  757SOL    HW2 2658   0.059   1.408   6.873
  758SOL     OW 2659   0.732   0.634   6.650
  758SOL    HW1 2660   0.791   0.608   6.574
  758SOL    HW2 2661   0.704   0.730   6.639
  759SOL     OW 2662   1.728   0.935   7.440
  759SOL    HW1 2663   1.682   0.928   7.351
  759SOL    HW2 2664   1.666   0.979   7.506
  760SOL     OW 2665   0.307   0.063   6.204
  760SOL    HW1 2666   0.296   0.157   6.237
  760SOL    HW2 2667   0.302   0.000   6.281
  761SOL     OW 2668   1.622   0.367   5.960
  761SOL    HW1 2669   1.624   0.291   6.024
  761SOL    HW2 2670   1.574   0.444   6.000
  762SOL     OW 2671   1.023   0.766   6.552
  762SOL    HW1 2672   1.038   0.787   6.648
  762SOL    HW2 2673   0.993   0.671   6.543
  763SOL     OW 2674   0.980   1.573   7.286
  763SOL    HW1 2675   0.960   1.617   7.198
  763SOL    HW2 2676   1.019   1.482   7.270
  764SOL     OW 2677   1.859   1.518   7.191
  764SOL    HW1 2678   1.873   1.545   7.096
  764SOL    HW2 2679   1.942   1.540   7.244
  765SOL     OW 2680   0.350   0.898   7.390
  765SOL    HW1 2681   0.426   0.942   7.438
  765SOL    HW2 2682   0.385   0.851   7.308
  766SOL     OW 2683   1.540   0.274   5.711
  766SOL    HW1 2684   1.479   0.199   5.734
  766SOL    HW2 2685   1.562   0.326   5.794
  767SOL     OW 2686   1.303   0.838   5.628
  767SOL    HW1 2687   1.337   0.745   5.643
  767SOL    HW2 2688   1.321   0.865   5.533
  768SOL     OW 2689   1.068   1.333   6.435
  768SOL    HW1 2690   1.075   1.249   6.380
  768SOL    HW2 2691   1.130   1.402   6.399
  769SOL     OW 2692   0.319   0.810   6.535
  769SOL    HW1 2693   0.412   0.846   6.540
  769SOL    HW2 2694   0.313   0.725   6.587
  770SOL     OW 2695   0.339   0.509   6.592
  770SOL    HW1 2696   0.287   0.426   6.575
  770SOL    HW2 2697   0.416   0.514   6.528
  771SOL     OW 2698   1.138   0.380   7.264
  771SOL    HW1 2699   1.093   0.443   7.328
  771SOL    HW2 2700   1.231   0.411   7.247
  772SOL     OW 2701   1.160   0.207   7.063
  772SOL    HW1 2702   1.160   0.271   7.140
  772SOL    HW2 2703   1.188   0.255   6.980
  773SOL     OW 2704   0.008   1.326   5.786
  773SOL    HW1 2705  -0.085   1.347   5.755
  773SOL    HW2 2706   0.018   1.227   5.799
  774SOL     OW 2707   0.088   1.801   6.513
  774SOL    HW1 2708   0.046   1.715   6.486
  774SOL    HW2 2709   0.182   1.804   6.479
  775SOL     OW 2710   0.504   1.568   6.496
  775SOL    HW1 2711   0.570   1.642   6.505
  775SOL    HW2 2712   0.548   1.489   6.454
  776SOL     OW 2713   1.002   0.796   6.824
  776SOL    HW1 2714   1.043   0.764   6.910
  776SOL    HW2 2715   0.906   0.769   6.821
  777SOL     OW 2716   0.040   0.544   6.700
  777SOL    HW1 2717   0.125   0.511   6.659
  777SOL    HW2 2718   0.053   0.559   6.798
  778SOL     OW 2719   0.189   0.520   7.308
  778SOL    HW1 2720   0.248   0.480   7.238
  778SOL    HW2 2721   0.131   0.591   7.267
  779SOL     OW 2722   1.369   0.950   7.246
  779SOL    HW1 2723   1.408   1.039   7.266
  779SOL    HW2 2724   1.379   0.930   7.149
  780SOL     OW 2725   0.815   0.572   5.911
  780SOL    HW1 2726   0.822   0.483   5.865
  780SOL    HW2 2727   0.721   0.606   5.903
  781SOL     OW 2728   1.657   0.604   6.792
  781SOL    HW1 2729   1.619   0.535   6.854
  781SOL    HW2 2730   1.739   0.568   6.748
  782SOL     OW 2731   0.252   1.564   7.330
  782SOL    HW1 2732   0.222   1.621   7.406
  782SOL    HW2 2733   0.245   1.467   7.356
  783SOL     OW 2734   0.671   0.464   6.855
  783SOL    HW1 2735   0.637   0.375   6.825
  783SOL    HW2 2736   0.697   0.518   6.775
  784SOL     OW 2737   0.930   1.678   7.051
  784SOL    HW1 2738   0.906   1.660   6.956
  784SOL    HW2 2739   0.960   1.772   7.061
  785SOL     OW 2740   0.473   0.500   5.777
  785SOL    HW1 2741   0.534   0.580   5.781
  785SOL    HW2 2742   0.378   0.531   5.784
  786SOL     OW 2743   0.159   1.137   7.052
  786SOL    HW1 2744   0.181   1.076   7.128
  786SOL    HW2 2745   0.169   1.088   6.966
  787SOL     OW 2746   1.347   1.059   6.820
  787SOL    HW1 2747   1.371   0.996   6.746
  787SOL    HW2 2748   1.257   1.099   6.802
  788SOL     OW 2749   1.302   0.855   5.895
  788SOL    HW1 2750   1.216   0.824   5.937
  788SOL    HW2 2751   1.298   0.841   5.796
  789SOL     OW 2752   1.759   1.747   6.740
  789SOL    HW1 2753   1.820   1.777   6.667
  789SOL    HW2 2754   1.721   1.658   6.718
  790SOL     OW 2755   1.252   1.731   6.714
  790SOL    HW1 2756   1.336   1.736   6.660
  790SOL    HW2 2757   1.229   1.635   6.732
  791SOL     OW 2758   0.083   1.258   6.608
  791SOL    HW1 2759   0.078   1.257   6.708
  791SOL    HW2 2760   0.000   1.217   6.570
  792SOL     OW 2761   0.688   1.662   7.302
  792SOL    HW1 2762   0.632   1.743   7.311
  792SOL    HW2 2763   0.740   1.666   7.216
  793SOL     OW 2764   1.726   0.135   6.109
  793SOL    HW1 2765   1.799   0.118   6.042
  793SOL    HW2 2766   1.695   0.048   6.147
  794SOL     OW 2767   1.388   1.573   6.063
  794SOL    HW1 2768   1.455   1.585   5.989
  794SOL    HW2 2769   1.348   1.662   6.086
  795SOL     OW 2770   0.130   1.794   7.437
  795SOL    HW1 2771   0.089   1.720   7.490
  795SOL    HW2 2772   0.194   1.845   7.495
  796SOL     OW 2773   1.280   0.927   6.258
  796SOL    HW1 2774   1.340   0.846   6.260
  796SOL    HW2 2775   1.320   0.996   6.198
  797SOL     OW 2776   0.830   1.273   7.008
  797SOL    HW1 2777   0.825   1.306   7.103
  797SOL    HW2 2778   0.744   1.292   6.962
  798SOL     OW 2779   0.672   1.616   5.740
  798SOL    HW1 2780   0.681   1.626   5.641
  798SOL    HW2 2781   0.632   1.527   5.761
  799SOL     OW 2782   1.650   1.720   6.980
  799SOL    HW1 2783   1.703   1.730   6.896
  799SOL    HW2 2784   1.623   1.810   7.014
  800SOL     OW 2785   1.841   0.175   6.549
  800SOL    HW1 2786   1.880   0.090   6.513
  800SOL    HW2 2787   1.743   0.177   6.530
  801SOL     OW 2788   0.263   0.326   6.306
  801SOL    HW1 2789   0.184   0.377   6.272
  801SOL    HW2 2790   0.254   0.311   6.404
  802SOL     OW 2791   1.194   1.612   5.617
  802SOL    HW1 2792   1.200   1.519   5.654
  802SOL    HW2 2793   1.135   1.612   5.537
  803SOL     OW 2794   0.822   1.002   6.958
  803SOL    HW1 2795   0.862   1.001   6.866
  803SOL    HW2 2796   0.832   1.094   6.998
  804SOL     OW 2797   0.916   0.910   5.877
  804SOL    HW1 2798   0.979   0.948   5.809
  804SOL    HW2 2799   0.956   0.827   5.916
  805SOL     OW 2800   1.504   1.607   5.630
  805SOL    HW1 2801   1.412   1.644   5.637
  805SOL    HW2 2802   1.542   1.627   5.540
  806SOL     OW 2803   0.372   1.288   7.076
  806SOL    HW1 2804   0.359   1.381   7.042
  806SOL    HW2 2805   0.288   1.236   7.063
  807SOL     OW 2806   1.614   1.292   6.875
  807SOL    HW1 2807   1.674   1.295   6.955
  807SOL    HW2 2808   1.539   1.356   6.888
  808SOL     OW 2809   1.039   1.098   6.282
  808SOL    HW1 2810   0.969   1.051   6.336
  808SOL    HW2 2811   1.098   1.030   6.239
  809SOL     OW 2812   1.014   0.236   6.557
  809SOL    HW1 2813   1.006   0.200   6.464
  809SOL    HW2 2814   1.012   0.160   6.622
  810SOL     OW 2815   0.590   1.487   6.077
  810SOL    HW1 2816   0.632   1.429   6.007
  810SOL    HW2 2817   0.546   1.566   6.033
  811SOL     OW 2818   1.709   0.385   6.967
  811SOL    HW1 2819   1.782   0.454   6.971
  811SOL    HW2 2820   1.737   0.310   6.908
  812SOL     OW 2821   0.255   1.348   5.876
  812SOL    HW1 2822   0.159   1.349   5.849
  812SOL    HW2 2823   0.267   1.401   5.960
  813SOL     OW 2824   0.105   1.013   7.312
  813SOL    HW1 2825   0.028   0.980   7.366
  813SOL    HW2 2826   0.190   0.983   7.354
  814SOL     OW 2827   0.672   0.203   7.075
  814SOL    HW1 2828   0.762   0.187   7.035
  814SOL    HW2 2829   0.680   0.208   7.174
  815SOL     OW 2830   0.075   0.345   5.619
  815SOL    HW1 2831  -0.017   0.317   5.590
  815SOL    HW2 2832   0.106   0.422   5.563
  816SOL     OW 2833   1.440   0.856   6.984
  816SOL    HW1 2834   1.383   0.908   6.921
  816SOL    HW2 2835   1.536   0.868   6.960
  817SOL     OW 2836   0.072   0.166   5.904
  817SOL    HW1 2837   0.055   0.249   5.850
  817SOL    HW2 2838   0.162   0.129   5.882
  818SOL     OW 2839   1.183   1.335   5.705
  818SOL    HW1 2840   1.084   1.324   5.707
  818SOL    HW2 2841   1.217   1.350   5.798
  819SOL     OW 2842   0.613   0.842   7.017
  819SOL    HW1 2843   0.669   0.923   7.000
  819SOL    HW2 2844   0.672   0.762   7.020
  820SOL     OW 2845   1.493   1.767   6.545
  820SOL    HW1 2846   1.526   1.831   6.476
  820SOL    HW2 2847   1.559   1.761   6.620
  821SOL     OW 2848   0.716   0.565   7.294
  821SOL    HW1 2849   0.735   0.630   7.368
  821SOL    HW2 2850   0.776   0.485   7.303
  822SOL     OW 2851   1.450   1.220   7.219
  822SOL    HW1 2852   1.441   1.210   7.318
  822SOL    HW2 2853   1.546   1.213   7.193
  823SOL     OW 2854   0.390   1.741   7.146
  823SOL    HW1 2855   0.299   1.782   7.144
  823SOL    HW2 2856   0.383   1.647   7.178
  824SOL     OW 2857   1.674   0.883   6.840
  824SOL    HW1 2858   1.647   0.794   6.803
  824SOL    HW2 2859   1.675   0.951   6.767
  825SOL     OW 2860   1.225   0.325   6.035
  825SOL    HW1 2861   1.290   0.251   6.024
  825SOL    HW2 2862   1.245   0.375   6.119
  826SOL     OW 2863   0.594   0.745   6.238
  826SOL    HW1 2864   0.644   0.830   6.219
  826SOL    HW2 2865   0.506   0.747   6.190
  827SOL     OW 2866   1.777   0.342   7.228
  827SOL    HW1 2867   1.760   0.373   7.134
  827SOL    HW2 2868   1.693   0.305   7.266
  828SOL     OW 2869   1.730   0.934   7.103
  828SOL    HW1 2870   1.768   1.025   7.118
  828SOL    HW2 2871   1.722   0.917   7.004
  829SOL     OW 2872   0.859   1.374   5.602
  829SOL    HW1 2873   0.813   1.389   5.690
  829SOL    HW2 2874   0.903   1.459   5.572
  830SOL     OW 2875   0.661   1.790   6.539
  830SOL    HW1 2876   0.615   1.878   6.526
  830SOL    HW2 2877   0.760   1.802   6.532
  831SOL     OW 2878   0.859   0.956   6.447
  831SOL    HW1 2879   0.913   0.887   6.495
  831SOL    HW2 2880   0.827   1.025   6.513
  832SOL     OW 2881   1.083   0.984   5.673
  832SOL    HW1 2882   1.060   1.037   5.591
  832SOL    HW2 2883   1.164   0.928   5.654
  833SOL     OW 2884   1.861   1.569   6.437
  833SOL    HW1 2885   1.790   1.557   6.367
  833SOL    HW2 2886   1.862   1.490   6.497
  834SOL     OW 2887   0.221   1.314   7.430
  834SOL    HW1 2888   0.156   1.241   7.409
  834SOL    HW2 2889   0.225   1.328   7.528
  835SOL     OW 2890   0.079   1.240   6.239
  835SOL    HW1 2891   0.078   1.193   6.327
  835SOL    HW2 2892   0.161   1.212   6.188
  836SOL     OW 2893   0.672   1.391   7.210
  836SOL    HW1 2894   0.594   1.341   7.248
  836SOL    HW2 2895   0.669   1.486   7.241
  837SOL     OW 2896   1.824   0.192   6.813
  837SOL    HW1 2897   1.820   0.102   6.857
  837SOL    HW2 2898   1.827   0.181   6.714
  838SOL     OW 2899   0.428   0.424   6.106
  838SOL    HW1 2900   0.458   0.352   6.044
  838SOL    HW2 2901   0.389   0.384   6.189
  839SOL     OW 2902   1.705   1.487   6.690
  839SOL    HW1 2903   1.612   1.462   6.663
  839SOL    HW2 2904   1.731   1.437   6.772
  840SOL     OW 2905   0.317   0.547   6.866
  840SOL    HW1 2906   0.355   0.488   6.938
  840SOL    HW2 2907   0.357   0.521   6.778
  841SOL     OW 2908   0.812   1.586   6.273
  841SOL    HW1 2909   0.844   1.596   6.179
  841SOL    HW2 2910   0.733   1.524   6.275
  842SOL     OW 2911   1.424   0.214   6.698
  842SOL    HW1 2912   1.476   0.149   6.753
  842SOL    HW2 2913   1.375   0.277   6.759
  843SOL     OW 2914   1.001   0.034   6.740
  843SOL    HW1 2915   0.938  -0.038   6.709
  843SOL    HW2 2916   1.094  -0.002   6.740
  844SOL     OW 2917   0.770   1.330   5.887
  844SOL    HW1 2918   0.724   1.243   5.904
  844SOL    HW2 2919   0.861   1.327   5.928
  845SOL     OW 2920   0.618   1.567   6.870
  845SOL    HW1 2921   0.613   1.649   6.927
  845SOL    HW2 2922   0.707   1.564   6.825
  846SOL     OW 2923   1.352   0.052   5.754
  846SOL    HW1 2924   1.387   0.011   5.670
  846SOL    HW2 2925   1.262   0.014   5.774
  847SOL     OW 2926   1.300   0.453   6.277
  847SOL    HW1 2927   1.241   0.533   6.281
  847SOL    HW2 2928   1.315   0.418   6.370
  848SOL     OW 2929   1.593   0.221   6.468
  848SOL    HW1 2930   1.509   0.220   6.522
  848SOL    HW2 2931   1.595   0.304   6.412
  849SOL     OW 2932   0.039   1.077   5.886
  849SOL    HW1 2933   0.138   1.066   5.877
  849SOL    HW2 2934  -0.001   0.991   5.918
  850SOL     OW 2935   0.875   1.646   5.923
  850SOL    HW1 2936   0.798   1.611   5.869
  850SOL    HW2 2937   0.843   1.717   5.985
  851SOL     OW 2938   0.230   0.628   7.561
  851SOL    HW1 2939   0.137   0.626   7.598
  851SOL    HW2 2940   0.231   0.589   7.469
  852SOL     OW 2941   1.755   0.607   7.679
  852SOL    HW1 2942   1.743   0.594   7.580
  852SOL    HW2 2943   1.725   0.526   7.728
  853SOL     OW 2944   0.231   1.713   7.931
  853SOL    HW1 2945   0.265   1.790   7.985
  853SOL    HW2 2946   0.275   1.713   7.841
  854SOL     OW 2947   0.230   1.434   7.986
  854SOL    HW1 2948   0.204   1.530   7.986
  854SOL    HW2 2949   0.159   1.380   8.031
  855SOL     OW 2950   0.606   0.964   7.571
  855SOL    HW1 2951   0.613   1.048   7.517
  855SOL    HW2 2952   0.652   0.977   7.659
  856SOL     OW 2953   1.842   1.767   7.807
  856SOL    HW1 2954   1.896   1.738   7.887
  856SOL    HW2 2955   1.872   1.857   7.778
  857SOL     OW 2956   0.027   1.596   7.565
  857SOL    HW1 2957   0.008   1.500   7.586
  857SOL    HW2 2958  -0.006   1.654   7.640
  858SOL     OW 2959   1.689   0.922   8.060
  858SOL    HW1 2960   1.784   0.893   8.068
  858SOL    HW2 2961   1.681   0.987   7.985
  859SOL     OW 2962   1.641   1.108   7.880
  859SOL    HW1 2963   1.727   1.110   7.828
  859SOL    HW2 2964   1.655   1.155   7.968
  860SOL     OW 2965   0.809   0.004   7.950
  860SOL    HW1 2966   0.849   0.095   7.941
  860SOL    HW2 2967   0.709   0.012   7.956
  861SOL     OW 2968   1.525   0.999   7.638
  861SOL    HW1 2969   1.462   0.923   7.651
  861SOL    HW2 2970   1.573   1.017   7.724
  862SOL     OW 2971   0.598   0.729   7.718
  862SOL    HW1 2972   0.622   0.798   7.650
  862SOL    HW2 2973   0.520   0.762   7.772
  863SOL     OW 2974   1.576   1.662   7.755
  863SOL    HW1 2975   1.665   1.708   7.758
  863SOL    HW2 2976   1.555   1.638   7.660
  864SOL     OW 2977   0.076   0.811   8.237
  864SOL    HW1 2978   0.175   0.799   8.246
  864SOL    HW2 2979   0.052   0.906   8.258
  865SOL     OW 2980   0.865   0.348   7.643
  865SOL    HW1 2981   0.924   0.411   7.594
  865SOL    HW2 2982   0.884   0.254   7.614
  866SOL     OW 2983   0.321   0.943   7.690
  866SOL    HW1 2984   0.403   0.982   7.648
  866SOL    HW2 2985   0.294   0.861   7.641
  867SOL     OW 2986   1.111   1.776   7.685
  867SOL    HW1 2987   1.051   1.714   7.735
  867SOL    HW2 2988   1.142   1.732   7.600
  868SOL     OW 2989   1.632   1.377   7.529
  868SOL    HW1 2990   1.600   1.471   7.519
  868SOL    HW2 2991   1.556   1.314   7.517
  869SOL     OW 2992   0.464   1.743   7.771
  869SOL    HW1 2993   0.497   1.782   7.857
  869SOL    HW2 2994   0.540   1.736   7.706
  870SOL     OW 2995   1.400   0.107   7.874
  870SOL    HW1 2996   1.376   0.070   7.784
  870SOL    HW2 2997   1.499   0.123   7.878
  871SOL     OW 2998   0.382   0.700   7.928
  871SOL    HW1 2999   0.427   0.610   7.925
  871SOL    HW2 3000   0.288   0.689   7.961
  872SOL     OW 3001   0.614   0.122   7.565
  872SOL    HW1 3002   0.712   0.100   7.572
  872SOL    HW2 3003   0.583   0.105   7.472
  873SOL     OW 3004   0.539   0.064   7.960
  873SOL    HW1 3005   0.458   0.065   8.018
  873SOL    HW2 3006   0.542   0.147   7.905
  874SOL     OW 3007   1.434   1.188   7.489
  874SOL    HW1 3008   1.466   1.112   7.546
  874SOL    HW2 3009   1.342   1.215   7.519
  875SOL     OW 3010   0.297   0.035   7.619
  875SOL    HW1 3011   0.346   0.119   7.598
  875SOL    HW2 3012   0.359  -0.030   7.664
  876SOL     OW 3013   0.935   0.236   7.928
  876SOL    HW1 3014   0.887   0.277   7.850
  876SOL    HW2 3015   1.034   0.234   7.909
  877SOL     OW 3016   0.459   1.152   8.189
  877SOL    HW1 3017   0.388   1.125   8.254
  877SOL    HW2 3018   0.433   1.124   8.096
  878SOL     OW 3019   1.271   1.797   8.039
  878SOL    HW1 3020   1.315   1.861   7.975
  878SOL    HW2 3021   1.221   1.849   8.109
  879SOL     OW 3022   1.032   0.549   7.464
  879SOL    HW1 3023   0.991   0.631   7.425
  879SOL    HW2 3024   1.096   0.575   7.537
  880SOL     OW 3025   1.857   0.833   7.825
  880SOL    HW1 3026   1.899   0.769   7.889
  880SOL    HW2 3027   1.819   0.782   7.747
  881SOL     OW 3028   0.488   1.385   7.622
  881SOL    HW1 3029   0.401   1.370   7.669
  881SOL    HW2 3030   0.471   1.411   7.527
  882SOL     OW 3031   1.390   0.575   7.526
  882SOL    HW1 3032   1.336   0.554   7.607
  882SOL    HW2 3033   1.481   0.534   7.535
  883SOL     OW 3034   0.527   0.256   7.776
  883SOL    HW1 3035   0.554   0.197   7.701
  883SOL    HW2 3036   0.527   0.351   7.745
  884SOL     OW 3037   0.705   1.050   7.816
  884SOL    HW1 3038   0.691   1.057   7.915
  884SOL    HW2 3039   0.789   0.999   7.798
  885SOL     OW 3040   0.367   1.100   7.949
  885SOL    HW1 3041   0.360   1.183   7.893
  885SOL    HW2 3042   0.371   1.020   7.889
  886SOL     OW 3043   1.252   1.348   7.836
  886SOL    HW1 3044   1.302   1.425   7.876
  886SOL    HW2 3045   1.157   1.350   7.868
  887SOL     OW 3046   1.582   0.639   7.920
  887SOL    HW1 3047   1.551   0.700   7.993
  887SOL    HW2 3048   1.632   0.691   7.851
  888SOL     OW 3049   1.209   0.525   7.723
  888SOL    HW1 3050   1.222   0.441   7.777
  888SOL    HW2 3051   1.180   0.599   7.783
  889SOL     OW 3052   1.622   0.367   7.822
  889SOL    HW1 3053   1.624   0.291   7.886
  889SOL    HW2 3054   1.574   0.444   7.862
  890SOL     OW 3055   1.540   0.274   7.573
  890SOL    HW1 3056   1.479   0.199   7.596
  890SOL    HW2 3057   1.562   0.326   7.656
  891SOL     OW 3058   1.303   0.838   7.490
  891SOL    HW1 3059   1.337   0.745   7.505
  891SOL    HW2 3060   1.321   0.865   7.395
  892SOL     OW 3061   0.008   1.326   7.648
  892SOL    HW1 3062  -0.085   1.347   7.617
  892SOL    HW2 3063   0.018   1.227   7.661
  893SOL     OW 3064   0.815   0.572   7.773
  893SOL    HW1 3065   0.822   0.483   7.727
  893SOL    HW2 3066   0.721   0.606   7.765
  894SOL     OW 3067   0.473   0.500   7.639
  894SOL    HW1 3068   0.534   0.580   7.643
  894SOL    HW2 3069   0.378   0.531   7.646
  895SOL     OW 3070   1.302   0.855   7.757
  895SOL    HW1 3071   1.216   0.824   7.799
  895SOL    HW2 3072   1.298   0.841   7.658
  896SOL     OW 3073   1.726   0.135   7.971
  896SOL    HW1 3074   1.799   0.118   7.904
  896SOL    HW2 3075   1.695   0.048   8.009
  897SOL     OW 3076   1.388   1.573   7.925
  897SOL    HW1 3077   1.455   1.585   7.851
  897SOL    HW2 3078   1.348   1.662   7.948
  898SOL     OW 3079   0.672   1.616   7.602
  898SOL    HW1 3080   0.681   1.626   7.503
  898SOL    HW2 3081   0.632   1.527   7.623
  899SOL     OW 3082   1.194   1.612   7.479
  899SOL    HW1 3083   1.200   1.519   7.516
  899SOL    HW2 3084   1.135   1.612   7.399
  900SOL     OW 3085   0.916   0.910   7.739
  900SOL    HW1 3086   0.979   0.948   7.671
  900SOL    HW2 3087   0.956   0.827   7.778
  901SOL     OW 3088   1.504   1.607   7.492
  901SOL    HW1 3089   1.412   1.644   7.499
  901SOL    HW2 3090   1.542   1.627   7.402
  902SOL     OW 3091   0.590   1.487   7.939
  902SOL    HW1 3092   0.632   1.429   7.869
  902SOL    HW2 3093   0.546   1.566   7.895
  903SOL     OW 3094   0.255   1.348   7.738
  903SOL    HW1 3095   0.159   1.349   7.711
  903SOL    HW2 3096   0.267   1.401   7.822
  904SOL     OW 3097   0.075   0.345   7.481
  904SOL    HW1 3098  -0.017   0.317   7.452
  904SOL    HW2 3099   0.106   0.422   7.425
  905SOL     OW 3100   0.072   0.166   7.766
  905SOL    HW1 3101   0.055   0.249   7.712
  905SOL    HW2 3102   0.162   0.129   7.744
  906SOL     OW 3103   1.183   1.335   7.567
  906SOL    HW1 3104   1.084   1.324   7.569
  906SOL    HW2 3105   1.217   1.350   7.660
  907SOL     OW 3106   1.225   0.325   7.897
  907SOL    HW1 3107   1.290   0.251   7.886
  907SOL    HW2 3108   1.245   0.375   7.981
  908SOL     OW 3109   0.594   0.745   8.100
  908SOL    HW1 3110   0.644   0.830   8.081
  908SOL    HW2 3111   0.506   0.747   8.052
  909SOL     OW 3112   0.859   1.374   7.464
  909SOL    HW1 3113   0.813   1.389   7.552
  909SOL    HW2 3114   0.903   1.459   7.434
  910SOL     OW 3115   1.083   0.984   7.535
  910SOL    HW1 3116   1.060   1.037   7.453
  910SOL    HW2 3117   1.164   0.928   7.516
  911SOL     OW 3118   0.428   0.424   7.968
  911SOL    HW1 3119   0.458   0.352   7.906
  911SOL    HW2 3120   0.389   0.384   8.051
  912SOL     OW 3121   0.770   1.330   7.749
  912SOL    HW1 3122   0.724   1.243   7.766
  912SOL    HW2 3123   0.861   1.327   7.790
  913SOL     OW 3124   1.352   0.052   7.616
  913SOL    HW1 3125   1.387   0.011   7.532
  913SOL    HW2 3126   1.262   0.014   7.636
  914SOL     OW 3127   0.039   1.077   7.748
  914SOL    HW1 3128   0.138   1.066   7.739
  914SOL    HW2 3129  -0.001   0.991   7.780
  915SOL     OW 3130   0.875   1.646   7.785
  915SOL    HW1 3131   0.798   1.611   7.731
  915SOL    HW2 3132   0.843   1.717   7.847
  916SOL     OW 3133   0.230   2.490   0.113
  916SOL    HW1 3134   0.137   2.488   0.150
  916SOL    HW2 3135   0.231   2.451   0.021
  917SOL     OW 3136   0.225   2.137   0.996
  917SOL    HW1 3137   0.260   2.120   1.088
  917SOL    HW2 3138   0.137   2.092   0.984
  918SOL     OW 3139   0.019   2.230   0.647
  918SOL    HW1 3140  -0.063   2.273   0.686
  918SOL    HW2 3141  -0.009   2.157   0.584
  919SOL     OW 3142   0.569   3.137   1.165
  919SOL    HW1 3143   0.476   3.130   1.128
  919SOL    HW2 3144   0.580   3.226   1.209
  920SOL     OW 3145   1.555   3.373   0.703
  920SOL    HW1 3146   1.498   3.357   0.784
  920SOL    HW2 3147   1.496   3.383   0.623
  921SOL     OW 3148   1.135   2.565   0.717
  921SOL    HW1 3149   1.192   2.643   0.692
  921SOL    HW2 3150   1.075   2.591   0.793
  922SOL     OW 3151   1.755   2.469   0.231
  922SOL    HW1 3152   1.743   2.456   0.132
  922SOL    HW2 3153   1.725   2.388   0.280
  923SOL     OW 3154   0.768   3.006   1.023
  923SOL    HW1 3155   0.690   3.023   1.083
  923SOL    HW2 3156   0.802   3.093   0.987
  924SOL     OW 3157   0.850   2.660   1.823
  924SOL    HW1 3158   0.846   2.736   1.888
  924SOL    HW2 3159   0.872   2.696   1.732
  925SOL     OW 3160   0.685   2.874   0.665
  925SOL    HW1 3161   0.754   2.858   0.735
  925SOL    HW2 3162   0.612   2.931   0.703
  926SOL     OW 3163   0.686   3.023   1.803
  926SOL    HW1 3164   0.746   3.102   1.817
  926SOL    HW2 3165   0.600   3.054   1.762
  927SOL     OW 3166   0.335   3.297   1.061
  927SOL    HW1 3167   0.257   3.266   1.008
  927SOL    HW2 3168   0.393   3.355   1.004
  928SOL     OW 3169   1.460   3.367   1.339
  928SOL    HW1 3170   1.484   3.461   1.365
  928SOL    HW2 3171   1.444   3.313   1.421
  929SOL     OW 3172   0.438   2.254   1.499
  929SOL    HW1 3173   0.520   2.198   1.508
  929SOL    HW2 3174   0.357   2.196   1.503
  930SOL     OW 3175   1.603   2.309   0.737
  930SOL    HW1 3176   1.529   2.355   0.687
  930SOL    HW2 3177   1.654   2.377   0.790
  931SOL     OW 3178   0.231   3.575   0.483
  931SOL    HW1 3179   0.265   3.652   0.537
  931SOL    HW2 3180   0.275   3.575   0.393
  932SOL     OW 3181   1.127   3.203   1.690
  932SOL    HW1 3182   1.174   3.203   1.778
  932SOL    HW2 3183   1.079   3.116   1.679
  933SOL     OW 3184   0.230   3.296   0.538
  933SOL    HW1 3185   0.204   3.392   0.538
  933SOL    HW2 3186   0.159   3.242   0.583
  934SOL     OW 3187   0.240   2.953   0.886
  934SOL    HW1 3188   0.254   2.869   0.938
  934SOL    HW2 3189   0.185   3.017   0.941
  935SOL     OW 3190   0.620   3.648   1.439
  935SOL    HW1 3191   0.528   3.631   1.474
  935SOL    HW2 3192   0.648   3.740   1.465
  936SOL     OW 3193   0.606   2.826   0.123
  936SOL    HW1 3194   0.613   2.910   0.069
  936SOL    HW2 3195   0.652   2.839   0.211
  937SOL     OW 3196   1.594   1.976   1.480
  937SOL    HW1 3197   1.576   2.043   1.408
  937SOL    HW2 3198   1.591   2.022   1.569
  938SOL     OW 3199   0.122   2.505   0.563
  938SOL    HW1 3200   0.077   2.417   0.580
  938SOL    HW2 3201   0.121   2.559   0.647
  939SOL     OW 3202   1.842   3.629   0.359
  939SOL    HW1 3203   1.896   3.600   0.439
  939SOL    HW2 3204   1.872   3.719   0.330
  940SOL     OW 3205   0.027   3.458   0.117
  940SOL    HW1 3206   0.008   3.362   0.138
  940SOL    HW2 3207  -0.006   3.516   0.192
  941SOL     OW 3208   1.689   2.784   0.612
  941SOL    HW1 3209   1.784   2.755   0.620
  941SOL    HW2 3210   1.681   2.849   0.537
  942SOL     OW 3211   1.641   2.970   0.432
  942SOL    HW1 3212   1.727   2.972   0.380
  942SOL    HW2 3213   1.655   3.017   0.520
  943SOL     OW 3214   0.113   2.599   1.597
  943SOL    HW1 3215   0.201   2.586   1.642
  943SOL    HW2 3216   0.100   2.696   1.575
  944SOL     OW 3217   0.613   3.227   0.726
  944SOL    HW1 3218   0.564   3.140   0.735
  944SOL    HW2 3219   0.590   3.270   0.639
  945SOL     OW 3220   1.293   3.090   1.423
  945SOL    HW1 3221   1.330   3.017   1.365
  945SOL    HW2 3222   1.345   3.095   1.508
  946SOL     OW 3223   0.809   1.866   0.502
  946SOL    HW1 3224   0.849   1.957   0.493
  946SOL    HW2 3225   0.709   1.874   0.508
  947SOL     OW 3226   0.197   2.838   1.264
  947SOL    HW1 3227   0.286   2.793   1.250
  947SOL    HW2 3228   0.124   2.773   1.245
  948SOL     OW 3229   1.525   2.861   0.190
  948SOL    HW1 3230   1.462   2.785   0.203
  948SOL    HW2 3231   1.573   2.879   0.276
  949SOL     OW 3232   1.187   3.654   1.616
  949SOL    HW1 3233   1.211   3.714   1.540
  949SOL    HW2 3234   1.194   3.559   1.586
  950SOL     OW 3235   0.317   2.113   1.801
  950SOL    HW1 3236   0.388   2.184   1.807
  950SOL    HW2 3237   0.229   2.152   1.829
  951SOL     OW 3238   1.466   3.279   0.953
  951SOL    HW1 3239   1.407   3.285   1.033
  951SOL    HW2 3240   1.451   3.191   0.907
  952SOL     OW 3241   1.667   3.576   0.572
  952SOL    HW1 3242   1.626   3.553   0.484
  952SOL    HW2 3243   1.649   3.502   0.637
  953SOL     OW 3244   0.598   2.591   0.270
  953SOL    HW1 3245   0.622   2.660   0.202
  953SOL    HW2 3246   0.520   2.624   0.324
  954SOL     OW 3247   1.281   2.207   0.944
  954SOL    HW1 3248   1.195   2.157   0.931
  954SOL    HW2 3249   1.343   2.153   1.000
  955SOL     OW 3250   1.576   3.524   0.307
  955SOL    HW1 3251   1.665   3.570   0.310
  955SOL    HW2 3252   1.555   3.500   0.212
  956SOL     OW 3253   0.807   2.467   1.465
  956SOL    HW1 3254   0.760   2.464   1.554
  956SOL    HW2 3255   0.756   2.412   1.399
  957SOL     OW 3256   1.394   2.331   1.674
  957SOL    HW1 3257   1.374   2.374   1.762
  957SOL    HW2 3258   1.472   2.269   1.683
  958SOL     OW 3259   0.973   2.752   1.572
  958SOL    HW1 3260   1.019   2.668   1.543
  958SOL    HW2 3261   0.917   2.786   1.497
  959SOL     OW 3262   0.991   2.272   1.242
  959SOL    HW1 3263   0.914   2.306   1.296
  959SOL    HW2 3264   0.957   2.221   1.163
  960SOL     OW 3265   1.041   2.563   0.429
  960SOL    HW1 3266   1.067   2.559   0.525
  960SOL    HW2 3267   0.956   2.512   0.415
  961SOL     OW 3268   0.076   2.673   0.789
  961SOL    HW1 3269   0.175   2.661   0.798
  961SOL    HW2 3270   0.052   2.768   0.810
  962SOL     OW 3271   0.130   3.683   1.571
  962SOL    HW1 3272   0.120   3.668   1.670
  962SOL    HW2 3273   0.044   3.719   1.535
  963SOL     OW 3274   0.865   2.210   0.195
  963SOL    HW1 3275   0.924   2.273   0.146
  963SOL    HW2 3276   0.884   2.116   0.166
  964SOL     OW 3277   1.719   2.447   1.831
  964SOL    HW1 3278   1.693   2.536   1.795
  964SOL    HW2 3279   1.717   2.379   1.758
  965SOL     OW 3280   1.362   3.006   0.545
  965SOL    HW1 3281   1.445   2.977   0.497
  965SOL    HW2 3282   1.313   3.073   0.489
  966SOL     OW 3283   0.550   2.058   0.885
  966SOL    HW1 3284   0.545   2.053   0.985
  966SOL    HW2 3285   0.552   2.154   0.856
  967SOL     OW 3286   1.008   3.318   0.477
  967SOL    HW1 3287   0.962   3.390   0.425
  967SOL    HW2 3288   1.004   3.338   0.575
  968SOL     OW 3289   0.351   3.663   0.853
  968SOL    HW1 3290   0.401   3.577   0.859
  968SOL    HW2 3291   0.416   3.740   0.850
  969SOL     OW 3292   1.795   2.928   0.873
  969SOL    HW1 3293   1.733   2.913   0.797
  969SOL    HW2 3294   1.743   2.939   0.958
  970SOL     OW 3295   1.227   3.412   1.506
  970SOL    HW1 3296   1.233   3.335   1.570
  970SOL    HW2 3297   1.175   3.386   1.426
  971SOL     OW 3298   0.321   2.805   0.242
  971SOL    HW1 3299   0.403   2.844   0.200
  971SOL    HW2 3300   0.294   2.723   0.193
  972SOL     OW 3301   1.458   2.597   0.728
  972SOL    HW1 3302   1.453   2.532   0.803
  972SOL    HW2 3303   1.538   2.656   0.741
  973SOL     OW 3304   0.461   3.128   1.727
  973SOL    HW1 3305   0.411   3.129   1.641
  973SOL    HW2 3306   0.398   3.110   1.803
  974SOL     OW 3307   1.111   3.638   0.237
  974SOL    HW1 3308   1.051   3.576   0.287
  974SOL    HW2 3309   1.142   3.594   0.152
  975SOL     OW 3310   0.202   2.147   1.498
  975SOL    HW1 3311   0.122   2.207   1.485
  975SOL    HW2 3312   0.192   2.098   1.584
  976SOL     OW 3313   1.632   3.239   0.081
  976SOL    HW1 3314   1.600   3.333   0.071
  976SOL    HW2 3315   1.556   3.176   0.069
  977SOL     OW 3316   0.464   3.605   0.323
  977SOL    HW1 3317   0.497   3.644   0.409
  977SOL    HW2 3318   0.540   3.598   0.258
  978SOL     OW 3319   1.400   1.969   0.426
  978SOL    HW1 3320   1.376   1.932   0.336
  978SOL    HW2 3321   1.499   1.985   0.430
  979SOL     OW 3322   0.249   3.647   1.241
  979SOL    HW1 3323   0.306   3.582   1.291
  979SOL    HW2 3324   0.233   3.614   1.148
  980SOL     OW 3325   0.940   3.560   0.904
  980SOL    HW1 3326   1.020   3.503   0.925
  980SOL    HW2 3327   0.891   3.520   0.827
  981SOL     OW 3328   0.382   2.562   0.480
  981SOL    HW1 3329   0.427   2.472   0.477
  981SOL    HW2 3330   0.288   2.551   0.513
  982SOL     OW 3331   1.547   2.084   1.729
  982SOL    HW1 3332   1.542   2.121   1.821
  982SOL    HW2 3333   1.475   2.015   1.717
  983SOL     OW 3334   0.614   1.984   0.117
  983SOL    HW1 3335   0.712   1.962   0.124
  983SOL    HW2 3336   0.583   1.967   0.024
  984SOL     OW 3337   0.781   2.126   1.749
  984SOL    HW1 3338   0.848   2.065   1.792
  984SOL    HW2 3339   0.708   2.145   1.814
  985SOL     OW 3340   0.888   3.376   1.195
  985SOL    HW1 3341   0.865   3.351   1.101
  985SOL    HW2 3342   0.949   3.307   1.234
  986SOL     OW 3343   1.351   2.452   1.433
  986SOL    HW1 3344   1.379   2.409   1.518
  986SOL    HW2 3345   1.376   2.548   1.434
  987SOL     OW 3346   0.803   3.264   0.924
  987SOL    HW1 3347   0.893   3.278   0.882
  987SOL    HW2 3348   0.732   3.266   0.853
  988SOL     OW 3349   0.922   2.365   0.899
  988SOL    HW1 3350   0.897   2.356   0.803
  988SOL    HW2 3351   0.970   2.283   0.930
  989SOL     OW 3352   0.539   1.926   0.512
  989SOL    HW1 3353   0.458   1.927   0.570
  989SOL    HW2 3354   0.542   2.009   0.457
  990SOL     OW 3355   1.434   3.050   0.041
  990SOL    HW1 3356   1.466   2.974   0.098
  990SOL    HW2 3357   1.342   3.077   0.071
  991SOL     OW 3358   0.297   1.897   0.171
  991SOL    HW1 3359   0.346   1.981   0.150
  991SOL    HW2 3360   0.359   1.832   0.216
  992SOL     OW 3361   0.935   2.098   0.480
  992SOL    HW1 3362   0.887   2.139   0.402
  992SOL    HW2 3363   1.034   2.096   0.461
  993SOL     OW 3364   1.076   2.545   1.464
  993SOL    HW1 3365   0.996   2.484   1.467
  993SOL    HW2 3366   1.157   2.492   1.440
  994SOL     OW 3367   1.227   3.432   0.793
  994SOL    HW1 3368   1.248   3.506   0.728
  994SOL    HW2 3369   1.295   3.432   0.866
  995SOL     OW 3370   0.459   3.014   0.741
  995SOL    HW1 3371   0.388   2.987   0.806
  995SOL    HW2 3372   0.433   2.986   0.648
  996SOL     OW 3373   1.271   3.659   0.591
  996SOL    HW1 3374   1.315   3.723   0.527
  996SOL    HW2 3375   1.221   3.711   0.661
  997SOL     OW 3376   1.032   2.411   0.016
  997SOL    HW1 3377   0.991   2.493  -0.023
  997SOL    HW2 3378   1.096   2.437   0.089
  998SOL     OW 3379   0.078   2.418   1.386
  998SOL    HW1 3380   0.170   2.417   1.345
  998SOL    HW2 3381   0.072   2.492   1.453
  999SOL     OW 3382   0.561   2.084   1.147
  999SOL    HW1 3383   0.599   2.000   1.184
  999SOL    HW2 3384   0.473   2.103   1.191
 1000SOL     OW 3385   0.866   2.316   0.642
 1000SOL    HW1 3386   0.834   2.388   0.580
 1000SOL    HW2 3387   0.890   2.235   0.589
 1001SOL     OW 3388   1.017   1.901   0.753
 1001SOL    HW1 3389   0.945   1.906   0.684
 1001SOL    HW2 3390   0.993   1.832   0.822
 1002SOL     OW 3391   1.429   3.035   0.867
 1002SOL    HW1 3392   1.374   2.951   0.860
 1002SOL    HW2 3393   1.455   3.064   0.775
 1003SOL     OW 3394   1.466   2.452   0.992
 1003SOL    HW1 3395   1.436   2.357   0.999
 1003SOL    HW2 3396   1.539   2.468   1.058
 1004SOL     OW 3397   1.857   2.695   0.377
 1004SOL    HW1 3398   1.899   2.631   0.441
 1004SOL    HW2 3399   1.819   2.644   0.299
 1005SOL     OW 3400   0.488   3.247   0.174
 1005SOL    HW1 3401   0.401   3.232   0.221
 1005SOL    HW2 3402   0.471   3.273   0.079
 1006SOL     OW 3403   1.664   3.142   0.657
 1006SOL    HW1 3404   1.763   3.150   0.671
 1006SOL    HW2 3405   1.619   3.226   0.688
 1007SOL     OW 3406   1.390   2.437   0.078
 1007SOL    HW1 3407   1.336   2.416   0.159
 1007SOL    HW2 3408   1.481   2.396   0.087
 1008SOL     OW 3409   0.527   2.118   0.328
 1008SOL    HW1 3410   0.554   2.059   0.253
 1008SOL    HW2 3411   0.527   2.213   0.297
 1009SOL     OW 3412   1.754   3.085   1.588
 1009SOL    HW1 3413   1.845   3.046   1.575
 1009SOL    HW2 3414   1.762   3.181   1.612
 1010SOL     OW 3415   1.064   3.209   1.340
 1010SOL    HW1 3416   0.984   3.186   1.395
 1010SOL    HW2 3417   1.147   3.183   1.389
 1011SOL     OW 3418   1.592   3.491   1.625
 1011SOL    HW1 3419   1.619   3.525   1.535
 1011SOL    HW2 3420   1.671   3.453   1.671
 1012SOL     OW 3421   1.111   3.057   1.100
 1012SOL    HW1 3422   1.071   3.101   1.181
 1012SOL    HW2 3423   1.070   3.094   1.017
 1013SOL     OW 3424   1.638   2.961   1.079
 1013SOL    HW1 3425   1.643   3.042   1.138
 1013SOL    HW2 3426   1.552   2.963   1.028
 1014SOL     OW 3427   0.915   1.951   1.402
 1014SOL    HW1 3428   0.940   1.931   1.307
 1014SOL    HW2 3429   0.987   2.007   1.444
 1015SOL     OW 3430   0.980   2.978   1.719
 1015SOL    HW1 3431   0.881   2.984   1.729
 1015SOL    HW2 3432   1.003   2.898   1.663
 1016SOL     OW 3433   0.705   2.912   0.368
 1016SOL    HW1 3434   0.691   2.919   0.467
 1016SOL    HW2 3435   0.789   2.861   0.350
 1017SOL     OW 3436   0.410   2.675   1.251
 1017SOL    HW1 3437   0.496   2.687   1.301
 1017SOL    HW2 3438   0.368   2.588   1.278
 1018SOL     OW 3439   1.274   2.248   1.262
 1018SOL    HW1 3440   1.295   2.322   1.326
 1018SOL    HW2 3441   1.185   2.265   1.219
 1019SOL     OW 3442   0.064   3.426   1.331
 1019SOL    HW1 3443   0.018   3.508   1.297
 1019SOL    HW2 3444   0.162   3.445   1.340
 1020SOL     OW 3445   0.367   2.962   0.501
 1020SOL    HW1 3446   0.360   3.045   0.445
 1020SOL    HW2 3447   0.371   2.882   0.441
 1021SOL     OW 3448   0.566   2.399   0.865
 1021SOL    HW1 3449   0.578   2.465   0.791
 1021SOL    HW2 3450   0.612   2.433   0.948
 1022SOL     OW 3451   1.252   3.210   0.388
 1022SOL    HW1 3452   1.302   3.287   0.428
 1022SOL    HW2 3453   1.157   3.212   0.420
 1023SOL     OW 3454   1.272   3.307   1.142
 1023SOL    HW1 3455   1.319   3.320   1.229
 1023SOL    HW2 3456   1.206   3.233   1.151
 1024SOL     OW 3457   1.582   2.501   0.472
 1024SOL    HW1 3458   1.551   2.562   0.545
 1024SOL    HW2 3459   1.632   2.553   0.403
 1025SOL     OW 3460   0.354   3.372   1.329
 1025SOL    HW1 3461   0.333   3.328   1.242
 1025SOL    HW2 3462   0.451   3.398   1.332
 1026SOL     OW 3463   0.402   2.613   1.598
 1026SOL    HW1 3464   0.470   2.668   1.551
 1026SOL    HW2 3465   0.442   2.525   1.625
 1027SOL     OW 3466   1.587   2.641   1.670
 1027SOL    HW1 3467   1.495   2.679   1.665
 1027SOL    HW2 3468   1.647   2.688   1.605
 1028SOL     OW 3469   1.013   1.967   1.770
 1028SOL    HW1 3470   1.019   2.052   1.718
 1028SOL    HW2 3471   1.045   1.891   1.713
 1029SOL     OW 3472   0.504   1.912   1.740
 1029SOL    HW1 3473   0.462   1.855   1.670
 1029SOL    HW2 3474   0.438   1.981   1.772
 1030SOL     OW 3475   0.573   2.732   1.029
 1030SOL    HW1 3476   0.617   2.821   1.020
 1030SOL    HW2 3477   0.510   2.732   1.106
 1031SOL     OW 3478   1.360   2.724   1.045
 1031SOL    HW1 3479   1.285   2.724   0.979
 1031SOL    HW2 3480   1.397   2.632   1.054
 1032SOL     OW 3481   1.209   2.387   0.275
 1032SOL    HW1 3482   1.222   2.303   0.329
 1032SOL    HW2 3483   1.180   2.461   0.335
 1033SOL     OW 3484   0.307   2.075   1.231
 1033SOL    HW1 3485   0.284   2.112   1.321
 1033SOL    HW2 3486   0.277   1.980   1.225
 1034SOL     OW 3487   0.037   3.172   1.282
 1034SOL    HW1 3488   0.090   3.123   1.350
 1034SOL    HW2 3489   0.059   3.270   1.287
 1035SOL     OW 3490   0.732   2.496   1.064
 1035SOL    HW1 3491   0.791   2.470   0.988
 1035SOL    HW2 3492   0.704   2.592   1.053
 1036SOL     OW 3493   1.728   2.797   1.854
 1036SOL    HW1 3494   1.682   2.790   1.765
 1036SOL    HW2 3495   1.666   2.841   1.920
 1037SOL     OW 3496   0.307   1.925   0.618
 1037SOL    HW1 3497   0.296   2.019   0.651
 1037SOL    HW2 3498   0.302   1.862   0.695
 1038SOL     OW 3499   1.622   2.229   0.374
 1038SOL    HW1 3500   1.624   2.153   0.438
 1038SOL    HW2 3501   1.574   2.306   0.414
 1039SOL     OW 3502   1.023   2.628   0.966
 1039SOL    HW1 3503   1.038   2.649   1.062
 1039SOL    HW2 3504   0.993   2.533   0.957
 1040SOL     OW 3505   0.980   3.435   1.700
 1040SOL    HW1 3506   0.960   3.479   1.612
 1040SOL    HW2 3507   1.019   3.344   1.684
 1041SOL     OW 3508   1.859   3.380   1.605
 1041SOL    HW1 3509   1.873   3.407   1.510
 1041SOL    HW2 3510   1.942   3.402   1.658
 1042SOL     OW 3511   0.350   2.760   1.804
 1042SOL    HW1 3512   0.426   2.804   1.852
 1042SOL    HW2 3513   0.385   2.713   1.722
 1043SOL     OW 3514   1.540   2.136   0.125
 1043SOL    HW1 3515   1.479   2.061   0.148
 1043SOL    HW2 3516   1.562   2.188   0.208
 1044SOL     OW 3517   1.303   2.700   0.042
 1044SOL    HW1 3518   1.337   2.607   0.057
 1044SOL    HW2 3519   1.321   2.727  -0.053
 1045SOL     OW 3520   1.068   3.195   0.849
 1045SOL    HW1 3521   1.075   3.111   0.794
 1045SOL    HW2 3522   1.130   3.264   0.813
 1046SOL     OW 3523   0.319   2.672   0.949
 1046SOL    HW1 3524   0.412   2.708   0.954
 1046SOL    HW2 3525   0.313   2.587   1.001
 1047SOL     OW 3526   0.339   2.371   1.006
 1047SOL    HW1 3527   0.287   2.288   0.989
 1047SOL    HW2 3528   0.416   2.376   0.942
 1048SOL     OW 3529   1.138   2.242   1.678
 1048SOL    HW1 3530   1.093   2.305   1.742
 1048SOL    HW2 3531   1.231   2.273   1.661
 1049SOL     OW 3532   1.160   2.069   1.477
 1049SOL    HW1 3533   1.160   2.133   1.554
 1049SOL    HW2 3534   1.188   2.117   1.394
 1050SOL     OW 3535   0.008   3.188   0.200
 1050SOL    HW1 3536  -0.085   3.209   0.169
 1050SOL    HW2 3537   0.018   3.089   0.213
 1051SOL     OW 3538   0.088   3.663   0.927
 1051SOL    HW1 3539   0.046   3.577   0.900
 1051SOL    HW2 3540   0.182   3.666   0.893
 1052SOL     OW 3541   0.504   3.430   0.910
 1052SOL    HW1 3542   0.570   3.504   0.919
 1052SOL    HW2 3543   0.548   3.351   0.868
 1053SOL     OW 3544   1.002   2.658   1.238
 1053SOL    HW1 3545   1.043   2.626   1.324
 1053SOL    HW2 3546   0.906   2.631   1.235
 1054SOL     OW 3547   0.040   2.406   1.114
 1054SOL    HW1 3548   0.125   2.373   1.073
 1054SOL    HW2 3549   0.053   2.421   1.212
 1055SOL     OW 3550   0.189   2.382   1.722
 1055SOL    HW1 3551   0.248   2.342   1.652
 1055SOL    HW2 3552   0.131   2.453   1.681
 1056SOL     OW 3553   1.369   2.812   1.660
 1056SOL    HW1 3554   1.408   2.901   1.680
 1056SOL    HW2 3555   1.379   2.792   1.563
 1057SOL     OW 3556   0.815   2.434   0.325
 1057SOL    HW1 3557   0.822   2.345   0.279
 1057SOL    HW2 3558   0.721   2.468   0.317
 1058SOL     OW 3559   1.657   2.466   1.206
 1058SOL    HW1 3560   1.619   2.397   1.268
 1058SOL    HW2 3561   1.739   2.430   1.162
 1059SOL     OW 3562   0.252   3.426   1.744
 1059SOL    HW1 3563   0.222   3.483   1.820
 1059SOL    HW2 3564   0.245   3.329   1.770
 1060SOL     OW 3565   0.671   2.326   1.269
 1060SOL    HW1 3566   0.637   2.237   1.239
 1060SOL    HW2 3567   0.697   2.380   1.189
 1061SOL     OW 3568   0.930   3.540   1.465
 1061SOL    HW1 3569   0.906   3.522   1.370
 1061SOL    HW2 3570   0.960   3.634   1.475
 1062SOL     OW 3571   0.473   2.362   0.191
 1062SOL    HW1 3572   0.534   2.442   0.195
 1062SOL    HW2 3573   0.378   2.393   0.198
 1063SOL     OW 3574   0.159   2.999   1.466
 1063SOL    HW1 3575   0.181   2.938   1.542
 1063SOL    HW2 3576   0.169   2.950   1.380
 1064SOL     OW 3577   1.347   2.921   1.234
 1064SOL    HW1 3578   1.371   2.858   1.160
 1064SOL    HW2 3579   1.257   2.961   1.216
 1065SOL     OW 3580   1.302   2.717   0.309
 1065SOL    HW1 3581   1.216   2.686   0.351
 1065SOL    HW2 3582   1.298   2.703   0.210
 1066SOL     OW 3583   1.759   3.609   1.154
 1066SOL    HW1 3584   1.820   3.639   1.081
 1066SOL    HW2 3585   1.721   3.520   1.132
 1067SOL     OW 3586   1.252   3.593   1.128
 1067SOL    HW1 3587   1.336   3.598   1.074
 1067SOL    HW2 3588   1.229   3.497   1.146
 1068SOL     OW 3589   0.083   3.120   1.022
 1068SOL    HW1 3590   0.078   3.119   1.122
 1068SOL    HW2 3591   0.000   3.079   0.984
 1069SOL     OW 3592   0.688   3.524   1.716
 1069SOL    HW1 3593   0.632   3.605   1.725
 1069SOL    HW2 3594   0.740   3.528   1.630
 1070SOL     OW 3595   0.903   1.948   0.133
 1070SOL    HW1 3596   0.954   1.949   0.047
 1070SOL    HW2 3597   0.959   1.906   0.204
 1071SOL     OW 3598   1.726   1.997   0.523
 1071SOL    HW1 3599   1.799   1.980   0.456
 1071SOL    HW2 3600   1.695   1.910   0.561
 1072SOL     OW 3601   1.388   3.435   0.477
 1072SOL    HW1 3602   1.455   3.447   0.403
 1072SOL    HW2 3603   1.348   3.524   0.500
 1073SOL     OW 3604   0.130   3.656   1.851
 1073SOL    HW1 3605   0.089   3.582   1.904
 1073SOL    HW2 3606   0.194   3.707   1.909
 1074SOL     OW 3607   1.280   2.789   0.672
 1074SOL    HW1 3608   1.340   2.708   0.674
 1074SOL    HW2 3609   1.320   2.858   0.612
 1075SOL     OW 3610   0.830   3.135   1.422
 1075SOL    HW1 3611   0.825   3.168   1.517
 1075SOL    HW2 3612   0.744   3.154   1.376
 1076SOL     OW 3613   0.672   3.478   0.154
 1076SOL    HW1 3614   0.681   3.488   0.055
 1076SOL    HW2 3615   0.632   3.389   0.175
 1077SOL     OW 3616   1.650   3.582   1.394
 1077SOL    HW1 3617   1.703   3.592   1.310
 1077SOL    HW2 3618   1.623   3.672   1.428
 1078SOL     OW 3619   1.841   2.037   0.963
 1078SOL    HW1 3620   1.880   1.952   0.927
 1078SOL    HW2 3621   1.743   2.039   0.944
 1079SOL     OW 3622   0.263   2.188   0.720
 1079SOL    HW1 3623   0.184   2.239   0.686
 1079SOL    HW2 3624   0.254   2.173   0.818
 1080SOL     OW 3625   1.194   3.474   0.031
 1080SOL    HW1 3626   1.200   3.381   0.068
 1080SOL    HW2 3627   1.135   3.474  -0.049
 1081SOL     OW 3628   0.822   2.864   1.372
 1081SOL    HW1 3629   0.862   2.863   1.280
 1081SOL    HW2 3630   0.832   2.956   1.412
 1082SOL     OW 3631   0.916   2.772   0.291
 1082SOL    HW1 3632   0.979   2.810   0.223
 1082SOL    HW2 3633   0.956   2.689   0.330
 1083SOL     OW 3634   1.504   3.469   0.044
 1083SOL    HW1 3635   1.412   3.506   0.051
 1083SOL    HW2 3636   1.542   3.489  -0.046
 1084SOL     OW 3637   0.372   3.150   1.490
 1084SOL    HW1 3638   0.359   3.243   1.456
 1084SOL    HW2 3639   0.288   3.098   1.477
 1085SOL     OW 3640   1.614   3.154   1.289
 1085SOL    HW1 3641   1.674   3.157   1.369
 1085SOL    HW2 3642   1.539   3.218   1.302
 1086SOL     OW 3643   1.039   2.960   0.696
 1086SOL    HW1 3644   0.969   2.913   0.750
 1086SOL    HW2 3645   1.098   2.892   0.653
 1087SOL     OW 3646   1.014   2.098   0.971
 1087SOL    HW1 3647   1.006   2.062   0.878
 1087SOL    HW2 3648   1.012   2.022   1.036
 1088SOL     OW 3649   0.590   3.349   0.491
 1088SOL    HW1 3650   0.632   3.291   0.421
 1088SOL    HW2 3651   0.546   3.428   0.447
 1089SOL     OW 3652   1.709   2.247   1.381
 1089SOL    HW1 3653   1.782   2.316   1.385
 1089SOL    HW2 3654   1.737   2.172   1.322
 1090SOL     OW 3655   0.255   3.210   0.290
 1090SOL    HW1 3656   0.159   3.211   0.263
 1090SOL    HW2 3657   0.267   3.263   0.374
 1091SOL     OW 3658   0.105   2.875   1.726
 1091SOL    HW1 3659   0.028   2.842   1.780
 1091SOL    HW2 3660   0.190   2.845   1.768
 1092SOL     OW 3661   0.672   2.065   1.489
 1092SOL    HW1 3662   0.762   2.049   1.449
 1092SOL    HW2 3663   0.680   2.070   1.588
 1093SOL     OW 3664   0.075   2.207   0.033
 1093SOL    HW1 3665  -0.017   2.179   0.004
 1093SOL    HW2 3666   0.106   2.284  -0.023
 1094SOL     OW 3667   1.440   2.718   1.398
 1094SOL    HW1 3668   1.383   2.770   1.335
 1094SOL    HW2 3669   1.536   2.730   1.374
 1095SOL     OW 3670   0.072   2.028   0.318
 1095SOL    HW1 3671   0.055   2.111   0.264
 1095SOL    HW2 3672   0.162   1.991   0.296
 1096SOL     OW 3673   1.183   3.197   0.119
 1096SOL    HW1 3674   1.084   3.186   0.121
 1096SOL    HW2 3675   1.217   3.212   0.212
 1097SOL     OW 3676   0.613   2.704   1.431
 1097SOL    HW1 3677   0.669   2.785   1.414
 1097SOL    HW2 3678   0.672   2.624   1.434
 1098SOL     OW 3679   1.493   3.629   0.959
 1098SOL    HW1 3680   1.526   3.693   0.890
 1098SOL    HW2 3681   1.559   3.623   1.034
 1099SOL     OW 3682   0.716   2.427   1.708
 1099SOL    HW1 3683   0.735   2.492   1.782
 1099SOL    HW2 3684   0.776   2.347   1.717
 1100SOL     OW 3685   1.450   3.082   1.633
 1100SOL    HW1 3686   1.441   3.072   1.732
 1100SOL    HW2 3687   1.546   3.075   1.607
 1101SOL     OW 3688   0.390   3.603   1.560
 1101SOL    HW1 3689   0.299   3.644   1.558
 1101SOL    HW2 3690   0.383   3.509   1.592
 1102SOL     OW 3691   1.674   2.745   1.254
 1102SOL    HW1 3692   1.647   2.656   1.217
 1102SOL    HW2 3693   1.675   2.813   1.181
 1103SOL     OW 3694   1.225   2.187   0.449
 1103SOL    HW1 3695   1.290   2.113   0.438
 1103SOL    HW2 3696   1.245   2.237   0.533
 1104SOL     OW 3697   0.594   2.607   0.652
 1104SOL    HW1 3698   0.644   2.692   0.633
 1104SOL    HW2 3699   0.506   2.609   0.604
 1105SOL     OW 3700   1.777   2.204   1.642
 1105SOL    HW1 3701   1.760   2.235   1.548
 1105SOL    HW2 3702   1.693   2.167   1.680
 1106SOL     OW 3703   1.730   2.796   1.517
 1106SOL    HW1 3704   1.768   2.887   1.532
 1106SOL    HW2 3705   1.722   2.779   1.418
 1107SOL     OW 3706   0.859   3.236   0.016
 1107SOL    HW1 3707   0.813   3.251   0.104
 1107SOL    HW2 3708   0.903   3.321  -0.014
 1108SOL     OW 3709   0.661   3.652   0.953
 1108SOL    HW1 3710   0.615   3.740   0.940
 1108SOL    HW2 3711   0.760   3.664   0.946
 1109SOL     OW 3712   0.859   2.818   0.861
 1109SOL    HW1 3713   0.913   2.749   0.909
 1109SOL    HW2 3714   0.827   2.887   0.927
 1110SOL     OW 3715   1.083   2.846   0.087
 1110SOL    HW1 3716   1.060   2.899   0.005
 1110SOL    HW2 3717   1.164   2.790   0.068
 1111SOL     OW 3718   1.861   3.431   0.851
 1111SOL    HW1 3719   1.790   3.419   0.781
 1111SOL    HW2 3720   1.862   3.352   0.911
 1112SOL     OW 3721   0.221   3.176   1.844
 1112SOL    HW1 3722   0.156   3.103   1.823
 1112SOL    HW2 3723   0.225   3.190   1.942
 1113SOL     OW 3724   0.079   3.102   0.653
 1113SOL    HW1 3725   0.078   3.055   0.741
 1113SOL    HW2 3726   0.161   3.074   0.602
 1114SOL     OW 3727   0.672   3.253   1.624
 1114SOL    HW1 3728   0.594   3.203   1.662
 1114SOL    HW2 3729   0.669   3.348   1.655
 1115SOL     OW 3730   1.824   2.054   1.227
 1115SOL    HW1 3731   1.820   1.964   1.271
 1115SOL    HW2 3732   1.827   2.043   1.128
 1116SOL     OW 3733   0.428   2.286   0.520
 1116SOL    HW1 3734   0.458   2.214   0.458
 1116SOL    HW2 3735   0.389   2.246   0.603
 1117SOL     OW 3736   1.705   3.349   1.104
 1117SOL    HW1 3737   1.612   3.324   1.077
 1117SOL    HW2 3738   1.731   3.299   1.186
 1118SOL     OW 3739   0.317   2.409   1.280
 1118SOL    HW1 3740   0.355   2.350   1.352
 1118SOL    HW2 3741   0.357   2.383   1.192
 1119SOL     OW 3742   0.812   3.448   0.687
 1119SOL    HW1 3743   0.844   3.458   0.593
 1119SOL    HW2 3744   0.733   3.386   0.689
 1120SOL     OW 3745   1.424   2.076   1.112
 1120SOL    HW1 3746   1.476   2.011   1.167
 1120SOL    HW2 3747   1.375   2.139   1.173
 1121SOL     OW 3748   1.001   1.896   1.154
 1121SOL    HW1 3749   0.938   1.824   1.123
 1121SOL    HW2 3750   1.094   1.860   1.154
 1122SOL     OW 3751   0.770   3.192   0.301
 1122SOL    HW1 3752   0.724   3.105   0.318
 1122SOL    HW2 3753   0.861   3.189   0.342
 1123SOL     OW 3754   0.618   3.429   1.284
 1123SOL    HW1 3755   0.613   3.511   1.341
 1123SOL    HW2 3756   0.707   3.426   1.239
 1124SOL     OW 3757   1.352   1.914   0.168
 1124SOL    HW1 3758   1.387   1.873   0.084
 1124SOL    HW2 3759   1.262   1.876   0.188
 1125SOL     OW 3760   1.300   2.315   0.691
 1125SOL    HW1 3761   1.241   2.395   0.695
 1125SOL    HW2 3762   1.315   2.280   0.784
 1126SOL     OW 3763   1.593   2.083   0.882
 1126SOL    HW1 3764   1.509   2.082   0.936
 1126SOL    HW2 3765   1.595   2.166   0.826
 1127SOL     OW 3766   0.039   2.939   0.300
 1127SOL    HW1 3767   0.138   2.928   0.291
 1127SOL    HW2 3768  -0.001   2.853   0.332
 1128SOL     OW 3769   0.875   3.508   0.337
 1128SOL    HW1 3770   0.798   3.473   0.283
 1128SOL    HW2 3771   0.843   3.579   0.399
 1129SOL     OW 3772   0.230   2.490   1.975
 1129SOL    HW1 3773   0.137   2.488   2.012
 1129SOL    HW2 3774   0.231   2.451   1.883
 1130SOL     OW 3775   0.225   2.137   2.858
 1130SOL    HW1 3776   0.260   2.120   2.950
 1130SOL    HW2 3777   0.137   2.092   2.846
 1131SOL     OW 3778   0.019   2.230   2.509
 1131SOL    HW1 3779  -0.063   2.273   2.548
 1131SOL    HW2 3780  -0.009   2.157   2.446
 1132SOL     OW 3781   0.569   3.137   3.027
 1132SOL    HW1 3782   0.476   3.130   2.990
 1132SOL    HW2 3783   0.580   3.226   3.071
 1133SOL     OW 3784   1.555   3.373   2.565
 1133SOL    HW1 3785   1.498   3.357   2.646
 1133SOL    HW2 3786   1.496   3.383   2.485
 1134SOL     OW 3787   1.135   2.565   2.579
 1134SOL    HW1 3788   1.192   2.643   2.554
 1134SOL    HW2 3789   1.075   2.591   2.655
 1135SOL     OW 3790   1.755   2.469   2.093
 1135SOL    HW1 3791   1.743   2.456   1.994
 1135SOL    HW2 3792   1.725   2.388   2.142
 1136SOL     OW 3793   0.768   3.006   2.885
 1136SOL    HW1 3794   0.690   3.023   2.945
 1136SOL    HW2 3795   0.802   3.093   2.849
 1137SOL     OW 3796   0.850   2.660   3.685
 1137SOL    HW1 3797   0.846   2.736   3.750
 1137SOL    HW2 3798   0.872   2.696   3.594
 1138SOL     OW 3799   0.685   2.874   2.527
 1138SOL    HW1 3800   0.754   2.858   2.597
 1138SOL    HW2 3801   0.612   2.931   2.565
 1139SOL     OW 3802   0.686   3.023   3.665
 1139SOL    HW1 3803   0.746   3.102   3.679
 1139SOL    HW2 3804   0.600   3.054   3.624
 1140SOL     OW 3805   0.335   3.297   2.923
 1140SOL    HW1 3806   0.257   3.266   2.870
 1140SOL    HW2 3807   0.393   3.355   2.866
 1141SOL     OW 3808   1.460   3.367   3.201
 1141SOL    HW1 3809   1.484   3.461   3.227
 1141SOL    HW2 3810   1.444   3.313   3.283
 1142SOL     OW 3811   0.438   2.254   3.361
 1142SOL    HW1 3812   0.520   2.198   3.370
 1142SOL    HW2 3813   0.357   2.196   3.365
 1143SOL     OW 3814   1.603   2.309   2.599
 1143SOL    HW1 3815   1.529   2.355   2.549
 1143SOL    HW2 3816   1.654   2.377   2.652
 1144SOL     OW 3817   0.231   3.575   2.345
 1144SOL    HW1 3818   0.265   3.652   2.399
 1144SOL    HW2 3819   0.275   3.575   2.255
 1145SOL     OW 3820   1.127   3.203   3.552
 1145SOL    HW1 3821   1.174   3.203   3.640
 1145SOL    HW2 3822   1.079   3.116   3.541
 1146SOL     OW 3823   0.230   3.296   2.400
 1146SOL    HW1 3824   0.204   3.392   2.400
 1146SOL    HW2 3825   0.159   3.242   2.445
 1147SOL     OW 3826   0.240   2.953   2.748
 1147SOL    HW1 3827   0.254   2.869   2.800
 1147SOL    HW2 3828   0.185   3.017   2.803
 1148SOL     OW 3829   0.620   3.648   3.301
 1148SOL    HW1 3830   0.528   3.631   3.336
 1148SOL    HW2 3831   0.648   3.740   3.327
 1149SOL     OW 3832   0.606   2.826   1.985
 1149SOL    HW1 3833   0.613   2.910   1.931
 1149SOL    HW2 3834   0.652   2.839   2.073
 1150SOL     OW 3835   1.594   1.976   3.342
 1150SOL    HW1 3836   1.576   2.043   3.270
 1150SOL    HW2 3837   1.591   2.022   3.431
 1151SOL     OW 3838   0.122   2.505   2.425
 1151SOL    HW1 3839   0.077   2.417   2.442
 1151SOL    HW2 3840   0.121   2.559   2.509
 1152SOL     OW 3841   1.842   3.629   2.221
 1152SOL    HW1 3842   1.896   3.600   2.301
 1152SOL    HW2 3843   1.872   3.719   2.192
 1153SOL     OW 3844   0.027   3.458   1.979
 1153SOL    HW1 3845   0.008   3.362   2.000
 1153SOL    HW2 3846  -0.006   3.516   2.054
 1154SOL     OW 3847   1.689   2.784   2.474
 1154SOL    HW1 3848   1.784   2.755   2.482
 1154SOL    HW2 3849   1.681   2.849   2.399
 1155SOL     OW 3850   1.641   2.970   2.294
 1155SOL    HW1 3851   1.727   2.972   2.242
 1155SOL    HW2 3852   1.655   3.017   2.382
 1156SOL     OW 3853   0.113   2.599   3.459
 1156SOL    HW1 3854   0.201   2.586   3.504
 1156SOL    HW2 3855   0.100   2.696   3.437
 1157SOL     OW 3856   0.613   3.227   2.588
 1157SOL    HW1 3857   0.564   3.140   2.597
 1157SOL    HW2 3858   0.590   3.270   2.501
 1158SOL     OW 3859   1.293   3.090   3.285
 1158SOL    HW1 3860   1.330   3.017   3.227
 1158SOL    HW2 3861   1.345   3.095   3.370
 1159SOL     OW 3862   0.809   1.866   2.364
 1159SOL    HW1 3863   0.849   1.957   2.355
 1159SOL    HW2 3864   0.709   1.874   2.370
 1160SOL     OW 3865   0.197   2.838   3.126
 1160SOL    HW1 3866   0.286   2.793   3.112
 1160SOL    HW2 3867   0.124   2.773   3.107
 1161SOL     OW 3868   1.525   2.861   2.052
 1161SOL    HW1 3869   1.462   2.785   2.065
 1161SOL    HW2 3870   1.573   2.879   2.138
 1162SOL     OW 3871   1.187   3.654   3.478
 1162SOL    HW1 3872   1.211   3.714   3.402
 1162SOL    HW2 3873   1.194   3.559   3.448
 1163SOL     OW 3874   0.317   2.113   3.663
 1163SOL    HW1 3875   0.388   2.184   3.669
 1163SOL    HW2 3876   0.229   2.152   3.691
 1164SOL     OW 3877   1.466   3.279   2.815
 1164SOL    HW1 3878   1.407   3.285   2.895
 1164SOL    HW2 3879   1.451   3.191   2.769
 1165SOL     OW 3880   1.667   3.576   2.434
 1165SOL    HW1 3881   1.626   3.553   2.346
 1165SOL    HW2 3882   1.649   3.502   2.499
 1166SOL     OW 3883   0.598   2.591   2.132
 1166SOL    HW1 3884   0.622   2.660   2.064
 1166SOL    HW2 3885   0.520   2.624   2.186
 1167SOL     OW 3886   1.281   2.207   2.806
 1167SOL    HW1 3887   1.195   2.157   2.793
 1167SOL    HW2 3888   1.343   2.153   2.862
 1168SOL     OW 3889   1.576   3.524   2.169
 1168SOL    HW1 3890   1.665   3.570   2.172
 1168SOL    HW2 3891   1.555   3.500   2.074
 1169SOL     OW 3892   0.807   2.467   3.327
 1169SOL    HW1 3893   0.760   2.464   3.416
 1169SOL    HW2 3894   0.756   2.412   3.261
 1170SOL     OW 3895   1.394   2.331   3.536
 1170SOL    HW1 3896   1.374   2.374   3.624
 1170SOL    HW2 3897   1.472   2.269   3.545
 1171SOL     OW 3898   0.973   2.752   3.434
 1171SOL    HW1 3899   1.019   2.668   3.405
 1171SOL    HW2 3900   0.917   2.786   3.359
 1172SOL     OW 3901   0.991   2.272   3.104
 1172SOL    HW1 3902   0.914   2.306   3.158
 1172SOL    HW2 3903   0.957   2.221   3.025
 1173SOL     OW 3904   1.041   2.563   2.291
 1173SOL    HW1 3905   1.067   2.559   2.387
 1173SOL    HW2 3906   0.956   2.512   2.277
 1174SOL     OW 3907   0.076   2.673   2.651
 1174SOL    HW1 3908   0.175   2.661   2.660
 1174SOL    HW2 3909   0.052   2.768   2.672
 1175SOL     OW 3910   0.130   3.683   3.433
 1175SOL    HW1 3911   0.120   3.668   3.532
 1175SOL    HW2 3912   0.044   3.719   3.397
 1176SOL     OW 3913   0.865   2.210   2.057
 1176SOL    HW1 3914   0.924   2.273   2.008
 1176SOL    HW2 3915   0.884   2.116   2.028
 1177SOL     OW 3916   1.719   2.447   3.693
 1177SOL    HW1 3917   1.693   2.536   3.657
 1177SOL    HW2 3918   1.717   2.379   3.620
 1178SOL     OW 3919   1.362   3.006   2.407
 1178SOL    HW1 3920   1.445   2.977   2.359
 1178SOL    HW2 3921   1.313   3.073   2.351
 1179SOL     OW 3922   0.550   2.058   2.747
 1179SOL    HW1 3923   0.545   2.053   2.847
 1179SOL    HW2 3924   0.552   2.154   2.718
 1180SOL     OW 3925   1.008   3.318   2.339
 1180SOL    HW1 3926   0.962   3.390   2.287
 1180SOL    HW2 3927   1.004   3.338   2.437
 1181SOL     OW 3928   0.351   3.663   2.715
 1181SOL    HW1 3929   0.401   3.577   2.721
 1181SOL    HW2 3930   0.416   3.740   2.712
 1182SOL     OW 3931   1.795   2.928   2.735
 1182SOL    HW1 3932   1.733   2.913   2.659
 1182SOL    HW2 3933   1.743   2.939   2.820
 1183SOL     OW 3934   1.227   3.412   3.368
 1183SOL    HW1 3935   1.233   3.335   3.432
 1183SOL    HW2 3936   1.175   3.386   3.288
 1184SOL     OW 3937   0.321   2.805   2.104
 1184SOL    HW1 3938   0.403   2.844   2.062
 1184SOL    HW2 3939   0.294   2.723   2.055
 1185SOL     OW 3940   1.458   2.597   2.590
 1185SOL    HW1 3941   1.453   2.532   2.665
 1185SOL    HW2 3942   1.538   2.656   2.603
 1186SOL     OW 3943   0.461   3.128   3.589
 1186SOL    HW1 3944   0.411   3.129   3.503
 1186SOL    HW2 3945   0.398   3.110   3.665
 1187SOL     OW 3946   1.111   3.638   2.099
 1187SOL    HW1 3947   1.051   3.576   2.149
 1187SOL    HW2 3948   1.142   3.594   2.014
 1188SOL     OW 3949   0.202   2.147   3.360
 1188SOL    HW1 3950   0.122   2.207   3.347
 1188SOL    HW2 3951   0.192   2.098   3.446
 1189SOL     OW 3952   1.632   3.239   1.943
 1189SOL    HW1 3953   1.600   3.333   1.933
 1189SOL    HW2 3954   1.556   3.176   1.931
 1190SOL     OW 3955   0.464   3.605   2.185
 1190SOL    HW1 3956   0.497   3.644   2.271
 1190SOL    HW2 3957   0.540   3.598   2.120
 1191SOL     OW 3958   1.400   1.969   2.288
 1191SOL    HW1 3959   1.376   1.932   2.198
 1191SOL    HW2 3960   1.499   1.985   2.292
 1192SOL     OW 3961   0.249   3.647   3.103
 1192SOL    HW1 3962   0.306   3.582   3.153
 1192SOL    HW2 3963   0.233   3.614   3.010
 1193SOL     OW 3964   0.940   3.560   2.766
 1193SOL    HW1 3965   1.020   3.503   2.787
 1193SOL    HW2 3966   0.891   3.520   2.689
 1194SOL     OW 3967   0.382   2.562   2.342
 1194SOL    HW1 3968   0.427   2.472   2.339
 1194SOL    HW2 3969   0.288   2.551   2.375
 1195SOL     OW 3970   1.547   2.084   3.591
 1195SOL    HW1 3971   1.542   2.121   3.683
 1195SOL    HW2 3972   1.475   2.015   3.579
 1196SOL     OW 3973   0.614   1.984   1.979
 1196SOL    HW1 3974   0.712   1.962   1.986
 1196SOL    HW2 3975   0.583   1.967   1.886
 1197SOL     OW 3976   0.781   2.126   3.611
 1197SOL    HW1 3977   0.848   2.065   3.654
 1197SOL    HW2 3978   0.708   2.145   3.676
 1198SOL     OW 3979   0.888   3.376   3.057
 1198SOL    HW1 3980   0.865   3.351   2.963
 1198SOL    HW2 3981   0.949   3.307   3.096
 1199SOL     OW 3982   1.351   2.452   3.295
 1199SOL    HW1 3983   1.379   2.409   3.380
 1199SOL    HW2 3984   1.376   2.548   3.296
 1200SOL     OW 3985   0.803   3.264   2.786
 1200SOL    HW1 3986   0.893   3.278   2.744
 1200SOL    HW2 3987   0.732   3.266   2.715
 1201SOL     OW 3988   0.922   2.365   2.761
 1201SOL    HW1 3989   0.897   2.356   2.665
 1201SOL    HW2 3990   0.970   2.283   2.792
 1202SOL     OW 3991   0.539   1.926   2.374
 1202SOL    HW1 3992   0.458   1.927   2.432
 1202SOL    HW2 3993   0.542   2.009   2.319
 1203SOL     OW 3994   1.434   3.050   1.903
 1203SOL    HW1 3995   1.466   2.974   1.960
 1203SOL    HW2 3996   1.342   3.077   1.933
 1204SOL     OW 3997   0.297   1.897   2.033
 1204SOL    HW1 3998   0.346   1.981   2.012
 1204SOL    HW2 3999   0.359   1.832   2.078
 1205SOL     OW 4000   0.935   2.098   2.342
 1205SOL    HW1 4001   0.887   2.139   2.264
 1205SOL    HW2 4002   1.034   2.096   2.323
 1206SOL     OW 4003   1.076   2.545   3.326
 1206SOL    HW1 4004   0.996   2.484   3.329
 1206SOL    HW2 4005   1.157   2.492   3.302
 1207SOL     OW 4006   1.227   3.432   2.655
 1207SOL    HW1 4007   1.248   3.506   2.590
 1207SOL    HW2 4008   1.295   3.432   2.728
 1208SOL     OW 4009   0.459   3.014   2.603
 1208SOL    HW1 4010   0.388   2.987   2.668
 1208SOL    HW2 4011   0.433   2.986   2.510
 1209SOL     OW 4012   1.271   3.659   2.453
 1209SOL    HW1 4013   1.315   3.723   2.389
 1209SOL    HW2 4014   1.221   3.711   2.523
 1210SOL     OW 4015   1.032   2.411   1.878
 1210SOL    HW1 4016   0.991   2.493   1.839
 1210SOL    HW2 4017   1.096   2.437   1.951
 1211SOL     OW 4018   0.078   2.418   3.248
 1211SOL    HW1 4019   0.170   2.417   3.207
 1211SOL    HW2 4020   0.072   2.492   3.315
 1212SOL     OW 4021   0.561   2.084   3.009
 1212SOL    HW1 4022   0.599   2.000   3.046
 1212SOL    HW2 4023   0.473   2.103   3.053
 1213SOL     OW 4024   0.866   2.316   2.504
 1213SOL    HW1 4025   0.834   2.388   2.442
 1213SOL    HW2 4026   0.890   2.235   2.451
 1214SOL     OW 4027   1.017   1.901   2.615
 1214SOL    HW1 4028   0.945   1.906   2.546
 1214SOL    HW2 4029   0.993   1.832   2.684
 1215SOL     OW 4030   1.429   3.035   2.729
 1215SOL    HW1 4031   1.374   2.951   2.722
 1215SOL    HW2 4032   1.455   3.064   2.637
 1216SOL     OW 4033   1.466   2.452   2.854
 1216SOL    HW1 4034   1.436   2.357   2.861
 1216SOL    HW2 4035   1.539   2.468   2.920
 1217SOL     OW 4036   1.857   2.695   2.239
 1217SOL    HW1 4037   1.899   2.631   2.303
 1217SOL    HW2 4038   1.819   2.644   2.161
 1218SOL     OW 4039   0.488   3.247   2.036
 1218SOL    HW1 4040   0.401   3.232   2.083
 1218SOL    HW2 4041   0.471   3.273   1.941
 1219SOL     OW 4042   1.664   3.142   2.519
 1219SOL    HW1 4043   1.763   3.150   2.533
 1219SOL    HW2 4044   1.619   3.226   2.550
 1220SOL     OW 4045   1.390   2.437   1.940
 1220SOL    HW1 4046   1.336   2.416   2.021
 1220SOL    HW2 4047   1.481   2.396   1.949
 1221SOL     OW 4048   0.527   2.118   2.190
 1221SOL    HW1 4049   0.554   2.059   2.115
 1221SOL    HW2 4050   0.527   2.213   2.159
 1222SOL     OW 4051   1.754   3.085   3.450
 1222SOL    HW1 4052   1.845   3.046   3.437
 1222SOL    HW2 4053   1.762   3.181   3.474
 1223SOL     OW 4054   1.064   3.209   3.202
 1223SOL    HW1 4055   0.984   3.186   3.257
 1223SOL    HW2 4056   1.147   3.183   3.251
 1224SOL     OW 4057   1.592   3.491   3.487
 1224SOL    HW1 4058   1.619   3.525   3.397
 1224SOL    HW2 4059   1.671   3.453   3.533
 1225SOL     OW 4060   1.111   3.057   2.962
 1225SOL    HW1 4061   1.071   3.101   3.043
 1225SOL    HW2 4062   1.070   3.094   2.879
 1226SOL     OW 4063   1.638   2.961   2.941
 1226SOL    HW1 4064   1.643   3.042   3.000
 1226SOL    HW2 4065   1.552   2.963   2.890
 1227SOL     OW 4066   0.915   1.951   3.264
 1227SOL    HW1 4067   0.940   1.931   3.169
 1227SOL    HW2 4068   0.987   2.007   3.306
 1228SOL     OW 4069   0.980   2.978   3.581
 1228SOL    HW1 4070   0.881   2.984   3.591
 1228SOL    HW2 4071   1.003   2.898   3.525
 1229SOL     OW 4072   0.705   2.912   2.230
 1229SOL    HW1 4073   0.691   2.919   2.329
 1229SOL    HW2 4074   0.789   2.861   2.212
 1230SOL     OW 4075   0.410   2.675   3.113
 1230SOL    HW1 4076   0.496   2.687   3.163
 1230SOL    HW2 4077   0.368   2.588   3.140
 1231SOL     OW 4078   1.274   2.248   3.124
 1231SOL    HW1 4079   1.295   2.322   3.188
 1231SOL    HW2 4080   1.185   2.265   3.081
 1232SOL     OW 4081   0.064   3.426   3.193
 1232SOL    HW1 4082   0.018   3.508   3.159
 1232SOL    HW2 4083   0.162   3.445   3.202
 1233SOL     OW 4084   0.367   2.962   2.363
 1233SOL    HW1 4085   0.360   3.045   2.307
 1233SOL    HW2 4086   0.371   2.882   2.303
 1234SOL     OW 4087   0.566   2.399   2.727
 1234SOL    HW1 4088   0.578   2.465   2.653
 1234SOL    HW2 4089   0.612   2.433   2.810
 1235SOL     OW 4090   1.252   3.210   2.250
 1235SOL    HW1 4091   1.302   3.287   2.290
 1235SOL    HW2 4092   1.157   3.212   2.282
 1236SOL     OW 4093   1.272   3.307   3.004
 1236SOL    HW1 4094   1.319   3.320   3.091
 1236SOL    HW2 4095   1.206   3.233   3.013
 1237SOL     OW 4096   1.582   2.501   2.334
 1237SOL    HW1 4097   1.551   2.562   2.407
 1237SOL    HW2 4098   1.632   2.553   2.265
 1238SOL     OW 4099   0.354   3.372   3.191
 1238SOL    HW1 4100   0.333   3.328   3.104
 1238SOL    HW2 4101   0.451   3.398   3.194
 1239SOL     OW 4102   0.402   2.613   3.460
 1239SOL    HW1 4103   0.470   2.668   3.413
 1239SOL    HW2 4104   0.442   2.525   3.487
 1240SOL     OW 4105   1.587   2.641   3.532
 1240SOL    HW1 4106   1.495   2.679   3.527
 1240SOL    HW2 4107   1.647   2.688   3.467
 1241SOL     OW 4108   1.013   1.967   3.632
 1241SOL    HW1 4109   1.019   2.052   3.580
 1241SOL    HW2 4110   1.045   1.891   3.575
 1242SOL     OW 4111   0.504   1.912   3.602
 1242SOL    HW1 4112   0.462   1.855   3.532
 1242SOL    HW2 4113   0.438   1.981   3.634
 1243SOL     OW 4114   0.573   2.732   2.891
 1243SOL    HW1 4115   0.617   2.821   2.882
 1243SOL    HW2 4116   0.510   2.732   2.968
 1244SOL     OW 4117   1.360   2.724   2.907
 1244SOL    HW1 4118   1.285   2.724   2.841
 1244SOL    HW2 4119   1.397   2.632   2.916
 1245SOL     OW 4120   1.209   2.387   2.137
 1245SOL    HW1 4121   1.222   2.303   2.191
 1245SOL    HW2 4122   1.180   2.461   2.197
 1246SOL     OW 4123   0.307   2.075   3.093
 1246SOL    HW1 4124   0.284   2.112   3.183
 1246SOL    HW2 4125   0.277   1.980   3.087
 1247SOL     OW 4126   0.037   3.172   3.144
 1247SOL    HW1 4127   0.090   3.123   3.212
 1247SOL    HW2 4128   0.059   3.270   3.149
 1248SOL     OW 4129   0.732   2.496   2.926
 1248SOL    HW1 4130   0.791   2.470   2.850
 1248SOL    HW2 4131   0.704   2.592   2.915
 1249SOL     OW 4132   1.728   2.797   3.716
 1249SOL    HW1 4133   1.682   2.790   3.627
 1249SOL    HW2 4134   1.666   2.841   3.782
 1250SOL     OW 4135   0.307   1.925   2.480
 1250SOL    HW1 4136   0.296   2.019   2.513
 1250SOL    HW2 4137   0.302   1.862   2.557
 1251SOL     OW 4138   1.622   2.229   2.236
 1251SOL    HW1 4139   1.624   2.153   2.300
 1251SOL    HW2 4140   1.574   2.306   2.276
 1252SOL     OW 4141   1.023   2.628   2.828
 1252SOL    HW1 4142   1.038   2.649   2.924
 1252SOL    HW2 4143   0.993   2.533   2.819
 1253SOL     OW 4144   0.980   3.435   3.562
 1253SOL    HW1 4145   0.960   3.479   3.474
 1253SOL    HW2 4146   1.019   3.344   3.546
 1254SOL     OW 4147   1.859   3.380   3.467
 1254SOL    HW1 4148   1.873   3.407   3.372
 1254SOL    HW2 4149   1.942   3.402   3.520
 1255SOL     OW 4150   0.350   2.760   3.666
 1255SOL    HW1 4151   0.426   2.804   3.714
 1255SOL    HW2 4152   0.385   2.713   3.584
 1256SOL     OW 4153   1.540   2.136   1.987
 1256SOL    HW1 4154   1.479   2.061   2.010
 1256SOL    HW2 4155   1.562   2.188   2.070
 1257SOL     OW 4156   1.303   2.700   1.904
 1257SOL    HW1 4157   1.337   2.607   1.919
 1257SOL    HW2 4158   1.321   2.727   1.809
 1258SOL     OW 4159   1.068   3.195   2.711
 1258SOL    HW1 4160   1.075   3.111   2.656
 1258SOL    HW2 4161   1.130   3.264   2.675
 1259SOL     OW 4162   0.319   2.672   2.811
 1259SOL    HW1 4163   0.412   2.708   2.816
 1259SOL    HW2 4164   0.313   2.587   2.863
 1260SOL     OW 4165   0.339   2.371   2.868
 1260SOL    HW1 4166   0.287   2.288   2.851
 1260SOL    HW2 4167   0.416   2.376   2.804
 1261SOL     OW 4168   1.138   2.242   3.540
 1261SOL    HW1 4169   1.093   2.305   3.604
 1261SOL    HW2 4170   1.231   2.273   3.523
 1262SOL     OW 4171   1.160   2.069   3.339
 1262SOL    HW1 4172   1.160   2.133   3.416
 1262SOL    HW2 4173   1.188   2.117   3.256
 1263SOL     OW 4174   0.008   3.188   2.062
 1263SOL    HW1 4175  -0.085   3.209   2.031
 1263SOL    HW2 4176   0.018   3.089   2.075
 1264SOL     OW 4177   0.088   3.663   2.789
 1264SOL    HW1 4178   0.046   3.577   2.762
 1264SOL    HW2 4179   0.182   3.666   2.755
 1265SOL     OW 4180   0.504   3.430   2.772
 1265SOL    HW1 4181   0.570   3.504   2.781
 1265SOL    HW2 4182   0.548   3.351   2.730
 1266SOL     OW 4183   1.002   2.658   3.100
 1266SOL    HW1 4184   1.043   2.626   3.186
 1266SOL    HW2 4185   0.906   2.631   3.097
 1267SOL     OW 4186   0.040   2.406   2.976
 1267SOL    HW1 4187   0.125   2.373   2.935
 1267SOL    HW2 4188   0.053   2.421   3.074
 1268SOL     OW 4189   0.189   2.382   3.584
 1268SOL    HW1 4190   0.248   2.342   3.514
 1268SOL    HW2 4191   0.131   2.453   3.543
 1269SOL     OW 4192   1.369   2.812   3.522
 1269SOL    HW1 4193   1.408   2.901   3.542
 1269SOL    HW2 4194   1.379   2.792   3.425
 1270SOL     OW 4195   0.815   2.434   2.187
 1270SOL    HW1 4196   0.822   2.345   2.141
 1270SOL    HW2 4197   0.721   2.468   2.179
 1271SOL     OW 4198   1.657   2.466   3.068
 1271SOL    HW1 4199   1.619   2.397   3.130
 1271SOL    HW2 4200   1.739   2.430   3.024
 1272SOL     OW 4201   0.252   3.426   3.606
 1272SOL    HW1 4202   0.222   3.483   3.682
 1272SOL    HW2 4203   0.245   3.329   3.632
 1273SOL     OW 4204   0.671   2.326   3.131
 1273SOL    HW1 4205   0.637   2.237   3.101
 1273SOL    HW2 4206   0.697   2.380   3.051
 1274SOL     OW 4207   0.930   3.540   3.327
 1274SOL    HW1 4208   0.906   3.522   3.232
 1274SOL    HW2 4209   0.960   3.634   3.337
 1275SOL     OW 4210   0.473   2.362   2.053
 1275SOL    HW1 4211   0.534   2.442   2.057
 1275SOL    HW2 4212   0.378   2.393   2.060
 1276SOL     OW 4213   0.159   2.999   3.328
 1276SOL    HW1 4214   0.181   2.938   3.404
 1276SOL    HW2 4215   0.169   2.950   3.242
 1277SOL     OW 4216   1.347   2.921   3.096
 1277SOL    HW1 4217   1.371   2.858   3.022
 1277SOL    HW2 4218   1.257   2.961   3.078
 1278SOL     OW 4219   1.302   2.717   2.171
 1278SOL    HW1 4220   1.216   2.686   2.213
 1278SOL    HW2 4221   1.298   2.703   2.072
 1279SOL     OW 4222   1.759   3.609   3.016
 1279SOL    HW1 4223   1.820   3.639   2.943
 1279SOL    HW2 4224   1.721   3.520   2.994
 1280SOL     OW 4225   1.252   3.593   2.990
 1280SOL    HW1 4226   1.336   3.598   2.936
 1280SOL    HW2 4227   1.229   3.497   3.008
 1281SOL     OW 4228   0.083   3.120   2.884
 1281SOL    HW1 4229   0.078   3.119   2.984
 1281SOL    HW2 4230   0.000   3.079   2.846
 1282SOL     OW 4231   0.688   3.524   3.578
 1282SOL    HW1 4232   0.632   3.605   3.587
 1282SOL    HW2 4233   0.740   3.528   3.492
 1283SOL     OW 4234   1.726   1.997   2.385
 1283SOL    HW1 4235   1.799   1.980   2.318
 1283SOL    HW2 4236   1.695   1.910   2.423
 1284SOL     OW 4237   1.388   3.435   2.339
 1284SOL    HW1 4238   1.455   3.447   2.265
 1284SOL    HW2 4239   1.348   3.524   2.362
 1285SOL     OW 4240   0.130   3.656   3.713
 1285SOL    HW1 4241   0.089   3.582   3.766
 1285SOL    HW2 4242   0.194   3.707   3.771
 1286SOL     OW 4243   1.280   2.789   2.534
 1286SOL    HW1 4244   1.340   2.708   2.536
 1286SOL    HW2 4245   1.320   2.858   2.474
 1287SOL     OW 4246   0.830   3.135   3.284
 1287SOL    HW1 4247   0.825   3.168   3.379
 1287SOL    HW2 4248   0.744   3.154   3.238
 1288SOL     OW 4249   0.672   3.478   2.016
 1288SOL    HW1 4250   0.681   3.488   1.917
 1288SOL    HW2 4251   0.632   3.389   2.037
 1289SOL     OW 4252   1.650   3.582   3.256
 1289SOL    HW1 4253   1.703   3.592   3.172
 1289SOL    HW2 4254   1.623   3.672   3.290
 1290SOL     OW 4255   1.841   2.037   2.825
 1290SOL    HW1 4256   1.880   1.952   2.789
 1290SOL    HW2 4257   1.743   2.039   2.806
 1291SOL     OW 4258   0.263   2.188   2.582
 1291SOL    HW1 4259   0.184   2.239   2.548
 1291SOL    HW2 4260   0.254   2.173   2.680
 1292SOL     OW 4261   1.194   3.474   1.893
 1292SOL    HW1 4262   1.200   3.381   1.930
 1292SOL    HW2 4263   1.135   3.474   1.813
 1293SOL     OW 4264   0.822   2.864   3.234
 1293SOL    HW1 4265   0.862   2.863   3.142
 1293SOL    HW2 4266   0.832   2.956   3.274
 1294SOL     OW 4267   0.916   2.772   2.153
 1294SOL    HW1 4268   0.979   2.810   2.085
 1294SOL    HW2 4269   0.956   2.689   2.192
 1295SOL     OW 4270   1.504   3.469   1.906
 1295SOL    HW1 4271   1.412   3.506   1.913
 1295SOL    HW2 4272   1.542   3.489   1.816
 1296SOL     OW 4273   0.372   3.150   3.352
 1296SOL    HW1 4274   0.359   3.243   3.318
 1296SOL    HW2 4275   0.288   3.098   3.339
 1297SOL     OW 4276   1.614   3.154   3.151
 1297SOL    HW1 4277   1.674   3.157   3.231
 1297SOL    HW2 4278   1.539   3.218   3.164
 1298SOL     OW 4279   1.039   2.960   2.558
 1298SOL    HW1 4280   0.969   2.913   2.612
 1298SOL    HW2 4281   1.098   2.892   2.515
 1299SOL     OW 4282   1.014   2.098   2.833
 1299SOL    HW1 4283   1.006   2.062   2.740
 1299SOL    HW2 4284   1.012   2.022   2.898
 1300SOL     OW 4285   0.590   3.349   2.353
 1300SOL    HW1 4286   0.632   3.291   2.283
 1300SOL    HW2 4287   0.546   3.428   2.309
 1301SOL     OW 4288   1.709   2.247   3.243
 1301SOL    HW1 4289   1.782   2.316   3.247
 1301SOL    HW2 4290   1.737   2.172   3.184
 1302SOL     OW 4291   0.255   3.210   2.152
 1302SOL    HW1 4292   0.159   3.211   2.125
 1302SOL    HW2 4293   0.267   3.263   2.236
 1303SOL     OW 4294   0.105   2.875   3.588
 1303SOL    HW1 4295   0.028   2.842   3.642
 1303SOL    HW2 4296   0.190   2.845   3.630
 1304SOL     OW 4297   0.672   2.065   3.351
 1304SOL    HW1 4298   0.762   2.049   3.311
 1304SOL    HW2 4299   0.680   2.070   3.450
 1305SOL     OW 4300   0.075   2.207   1.895
 1305SOL    HW1 4301  -0.017   2.179   1.866
 1305SOL    HW2 4302   0.106   2.284   1.839
 1306SOL     OW 4303   1.440   2.718   3.260
 1306SOL    HW1 4304   1.383   2.770   3.197
 1306SOL    HW2 4305   1.536   2.730   3.236
 1307SOL     OW 4306   0.072   2.028   2.180
 1307SOL    HW1 4307   0.055   2.111   2.126
 1307SOL    HW2 4308   0.162   1.991   2.158
 1308SOL     OW 4309   1.183   3.197   1.981
 1308SOL    HW1 4310   1.084   3.186   1.983
 1308SOL    HW2 4311   1.217   3.212   2.074
 1309SOL     OW 4312   0.613   2.704   3.293
 1309SOL    HW1 4313   0.669   2.785   3.276
 1309SOL    HW2 4314   0.672   2.624   3.296
 1310SOL     OW 4315   1.493   3.629   2.821
 1310SOL    HW1 4316   1.526   3.693   2.752
 1310SOL    HW2 4317   1.559   3.623   2.896
 1311SOL     OW 4318   0.716   2.427   3.570
 1311SOL    HW1 4319   0.735   2.492   3.644
 1311SOL    HW2 4320   0.776   2.347   3.579
 1312SOL     OW 4321   1.450   3.082   3.495
 1312SOL    HW1 4322   1.441   3.072   3.594
 1312SOL    HW2 4323   1.546   3.075   3.469
 1313SOL     OW 4324   0.390   3.603   3.422
 1313SOL    HW1 4325   0.299   3.644   3.420
 1313SOL    HW2 4326   0.383   3.509   3.454
 1314SOL     OW 4327   1.674   2.745   3.116
 1314SOL    HW1 4328   1.647   2.656   3.079
 1314SOL    HW2 4329   1.675   2.813   3.043
 1315SOL     OW 4330   1.225   2.187   2.311
 1315SOL    HW1 4331   1.290   2.113   2.300
 1315SOL    HW2 4332   1.245   2.237   2.395
 1316SOL     OW 4333   0.594   2.607   2.514
 1316SOL    HW1 4334   0.644   2.692   2.495
 1316SOL    HW2 4335   0.506   2.609   2.466
 1317SOL     OW 4336   1.777   2.204   3.504
 1317SOL    HW1 4337   1.760   2.235   3.410
 1317SOL    HW2 4338   1.693   2.167   3.542
 1318SOL     OW 4339   1.730   2.796   3.379
 1318SOL    HW1 4340   1.768   2.887   3.394
 1318SOL    HW2 4341   1.722   2.779   3.280
 1319SOL     OW 4342   0.859   3.236   1.878
 1319SOL    HW1 4343   0.813   3.251   1.966
 1319SOL    HW2 4344   0.903   3.321   1.848
 1320SOL     OW 4345   0.661   3.652   2.815
 1320SOL    HW1 4346   0.615   3.740   2.802
 1320SOL    HW2 4347   0.760   3.664   2.808
 1321SOL     OW 4348   0.859   2.818   2.723
 1321SOL    HW1 4349   0.913   2.749   2.771
 1321SOL    HW2 4350   0.827   2.887   2.789
 1322SOL     OW 4351   1.083   2.846   1.949
 1322SOL    HW1 4352   1.060   2.899   1.867
 1322SOL    HW2 4353   1.164   2.790   1.930
 1323SOL     OW 4354   1.861   3.431   2.713
 1323SOL    HW1 4355   1.790   3.419   2.643
 1323SOL    HW2 4356   1.862   3.352   2.773
 1324SOL     OW 4357   0.221   3.176   3.706
 1324SOL    HW1 4358   0.156   3.103   3.685
 1324SOL    HW2 4359   0.225   3.190   3.804
 1325SOL     OW 4360   0.079   3.102   2.515
 1325SOL    HW1 4361   0.078   3.055   2.603
 1325SOL    HW2 4362   0.161   3.074   2.464
 1326SOL     OW 4363   0.672   3.253   3.486
 1326SOL    HW1 4364   0.594   3.203   3.524
 1326SOL    HW2 4365   0.669   3.348   3.517
 1327SOL     OW 4366   1.824   2.054   3.089
 1327SOL    HW1 4367   1.820   1.964   3.133
 1327SOL    HW2 4368   1.827   2.043   2.990
 1328SOL     OW 4369   0.428   2.286   2.382
 1328SOL    HW1 4370   0.458   2.214   2.320
 1328SOL    HW2 4371   0.389   2.246   2.465
 1329SOL     OW 4372   1.705   3.349   2.966
 1329SOL    HW1 4373   1.612   3.324   2.939
 1329SOL    HW2 4374   1.731   3.299   3.048
 1330SOL     OW 4375   0.317   2.409   3.142
 1330SOL    HW1 4376   0.355   2.350   3.214
 1330SOL    HW2 4377   0.357   2.383   3.054
 1331SOL     OW 4378   0.812   3.448   2.549
 1331SOL    HW1 4379   0.844   3.458   2.455
 1331SOL    HW2 4380   0.733   3.386   2.551
 1332SOL     OW 4381   1.424   2.076   2.974
 1332SOL    HW1 4382   1.476   2.011   3.029
 1332SOL    HW2 4383   1.375   2.139   3.035
 1333SOL     OW 4384   1.001   1.896   3.016
 1333SOL    HW1 4385   0.938   1.824   2.985
 1333SOL    HW2 4386   1.094   1.860   3.016
 1334SOL     OW 4387   0.770   3.192   2.163
 1334SOL    HW1 4388   0.724   3.105   2.180
 1334SOL    HW2 4389   0.861   3.189   2.204
 1335SOL     OW 4390   0.618   3.429   3.146
 1335SOL    HW1 4391   0.613   3.511   3.203
 1335SOL    HW2 4392   0.707   3.426   3.101
 1336SOL     OW 4393   1.352   1.914   2.030
 1336SOL    HW1 4394   1.387   1.873   1.946
 1336SOL    HW2 4395   1.262   1.876   2.050
 1337SOL     OW 4396   1.300   2.315   2.553
 1337SOL    HW1 4397   1.241   2.395   2.557
 1337SOL    HW2 4398   1.315   2.280   2.646
 1338SOL     OW 4399   1.593   2.083   2.744
 1338SOL    HW1 4400   1.509   2.082   2.798
 1338SOL    HW2 4401   1.595   2.166   2.688
 1339SOL     OW 4402   0.039   2.939   2.162
 1339SOL    HW1 4403   0.138   2.928   2.153
 1339SOL    HW2 4404  -0.001   2.853   2.194
 1340SOL     OW 4405   0.875   3.508   2.199
 1340SOL    HW1 4406   0.798   3.473   2.145
 1340SOL    HW2 4407   0.843   3.579   2.261
 1341SOL     OW 4408   0.230   2.490   3.837
 1341SOL    HW1 4409   0.137   2.488   3.874
 1341SOL    HW2 4410   0.231   2.451   3.745
 1342SOL     OW 4411   0.225   2.137   4.720
 1342SOL    HW1 4412   0.260   2.120   4.812
 1342SOL    HW2 4413   0.137   2.092   4.708
 1343SOL     OW 4414   0.019   2.230   4.371
 1343SOL    HW1 4415  -0.063   2.273   4.410
 1343SOL    HW2 4416  -0.009   2.157   4.308
 1344SOL     OW 4417   0.569   3.137   4.889
 1344SOL    HW1 4418   0.476   3.130   4.852
 1344SOL    HW2 4419   0.580   3.226   4.933
 1345SOL     OW 4420   1.555   3.373   4.427
 1345SOL    HW1 4421   1.498   3.357   4.508
 1345SOL    HW2 4422   1.496   3.383   4.347
 1346SOL     OW 4423   1.135   2.565   4.441
 1346SOL    HW1 4424   1.192   2.643   4.416
 1346SOL    HW2 4425   1.075   2.591   4.517
 1347SOL     OW 4426   1.755   2.469   3.955
 1347SOL    HW1 4427   1.743   2.456   3.856
 1347SOL    HW2 4428   1.725   2.388   4.004
 1348SOL     OW 4429   0.768   3.006   4.747
 1348SOL    HW1 4430   0.690   3.023   4.807
 1348SOL    HW2 4431   0.802   3.093   4.711
 1349SOL     OW 4432   0.850   2.660   5.547
 1349SOL    HW1 4433   0.846   2.736   5.612
 1349SOL    HW2 4434   0.872   2.696   5.456
 1350SOL     OW 4435   0.685   2.874   4.389
 1350SOL    HW1 4436   0.754   2.858   4.459
 1350SOL    HW2 4437   0.612   2.931   4.427
 1351SOL     OW 4438   0.686   3.023   5.527
 1351SOL    HW1 4439   0.746   3.102   5.541
 1351SOL    HW2 4440   0.600   3.054   5.486
 1352SOL     OW 4441   0.335   3.297   4.785
 1352SOL    HW1 4442   0.257   3.266   4.732
 1352SOL    HW2 4443   0.393   3.355   4.728
 1353SOL     OW 4444   1.460   3.367   5.063
 1353SOL    HW1 4445   1.484   3.461   5.089
 1353SOL    HW2 4446   1.444   3.313   5.145
 1354SOL     OW 4447   0.438   2.254   5.223
 1354SOL    HW1 4448   0.520   2.198   5.232
 1354SOL    HW2 4449   0.357   2.196   5.227
 1355SOL     OW 4450   1.603   2.309   4.461
 1355SOL    HW1 4451   1.529   2.355   4.411
 1355SOL    HW2 4452   1.654   2.377   4.514
 1356SOL     OW 4453   0.231   3.575   4.207
 1356SOL    HW1 4454   0.265   3.652   4.261
 1356SOL    HW2 4455   0.275   3.575   4.117
 1357SOL     OW 4456   1.127   3.203   5.414
 1357SOL    HW1 4457   1.174   3.203   5.502
 1357SOL    HW2 4458   1.079   3.116   5.403
 1358SOL     OW 4459   0.230   3.296   4.262
 1358SOL    HW1 4460   0.204   3.392   4.262
 1358SOL    HW2 4461   0.159   3.242   4.307
 1359SOL     OW 4462   0.240   2.953   4.610
 1359SOL    HW1 4463   0.254   2.869   4.662
 1359SOL    HW2 4464   0.185   3.017   4.665
 1360SOL     OW 4465   0.620   3.648   5.163
 1360SOL    HW1 4466   0.528   3.631   5.198
 1360SOL    HW2 4467   0.648   3.740   5.189
 1361SOL     OW 4468   0.606   2.826   3.847
 1361SOL    HW1 4469   0.613   2.910   3.793
 1361SOL    HW2 4470   0.652   2.839   3.935
 1362SOL     OW 4471   1.594   1.976   5.204
 1362SOL    HW1 4472   1.576   2.043   5.132
 1362SOL    HW2 4473   1.591   2.022   5.293
 1363SOL     OW 4474   0.122   2.505   4.287
 1363SOL    HW1 4475   0.077   2.417   4.304
 1363SOL    HW2 4476   0.121   2.559   4.371
 1364SOL     OW 4477   1.842   3.629   4.083
 1364SOL    HW1 4478   1.896   3.600   4.163
 1364SOL    HW2 4479   1.872   3.719   4.054
 1365SOL     OW 4480   0.027   3.458   3.841
 1365SOL    HW1 4481   0.008   3.362   3.862
 1365SOL    HW2 4482  -0.006   3.516   3.916
 1366SOL     OW 4483   1.689   2.784   4.336
 1366SOL    HW1 4484   1.784   2.755   4.344
 1366SOL    HW2 4485   1.681   2.849   4.261
 1367SOL     OW 4486   1.641   2.970   4.156
 1367SOL    HW1 4487   1.727   2.972   4.104
 1367SOL    HW2 4488   1.655   3.017   4.244
 1368SOL     OW 4489   0.113   2.599   5.321
 1368SOL    HW1 4490   0.201   2.586   5.366
 1368SOL    HW2 4491   0.100   2.696   5.299
 1369SOL     OW 4492   0.613   3.227   4.450
 1369SOL    HW1 4493   0.564   3.140   4.459
 1369SOL    HW2 4494   0.590   3.270   4.363
 1370SOL     OW 4495   1.293   3.090   5.147
 1370SOL    HW1 4496   1.330   3.017   5.089
 1370SOL    HW2 4497   1.345   3.095   5.232
 1371SOL     OW 4498   0.809   1.866   4.226
 1371SOL    HW1 4499   0.849   1.957   4.217
 1371SOL    HW2 4500   0.709   1.874   4.232
 1372SOL     OW 4501   0.197   2.838   4.988
 1372SOL    HW1 4502   0.286   2.793   4.974
 1372SOL    HW2 4503   0.124   2.773   4.969
 1373SOL     OW 4504   1.525   2.861   3.914
 1373SOL    HW1 4505   1.462   2.785   3.927
 1373SOL    HW2 4506   1.573   2.879   4.000
 1374SOL     OW 4507   1.187   3.654   5.340
 1374SOL    HW1 4508   1.211   3.714   5.264
 1374SOL    HW2 4509   1.194   3.559   5.310
 1375SOL     OW 4510   0.317   2.113   5.525
 1375SOL    HW1 4511   0.388   2.184   5.531
 1375SOL    HW2 4512   0.229   2.152   5.553
 1376SOL     OW 4513   1.466   3.279   4.677
 1376SOL    HW1 4514   1.407   3.285   4.757
 1376SOL    HW2 4515   1.451   3.191   4.631
 1377SOL     OW 4516   1.667   3.576   4.296
 1377SOL    HW1 4517   1.626   3.553   4.208
 1377SOL    HW2 4518   1.649   3.502   4.361
 1378SOL     OW 4519   0.598   2.591   3.994
 1378SOL    HW1 4520   0.622   2.660   3.926
 1378SOL    HW2 4521   0.520   2.624   4.048
 1379SOL     OW 4522   1.281   2.207   4.668
 1379SOL    HW1 4523   1.195   2.157   4.655
 1379SOL    HW2 4524   1.343   2.153   4.724
 1380SOL     OW 4525   1.576   3.524   4.031
 1380SOL    HW1 4526   1.665   3.570   4.034
 1380SOL    HW2 4527   1.555   3.500   3.936
 1381SOL     OW 4528   0.807   2.467   5.189
 1381SOL    HW1 4529   0.760   2.464   5.278
 1381SOL    HW2 4530   0.756   2.412   5.123
 1382SOL     OW 4531   1.394   2.331   5.398
 1382SOL    HW1 4532   1.374   2.374   5.486
 1382SOL    HW2 4533   1.472   2.269   5.407
 1383SOL     OW 4534   0.973   2.752   5.296
 1383SOL    HW1 4535   1.019   2.668   5.267
 1383SOL    HW2 4536   0.917   2.786   5.221
 1384SOL     OW 4537   0.991   2.272   4.966
 1384SOL    HW1 4538   0.914   2.306   5.020
 1384SOL    HW2 4539   0.957   2.221   4.887
 1385SOL     OW 4540   1.041   2.563   4.153
 1385SOL    HW1 4541   1.067   2.559   4.249
 1385SOL    HW2 4542   0.956   2.512   4.139
 1386SOL     OW 4543   0.076   2.673   4.513
 1386SOL    HW1 4544   0.175   2.661   4.522
 1386SOL    HW2 4545   0.052   2.768   4.534
 1387SOL     OW 4546   0.130   3.683   5.295
 1387SOL    HW1 4547   0.120   3.668   5.394
 1387SOL    HW2 4548   0.044   3.719   5.259
 1388SOL     OW 4549   0.865   2.210   3.919
 1388SOL    HW1 4550   0.924   2.273   3.870
 1388SOL    HW2 4551   0.884   2.116   3.890
 1389SOL     OW 4552   1.719   2.447   5.555
 1389SOL    HW1 4553   1.693   2.536   5.519
 1389SOL    HW2 4554   1.717   2.379   5.482
 1390SOL     OW 4555   1.362   3.006   4.269
 1390SOL    HW1 4556   1.445   2.977   4.221
 1390SOL    HW2 4557   1.313   3.073   4.213
 1391SOL     OW 4558   0.550   2.058   4.609
 1391SOL    HW1 4559   0.545   2.053   4.709
 1391SOL    HW2 4560   0.552   2.154   4.580
 1392SOL     OW 4561   1.008   3.318   4.201
 1392SOL    HW1 4562   0.962   3.390   4.149
 1392SOL    HW2 4563   1.004   3.338   4.299
 1393SOL     OW 4564   0.351   3.663   4.577
 1393SOL    HW1 4565   0.401   3.577   4.583
 1393SOL    HW2 4566   0.416   3.740   4.574
 1394SOL     OW 4567   1.795   2.928   4.597
 1394SOL    HW1 4568   1.733   2.913   4.521
 1394SOL    HW2 4569   1.743   2.939   4.682
 1395SOL     OW 4570   1.227   3.412   5.230
 1395SOL    HW1 4571   1.233   3.335   5.294
 1395SOL    HW2 4572   1.175   3.386   5.150
 1396SOL     OW 4573   0.321   2.805   3.966
 1396SOL    HW1 4574   0.403   2.844   3.924
 1396SOL    HW2 4575   0.294   2.723   3.917
 1397SOL     OW 4576   1.458   2.597   4.452
 1397SOL    HW1 4577   1.453   2.532   4.527
 1397SOL    HW2 4578   1.538   2.656   4.465
 1398SOL     OW 4579   0.461   3.128   5.451
 1398SOL    HW1 4580   0.411   3.129   5.365
 1398SOL    HW2 4581   0.398   3.110   5.527
 1399SOL     OW 4582   1.111   3.638   3.961
 1399SOL    HW1 4583   1.051   3.576   4.011
 1399SOL    HW2 4584   1.142   3.594   3.876
 1400SOL     OW 4585   0.202   2.147   5.222
 1400SOL    HW1 4586   0.122   2.207   5.209
 1400SOL    HW2 4587   0.192   2.098   5.308
 1401SOL     OW 4588   1.632   3.239   3.805
 1401SOL    HW1 4589   1.600   3.333   3.795
 1401SOL    HW2 4590   1.556   3.176   3.793
 1402SOL     OW 4591   0.464   3.605   4.047
 1402SOL    HW1 4592   0.497   3.644   4.133
 1402SOL    HW2 4593   0.540   3.598   3.982
 1403SOL     OW 4594   1.400   1.969   4.150
 1403SOL    HW1 4595   1.376   1.932   4.060
 1403SOL    HW2 4596   1.499   1.985   4.154
 1404SOL     OW 4597   0.249   3.647   4.965
 1404SOL    HW1 4598   0.306   3.582   5.015
 1404SOL    HW2 4599   0.233   3.614   4.872
 1405SOL     OW 4600   0.940   3.560   4.628
 1405SOL    HW1 4601   1.020   3.503   4.649
 1405SOL    HW2 4602   0.891   3.520   4.551
 1406SOL     OW 4603   0.382   2.562   4.204
 1406SOL    HW1 4604   0.427   2.472   4.201
 1406SOL    HW2 4605   0.288   2.551   4.237
 1407SOL     OW 4606   1.547   2.084   5.453
 1407SOL    HW1 4607   1.542   2.121   5.545
 1407SOL    HW2 4608   1.475   2.015   5.441
 1408SOL     OW 4609   0.614   1.984   3.841
 1408SOL    HW1 4610   0.712   1.962   3.848
 1408SOL    HW2 4611   0.583   1.967   3.748
 1409SOL     OW 4612   0.781   2.126   5.473
 1409SOL    HW1 4613   0.848   2.065   5.516
 1409SOL    HW2 4614   0.708   2.145   5.538
 1410SOL     OW 4615   0.888   3.376   4.919
 1410SOL    HW1 4616   0.865   3.351   4.825
 1410SOL    HW2 4617   0.949   3.307   4.958
 1411SOL     OW 4618   1.351   2.452   5.157
 1411SOL    HW1 4619   1.379   2.409   5.242
 1411SOL    HW2 4620   1.376   2.548   5.158
 1412SOL     OW 4621   0.803   3.264   4.648
 1412SOL    HW1 4622   0.893   3.278   4.606
 1412SOL    HW2 4623   0.732   3.266   4.577
 1413SOL     OW 4624   0.922   2.365   4.623
 1413SOL    HW1 4625   0.897   2.356   4.527
 1413SOL    HW2 4626   0.970   2.283   4.654
 1414SOL     OW 4627   0.539   1.926   4.236
 1414SOL    HW1 4628   0.458   1.927   4.294
 1414SOL    HW2 4629   0.542   2.009   4.181
 1415SOL     OW 4630   1.434   3.050   3.765
 1415SOL    HW1 4631   1.466   2.974   3.822
 1415SOL    HW2 4632   1.342   3.077   3.795
 1416SOL     OW 4633   0.297   1.897   3.895
 1416SOL    HW1 4634   0.346   1.981   3.874
 1416SOL    HW2 4635   0.359   1.832   3.940
 1417SOL     OW 4636   0.935   2.098   4.204
 1417SOL    HW1 4637   0.887   2.139   4.126
 1417SOL    HW2 4638   1.034   2.096   4.185
 1418SOL     OW 4639   1.076   2.545   5.188
 1418SOL    HW1 4640   0.996   2.484   5.191
 1418SOL    HW2 4641   1.157   2.492   5.164
 1419SOL     OW 4642   1.227   3.432   4.517
 1419SOL    HW1 4643   1.248   3.506   4.452
 1419SOL    HW2 4644   1.295   3.432   4.590
 1420SOL     OW 4645   0.459   3.014   4.465
 1420SOL    HW1 4646   0.388   2.987   4.530
 1420SOL    HW2 4647   0.433   2.986   4.372
 1421SOL     OW 4648   1.271   3.659   4.315
 1421SOL    HW1 4649   1.315   3.723   4.251
 1421SOL    HW2 4650   1.221   3.711   4.385
 1422SOL     OW 4651   1.032   2.411   3.740
 1422SOL    HW1 4652   0.991   2.493   3.701
 1422SOL    HW2 4653   1.096   2.437   3.813
 1423SOL     OW 4654   0.078   2.418   5.110
 1423SOL    HW1 4655   0.170   2.417   5.069
 1423SOL    HW2 4656   0.072   2.492   5.177
 1424SOL     OW 4657   0.561   2.084   4.871
 1424SOL    HW1 4658   0.599   2.000   4.908
 1424SOL    HW2 4659   0.473   2.103   4.915
 1425SOL     OW 4660   0.866   2.316   4.366
 1425SOL    HW1 4661   0.834   2.388   4.304
 1425SOL    HW2 4662   0.890   2.235   4.313
 1426SOL     OW 4663   1.017   1.901   4.477
 1426SOL    HW1 4664   0.945   1.906   4.408
 1426SOL    HW2 4665   0.993   1.832   4.546
 1427SOL     OW 4666   1.429   3.035   4.591
 1427SOL    HW1 4667   1.374   2.951   4.584
 1427SOL    HW2 4668   1.455   3.064   4.499
 1428SOL     OW 4669   1.466   2.452   4.716
 1428SOL    HW1 4670   1.436   2.357   4.723
 1428SOL    HW2 4671   1.539   2.468   4.782
 1429SOL     OW 4672   1.857   2.695   4.101
 1429SOL    HW1 4673   1.899   2.631   4.165
 1429SOL    HW2 4674   1.819   2.644   4.023
 1430SOL     OW 4675   0.488   3.247   3.898
 1430SOL    HW1 4676   0.401   3.232   3.945
 1430SOL    HW2 4677   0.471   3.273   3.803
 1431SOL     OW 4678   1.664   3.142   4.381
 1431SOL    HW1 4679   1.763   3.150   4.395
 1431SOL    HW2 4680   1.619   3.226   4.412
 1432SOL     OW 4681   1.390   2.437   3.802
 1432SOL    HW1 4682   1.336   2.416   3.883
 1432SOL    HW2 4683   1.481   2.396   3.811
 1433SOL     OW 4684   0.527   2.118   4.052
 1433SOL    HW1 4685   0.554   2.059   3.977
 1433SOL    HW2 4686   0.527   2.213   4.021
 1434SOL     OW 4687   1.754   3.085   5.312
 1434SOL    HW1 4688   1.845   3.046   5.299
 1434SOL    HW2 4689   1.762   3.181   5.336
 1435SOL     OW 4690   1.064   3.209   5.064
 1435SOL    HW1 4691   0.984   3.186   5.119
 1435SOL    HW2 4692   1.147   3.183   5.113
 1436SOL     OW 4693   1.592   3.491   5.349
 1436SOL    HW1 4694   1.619   3.525   5.259
 1436SOL    HW2 4695   1.671   3.453   5.395
 1437SOL     OW 4696   1.111   3.057   4.824
 1437SOL    HW1 4697   1.071   3.101   4.905
 1437SOL    HW2 4698   1.070   3.094   4.741
 1438SOL     OW 4699   1.638   2.961   4.803
 1438SOL    HW1 4700   1.643   3.042   4.862
 1438SOL    HW2 4701   1.552   2.963   4.752
 1439SOL     OW 4702   0.915   1.951   5.126
 1439SOL    HW1 4703   0.940   1.931   5.031
 1439SOL    HW2 4704   0.987   2.007   5.168
 1440SOL     OW 4705   0.980   2.978   5.443
 1440SOL    HW1 4706   0.881   2.984   5.453
 1440SOL    HW2 4707   1.003   2.898   5.387
 1441SOL     OW 4708   0.705   2.912   4.092
 1441SOL    HW1 4709   0.691   2.919   4.191
 1441SOL    HW2 4710   0.789   2.861   4.074
 1442SOL     OW 4711   0.410   2.675   4.975
 1442SOL    HW1 4712   0.496   2.687   5.025
 1442SOL    HW2 4713   0.368   2.588   5.002
 1443SOL     OW 4714   1.274   2.248   4.986
 1443SOL    HW1 4715   1.295   2.322   5.050
 1443SOL    HW2 4716   1.185   2.265   4.943
 1444SOL     OW 4717   0.064   3.426   5.055
 1444SOL    HW1 4718   0.018   3.508   5.021
 1444SOL    HW2 4719   0.162   3.445   5.064
 1445SOL     OW 4720   0.367   2.962   4.225
 1445SOL    HW1 4721   0.360   3.045   4.169
 1445SOL    HW2 4722   0.371   2.882   4.165
 1446SOL     OW 4723   0.566   2.399   4.589
 1446SOL    HW1 4724   0.578   2.465   4.515
 1446SOL    HW2 4725   0.612   2.433   4.672
 1447SOL     OW 4726   1.252   3.210   4.112
 1447SOL    HW1 4727   1.302   3.287   4.152
 1447SOL    HW2 4728   1.157   3.212   4.144
 1448SOL     OW 4729   1.272   3.307   4.866
 1448SOL    HW1 4730   1.319   3.320   4.953
 1448SOL    HW2 4731   1.206   3.233   4.875
 1449SOL     OW 4732   1.582   2.501   4.196
 1449SOL    HW1 4733   1.551   2.562   4.269
 1449SOL    HW2 4734   1.632   2.553   4.127
 1450SOL     OW 4735   0.354   3.372   5.053
 1450SOL    HW1 4736   0.333   3.328   4.966
 1450SOL    HW2 4737   0.451   3.398   5.056
 1451SOL     OW 4738   0.402   2.613   5.322
 1451SOL    HW1 4739   0.470   2.668   5.275
 1451SOL    HW2 4740   0.442   2.525   5.349
 1452SOL     OW 4741   1.587   2.641   5.394
 1452SOL    HW1 4742   1.495   2.679   5.389
 1452SOL    HW2 4743   1.647   2.688   5.329
 1453SOL     OW 4744   1.013   1.967   5.494
 1453SOL    HW1 4745   1.019   2.052   5.442
 1453SOL    HW2 4746   1.045   1.891   5.437
 1454SOL     OW 4747   0.504   1.912   5.464
 1454SOL    HW1 4748   0.462   1.855   5.394
 1454SOL    HW2 4749   0.438   1.981   5.496
 1455SOL     OW 4750   0.573   2.732   4.753
 1455SOL    HW1 4751   0.617   2.821   4.744
 1455SOL    HW2 4752   0.510   2.732   4.830
 1456SOL     OW 4753   1.360   2.724   4.769
 1456SOL    HW1 4754   1.285   2.724   4.703
 1456SOL    HW2 4755   1.397   2.632   4.778
 1457SOL     OW 4756   1.209   2.387   3.999
 1457SOL    HW1 4757   1.222   2.303   4.053
 1457SOL    HW2 4758   1.180   2.461   4.059
 1458SOL     OW 4759   0.307   2.075   4.955
 1458SOL    HW1 4760   0.284   2.112   5.045
 1458SOL    HW2 4761   0.277   1.980   4.949
 1459SOL     OW 4762   0.037   3.172   5.006
 1459SOL    HW1 4763   0.090   3.123   5.074
 1459SOL    HW2 4764   0.059   3.270   5.011
 1460SOL     OW 4765   0.732   2.496   4.788
 1460SOL    HW1 4766   0.791   2.470   4.712
 1460SOL    HW2 4767   0.704   2.592   4.777
 1461SOL     OW 4768   1.728   2.797   5.578
 1461SOL    HW1 4769   1.682   2.790   5.489
 1461SOL    HW2 4770   1.666   2.841   5.644
 1462SOL     OW 4771   0.307   1.925   4.342
 1462SOL    HW1 4772   0.296   2.019   4.375
 1462SOL    HW2 4773   0.302   1.862   4.419
 1463SOL     OW 4774   1.622   2.229   4.098
 1463SOL    HW1 4775   1.624   2.153   4.162
 1463SOL    HW2 4776   1.574   2.306   4.138
 1464SOL     OW 4777   1.023   2.628   4.690
 1464SOL    HW1 4778   1.038   2.649   4.786
 1464SOL    HW2 4779   0.993   2.533   4.681
 1465SOL     OW 4780   0.980   3.435   5.424
 1465SOL    HW1 4781   0.960   3.479   5.336
 1465SOL    HW2 4782   1.019   3.344   5.408
 1466SOL     OW 4783   1.859   3.380   5.329
 1466SOL    HW1 4784   1.873   3.407   5.234
 1466SOL    HW2 4785   1.942   3.402   5.382
 1467SOL     OW 4786   0.350   2.760   5.528
 1467SOL    HW1 4787   0.426   2.804   5.576
 1467SOL    HW2 4788   0.385   2.713   5.446
 1468SOL     OW 4789   1.540   2.136   3.849
 1468SOL    HW1 4790   1.479   2.061   3.872
 1468SOL    HW2 4791   1.562   2.188   3.932
 1469SOL     OW 4792   1.303   2.700   3.766
 1469SOL    HW1 4793   1.337   2.607   3.781
 1469SOL    HW2 4794   1.321   2.727   3.671
 1470SOL     OW 4795   1.068   3.195   4.573
 1470SOL    HW1 4796   1.075   3.111   4.518
 1470SOL    HW2 4797   1.130   3.264   4.537
 1471SOL     OW 4798   0.319   2.672   4.673
 1471SOL    HW1 4799   0.412   2.708   4.678
 1471SOL    HW2 4800   0.313   2.587   4.725
 1472SOL     OW 4801   0.339   2.371   4.730
 1472SOL    HW1 4802   0.287   2.288   4.713
 1472SOL    HW2 4803   0.416   2.376   4.666
 1473SOL     OW 4804   1.138   2.242   5.402
 1473SOL    HW1 4805   1.093   2.305   5.466
 1473SOL    HW2 4806   1.231   2.273   5.385
 1474SOL     OW 4807   1.160   2.069   5.201
 1474SOL    HW1 4808   1.160   2.133   5.278
 1474SOL    HW2 4809   1.188   2.117   5.118
 1475SOL     OW 4810   0.008   3.188   3.924
 1475SOL    HW1 4811  -0.085   3.209   3.893
 1475SOL    HW2 4812   0.018   3.089   3.937
 1476SOL     OW 4813   0.088   3.663   4.651
 1476SOL    HW1 4814   0.046   3.577   4.624
 1476SOL    HW2 4815   0.182   3.666   4.617
 1477SOL     OW 4816   0.504   3.430   4.634
 1477SOL    HW1 4817   0.570   3.504   4.643
 1477SOL    HW2 4818   0.548   3.351   4.592
 1478SOL     OW 4819   1.002   2.658   4.962
 1478SOL    HW1 4820   1.043   2.626   5.048
 1478SOL    HW2 4821   0.906   2.631   4.959
 1479SOL     OW 4822   0.040   2.406   4.838
 1479SOL    HW1 4823   0.125   2.373   4.797
 1479SOL    HW2 4824   0.053   2.421   4.936
 1480SOL     OW 4825   0.189   2.382   5.446
 1480SOL    HW1 4826   0.248   2.342   5.376
 1480SOL    HW2 4827   0.131   2.453   5.405
 1481SOL     OW 4828   1.369   2.812   5.384
 1481SOL    HW1 4829   1.408   2.901   5.404
 1481SOL    HW2 4830   1.379   2.792   5.287
 1482SOL     OW 4831   0.815   2.434   4.049
 1482SOL    HW1 4832   0.822   2.345   4.003
 1482SOL    HW2 4833   0.721   2.468   4.041
 1483SOL     OW 4834   1.657   2.466   4.930
 1483SOL    HW1 4835   1.619   2.397   4.992
 1483SOL    HW2 4836   1.739   2.430   4.886
 1484SOL     OW 4837   0.252   3.426   5.468
 1484SOL    HW1 4838   0.222   3.483   5.544
 1484SOL    HW2 4839   0.245   3.329   5.494
 1485SOL     OW 4840   0.671   2.326   4.993
 1485SOL    HW1 4841   0.637   2.237   4.963
 1485SOL    HW2 4842   0.697   2.380   4.913
 1486SOL     OW 4843   0.930   3.540   5.189
 1486SOL    HW1 4844   0.906   3.522   5.094
 1486SOL    HW2 4845   0.960   3.634   5.199
 1487SOL     OW 4846   0.473   2.362   3.915
 1487SOL    HW1 4847   0.534   2.442   3.919
 1487SOL    HW2 4848   0.378   2.393   3.922
 1488SOL     OW 4849   0.159   2.999   5.190
 1488SOL    HW1 4850   0.181   2.938   5.266
 1488SOL    HW2 4851   0.169   2.950   5.104
 1489SOL     OW 4852   1.347   2.921   4.958
 1489SOL    HW1 4853   1.371   2.858   4.884
 1489SOL    HW2 4854   1.257   2.961   4.940
 1490SOL     OW 4855   1.302   2.717   4.033
 1490SOL    HW1 4856   1.216   2.686   4.075
 1490SOL    HW2 4857   1.298   2.703   3.934
 1491SOL     OW 4858   1.759   3.609   4.878
 1491SOL    HW1 4859   1.820   3.639   4.805
 1491SOL    HW2 4860   1.721   3.520   4.856
 1492SOL     OW 4861   1.252   3.593   4.852
 1492SOL    HW1 4862   1.336   3.598   4.798
 1492SOL    HW2 4863   1.229   3.497   4.870
 1493SOL     OW 4864   0.083   3.120   4.746
 1493SOL    HW1 4865   0.078   3.119   4.846
 1493SOL    HW2 4866   0.000   3.079   4.708
 1494SOL     OW 4867   0.688   3.524   5.440
 1494SOL    HW1 4868   0.632   3.605   5.449
 1494SOL    HW2 4869   0.740   3.528   5.354
 1495SOL     OW 4870   1.726   1.997   4.247
 1495SOL    HW1 4871   1.799   1.980   4.180
 1495SOL    HW2 4872   1.695   1.910   4.285
 1496SOL     OW 4873   1.388   3.435   4.201
 1496SOL    HW1 4874   1.455   3.447   4.127
 1496SOL    HW2 4875   1.348   3.524   4.224
 1497SOL     OW 4876   0.130   3.656   5.575
 1497SOL    HW1 4877   0.089   3.582   5.628
 1497SOL    HW2 4878   0.194   3.707   5.633
 1498SOL     OW 4879   1.280   2.789   4.396
 1498SOL    HW1 4880   1.340   2.708   4.398
 1498SOL    HW2 4881   1.320   2.858   4.336
 1499SOL     OW 4882   0.830   3.135   5.146
 1499SOL    HW1 4883   0.825   3.168   5.241
 1499SOL    HW2 4884   0.744   3.154   5.100
 1500SOL     OW 4885   0.672   3.478   3.878
 1500SOL    HW1 4886   0.681   3.488   3.779
 1500SOL    HW2 4887   0.632   3.389   3.899
 1501SOL     OW 4888   1.650   3.582   5.118
 1501SOL    HW1 4889   1.703   3.592   5.034
 1501SOL    HW2 4890   1.623   3.672   5.152
 1502SOL     OW 4891   1.841   2.037   4.687
 1502SOL    HW1 4892   1.880   1.952   4.651
 1502SOL    HW2 4893   1.743   2.039   4.668
 1503SOL     OW 4894   0.263   2.188   4.444
 1503SOL    HW1 4895   0.184   2.239   4.410
 1503SOL    HW2 4896   0.254   2.173   4.542
 1504SOL     OW 4897   1.194   3.474   3.755
 1504SOL    HW1 4898   1.200   3.381   3.792
 1504SOL    HW2 4899   1.135   3.474   3.675
 1505SOL     OW 4900   0.822   2.864   5.096
 1505SOL    HW1 4901   0.862   2.863   5.004
 1505SOL    HW2 4902   0.832   2.956   5.136
 1506SOL     OW 4903   0.916   2.772   4.015
 1506SOL    HW1 4904   0.979   2.810   3.947
 1506SOL    HW2 4905   0.956   2.689   4.054
 1507SOL     OW 4906   1.504   3.469   3.768
 1507SOL    HW1 4907   1.412   3.506   3.775
 1507SOL    HW2 4908   1.542   3.489   3.678
 1508SOL     OW 4909   0.372   3.150   5.214
 1508SOL    HW1 4910   0.359   3.243   5.180
 1508SOL    HW2 4911   0.288   3.098   5.201
 1509SOL     OW 4912   1.614   3.154   5.013
 1509SOL    HW1 4913   1.674   3.157   5.093
 1509SOL    HW2 4914   1.539   3.218   5.026
 1510SOL     OW 4915   1.039   2.960   4.420
 1510SOL    HW1 4916   0.969   2.913   4.474
 1510SOL    HW2 4917   1.098   2.892   4.377
 1511SOL     OW 4918   1.014   2.098   4.695
 1511SOL    HW1 4919   1.006   2.062   4.602
 1511SOL    HW2 4920   1.012   2.022   4.760
 1512SOL     OW 4921   0.590   3.349   4.215
 1512SOL    HW1 4922   0.632   3.291   4.145
 1512SOL    HW2 4923   0.546   3.428   4.171
 1513SOL     OW 4924   1.709   2.247   5.105
 1513SOL    HW1 4925   1.782   2.316   5.109
 1513SOL    HW2 4926   1.737   2.172   5.046
 1514SOL     OW 4927   0.255   3.210   4.014
 1514SOL    HW1 4928   0.159   3.211   3.987
 1514SOL    HW2 4929   0.267   3.263   4.098
 1515SOL     OW 4930   0.105   2.875   5.450
 1515SOL    HW1 4931   0.028   2.842   5.504
 1515SOL    HW2 4932   0.190   2.845   5.492
 1516SOL     OW 4933   0.672   2.065   5.213
 1516SOL    HW1 4934   0.762   2.049   5.173
 1516SOL    HW2 4935   0.680   2.070   5.312
 1517SOL     OW 4936   0.075   2.207   3.757
 1517SOL    HW1 4937  -0.017   2.179   3.728
 1517SOL    HW2 4938   0.106   2.284   3.701
 1518SOL     OW 4939   1.440   2.718   5.122
 1518SOL    HW1 4940   1.383   2.770   5.059
 1518SOL    HW2 4941   1.536   2.730   5.098
 1519SOL     OW 4942   0.072   2.028   4.042
 1519SOL    HW1 4943   0.055   2.111   3.988
 1519SOL    HW2 4944   0.162   1.991   4.020
 1520SOL     OW 4945   1.183   3.197   3.843
 1520SOL    HW1 4946   1.084   3.186   3.845
 1520SOL    HW2 4947   1.217   3.212   3.936
 1521SOL     OW 4948   0.613   2.704   5.155
 1521SOL    HW1 4949   0.669   2.785   5.138
 1521SOL    HW2 4950   0.672   2.624   5.158
 1522SOL     OW 4951   1.493   3.629   4.683
 1522SOL    HW1 4952   1.526   3.693   4.614
 1522SOL    HW2 4953   1.559   3.623   4.758
 1523SOL     OW 4954   0.716   2.427   5.432
 1523SOL    HW1 4955   0.735   2.492   5.506
 1523SOL    HW2 4956   0.776   2.347   5.441
 1524SOL     OW 4957   1.450   3.082   5.357
 1524SOL    HW1 4958   1.441   3.072   5.456
 1524SOL    HW2 4959   1.546   3.075   5.331
 1525SOL     OW 4960   0.390   3.603   5.284
 1525SOL    HW1 4961   0.299   3.644   5.282
 1525SOL    HW2 4962   0.383   3.509   5.316
 1526SOL     OW 4963   1.674   2.745   4.978
 1526SOL    HW1 4964   1.647   2.656   4.941
 1526SOL    HW2 4965   1.675   2.813   4.905
 1527SOL     OW 4966   1.225   2.187   4.173
 1527SOL    HW1 4967   1.290   2.113   4.162
 1527SOL    HW2 4968   1.245   2.237   4.257
 1528SOL     OW 4969   0.594   2.607   4.376
 1528SOL    HW1 4970   0.644   2.692   4.357
 1528SOL    HW2 4971   0.506   2.609   4.328
 1529SOL     OW 4972   1.777   2.204   5.366
 1529SOL    HW1 4973   1.760   2.235   5.272
 1529SOL    HW2 4974   1.693   2.167   5.404
 1530SOL     OW 4975   1.730   2.796   5.241
 1530SOL    HW1 4976   1.768   2.887   5.256
 1530SOL    HW2 4977   1.722   2.779   5.142
 1531SOL     OW 4978   0.859   3.236   3.740
 1531SOL    HW1 4979   0.813   3.251   3.828
 1531SOL    HW2 4980   0.903   3.321   3.710
 1532SOL     OW 4981   0.661   3.652   4.677
 1532SOL    HW1 4982   0.615   3.740   4.664
 1532SOL    HW2 4983   0.760   3.664   4.670
 1533SOL     OW 4984   0.859   2.818   4.585
 1533SOL    HW1 4985   0.913   2.749   4.633
 1533SOL    HW2 4986   0.827   2.887   4.651
 1534SOL     OW 4987   1.083   2.846   3.811
 1534SOL    HW1 4988   1.060   2.899   3.729
 1534SOL    HW2 4989   1.164   2.790   3.792
 1535SOL     OW 4990   1.861   3.431   4.575
 1535SOL    HW1 4991   1.790   3.419   4.505
 1535SOL    HW2 4992   1.862   3.352   4.635
 1536SOL     OW 4993   0.221   3.176   5.568
 1536SOL    HW1 4994   0.156   3.103   5.547
 1536SOL    HW2 4995   0.225   3.190   5.666
 1537SOL     OW 4996   0.079   3.102   4.377
 1537SOL    HW1 4997   0.078   3.055   4.465
 1537SOL    HW2 4998   0.161   3.074   4.326
 1538SOL     OW 4999   0.672   3.253   5.348
 1538SOL    HW1 5000   0.594   3.203   5.386
 1538SOL    HW2 5001   0.669   3.348   5.379
 1539SOL     OW 5002   1.824   2.054   4.951
 1539SOL    HW1 5003   1.820   1.964   4.995
 1539SOL    HW2 5004   1.827   2.043   4.852
 1540SOL     OW 5005   0.428   2.286   4.244
 1540SOL    HW1 5006   0.458   2.214   4.182
 1540SOL    HW2 5007   0.389   2.246   4.327
 1541SOL     OW 5008   1.705   3.349   4.828
 1541SOL    HW1 5009   1.612   3.324   4.801
 1541SOL    HW2 5010   1.731   3.299   4.910
 1542SOL     OW 5011   0.317   2.409   5.004
 1542SOL    HW1 5012   0.355   2.350   5.076
 1542SOL    HW2 5013   0.357   2.383   4.916
 1543SOL     OW 5014   0.812   3.448   4.411
 1543SOL    HW1 5015   0.844   3.458   4.317
 1543SOL    HW2 5016   0.733   3.386   4.413
 1544SOL     OW 5017   1.424   2.076   4.836
 1544SOL    HW1 5018   1.476   2.011   4.891
 1544SOL    HW2 5019   1.375   2.139   4.897
 1545SOL     OW 5020   1.001   1.896   4.878
 1545SOL    HW1 5021   0.938   1.824   4.847
 1545SOL    HW2 5022   1.094   1.860   4.878
 1546SOL     OW 5023   0.770   3.192   4.025
 1546SOL    HW1 5024   0.724   3.105   4.042
 1546SOL    HW2 5025   0.861   3.189   4.066
 1547SOL     OW 5026   0.618   3.429   5.008
 1547SOL    HW1 5027   0.613   3.511   5.065
 1547SOL    HW2 5028   0.707   3.426   4.963
 1548SOL     OW 5029   1.352   1.914   3.892
 1548SOL    HW1 5030   1.387   1.873   3.808
 1548SOL    HW2 5031   1.262   1.876   3.912
 1549SOL     OW 5032   1.300   2.315   4.415
 1549SOL    HW1 5033   1.241   2.395   4.419
 1549SOL    HW2 5034   1.315   2.280   4.508
 1550SOL     OW 5035   1.593   2.083   4.606
 1550SOL    HW1 5036   1.509   2.082   4.660
 1550SOL    HW2 5037   1.595   2.166   4.550
 1551SOL     OW 5038   0.039   2.939   4.024
 1551SOL    HW1 5039   0.138   2.928   4.015
 1551SOL    HW2 5040  -0.001   2.853   4.056
 1552SOL     OW 5041   0.875   3.508   4.061
 1552SOL    HW1 5042   0.798   3.473   4.007
 1552SOL    HW2 5043   0.843   3.579   4.123
 1553SOL     OW 5044   0.230   2.490   5.699
 1553SOL    HW1 5045   0.137   2.488   5.736
 1553SOL    HW2 5046   0.231   2.451   5.607
 1554SOL     OW 5047   0.225   2.137   6.582
 1554SOL    HW1 5048   0.260   2.120   6.674
 1554SOL    HW2 5049   0.137   2.092   6.570
 1555SOL     OW 5050   0.019   2.230   6.233
 1555SOL    HW1 5051  -0.063   2.273   6.272
 1555SOL    HW2 5052  -0.009   2.157   6.170
 1556SOL     OW 5053   0.569   3.137   6.751
 1556SOL    HW1 5054   0.476   3.130   6.714
 1556SOL    HW2 5055   0.580   3.226   6.795
 1557SOL     OW 5056   1.555   3.373   6.289
 1557SOL    HW1 5057   1.498   3.357   6.370
 1557SOL    HW2 5058   1.496   3.383   6.209
 1558SOL     OW 5059   1.135   2.565   6.303
 1558SOL    HW1 5060   1.192   2.643   6.278
 1558SOL    HW2 5061   1.075   2.591   6.379
 1559SOL     OW 5062   1.755   2.469   5.817
 1559SOL    HW1 5063   1.743   2.456   5.718
 1559SOL    HW2 5064   1.725   2.388   5.866
 1560SOL     OW 5065   0.768   3.006   6.609
 1560SOL    HW1 5066   0.690   3.023   6.669
 1560SOL    HW2 5067   0.802   3.093   6.573
 1561SOL     OW 5068   0.850   2.660   7.409
 1561SOL    HW1 5069   0.846   2.736   7.474
 1561SOL    HW2 5070   0.872   2.696   7.318
 1562SOL     OW 5071   0.685   2.874   6.251
 1562SOL    HW1 5072   0.754   2.858   6.321
 1562SOL    HW2 5073   0.612   2.931   6.289
 1563SOL     OW 5074   0.686   3.023   7.389
 1563SOL    HW1 5075   0.746   3.102   7.403
 1563SOL    HW2 5076   0.600   3.054   7.348
 1564SOL     OW 5077   0.335   3.297   6.647
 1564SOL    HW1 5078   0.257   3.266   6.594
 1564SOL    HW2 5079   0.393   3.355   6.590
 1565SOL     OW 5080   1.460   3.367   6.925
 1565SOL    HW1 5081   1.484   3.461   6.951
 1565SOL    HW2 5082   1.444   3.313   7.007
 1566SOL     OW 5083   0.438   2.254   7.085
 1566SOL    HW1 5084   0.520   2.198   7.094
 1566SOL    HW2 5085   0.357   2.196   7.089
 1567SOL     OW 5086   1.603   2.309   6.323
 1567SOL    HW1 5087   1.529   2.355   6.273
 1567SOL    HW2 5088   1.654   2.377   6.376
 1568SOL     OW 5089   0.231   3.575   6.069
 1568SOL    HW1 5090   0.265   3.652   6.123
 1568SOL    HW2 5091   0.275   3.575   5.979
 1569SOL     OW 5092   1.127   3.203   7.276
 1569SOL    HW1 5093   1.174   3.203   7.364
 1569SOL    HW2 5094   1.079   3.116   7.265
 1570SOL     OW 5095   0.230   3.296   6.124
 1570SOL    HW1 5096   0.204   3.392   6.124
 1570SOL    HW2 5097   0.159   3.242   6.169
 1571SOL     OW 5098   0.240   2.953   6.472
 1571SOL    HW1 5099   0.254   2.869   6.524
 1571SOL    HW2 5100   0.185   3.017   6.527
 1572SOL     OW 5101   0.620   3.648   7.025
 1572SOL    HW1 5102   0.528   3.631   7.060
 1572SOL    HW2 5103   0.648   3.740   7.051
 1573SOL     OW 5104   0.606   2.826   5.709
 1573SOL    HW1 5105   0.613   2.910   5.655
 1573SOL    HW2 5106   0.652   2.839   5.797
 1574SOL     OW 5107   1.594   1.976   7.066
 1574SOL    HW1 5108   1.576   2.043   6.994
 1574SOL    HW2 5109   1.591   2.022   7.155
 1575SOL     OW 5110   0.122   2.505   6.149
 1575SOL    HW1 5111   0.077   2.417   6.166
 1575SOL    HW2 5112   0.121   2.559   6.233
 1576SOL     OW 5113   1.842   3.629   5.945
 1576SOL    HW1 5114   1.896   3.600   6.025
 1576SOL    HW2 5115   1.872   3.719   5.916
 1577SOL     OW 5116   0.027   3.458   5.703
 1577SOL    HW1 5117   0.008   3.362   5.724
 1577SOL    HW2 5118  -0.006   3.516   5.778
 1578SOL     OW 5119   1.689   2.784   6.198
 1578SOL    HW1 5120   1.784   2.755   6.206
 1578SOL    HW2 5121   1.681   2.849   6.123
 1579SOL     OW 5122   1.641   2.970   6.018
 1579SOL    HW1 5123   1.727   2.972   5.966
 1579SOL    HW2 5124   1.655   3.017   6.106
 1580SOL     OW 5125   0.113   2.599   7.183
 1580SOL    HW1 5126   0.201   2.586   7.228
 1580SOL    HW2 5127   0.100   2.696   7.161
 1581SOL     OW 5128   0.613   3.227   6.312
 1581SOL    HW1 5129   0.564   3.140   6.321
 1581SOL    HW2 5130   0.590   3.270   6.225
 1582SOL     OW 5131   1.293   3.090   7.009
 1582SOL    HW1 5132   1.330   3.017   6.951
 1582SOL    HW2 5133   1.345   3.095   7.094
 1583SOL     OW 5134   0.809   1.866   6.088
 1583SOL    HW1 5135   0.849   1.957   6.079
 1583SOL    HW2 5136   0.709   1.874   6.094
 1584SOL     OW 5137   0.197   2.838   6.850
 1584SOL    HW1 5138   0.286   2.793   6.836
 1584SOL    HW2 5139   0.124   2.773   6.831
 1585SOL     OW 5140   1.525   2.861   5.776
 1585SOL    HW1 5141   1.462   2.785   5.789
 1585SOL    HW2 5142   1.573   2.879   5.862
 1586SOL     OW 5143   1.187   3.654   7.202
 1586SOL    HW1 5144   1.211   3.714   7.126
 1586SOL    HW2 5145   1.194   3.559   7.172
 1587SOL     OW 5146   0.317   2.113   7.387
 1587SOL    HW1 5147   0.388   2.184   7.393
 1587SOL    HW2 5148   0.229   2.152   7.415
 1588SOL     OW 5149   1.466   3.279   6.539
 1588SOL    HW1 5150   1.407   3.285   6.619
 1588SOL    HW2 5151   1.451   3.191   6.493
 1589SOL     OW 5152   1.667   3.576   6.158
 1589SOL    HW1 5153   1.626   3.553   6.070
 1589SOL    HW2 5154   1.649   3.502   6.223
 1590SOL     OW 5155   0.598   2.591   5.856
 1590SOL    HW1 5156   0.622   2.660   5.788
 1590SOL    HW2 5157   0.520   2.624   5.910
 1591SOL     OW 5158   1.281   2.207   6.530
 1591SOL    HW1 5159   1.195   2.157   6.517
 1591SOL    HW2 5160   1.343   2.153   6.586
 1592SOL     OW 5161   1.576   3.524   5.893
 1592SOL    HW1 5162   1.665   3.570   5.896
 1592SOL    HW2 5163   1.555   3.500   5.798
 1593SOL     OW 5164   0.807   2.467   7.051
 1593SOL    HW1 5165   0.760   2.464   7.140
 1593SOL    HW2 5166   0.756   2.412   6.985
 1594SOL     OW 5167   1.394   2.331   7.260
 1594SOL    HW1 5168   1.374   2.374   7.348
 1594SOL    HW2 5169   1.472   2.269   7.269
 1595SOL     OW 5170   0.973   2.752   7.158
 1595SOL    HW1 5171   1.019   2.668   7.129
 1595SOL    HW2 5172   0.917   2.786   7.083
 1596SOL     OW 5173   0.991   2.272   6.828
 1596SOL    HW1 5174   0.914   2.306   6.882
 1596SOL    HW2 5175   0.957   2.221   6.749
 1597SOL     OW 5176   1.041   2.563   6.015
 1597SOL    HW1 5177   1.067   2.559   6.111
 1597SOL    HW2 5178   0.956   2.512   6.001
 1598SOL     OW 5179   0.076   2.673   6.375
 1598SOL    HW1 5180   0.175   2.661   6.384
 1598SOL    HW2 5181   0.052   2.768   6.396
 1599SOL     OW 5182   0.130   3.683   7.157
 1599SOL    HW1 5183   0.120   3.668   7.256
 1599SOL    HW2 5184   0.044   3.719   7.121
 1600SOL     OW 5185   0.865   2.210   5.781
 1600SOL    HW1 5186   0.924   2.273   5.732
 1600SOL    HW2 5187   0.884   2.116   5.752
 1601SOL     OW 5188   1.719   2.447   7.417
 1601SOL    HW1 5189   1.693   2.536   7.381
 1601SOL    HW2 5190   1.717   2.379   7.344
 1602SOL     OW 5191   1.362   3.006   6.131
 1602SOL    HW1 5192   1.445   2.977   6.083
 1602SOL    HW2 5193   1.313   3.073   6.075
 1603SOL     OW 5194   0.550   2.058   6.471
 1603SOL    HW1 5195   0.545   2.053   6.571
 1603SOL    HW2 5196   0.552   2.154   6.442
 1604SOL     OW 5197   1.008   3.318   6.063
 1604SOL    HW1 5198   0.962   3.390   6.011
 1604SOL    HW2 5199   1.004   3.338   6.161
 1605SOL     OW 5200   0.351   3.663   6.439
 1605SOL    HW1 5201   0.401   3.577   6.445
 1605SOL    HW2 5202   0.416   3.740   6.436
 1606SOL     OW 5203   1.795   2.928   6.459
 1606SOL    HW1 5204   1.733   2.913   6.383
 1606SOL    HW2 5205   1.743   2.939   6.544
 1607SOL     OW 5206   1.227   3.412   7.092
 1607SOL    HW1 5207   1.233   3.335   7.156
 1607SOL    HW2 5208   1.175   3.386   7.012
 1608SOL     OW 5209   0.321   2.805   5.828
 1608SOL    HW1 5210   0.403   2.844   5.786
 1608SOL    HW2 5211   0.294   2.723   5.779
 1609SOL     OW 5212   1.458   2.597   6.314
 1609SOL    HW1 5213   1.453   2.532   6.389
 1609SOL    HW2 5214   1.538   2.656   6.327
 1610SOL     OW 5215   0.461   3.128   7.313
 1610SOL    HW1 5216   0.411   3.129   7.227
 1610SOL    HW2 5217   0.398   3.110   7.389
 1611SOL     OW 5218   1.111   3.638   5.823
 1611SOL    HW1 5219   1.051   3.576   5.873
 1611SOL    HW2 5220   1.142   3.594   5.738
 1612SOL     OW 5221   0.202   2.147   7.084
 1612SOL    HW1 5222   0.122   2.207   7.071
 1612SOL    HW2 5223   0.192   2.098   7.170
 1613SOL     OW 5224   1.632   3.239   5.667
 1613SOL    HW1 5225   1.600   3.333   5.657
 1613SOL    HW2 5226   1.556   3.176   5.655
 1614SOL     OW 5227   0.464   3.605   5.909
 1614SOL    HW1 5228   0.497   3.644   5.995
 1614SOL    HW2 5229   0.540   3.598   5.844
 1615SOL     OW 5230   1.400   1.969   6.012
 1615SOL    HW1 5231   1.376   1.932   5.922
 1615SOL    HW2 5232   1.499   1.985   6.016
 1616SOL     OW 5233   0.249   3.647   6.827
 1616SOL    HW1 5234   0.306   3.582   6.877
 1616SOL    HW2 5235   0.233   3.614   6.734
 1617SOL     OW 5236   0.940   3.560   6.490
 1617SOL    HW1 5237   1.020   3.503   6.511
 1617SOL    HW2 5238   0.891   3.520   6.413
 1618SOL     OW 5239   0.382   2.562   6.066
 1618SOL    HW1 5240   0.427   2.472   6.063
 1618SOL    HW2 5241   0.288   2.551   6.099
 1619SOL     OW 5242   1.547   2.084   7.315
 1619SOL    HW1 5243   1.542   2.121   7.407
 1619SOL    HW2 5244   1.475   2.015   7.303
 1620SOL     OW 5245   0.614   1.984   5.703
 1620SOL    HW1 5246   0.712   1.962   5.710
 1620SOL    HW2 5247   0.583   1.967   5.610
 1621SOL     OW 5248   0.781   2.126   7.335
 1621SOL    HW1 5249   0.848   2.065   7.378
 1621SOL    HW2 5250   0.708   2.145   7.400
 1622SOL     OW 5251   0.888   3.376   6.781
 1622SOL    HW1 5252   0.865   3.351   6.687
 1622SOL    HW2 5253   0.949   3.307   6.820
 1623SOL     OW 5254   1.351   2.452   7.019
 1623SOL    HW1 5255   1.379   2.409   7.104
 1623SOL    HW2 5256   1.376   2.548   7.020
 1624SOL     OW 5257   0.803   3.264   6.510
 1624SOL    HW1 5258   0.893   3.278   6.468
 1624SOL    HW2 5259   0.732   3.266   6.439
 1625SOL     OW 5260   0.922   2.365   6.485
 1625SOL    HW1 5261   0.897   2.356   6.389
 1625SOL    HW2 5262   0.970   2.283   6.516
 1626SOL     OW 5263   0.539   1.926   6.098
 1626SOL    HW1 5264   0.458   1.927   6.156
 1626SOL    HW2 5265   0.542   2.009   6.043
 1627SOL     OW 5266   1.434   3.050   5.627
 1627SOL    HW1 5267   1.466   2.974   5.684
 1627SOL    HW2 5268   1.342   3.077   5.657
 1628SOL     OW 5269   0.297   1.897   5.757
 1628SOL    HW1 5270   0.346   1.981   5.736
 1628SOL    HW2 5271   0.359   1.832   5.802
 1629SOL     OW 5272   0.935   2.098   6.066
 1629SOL    HW1 5273   0.887   2.139   5.988
 1629SOL    HW2 5274   1.034   2.096   6.047
 1630SOL     OW 5275   1.076   2.545   7.050
 1630SOL    HW1 5276   0.996   2.484   7.053
 1630SOL    HW2 5277   1.157   2.492   7.026
 1631SOL     OW 5278   1.227   3.432   6.379
 1631SOL    HW1 5279   1.248   3.506   6.314
 1631SOL    HW2 5280   1.295   3.432   6.452
 1632SOL     OW 5281   0.459   3.014   6.327
 1632SOL    HW1 5282   0.388   2.987   6.392
 1632SOL    HW2 5283   0.433   2.986   6.234
 1633SOL     OW 5284   1.271   3.659   6.177
 1633SOL    HW1 5285   1.315   3.723   6.113
 1633SOL    HW2 5286   1.221   3.711   6.247
 1634SOL     OW 5287   1.032   2.411   5.602
 1634SOL    HW1 5288   0.991   2.493   5.563
 1634SOL    HW2 5289   1.096   2.437   5.675
 1635SOL     OW 5290   0.078   2.418   6.972
 1635SOL    HW1 5291   0.170   2.417   6.931
 1635SOL    HW2 5292   0.072   2.492   7.039
 1636SOL     OW 5293   0.561   2.084   6.733
 1636SOL    HW1 5294   0.599   2.000   6.770
 1636SOL    HW2 5295   0.473   2.103   6.777
 1637SOL     OW 5296   0.866   2.316   6.228
 1637SOL    HW1 5297   0.834   2.388   6.166
 1637SOL    HW2 5298   0.890   2.235   6.175
 1638SOL     OW 5299   1.017   1.901   6.339
 1638SOL    HW1 5300   0.945   1.906   6.270
 1638SOL    HW2 5301   0.993   1.832   6.408
 1639SOL     OW 5302   1.429   3.035   6.453
 1639SOL    HW1 5303   1.374   2.951   6.446
 1639SOL    HW2 5304   1.455   3.064   6.361
 1640SOL     OW 5305   1.466   2.452   6.578
 1640SOL    HW1 5306   1.436   2.357   6.585
 1640SOL    HW2 5307   1.539   2.468   6.644
 1641SOL     OW 5308   1.857   2.695   5.963
 1641SOL    HW1 5309   1.899   2.631   6.027
 1641SOL    HW2 5310   1.819   2.644   5.885
 1642SOL     OW 5311   0.488   3.247   5.760
 1642SOL    HW1 5312   0.401   3.232   5.807
 1642SOL    HW2 5313   0.471   3.273   5.665
 1643SOL     OW 5314   1.664   3.142   6.243
 1643SOL    HW1 5315   1.763   3.150   6.257
 1643SOL    HW2 5316   1.619   3.226   6.274
 1644SOL     OW 5317   1.390   2.437   5.664
 1644SOL    HW1 5318   1.336   2.416   5.745
 1644SOL    HW2 5319   1.481   2.396   5.673
 1645SOL     OW 5320   0.527   2.118   5.914
 1645SOL    HW1 5321   0.554   2.059   5.839
 1645SOL    HW2 5322   0.527   2.213   5.883
 1646SOL     OW 5323   1.754   3.085   7.174
 1646SOL    HW1 5324   1.845   3.046   7.161
 1646SOL    HW2 5325   1.762   3.181   7.198
 1647SOL     OW 5326   1.064   3.209   6.926
 1647SOL    HW1 5327   0.984   3.186   6.981
 1647SOL    HW2 5328   1.147   3.183   6.975
 1648SOL     OW 5329   1.592   3.491   7.211
 1648SOL    HW1 5330   1.619   3.525   7.121
 1648SOL    HW2 5331   1.671   3.453   7.257
 1649SOL     OW 5332   1.111   3.057   6.686
 1649SOL    HW1 5333   1.071   3.101   6.767
 1649SOL    HW2 5334   1.070   3.094   6.603
 1650SOL     OW 5335   1.638   2.961   6.665
 1650SOL    HW1 5336   1.643   3.042   6.724
 1650SOL    HW2 5337   1.552   2.963   6.614
 1651SOL     OW 5338   0.915   1.951   6.988
 1651SOL    HW1 5339   0.940   1.931   6.893
 1651SOL    HW2 5340   0.987   2.007   7.030
 1652SOL     OW 5341   0.980   2.978   7.305
 1652SOL    HW1 5342   0.881   2.984   7.315
 1652SOL    HW2 5343   1.003   2.898   7.249
 1653SOL     OW 5344   0.705   2.912   5.954
 1653SOL    HW1 5345   0.691   2.919   6.053
 1653SOL    HW2 5346   0.789   2.861   5.936
 1654SOL     OW 5347   0.410   2.675   6.837
 1654SOL    HW1 5348   0.496   2.687   6.887
 1654SOL    HW2 5349   0.368   2.588   6.864
 1655SOL     OW 5350   1.274   2.248   6.848
 1655SOL    HW1 5351   1.295   2.322   6.912
 1655SOL    HW2 5352   1.185   2.265   6.805
 1656SOL     OW 5353   0.064   3.426   6.917
 1656SOL    HW1 5354   0.018   3.508   6.883
 1656SOL    HW2 5355   0.162   3.445   6.926
 1657SOL     OW 5356   0.367   2.962   6.087
 1657SOL    HW1 5357   0.360   3.045   6.031
 1657SOL    HW2 5358   0.371   2.882   6.027
 1658SOL     OW 5359   0.566   2.399   6.451
 1658SOL    HW1 5360   0.578   2.465   6.377
 1658SOL    HW2 5361   0.612   2.433   6.534
 1659SOL     OW 5362   1.252   3.210   5.974
 1659SOL    HW1 5363   1.302   3.287   6.014
 1659SOL    HW2 5364   1.157   3.212   6.006
 1660SOL     OW 5365   1.272   3.307   6.728
 1660SOL    HW1 5366   1.319   3.320   6.815
 1660SOL    HW2 5367   1.206   3.233   6.737
 1661SOL     OW 5368   1.582   2.501   6.058
 1661SOL    HW1 5369   1.551   2.562   6.131
 1661SOL    HW2 5370   1.632   2.553   5.989
 1662SOL     OW 5371   0.354   3.372   6.915
 1662SOL    HW1 5372   0.333   3.328   6.828
 1662SOL    HW2 5373   0.451   3.398   6.918
 1663SOL     OW 5374   0.402   2.613   7.184
 1663SOL    HW1 5375   0.470   2.668   7.137
 1663SOL    HW2 5376   0.442   2.525   7.211
 1664SOL     OW 5377   1.587   2.641   7.256
 1664SOL    HW1 5378   1.495   2.679   7.251
 1664SOL    HW2 5379   1.647   2.688   7.191
 1665SOL     OW 5380   1.013   1.967   7.356
 1665SOL    HW1 5381   1.019   2.052   7.304
 1665SOL    HW2 5382   1.045   1.891   7.299
 1666SOL     OW 5383   0.504   1.912   7.326
 1666SOL    HW1 5384   0.462   1.855   7.256
 1666SOL    HW2 5385   0.438   1.981   7.358
 1667SOL     OW 5386   0.573   2.732   6.615
 1667SOL    HW1 5387   0.617   2.821   6.606
 1667SOL    HW2 5388   0.510   2.732   6.692
 1668SOL     OW 5389   1.360   2.724   6.631
 1668SOL    HW1 5390   1.285   2.724   6.565
 1668SOL    HW2 5391   1.397   2.632   6.640
 1669SOL     OW 5392   1.209   2.387   5.861
 1669SOL    HW1 5393   1.222   2.303   5.915
 1669SOL    HW2 5394   1.180   2.461   5.921
 1670SOL     OW 5395   0.307   2.075   6.817
 1670SOL    HW1 5396   0.284   2.112   6.907
 1670SOL    HW2 5397   0.277   1.980   6.811
 1671SOL     OW 5398   0.037   3.172   6.868
 1671SOL    HW1 5399   0.090   3.123   6.936
 1671SOL    HW2 5400   0.059   3.270   6.873
 1672SOL     OW 5401   0.732   2.496   6.650
 1672SOL    HW1 5402   0.791   2.470   6.574
 1672SOL    HW2 5403   0.704   2.592   6.639
 1673SOL     OW 5404   1.728   2.797   7.440
 1673SOL    HW1 5405   1.682   2.790   7.351
 1673SOL    HW2 5406   1.666   2.841   7.506
 1674SOL     OW 5407   0.307   1.925   6.204
 1674SOL    HW1 5408   0.296   2.019   6.237
 1674SOL    HW2 5409   0.302   1.862   6.281
 1675SOL     OW 5410   1.622   2.229   5.960
 1675SOL    HW1 5411   1.624   2.153   6.024
 1675SOL    HW2 5412   1.574   2.306   6.000
 1676SOL     OW 5413   1.023   2.628   6.552
 1676SOL    HW1 5414   1.038   2.649   6.648
 1676SOL    HW2 5415   0.993   2.533   6.543
 1677SOL     OW 5416   0.980   3.435   7.286
 1677SOL    HW1 5417   0.960   3.479   7.198
 1677SOL    HW2 5418   1.019   3.344   7.270
 1678SOL     OW 5419   1.859   3.380   7.191
 1678SOL    HW1 5420   1.873   3.407   7.096
 1678SOL    HW2 5421   1.942   3.402   7.244
 1679SOL     OW 5422   0.350   2.760   7.390
 1679SOL    HW1 5423   0.426   2.804   7.438
 1679SOL    HW2 5424   0.385   2.713   7.308
 1680SOL     OW 5425   1.540   2.136   5.711
 1680SOL    HW1 5426   1.479   2.061   5.734
 1680SOL    HW2 5427   1.562   2.188   5.794
 1681SOL     OW 5428   1.303   2.700   5.628
 1681SOL    HW1 5429   1.337   2.607   5.643
 1681SOL    HW2 5430   1.321   2.727   5.533
 1682SOL     OW 5431   1.068   3.195   6.435
 1682SOL    HW1 5432   1.075   3.111   6.380
 1682SOL    HW2 5433   1.130   3.264   6.399
 1683SOL     OW 5434   0.319   2.672   6.535
 1683SOL    HW1 5435   0.412   2.708   6.540
 1683SOL    HW2 5436   0.313   2.587   6.587
 1684SOL     OW 5437   0.339   2.371   6.592
 1684SOL    HW1 5438   0.287   2.288   6.575
 1684SOL    HW2 5439   0.416   2.376   6.528
 1685SOL     OW 5440   1.138   2.242   7.264
 1685SOL    HW1 5441   1.093   2.305   7.328
 1685SOL    HW2 5442   1.231   2.273   7.247
 1686SOL     OW 5443   1.160   2.069   7.063
 1686SOL    HW1 5444   1.160   2.133   7.140
 1686SOL    HW2 5445   1.188   2.117   6.980
 1687SOL     OW 5446   0.008   3.188   5.786
 1687SOL    HW1 5447  -0.085   3.209   5.755
 1687SOL    HW2 5448   0.018   3.089   5.799
 1688SOL     OW 5449   0.088   3.663   6.513
 1688SOL    HW1 5450   0.046   3.577   6.486
 1688SOL    HW2 5451   0.182   3.666   6.479
 1689SOL     OW 5452   0.504   3.430   6.496
 1689SOL    HW1 5453   0.570   3.504   6.505
 1689SOL    HW2 5454   0.548   3.351   6.454
 1690SOL     OW 5455   1.002   2.658   6.824
 1690SOL    HW1 5456   1.043   2.626   6.910
 1690SOL    HW2 5457   0.906   2.631   6.821
 1691SOL     OW 5458   0.040   2.406   6.700
 1691SOL    HW1 5459   0.125   2.373   6.659
 1691SOL    HW2 5460   0.053   2.421   6.798
 1692SOL     OW 5461   0.189   2.382   7.308
 1692SOL    HW1 5462   0.248   2.342   7.238
 1692SOL    HW2 5463   0.131   2.453   7.267
 1693SOL     OW 5464   1.369   2.812   7.246
 1693SOL    HW1 5465   1.408   2.901   7.266
 1693SOL    HW2 5466   1.379   2.792   7.149
 1694SOL     OW 5467   0.815   2.434   5.911
 1694SOL    HW1 5468   0.822   2.345   5.865
 1694SOL    HW2 5469   0.721   2.468   5.903
 1695SOL     OW 5470   1.657   2.466   6.792
 1695SOL    HW1 5471   1.619   2.397   6.854
 1695SOL    HW2 5472   1.739   2.430   6.748
 1696SOL     OW 5473   0.252   3.426   7.330
 1696SOL    HW1 5474   0.222   3.483   7.406
 1696SOL    HW2 5475   0.245   3.329   7.356
 1697SOL     OW 5476   0.671   2.326   6.855
 1697SOL    HW1 5477   0.637   2.237   6.825
 1697SOL    HW2 5478   0.697   2.380   6.775
 1698SOL     OW 5479   0.930   3.540   7.051
 1698SOL    HW1 5480   0.906   3.522   6.956
 1698SOL    HW2 5481   0.960   3.634   7.061
 1699SOL     OW 5482   0.473   2.362   5.777
 1699SOL    HW1 5483   0.534   2.442   5.781
 1699SOL    HW2 5484   0.378   2.393   5.784
 1700SOL     OW 5485   0.159   2.999   7.052
 1700SOL    HW1 5486   0.181   2.938   7.128
 1700SOL    HW2 5487   0.169   2.950   6.966
 1701SOL     OW 5488   1.347   2.921   6.820
 1701SOL    HW1 5489   1.371   2.858   6.746
 1701SOL    HW2 5490   1.257   2.961   6.802
 1702SOL     OW 5491   1.302   2.717   5.895
 1702SOL    HW1 5492   1.216   2.686   5.937
 1702SOL    HW2 5493   1.298   2.703   5.796
 1703SOL     OW 5494   1.759   3.609   6.740
 1703SOL    HW1 5495   1.820   3.639   6.667
 1703SOL    HW2 5496   1.721   3.520   6.718
 1704SOL     OW 5497   1.252   3.593   6.714
 1704SOL    HW1 5498   1.336   3.598   6.660
 1704SOL    HW2 5499   1.229   3.497   6.732
 1705SOL     OW 5500   0.083   3.120   6.608
 1705SOL    HW1 5501   0.078   3.119   6.708
 1705SOL    HW2 5502   0.000   3.079   6.570
 1706SOL     OW 5503   0.688   3.524   7.302
 1706SOL    HW1 5504   0.632   3.605   7.311
 1706SOL    HW2 5505   0.740   3.528   7.216
 1707SOL     OW 5506   1.726   1.997   6.109
 1707SOL    HW1 5507   1.799   1.980   6.042
 1707SOL    HW2 5508   1.695   1.910   6.147
 1708SOL     OW 5509   1.388   3.435   6.063
 1708SOL    HW1 5510   1.455   3.447   5.989
 1708SOL    HW2 5511   1.348   3.524   6.086
 1709SOL     OW 5512   0.130   3.656   7.437
 1709SOL    HW1 5513   0.089   3.582   7.490
 1709SOL    HW2 5514   0.194   3.707   7.495
 1710SOL     OW 5515   1.280   2.789   6.258
 1710SOL    HW1 5516   1.340   2.708   6.260
 1710SOL    HW2 5517   1.320   2.858   6.198
 1711SOL     OW 5518   0.830   3.135   7.008
 1711SOL    HW1 5519   0.825   3.168   7.103
 1711SOL    HW2 5520   0.744   3.154   6.962
 1712SOL     OW 5521   0.672   3.478   5.740
 1712SOL    HW1 5522   0.681   3.488   5.641
 1712SOL    HW2 5523   0.632   3.389   5.761
 1713SOL     OW 5524   1.650   3.582   6.980
 1713SOL    HW1 5525   1.703   3.592   6.896
 1713SOL    HW2 5526   1.623   3.672   7.014
 1714SOL     OW 5527   1.841   2.037   6.549
 1714SOL    HW1 5528   1.880   1.952   6.513
 1714SOL    HW2 5529   1.743   2.039   6.530
 1715SOL     OW 5530   0.263   2.188   6.306
 1715SOL    HW1 5531   0.184   2.239   6.272
 1715SOL    HW2 5532   0.254   2.173   6.404
 1716SOL     OW 5533   1.194   3.474   5.617
 1716SOL    HW1 5534   1.200   3.381   5.654
 1716SOL    HW2 5535   1.135   3.474   5.537
 1717SOL     OW 5536   0.822   2.864   6.958
 1717SOL    HW1 5537   0.862   2.863   6.866
 1717SOL    HW2 5538   0.832   2.956   6.998
 1718SOL     OW 5539   0.916   2.772   5.877
 1718SOL    HW1 5540   0.979   2.810   5.809
 1718SOL    HW2 5541   0.956   2.689   5.916
 1719SOL     OW 5542   1.504   3.469   5.630
 1719SOL    HW1 5543   1.412   3.506   5.637
 1719SOL    HW2 5544   1.542   3.489   5.540
 1720SOL     OW 5545   0.372   3.150   7.076
 1720SOL    HW1 5546   0.359   3.243   7.042
 1720SOL    HW2 5547   0.288   3.098   7.063
 1721SOL     OW 5548   1.614   3.154   6.875
 1721SOL    HW1 5549   1.674   3.157   6.955
 1721SOL    HW2 5550   1.539   3.218   6.888
 1722SOL     OW 5551   1.039   2.960   6.282
 1722SOL    HW1 5552   0.969   2.913   6.336
 1722SOL    HW2 5553   1.098   2.892   6.239
 1723SOL     OW 5554   1.014   2.098   6.557
 1723SOL    HW1 5555   1.006   2.062   6.464
 1723SOL    HW2 5556   1.012   2.022   6.622
 1724SOL     OW 5557   0.590   3.349   6.077
 1724SOL    HW1 5558   0.632   3.291   6.007
 1724SOL    HW2 5559   0.546   3.428   6.033
 1725SOL     OW 5560   1.709   2.247   6.967
 1725SOL    HW1 5561   1.782   2.316   6.971
 1725SOL    HW2 5562   1.737   2.172   6.908
 1726SOL     OW 5563   0.255   3.210   5.876
 1726SOL    HW1 5564   0.159   3.211   5.849
 1726SOL    HW2 5565   0.267   3.263   5.960
 1727SOL     OW 5566   0.105   2.875   7.312
 1727SOL    HW1 5567   0.028   2.842   7.366
 1727SOL    HW2 5568   0.190   2.845   7.354
 1728SOL     OW 5569   0.672   2.065   7.075
 1728SOL    HW1 5570   0.762   2.049   7.035
 1728SOL    HW2 5571   0.680   2.070   7.174
 1729SOL     OW 5572   0.075   2.207   5.619
 1729SOL    HW1 5573  -0.017   2.179   5.590
 1729SOL    HW2 5574   0.106   2.284   5.563
 1730SOL     OW 5575   1.440   2.718   6.984
 1730SOL    HW1 5576   1.383   2.770   6.921
 1730SOL    HW2 5577   1.536   2.730   6.960
 1731SOL     OW 5578   0.072   2.028   5.904
 1731SOL    HW1 5579   0.055   2.111   5.850
 1731SOL    HW2 5580   0.162   1.991   5.882
 1732SOL     OW 5581   1.183   3.197   5.705
 1732SOL    HW1 5582   1.084   3.186   5.707
 1732SOL    HW2 5583   1.217   3.212   5.798
 1733SOL     OW 5584   0.613   2.704   7.017
 1733SOL    HW1 5585   0.669   2.785   7.000
 1733SOL    HW2 5586   0.672   2.624   7.020
 1734SOL     OW 5587   1.493   3.629   6.545
 1734SOL    HW1 5588   1.526   3.693   6.476
 1734SOL    HW2 5589   1.559   3.623   6.620
 1735SOL     OW 5590   0.716   2.427   7.294
 1735SOL    HW1 5591   0.735   2.492   7.368
 1735SOL    HW2 5592   0.776   2.347   7.303
 1736SOL     OW 5593   1.450   3.082   7.219
 1736SOL    HW1 5594   1.441   3.072   7.318
 1736SOL    HW2 5595   1.546   3.075   7.193
 1737SOL     OW 5596   0.390   3.603   7.146
 1737SOL    HW1 5597   0.299   3.644   7.144
 1737SOL    HW2 5598   0.383   3.509   7.178
 1738SOL     OW 5599   1.674   2.745   6.840
 1738SOL    HW1 5600   1.647   2.656   6.803
 1738SOL    HW2 5601   1.675   2.813   6.767
 1739SOL     OW 5602   1.225   2.187   6.035
 1739SOL    HW1 5603   1.290   2.113   6.024
 1739SOL    HW2 5604   1.245   2.237   6.119
 1740SOL     OW 5605   0.594   2.607   6.238
 1740SOL    HW1 5606   0.644   2.692   6.219
 1740SOL    HW2 5607   0.506   2.609   6.190
 1741SOL     OW 5608   1.777   2.204   7.228
 1741SOL    HW1 5609   1.760   2.235   7.134
 1741SOL    HW2 5610   1.693   2.167   7.266
 1742SOL     OW 5611   1.730   2.796   7.103
 1742SOL    HW1 5612   1.768   2.887   7.118
 1742SOL    HW2 5613   1.722   2.779   7.004
 1743SOL     OW 5614   0.859   3.236   5.602
 1743SOL    HW1 5615   0.813   3.251   5.690
 1743SOL    HW2 5616   0.903   3.321   5.572
 1744SOL     OW 5617   0.661   3.652   6.539
 1744SOL    HW1 5618   0.615   3.740   6.526
 1744SOL    HW2 5619   0.760   3.664   6.532
 1745SOL     OW 5620   0.859   2.818   6.447
 1745SOL    HW1 5621   0.913   2.749   6.495
 1745SOL    HW2 5622   0.827   2.887   6.513
 1746SOL     OW 5623   1.083   2.846   5.673
 1746SOL    HW1 5624   1.060   2.899   5.591
 1746SOL    HW2 5625   1.164   2.790   5.654
 1747SOL     OW 5626   1.861   3.431   6.437
 1747SOL    HW1 5627   1.790   3.419   6.367
 1747SOL    HW2 5628   1.862   3.352   6.497
 1748SOL     OW 5629   0.221   3.176   7.430
 1748SOL    HW1 5630   0.156   3.103   7.409
 1748SOL    HW2 5631   0.225   3.190   7.528
 1749SOL     OW 5632   0.079   3.102   6.239
 1749SOL    HW1 5633   0.078   3.055   6.327
 1749SOL    HW2 5634   0.161   3.074   6.188
 1750SOL     OW 5635   0.672   3.253   7.210
 1750SOL    HW1 5636   0.594   3.203   7.248
 1750SOL    HW2 5637   0.669   3.348   7.241
 1751SOL     OW 5638   1.824   2.054   6.813
 1751SOL    HW1 5639   1.820   1.964   6.857
 1751SOL    HW2 5640   1.827   2.043   6.714
 1752SOL     OW 5641   0.428   2.286   6.106
 1752SOL    HW1 5642   0.458   2.214   6.044
 1752SOL    HW2 5643   0.389   2.246   6.189
 1753SOL     OW 5644   1.705   3.349   6.690
 1753SOL    HW1 5645   1.612   3.324   6.663
 1753SOL    HW2 5646   1.731   3.299   6.772
 1754SOL     OW 5647   0.317   2.409   6.866
 1754SOL    HW1 5648   0.355   2.350   6.938
 1754SOL    HW2 5649   0.357   2.383   6.778
 1755SOL     OW 5650   0.812   3.448   6.273
 1755SOL    HW1 5651   0.844   3.458   6.179
 1755SOL    HW2 5652   0.733   3.386   6.275
 1756SOL     OW 5653   1.424   2.076   6.698
 1756SOL    HW1 5654   1.476   2.011   6.753
 1756SOL    HW2 5655   1.375   2.139   6.759
 1757SOL     OW 5656   1.001   1.896   6.740
 1757SOL    HW1 5657   0.938   1.824   6.709
 1757SOL    HW2 5658   1.094   1.860   6.740
 1758SOL     OW 5659   0.770   3.192   5.887
 1758SOL    HW1 5660   0.724   3.105   5.904
 1758SOL    HW2 5661   0.861   3.189   5.928
 1759SOL     OW 5662   0.618   3.429   6.870
 1759SOL    HW1 5663   0.613   3.511   6.927
 1759SOL    HW2 5664   0.707   3.426   6.825
 1760SOL     OW 5665   1.352   1.914   5.754
 1760SOL    HW1 5666   1.387   1.873   5.670
 1760SOL    HW2 5667   1.262   1.876   5.774
 1761SOL     OW 5668   1.300   2.315   6.277
 1761SOL    HW1 5669   1.241   2.395   6.281
 1761SOL    HW2 5670   1.315   2.280   6.370
 1762SOL     OW 5671   1.593   2.083   6.468
 1762SOL    HW1 5672   1.509   2.082   6.522
 1762SOL    HW2 5673   1.595   2.166   6.412
 1763SOL     OW 5674   0.039   2.939   5.886
 1763SOL    HW1 5675   0.138   2.928   5.877
 1763SOL    HW2 5676  -0.001   2.853   5.918
 1764SOL     OW 5677   0.875   3.508   5.923
 1764SOL    HW1 5678   0.798   3.473   5.869
 1764SOL    HW2 5679   0.843   3.579   5.985
 1765SOL     OW 5680   0.230   2.490   7.561
 1765SOL    HW1 5681   0.137   2.488   7.598
 1765SOL    HW2 5682   0.231   2.451   7.469
 1766SOL     OW 5683   1.755   2.469   7.679
 1766SOL    HW1 5684   1.743   2.456   7.580
 1766SOL    HW2 5685   1.725   2.388   7.728
 1767SOL     OW 5686   0.231   3.575   7.931
 1767SOL    HW1 5687   0.265   3.652   7.985
 1767SOL    HW2 5688   0.275   3.575   7.841
 1768SOL     OW 5689   0.230   3.296   7.986
 1768SOL    HW1 5690   0.204   3.392   7.986
 1768SOL    HW2 5691   0.159   3.242   8.031
 1769SOL     OW 5692   0.606   2.826   7.571
 1769SOL    HW1 5693   0.613   2.910   7.517
 1769SOL    HW2 5694   0.652   2.839   7.659
 1770SOL     OW 5695   1.842   3.629   7.807
 1770SOL    HW1 5696   1.896   3.600   7.887
 1770SOL    HW2 5697   1.872   3.719   7.778
 1771SOL     OW 5698   0.027   3.458   7.565
 1771SOL    HW1 5699   0.008   3.362   7.586
 1771SOL    HW2 5700  -0.006   3.516   7.640
 1772SOL     OW 5701   1.689   2.784   8.060
 1772SOL    HW1 5702   1.784   2.755   8.068
 1772SOL    HW2 5703   1.681   2.849   7.985
 1773SOL     OW 5704   1.641   2.970   7.880
 1773SOL    HW1 5705   1.727   2.972   7.828
 1773SOL    HW2 5706   1.655   3.017   7.968
 1774SOL     OW 5707   0.809   1.866   7.950
 1774SOL    HW1 5708   0.849   1.957   7.941
 1774SOL    HW2 5709   0.709   1.874   7.956
 1775SOL     OW 5710   1.525   2.861   7.638
 1775SOL    HW1 5711   1.462   2.785   7.651
 1775SOL    HW2 5712   1.573   2.879   7.724
 1776SOL     OW 5713   0.598   2.591   7.718
 1776SOL    HW1 5714   0.622   2.660   7.650
 1776SOL    HW2 5715   0.520   2.624   7.772
 1777SOL     OW 5716   1.576   3.524   7.755
 1777SOL    HW1 5717   1.665   3.570   7.758
 1777SOL    HW2 5718   1.555   3.500   7.660
 1778SOL     OW 5719   0.076   2.673   8.237
 1778SOL    HW1 5720   0.175   2.661   8.246
 1778SOL    HW2 5721   0.052   2.768   8.258
 1779SOL     OW 5722   0.865   2.210   7.643
 1779SOL    HW1 5723   0.924   2.273   7.594
 1779SOL    HW2 5724   0.884   2.116   7.614
 1780SOL     OW 5725   0.321   2.805   7.690
 1780SOL    HW1 5726   0.403   2.844   7.648
 1780SOL    HW2 5727   0.294   2.723   7.641
 1781SOL     OW 5728   1.111   3.638   7.685
 1781SOL    HW1 5729   1.051   3.576   7.735
 1781SOL    HW2 5730   1.142   3.594   7.600
 1782SOL     OW 5731   1.632   3.239   7.529
 1782SOL    HW1 5732   1.600   3.333   7.519
 1782SOL    HW2 5733   1.556   3.176   7.517
 1783SOL     OW 5734   0.464   3.605   7.771
 1783SOL    HW1 5735   0.497   3.644   7.857
 1783SOL    HW2 5736   0.540   3.598   7.706
 1784SOL     OW 5737   1.400   1.969   7.874
 1784SOL    HW1 5738   1.376   1.932   7.784
 1784SOL    HW2 5739   1.499   1.985   7.878
 1785SOL     OW 5740   0.382   2.562   7.928
 1785SOL    HW1 5741   0.427   2.472   7.925
 1785SOL    HW2 5742   0.288   2.551   7.961
 1786SOL     OW 5743   0.614   1.984   7.565
 1786SOL    HW1 5744   0.712   1.962   7.572
 1786SOL    HW2 5745   0.583   1.967   7.472
 1787SOL     OW 5746   0.539   1.926   7.960
 1787SOL    HW1 5747   0.458   1.927   8.018
 1787SOL    HW2 5748   0.542   2.009   7.905
 1788SOL     OW 5749   1.434   3.050   7.489
 1788SOL    HW1 5750   1.466   2.974   7.546
 1788SOL    HW2 5751   1.342   3.077   7.519
 1789SOL     OW 5752   0.297   1.897   7.619
 1789SOL    HW1 5753   0.346   1.981   7.598
 1789SOL    HW2 5754   0.359   1.832   7.664
 1790SOL     OW 5755   0.935   2.098   7.928
 1790SOL    HW1 5756   0.887   2.139   7.850
 1790SOL    HW2 5757   1.034   2.096   7.909
 1791SOL     OW 5758   0.459   3.014   8.189
 1791SOL    HW1 5759   0.388   2.987   8.254
 1791SOL    HW2 5760   0.433   2.986   8.096
 1792SOL     OW 5761   1.271   3.659   8.039
 1792SOL    HW1 5762   1.315   3.723   7.975
 1792SOL    HW2 5763   1.221   3.711   8.109
 1793SOL     OW 5764   1.032   2.411   7.464
 1793SOL    HW1 5765   0.991   2.493   7.425
 1793SOL    HW2 5766   1.096   2.437   7.537
 1794SOL     OW 5767   1.857   2.695   7.825
 1794SOL    HW1 5768   1.899   2.631   7.889
 1794SOL    HW2 5769   1.819   2.644   7.747
 1795SOL     OW 5770   0.488   3.247   7.622
 1795SOL    HW1 5771   0.401   3.232   7.669
 1795SOL    HW2 5772   0.471   3.273   7.527
 1796SOL     OW 5773   1.390   2.437   7.526
 1796SOL    HW1 5774   1.336   2.416   7.607
 1796SOL    HW2 5775   1.481   2.396   7.535
 1797SOL     OW 5776   0.527   2.118   7.776
 1797SOL    HW1 5777   0.554   2.059   7.701
 1797SOL    HW2 5778   0.527   2.213   7.745
 1798SOL     OW 5779   0.705   2.912   7.816
 1798SOL    HW1 5780   0.691   2.919   7.915
 1798SOL    HW2 5781   0.789   2.861   7.798
 1799SOL     OW 5782   0.367   2.962   7.949
 1799SOL    HW1 5783   0.360   3.045   7.893
 1799SOL    HW2 5784   0.371   2.882   7.889
 1800SOL     OW 5785   1.252   3.210   7.836
 1800SOL    HW1 5786   1.302   3.287   7.876
 1800SOL    HW2 5787   1.157   3.212   7.868
 1801SOL     OW 5788   1.582   2.501   7.920
 1801SOL    HW1 5789   1.551   2.562   7.993
 1801SOL    HW2 5790   1.632   2.553   7.851
 1802SOL     OW 5791   1.209   2.387   7.723
 1802SOL    HW1 5792   1.222   2.303   7.777
 1802SOL    HW2 5793   1.180   2.461   7.783
 1803SOL     OW 5794   1.622   2.229   7.822
 1803SOL    HW1 5795   1.624   2.153   7.886
 1803SOL    HW2 5796   1.574   2.306   7.862
 1804SOL     OW 5797   1.540   2.136   7.573
 1804SOL    HW1 5798   1.479   2.061   7.596
 1804SOL    HW2 5799   1.562   2.188   7.656
 1805SOL     OW 5800   1.303   2.700   7.490
 1805SOL    HW1 5801   1.337   2.607   7.505
 1805SOL    HW2 5802   1.321   2.727   7.395
 1806SOL     OW 5803   0.008   3.188   7.648
 1806SOL    HW1 5804  -0.085   3.209   7.617
 1806SOL    HW2 5805   0.018   3.089   7.661
 1807SOL     OW 5806   0.815   2.434   7.773
 1807SOL    HW1 5807   0.822   2.345   7.727
 1807SOL    HW2 5808   0.721   2.468   7.765
 1808SOL     OW 5809   0.473   2.362   7.639
 1808SOL    HW1 5810   0.534   2.442   7.643
 1808SOL    HW2 5811   0.378   2.393   7.646
 1809SOL     OW 5812   1.302   2.717   7.757
 1809SOL    HW1 5813   1.216   2.686   7.799
 1809SOL    HW2 5814   1.298   2.703   7.658
 1810SOL     OW 5815   1.726   1.997   7.971
 1810SOL    HW1 5816   1.799   1.980   7.904
 1810SOL    HW2 5817   1.695   1.910   8.009
 1811SOL     OW 5818   1.388   3.435   7.925
 1811SOL    HW1 5819   1.455   3.447   7.851
 1811SOL    HW2 5820   1.348   3.524   7.948
 1812SOL     OW 5821   0.672   3.478   7.602
 1812SOL    HW1 5822   0.681   3.488   7.503
 1812SOL    HW2 5823   0.632   3.389   7.623
 1813SOL     OW 5824   1.194   3.474   7.479
 1813SOL    HW1 5825   1.200   3.381   7.516
 1813SOL    HW2 5826   1.135   3.474   7.399
 1814SOL     OW 5827   0.916   2.772   7.739
 1814SOL    HW1 5828   0.979   2.810   7.671
 1814SOL    HW2 5829   0.956   2.689   7.778
 1815SOL     OW 5830   1.504   3.469   7.492
 1815SOL    HW1 5831   1.412   3.506   7.499
 1815SOL    HW2 5832   1.542   3.489   7.402
 1816SOL     OW 5833   0.590   3.349   7.939
 1816SOL    HW1 5834   0.632   3.291   7.869
 1816SOL    HW2 5835   0.546   3.428   7.895
 1817SOL     OW 5836   0.255   3.210   7.738
 1817SOL    HW1 5837   0.159   3.211   7.711
 1817SOL    HW2 5838   0.267   3.263   7.822
 1818SOL     OW 5839   0.075   2.207   7.481
 1818SOL    HW1 5840  -0.017   2.179   7.452
 1818SOL    HW2 5841   0.106   2.284   7.425
 1819SOL     OW 5842   0.072   2.028   7.766
 1819SOL    HW1 5843   0.055   2.111   7.712
 1819SOL    HW2 5844   0.162   1.991   7.744
 1820SOL     OW 5845   1.183   3.197   7.567
 1820SOL    HW1 5846   1.084   3.186   7.569
 1820SOL    HW2 5847   1.217   3.212   7.660
 1821SOL     OW 5848   1.225   2.187   7.897
 1821SOL    HW1 5849   1.290   2.113   7.886
 1821SOL    HW2 5850   1.245   2.237   7.981
 1822SOL     OW 5851   0.594   2.607   8.100
 1822SOL    HW1 5852   0.644   2.692   8.081
 1822SOL    HW2 5853   0.506   2.609   8.052
 1823SOL     OW 5854   0.859   3.236   7.464
 1823SOL    HW1 5855   0.813   3.251   7.552
 1823SOL    HW2 5856   0.903   3.321   7.434
 1824SOL     OW 5857   1.083   2.846   7.535
 1824SOL    HW1 5858   1.060   2.899   7.453
 1824SOL    HW2 5859   1.164   2.790   7.516
 1825SOL     OW 5860   0.428   2.286   7.968
 1825SOL    HW1 5861   0.458   2.214   7.906
 1825SOL    HW2 5862   0.389   2.246   8.051
 1826SOL     OW 5863   0.770   3.192   7.749
 1826SOL    HW1 5864   0.724   3.105   7.766
 1826SOL    HW2 5865   0.861   3.189   7.790
 1827SOL     OW 5866   1.352   1.914   7.616
 1827SOL    HW1 5867   1.387   1.873   7.532
 1827SOL    HW2 5868   1.262   1.876   7.636
 1828SOL     OW 5869   0.039   2.939   7.748
 1828SOL    HW1 5870   0.138   2.928   7.739
 1828SOL    HW2 5871  -0.001   2.853   7.780
 1829SOL     OW 5872   0.875   3.508   7.785
 1829SOL    HW1 5873   0.798   3.473   7.731
 1829SOL    HW2 5874   0.843   3.579   7.847
 1830SOL     OW 5875   0.230   4.352   0.113
 1830SOL    HW1 5876   0.137   4.350   0.150
 1830SOL    HW2 5877   0.231   4.313   0.021
 1831SOL     OW 5878   0.225   3.999   0.996
 1831SOL    HW1 5879   0.260   3.982   1.088
 1831SOL    HW2 5880   0.137   3.954   0.984
 1832SOL     OW 5881   0.019   4.092   0.647
 1832SOL    HW1 5882  -0.063   4.135   0.686
 1832SOL    HW2 5883  -0.009   4.019   0.584
 1833SOL     OW 5884   0.569   4.999   1.165
 1833SOL    HW1 5885   0.476   4.992   1.128
 1833SOL    HW2 5886   0.580   5.088   1.209
 1834SOL     OW 5887   1.555   5.235   0.703
 1834SOL    HW1 5888   1.498   5.219   0.784
 1834SOL    HW2 5889   1.496   5.245   0.623
 1835SOL     OW 5890   1.135   4.427   0.717
 1835SOL    HW1 5891   1.192   4.505   0.692
 1835SOL    HW2 5892   1.075   4.453   0.793
 1836SOL     OW 5893   1.755   4.331   0.231
 1836SOL    HW1 5894   1.743   4.318   0.132
 1836SOL    HW2 5895   1.725   4.250   0.280
 1837SOL     OW 5896   0.768   4.868   1.023
 1837SOL    HW1 5897   0.690   4.885   1.083
 1837SOL    HW2 5898   0.802   4.955   0.987
 1838SOL     OW 5899   0.850   4.522   1.823
 1838SOL    HW1 5900   0.846   4.598   1.888
 1838SOL    HW2 5901   0.872   4.558   1.732
 1839SOL     OW 5902   0.685   4.736   0.665
 1839SOL    HW1 5903   0.754   4.720   0.735
 1839SOL    HW2 5904   0.612   4.793   0.703
 1840SOL     OW 5905   0.686   4.885   1.803
 1840SOL    HW1 5906   0.746   4.964   1.817
 1840SOL    HW2 5907   0.600   4.916   1.762
 1841SOL     OW 5908   0.335   5.159   1.061
 1841SOL    HW1 5909   0.257   5.128   1.008
 1841SOL    HW2 5910   0.393   5.217   1.004
 1842SOL     OW 5911   1.460   5.229   1.339
 1842SOL    HW1 5912   1.484   5.323   1.365
 1842SOL    HW2 5913   1.444   5.175   1.421
 1843SOL     OW 5914   0.438   4.116   1.499
 1843SOL    HW1 5915   0.520   4.060   1.508
 1843SOL    HW2 5916   0.357   4.058   1.503
 1844SOL     OW 5917   1.603   4.171   0.737
 1844SOL    HW1 5918   1.529   4.217   0.687
 1844SOL    HW2 5919   1.654   4.239   0.790
 1845SOL     OW 5920   1.127   5.065   1.690
 1845SOL    HW1 5921   1.174   5.065   1.778
 1845SOL    HW2 5922   1.079   4.978   1.679
 1846SOL     OW 5923   0.230   5.158   0.538
 1846SOL    HW1 5924   0.204   5.254   0.538
 1846SOL    HW2 5925   0.159   5.104   0.583
 1847SOL     OW 5926   0.240   4.815   0.886
 1847SOL    HW1 5927   0.254   4.731   0.938
 1847SOL    HW2 5928   0.185   4.879   0.941
 1848SOL     OW 5929   0.606   4.688   0.123
 1848SOL    HW1 5930   0.613   4.772   0.069
 1848SOL    HW2 5931   0.652   4.701   0.211
 1849SOL     OW 5932   1.594   3.838   1.480
 1849SOL    HW1 5933   1.576   3.905   1.408
 1849SOL    HW2 5934   1.591   3.884   1.569
 1850SOL     OW 5935   0.122   4.367   0.563
 1850SOL    HW1 5936   0.077   4.279   0.580
 1850SOL    HW2 5937   0.121   4.421   0.647
 1851SOL     OW 5938   0.027   5.320   0.117
 1851SOL    HW1 5939   0.008   5.224   0.138
 1851SOL    HW2 5940  -0.006   5.378   0.192
 1852SOL     OW 5941   1.689   4.646   0.612
 1852SOL    HW1 5942   1.784   4.617   0.620
 1852SOL    HW2 5943   1.681   4.711   0.537
 1853SOL     OW 5944   1.641   4.832   0.432
 1853SOL    HW1 5945   1.727   4.834   0.380
 1853SOL    HW2 5946   1.655   4.879   0.520
 1854SOL     OW 5947   0.113   4.461   1.597
 1854SOL    HW1 5948   0.201   4.448   1.642
 1854SOL    HW2 5949   0.100   4.558   1.575
 1855SOL     OW 5950   0.613   5.089   0.726
 1855SOL    HW1 5951   0.564   5.002   0.735
 1855SOL    HW2 5952   0.590   5.132   0.639
 1856SOL     OW 5953   1.293   4.952   1.423
 1856SOL    HW1 5954   1.330   4.879   1.365
 1856SOL    HW2 5955   1.345   4.957   1.508
 1857SOL     OW 5956   0.809   3.728   0.502
 1857SOL    HW1 5957   0.849   3.819   0.493
 1857SOL    HW2 5958   0.709   3.736   0.508
 1858SOL     OW 5959   0.197   4.700   1.264
 1858SOL    HW1 5960   0.286   4.655   1.250
 1858SOL    HW2 5961   0.124   4.635   1.245
 1859SOL     OW 5962   1.525   4.723   0.190
 1859SOL    HW1 5963   1.462   4.647   0.203
 1859SOL    HW2 5964   1.573   4.741   0.276
 1860SOL     OW 5965   0.317   3.975   1.801
 1860SOL    HW1 5966   0.388   4.046   1.807
 1860SOL    HW2 5967   0.229   4.014   1.829
 1861SOL     OW 5968   1.466   5.141   0.953
 1861SOL    HW1 5969   1.407   5.147   1.033
 1861SOL    HW2 5970   1.451   5.053   0.907
 1862SOL     OW 5971   0.598   4.453   0.270
 1862SOL    HW1 5972   0.622   4.522   0.202
 1862SOL    HW2 5973   0.520   4.486   0.324
 1863SOL     OW 5974   1.281   4.069   0.944
 1863SOL    HW1 5975   1.195   4.019   0.931
 1863SOL    HW2 5976   1.343   4.015   1.000
 1864SOL     OW 5977   0.807   4.329   1.465
 1864SOL    HW1 5978   0.760   4.326   1.554
 1864SOL    HW2 5979   0.756   4.274   1.399
 1865SOL     OW 5980   1.394   4.193   1.674
 1865SOL    HW1 5981   1.374   4.236   1.762
 1865SOL    HW2 5982   1.472   4.131   1.683
 1866SOL     OW 5983   0.973   4.614   1.572
 1866SOL    HW1 5984   1.019   4.530   1.543
 1866SOL    HW2 5985   0.917   4.648   1.497
 1867SOL     OW 5986   0.991   4.134   1.242
 1867SOL    HW1 5987   0.914   4.168   1.296
 1867SOL    HW2 5988   0.957   4.083   1.163
 1868SOL     OW 5989   1.041   4.425   0.429
 1868SOL    HW1 5990   1.067   4.421   0.525
 1868SOL    HW2 5991   0.956   4.374   0.415
 1869SOL     OW 5992   0.076   4.535   0.789
 1869SOL    HW1 5993   0.175   4.523   0.798
 1869SOL    HW2 5994   0.052   4.630   0.810
 1870SOL     OW 5995   0.865   4.072   0.195
 1870SOL    HW1 5996   0.924   4.135   0.146
 1870SOL    HW2 5997   0.884   3.978   0.166
 1871SOL     OW 5998   1.719   4.309   1.831
 1871SOL    HW1 5999   1.693   4.398   1.795
 1871SOL    HW2 6000   1.717   4.241   1.758
 1872SOL     OW 6001   1.362   4.868   0.545
 1872SOL    HW1 6002   1.445   4.839   0.497
 1872SOL    HW2 6003   1.313   4.935   0.489
 1873SOL     OW 6004   0.550   3.920   0.885
 1873SOL    HW1 6005   0.545   3.915   0.985
 1873SOL    HW2 6006   0.552   4.016   0.856
 1874SOL     OW 6007   1.008   5.180   0.477
 1874SOL    HW1 6008   0.962   5.252   0.425
 1874SOL    HW2 6009   1.004   5.200   0.575
 1875SOL     OW 6010   1.795   4.790   0.873
 1875SOL    HW1 6011   1.733   4.775   0.797
 1875SOL    HW2 6012   1.743   4.801   0.958
 1876SOL     OW 6013   1.227   5.274   1.506
 1876SOL    HW1 6014   1.233   5.197   1.570
 1876SOL    HW2 6015   1.175   5.248   1.426
 1877SOL     OW 6016   0.321   4.667   0.242
 1877SOL    HW1 6017   0.403   4.706   0.200
 1877SOL    HW2 6018   0.294   4.585   0.193
 1878SOL     OW 6019   1.458   4.459   0.728
 1878SOL    HW1 6020   1.453   4.394   0.803
 1878SOL    HW2 6021   1.538   4.518   0.741
 1879SOL     OW 6022   0.461   4.990   1.727
 1879SOL    HW1 6023   0.411   4.991   1.641
 1879SOL    HW2 6024   0.398   4.972   1.803
 1880SOL     OW 6025   1.111   5.500   0.237
 1880SOL    HW1 6026   1.051   5.438   0.287
 1880SOL    HW2 6027   1.142   5.456   0.152
 1881SOL     OW 6028   0.202   4.009   1.498
 1881SOL    HW1 6029   0.122   4.069   1.485
 1881SOL    HW2 6030   0.192   3.960   1.584
 1882SOL     OW 6031   1.632   5.101   0.081
 1882SOL    HW1 6032   1.600   5.195   0.071
 1882SOL    HW2 6033   1.556   5.038   0.069
 1883SOL     OW 6034   1.400   3.831   0.426
 1883SOL    HW1 6035   1.376   3.794   0.336
 1883SOL    HW2 6036   1.499   3.847   0.430
 1884SOL     OW 6037   0.382   4.424   0.480
 1884SOL    HW1 6038   0.427   4.334   0.477
 1884SOL    HW2 6039   0.288   4.413   0.513
 1885SOL     OW 6040   1.547   3.946   1.729
 1885SOL    HW1 6041   1.542   3.983   1.821
 1885SOL    HW2 6042   1.475   3.877   1.717
 1886SOL     OW 6043   0.614   3.846   0.117
 1886SOL    HW1 6044   0.712   3.824   0.124
 1886SOL    HW2 6045   0.583   3.829   0.024
 1887SOL     OW 6046   0.781   3.988   1.749
 1887SOL    HW1 6047   0.848   3.927   1.792
 1887SOL    HW2 6048   0.708   4.007   1.814
 1888SOL     OW 6049   1.351   4.314   1.433
 1888SOL    HW1 6050   1.379   4.271   1.518
 1888SOL    HW2 6051   1.376   4.410   1.434
 1889SOL     OW 6052   0.803   5.126   0.924
 1889SOL    HW1 6053   0.893   5.140   0.882
 1889SOL    HW2 6054   0.732   5.128   0.853
 1890SOL     OW 6055   0.922   4.227   0.899
 1890SOL    HW1 6056   0.897   4.218   0.803
 1890SOL    HW2 6057   0.970   4.145   0.930
 1891SOL     OW 6058   0.539   3.788   0.512
 1891SOL    HW1 6059   0.458   3.789   0.570
 1891SOL    HW2 6060   0.542   3.871   0.457
 1892SOL     OW 6061   1.434   4.912   0.041
 1892SOL    HW1 6062   1.466   4.836   0.098
 1892SOL    HW2 6063   1.342   4.939   0.071
 1893SOL     OW 6064   0.297   3.759   0.171
 1893SOL    HW1 6065   0.346   3.843   0.150
 1893SOL    HW2 6066   0.359   3.694   0.216
 1894SOL     OW 6067   0.935   3.960   0.480
 1894SOL    HW1 6068   0.887   4.001   0.402
 1894SOL    HW2 6069   1.034   3.958   0.461
 1895SOL     OW 6070   1.076   4.407   1.464
 1895SOL    HW1 6071   0.996   4.346   1.467
 1895SOL    HW2 6072   1.157   4.354   1.440
 1896SOL     OW 6073   1.227   5.294   0.793
 1896SOL    HW1 6074   1.248   5.368   0.728
 1896SOL    HW2 6075   1.295   5.294   0.866
 1897SOL     OW 6076   0.459   4.876   0.741
 1897SOL    HW1 6077   0.388   4.849   0.806
 1897SOL    HW2 6078   0.433   4.848   0.648
 1898SOL     OW 6079   1.032   4.273   0.016
 1898SOL    HW1 6080   0.991   4.355  -0.023
 1898SOL    HW2 6081   1.096   4.299   0.089
 1899SOL     OW 6082   0.078   4.280   1.386
 1899SOL    HW1 6083   0.170   4.279   1.345
 1899SOL    HW2 6084   0.072   4.354   1.453
 1900SOL     OW 6085   0.561   3.946   1.147
 1900SOL    HW1 6086   0.599   3.862   1.184
 1900SOL    HW2 6087   0.473   3.965   1.191
 1901SOL     OW 6088   0.866   4.178   0.642
 1901SOL    HW1 6089   0.834   4.250   0.580
 1901SOL    HW2 6090   0.890   4.097   0.589
 1902SOL     OW 6091   1.017   3.763   0.753
 1902SOL    HW1 6092   0.945   3.768   0.684
 1902SOL    HW2 6093   0.993   3.694   0.822
 1903SOL     OW 6094   1.429   4.897   0.867
 1903SOL    HW1 6095   1.374   4.813   0.860
 1903SOL    HW2 6096   1.455   4.926   0.775
 1904SOL     OW 6097   1.466   4.314   0.992
 1904SOL    HW1 6098   1.436   4.219   0.999
 1904SOL    HW2 6099   1.539   4.330   1.058
 1905SOL     OW 6100   1.857   4.557   0.377
 1905SOL    HW1 6101   1.899   4.493   0.441
 1905SOL    HW2 6102   1.819   4.506   0.299
 1906SOL     OW 6103   0.488   5.109   0.174
 1906SOL    HW1 6104   0.401   5.094   0.221
 1906SOL    HW2 6105   0.471   5.135   0.079
 1907SOL     OW 6106   1.664   5.004   0.657
 1907SOL    HW1 6107   1.763   5.012   0.671
 1907SOL    HW2 6108   1.619   5.088   0.688
 1908SOL     OW 6109   1.390   4.299   0.078
 1908SOL    HW1 6110   1.336   4.278   0.159
 1908SOL    HW2 6111   1.481   4.258   0.087
 1909SOL     OW 6112   0.527   3.980   0.328
 1909SOL    HW1 6113   0.554   3.921   0.253
 1909SOL    HW2 6114   0.527   4.075   0.297
 1910SOL     OW 6115   1.754   4.947   1.588
 1910SOL    HW1 6116   1.845   4.908   1.575
 1910SOL    HW2 6117   1.762   5.043   1.612
 1911SOL     OW 6118   1.064   5.071   1.340
 1911SOL    HW1 6119   0.984   5.048   1.395
 1911SOL    HW2 6120   1.147   5.045   1.389
 1912SOL     OW 6121   1.111   4.919   1.100
 1912SOL    HW1 6122   1.071   4.963   1.181
 1912SOL    HW2 6123   1.070   4.956   1.017
 1913SOL     OW 6124   1.638   4.823   1.079
 1913SOL    HW1 6125   1.643   4.904   1.138
 1913SOL    HW2 6126   1.552   4.825   1.028
 1914SOL     OW 6127   0.915   3.813   1.402
 1914SOL    HW1 6128   0.940   3.793   1.307
 1914SOL    HW2 6129   0.987   3.869   1.444
 1915SOL     OW 6130   0.980   4.840   1.719
 1915SOL    HW1 6131   0.881   4.846   1.729
 1915SOL    HW2 6132   1.003   4.760   1.663
 1916SOL     OW 6133   0.705   4.774   0.368
 1916SOL    HW1 6134   0.691   4.781   0.467
 1916SOL    HW2 6135   0.789   4.723   0.350
 1917SOL     OW 6136   0.410   4.537   1.251
 1917SOL    HW1 6137   0.496   4.549   1.301
 1917SOL    HW2 6138   0.368   4.450   1.278
 1918SOL     OW 6139   1.274   4.110   1.262
 1918SOL    HW1 6140   1.295   4.184   1.326
 1918SOL    HW2 6141   1.185   4.127   1.219
 1919SOL     OW 6142   0.064   5.288   1.331
 1919SOL    HW1 6143   0.018   5.370   1.297
 1919SOL    HW2 6144   0.162   5.307   1.340
 1920SOL     OW 6145   0.367   4.824   0.501
 1920SOL    HW1 6146   0.360   4.907   0.445
 1920SOL    HW2 6147   0.371   4.744   0.441
 1921SOL     OW 6148   0.566   4.261   0.865
 1921SOL    HW1 6149   0.578   4.327   0.791
 1921SOL    HW2 6150   0.612   4.295   0.948
 1922SOL     OW 6151   1.252   5.072   0.388
 1922SOL    HW1 6152   1.302   5.149   0.428
 1922SOL    HW2 6153   1.157   5.074   0.420
 1923SOL     OW 6154   1.272   5.169   1.142
 1923SOL    HW1 6155   1.319   5.182   1.229
 1923SOL    HW2 6156   1.206   5.095   1.151
 1924SOL     OW 6157   1.582   4.363   0.472
 1924SOL    HW1 6158   1.551   4.424   0.545
 1924SOL    HW2 6159   1.632   4.415   0.403
 1925SOL     OW 6160   0.354   5.234   1.329
 1925SOL    HW1 6161   0.333   5.190   1.242
 1925SOL    HW2 6162   0.451   5.260   1.332
 1926SOL     OW 6163   0.402   4.475   1.598
 1926SOL    HW1 6164   0.470   4.530   1.551
 1926SOL    HW2 6165   0.442   4.387   1.625
 1927SOL     OW 6166   1.587   4.503   1.670
 1927SOL    HW1 6167   1.495   4.541   1.665
 1927SOL    HW2 6168   1.647   4.550   1.605
 1928SOL     OW 6169   1.013   3.829   1.770
 1928SOL    HW1 6170   1.019   3.914   1.718
 1928SOL    HW2 6171   1.045   3.753   1.713
 1929SOL     OW 6172   0.504   3.774   1.740
 1929SOL    HW1 6173   0.462   3.717   1.670
 1929SOL    HW2 6174   0.438   3.843   1.772
 1930SOL     OW 6175   0.573   4.594   1.029
 1930SOL    HW1 6176   0.617   4.683   1.020
 1930SOL    HW2 6177   0.510   4.594   1.106
 1931SOL     OW 6178   1.360   4.586   1.045
 1931SOL    HW1 6179   1.285   4.586   0.979
 1931SOL    HW2 6180   1.397   4.494   1.054
 1932SOL     OW 6181   1.209   4.249   0.275
 1932SOL    HW1 6182   1.222   4.165   0.329
 1932SOL    HW2 6183   1.180   4.323   0.335
 1933SOL     OW 6184   0.307   3.937   1.231
 1933SOL    HW1 6185   0.284   3.974   1.321
 1933SOL    HW2 6186   0.277   3.842   1.225
 1934SOL     OW 6187   0.037   5.034   1.282
 1934SOL    HW1 6188   0.090   4.985   1.350
 1934SOL    HW2 6189   0.059   5.132   1.287
 1935SOL     OW 6190   0.732   4.358   1.064
 1935SOL    HW1 6191   0.791   4.332   0.988
 1935SOL    HW2 6192   0.704   4.454   1.053
 1936SOL     OW 6193   1.728   4.659   1.854
 1936SOL    HW1 6194   1.682   4.652   1.765
 1936SOL    HW2 6195   1.666   4.703   1.920
 1937SOL     OW 6196   0.307   3.787   0.618
 1937SOL    HW1 6197   0.296   3.881   0.651
 1937SOL    HW2 6198   0.302   3.724   0.695
 1938SOL     OW 6199   1.622   4.091   0.374
 1938SOL    HW1 6200   1.624   4.015   0.438
 1938SOL    HW2 6201   1.574   4.168   0.414
 1939SOL     OW 6202   1.023   4.490   0.966
 1939SOL    HW1 6203   1.038   4.511   1.062
 1939SOL    HW2 6204   0.993   4.395   0.957
 1940SOL     OW 6205   1.859   5.242   1.605
 1940SOL    HW1 6206   1.873   5.269   1.510
 1940SOL    HW2 6207   1.942   5.264   1.658
 1941SOL     OW 6208   0.350   4.622   1.804
 1941SOL    HW1 6209   0.426   4.666   1.852
 1941SOL    HW2 6210   0.385   4.575   1.722
 1942SOL     OW 6211   1.540   3.998   0.125
 1942SOL    HW1 6212   1.479   3.923   0.148
 1942SOL    HW2 6213   1.562   4.050   0.208
 1943SOL     OW 6214   1.303   4.562   0.042
 1943SOL    HW1 6215   1.337   4.469   0.057
 1943SOL    HW2 6216   1.321   4.589  -0.053
 1944SOL     OW 6217   1.068   5.057   0.849
 1944SOL    HW1 6218   1.075   4.973   0.794
 1944SOL    HW2 6219   1.130   5.126   0.813
 1945SOL     OW 6220   0.319   4.534   0.949
 1945SOL    HW1 6221   0.412   4.570   0.954
 1945SOL    HW2 6222   0.313   4.449   1.001
 1946SOL     OW 6223   0.339   4.233   1.006
 1946SOL    HW1 6224   0.287   4.150   0.989
 1946SOL    HW2 6225   0.416   4.238   0.942
 1947SOL     OW 6226   1.138   4.104   1.678
 1947SOL    HW1 6227   1.093   4.167   1.742
 1947SOL    HW2 6228   1.231   4.135   1.661
 1948SOL     OW 6229   1.160   3.931   1.477
 1948SOL    HW1 6230   1.160   3.995   1.554
 1948SOL    HW2 6231   1.188   3.979   1.394
 1949SOL     OW 6232   0.008   5.050   0.200
 1949SOL    HW1 6233  -0.085   5.071   0.169
 1949SOL    HW2 6234   0.018   4.951   0.213
 1950SOL     OW 6235   1.002   4.520   1.238
 1950SOL    HW1 6236   1.043   4.488   1.324
 1950SOL    HW2 6237   0.906   4.493   1.235
 1951SOL     OW 6238   0.040   4.268   1.114
 1951SOL    HW1 6239   0.125   4.235   1.073
 1951SOL    HW2 6240   0.053   4.283   1.212
 1952SOL     OW 6241   0.189   4.244   1.722
 1952SOL    HW1 6242   0.248   4.204   1.652
 1952SOL    HW2 6243   0.131   4.315   1.681
 1953SOL     OW 6244   1.369   4.674   1.660
 1953SOL    HW1 6245   1.408   4.763   1.680
 1953SOL    HW2 6246   1.379   4.654   1.563
 1954SOL     OW 6247   0.815   4.296   0.325
 1954SOL    HW1 6248   0.822   4.207   0.279
 1954SOL    HW2 6249   0.721   4.330   0.317
 1955SOL     OW 6250   1.657   4.328   1.206
 1955SOL    HW1 6251   1.619   4.259   1.268
 1955SOL    HW2 6252   1.739   4.292   1.162
 1956SOL     OW 6253   0.252   5.288   1.744
 1956SOL    HW1 6254   0.222   5.345   1.820
 1956SOL    HW2 6255   0.245   5.191   1.770
 1957SOL     OW 6256   0.671   4.188   1.269
 1957SOL    HW1 6257   0.637   4.099   1.239
 1957SOL    HW2 6258   0.697   4.242   1.189
 1958SOL     OW 6259   0.473   4.224   0.191
 1958SOL    HW1 6260   0.534   4.304   0.195
 1958SOL    HW2 6261   0.378   4.255   0.198
 1959SOL     OW 6262   0.159   4.861   1.466
 1959SOL    HW1 6263   0.181   4.800   1.542
 1959SOL    HW2 6264   0.169   4.812   1.380
 1960SOL     OW 6265   1.347   4.783   1.234
 1960SOL    HW1 6266   1.371   4.720   1.160
 1960SOL    HW2 6267   1.257   4.823   1.216
 1961SOL     OW 6268   1.302   4.579   0.309
 1961SOL    HW1 6269   1.216   4.548   0.351
 1961SOL    HW2 6270   1.298   4.565   0.210
 1962SOL     OW 6271   0.083   4.982   1.022
 1962SOL    HW1 6272   0.078   4.981   1.122
 1962SOL    HW2 6273   0.000   4.941   0.984
 1963SOL     OW 6274   0.688   5.386   1.716
 1963SOL    HW1 6275   0.632   5.467   1.725
 1963SOL    HW2 6276   0.740   5.390   1.630
 1964SOL     OW 6277   0.903   3.810   0.133
 1964SOL    HW1 6278   0.954   3.811   0.047
 1964SOL    HW2 6279   0.959   3.768   0.204
 1965SOL     OW 6280   1.726   3.859   0.523
 1965SOL    HW1 6281   1.799   3.842   0.456
 1965SOL    HW2 6282   1.695   3.772   0.561
 1966SOL     OW 6283   1.280   4.651   0.672
 1966SOL    HW1 6284   1.340   4.570   0.674
 1966SOL    HW2 6285   1.320   4.720   0.612
 1967SOL     OW 6286   0.830   4.997   1.422
 1967SOL    HW1 6287   0.825   5.030   1.517
 1967SOL    HW2 6288   0.744   5.016   1.376
 1968SOL     OW 6289   1.841   3.899   0.963
 1968SOL    HW1 6290   1.880   3.814   0.927
 1968SOL    HW2 6291   1.743   3.901   0.944
 1969SOL     OW 6292   0.263   4.050   0.720
 1969SOL    HW1 6293   0.184   4.101   0.686
 1969SOL    HW2 6294   0.254   4.035   0.818
 1970SOL     OW 6295   1.194   5.336   0.031
 1970SOL    HW1 6296   1.200   5.243   0.068
 1970SOL    HW2 6297   1.135   5.336  -0.049
 1971SOL     OW 6298   0.822   4.726   1.372
 1971SOL    HW1 6299   0.862   4.725   1.280
 1971SOL    HW2 6300   0.832   4.818   1.412
 1972SOL     OW 6301   0.916   4.634   0.291
 1972SOL    HW1 6302   0.979   4.672   0.223
 1972SOL    HW2 6303   0.956   4.551   0.330
 1973SOL     OW 6304   0.372   5.012   1.490
 1973SOL    HW1 6305   0.359   5.105   1.456
 1973SOL    HW2 6306   0.288   4.960   1.477
 1974SOL     OW 6307   1.614   5.016   1.289
 1974SOL    HW1 6308   1.674   5.019   1.369
 1974SOL    HW2 6309   1.539   5.080   1.302
 1975SOL     OW 6310   1.039   4.822   0.696
 1975SOL    HW1 6311   0.969   4.775   0.750
 1975SOL    HW2 6312   1.098   4.754   0.653
 1976SOL     OW 6313   1.014   3.960   0.971
 1976SOL    HW1 6314   1.006   3.924   0.878
 1976SOL    HW2 6315   1.012   3.884   1.036
 1977SOL     OW 6316   1.709   4.109   1.381
 1977SOL    HW1 6317   1.782   4.178   1.385
 1977SOL    HW2 6318   1.737   4.034   1.322
 1978SOL     OW 6319   0.255   5.072   0.290
 1978SOL    HW1 6320   0.159   5.073   0.263
 1978SOL    HW2 6321   0.267   5.125   0.374
 1979SOL     OW 6322   0.105   4.737   1.726
 1979SOL    HW1 6323   0.028   4.704   1.780
 1979SOL    HW2 6324   0.190   4.707   1.768
 1980SOL     OW 6325   0.672   3.927   1.489
 1980SOL    HW1 6326   0.762   3.911   1.449
 1980SOL    HW2 6327   0.680   3.932   1.588
 1981SOL     OW 6328   0.075   4.069   0.033
 1981SOL    HW1 6329  -0.017   4.041   0.004
 1981SOL    HW2 6330   0.106   4.146  -0.023
 1982SOL     OW 6331   1.440   4.580   1.398
 1982SOL    HW1 6332   1.383   4.632   1.335
 1982SOL    HW2 6333   1.536   4.592   1.374
 1983SOL     OW 6334   0.072   3.890   0.318
 1983SOL    HW1 6335   0.055   3.973   0.264
 1983SOL    HW2 6336   0.162   3.853   0.296
 1984SOL     OW 6337   1.183   5.059   0.119
 1984SOL    HW1 6338   1.084   5.048   0.121
 1984SOL    HW2 6339   1.217   5.074   0.212
 1985SOL     OW 6340   0.613   4.566   1.431
 1985SOL    HW1 6341   0.669   4.647   1.414
 1985SOL    HW2 6342   0.672   4.486   1.434
 1986SOL     OW 6343   0.716   4.289   1.708
 1986SOL    HW1 6344   0.735   4.354   1.782
 1986SOL    HW2 6345   0.776   4.209   1.717
 1987SOL     OW 6346   1.450   4.944   1.633
 1987SOL    HW1 6347   1.441   4.934   1.732
 1987SOL    HW2 6348   1.546   4.937   1.607
 1988SOL     OW 6349   1.674   4.607   1.254
 1988SOL    HW1 6350   1.647   4.518   1.217
 1988SOL    HW2 6351   1.675   4.675   1.181
 1989SOL     OW 6352   1.225   4.049   0.449
 1989SOL    HW1 6353   1.290   3.975   0.438
 1989SOL    HW2 6354   1.245   4.099   0.533
 1990SOL     OW 6355   0.594   4.469   0.652
 1990SOL    HW1 6356   0.644   4.554   0.633
 1990SOL    HW2 6357   0.506   4.471   0.604
 1991SOL     OW 6358   1.777   4.066   1.642
 1991SOL    HW1 6359   1.760   4.097   1.548
 1991SOL    HW2 6360   1.693   4.029   1.680
 1992SOL     OW 6361   1.730   4.658   1.517
 1992SOL    HW1 6362   1.768   4.749   1.532
 1992SOL    HW2 6363   1.722   4.641   1.418
 1993SOL     OW 6364   0.859   5.098   0.016
 1993SOL    HW1 6365   0.813   5.113   0.104
 1993SOL    HW2 6366   0.903   5.183  -0.014
 1994SOL     OW 6367   0.859   4.680   0.861
 1994SOL    HW1 6368   0.913   4.611   0.909
 1994SOL    HW2 6369   0.827   4.749   0.927
 1995SOL     OW 6370   1.083   4.708   0.087
 1995SOL    HW1 6371   1.060   4.761   0.005
 1995SOL    HW2 6372   1.164   4.652   0.068
 1996SOL     OW 6373   0.221   5.038   1.844
 1996SOL    HW1 6374   0.156   4.965   1.823
 1996SOL    HW2 6375   0.225   5.052   1.942
 1997SOL     OW 6376   0.079   4.964   0.653
 1997SOL    HW1 6377   0.078   4.917   0.741
 1997SOL    HW2 6378   0.161   4.936   0.602
 1998SOL     OW 6379   0.672   5.115   1.624
 1998SOL    HW1 6380   0.594   5.065   1.662
 1998SOL    HW2 6381   0.669   5.210   1.655
 1999SOL     OW 6382   1.824   3.916   1.227
 1999SOL    HW1 6383   1.820   3.826   1.271
 1999SOL    HW2 6384   1.827   3.905   1.128
 2000SOL     OW 6385   0.428   4.148   0.520
 2000SOL    HW1 6386   0.458   4.076   0.458
 2000SOL    HW2 6387   0.389   4.108   0.603
 2001SOL     OW 6388   1.705   5.211   1.104
 2001SOL    HW1 6389   1.612   5.186   1.077
 2001SOL    HW2 6390   1.731   5.161   1.186
 2002SOL     OW 6391   0.317   4.271   1.280
 2002SOL    HW1 6392   0.355   4.212   1.352
 2002SOL    HW2 6393   0.357   4.245   1.192
 2003SOL     OW 6394   1.424   3.938   1.112
 2003SOL    HW1 6395   1.476   3.873   1.167
 2003SOL    HW2 6396   1.375   4.001   1.173
 2004SOL     OW 6397   1.001   3.758   1.154
 2004SOL    HW1 6398   0.938   3.686   1.123
 2004SOL    HW2 6399   1.094   3.722   1.154
 2005SOL     OW 6400   0.770   5.054   0.301
 2005SOL    HW1 6401   0.724   4.967   0.318
 2005SOL    HW2 6402   0.861   5.051   0.342
 2006SOL     OW 6403   0.618   5.291   1.284
 2006SOL    HW1 6404   0.613   5.373   1.341
 2006SOL    HW2 6405   0.707   5.288   1.239
 2007SOL     OW 6406   1.352   3.776   0.168
 2007SOL    HW1 6407   1.387   3.735   0.084
 2007SOL    HW2 6408   1.262   3.738   0.188
 2008SOL     OW 6409   1.300   4.177   0.691
 2008SOL    HW1 6410   1.241   4.257   0.695
 2008SOL    HW2 6411   1.315   4.142   0.784
 2009SOL     OW 6412   1.593   3.945   0.882
 2009SOL    HW1 6413   1.509   3.944   0.936
 2009SOL    HW2 6414   1.595   4.028   0.826
 2010SOL     OW 6415   0.039   4.801   0.300
 2010SOL    HW1 6416   0.138   4.790   0.291
 2010SOL    HW2 6417  -0.001   4.715   0.332
 2011SOL     OW 6418   0.230   4.352   1.975
 2011SOL    HW1 6419   0.137   4.350   2.012
 2011SOL    HW2 6420   0.231   4.313   1.883
 2012SOL     OW 6421   0.225   3.999   2.858
 2012SOL    HW1 6422   0.260   3.982   2.950
 2012SOL    HW2 6423   0.137   3.954   2.846
 2013SOL     OW 6424   0.019   4.092   2.509
 2013SOL    HW1 6425  -0.063   4.135   2.548
 2013SOL    HW2 6426  -0.009   4.019   2.446
 2014SOL     OW 6427   0.569   4.999   3.027
 2014SOL    HW1 6428   0.476   4.992   2.990
 2014SOL    HW2 6429   0.580   5.088   3.071
 2015SOL     OW 6430   1.555   5.235   2.565
 2015SOL    HW1 6431   1.498   5.219   2.646
 2015SOL    HW2 6432   1.496   5.245   2.485
 2016SOL     OW 6433   1.135   4.427   2.579
 2016SOL    HW1 6434   1.192   4.505   2.554
 2016SOL    HW2 6435   1.075   4.453   2.655
 2017SOL     OW 6436   1.755   4.331   2.093
 2017SOL    HW1 6437   1.743   4.318   1.994
 2017SOL    HW2 6438   1.725   4.250   2.142
 2018SOL     OW 6439   0.768   4.868   2.885
 2018SOL    HW1 6440   0.690   4.885   2.945
 2018SOL    HW2 6441   0.802   4.955   2.849
 2019SOL     OW 6442   0.850   4.522   3.685
 2019SOL    HW1 6443   0.846   4.598   3.750
 2019SOL    HW2 6444   0.872   4.558   3.594
 2020SOL     OW 6445   0.685   4.736   2.527
 2020SOL    HW1 6446   0.754   4.720   2.597
 2020SOL    HW2 6447   0.612   4.793   2.565
 2021SOL     OW 6448   0.686   4.885   3.665
 2021SOL    HW1 6449   0.746   4.964   3.679
 2021SOL    HW2 6450   0.600   4.916   3.624
 2022SOL     OW 6451   0.335   5.159   2.923
 2022SOL    HW1 6452   0.257   5.128   2.870
 2022SOL    HW2 6453   0.393   5.217   2.866
 2023SOL     OW 6454   1.460   5.229   3.201
 2023SOL    HW1 6455   1.484   5.323   3.227
 2023SOL    HW2 6456   1.444   5.175   3.283
 2024SOL     OW 6457   0.438   4.116   3.361
 2024SOL    HW1 6458   0.520   4.060   3.370
 2024SOL    HW2 6459   0.357   4.058   3.365
 2025SOL     OW 6460   1.603   4.171   2.599
 2025SOL    HW1 6461   1.529   4.217   2.549
 2025SOL    HW2 6462   1.654   4.239   2.652
 2026SOL     OW 6463   1.127   5.065   3.552
 2026SOL    HW1 6464   1.174   5.065   3.640
 2026SOL    HW2 6465   1.079   4.978   3.541
 2027SOL     OW 6466   0.230   5.158   2.400
 2027SOL    HW1 6467   0.204   5.254   2.400
 2027SOL    HW2 6468   0.159   5.104   2.445
 2028SOL     OW 6469   0.240   4.815   2.748
 2028SOL    HW1 6470   0.254   4.731   2.800
 2028SOL    HW2 6471   0.185   4.879   2.803
 2029SOL     OW 6472   0.606   4.688   1.985
 2029SOL    HW1 6473   0.613   4.772   1.931
 2029SOL    HW2 6474   0.652   4.701   2.073
 2030SOL     OW 6475   1.594   3.838   3.342
 2030SOL    HW1 6476   1.576   3.905   3.270
 2030SOL    HW2 6477   1.591   3.884   3.431
 2031SOL     OW 6478   0.122   4.367   2.425
 2031SOL    HW1 6479   0.077   4.279   2.442
 2031SOL    HW2 6480   0.121   4.421   2.509
 2032SOL     OW 6481   0.027   5.320   1.979
 2032SOL    HW1 6482   0.008   5.224   2.000
 2032SOL    HW2 6483  -0.006   5.378   2.054
 2033SOL     OW 6484   1.689   4.646   2.474
 2033SOL    HW1 6485   1.784   4.617   2.482
 2033SOL    HW2 6486   1.681   4.711   2.399
 2034SOL     OW 6487   1.641   4.832   2.294
 2034SOL    HW1 6488   1.727   4.834   2.242
 2034SOL    HW2 6489   1.655   4.879   2.382
 2035SOL     OW 6490   0.113   4.461   3.459
 2035SOL    HW1 6491   0.201   4.448   3.504
 2035SOL    HW2 6492   0.100   4.558   3.437
 2036SOL     OW 6493   0.613   5.089   2.588
 2036SOL    HW1 6494   0.564   5.002   2.597
 2036SOL    HW2 6495   0.590   5.132   2.501
 2037SOL     OW 6496   1.293   4.952   3.285
 2037SOL    HW1 6497   1.330   4.879   3.227
 2037SOL    HW2 6498   1.345   4.957   3.370
 2038SOL     OW 6499   0.809   3.728   2.364
 2038SOL    HW1 6500   0.849   3.819   2.355
 2038SOL    HW2 6501   0.709   3.736   2.370
 2039SOL     OW 6502   0.197   4.700   3.126
 2039SOL    HW1 6503   0.286   4.655   3.112
 2039SOL    HW2 6504   0.124   4.635   3.107
 2040SOL     OW 6505   1.525   4.723   2.052
 2040SOL    HW1 6506   1.462   4.647   2.065
 2040SOL    HW2 6507   1.573   4.741   2.138
 2041SOL     OW 6508   0.317   3.975   3.663
 2041SOL    HW1 6509   0.388   4.046   3.669
 2041SOL    HW2 6510   0.229   4.014   3.691
 2042SOL     OW 6511   1.466   5.141   2.815
 2042SOL    HW1 6512   1.407   5.147   2.895
 2042SOL    HW2 6513   1.451   5.053   2.769
 2043SOL     OW 6514   0.598   4.453   2.132
 2043SOL    HW1 6515   0.622   4.522   2.064
 2043SOL    HW2 6516   0.520   4.486   2.186
 2044SOL     OW 6517   1.281   4.069   2.806
 2044SOL    HW1 6518   1.195   4.019   2.793
 2044SOL    HW2 6519   1.343   4.015   2.862
 2045SOL     OW 6520   0.807   4.329   3.327
 2045SOL    HW1 6521   0.760   4.326   3.416
 2045SOL    HW2 6522   0.756   4.274   3.261
 2046SOL     OW 6523   1.394   4.193   3.536
 2046SOL    HW1 6524   1.374   4.236   3.624
 2046SOL    HW2 6525   1.472   4.131   3.545
 2047SOL     OW 6526   0.973   4.614   3.434
 2047SOL    HW1 6527   1.019   4.530   3.405
 2047SOL    HW2 6528   0.917   4.648   3.359
 2048SOL     OW 6529   0.991   4.134   3.104
 2048SOL    HW1 6530   0.914   4.168   3.158
 2048SOL    HW2 6531   0.957   4.083   3.025
 2049SOL     OW 6532   1.041   4.425   2.291
 2049SOL    HW1 6533   1.067   4.421   2.387
 2049SOL    HW2 6534   0.956   4.374   2.277
 2050SOL     OW 6535   0.076   4.535   2.651
 2050SOL    HW1 6536   0.175   4.523   2.660
 2050SOL    HW2 6537   0.052   4.630   2.672
 2051SOL     OW 6538   0.865   4.072   2.057
 2051SOL    HW1 6539   0.924   4.135   2.008
 2051SOL    HW2 6540   0.884   3.978   2.028
 2052SOL     OW 6541   1.719   4.309   3.693
 2052SOL    HW1 6542   1.693   4.398   3.657
 2052SOL    HW2 6543   1.717   4.241   3.620
 2053SOL     OW 6544   1.362   4.868   2.407
 2053SOL    HW1 6545   1.445   4.839   2.359
 2053SOL    HW2 6546   1.313   4.935   2.351
 2054SOL     OW 6547   0.550   3.920   2.747
 2054SOL    HW1 6548   0.545   3.915   2.847
 2054SOL    HW2 6549   0.552   4.016   2.718
 2055SOL     OW 6550   1.008   5.180   2.339
 2055SOL    HW1 6551   0.962   5.252   2.287
 2055SOL    HW2 6552   1.004   5.200   2.437
 2056SOL     OW 6553   1.795   4.790   2.735
 2056SOL    HW1 6554   1.733   4.775   2.659
 2056SOL    HW2 6555   1.743   4.801   2.820
 2057SOL     OW 6556   1.227   5.274   3.368
 2057SOL    HW1 6557   1.233   5.197   3.432
 2057SOL    HW2 6558   1.175   5.248   3.288
 2058SOL     OW 6559   0.321   4.667   2.104
 2058SOL    HW1 6560   0.403   4.706   2.062
 2058SOL    HW2 6561   0.294   4.585   2.055
 2059SOL     OW 6562   1.458   4.459   2.590
 2059SOL    HW1 6563   1.453   4.394   2.665
 2059SOL    HW2 6564   1.538   4.518   2.603
 2060SOL     OW 6565   0.461   4.990   3.589
 2060SOL    HW1 6566   0.411   4.991   3.503
 2060SOL    HW2 6567   0.398   4.972   3.665
 2061SOL     OW 6568   1.111   5.500   2.099
 2061SOL    HW1 6569   1.051   5.438   2.149
 2061SOL    HW2 6570   1.142   5.456   2.014
 2062SOL     OW 6571   0.202   4.009   3.360
 2062SOL    HW1 6572   0.122   4.069   3.347
 2062SOL    HW2 6573   0.192   3.960   3.446
 2063SOL     OW 6574   1.632   5.101   1.943
 2063SOL    HW1 6575   1.600   5.195   1.933
 2063SOL    HW2 6576   1.556   5.038   1.931
 2064SOL     OW 6577   1.400   3.831   2.288
 2064SOL    HW1 6578   1.376   3.794   2.198
 2064SOL    HW2 6579   1.499   3.847   2.292
 2065SOL     OW 6580   0.382   4.424   2.342
 2065SOL    HW1 6581   0.427   4.334   2.339
 2065SOL    HW2 6582   0.288   4.413   2.375
 2066SOL     OW 6583   1.547   3.946   3.591
 2066SOL    HW1 6584   1.542   3.983   3.683
 2066SOL    HW2 6585   1.475   3.877   3.579
 2067SOL     OW 6586   0.614   3.846   1.979
 2067SOL    HW1 6587   0.712   3.824   1.986
 2067SOL    HW2 6588   0.583   3.829   1.886
 2068SOL     OW 6589   0.781   3.988   3.611
 2068SOL    HW1 6590   0.848   3.927   3.654
 2068SOL    HW2 6591   0.708   4.007   3.676
 2069SOL     OW 6592   1.351   4.314   3.295
 2069SOL    HW1 6593   1.379   4.271   3.380
 2069SOL    HW2 6594   1.376   4.410   3.296
 2070SOL     OW 6595   0.803   5.126   2.786
 2070SOL    HW1 6596   0.893   5.140   2.744
 2070SOL    HW2 6597   0.732   5.128   2.715
 2071SOL     OW 6598   0.922   4.227   2.761
 2071SOL    HW1 6599   0.897   4.218   2.665
 2071SOL    HW2 6600   0.970   4.145   2.792
 2072SOL     OW 6601   0.539   3.788   2.374
 2072SOL    HW1 6602   0.458   3.789   2.432
 2072SOL    HW2 6603   0.542   3.871   2.319
 2073SOL     OW 6604   1.434   4.912   1.903
 2073SOL    HW1 6605   1.466   4.836   1.960
 2073SOL    HW2 6606   1.342   4.939   1.933
 2074SOL     OW 6607   0.297   3.759   2.033
 2074SOL    HW1 6608   0.346   3.843   2.012
 2074SOL    HW2 6609   0.359   3.694   2.078
 2075SOL     OW 6610   0.935   3.960   2.342
 2075SOL    HW1 6611   0.887   4.001   2.264
 2075SOL    HW2 6612   1.034   3.958   2.323
 2076SOL     OW 6613   1.076   4.407   3.326
 2076SOL    HW1 6614   0.996   4.346   3.329
 2076SOL    HW2 6615   1.157   4.354   3.302
 2077SOL     OW 6616   1.227   5.294   2.655
 2077SOL    HW1 6617   1.248   5.368   2.590
 2077SOL    HW2 6618   1.295   5.294   2.728
 2078SOL     OW 6619   0.459   4.876   2.603
 2078SOL    HW1 6620   0.388   4.849   2.668
 2078SOL    HW2 6621   0.433   4.848   2.510
 2079SOL     OW 6622   1.032   4.273   1.878
 2079SOL    HW1 6623   0.991   4.355   1.839
 2079SOL    HW2 6624   1.096   4.299   1.951
 2080SOL     OW 6625   0.078   4.280   3.248
 2080SOL    HW1 6626   0.170   4.279   3.207
 2080SOL    HW2 6627   0.072   4.354   3.315
 2081SOL     OW 6628   0.561   3.946   3.009
 2081SOL    HW1 6629   0.599   3.862   3.046
 2081SOL    HW2 6630   0.473   3.965   3.053
 2082SOL     OW 6631   0.866   4.178   2.504
 2082SOL    HW1 6632   0.834   4.250   2.442
 2082SOL    HW2 6633   0.890   4.097   2.451
 2083SOL     OW 6634   1.017   3.763   2.615
 2083SOL    HW1 6635   0.945   3.768   2.546
 2083SOL    HW2 6636   0.993   3.694   2.684
 2084SOL     OW 6637   1.429   4.897   2.729
 2084SOL    HW1 6638   1.374   4.813   2.722
 2084SOL    HW2 6639   1.455   4.926   2.637
 2085SOL     OW 6640   1.466   4.314   2.854
 2085SOL    HW1 6641   1.436   4.219   2.861
 2085SOL    HW2 6642   1.539   4.330   2.920
 2086SOL     OW 6643   1.857   4.557   2.239
 2086SOL    HW1 6644   1.899   4.493   2.303
 2086SOL    HW2 6645   1.819   4.506   2.161
 2087SOL     OW 6646   0.488   5.109   2.036
 2087SOL    HW1 6647   0.401   5.094   2.083
 2087SOL    HW2 6648   0.471   5.135   1.941
 2088SOL     OW 6649   1.664   5.004   2.519
 2088SOL    HW1 6650   1.763   5.012   2.533
 2088SOL    HW2 6651   1.619   5.088   2.550
 2089SOL     OW 6652   1.390   4.299   1.940
 2089SOL    HW1 6653   1.336   4.278   2.021
 2089SOL    HW2 6654   1.481   4.258   1.949
 2090SOL     OW 6655   0.527   3.980   2.190
 2090SOL    HW1 6656   0.554   3.921   2.115
 2090SOL    HW2 6657   0.527   4.075   2.159
 2091SOL     OW 6658   1.754   4.947   3.450
 2091SOL    HW1 6659   1.845   4.908   3.437
 2091SOL    HW2 6660   1.762   5.043   3.474
 2092SOL     OW 6661   1.064   5.071   3.202
 2092SOL    HW1 6662   0.984   5.048   3.257
 2092SOL    HW2 6663   1.147   5.045   3.251
 2093SOL     OW 6664   1.111   4.919   2.962
 2093SOL    HW1 6665   1.071   4.963   3.043
 2093SOL    HW2 6666   1.070   4.956   2.879
 2094SOL     OW 6667   1.638   4.823   2.941
 2094SOL    HW1 6668   1.643   4.904   3.000
 2094SOL    HW2 6669   1.552   4.825   2.890
 2095SOL     OW 6670   0.915   3.813   3.264
 2095SOL    HW1 6671   0.940   3.793   3.169
 2095SOL    HW2 6672   0.987   3.869   3.306
 2096SOL     OW 6673   0.980   4.840   3.581
 2096SOL    HW1 6674   0.881   4.846   3.591
 2096SOL    HW2 6675   1.003   4.760   3.525
 2097SOL     OW 6676   0.705   4.774   2.230
 2097SOL    HW1 6677   0.691   4.781   2.329
 2097SOL    HW2 6678   0.789   4.723   2.212
 2098SOL     OW 6679   0.410   4.537   3.113
 2098SOL    HW1 6680   0.496   4.549   3.163
 2098SOL    HW2 6681   0.368   4.450   3.140
 2099SOL     OW 6682   1.274   4.110   3.124
 2099SOL    HW1 6683   1.295   4.184   3.188
 2099SOL    HW2 6684   1.185   4.127   3.081
 2100SOL     OW 6685   0.064   5.288   3.193
 2100SOL    HW1 6686   0.018   5.370   3.159
 2100SOL    HW2 6687   0.162   5.307   3.202
 2101SOL     OW 6688   0.367   4.824   2.363
 2101SOL    HW1 6689   0.360   4.907   2.307
 2101SOL    HW2 6690   0.371   4.744   2.303
 2102SOL     OW 6691   0.566   4.261   2.727
 2102SOL    HW1 6692   0.578   4.327   2.653
 2102SOL    HW2 6693   0.612   4.295   2.810
 2103SOL     OW 6694   1.252   5.072   2.250
 2103SOL    HW1 6695   1.302   5.149   2.290
 2103SOL    HW2 6696   1.157   5.074   2.282
 2104SOL     OW 6697   1.272   5.169   3.004
 2104SOL    HW1 6698   1.319   5.182   3.091
 2104SOL    HW2 6699   1.206   5.095   3.013
 2105SOL     OW 6700   1.582   4.363   2.334
 2105SOL    HW1 6701   1.551   4.424   2.407
 2105SOL    HW2 6702   1.632   4.415   2.265
 2106SOL     OW 6703   0.354   5.234   3.191
 2106SOL    HW1 6704   0.333   5.190   3.104
 2106SOL    HW2 6705   0.451   5.260   3.194
 2107SOL     OW 6706   0.402   4.475   3.460
 2107SOL    HW1 6707   0.470   4.530   3.413
 2107SOL    HW2 6708   0.442   4.387   3.487
 2108SOL     OW 6709   1.587   4.503   3.532
 2108SOL    HW1 6710   1.495   4.541   3.527
 2108SOL    HW2 6711   1.647   4.550   3.467
 2109SOL     OW 6712   1.013   3.829   3.632
 2109SOL    HW1 6713   1.019   3.914   3.580
 2109SOL    HW2 6714   1.045   3.753   3.575
 2110SOL     OW 6715   0.504   3.774   3.602
 2110SOL    HW1 6716   0.462   3.717   3.532
 2110SOL    HW2 6717   0.438   3.843   3.634
 2111SOL     OW 6718   0.573   4.594   2.891
 2111SOL    HW1 6719   0.617   4.683   2.882
 2111SOL    HW2 6720   0.510   4.594   2.968
 2112SOL     OW 6721   1.360   4.586   2.907
 2112SOL    HW1 6722   1.285   4.586   2.841
 2112SOL    HW2 6723   1.397   4.494   2.916
 2113SOL     OW 6724   1.209   4.249   2.137
 2113SOL    HW1 6725   1.222   4.165   2.191
 2113SOL    HW2 6726   1.180   4.323   2.197
 2114SOL     OW 6727   0.307   3.937   3.093
 2114SOL    HW1 6728   0.284   3.974   3.183
 2114SOL    HW2 6729   0.277   3.842   3.087
 2115SOL     OW 6730   0.037   5.034   3.144
 2115SOL    HW1 6731   0.090   4.985   3.212
 2115SOL    HW2 6732   0.059   5.132   3.149
 2116SOL     OW 6733   0.732   4.358   2.926
 2116SOL    HW1 6734   0.791   4.332   2.850
 2116SOL    HW2 6735   0.704   4.454   2.915
 2117SOL     OW 6736   1.728   4.659   3.716
 2117SOL    HW1 6737   1.682   4.652   3.627
 2117SOL    HW2 6738   1.666   4.703   3.782
 2118SOL     OW 6739   0.307   3.787   2.480
 2118SOL    HW1 6740   0.296   3.881   2.513
 2118SOL    HW2 6741   0.302   3.724   2.557
 2119SOL     OW 6742   1.622   4.091   2.236
 2119SOL    HW1 6743   1.624   4.015   2.300
 2119SOL    HW2 6744   1.574   4.168   2.276
 2120SOL     OW 6745   1.023   4.490   2.828
 2120SOL    HW1 6746   1.038   4.511   2.924
 2120SOL    HW2 6747   0.993   4.395   2.819
 2121SOL     OW 6748   1.859   5.242   3.467
 2121SOL    HW1 6749   1.873   5.269   3.372
 2121SOL    HW2 6750   1.942   5.264   3.520
 2122SOL     OW 6751   0.350   4.622   3.666
 2122SOL    HW1 6752   0.426   4.666   3.714
 2122SOL    HW2 6753   0.385   4.575   3.584
 2123SOL     OW 6754   1.540   3.998   1.987
 2123SOL    HW1 6755   1.479   3.923   2.010
 2123SOL    HW2 6756   1.562   4.050   2.070
 2124SOL     OW 6757   1.303   4.562   1.904
 2124SOL    HW1 6758   1.337   4.469   1.919
 2124SOL    HW2 6759   1.321   4.589   1.809
 2125SOL     OW 6760   1.068   5.057   2.711
 2125SOL    HW1 6761   1.075   4.973   2.656
 2125SOL    HW2 6762   1.130   5.126   2.675
 2126SOL     OW 6763   0.319   4.534   2.811
 2126SOL    HW1 6764   0.412   4.570   2.816
 2126SOL    HW2 6765   0.313   4.449   2.863
 2127SOL     OW 6766   0.339   4.233   2.868
 2127SOL    HW1 6767   0.287   4.150   2.851
 2127SOL    HW2 6768   0.416   4.238   2.804
 2128SOL     OW 6769   1.138   4.104   3.540
 2128SOL    HW1 6770   1.093   4.167   3.604
 2128SOL    HW2 6771   1.231   4.135   3.523
 2129SOL     OW 6772   1.160   3.931   3.339
 2129SOL    HW1 6773   1.160   3.995   3.416
 2129SOL    HW2 6774   1.188   3.979   3.256
 2130SOL     OW 6775   0.008   5.050   2.062
 2130SOL    HW1 6776  -0.085   5.071   2.031
 2130SOL    HW2 6777   0.018   4.951   2.075
 2131SOL     OW 6778   1.002   4.520   3.100
 2131SOL    HW1 6779   1.043   4.488   3.186
 2131SOL    HW2 6780   0.906   4.493   3.097
 2132SOL     OW 6781   0.040   4.268   2.976
 2132SOL    HW1 6782   0.125   4.235   2.935
 2132SOL    HW2 6783   0.053   4.283   3.074
 2133SOL     OW 6784   0.189   4.244   3.584
 2133SOL    HW1 6785   0.248   4.204   3.514
 2133SOL    HW2 6786   0.131   4.315   3.543
 2134SOL     OW 6787   1.369   4.674   3.522
 2134SOL    HW1 6788   1.408   4.763   3.542
 2134SOL    HW2 6789   1.379   4.654   3.425
 2135SOL     OW 6790   0.815   4.296   2.187
 2135SOL    HW1 6791   0.822   4.207   2.141
 2135SOL    HW2 6792   0.721   4.330   2.179
 2136SOL     OW 6793   1.657   4.328   3.068
 2136SOL    HW1 6794   1.619   4.259   3.130
 2136SOL    HW2 6795   1.739   4.292   3.024
 2137SOL     OW 6796   0.252   5.288   3.606
 2137SOL    HW1 6797   0.222   5.345   3.682
 2137SOL    HW2 6798   0.245   5.191   3.632
 2138SOL     OW 6799   0.671   4.188   3.131
 2138SOL    HW1 6800   0.637   4.099   3.101
 2138SOL    HW2 6801   0.697   4.242   3.051
 2139SOL     OW 6802   0.473   4.224   2.053
 2139SOL    HW1 6803   0.534   4.304   2.057
 2139SOL    HW2 6804   0.378   4.255   2.060
 2140SOL     OW 6805   0.159   4.861   3.328
 2140SOL    HW1 6806   0.181   4.800   3.404
 2140SOL    HW2 6807   0.169   4.812   3.242
 2141SOL     OW 6808   1.347   4.783   3.096
 2141SOL    HW1 6809   1.371   4.720   3.022
 2141SOL    HW2 6810   1.257   4.823   3.078
 2142SOL     OW 6811   1.302   4.579   2.171
 2142SOL    HW1 6812   1.216   4.548   2.213
 2142SOL    HW2 6813   1.298   4.565   2.072
 2143SOL     OW 6814   0.083   4.982   2.884
 2143SOL    HW1 6815   0.078   4.981   2.984
 2143SOL    HW2 6816   0.000   4.941   2.846
 2144SOL     OW 6817   0.688   5.386   3.578
 2144SOL    HW1 6818   0.632   5.467   3.587
 2144SOL    HW2 6819   0.740   5.390   3.492
 2145SOL     OW 6820   1.726   3.859   2.385
 2145SOL    HW1 6821   1.799   3.842   2.318
 2145SOL    HW2 6822   1.695   3.772   2.423
 2146SOL     OW 6823   1.280   4.651   2.534
 2146SOL    HW1 6824   1.340   4.570   2.536
 2146SOL    HW2 6825   1.320   4.720   2.474
 2147SOL     OW 6826   0.830   4.997   3.284
 2147SOL    HW1 6827   0.825   5.030   3.379
 2147SOL    HW2 6828   0.744   5.016   3.238
 2148SOL     OW 6829   1.841   3.899   2.825
 2148SOL    HW1 6830   1.880   3.814   2.789
 2148SOL    HW2 6831   1.743   3.901   2.806
 2149SOL     OW 6832   0.263   4.050   2.582
 2149SOL    HW1 6833   0.184   4.101   2.548
 2149SOL    HW2 6834   0.254   4.035   2.680
 2150SOL     OW 6835   0.822   4.726   3.234
 2150SOL    HW1 6836   0.862   4.725   3.142
 2150SOL    HW2 6837   0.832   4.818   3.274
 2151SOL     OW 6838   0.916   4.634   2.153
 2151SOL    HW1 6839   0.979   4.672   2.085
 2151SOL    HW2 6840   0.956   4.551   2.192
 2152SOL     OW 6841   0.372   5.012   3.352
 2152SOL    HW1 6842   0.359   5.105   3.318
 2152SOL    HW2 6843   0.288   4.960   3.339
 2153SOL     OW 6844   1.614   5.016   3.151
 2153SOL    HW1 6845   1.674   5.019   3.231
 2153SOL    HW2 6846   1.539   5.080   3.164
 2154SOL     OW 6847   1.039   4.822   2.558
 2154SOL    HW1 6848   0.969   4.775   2.612
 2154SOL    HW2 6849   1.098   4.754   2.515
 2155SOL     OW 6850   1.014   3.960   2.833
 2155SOL    HW1 6851   1.006   3.924   2.740
 2155SOL    HW2 6852   1.012   3.884   2.898
 2156SOL     OW 6853   1.709   4.109   3.243
 2156SOL    HW1 6854   1.782   4.178   3.247
 2156SOL    HW2 6855   1.737   4.034   3.184
 2157SOL     OW 6856   0.255   5.072   2.152
 2157SOL    HW1 6857   0.159   5.073   2.125
 2157SOL    HW2 6858   0.267   5.125   2.236
 2158SOL     OW 6859   0.105   4.737   3.588
 2158SOL    HW1 6860   0.028   4.704   3.642
 2158SOL    HW2 6861   0.190   4.707   3.630
 2159SOL     OW 6862   0.672   3.927   3.351
 2159SOL    HW1 6863   0.762   3.911   3.311
 2159SOL    HW2 6864   0.680   3.932   3.450
 2160SOL     OW 6865   0.075   4.069   1.895
 2160SOL    HW1 6866  -0.017   4.041   1.866
 2160SOL    HW2 6867   0.106   4.146   1.839
 2161SOL     OW 6868   1.440   4.580   3.260
 2161SOL    HW1 6869   1.383   4.632   3.197
 2161SOL    HW2 6870   1.536   4.592   3.236
 2162SOL     OW 6871   0.072   3.890   2.180
 2162SOL    HW1 6872   0.055   3.973   2.126
 2162SOL    HW2 6873   0.162   3.853   2.158
 2163SOL     OW 6874   1.183   5.059   1.981
 2163SOL    HW1 6875   1.084   5.048   1.983
 2163SOL    HW2 6876   1.217   5.074   2.074
 2164SOL     OW 6877   0.613   4.566   3.293
 2164SOL    HW1 6878   0.669   4.647   3.276
 2164SOL    HW2 6879   0.672   4.486   3.296
 2165SOL     OW 6880   0.716   4.289   3.570
 2165SOL    HW1 6881   0.735   4.354   3.644
 2165SOL    HW2 6882   0.776   4.209   3.579
 2166SOL     OW 6883   1.450   4.944   3.495
 2166SOL    HW1 6884   1.441   4.934   3.594
 2166SOL    HW2 6885   1.546   4.937   3.469
 2167SOL     OW 6886   1.674   4.607   3.116
 2167SOL    HW1 6887   1.647   4.518   3.079
 2167SOL    HW2 6888   1.675   4.675   3.043
 2168SOL     OW 6889   1.225   4.049   2.311
 2168SOL    HW1 6890   1.290   3.975   2.300
 2168SOL    HW2 6891   1.245   4.099   2.395
 2169SOL     OW 6892   0.594   4.469   2.514
 2169SOL    HW1 6893   0.644   4.554   2.495
 2169SOL    HW2 6894   0.506   4.471   2.466
 2170SOL     OW 6895   1.777   4.066   3.504
 2170SOL    HW1 6896   1.760   4.097   3.410
 2170SOL    HW2 6897   1.693   4.029   3.542
 2171SOL     OW 6898   1.730   4.658   3.379
 2171SOL    HW1 6899   1.768   4.749   3.394
 2171SOL    HW2 6900   1.722   4.641   3.280
 2172SOL     OW 6901   0.859   5.098   1.878
 2172SOL    HW1 6902   0.813   5.113   1.966
 2172SOL    HW2 6903   0.903   5.183   1.848
 2173SOL     OW 6904   0.859   4.680   2.723
 2173SOL    HW1 6905   0.913   4.611   2.771
 2173SOL    HW2 6906   0.827   4.749   2.789
 2174SOL     OW 6907   1.083   4.708   1.949
 2174SOL    HW1 6908   1.060   4.761   1.867
 2174SOL    HW2 6909   1.164   4.652   1.930
 2175SOL     OW 6910   0.221   5.038   3.706
 2175SOL    HW1 6911   0.156   4.965   3.685
 2175SOL    HW2 6912   0.225   5.052   3.804
 2176SOL     OW 6913   0.079   4.964   2.515
 2176SOL    HW1 6914   0.078   4.917   2.603
 2176SOL    HW2 6915   0.161   4.936   2.464
 2177SOL     OW 6916   0.672   5.115   3.486
 2177SOL    HW1 6917   0.594   5.065   3.524
 2177SOL    HW2 6918   0.669   5.210   3.517
 2178SOL     OW 6919   1.824   3.916   3.089
 2178SOL    HW1 6920   1.820   3.826   3.133
 2178SOL    HW2 6921   1.827   3.905   2.990
 2179SOL     OW 6922   0.428   4.148   2.382
 2179SOL    HW1 6923   0.458   4.076   2.320
 2179SOL    HW2 6924   0.389   4.108   2.465
 2180SOL     OW 6925   1.705   5.211   2.966
 2180SOL    HW1 6926   1.612   5.186   2.939
 2180SOL    HW2 6927   1.731   5.161   3.048
 2181SOL     OW 6928   0.317   4.271   3.142
 2181SOL    HW1 6929   0.355   4.212   3.214
 2181SOL    HW2 6930   0.357   4.245   3.054
 2182SOL     OW 6931   1.424   3.938   2.974
 2182SOL    HW1 6932   1.476   3.873   3.029
 2182SOL    HW2 6933   1.375   4.001   3.035
 2183SOL     OW 6934   1.001   3.758   3.016
 2183SOL    HW1 6935   0.938   3.686   2.985
 2183SOL    HW2 6936   1.094   3.722   3.016
 2184SOL     OW 6937   0.770   5.054   2.163
 2184SOL    HW1 6938   0.724   4.967   2.180
 2184SOL    HW2 6939   0.861   5.051   2.204
 2185SOL     OW 6940   0.618   5.291   3.146
 2185SOL    HW1 6941   0.613   5.373   3.203
 2185SOL    HW2 6942   0.707   5.288   3.101
 2186SOL     OW 6943   1.352   3.776   2.030
 2186SOL    HW1 6944   1.387   3.735   1.946
 2186SOL    HW2 6945   1.262   3.738   2.050
 2187SOL     OW 6946   1.300   4.177   2.553
 2187SOL    HW1 6947   1.241   4.257   2.557
 2187SOL    HW2 6948   1.315   4.142   2.646
 2188SOL     OW 6949   1.593   3.945   2.744
 2188SOL    HW1 6950   1.509   3.944   2.798
 2188SOL    HW2 6951   1.595   4.028   2.688
 2189SOL     OW 6952   0.039   4.801   2.162
 2189SOL    HW1 6953   0.138   4.790   2.153
 2189SOL    HW2 6954  -0.001   4.715   2.194
 2190SOL     OW 6955   0.230   4.352   3.837
 2190SOL    HW1 6956   0.137   4.350   3.874
 2190SOL    HW2 6957   0.231   4.313   3.745
 2191SOL     OW 6958   0.225   3.999   4.720
 2191SOL    HW1 6959   0.260   3.982   4.812
 2191SOL    HW2 6960   0.137   3.954   4.708
 2192SOL     OW 6961   0.019   4.092   4.371
 2192SOL    HW1 6962  -0.063   4.135   4.410
 2192SOL    HW2 6963  -0.009   4.019   4.308
 2193SOL     OW 6964   0.569   4.999   4.889
 2193SOL    HW1 6965   0.476   4.992   4.852
 2193SOL    HW2 6966   0.580   5.088   4.933
 2194SOL     OW 6967   1.555   5.235   4.427
 2194SOL    HW1 6968   1.498   5.219   4.508
 2194SOL    HW2 6969   1.496   5.245   4.347
 2195SOL     OW 6970   1.135   4.427   4.441
 2195SOL    HW1 6971   1.192   4.505   4.416
 2195SOL    HW2 6972   1.075   4.453   4.517
 2196SOL     OW 6973   1.755   4.331   3.955
 2196SOL    HW1 6974   1.743   4.318   3.856
 2196SOL    HW2 6975   1.725   4.250   4.004
 2197SOL     OW 6976   0.768   4.868   4.747
 2197SOL    HW1 6977   0.690   4.885   4.807
 2197SOL    HW2 6978   0.802   4.955   4.711
 2198SOL     OW 6979   0.850   4.522   5.547
 2198SOL    HW1 6980   0.846   4.598   5.612
 2198SOL    HW2 6981   0.872   4.558   5.456
 2199SOL     OW 6982   0.685   4.736   4.389
 2199SOL    HW1 6983   0.754   4.720   4.459
 2199SOL    HW2 6984   0.612   4.793   4.427
 2200SOL     OW 6985   0.686   4.885   5.527
 2200SOL    HW1 6986   0.746   4.964   5.541
 2200SOL    HW2 6987   0.600   4.916   5.486
 2201SOL     OW 6988   0.335   5.159   4.785
 2201SOL    HW1 6989   0.257   5.128   4.732
 2201SOL    HW2 6990   0.393   5.217   4.728
 2202SOL     OW 6991   1.460   5.229   5.063
 2202SOL    HW1 6992   1.484   5.323   5.089
 2202SOL    HW2 6993   1.444   5.175   5.145
 2203SOL     OW 6994   0.438   4.116   5.223
 2203SOL    HW1 6995   0.520   4.060   5.232
 2203SOL    HW2 6996   0.357   4.058   5.227
 2204SOL     OW 6997   1.603   4.171   4.461
 2204SOL    HW1 6998   1.529   4.217   4.411
 2204SOL    HW2 6999   1.654   4.239   4.514
 2205SOL     OW 7000   1.127   5.065   5.414
 2205SOL    HW1 7001   1.174   5.065   5.502
 2205SOL    HW2 7002   1.079   4.978   5.403
 2206SOL     OW 7003   0.230   5.158   4.262
 2206SOL    HW1 7004   0.204   5.254   4.262
 2206SOL    HW2 7005   0.159   5.104   4.307
 2207SOL     OW 7006   0.240   4.815   4.610
 2207SOL    HW1 7007   0.254   4.731   4.662
 2207SOL    HW2 7008   0.185   4.879   4.665
 2208SOL     OW 7009   0.606   4.688   3.847
 2208SOL    HW1 7010   0.613   4.772   3.793
 2208SOL    HW2 7011   0.652   4.701   3.935
 2209SOL     OW 7012   1.594   3.838   5.204
 2209SOL    HW1 7013   1.576   3.905   5.132
 2209SOL    HW2 7014   1.591   3.884   5.293
 2210SOL     OW 7015   0.122   4.367   4.287
 2210SOL    HW1 7016   0.077   4.279   4.304
 2210SOL    HW2 7017   0.121   4.421   4.371
 2211SOL     OW 7018   0.027   5.320   3.841
 2211SOL    HW1 7019   0.008   5.224   3.862
 2211SOL    HW2 7020  -0.006   5.378   3.916
 2212SOL     OW 7021   1.689   4.646   4.336
 2212SOL    HW1 7022   1.784   4.617   4.344
 2212SOL    HW2 7023   1.681   4.711   4.261
 2213SOL     OW 7024   1.641   4.832   4.156
 2213SOL    HW1 7025   1.727   4.834   4.104
 2213SOL    HW2 7026   1.655   4.879   4.244
 2214SOL     OW 7027   0.113   4.461   5.321
 2214SOL    HW1 7028   0.201   4.448   5.366
 2214SOL    HW2 7029   0.100   4.558   5.299
 2215SOL     OW 7030   0.613   5.089   4.450
 2215SOL    HW1 7031   0.564   5.002   4.459
 2215SOL    HW2 7032   0.590   5.132   4.363
 2216SOL     OW 7033   1.293   4.952   5.147
 2216SOL    HW1 7034   1.330   4.879   5.089
 2216SOL    HW2 7035   1.345   4.957   5.232
 2217SOL     OW 7036   0.809   3.728   4.226
 2217SOL    HW1 7037   0.849   3.819   4.217
 2217SOL    HW2 7038   0.709   3.736   4.232
 2218SOL     OW 7039   0.197   4.700   4.988
 2218SOL    HW1 7040   0.286   4.655   4.974
 2218SOL    HW2 7041   0.124   4.635   4.969
 2219SOL     OW 7042   1.525   4.723   3.914
 2219SOL    HW1 7043   1.462   4.647   3.927
 2219SOL    HW2 7044   1.573   4.741   4.000
 2220SOL     OW 7045   0.317   3.975   5.525
 2220SOL    HW1 7046   0.388   4.046   5.531
 2220SOL    HW2 7047   0.229   4.014   5.553
 2221SOL     OW 7048   1.466   5.141   4.677
 2221SOL    HW1 7049   1.407   5.147   4.757
 2221SOL    HW2 7050   1.451   5.053   4.631
 2222SOL     OW 7051   0.598   4.453   3.994
 2222SOL    HW1 7052   0.622   4.522   3.926
 2222SOL    HW2 7053   0.520   4.486   4.048
 2223SOL     OW 7054   1.281   4.069   4.668
 2223SOL    HW1 7055   1.195   4.019   4.655
 2223SOL    HW2 7056   1.343   4.015   4.724
 2224SOL     OW 7057   0.807   4.329   5.189
 2224SOL    HW1 7058   0.760   4.326   5.278
 2224SOL    HW2 7059   0.756   4.274   5.123
 2225SOL     OW 7060   1.394   4.193   5.398
 2225SOL    HW1 7061   1.374   4.236   5.486
 2225SOL    HW2 7062   1.472   4.131   5.407
 2226SOL     OW 7063   0.973   4.614   5.296
 2226SOL    HW1 7064   1.019   4.530   5.267
 2226SOL    HW2 7065   0.917   4.648   5.221
 2227SOL     OW 7066   0.991   4.134   4.966
 2227SOL    HW1 7067   0.914   4.168   5.020
 2227SOL    HW2 7068   0.957   4.083   4.887
 2228SOL     OW 7069   1.041   4.425   4.153
 2228SOL    HW1 7070   1.067   4.421   4.249
 2228SOL    HW2 7071   0.956   4.374   4.139
 2229SOL     OW 7072   0.076   4.535   4.513
 2229SOL    HW1 7073   0.175   4.523   4.522
 2229SOL    HW2 7074   0.052   4.630   4.534
 2230SOL     OW 7075   0.865   4.072   3.919
 2230SOL    HW1 7076   0.924   4.135   3.870
 2230SOL    HW2 7077   0.884   3.978   3.890
 2231SOL     OW 7078   1.719   4.309   5.555
 2231SOL    HW1 7079   1.693   4.398   5.519
 2231SOL    HW2 7080   1.717   4.241   5.482
 2232SOL     OW 7081   1.362   4.868   4.269
 2232SOL    HW1 7082   1.445   4.839   4.221
 2232SOL    HW2 7083   1.313   4.935   4.213
 2233SOL     OW 7084   0.550   3.920   4.609
 2233SOL    HW1 7085   0.545   3.915   4.709
 2233SOL    HW2 7086   0.552   4.016   4.580
 2234SOL     OW 7087   1.008   5.180   4.201
 2234SOL    HW1 7088   0.962   5.252   4.149
 2234SOL    HW2 7089   1.004   5.200   4.299
 2235SOL     OW 7090   1.795   4.790   4.597
 2235SOL    HW1 7091   1.733   4.775   4.521
 2235SOL    HW2 7092   1.743   4.801   4.682
 2236SOL     OW 7093   1.227   5.274   5.230
 2236SOL    HW1 7094   1.233   5.197   5.294
 2236SOL    HW2 7095   1.175   5.248   5.150
 2237SOL     OW 7096   0.321   4.667   3.966
 2237SOL    HW1 7097   0.403   4.706   3.924
 2237SOL    HW2 7098   0.294   4.585   3.917
 2238SOL     OW 7099   1.458   4.459   4.452
 2238SOL    HW1 7100   1.453   4.394   4.527
 2238SOL    HW2 7101   1.538   4.518   4.465
 2239SOL     OW 7102   0.461   4.990   5.451
 2239SOL    HW1 7103   0.411   4.991   5.365
 2239SOL    HW2 7104   0.398   4.972   5.527
 2240SOL     OW 7105   1.111   5.500   3.961
 2240SOL    HW1 7106   1.051   5.438   4.011
 2240SOL    HW2 7107   1.142   5.456   3.876
 2241SOL     OW 7108   0.202   4.009   5.222
 2241SOL    HW1 7109   0.122   4.069   5.209
 2241SOL    HW2 7110   0.192   3.960   5.308
 2242SOL     OW 7111   1.632   5.101   3.805
 2242SOL    HW1 7112   1.600   5.195   3.795
 2242SOL    HW2 7113   1.556   5.038   3.793
 2243SOL     OW 7114   1.400   3.831   4.150
 2243SOL    HW1 7115   1.376   3.794   4.060
 2243SOL    HW2 7116   1.499   3.847   4.154
 2244SOL     OW 7117   0.382   4.424   4.204
 2244SOL    HW1 7118   0.427   4.334   4.201
 2244SOL    HW2 7119   0.288   4.413   4.237
 2245SOL     OW 7120   1.547   3.946   5.453
 2245SOL    HW1 7121   1.542   3.983   5.545
 2245SOL    HW2 7122   1.475   3.877   5.441
 2246SOL     OW 7123   0.614   3.846   3.841
 2246SOL    HW1 7124   0.712   3.824   3.848
 2246SOL    HW2 7125   0.583   3.829   3.748
 2247SOL     OW 7126   0.781   3.988   5.473
 2247SOL    HW1 7127   0.848   3.927   5.516
 2247SOL    HW2 7128   0.708   4.007   5.538
 2248SOL     OW 7129   1.351   4.314   5.157
 2248SOL    HW1 7130   1.379   4.271   5.242
 2248SOL    HW2 7131   1.376   4.410   5.158
 2249SOL     OW 7132   0.803   5.126   4.648
 2249SOL    HW1 7133   0.893   5.140   4.606
 2249SOL    HW2 7134   0.732   5.128   4.577
 2250SOL     OW 7135   0.922   4.227   4.623
 2250SOL    HW1 7136   0.897   4.218   4.527
 2250SOL    HW2 7137   0.970   4.145   4.654
 2251SOL     OW 7138   0.539   3.788   4.236
 2251SOL    HW1 7139   0.458   3.789   4.294
 2251SOL    HW2 7140   0.542   3.871   4.181
 2252SOL     OW 7141   1.434   4.912   3.765
 2252SOL    HW1 7142   1.466   4.836   3.822
 2252SOL    HW2 7143   1.342   4.939   3.795
 2253SOL     OW 7144   0.297   3.759   3.895
 2253SOL    HW1 7145   0.346   3.843   3.874
 2253SOL    HW2 7146   0.359   3.694   3.940
 2254SOL     OW 7147   0.935   3.960   4.204
 2254SOL    HW1 7148   0.887   4.001   4.126
 2254SOL    HW2 7149   1.034   3.958   4.185
 2255SOL     OW 7150   1.076   4.407   5.188
 2255SOL    HW1 7151   0.996   4.346   5.191
 2255SOL    HW2 7152   1.157   4.354   5.164
 2256SOL     OW 7153   1.227   5.294   4.517
 2256SOL    HW1 7154   1.248   5.368   4.452
 2256SOL    HW2 7155   1.295   5.294   4.590
 2257SOL     OW 7156   0.459   4.876   4.465
 2257SOL    HW1 7157   0.388   4.849   4.530
 2257SOL    HW2 7158   0.433   4.848   4.372
 2258SOL     OW 7159   1.032   4.273   3.740
 2258SOL    HW1 7160   0.991   4.355   3.701
 2258SOL    HW2 7161   1.096   4.299   3.813
 2259SOL     OW 7162   0.078   4.280   5.110
 2259SOL    HW1 7163   0.170   4.279   5.069
 2259SOL    HW2 7164   0.072   4.354   5.177
 2260SOL     OW 7165   0.561   3.946   4.871
 2260SOL    HW1 7166   0.599   3.862   4.908
 2260SOL    HW2 7167   0.473   3.965   4.915
 2261SOL     OW 7168   0.866   4.178   4.366
 2261SOL    HW1 7169   0.834   4.250   4.304
 2261SOL    HW2 7170   0.890   4.097   4.313
 2262SOL     OW 7171   1.017   3.763   4.477
 2262SOL    HW1 7172   0.945   3.768   4.408
 2262SOL    HW2 7173   0.993   3.694   4.546
 2263SOL     OW 7174   1.429   4.897   4.591
 2263SOL    HW1 7175   1.374   4.813   4.584
 2263SOL    HW2 7176   1.455   4.926   4.499
 2264SOL     OW 7177   1.466   4.314   4.716
 2264SOL    HW1 7178   1.436   4.219   4.723
 2264SOL    HW2 7179   1.539   4.330   4.782
 2265SOL     OW 7180   1.857   4.557   4.101
 2265SOL    HW1 7181   1.899   4.493   4.165
 2265SOL    HW2 7182   1.819   4.506   4.023
 2266SOL     OW 7183   0.488   5.109   3.898
 2266SOL    HW1 7184   0.401   5.094   3.945
 2266SOL    HW2 7185   0.471   5.135   3.803
 2267SOL     OW 7186   1.664   5.004   4.381
 2267SOL    HW1 7187   1.763   5.012   4.395
 2267SOL    HW2 7188   1.619   5.088   4.412
 2268SOL     OW 7189   1.390   4.299   3.802
 2268SOL    HW1 7190   1.336   4.278   3.883
 2268SOL    HW2 7191   1.481   4.258   3.811
 2269SOL     OW 7192   0.527   3.980   4.052
 2269SOL    HW1 7193   0.554   3.921   3.977
 2269SOL    HW2 7194   0.527   4.075   4.021
 2270SOL     OW 7195   1.754   4.947   5.312
 2270SOL    HW1 7196   1.845   4.908   5.299
 2270SOL    HW2 7197   1.762   5.043   5.336
 2271SOL     OW 7198   1.064   5.071   5.064
 2271SOL    HW1 7199   0.984   5.048   5.119
 2271SOL    HW2 7200   1.147   5.045   5.113
 2272SOL     OW 7201   1.111   4.919   4.824
 2272SOL    HW1 7202   1.071   4.963   4.905
 2272SOL    HW2 7203   1.070   4.956   4.741
 2273SOL     OW 7204   1.638   4.823   4.803
 2273SOL    HW1 7205   1.643   4.904   4.862
 2273SOL    HW2 7206   1.552   4.825   4.752
 2274SOL     OW 7207   0.915   3.813   5.126
 2274SOL    HW1 7208   0.940   3.793   5.031
 2274SOL    HW2 7209   0.987   3.869   5.168
 2275SOL     OW 7210   0.980   4.840   5.443
 2275SOL    HW1 7211   0.881   4.846   5.453
 2275SOL    HW2 7212   1.003   4.760   5.387
 2276SOL     OW 7213   0.705   4.774   4.092
 2276SOL    HW1 7214   0.691   4.781   4.191
 2276SOL    HW2 7215   0.789   4.723   4.074
 2277SOL     OW 7216   0.410   4.537   4.975
 2277SOL    HW1 7217   0.496   4.549   5.025
 2277SOL    HW2 7218   0.368   4.450   5.002
 2278SOL     OW 7219   1.274   4.110   4.986
 2278SOL    HW1 7220   1.295   4.184   5.050
 2278SOL    HW2 7221   1.185   4.127   4.943
 2279SOL     OW 7222   0.064   5.288   5.055
 2279SOL    HW1 7223   0.018   5.370   5.021
 2279SOL    HW2 7224   0.162   5.307   5.064
 2280SOL     OW 7225   0.367   4.824   4.225
 2280SOL    HW1 7226   0.360   4.907   4.169
 2280SOL    HW2 7227   0.371   4.744   4.165
 2281SOL     OW 7228   0.566   4.261   4.589
 2281SOL    HW1 7229   0.578   4.327   4.515
 2281SOL    HW2 7230   0.612   4.295   4.672
 2282SOL     OW 7231   1.252   5.072   4.112
 2282SOL    HW1 7232   1.302   5.149   4.152
 2282SOL    HW2 7233   1.157   5.074   4.144
 2283SOL     OW 7234   1.272   5.169   4.866
 2283SOL    HW1 7235   1.319   5.182   4.953
 2283SOL    HW2 7236   1.206   5.095   4.875
 2284SOL     OW 7237   1.582   4.363   4.196
 2284SOL    HW1 7238   1.551   4.424   4.269
 2284SOL    HW2 7239   1.632   4.415   4.127
 2285SOL     OW 7240   0.354   5.234   5.053
 2285SOL    HW1 7241   0.333   5.190   4.966
 2285SOL    HW2 7242   0.451   5.260   5.056
 2286SOL     OW 7243   0.402   4.475   5.322
 2286SOL    HW1 7244   0.470   4.530   5.275
 2286SOL    HW2 7245   0.442   4.387   5.349
 2287SOL     OW 7246   1.587   4.503   5.394
 2287SOL    HW1 7247   1.495   4.541   5.389
 2287SOL    HW2 7248   1.647   4.550   5.329
 2288SOL     OW 7249   1.013   3.829   5.494
 2288SOL    HW1 7250   1.019   3.914   5.442
 2288SOL    HW2 7251   1.045   3.753   5.437
 2289SOL     OW 7252   0.504   3.774   5.464
 2289SOL    HW1 7253   0.462   3.717   5.394
 2289SOL    HW2 7254   0.438   3.843   5.496
 2290SOL     OW 7255   0.573   4.594   4.753
 2290SOL    HW1 7256   0.617   4.683   4.744
 2290SOL    HW2 7257   0.510   4.594   4.830
 2291SOL     OW 7258   1.360   4.586   4.769
 2291SOL    HW1 7259   1.285   4.586   4.703
 2291SOL    HW2 7260   1.397   4.494   4.778
 2292SOL     OW 7261   1.209   4.249   3.999
 2292SOL    HW1 7262   1.222   4.165   4.053
 2292SOL    HW2 7263   1.180   4.323   4.059
 2293SOL     OW 7264   0.307   3.937   4.955
 2293SOL    HW1 7265   0.284   3.974   5.045
 2293SOL    HW2 7266   0.277   3.842   4.949
 2294SOL     OW 7267   0.037   5.034   5.006
 2294SOL    HW1 7268   0.090   4.985   5.074
 2294SOL    HW2 7269   0.059   5.132   5.011
 2295SOL     OW 7270   0.732   4.358   4.788
 2295SOL    HW1 7271   0.791   4.332   4.712
 2295SOL    HW2 7272   0.704   4.454   4.777
 2296SOL     OW 7273   1.728   4.659   5.578
 2296SOL    HW1 7274   1.682   4.652   5.489
 2296SOL    HW2 7275   1.666   4.703   5.644
 2297SOL     OW 7276   0.307   3.787   4.342
 2297SOL    HW1 7277   0.296   3.881   4.375
 2297SOL    HW2 7278   0.302   3.724   4.419
 2298SOL     OW 7279   1.622   4.091   4.098
 2298SOL    HW1 7280   1.624   4.015   4.162
 2298SOL    HW2 7281   1.574   4.168   4.138
 2299SOL     OW 7282   1.023   4.490   4.690
 2299SOL    HW1 7283   1.038   4.511   4.786
 2299SOL    HW2 7284   0.993   4.395   4.681
 2300SOL     OW 7285   1.859   5.242   5.329
 2300SOL    HW1 7286   1.873   5.269   5.234
 2300SOL    HW2 7287   1.942   5.264   5.382
 2301SOL     OW 7288   0.350   4.622   5.528
 2301SOL    HW1 7289   0.426   4.666   5.576
 2301SOL    HW2 7290   0.385   4.575   5.446
 2302SOL     OW 7291   1.540   3.998   3.849
 2302SOL    HW1 7292   1.479   3.923   3.872
 2302SOL    HW2 7293   1.562   4.050   3.932
 2303SOL     OW 7294   1.303   4.562   3.766
 2303SOL    HW1 7295   1.337   4.469   3.781
 2303SOL    HW2 7296   1.321   4.589   3.671
 2304SOL     OW 7297   1.068   5.057   4.573
 2304SOL    HW1 7298   1.075   4.973   4.518
 2304SOL    HW2 7299   1.130   5.126   4.537
 2305SOL     OW 7300   0.319   4.534   4.673
 2305SOL    HW1 7301   0.412   4.570   4.678
 2305SOL    HW2 7302   0.313   4.449   4.725
 2306SOL     OW 7303   0.339   4.233   4.730
 2306SOL    HW1 7304   0.287   4.150   4.713
 2306SOL    HW2 7305   0.416   4.238   4.666
 2307SOL     OW 7306   1.138   4.104   5.402
 2307SOL    HW1 7307   1.093   4.167   5.466
 2307SOL    HW2 7308   1.231   4.135   5.385
 2308SOL     OW 7309   1.160   3.931   5.201
 2308SOL    HW1 7310   1.160   3.995   5.278
 2308SOL    HW2 7311   1.188   3.979   5.118
 2309SOL     OW 7312   0.008   5.050   3.924
 2309SOL    HW1 7313  -0.085   5.071   3.893
 2309SOL    HW2 7314   0.018   4.951   3.937
 2310SOL     OW 7315   1.002   4.520   4.962
 2310SOL    HW1 7316   1.043   4.488   5.048
 2310SOL    HW2 7317   0.906   4.493   4.959
 2311SOL     OW 7318   0.040   4.268   4.838
 2311SOL    HW1 7319   0.125   4.235   4.797
 2311SOL    HW2 7320   0.053   4.283   4.936
 2312SOL     OW 7321   0.189   4.244   5.446
 2312SOL    HW1 7322   0.248   4.204   5.376
 2312SOL    HW2 7323   0.131   4.315   5.405
 2313SOL     OW 7324   1.369   4.674   5.384
 2313SOL    HW1 7325   1.408   4.763   5.404
 2313SOL    HW2 7326   1.379   4.654   5.287
 2314SOL     OW 7327   0.815   4.296   4.049
 2314SOL    HW1 7328   0.822   4.207   4.003
 2314SOL    HW2 7329   0.721   4.330   4.041
 2315SOL     OW 7330   1.657   4.328   4.930
 2315SOL    HW1 7331   1.619   4.259   4.992
 2315SOL    HW2 7332   1.739   4.292   4.886
 2316SOL     OW 7333   0.252   5.288   5.468
 2316SOL    HW1 7334   0.222   5.345   5.544
 2316SOL    HW2 7335   0.245   5.191   5.494
 2317SOL     OW 7336   0.671   4.188   4.993
 2317SOL    HW1 7337   0.637   4.099   4.963
 2317SOL    HW2 7338   0.697   4.242   4.913
 2318SOL     OW 7339   0.473   4.224   3.915
 2318SOL    HW1 7340   0.534   4.304   3.919
 2318SOL    HW2 7341   0.378   4.255   3.922
 2319SOL     OW 7342   0.159   4.861   5.190
 2319SOL    HW1 7343   0.181   4.800   5.266
 2319SOL    HW2 7344   0.169   4.812   5.104
 2320SOL     OW 7345   1.347   4.783   4.958
 2320SOL    HW1 7346   1.371   4.720   4.884
 2320SOL    HW2 7347   1.257   4.823   4.940
 2321SOL     OW 7348   1.302   4.579   4.033
 2321SOL    HW1 7349   1.216   4.548   4.075
 2321SOL    HW2 7350   1.298   4.565   3.934
 2322SOL     OW 7351   0.083   4.982   4.746
 2322SOL    HW1 7352   0.078   4.981   4.846
 2322SOL    HW2 7353   0.000   4.941   4.708
 2323SOL     OW 7354   0.688   5.386   5.440
 2323SOL    HW1 7355   0.632   5.467   5.449
 2323SOL    HW2 7356   0.740   5.390   5.354
 2324SOL     OW 7357   1.726   3.859   4.247
 2324SOL    HW1 7358   1.799   3.842   4.180
 2324SOL    HW2 7359   1.695   3.772   4.285
 2325SOL     OW 7360   1.280   4.651   4.396
 2325SOL    HW1 7361   1.340   4.570   4.398
 2325SOL    HW2 7362   1.320   4.720   4.336
 2326SOL     OW 7363   0.830   4.997   5.146
 2326SOL    HW1 7364   0.825   5.030   5.241
 2326SOL    HW2 7365   0.744   5.016   5.100
 2327SOL     OW 7366   1.841   3.899   4.687
 2327SOL    HW1 7367   1.880   3.814   4.651
 2327SOL    HW2 7368   1.743   3.901   4.668
 2328SOL     OW 7369   0.263   4.050   4.444
 2328SOL    HW1 7370   0.184   4.101   4.410
 2328SOL    HW2 7371   0.254   4.035   4.542
 2329SOL     OW 7372   0.822   4.726   5.096
 2329SOL    HW1 7373   0.862   4.725   5.004
 2329SOL    HW2 7374   0.832   4.818   5.136
 2330SOL     OW 7375   0.916   4.634   4.015
 2330SOL    HW1 7376   0.979   4.672   3.947
 2330SOL    HW2 7377   0.956   4.551   4.054
 2331SOL     OW 7378   0.372   5.012   5.214
 2331SOL    HW1 7379   0.359   5.105   5.180
 2331SOL    HW2 7380   0.288   4.960   5.201
 2332SOL     OW 7381   1.614   5.016   5.013
 2332SOL    HW1 7382   1.674   5.019   5.093
 2332SOL    HW2 7383   1.539   5.080   5.026
 2333SOL     OW 7384   1.039   4.822   4.420
 2333SOL    HW1 7385   0.969   4.775   4.474
 2333SOL    HW2 7386   1.098   4.754   4.377
 2334SOL     OW 7387   1.014   3.960   4.695
 2334SOL    HW1 7388   1.006   3.924   4.602
 2334SOL    HW2 7389   1.012   3.884   4.760
 2335SOL     OW 7390   1.709   4.109   5.105
 2335SOL    HW1 7391   1.782   4.178   5.109
 2335SOL    HW2 7392   1.737   4.034   5.046
 2336SOL     OW 7393   0.255   5.072   4.014
 2336SOL    HW1 7394   0.159   5.073   3.987
 2336SOL    HW2 7395   0.267   5.125   4.098
 2337SOL     OW 7396   0.105   4.737   5.450
 2337SOL    HW1 7397   0.028   4.704   5.504
 2337SOL    HW2 7398   0.190   4.707   5.492
 2338SOL     OW 7399   0.672   3.927   5.213
 2338SOL    HW1 7400   0.762   3.911   5.173
 2338SOL    HW2 7401   0.680   3.932   5.312
 2339SOL     OW 7402   0.075   4.069   3.757
 2339SOL    HW1 7403  -0.017   4.041   3.728
 2339SOL    HW2 7404   0.106   4.146   3.701
 2340SOL     OW 7405   1.440   4.580   5.122
 2340SOL    HW1 7406   1.383   4.632   5.059
 2340SOL    HW2 7407   1.536   4.592   5.098
 2341SOL     OW 7408   0.072   3.890   4.042
 2341SOL    HW1 7409   0.055   3.973   3.988
 2341SOL    HW2 7410   0.162   3.853   4.020
 2342SOL     OW 7411   1.183   5.059   3.843
 2342SOL    HW1 7412   1.084   5.048   3.845
 2342SOL    HW2 7413   1.217   5.074   3.936
 2343SOL     OW 7414   0.613   4.566   5.155
 2343SOL    HW1 7415   0.669   4.647   5.138
 2343SOL    HW2 7416   0.672   4.486   5.158
 2344SOL     OW 7417   0.716   4.289   5.432
 2344SOL    HW1 7418   0.735   4.354   5.506
 2344SOL    HW2 7419   0.776   4.209   5.441
 2345SOL     OW 7420   1.450   4.944   5.357
 2345SOL    HW1 7421   1.441   4.934   5.456
 2345SOL    HW2 7422   1.546   4.937   5.331
 2346SOL     OW 7423   1.674   4.607   4.978
 2346SOL    HW1 7424   1.647   4.518   4.941
 2346SOL    HW2 7425   1.675   4.675   4.905
 2347SOL     OW 7426   1.225   4.049   4.173
 2347SOL    HW1 7427   1.290   3.975   4.162
 2347SOL    HW2 7428   1.245   4.099   4.257
 2348SOL     OW 7429   0.594   4.469   4.376
 2348SOL    HW1 7430   0.644   4.554   4.357
 2348SOL    HW2 7431   0.506   4.471   4.328
 2349SOL     OW 7432   1.777   4.066   5.366
 2349SOL    HW1 7433   1.760   4.097   5.272
 2349SOL    HW2 7434   1.693   4.029   5.404
 2350SOL     OW 7435   1.730   4.658   5.241
 2350SOL    HW1 7436   1.768   4.749   5.256
 2350SOL    HW2 7437   1.722   4.641   5.142
 2351SOL     OW 7438   0.859   5.098   3.740
 2351SOL    HW1 7439   0.813   5.113   3.828
 2351SOL    HW2 7440   0.903   5.183   3.710
 2352SOL     OW 7441   0.859   4.680   4.585
 2352SOL    HW1 7442   0.913   4.611   4.633
 2352SOL    HW2 7443   0.827   4.749   4.651
 2353SOL     OW 7444   1.083   4.708   3.811
 2353SOL    HW1 7445   1.060   4.761   3.729
 2353SOL    HW2 7446   1.164   4.652   3.792
 2354SOL     OW 7447   0.221   5.038   5.568
 2354SOL    HW1 7448   0.156   4.965   5.547
 2354SOL    HW2 7449   0.225   5.052   5.666
 2355SOL     OW 7450   0.079   4.964   4.377
 2355SOL    HW1 7451   0.078   4.917   4.465
 2355SOL    HW2 7452   0.161   4.936   4.326
 2356SOL     OW 7453   0.672   5.115   5.348
 2356SOL    HW1 7454   0.594   5.065   5.386
 2356SOL    HW2 7455   0.669   5.210   5.379
 2357SOL     OW 7456   1.824   3.916   4.951
 2357SOL    HW1 7457   1.820   3.826   4.995
 2357SOL    HW2 7458   1.827   3.905   4.852
 2358SOL     OW 7459   0.428   4.148   4.244
 2358SOL    HW1 7460   0.458   4.076   4.182
 2358SOL    HW2 7461   0.389   4.108   4.327
 2359SOL     OW 7462   1.705   5.211   4.828
 2359SOL    HW1 7463   1.612   5.186   4.801
 2359SOL    HW2 7464   1.731   5.161   4.910
 2360SOL     OW 7465   0.317   4.271   5.004
 2360SOL    HW1 7466   0.355   4.212   5.076
 2360SOL    HW2 7467   0.357   4.245   4.916
 2361SOL     OW 7468   1.424   3.938   4.836
 2361SOL    HW1 7469   1.476   3.873   4.891
 2361SOL    HW2 7470   1.375   4.001   4.897
 2362SOL     OW 7471   1.001   3.758   4.878
 2362SOL    HW1 7472   0.938   3.686   4.847
 2362SOL    HW2 7473   1.094   3.722   4.878
 2363SOL     OW 7474   0.770   5.054   4.025
 2363SOL    HW1 7475   0.724   4.967   4.042
 2363SOL    HW2 7476   0.861   5.051   4.066
 2364SOL     OW 7477   0.618   5.291   5.008
 2364SOL    HW1 7478   0.613   5.373   5.065
 2364SOL    HW2 7479   0.707   5.288   4.963
 2365SOL     OW 7480   1.352   3.776   3.892
 2365SOL    HW1 7481   1.387   3.735   3.808
 2365SOL    HW2 7482   1.262   3.738   3.912
 2366SOL     OW 7483   1.300   4.177   4.415
 2366SOL    HW1 7484   1.241   4.257   4.419
 2366SOL    HW2 7485   1.315   4.142   4.508
 2367SOL     OW 7486   1.593   3.945   4.606
 2367SOL    HW1 7487   1.509   3.944   4.660
 2367SOL    HW2 7488   1.595   4.028   4.550
 2368SOL     OW 7489   0.039   4.801   4.024
 2368SOL    HW1 7490   0.138   4.790   4.015
 2368SOL    HW2 7491  -0.001   4.715   4.056
 2369SOL     OW 7492   0.230   4.352   5.699
 2369SOL    HW1 7493   0.137   4.350   5.736
 2369SOL    HW2 7494   0.231   4.313   5.607
 2370SOL     OW 7495   0.225   3.999   6.582
 2370SOL    HW1 7496   0.260   3.982   6.674
 2370SOL    HW2 7497   0.137   3.954   6.570
 2371SOL     OW 7498   0.019   4.092   6.233
 2371SOL    HW1 7499  -0.063   4.135   6.272
 2371SOL    HW2 7500  -0.009   4.019   6.170
 2372SOL     OW 7501   0.569   4.999   6.751
 2372SOL    HW1 7502   0.476   4.992   6.714
 2372SOL    HW2 7503   0.580   5.088   6.795
 2373SOL     OW 7504   1.555   5.235   6.289
 2373SOL    HW1 7505   1.498   5.219   6.370
 2373SOL    HW2 7506   1.496   5.245   6.209
 2374SOL     OW 7507   1.135   4.427   6.303
 2374SOL    HW1 7508   1.192   4.505   6.278
 2374SOL    HW2 7509   1.075   4.453   6.379
 2375SOL     OW 7510   1.755   4.331   5.817
 2375SOL    HW1 7511   1.743   4.318   5.718
 2375SOL    HW2 7512   1.725   4.250   5.866
 2376SOL     OW 7513   0.768   4.868   6.609
 2376SOL    HW1 7514   0.690   4.885   6.669
 2376SOL    HW2 7515   0.802   4.955   6.573
 2377SOL     OW 7516   0.850   4.522   7.409
 2377SOL    HW1 7517   0.846   4.598   7.474
 2377SOL    HW2 7518   0.872   4.558   7.318
 2378SOL     OW 7519   0.685   4.736   6.251
 2378SOL    HW1 7520   0.754   4.720   6.321
 2378SOL    HW2 7521   0.612   4.793   6.289
 2379SOL     OW 7522   0.686   4.885   7.389
 2379SOL    HW1 7523   0.746   4.964   7.403
 2379SOL    HW2 7524   0.600   4.916   7.348
 2380SOL     OW 7525   0.335   5.159   6.647
 2380SOL    HW1 7526   0.257   5.128   6.594
 2380SOL    HW2 7527   0.393   5.217   6.590
 2381SOL     OW 7528   1.460   5.229   6.925
 2381SOL    HW1 7529   1.484   5.323   6.951
 2381SOL    HW2 7530   1.444   5.175   7.007
 2382SOL     OW 7531   0.438   4.116   7.085
 2382SOL    HW1 7532   0.520   4.060   7.094
 2382SOL    HW2 7533   0.357   4.058   7.089
 2383SOL     OW 7534   1.603   4.171   6.323
 2383SOL    HW1 7535   1.529   4.217   6.273
 2383SOL    HW2 7536   1.654   4.239   6.376
 2384SOL     OW 7537   1.127   5.065   7.276
 2384SOL    HW1 7538   1.174   5.065   7.364
 2384SOL    HW2 7539   1.079   4.978   7.265
 2385SOL     OW 7540   0.230   5.158   6.124
 2385SOL    HW1 7541   0.204   5.254   6.124
 2385SOL    HW2 7542   0.159   5.104   6.169
 2386SOL     OW 7543   0.240   4.815   6.472
 2386SOL    HW1 7544   0.254   4.731   6.524
 2386SOL    HW2 7545   0.185   4.879   6.527
 2387SOL     OW 7546   0.606   4.688   5.709
 2387SOL    HW1 7547   0.613   4.772   5.655
 2387SOL    HW2 7548   0.652   4.701   5.797
 2388SOL     OW 7549   1.594   3.838   7.066
 2388SOL    HW1 7550   1.576   3.905   6.994
 2388SOL    HW2 7551   1.591   3.884   7.155
 2389SOL     OW 7552   0.122   4.367   6.149
 2389SOL    HW1 7553   0.077   4.279   6.166
 2389SOL    HW2 7554   0.121   4.421   6.233
 2390SOL     OW 7555   0.027   5.320   5.703
 2390SOL    HW1 7556   0.008   5.224   5.724
 2390SOL    HW2 7557  -0.006   5.378   5.778
 2391SOL     OW 7558   1.689   4.646   6.198
 2391SOL    HW1 7559   1.784   4.617   6.206
 2391SOL    HW2 7560   1.681   4.711   6.123
 2392SOL     OW 7561   1.641   4.832   6.018
 2392SOL    HW1 7562   1.727   4.834   5.966
 2392SOL    HW2 7563   1.655   4.879   6.106
 2393SOL     OW 7564   0.113   4.461   7.183
 2393SOL    HW1 7565   0.201   4.448   7.228
 2393SOL    HW2 7566   0.100   4.558   7.161
 2394SOL     OW 7567   0.613   5.089   6.312
 2394SOL    HW1 7568   0.564   5.002   6.321
 2394SOL    HW2 7569   0.590   5.132   6.225
 2395SOL     OW 7570   1.293   4.952   7.009
 2395SOL    HW1 7571   1.330   4.879   6.951
 2395SOL    HW2 7572   1.345   4.957   7.094
 2396SOL     OW 7573   0.809   3.728   6.088
 2396SOL    HW1 7574   0.849   3.819   6.079
 2396SOL    HW2 7575   0.709   3.736   6.094
 2397SOL     OW 7576   0.197   4.700   6.850
 2397SOL    HW1 7577   0.286   4.655   6.836
 2397SOL    HW2 7578   0.124   4.635   6.831
 2398SOL     OW 7579   1.525   4.723   5.776
 2398SOL    HW1 7580   1.462   4.647   5.789
 2398SOL    HW2 7581   1.573   4.741   5.862
 2399SOL     OW 7582   0.317   3.975   7.387
 2399SOL    HW1 7583   0.388   4.046   7.393
 2399SOL    HW2 7584   0.229   4.014   7.415
 2400SOL     OW 7585   1.466   5.141   6.539
 2400SOL    HW1 7586   1.407   5.147   6.619
 2400SOL    HW2 7587   1.451   5.053   6.493
 2401SOL     OW 7588   0.598   4.453   5.856
 2401SOL    HW1 7589   0.622   4.522   5.788
 2401SOL    HW2 7590   0.520   4.486   5.910
 2402SOL     OW 7591   1.281   4.069   6.530
 2402SOL    HW1 7592   1.195   4.019   6.517
 2402SOL    HW2 7593   1.343   4.015   6.586
 2403SOL     OW 7594   0.807   4.329   7.051
 2403SOL    HW1 7595   0.760   4.326   7.140
 2403SOL    HW2 7596   0.756   4.274   6.985
 2404SOL     OW 7597   1.394   4.193   7.260
 2404SOL    HW1 7598   1.374   4.236   7.348
 2404SOL    HW2 7599   1.472   4.131   7.269
 2405SOL     OW 7600   0.973   4.614   7.158
 2405SOL    HW1 7601   1.019   4.530   7.129
 2405SOL    HW2 7602   0.917   4.648   7.083
 2406SOL     OW 7603   0.991   4.134   6.828
 2406SOL    HW1 7604   0.914   4.168   6.882
 2406SOL    HW2 7605   0.957   4.083   6.749
 2407SOL     OW 7606   1.041   4.425   6.015
 2407SOL    HW1 7607   1.067   4.421   6.111
 2407SOL    HW2 7608   0.956   4.374   6.001
 2408SOL     OW 7609   0.076   4.535   6.375
 2408SOL    HW1 7610   0.175   4.523   6.384
 2408SOL    HW2 7611   0.052   4.630   6.396
 2409SOL     OW 7612   0.865   4.072   5.781
 2409SOL    HW1 7613   0.924   4.135   5.732
 2409SOL    HW2 7614   0.884   3.978   5.752
 2410SOL     OW 7615   1.719   4.309   7.417
 2410SOL    HW1 7616   1.693   4.398   7.381
 2410SOL    HW2 7617   1.717   4.241   7.344
 2411SOL     OW 7618   1.362   4.868   6.131
 2411SOL    HW1 7619   1.445   4.839   6.083
 2411SOL    HW2 7620   1.313   4.935   6.075
 2412SOL     OW 7621   0.550   3.920   6.471
 2412SOL    HW1 7622   0.545   3.915   6.571
 2412SOL    HW2 7623   0.552   4.016   6.442
 2413SOL     OW 7624   1.008   5.180   6.063
 2413SOL    HW1 7625   0.962   5.252   6.011
 2413SOL    HW2 7626   1.004   5.200   6.161
 2414SOL     OW 7627   1.795   4.790   6.459
 2414SOL    HW1 7628   1.733   4.775   6.383
 2414SOL    HW2 7629   1.743   4.801   6.544
 2415SOL     OW 7630   1.227   5.274   7.092
 2415SOL    HW1 7631   1.233   5.197   7.156
 2415SOL    HW2 7632   1.175   5.248   7.012
 2416SOL     OW 7633   0.321   4.667   5.828
 2416SOL    HW1 7634   0.403   4.706   5.786
 2416SOL    HW2 7635   0.294   4.585   5.779
 2417SOL     OW 7636   1.458   4.459   6.314
 2417SOL    HW1 7637   1.453   4.394   6.389
 2417SOL    HW2 7638   1.538   4.518   6.327
 2418SOL     OW 7639   0.461   4.990   7.313
 2418SOL    HW1 7640   0.411   4.991   7.227
 2418SOL    HW2 7641   0.398   4.972   7.389
 2419SOL     OW 7642   1.111   5.500   5.823
 2419SOL    HW1 7643   1.051   5.438   5.873
 2419SOL    HW2 7644   1.142   5.456   5.738
 2420SOL     OW 7645   0.202   4.009   7.084
 2420SOL    HW1 7646   0.122   4.069   7.071
 2420SOL    HW2 7647   0.192   3.960   7.170
 2421SOL     OW 7648   1.632   5.101   5.667
 2421SOL    HW1 7649   1.600   5.195   5.657
 2421SOL    HW2 7650   1.556   5.038   5.655
 2422SOL     OW 7651   1.400   3.831   6.012
 2422SOL    HW1 7652   1.376   3.794   5.922
 2422SOL    HW2 7653   1.499   3.847   6.016
 2423SOL     OW 7654   0.382   4.424   6.066
 2423SOL    HW1 7655   0.427   4.334   6.063
 2423SOL    HW2 7656   0.288   4.413   6.099
 2424SOL     OW 7657   1.547   3.946   7.315
 2424SOL    HW1 7658   1.542   3.983   7.407
 2424SOL    HW2 7659   1.475   3.877   7.303
 2425SOL     OW 7660   0.614   3.846   5.703
 2425SOL    HW1 7661   0.712   3.824   5.710
 2425SOL    HW2 7662   0.583   3.829   5.610
 2426SOL     OW 7663   0.781   3.988   7.335
 2426SOL    HW1 7664   0.848   3.927   7.378
 2426SOL    HW2 7665   0.708   4.007   7.400
 2427SOL     OW 7666   1.351   4.314   7.019
 2427SOL    HW1 7667   1.379   4.271   7.104
 2427SOL    HW2 7668   1.376   4.410   7.020
 2428SOL     OW 7669   0.803   5.126   6.510
 2428SOL    HW1 7670   0.893   5.140   6.468
 2428SOL    HW2 7671   0.732   5.128   6.439
 2429SOL     OW 7672   0.922   4.227   6.485
 2429SOL    HW1 7673   0.897   4.218   6.389
 2429SOL    HW2 7674   0.970   4.145   6.516
 2430SOL     OW 7675   0.539   3.788   6.098
 2430SOL    HW1 7676   0.458   3.789   6.156
 2430SOL    HW2 7677   0.542   3.871   6.043
 2431SOL     OW 7678   1.434   4.912   5.627
 2431SOL    HW1 7679   1.466   4.836   5.684
 2431SOL    HW2 7680   1.342   4.939   5.657
 2432SOL     OW 7681   0.297   3.759   5.757
 2432SOL    HW1 7682   0.346   3.843   5.736
 2432SOL    HW2 7683   0.359   3.694   5.802
 2433SOL     OW 7684   0.935   3.960   6.066
 2433SOL    HW1 7685   0.887   4.001   5.988
 2433SOL    HW2 7686   1.034   3.958   6.047
 2434SOL     OW 7687   1.076   4.407   7.050
 2434SOL    HW1 7688   0.996   4.346   7.053
 2434SOL    HW2 7689   1.157   4.354   7.026
 2435SOL     OW 7690   1.227   5.294   6.379
 2435SOL    HW1 7691   1.248   5.368   6.314
 2435SOL    HW2 7692   1.295   5.294   6.452
 2436SOL     OW 7693   0.459   4.876   6.327
 2436SOL    HW1 7694   0.388   4.849   6.392
 2436SOL    HW2 7695   0.433   4.848   6.234
 2437SOL     OW 7696   1.032   4.273   5.602
 2437SOL    HW1 7697   0.991   4.355   5.563
 2437SOL    HW2 7698   1.096   4.299   5.675
 2438SOL     OW 7699   0.078   4.280   6.972
 2438SOL    HW1 7700   0.170   4.279   6.931
 2438SOL    HW2 7701   0.072   4.354   7.039
 2439SOL     OW 7702   0.561   3.946   6.733
 2439SOL    HW1 7703   0.599   3.862   6.770
 2439SOL    HW2 7704   0.473   3.965   6.777
 2440SOL     OW 7705   0.866   4.178   6.228
 2440SOL    HW1 7706   0.834   4.250   6.166
 2440SOL    HW2 7707   0.890   4.097   6.175
 2441SOL     OW 7708   1.017   3.763   6.339
 2441SOL    HW1 7709   0.945   3.768   6.270
 2441SOL    HW2 7710   0.993   3.694   6.408
 2442SOL     OW 7711   1.429   4.897   6.453
 2442SOL    HW1 7712   1.374   4.813   6.446
 2442SOL    HW2 7713   1.455   4.926   6.361
 2443SOL     OW 7714   1.466   4.314   6.578
 2443SOL    HW1 7715   1.436   4.219   6.585
 2443SOL    HW2 7716   1.539   4.330   6.644
 2444SOL     OW 7717   1.857   4.557   5.963
 2444SOL    HW1 7718   1.899   4.493   6.027
 2444SOL    HW2 7719   1.819   4.506   5.885
 2445SOL     OW 7720   0.488   5.109   5.760
 2445SOL    HW1 7721   0.401   5.094   5.807
 2445SOL    HW2 7722   0.471   5.135   5.665
 2446SOL     OW 7723   1.664   5.004   6.243
 2446SOL    HW1 7724   1.763   5.012   6.257
 2446SOL    HW2 7725   1.619   5.088   6.274
 2447SOL     OW 7726   1.390   4.299   5.664
 2447SOL    HW1 7727   1.336   4.278   5.745
 2447SOL    HW2 7728   1.481   4.258   5.673
 2448SOL     OW 7729   0.527   3.980   5.914
 2448SOL    HW1 7730   0.554   3.921   5.839
 2448SOL    HW2 7731   0.527   4.075   5.883
 2449SOL     OW 7732   1.754   4.947   7.174
 2449SOL    HW1 7733   1.845   4.908   7.161
 2449SOL    HW2 7734   1.762   5.043   7.198
 2450SOL     OW 7735   1.064   5.071   6.926
 2450SOL    HW1 7736   0.984   5.048   6.981
 2450SOL    HW2 7737   1.147   5.045   6.975
 2451SOL     OW 7738   1.111   4.919   6.686
 2451SOL    HW1 7739   1.071   4.963   6.767
 2451SOL    HW2 7740   1.070   4.956   6.603
 2452SOL     OW 7741   1.638   4.823   6.665
 2452SOL    HW1 7742   1.643   4.904   6.724
 2452SOL    HW2 7743   1.552   4.825   6.614
 2453SOL     OW 7744   0.915   3.813   6.988
 2453SOL    HW1 7745   0.940   3.793   6.893
 2453SOL    HW2 7746   0.987   3.869   7.030
 2454SOL     OW 7747   0.980   4.840   7.305
 2454SOL    HW1 7748   0.881   4.846   7.315
 2454SOL    HW2 7749   1.003   4.760   7.249
 2455SOL     OW 7750   0.705   4.774   5.954
 2455SOL    HW1 7751   0.691   4.781   6.053
 2455SOL    HW2 7752   0.789   4.723   5.936
 2456SOL     OW 7753   0.410   4.537   6.837
 2456SOL    HW1 7754   0.496   4.549   6.887
 2456SOL    HW2 7755   0.368   4.450   6.864
 2457SOL     OW 7756   1.274   4.110   6.848
 2457SOL    HW1 7757   1.295   4.184   6.912
 2457SOL    HW2 7758   1.185   4.127   6.805
 2458SOL     OW 7759   0.064   5.288   6.917
 2458SOL    HW1 7760   0.018   5.370   6.883
 2458SOL    HW2 7761   0.162   5.307   6.926
 2459SOL     OW 7762   0.367   4.824   6.087
 2459SOL    HW1 7763   0.360   4.907   6.031
 2459SOL    HW2 7764   0.371   4.744   6.027
 2460SOL     OW 7765   0.566   4.261   6.451
 2460SOL    HW1 7766   0.578   4.327   6.377
 2460SOL    HW2 7767   0.612   4.295   6.534
 2461SOL     OW 7768   1.252   5.072   5.974
 2461SOL    HW1 7769   1.302   5.149   6.014
 2461SOL    HW2 7770   1.157   5.074   6.006
 2462SOL     OW 7771   1.272   5.169   6.728
 2462SOL    HW1 7772   1.319   5.182   6.815
 2462SOL    HW2 7773   1.206   5.095   6.737
 2463SOL     OW 7774   1.582   4.363   6.058
 2463SOL    HW1 7775   1.551   4.424   6.131
 2463SOL    HW2 7776   1.632   4.415   5.989
 2464SOL     OW 7777   0.354   5.234   6.915
 2464SOL    HW1 7778   0.333   5.190   6.828
 2464SOL    HW2 7779   0.451   5.260   6.918
 2465SOL     OW 7780   0.402   4.475   7.184
 2465SOL    HW1 7781   0.470   4.530   7.137
 2465SOL    HW2 7782   0.442   4.387   7.211
 2466SOL     OW 7783   1.587   4.503   7.256
 2466SOL    HW1 7784   1.495   4.541   7.251
 2466SOL    HW2 7785   1.647   4.550   7.191
 2467SOL     OW 7786   1.013   3.829   7.356
 2467SOL    HW1 7787   1.019   3.914   7.304
 2467SOL    HW2 7788   1.045   3.753   7.299
 2468SOL     OW 7789   0.504   3.774   7.326
 2468SOL    HW1 7790   0.462   3.717   7.256
 2468SOL    HW2 7791   0.438   3.843   7.358
 2469SOL     OW 7792   0.573   4.594   6.615
 2469SOL    HW1 7793   0.617   4.683   6.606
 2469SOL    HW2 7794   0.510   4.594   6.692
 2470SOL     OW 7795   1.360   4.586   6.631
 2470SOL    HW1 7796   1.285   4.586   6.565
 2470SOL    HW2 7797   1.397   4.494   6.640
 2471SOL     OW 7798   1.209   4.249   5.861
 2471SOL    HW1 7799   1.222   4.165   5.915
 2471SOL    HW2 7800   1.180   4.323   5.921
 2472SOL     OW 7801   0.307   3.937   6.817
 2472SOL    HW1 7802   0.284   3.974   6.907
 2472SOL    HW2 7803   0.277   3.842   6.811
 2473SOL     OW 7804   0.037   5.034   6.868
 2473SOL    HW1 7805   0.090   4.985   6.936
 2473SOL    HW2 7806   0.059   5.132   6.873
 2474SOL     OW 7807   0.732   4.358   6.650
 2474SOL    HW1 7808   0.791   4.332   6.574
 2474SOL    HW2 7809   0.704   4.454   6.639
 2475SOL     OW 7810   1.728   4.659   7.440
 2475SOL    HW1 7811   1.682   4.652   7.351
 2475SOL    HW2 7812   1.666   4.703   7.506
 2476SOL     OW 7813   0.307   3.787   6.204
 2476SOL    HW1 7814   0.296   3.881   6.237
 2476SOL    HW2 7815   0.302   3.724   6.281
 2477SOL     OW 7816   1.622   4.091   5.960
 2477SOL    HW1 7817   1.624   4.015   6.024
 2477SOL    HW2 7818   1.574   4.168   6.000
 2478SOL     OW 7819   1.023   4.490   6.552
 2478SOL    HW1 7820   1.038   4.511   6.648
 2478SOL    HW2 7821   0.993   4.395   6.543
 2479SOL     OW 7822   1.859   5.242   7.191
 2479SOL    HW1 7823   1.873   5.269   7.096
 2479SOL    HW2 7824   1.942   5.264   7.244
 2480SOL     OW 7825   0.350   4.622   7.390
 2480SOL    HW1 7826   0.426   4.666   7.438
 2480SOL    HW2 7827   0.385   4.575   7.308
 2481SOL     OW 7828   1.540   3.998   5.711
 2481SOL    HW1 7829   1.479   3.923   5.734
 2481SOL    HW2 7830   1.562   4.050   5.794
 2482SOL     OW 7831   1.303   4.562   5.628
 2482SOL    HW1 7832   1.337   4.469   5.643
 2482SOL    HW2 7833   1.321   4.589   5.533
 2483SOL     OW 7834   1.068   5.057   6.435
 2483SOL    HW1 7835   1.075   4.973   6.380
 2483SOL    HW2 7836   1.130   5.126   6.399
 2484SOL     OW 7837   0.319   4.534   6.535
 2484SOL    HW1 7838   0.412   4.570   6.540
 2484SOL    HW2 7839   0.313   4.449   6.587
 2485SOL     OW 7840   0.339   4.233   6.592
 2485SOL    HW1 7841   0.287   4.150   6.575
 2485SOL    HW2 7842   0.416   4.238   6.528
 2486SOL     OW 7843   1.138   4.104   7.264
 2486SOL    HW1 7844   1.093   4.167   7.328
 2486SOL    HW2 7845   1.231   4.135   7.247
 2487SOL     OW 7846   1.160   3.931   7.063
 2487SOL    HW1 7847   1.160   3.995   7.140
 2487SOL    HW2 7848   1.188   3.979   6.980
 2488SOL     OW 7849   0.008   5.050   5.786
 2488SOL    HW1 7850  -0.085   5.071   5.755
 2488SOL    HW2 7851   0.018   4.951   5.799
 2489SOL     OW 7852   1.002   4.520   6.824
 2489SOL    HW1 7853   1.043   4.488   6.910
 2489SOL    HW2 7854   0.906   4.493   6.821
 2490SOL     OW 7855   0.040   4.268   6.700
 2490SOL    HW1 7856   0.125   4.235   6.659
 2490SOL    HW2 7857   0.053   4.283   6.798
 2491SOL     OW 7858   0.189   4.244   7.308
 2491SOL    HW1 7859   0.248   4.204   7.238
 2491SOL    HW2 7860   0.131   4.315   7.267
 2492SOL     OW 7861   1.369   4.674   7.246
 2492SOL    HW1 7862   1.408   4.763   7.266
 2492SOL    HW2 7863   1.379   4.654   7.149
 2493SOL     OW 7864   0.815   4.296   5.911
 2493SOL    HW1 7865   0.822   4.207   5.865
 2493SOL    HW2 7866   0.721   4.330   5.903
 2494SOL     OW 7867   1.657   4.328   6.792
 2494SOL    HW1 7868   1.619   4.259   6.854
 2494SOL    HW2 7869   1.739   4.292   6.748
 2495SOL     OW 7870   0.252   5.288   7.330
 2495SOL    HW1 7871   0.222   5.345   7.406
 2495SOL    HW2 7872   0.245   5.191   7.356
 2496SOL     OW 7873   0.671   4.188   6.855
 2496SOL    HW1 7874   0.637   4.099   6.825
 2496SOL    HW2 7875   0.697   4.242   6.775
 2497SOL     OW 7876   0.473   4.224   5.777
 2497SOL    HW1 7877   0.534   4.304   5.781
 2497SOL    HW2 7878   0.378   4.255   5.784
 2498SOL     OW 7879   0.159   4.861   7.052
 2498SOL    HW1 7880   0.181   4.800   7.128
 2498SOL    HW2 7881   0.169   4.812   6.966
 2499SOL     OW 7882   1.347   4.783   6.820
 2499SOL    HW1 7883   1.371   4.720   6.746
 2499SOL    HW2 7884   1.257   4.823   6.802
 2500SOL     OW 7885   1.302   4.579   5.895
 2500SOL    HW1 7886   1.216   4.548   5.937
 2500SOL    HW2 7887   1.298   4.565   5.796
 2501SOL     OW 7888   0.083   4.982   6.608
 2501SOL    HW1 7889   0.078   4.981   6.708
 2501SOL    HW2 7890   0.000   4.941   6.570
 2502SOL     OW 7891   0.688   5.386   7.302
 2502SOL    HW1 7892   0.632   5.467   7.311
 2502SOL    HW2 7893   0.740   5.390   7.216
 2503SOL     OW 7894   1.726   3.859   6.109
 2503SOL    HW1 7895   1.799   3.842   6.042
 2503SOL    HW2 7896   1.695   3.772   6.147
 2504SOL     OW 7897   1.280   4.651   6.258
 2504SOL    HW1 7898   1.340   4.570   6.260
 2504SOL    HW2 7899   1.320   4.720   6.198
 2505SOL     OW 7900   0.830   4.997   7.008
 2505SOL    HW1 7901   0.825   5.030   7.103
 2505SOL    HW2 7902   0.744   5.016   6.962
 2506SOL     OW 7903   1.841   3.899   6.549
 2506SOL    HW1 7904   1.880   3.814   6.513
 2506SOL    HW2 7905   1.743   3.901   6.530
 2507SOL     OW 7906   0.263   4.050   6.306
 2507SOL    HW1 7907   0.184   4.101   6.272
 2507SOL    HW2 7908   0.254   4.035   6.404
 2508SOL     OW 7909   0.822   4.726   6.958
 2508SOL    HW1 7910   0.862   4.725   6.866
 2508SOL    HW2 7911   0.832   4.818   6.998
 2509SOL     OW 7912   0.916   4.634   5.877
 2509SOL    HW1 7913   0.979   4.672   5.809
 2509SOL    HW2 7914   0.956   4.551   5.916
 2510SOL     OW 7915   0.372   5.012   7.076
 2510SOL    HW1 7916   0.359   5.105   7.042
 2510SOL    HW2 7917   0.288   4.960   7.063
 2511SOL     OW 7918   1.614   5.016   6.875
 2511SOL    HW1 7919   1.674   5.019   6.955
 2511SOL    HW2 7920   1.539   5.080   6.888
 2512SOL     OW 7921   1.039   4.822   6.282
 2512SOL    HW1 7922   0.969   4.775   6.336
 2512SOL    HW2 7923   1.098   4.754   6.239
 2513SOL     OW 7924   1.014   3.960   6.557
 2513SOL    HW1 7925   1.006   3.924   6.464
 2513SOL    HW2 7926   1.012   3.884   6.622
 2514SOL     OW 7927   1.709   4.109   6.967
 2514SOL    HW1 7928   1.782   4.178   6.971
 2514SOL    HW2 7929   1.737   4.034   6.908
 2515SOL     OW 7930   0.255   5.072   5.876
 2515SOL    HW1 7931   0.159   5.073   5.849
 2515SOL    HW2 7932   0.267   5.125   5.960
 2516SOL     OW 7933   0.105   4.737   7.312
 2516SOL    HW1 7934   0.028   4.704   7.366
 2516SOL    HW2 7935   0.190   4.707   7.354
 2517SOL     OW 7936   0.672   3.927   7.075
 2517SOL    HW1 7937   0.762   3.911   7.035
 2517SOL    HW2 7938   0.680   3.932   7.174
 2518SOL     OW 7939   0.075   4.069   5.619
 2518SOL    HW1 7940  -0.017   4.041   5.590
 2518SOL    HW2 7941   0.106   4.146   5.563
 2519SOL     OW 7942   1.440   4.580   6.984
 2519SOL    HW1 7943   1.383   4.632   6.921
 2519SOL    HW2 7944   1.536   4.592   6.960
 2520SOL     OW 7945   0.072   3.890   5.904
 2520SOL    HW1 7946   0.055   3.973   5.850
 2520SOL    HW2 7947   0.162   3.853   5.882
 2521SOL     OW 7948   1.183   5.059   5.705
 2521SOL    HW1 7949   1.084   5.048   5.707
 2521SOL    HW2 7950   1.217   5.074   5.798
 2522SOL     OW 7951   0.613   4.566   7.017
 2522SOL    HW1 7952   0.669   4.647   7.000
 2522SOL    HW2 7953   0.672   4.486   7.020
 2523SOL     OW 7954   0.716   4.289   7.294
 2523SOL    HW1 7955   0.735   4.354   7.368
 2523SOL    HW2 7956   0.776   4.209   7.303
 2524SOL     OW 7957   1.450   4.944   7.219
 2524SOL    HW1 7958   1.441   4.934   7.318
 2524SOL    HW2 7959   1.546   4.937   7.193
 2525SOL     OW 7960   1.674   4.607   6.840
 2525SOL    HW1 7961   1.647   4.518   6.803
 2525SOL    HW2 7962   1.675   4.675   6.767
 2526SOL     OW 7963   1.225   4.049   6.035
 2526SOL    HW1 7964   1.290   3.975   6.024
 2526SOL    HW2 7965   1.245   4.099   6.119
 2527SOL     OW 7966   0.594   4.469   6.238
 2527SOL    HW1 7967   0.644   4.554   6.219
 2527SOL    HW2 7968   0.506   4.471   6.190
 2528SOL     OW 7969   1.777   4.066   7.228
 2528SOL    HW1 7970   1.760   4.097   7.134
 2528SOL    HW2 7971   1.693   4.029   7.266
 2529SOL     OW 7972   1.730   4.658   7.103
 2529SOL    HW1 7973   1.768   4.749   7.118
 2529SOL    HW2 7974   1.722   4.641   7.004
 2530SOL     OW 7975   0.859   5.098   5.602
 2530SOL    HW1 7976   0.813   5.113   5.690
 2530SOL    HW2 7977   0.903   5.183   5.572
 2531SOL     OW 7978   0.859   4.680   6.447
 2531SOL    HW1 7979   0.913   4.611   6.495
 2531SOL    HW2 7980   0.827   4.749   6.513
 2532SOL     OW 7981   1.083   4.708   5.673
 2532SOL    HW1 7982   1.060   4.761   5.591
 2532SOL    HW2 7983   1.164   4.652   5.654
 2533SOL     OW 7984   0.221   5.038   7.430
 2533SOL    HW1 7985   0.156   4.965   7.409
 2533SOL    HW2 7986   0.225   5.052   7.528
 2534SOL     OW 7987   0.079   4.964   6.239
 2534SOL    HW1 7988   0.078   4.917   6.327
 2534SOL    HW2 7989   0.161   4.936   6.188
 2535SOL     OW 7990   0.672   5.115   7.210
 2535SOL    HW1 7991   0.594   5.065   7.248
 2535SOL    HW2 7992   0.669   5.210   7.241
 2536SOL     OW 7993   1.824   3.916   6.813
 2536SOL    HW1 7994   1.820   3.826   6.857
 2536SOL    HW2 7995   1.827   3.905   6.714
 2537SOL     OW 7996   0.428   4.148   6.106
 2537SOL    HW1 7997   0.458   4.076   6.044
 2537SOL    HW2 7998   0.389   4.108   6.189
 2538SOL     OW 7999   1.705   5.211   6.690
 2538SOL    HW1 8000   1.612   5.186   6.663
 2538SOL    HW2 8001   1.731   5.161   6.772
 2539SOL     OW 8002   0.317   4.271   6.866
 2539SOL    HW1 8003   0.355   4.212   6.938
 2539SOL    HW2 8004   0.357   4.245   6.778
 2540SOL     OW 8005   1.424   3.938   6.698
 2540SOL    HW1 8006   1.476   3.873   6.753
 2540SOL    HW2 8007   1.375   4.001   6.759
 2541SOL     OW 8008   1.001   3.758   6.740
 2541SOL    HW1 8009   0.938   3.686   6.709
 2541SOL    HW2 8010   1.094   3.722   6.740
 2542SOL     OW 8011   0.770   5.054   5.887
 2542SOL    HW1 8012   0.724   4.967   5.904
 2542SOL    HW2 8013   0.861   5.051   5.928
 2543SOL     OW 8014   0.618   5.291   6.870
 2543SOL    HW1 8015   0.613   5.373   6.927
 2543SOL    HW2 8016   0.707   5.288   6.825
 2544SOL     OW 8017   1.352   3.776   5.754
 2544SOL    HW1 8018   1.387   3.735   5.670
 2544SOL    HW2 8019   1.262   3.738   5.774
 2545SOL     OW 8020   1.300   4.177   6.277
 2545SOL    HW1 8021   1.241   4.257   6.281
 2545SOL    HW2 8022   1.315   4.142   6.370
 2546SOL     OW 8023   1.593   3.945   6.468
 2546SOL    HW1 8024   1.509   3.944   6.522
 2546SOL    HW2 8025   1.595   4.028   6.412
 2547SOL     OW 8026   0.039   4.801   5.886
 2547SOL    HW1 8027   0.138   4.790   5.877
 2547SOL    HW2 8028  -0.001   4.715   5.918
 2548SOL     OW 8029   0.230   4.352   7.561
 2548SOL    HW1 8030   0.137   4.350   7.598
 2548SOL    HW2 8031   0.231   4.313   7.469
 2549SOL     OW 8032   1.755   4.331   7.679
 2549SOL    HW1 8033   1.743   4.318   7.580
 2549SOL    HW2 8034   1.725   4.250   7.728
 2550SOL     OW 8035   0.231   5.437   7.931
 2550SOL    HW1 8036   0.265   5.514   7.985
 2550SOL    HW2 8037   0.275   5.437   7.841
 2551SOL     OW 8038   0.230   5.158   7.986
 2551SOL    HW1 8039   0.204   5.254   7.986
 2551SOL    HW2 8040   0.159   5.104   8.031
 2552SOL     OW 8041   0.606   4.688   7.571
 2552SOL    HW1 8042   0.613   4.772   7.517
 2552SOL    HW2 8043   0.652   4.701   7.659
 2553SOL     OW 8044   0.027   5.320   7.565
 2553SOL    HW1 8045   0.008   5.224   7.586
 2553SOL    HW2 8046  -0.006   5.378   7.640
 2554SOL     OW 8047   1.689   4.646   8.060
 2554SOL    HW1 8048   1.784   4.617   8.068
 2554SOL    HW2 8049   1.681   4.711   7.985
 2555SOL     OW 8050   1.641   4.832   7.880
 2555SOL    HW1 8051   1.727   4.834   7.828
 2555SOL    HW2 8052   1.655   4.879   7.968
 2556SOL     OW 8053   0.809   3.728   7.950
 2556SOL    HW1 8054   0.849   3.819   7.941
 2556SOL    HW2 8055   0.709   3.736   7.956
 2557SOL     OW 8056   1.525   4.723   7.638
 2557SOL    HW1 8057   1.462   4.647   7.651
 2557SOL    HW2 8058   1.573   4.741   7.724
 2558SOL     OW 8059   0.598   4.453   7.718
 2558SOL    HW1 8060   0.622   4.522   7.650
 2558SOL    HW2 8061   0.520   4.486   7.772
 2559SOL     OW 8062   0.076   4.535   8.237
 2559SOL    HW1 8063   0.175   4.523   8.246
 2559SOL    HW2 8064   0.052   4.630   8.258
 2560SOL     OW 8065   0.865   4.072   7.643
 2560SOL    HW1 8066   0.924   4.135   7.594
 2560SOL    HW2 8067   0.884   3.978   7.614
 2561SOL     OW 8068   0.321   4.667   7.690
 2561SOL    HW1 8069   0.403   4.706   7.648
 2561SOL    HW2 8070   0.294   4.585   7.641
 2562SOL     OW 8071   1.111   5.500   7.685
 2562SOL    HW1 8072   1.051   5.438   7.735
 2562SOL    HW2 8073   1.142   5.456   7.600
 2563SOL     OW 8074   1.632   5.101   7.529
 2563SOL    HW1 8075   1.600   5.195   7.519
 2563SOL    HW2 8076   1.556   5.038   7.517
 2564SOL     OW 8077   1.400   3.831   7.874
 2564SOL    HW1 8078   1.376   3.794   7.784
 2564SOL    HW2 8079   1.499   3.847   7.878
 2565SOL     OW 8080   0.382   4.424   7.928
 2565SOL    HW1 8081   0.427   4.334   7.925
 2565SOL    HW2 8082   0.288   4.413   7.961
 2566SOL     OW 8083   0.614   3.846   7.565
 2566SOL    HW1 8084   0.712   3.824   7.572
 2566SOL    HW2 8085   0.583   3.829   7.472
 2567SOL     OW 8086   0.539   3.788   7.960
 2567SOL    HW1 8087   0.458   3.789   8.018
 2567SOL    HW2 8088   0.542   3.871   7.905
 2568SOL     OW 8089   1.434   4.912   7.489
 2568SOL    HW1 8090   1.466   4.836   7.546
 2568SOL    HW2 8091   1.342   4.939   7.519
 2569SOL     OW 8092   0.297   3.759   7.619
 2569SOL    HW1 8093   0.346   3.843   7.598
 2569SOL    HW2 8094   0.359   3.694   7.664
 2570SOL     OW 8095   0.935   3.960   7.928
 2570SOL    HW1 8096   0.887   4.001   7.850
 2570SOL    HW2 8097   1.034   3.958   7.909
 2571SOL     OW 8098   0.459   4.876   8.189
 2571SOL    HW1 8099   0.388   4.849   8.254
 2571SOL    HW2 8100   0.433   4.848   8.096
 2572SOL     OW 8101   1.032   4.273   7.464
 2572SOL    HW1 8102   0.991   4.355   7.425
 2572SOL    HW2 8103   1.096   4.299   7.537
 2573SOL     OW 8104   1.857   4.557   7.825
 2573SOL    HW1 8105   1.899   4.493   7.889
 2573SOL    HW2 8106   1.819   4.506   7.747
 2574SOL     OW 8107   0.488   5.109   7.622
 2574SOL    HW1 8108   0.401   5.094   7.669
 2574SOL    HW2 8109   0.471   5.135   7.527
 2575SOL     OW 8110   1.390   4.299   7.526
 2575SOL    HW1 8111   1.336   4.278   7.607
 2575SOL    HW2 8112   1.481   4.258   7.535
 2576SOL     OW 8113   0.527   3.980   7.776
 2576SOL    HW1 8114   0.554   3.921   7.701
 2576SOL    HW2 8115   0.527   4.075   7.745
 2577SOL     OW 8116   0.705   4.774   7.816
 2577SOL    HW1 8117   0.691   4.781   7.915
 2577SOL    HW2 8118   0.789   4.723   7.798
 2578SOL     OW 8119   0.367   4.824   7.949
 2578SOL    HW1 8120   0.360   4.907   7.893
 2578SOL    HW2 8121   0.371   4.744   7.889
 2579SOL     OW 8122   1.252   5.072   7.836
 2579SOL    HW1 8123   1.302   5.149   7.876
 2579SOL    HW2 8124   1.157   5.074   7.868
 2580SOL     OW 8125   1.582   4.363   7.920
 2580SOL    HW1 8126   1.551   4.424   7.993
 2580SOL    HW2 8127   1.632   4.415   7.851
 2581SOL     OW 8128   1.209   4.249   7.723
 2581SOL    HW1 8129   1.222   4.165   7.777
 2581SOL    HW2 8130   1.180   4.323   7.783
 2582SOL     OW 8131   1.622   4.091   7.822
 2582SOL    HW1 8132   1.624   4.015   7.886
 2582SOL    HW2 8133   1.574   4.168   7.862
 2583SOL     OW 8134   1.540   3.998   7.573
 2583SOL    HW1 8135   1.479   3.923   7.596
 2583SOL    HW2 8136   1.562   4.050   7.656
 2584SOL     OW 8137   1.303   4.562   7.490
 2584SOL    HW1 8138   1.337   4.469   7.505
 2584SOL    HW2 8139   1.321   4.589   7.395
 2585SOL     OW 8140   0.008   5.050   7.648
 2585SOL    HW1 8141  -0.085   5.071   7.617
 2585SOL    HW2 8142   0.018   4.951   7.661
 2586SOL     OW 8143   0.815   4.296   7.773
 2586SOL    HW1 8144   0.822   4.207   7.727
 2586SOL    HW2 8145   0.721   4.330   7.765
 2587SOL     OW 8146   0.473   4.224   7.639
 2587SOL    HW1 8147   0.534   4.304   7.643
 2587SOL    HW2 8148   0.378   4.255   7.646
 2588SOL     OW 8149   1.302   4.579   7.757
 2588SOL    HW1 8150   1.216   4.548   7.799
 2588SOL    HW2 8151   1.298   4.565   7.658
 2589SOL     OW 8152   1.726   3.859   7.971
 2589SOL    HW1 8153   1.799   3.842   7.904
 2589SOL    HW2 8154   1.695   3.772   8.009
 2590SOL     OW 8155   0.916   4.634   7.739
 2590SOL    HW1 8156   0.979   4.672   7.671
 2590SOL    HW2 8157   0.956   4.551   7.778
 2591SOL     OW 8158   0.255   5.072   7.738
 2591SOL    HW1 8159   0.159   5.073   7.711
 2591SOL    HW2 8160   0.267   5.125   7.822
 2592SOL     OW 8161   0.075   4.069   7.481
 2592SOL    HW1 8162  -0.017   4.041   7.452
 2592SOL    HW2 8163   0.106   4.146   7.425
 2593SOL     OW 8164   0.072   3.890   7.766
 2593SOL    HW1 8165   0.055   3.973   7.712
 2593SOL    HW2 8166   0.162   3.853   7.744
 2594SOL     OW 8167   1.183   5.059   7.567
 2594SOL    HW1 8168   1.084   5.048   7.569
 2594SOL    HW2 8169   1.217   5.074   7.660
 2595SOL     OW 8170   1.225   4.049   7.897
 2595SOL    HW1 8171   1.290   3.975   7.886
 2595SOL    HW2 8172   1.245   4.099   7.981
 2596SOL     OW 8173   0.594   4.469   8.100
 2596SOL    HW1 8174   0.644   4.554   8.081
 2596SOL    HW2 8175   0.506   4.471   8.052
 2597SOL     OW 8176   0.859   5.098   7.464
 2597SOL    HW1 8177   0.813   5.113   7.552
 2597SOL    HW2 8178   0.903   5.183   7.434
 2598SOL     OW 8179   1.083   4.708   7.535
 2598SOL    HW1 8180   1.060   4.761   7.453
 2598SOL    HW2 8181   1.164   4.652   7.516
 2599SOL     OW 8182   0.428   4.148   7.968
 2599SOL    HW1 8183   0.458   4.076   7.906
 2599SOL    HW2 8184   0.389   4.108   8.051
 2600SOL     OW 8185   0.770   5.054   7.749
 2600SOL    HW1 8186   0.724   4.967   7.766
 2600SOL    HW2 8187   0.861   5.051   7.790
 2601SOL     OW 8188   1.352   3.776   7.616
 2601SOL    HW1 8189   1.387   3.735   7.532
 2601SOL    HW2 8190   1.262   3.738   7.636
 2602SOL     OW 8191   0.039   4.801   7.748
 2602SOL    HW1 8192   0.138   4.790   7.739
 2602SOL    HW2 8193  -0.001   4.715   7.780
 2603SOL     OW 8194   2.092   0.628   0.113
 2603SOL    HW1 8195   1.999   0.626   0.150
 2603SOL    HW2 8196   2.093   0.589   0.021
 2604SOL     OW 8197   2.087   0.275   0.996
 2604SOL    HW1 8198   2.122   0.258   1.088
 2604SOL    HW2 8199   1.999   0.230   0.984
 2605SOL     OW 8200   1.881   0.368   0.647
 2605SOL    HW1 8201   1.799   0.411   0.686
 2605SOL    HW2 8202   1.853   0.295   0.584
 2606SOL     OW 8203   2.431   1.275   1.165
 2606SOL    HW1 8204   2.338   1.268   1.128
 2606SOL    HW2 8205   2.442   1.364   1.209
 2607SOL     OW 8206   3.417   1.511   0.703
 2607SOL    HW1 8207   3.360   1.495   0.784
 2607SOL    HW2 8208   3.358   1.521   0.623
 2608SOL     OW 8209   2.997   0.703   0.717
 2608SOL    HW1 8210   3.054   0.781   0.692
 2608SOL    HW2 8211   2.937   0.729   0.793
 2609SOL     OW 8212   3.617   0.607   0.231
 2609SOL    HW1 8213   3.605   0.594   0.132
 2609SOL    HW2 8214   3.587   0.526   0.280
 2610SOL     OW 8215   2.630   1.144   1.023
 2610SOL    HW1 8216   2.552   1.161   1.083
 2610SOL    HW2 8217   2.664   1.231   0.987
 2611SOL     OW 8218   2.712   0.798   1.823
 2611SOL    HW1 8219   2.708   0.874   1.888
 2611SOL    HW2 8220   2.734   0.834   1.732
 2612SOL     OW 8221   2.547   1.012   0.665
 2612SOL    HW1 8222   2.616   0.996   0.735
 2612SOL    HW2 8223   2.474   1.069   0.703
 2613SOL     OW 8224   2.548   1.161   1.803
 2613SOL    HW1 8225   2.608   1.240   1.817
 2613SOL    HW2 8226   2.462   1.192   1.762
 2614SOL     OW 8227   2.197   1.435   1.061
 2614SOL    HW1 8228   2.119   1.404   1.008
 2614SOL    HW2 8229   2.255   1.493   1.004
 2615SOL     OW 8230   3.322   1.505   1.339
 2615SOL    HW1 8231   3.346   1.599   1.365
 2615SOL    HW2 8232   3.306   1.451   1.421
 2616SOL     OW 8233   2.300   0.392   1.499
 2616SOL    HW1 8234   2.382   0.336   1.508
 2616SOL    HW2 8235   2.219   0.334   1.503
 2617SOL     OW 8236   3.465   0.447   0.737
 2617SOL    HW1 8237   3.391   0.493   0.687
 2617SOL    HW2 8238   3.516   0.515   0.790
 2618SOL     OW 8239   2.093   1.713   0.483
 2618SOL    HW1 8240   2.127   1.790   0.537
 2618SOL    HW2 8241   2.137   1.713   0.393
 2619SOL     OW 8242   2.989   1.341   1.690
 2619SOL    HW1 8243   3.036   1.341   1.778
 2619SOL    HW2 8244   2.941   1.254   1.679
 2620SOL     OW 8245   2.092   1.434   0.538
 2620SOL    HW1 8246   2.066   1.530   0.538
 2620SOL    HW2 8247   2.021   1.380   0.583
 2621SOL     OW 8248   2.102   1.091   0.886
 2621SOL    HW1 8249   2.116   1.007   0.938
 2621SOL    HW2 8250   2.047   1.155   0.941
 2622SOL     OW 8251   2.482   1.786   1.439
 2622SOL    HW1 8252   2.390   1.769   1.474
 2622SOL    HW2 8253   2.510   1.878   1.465
 2623SOL     OW 8254   2.468   0.964   0.123
 2623SOL    HW1 8255   2.475   1.048   0.069
 2623SOL    HW2 8256   2.514   0.977   0.211
 2624SOL     OW 8257   3.456   0.114   1.480
 2624SOL    HW1 8258   3.438   0.181   1.408
 2624SOL    HW2 8259   3.453   0.160   1.569
 2625SOL     OW 8260   1.984   0.643   0.563
 2625SOL    HW1 8261   1.939   0.555   0.580
 2625SOL    HW2 8262   1.983   0.697   0.647
 2626SOL     OW 8263   3.704   1.767   0.359
 2626SOL    HW1 8264   3.758   1.738   0.439
 2626SOL    HW2 8265   3.734   1.857   0.330
 2627SOL     OW 8266   1.889   1.596   0.117
 2627SOL    HW1 8267   1.870   1.500   0.138
 2627SOL    HW2 8268   1.856   1.654   0.192
 2628SOL     OW 8269   3.551   0.922   0.612
 2628SOL    HW1 8270   3.646   0.893   0.620
 2628SOL    HW2 8271   3.543   0.987   0.537
 2629SOL     OW 8272   3.503   1.108   0.432
 2629SOL    HW1 8273   3.589   1.110   0.380
 2629SOL    HW2 8274   3.517   1.155   0.520
 2630SOL     OW 8275   1.975   0.737   1.597
 2630SOL    HW1 8276   2.063   0.724   1.642
 2630SOL    HW2 8277   1.962   0.834   1.575
 2631SOL     OW 8278   2.475   1.365   0.726
 2631SOL    HW1 8279   2.426   1.278   0.735
 2631SOL    HW2 8280   2.452   1.408   0.639
 2632SOL     OW 8281   3.155   1.228   1.423
 2632SOL    HW1 8282   3.192   1.155   1.365
 2632SOL    HW2 8283   3.207   1.233   1.508
 2633SOL     OW 8284   2.671   0.004   0.502
 2633SOL    HW1 8285   2.711   0.095   0.493
 2633SOL    HW2 8286   2.571   0.012   0.508
 2634SOL     OW 8287   2.059   0.976   1.264
 2634SOL    HW1 8288   2.148   0.931   1.250
 2634SOL    HW2 8289   1.986   0.911   1.245
 2635SOL     OW 8290   3.387   0.999   0.190
 2635SOL    HW1 8291   3.324   0.923   0.203
 2635SOL    HW2 8292   3.435   1.017   0.276
 2636SOL     OW 8293   3.049   1.792   1.616
 2636SOL    HW1 8294   3.073   1.852   1.540
 2636SOL    HW2 8295   3.056   1.697   1.586
 2637SOL     OW 8296   2.179   0.251   1.801
 2637SOL    HW1 8297   2.250   0.322   1.807
 2637SOL    HW2 8298   2.091   0.290   1.829
 2638SOL     OW 8299   3.328   1.417   0.953
 2638SOL    HW1 8300   3.269   1.423   1.033
 2638SOL    HW2 8301   3.313   1.329   0.907
 2639SOL     OW 8302   3.529   1.714   0.572
 2639SOL    HW1 8303   3.488   1.691   0.484
 2639SOL    HW2 8304   3.511   1.640   0.637
 2640SOL     OW 8305   2.460   0.729   0.270
 2640SOL    HW1 8306   2.484   0.798   0.202
 2640SOL    HW2 8307   2.382   0.762   0.324
 2641SOL     OW 8308   3.143   0.345   0.944
 2641SOL    HW1 8309   3.057   0.295   0.931
 2641SOL    HW2 8310   3.205   0.291   1.000
 2642SOL     OW 8311   3.438   1.662   0.307
 2642SOL    HW1 8312   3.527   1.708   0.310
 2642SOL    HW2 8313   3.417   1.638   0.212
 2643SOL     OW 8314   2.669   0.605   1.465
 2643SOL    HW1 8315   2.622   0.602   1.554
 2643SOL    HW2 8316   2.618   0.550   1.399
 2644SOL     OW 8317   3.256   0.469   1.674
 2644SOL    HW1 8318   3.236   0.512   1.762
 2644SOL    HW2 8319   3.334   0.407   1.683
 2645SOL     OW 8320   2.835   0.890   1.572
 2645SOL    HW1 8321   2.881   0.806   1.543
 2645SOL    HW2 8322   2.779   0.924   1.497
 2646SOL     OW 8323   2.853   0.410   1.242
 2646SOL    HW1 8324   2.776   0.444   1.296
 2646SOL    HW2 8325   2.819   0.359   1.163
 2647SOL     OW 8326   2.903   0.701   0.429
 2647SOL    HW1 8327   2.929   0.697   0.525
 2647SOL    HW2 8328   2.818   0.650   0.415
 2648SOL     OW 8329   1.938   0.811   0.789
 2648SOL    HW1 8330   2.037   0.799   0.798
 2648SOL    HW2 8331   1.914   0.906   0.810
 2649SOL     OW 8332   1.992   1.821   1.571
 2649SOL    HW1 8333   1.982   1.806   1.670
 2649SOL    HW2 8334   1.906   1.857   1.535
 2650SOL     OW 8335   2.727   0.348   0.195
 2650SOL    HW1 8336   2.786   0.411   0.146
 2650SOL    HW2 8337   2.746   0.254   0.166
 2651SOL     OW 8338   3.581   0.585   1.831
 2651SOL    HW1 8339   3.555   0.674   1.795
 2651SOL    HW2 8340   3.579   0.517   1.758
 2652SOL     OW 8341   3.224   1.144   0.545
 2652SOL    HW1 8342   3.307   1.115   0.497
 2652SOL    HW2 8343   3.175   1.211   0.489
 2653SOL     OW 8344   2.412   0.196   0.885
 2653SOL    HW1 8345   2.407   0.191   0.985
 2653SOL    HW2 8346   2.414   0.292   0.856
 2654SOL     OW 8347   2.870   1.456   0.477
 2654SOL    HW1 8348   2.824   1.528   0.425
 2654SOL    HW2 8349   2.866   1.476   0.575
 2655SOL     OW 8350   2.213   1.801   0.853
 2655SOL    HW1 8351   2.263   1.715   0.859
 2655SOL    HW2 8352   2.278   1.878   0.850
 2656SOL     OW 8353   3.657   1.066   0.873
 2656SOL    HW1 8354   3.595   1.051   0.797
 2656SOL    HW2 8355   3.605   1.077   0.958
 2657SOL     OW 8356   3.089   1.550   1.506
 2657SOL    HW1 8357   3.095   1.473   1.570
 2657SOL    HW2 8358   3.037   1.524   1.426
 2658SOL     OW 8359   2.183   0.943   0.242
 2658SOL    HW1 8360   2.265   0.982   0.200
 2658SOL    HW2 8361   2.156   0.861   0.193
 2659SOL     OW 8362   3.320   0.735   0.728
 2659SOL    HW1 8363   3.315   0.670   0.803
 2659SOL    HW2 8364   3.400   0.794   0.741
 2660SOL     OW 8365   2.323   1.266   1.727
 2660SOL    HW1 8366   2.273   1.267   1.641
 2660SOL    HW2 8367   2.260   1.248   1.803
 2661SOL     OW 8368   2.973   1.776   0.237
 2661SOL    HW1 8369   2.913   1.714   0.287
 2661SOL    HW2 8370   3.004   1.732   0.152
 2662SOL     OW 8371   2.064   0.285   1.498
 2662SOL    HW1 8372   1.984   0.345   1.485
 2662SOL    HW2 8373   2.054   0.236   1.584
 2663SOL     OW 8374   3.494   1.377   0.081
 2663SOL    HW1 8375   3.462   1.471   0.071
 2663SOL    HW2 8376   3.418   1.314   0.069
 2664SOL     OW 8377   2.326   1.743   0.323
 2664SOL    HW1 8378   2.359   1.782   0.409
 2664SOL    HW2 8379   2.402   1.736   0.258
 2665SOL     OW 8380   3.262   0.107   0.426
 2665SOL    HW1 8381   3.238   0.070   0.336
 2665SOL    HW2 8382   3.361   0.123   0.430
 2666SOL     OW 8383   2.111   1.785   1.241
 2666SOL    HW1 8384   2.168   1.720   1.291
 2666SOL    HW2 8385   2.095   1.752   1.148
 2667SOL     OW 8386   2.802   1.698   0.904
 2667SOL    HW1 8387   2.882   1.641   0.925
 2667SOL    HW2 8388   2.753   1.658   0.827
 2668SOL     OW 8389   2.244   0.700   0.480
 2668SOL    HW1 8390   2.289   0.610   0.477
 2668SOL    HW2 8391   2.150   0.689   0.513
 2669SOL     OW 8392   3.409   0.222   1.729
 2669SOL    HW1 8393   3.404   0.259   1.821
 2669SOL    HW2 8394   3.337   0.153   1.717
 2670SOL     OW 8395   2.476   0.122   0.117
 2670SOL    HW1 8396   2.574   0.100   0.124
 2670SOL    HW2 8397   2.445   0.105   0.024
 2671SOL     OW 8398   2.643   0.264   1.749
 2671SOL    HW1 8399   2.710   0.203   1.792
 2671SOL    HW2 8400   2.570   0.283   1.814
 2672SOL     OW 8401   2.750   1.514   1.195
 2672SOL    HW1 8402   2.727   1.489   1.101
 2672SOL    HW2 8403   2.811   1.445   1.234
 2673SOL     OW 8404   3.213   0.590   1.433
 2673SOL    HW1 8405   3.241   0.547   1.518
 2673SOL    HW2 8406   3.238   0.686   1.434
 2674SOL     OW 8407   2.665   1.402   0.924
 2674SOL    HW1 8408   2.755   1.416   0.882
 2674SOL    HW2 8409   2.594   1.404   0.853
 2675SOL     OW 8410   2.784   0.503   0.899
 2675SOL    HW1 8411   2.759   0.494   0.803
 2675SOL    HW2 8412   2.832   0.421   0.930
 2676SOL     OW 8413   2.401   0.064   0.512
 2676SOL    HW1 8414   2.320   0.065   0.570
 2676SOL    HW2 8415   2.404   0.147   0.457
 2677SOL     OW 8416   3.296   1.188   0.041
 2677SOL    HW1 8417   3.328   1.112   0.098
 2677SOL    HW2 8418   3.204   1.215   0.071
 2678SOL     OW 8419   2.159   0.035   0.171
 2678SOL    HW1 8420   2.208   0.119   0.150
 2678SOL    HW2 8421   2.221  -0.030   0.216
 2679SOL     OW 8422   2.797   0.236   0.480
 2679SOL    HW1 8423   2.749   0.277   0.402
 2679SOL    HW2 8424   2.896   0.234   0.461
 2680SOL     OW 8425   2.938   0.683   1.464
 2680SOL    HW1 8426   2.858   0.622   1.467
 2680SOL    HW2 8427   3.019   0.630   1.440
 2681SOL     OW 8428   3.089   1.570   0.793
 2681SOL    HW1 8429   3.110   1.644   0.728
 2681SOL    HW2 8430   3.157   1.570   0.866
 2682SOL     OW 8431   2.321   1.152   0.741
 2682SOL    HW1 8432   2.250   1.125   0.806
 2682SOL    HW2 8433   2.295   1.124   0.648
 2683SOL     OW 8434   3.133   1.797   0.591
 2683SOL    HW1 8435   3.177   1.861   0.527
 2683SOL    HW2 8436   3.083   1.849   0.661
 2684SOL     OW 8437   2.894   0.549   0.016
 2684SOL    HW1 8438   2.853   0.631  -0.023
 2684SOL    HW2 8439   2.958   0.575   0.089
 2685SOL     OW 8440   1.940   0.556   1.386
 2685SOL    HW1 8441   2.032   0.555   1.345
 2685SOL    HW2 8442   1.934   0.630   1.453
 2686SOL     OW 8443   2.423   0.222   1.147
 2686SOL    HW1 8444   2.461   0.138   1.184
 2686SOL    HW2 8445   2.335   0.241   1.191
 2687SOL     OW 8446   2.728   0.454   0.642
 2687SOL    HW1 8447   2.696   0.526   0.580
 2687SOL    HW2 8448   2.752   0.373   0.589
 2688SOL     OW 8449   2.879   0.039   0.753
 2688SOL    HW1 8450   2.807   0.044   0.684
 2688SOL    HW2 8451   2.855  -0.030   0.822
 2689SOL     OW 8452   3.291   1.173   0.867
 2689SOL    HW1 8453   3.236   1.089   0.860
 2689SOL    HW2 8454   3.317   1.202   0.775
 2690SOL     OW 8455   3.328   0.590   0.992
 2690SOL    HW1 8456   3.298   0.495   0.999
 2690SOL    HW2 8457   3.401   0.606   1.058
 2691SOL     OW 8458   3.719   0.833   0.377
 2691SOL    HW1 8459   3.761   0.769   0.441
 2691SOL    HW2 8460   3.681   0.782   0.299
 2692SOL     OW 8461   2.350   1.385   0.174
 2692SOL    HW1 8462   2.263   1.370   0.221
 2692SOL    HW2 8463   2.333   1.411   0.079
 2693SOL     OW 8464   3.526   1.280   0.657
 2693SOL    HW1 8465   3.625   1.288   0.671
 2693SOL    HW2 8466   3.481   1.364   0.688
 2694SOL     OW 8467   3.252   0.575   0.078
 2694SOL    HW1 8468   3.198   0.554   0.159
 2694SOL    HW2 8469   3.343   0.534   0.087
 2695SOL     OW 8470   2.389   0.256   0.328
 2695SOL    HW1 8471   2.416   0.197   0.253
 2695SOL    HW2 8472   2.389   0.351   0.297
 2696SOL     OW 8473   3.616   1.223   1.588
 2696SOL    HW1 8474   3.707   1.184   1.575
 2696SOL    HW2 8475   3.624   1.319   1.612
 2697SOL     OW 8476   2.926   1.347   1.340
 2697SOL    HW1 8477   2.846   1.324   1.395
 2697SOL    HW2 8478   3.009   1.321   1.389
 2698SOL     OW 8479   3.454   1.629   1.625
 2698SOL    HW1 8480   3.481   1.663   1.535
 2698SOL    HW2 8481   3.533   1.591   1.671
 2699SOL     OW 8482   2.973   1.195   1.100
 2699SOL    HW1 8483   2.933   1.239   1.181
 2699SOL    HW2 8484   2.932   1.232   1.017
 2700SOL     OW 8485   3.500   1.099   1.079
 2700SOL    HW1 8486   3.505   1.180   1.138
 2700SOL    HW2 8487   3.414   1.101   1.028
 2701SOL     OW 8488   2.777   0.089   1.402
 2701SOL    HW1 8489   2.802   0.069   1.307
 2701SOL    HW2 8490   2.849   0.145   1.444
 2702SOL     OW 8491   2.842   1.116   1.719
 2702SOL    HW1 8492   2.743   1.122   1.729
 2702SOL    HW2 8493   2.865   1.036   1.663
 2703SOL     OW 8494   2.567   1.050   0.368
 2703SOL    HW1 8495   2.553   1.057   0.467
 2703SOL    HW2 8496   2.651   0.999   0.350
 2704SOL     OW 8497   2.272   0.813   1.251
 2704SOL    HW1 8498   2.358   0.825   1.301
 2704SOL    HW2 8499   2.230   0.726   1.278
 2705SOL     OW 8500   3.136   0.386   1.262
 2705SOL    HW1 8501   3.157   0.460   1.326
 2705SOL    HW2 8502   3.047   0.403   1.219
 2706SOL     OW 8503   1.926   1.564   1.331
 2706SOL    HW1 8504   1.880   1.646   1.297
 2706SOL    HW2 8505   2.024   1.583   1.340
 2707SOL     OW 8506   2.229   1.100   0.501
 2707SOL    HW1 8507   2.222   1.183   0.445
 2707SOL    HW2 8508   2.233   1.020   0.441
 2708SOL     OW 8509   2.428   0.537   0.865
 2708SOL    HW1 8510   2.440   0.603   0.791
 2708SOL    HW2 8511   2.474   0.571   0.948
 2709SOL     OW 8512   3.114   1.348   0.388
 2709SOL    HW1 8513   3.164   1.425   0.428
 2709SOL    HW2 8514   3.019   1.350   0.420
 2710SOL     OW 8515   3.134   1.445   1.142
 2710SOL    HW1 8516   3.181   1.458   1.229
 2710SOL    HW2 8517   3.068   1.371   1.151
 2711SOL     OW 8518   3.444   0.639   0.472
 2711SOL    HW1 8519   3.413   0.700   0.545
 2711SOL    HW2 8520   3.494   0.691   0.403
 2712SOL     OW 8521   2.216   1.510   1.329
 2712SOL    HW1 8522   2.195   1.466   1.242
 2712SOL    HW2 8523   2.313   1.536   1.332
 2713SOL     OW 8524   2.264   0.751   1.598
 2713SOL    HW1 8525   2.332   0.806   1.551
 2713SOL    HW2 8526   2.304   0.663   1.625
 2714SOL     OW 8527   3.449   0.779   1.670
 2714SOL    HW1 8528   3.357   0.817   1.665
 2714SOL    HW2 8529   3.509   0.826   1.605
 2715SOL     OW 8530   2.875   0.105   1.770
 2715SOL    HW1 8531   2.881   0.190   1.718
 2715SOL    HW2 8532   2.907   0.029   1.713
 2716SOL     OW 8533   2.366   0.050   1.740
 2716SOL    HW1 8534   2.324  -0.007   1.670
 2716SOL    HW2 8535   2.300   0.119   1.772
 2717SOL     OW 8536   2.435   0.870   1.029
 2717SOL    HW1 8537   2.479   0.959   1.020
 2717SOL    HW2 8538   2.372   0.870   1.106
 2718SOL     OW 8539   3.222   0.862   1.045
 2718SOL    HW1 8540   3.147   0.862   0.979
 2718SOL    HW2 8541   3.259   0.770   1.054
 2719SOL     OW 8542   3.071   0.525   0.275
 2719SOL    HW1 8543   3.084   0.441   0.329
 2719SOL    HW2 8544   3.042   0.599   0.335
 2720SOL     OW 8545   2.169   0.213   1.231
 2720SOL    HW1 8546   2.146   0.250   1.321
 2720SOL    HW2 8547   2.139   0.118   1.225
 2721SOL     OW 8548   1.899   1.310   1.282
 2721SOL    HW1 8549   1.952   1.261   1.350
 2721SOL    HW2 8550   1.921   1.408   1.287
 2722SOL     OW 8551   2.594   0.634   1.064
 2722SOL    HW1 8552   2.653   0.608   0.988
 2722SOL    HW2 8553   2.566   0.730   1.053
 2723SOL     OW 8554   3.590   0.935   1.854
 2723SOL    HW1 8555   3.544   0.928   1.765
 2723SOL    HW2 8556   3.528   0.979   1.920
 2724SOL     OW 8557   2.169   0.063   0.618
 2724SOL    HW1 8558   2.158   0.157   0.651
 2724SOL    HW2 8559   2.164   0.000   0.695
 2725SOL     OW 8560   3.484   0.367   0.374
 2725SOL    HW1 8561   3.486   0.291   0.438
 2725SOL    HW2 8562   3.436   0.444   0.414
 2726SOL     OW 8563   2.885   0.766   0.966
 2726SOL    HW1 8564   2.900   0.787   1.062
 2726SOL    HW2 8565   2.855   0.671   0.957
 2727SOL     OW 8566   2.842   1.573   1.700
 2727SOL    HW1 8567   2.822   1.617   1.612
 2727SOL    HW2 8568   2.881   1.482   1.684
 2728SOL     OW 8569   3.721   1.518   1.605
 2728SOL    HW1 8570   3.735   1.545   1.510
 2728SOL    HW2 8571   3.804   1.540   1.658
 2729SOL     OW 8572   2.212   0.898   1.804
 2729SOL    HW1 8573   2.288   0.942   1.852
 2729SOL    HW2 8574   2.247   0.851   1.722
 2730SOL     OW 8575   3.402   0.274   0.125
 2730SOL    HW1 8576   3.341   0.199   0.148
 2730SOL    HW2 8577   3.424   0.326   0.208
 2731SOL     OW 8578   3.165   0.838   0.042
 2731SOL    HW1 8579   3.199   0.745   0.057
 2731SOL    HW2 8580   3.183   0.865  -0.053
 2732SOL     OW 8581   2.930   1.333   0.849
 2732SOL    HW1 8582   2.937   1.249   0.794
 2732SOL    HW2 8583   2.992   1.402   0.813
 2733SOL     OW 8584   2.181   0.810   0.949
 2733SOL    HW1 8585   2.274   0.846   0.954
 2733SOL    HW2 8586   2.175   0.725   1.001
 2734SOL     OW 8587   2.201   0.509   1.006
 2734SOL    HW1 8588   2.149   0.426   0.989
 2734SOL    HW2 8589   2.278   0.514   0.942
 2735SOL     OW 8590   3.000   0.380   1.678
 2735SOL    HW1 8591   2.955   0.443   1.742
 2735SOL    HW2 8592   3.093   0.411   1.661
 2736SOL     OW 8593   3.022   0.207   1.477
 2736SOL    HW1 8594   3.022   0.271   1.554
 2736SOL    HW2 8595   3.050   0.255   1.394
 2737SOL     OW 8596   1.870   1.326   0.200
 2737SOL    HW1 8597   1.777   1.347   0.169
 2737SOL    HW2 8598   1.880   1.227   0.213
 2738SOL     OW 8599   1.950   1.801   0.927
 2738SOL    HW1 8600   1.908   1.715   0.900
 2738SOL    HW2 8601   2.044   1.804   0.893
 2739SOL     OW 8602   2.366   1.568   0.910
 2739SOL    HW1 8603   2.432   1.642   0.919
 2739SOL    HW2 8604   2.410   1.489   0.868
 2740SOL     OW 8605   2.864   0.796   1.238
 2740SOL    HW1 8606   2.905   0.764   1.324
 2740SOL    HW2 8607   2.768   0.769   1.235
 2741SOL     OW 8608   1.902   0.544   1.114
 2741SOL    HW1 8609   1.987   0.511   1.073
 2741SOL    HW2 8610   1.915   0.559   1.212
 2742SOL     OW 8611   2.051   0.520   1.722
 2742SOL    HW1 8612   2.110   0.480   1.652
 2742SOL    HW2 8613   1.993   0.591   1.681
 2743SOL     OW 8614   3.231   0.950   1.660
 2743SOL    HW1 8615   3.270   1.039   1.680
 2743SOL    HW2 8616   3.241   0.930   1.563
 2744SOL     OW 8617   2.677   0.572   0.325
 2744SOL    HW1 8618   2.684   0.483   0.279
 2744SOL    HW2 8619   2.583   0.606   0.317
 2745SOL     OW 8620   3.519   0.604   1.206
 2745SOL    HW1 8621   3.481   0.535   1.268
 2745SOL    HW2 8622   3.601   0.568   1.162
 2746SOL     OW 8623   2.114   1.564   1.744
 2746SOL    HW1 8624   2.084   1.621   1.820
 2746SOL    HW2 8625   2.107   1.467   1.770
 2747SOL     OW 8626   2.533   0.464   1.269
 2747SOL    HW1 8627   2.499   0.375   1.239
 2747SOL    HW2 8628   2.559   0.518   1.189
 2748SOL     OW 8629   2.792   1.678   1.465
 2748SOL    HW1 8630   2.768   1.660   1.370
 2748SOL    HW2 8631   2.822   1.772   1.475
 2749SOL     OW 8632   2.335   0.500   0.191
 2749SOL    HW1 8633   2.396   0.580   0.195
 2749SOL    HW2 8634   2.240   0.531   0.198
 2750SOL     OW 8635   2.021   1.137   1.466
 2750SOL    HW1 8636   2.043   1.076   1.542
 2750SOL    HW2 8637   2.031   1.088   1.380
 2751SOL     OW 8638   3.209   1.059   1.234
 2751SOL    HW1 8639   3.233   0.996   1.160
 2751SOL    HW2 8640   3.119   1.099   1.216
 2752SOL     OW 8641   3.164   0.855   0.309
 2752SOL    HW1 8642   3.078   0.824   0.351
 2752SOL    HW2 8643   3.160   0.841   0.210
 2753SOL     OW 8644   3.621   1.747   1.154
 2753SOL    HW1 8645   3.682   1.777   1.081
 2753SOL    HW2 8646   3.583   1.658   1.132
 2754SOL     OW 8647   3.114   1.731   1.128
 2754SOL    HW1 8648   3.198   1.736   1.074
 2754SOL    HW2 8649   3.091   1.635   1.146
 2755SOL     OW 8650   1.945   1.258   1.022
 2755SOL    HW1 8651   1.940   1.257   1.122
 2755SOL    HW2 8652   1.862   1.217   0.984
 2756SOL     OW 8653   2.550   1.662   1.716
 2756SOL    HW1 8654   2.494   1.743   1.725
 2756SOL    HW2 8655   2.602   1.666   1.630
 2757SOL     OW 8656   2.765   0.086   0.133
 2757SOL    HW1 8657   2.816   0.087   0.047
 2757SOL    HW2 8658   2.821   0.044   0.204
 2758SOL     OW 8659   3.588   0.135   0.523
 2758SOL    HW1 8660   3.661   0.118   0.456
 2758SOL    HW2 8661   3.557   0.048   0.561
 2759SOL     OW 8662   3.250   1.573   0.477
 2759SOL    HW1 8663   3.317   1.585   0.403
 2759SOL    HW2 8664   3.210   1.662   0.500
 2760SOL     OW 8665   1.992   1.794   1.851
 2760SOL    HW1 8666   1.951   1.720   1.904
 2760SOL    HW2 8667   2.056   1.845   1.909
 2761SOL     OW 8668   3.142   0.927   0.672
 2761SOL    HW1 8669   3.202   0.846   0.674
 2761SOL    HW2 8670   3.182   0.996   0.612
 2762SOL     OW 8671   2.692   1.273   1.422
 2762SOL    HW1 8672   2.687   1.306   1.517
 2762SOL    HW2 8673   2.606   1.292   1.376
 2763SOL     OW 8674   2.534   1.616   0.154
 2763SOL    HW1 8675   2.543   1.626   0.055
 2763SOL    HW2 8676   2.494   1.527   0.175
 2764SOL     OW 8677   3.512   1.720   1.394
 2764SOL    HW1 8678   3.565   1.730   1.310
 2764SOL    HW2 8679   3.485   1.810   1.428
 2765SOL     OW 8680   3.703   0.175   0.963
 2765SOL    HW1 8681   3.742   0.090   0.927
 2765SOL    HW2 8682   3.605   0.177   0.944
 2766SOL     OW 8683   2.125   0.326   0.720
 2766SOL    HW1 8684   2.046   0.377   0.686
 2766SOL    HW2 8685   2.116   0.311   0.818
 2767SOL     OW 8686   3.056   1.612   0.031
 2767SOL    HW1 8687   3.062   1.519   0.068
 2767SOL    HW2 8688   2.997   1.612  -0.049
 2768SOL     OW 8689   2.684   1.002   1.372
 2768SOL    HW1 8690   2.724   1.001   1.280
 2768SOL    HW2 8691   2.694   1.094   1.412
 2769SOL     OW 8692   2.778   0.910   0.291
 2769SOL    HW1 8693   2.841   0.948   0.223
 2769SOL    HW2 8694   2.818   0.827   0.330
 2770SOL     OW 8695   3.366   1.607   0.044
 2770SOL    HW1 8696   3.274   1.644   0.051
 2770SOL    HW2 8697   3.404   1.627  -0.046
 2771SOL     OW 8698   2.234   1.288   1.490
 2771SOL    HW1 8699   2.221   1.381   1.456
 2771SOL    HW2 8700   2.150   1.236   1.477
 2772SOL     OW 8701   3.476   1.292   1.289
 2772SOL    HW1 8702   3.536   1.295   1.369
 2772SOL    HW2 8703   3.401   1.356   1.302
 2773SOL     OW 8704   2.901   1.098   0.696
 2773SOL    HW1 8705   2.831   1.051   0.750
 2773SOL    HW2 8706   2.960   1.030   0.653
 2774SOL     OW 8707   2.876   0.236   0.971
 2774SOL    HW1 8708   2.868   0.200   0.878
 2774SOL    HW2 8709   2.874   0.160   1.036
 2775SOL     OW 8710   2.452   1.487   0.491
 2775SOL    HW1 8711   2.494   1.429   0.421
 2775SOL    HW2 8712   2.408   1.566   0.447
 2776SOL     OW 8713   3.571   0.385   1.381
 2776SOL    HW1 8714   3.644   0.454   1.385
 2776SOL    HW2 8715   3.599   0.310   1.322
 2777SOL     OW 8716   2.117   1.348   0.290
 2777SOL    HW1 8717   2.021   1.349   0.263
 2777SOL    HW2 8718   2.129   1.401   0.374
 2778SOL     OW 8719   1.967   1.013   1.726
 2778SOL    HW1 8720   1.890   0.980   1.780
 2778SOL    HW2 8721   2.052   0.983   1.768
 2779SOL     OW 8722   2.534   0.203   1.489
 2779SOL    HW1 8723   2.624   0.187   1.449
 2779SOL    HW2 8724   2.542   0.208   1.588
 2780SOL     OW 8725   1.937   0.345   0.033
 2780SOL    HW1 8726   1.845   0.317   0.004
 2780SOL    HW2 8727   1.968   0.422  -0.023
 2781SOL     OW 8728   3.302   0.856   1.398
 2781SOL    HW1 8729   3.245   0.908   1.335
 2781SOL    HW2 8730   3.398   0.868   1.374
 2782SOL     OW 8731   1.934   0.166   0.318
 2782SOL    HW1 8732   1.917   0.249   0.264
 2782SOL    HW2 8733   2.024   0.129   0.296
 2783SOL     OW 8734   3.045   1.335   0.119
 2783SOL    HW1 8735   2.946   1.324   0.121
 2783SOL    HW2 8736   3.079   1.350   0.212
 2784SOL     OW 8737   2.475   0.842   1.431
 2784SOL    HW1 8738   2.531   0.923   1.414
 2784SOL    HW2 8739   2.534   0.762   1.434
 2785SOL     OW 8740   3.355   1.767   0.959
 2785SOL    HW1 8741   3.388   1.831   0.890
 2785SOL    HW2 8742   3.421   1.761   1.034
 2786SOL     OW 8743   2.578   0.565   1.708
 2786SOL    HW1 8744   2.597   0.630   1.782
 2786SOL    HW2 8745   2.638   0.485   1.717
 2787SOL     OW 8746   3.312   1.220   1.633
 2787SOL    HW1 8747   3.303   1.210   1.732
 2787SOL    HW2 8748   3.408   1.213   1.607
 2788SOL     OW 8749   2.252   1.741   1.560
 2788SOL    HW1 8750   2.161   1.782   1.558
 2788SOL    HW2 8751   2.245   1.647   1.592
 2789SOL     OW 8752   3.536   0.883   1.254
 2789SOL    HW1 8753   3.509   0.794   1.217
 2789SOL    HW2 8754   3.537   0.951   1.181
 2790SOL     OW 8755   3.087   0.325   0.449
 2790SOL    HW1 8756   3.152   0.251   0.438
 2790SOL    HW2 8757   3.107   0.375   0.533
 2791SOL     OW 8758   2.456   0.745   0.652
 2791SOL    HW1 8759   2.506   0.830   0.633
 2791SOL    HW2 8760   2.368   0.747   0.604
 2792SOL     OW 8761   3.639   0.342   1.642
 2792SOL    HW1 8762   3.622   0.373   1.548
 2792SOL    HW2 8763   3.555   0.305   1.680
 2793SOL     OW 8764   3.592   0.934   1.517
 2793SOL    HW1 8765   3.630   1.025   1.532
 2793SOL    HW2 8766   3.584   0.917   1.418
 2794SOL     OW 8767   2.721   1.374   0.016
 2794SOL    HW1 8768   2.675   1.389   0.104
 2794SOL    HW2 8769   2.765   1.459  -0.014
 2795SOL     OW 8770   2.523   1.790   0.953
 2795SOL    HW1 8771   2.477   1.878   0.940
 2795SOL    HW2 8772   2.622   1.802   0.946
 2796SOL     OW 8773   2.721   0.956   0.861
 2796SOL    HW1 8774   2.775   0.887   0.909
 2796SOL    HW2 8775   2.689   1.025   0.927
 2797SOL     OW 8776   2.945   0.984   0.087
 2797SOL    HW1 8777   2.922   1.037   0.005
 2797SOL    HW2 8778   3.026   0.928   0.068
 2798SOL     OW 8779   3.723   1.569   0.851
 2798SOL    HW1 8780   3.652   1.557   0.781
 2798SOL    HW2 8781   3.724   1.490   0.911
 2799SOL     OW 8782   2.083   1.314   1.844
 2799SOL    HW1 8783   2.018   1.241   1.823
 2799SOL    HW2 8784   2.087   1.328   1.942
 2800SOL     OW 8785   1.941   1.240   0.653
 2800SOL    HW1 8786   1.940   1.193   0.741
 2800SOL    HW2 8787   2.023   1.212   0.602
 2801SOL     OW 8788   2.534   1.391   1.624
 2801SOL    HW1 8789   2.456   1.341   1.662
 2801SOL    HW2 8790   2.531   1.486   1.655
 2802SOL     OW 8791   3.686   0.192   1.227
 2802SOL    HW1 8792   3.682   0.102   1.271
 2802SOL    HW2 8793   3.689   0.181   1.128
 2803SOL     OW 8794   2.290   0.424   0.520
 2803SOL    HW1 8795   2.320   0.352   0.458
 2803SOL    HW2 8796   2.251   0.384   0.603
 2804SOL     OW 8797   3.567   1.487   1.104
 2804SOL    HW1 8798   3.474   1.462   1.077
 2804SOL    HW2 8799   3.593   1.437   1.186
 2805SOL     OW 8800   2.179   0.547   1.280
 2805SOL    HW1 8801   2.217   0.488   1.352
 2805SOL    HW2 8802   2.219   0.521   1.192
 2806SOL     OW 8803   2.674   1.586   0.687
 2806SOL    HW1 8804   2.706   1.596   0.593
 2806SOL    HW2 8805   2.595   1.524   0.689
 2807SOL     OW 8806   3.286   0.214   1.112
 2807SOL    HW1 8807   3.338   0.149   1.167
 2807SOL    HW2 8808   3.237   0.277   1.173
 2808SOL     OW 8809   2.863   0.034   1.154
 2808SOL    HW1 8810   2.800  -0.038   1.123
 2808SOL    HW2 8811   2.956  -0.002   1.154
 2809SOL     OW 8812   2.632   1.330   0.301
 2809SOL    HW1 8813   2.586   1.243   0.318
 2809SOL    HW2 8814   2.723   1.327   0.342
 2810SOL     OW 8815   2.480   1.567   1.284
 2810SOL    HW1 8816   2.475   1.649   1.341
 2810SOL    HW2 8817   2.569   1.564   1.239
 2811SOL     OW 8818   3.214   0.052   0.168
 2811SOL    HW1 8819   3.249   0.011   0.084
 2811SOL    HW2 8820   3.124   0.014   0.188
 2812SOL     OW 8821   3.162   0.453   0.691
 2812SOL    HW1 8822   3.103   0.533   0.695
 2812SOL    HW2 8823   3.177   0.418   0.784
 2813SOL     OW 8824   3.455   0.221   0.882
 2813SOL    HW1 8825   3.371   0.220   0.936
 2813SOL    HW2 8826   3.457   0.304   0.826
 2814SOL     OW 8827   1.901   1.077   0.300
 2814SOL    HW1 8828   2.000   1.066   0.291
 2814SOL    HW2 8829   1.861   0.991   0.332
 2815SOL     OW 8830   2.737   1.646   0.337
 2815SOL    HW1 8831   2.660   1.611   0.283
 2815SOL    HW2 8832   2.705   1.717   0.399
 2816SOL     OW 8833   2.092   0.628   1.975
 2816SOL    HW1 8834   1.999   0.626   2.012
 2816SOL    HW2 8835   2.093   0.589   1.883
 2817SOL     OW 8836   2.087   0.275   2.858
 2817SOL    HW1 8837   2.122   0.258   2.950
 2817SOL    HW2 8838   1.999   0.230   2.846
 2818SOL     OW 8839   1.881   0.368   2.509
 2818SOL    HW1 8840   1.799   0.411   2.548
 2818SOL    HW2 8841   1.853   0.295   2.446
 2819SOL     OW 8842   2.431   1.275   3.027
 2819SOL    HW1 8843   2.338   1.268   2.990
 2819SOL    HW2 8844   2.442   1.364   3.071
 2820SOL     OW 8845   3.417   1.511   2.565
 2820SOL    HW1 8846   3.360   1.495   2.646
 2820SOL    HW2 8847   3.358   1.521   2.485
 2821SOL     OW 8848   2.997   0.703   2.579
 2821SOL    HW1 8849   3.054   0.781   2.554
 2821SOL    HW2 8850   2.937   0.729   2.655
 2822SOL     OW 8851   3.617   0.607   2.093
 2822SOL    HW1 8852   3.605   0.594   1.994
 2822SOL    HW2 8853   3.587   0.526   2.142
 2823SOL     OW 8854   2.630   1.144   2.885
 2823SOL    HW1 8855   2.552   1.161   2.945
 2823SOL    HW2 8856   2.664   1.231   2.849
 2824SOL     OW 8857   2.712   0.798   3.685
 2824SOL    HW1 8858   2.708   0.874   3.750
 2824SOL    HW2 8859   2.734   0.834   3.594
 2825SOL     OW 8860   2.547   1.012   2.527
 2825SOL    HW1 8861   2.616   0.996   2.597
 2825SOL    HW2 8862   2.474   1.069   2.565
 2826SOL     OW 8863   2.548   1.161   3.665
 2826SOL    HW1 8864   2.608   1.240   3.679
 2826SOL    HW2 8865   2.462   1.192   3.624
 2827SOL     OW 8866   2.197   1.435   2.923
 2827SOL    HW1 8867   2.119   1.404   2.870
 2827SOL    HW2 8868   2.255   1.493   2.866
 2828SOL     OW 8869   3.322   1.505   3.201
 2828SOL    HW1 8870   3.346   1.599   3.227
 2828SOL    HW2 8871   3.306   1.451   3.283
 2829SOL     OW 8872   2.300   0.392   3.361
 2829SOL    HW1 8873   2.382   0.336   3.370
 2829SOL    HW2 8874   2.219   0.334   3.365
 2830SOL     OW 8875   3.465   0.447   2.599
 2830SOL    HW1 8876   3.391   0.493   2.549
 2830SOL    HW2 8877   3.516   0.515   2.652
 2831SOL     OW 8878   2.093   1.713   2.345
 2831SOL    HW1 8879   2.127   1.790   2.399
 2831SOL    HW2 8880   2.137   1.713   2.255
 2832SOL     OW 8881   2.989   1.341   3.552
 2832SOL    HW1 8882   3.036   1.341   3.640
 2832SOL    HW2 8883   2.941   1.254   3.541
 2833SOL     OW 8884   2.092   1.434   2.400
 2833SOL    HW1 8885   2.066   1.530   2.400
 2833SOL    HW2 8886   2.021   1.380   2.445
 2834SOL     OW 8887   2.102   1.091   2.748
 2834SOL    HW1 8888   2.116   1.007   2.800
 2834SOL    HW2 8889   2.047   1.155   2.803
 2835SOL     OW 8890   2.482   1.786   3.301
 2835SOL    HW1 8891   2.390   1.769   3.336
 2835SOL    HW2 8892   2.510   1.878   3.327
 2836SOL     OW 8893   2.468   0.964   1.985
 2836SOL    HW1 8894   2.475   1.048   1.931
 2836SOL    HW2 8895   2.514   0.977   2.073
 2837SOL     OW 8896   3.456   0.114   3.342
 2837SOL    HW1 8897   3.438   0.181   3.270
 2837SOL    HW2 8898   3.453   0.160   3.431
 2838SOL     OW 8899   1.984   0.643   2.425
 2838SOL    HW1 8900   1.939   0.555   2.442
 2838SOL    HW2 8901   1.983   0.697   2.509
 2839SOL     OW 8902   3.704   1.767   2.221
 2839SOL    HW1 8903   3.758   1.738   2.301
 2839SOL    HW2 8904   3.734   1.857   2.192
 2840SOL     OW 8905   1.889   1.596   1.979
 2840SOL    HW1 8906   1.870   1.500   2.000
 2840SOL    HW2 8907   1.856   1.654   2.054
 2841SOL     OW 8908   3.551   0.922   2.474
 2841SOL    HW1 8909   3.646   0.893   2.482
 2841SOL    HW2 8910   3.543   0.987   2.399
 2842SOL     OW 8911   3.503   1.108   2.294
 2842SOL    HW1 8912   3.589   1.110   2.242
 2842SOL    HW2 8913   3.517   1.155   2.382
 2843SOL     OW 8914   1.975   0.737   3.459
 2843SOL    HW1 8915   2.063   0.724   3.504
 2843SOL    HW2 8916   1.962   0.834   3.437
 2844SOL     OW 8917   2.475   1.365   2.588
 2844SOL    HW1 8918   2.426   1.278   2.597
 2844SOL    HW2 8919   2.452   1.408   2.501
 2845SOL     OW 8920   3.155   1.228   3.285
 2845SOL    HW1 8921   3.192   1.155   3.227
 2845SOL    HW2 8922   3.207   1.233   3.370
 2846SOL     OW 8923   2.671   0.004   2.364
 2846SOL    HW1 8924   2.711   0.095   2.355
 2846SOL    HW2 8925   2.571   0.012   2.370
 2847SOL     OW 8926   2.059   0.976   3.126
 2847SOL    HW1 8927   2.148   0.931   3.112
 2847SOL    HW2 8928   1.986   0.911   3.107
 2848SOL     OW 8929   3.387   0.999   2.052
 2848SOL    HW1 8930   3.324   0.923   2.065
 2848SOL    HW2 8931   3.435   1.017   2.138
 2849SOL     OW 8932   3.049   1.792   3.478
 2849SOL    HW1 8933   3.073   1.852   3.402
 2849SOL    HW2 8934   3.056   1.697   3.448
 2850SOL     OW 8935   2.179   0.251   3.663
 2850SOL    HW1 8936   2.250   0.322   3.669
 2850SOL    HW2 8937   2.091   0.290   3.691
 2851SOL     OW 8938   3.328   1.417   2.815
 2851SOL    HW1 8939   3.269   1.423   2.895
 2851SOL    HW2 8940   3.313   1.329   2.769
 2852SOL     OW 8941   3.529   1.714   2.434
 2852SOL    HW1 8942   3.488   1.691   2.346
 2852SOL    HW2 8943   3.511   1.640   2.499
 2853SOL     OW 8944   2.460   0.729   2.132
 2853SOL    HW1 8945   2.484   0.798   2.064
 2853SOL    HW2 8946   2.382   0.762   2.186
 2854SOL     OW 8947   3.143   0.345   2.806
 2854SOL    HW1 8948   3.057   0.295   2.793
 2854SOL    HW2 8949   3.205   0.291   2.862
 2855SOL     OW 8950   3.438   1.662   2.169
 2855SOL    HW1 8951   3.527   1.708   2.172
 2855SOL    HW2 8952   3.417   1.638   2.074
 2856SOL     OW 8953   2.669   0.605   3.327
 2856SOL    HW1 8954   2.622   0.602   3.416
 2856SOL    HW2 8955   2.618   0.550   3.261
 2857SOL     OW 8956   3.256   0.469   3.536
 2857SOL    HW1 8957   3.236   0.512   3.624
 2857SOL    HW2 8958   3.334   0.407   3.545
 2858SOL     OW 8959   2.835   0.890   3.434
 2858SOL    HW1 8960   2.881   0.806   3.405
 2858SOL    HW2 8961   2.779   0.924   3.359
 2859SOL     OW 8962   2.853   0.410   3.104
 2859SOL    HW1 8963   2.776   0.444   3.158
 2859SOL    HW2 8964   2.819   0.359   3.025
 2860SOL     OW 8965   2.903   0.701   2.291
 2860SOL    HW1 8966   2.929   0.697   2.387
 2860SOL    HW2 8967   2.818   0.650   2.277
 2861SOL     OW 8968   1.938   0.811   2.651
 2861SOL    HW1 8969   2.037   0.799   2.660
 2861SOL    HW2 8970   1.914   0.906   2.672
 2862SOL     OW 8971   1.992   1.821   3.433
 2862SOL    HW1 8972   1.982   1.806   3.532
 2862SOL    HW2 8973   1.906   1.857   3.397
 2863SOL     OW 8974   2.727   0.348   2.057
 2863SOL    HW1 8975   2.786   0.411   2.008
 2863SOL    HW2 8976   2.746   0.254   2.028
 2864SOL     OW 8977   3.581   0.585   3.693
 2864SOL    HW1 8978   3.555   0.674   3.657
 2864SOL    HW2 8979   3.579   0.517   3.620
 2865SOL     OW 8980   3.224   1.144   2.407
 2865SOL    HW1 8981   3.307   1.115   2.359
 2865SOL    HW2 8982   3.175   1.211   2.351
 2866SOL     OW 8983   2.412   0.196   2.747
 2866SOL    HW1 8984   2.407   0.191   2.847
 2866SOL    HW2 8985   2.414   0.292   2.718
 2867SOL     OW 8986   2.870   1.456   2.339
 2867SOL    HW1 8987   2.824   1.528   2.287
 2867SOL    HW2 8988   2.866   1.476   2.437
 2868SOL     OW 8989   2.213   1.801   2.715
 2868SOL    HW1 8990   2.263   1.715   2.721
 2868SOL    HW2 8991   2.278   1.878   2.712
 2869SOL     OW 8992   3.657   1.066   2.735
 2869SOL    HW1 8993   3.595   1.051   2.659
 2869SOL    HW2 8994   3.605   1.077   2.820
 2870SOL     OW 8995   3.089   1.550   3.368
 2870SOL    HW1 8996   3.095   1.473   3.432
 2870SOL    HW2 8997   3.037   1.524   3.288
 2871SOL     OW 8998   2.183   0.943   2.104
 2871SOL    HW1 8999   2.265   0.982   2.062
 2871SOL    HW2 9000   2.156   0.861   2.055
 2872SOL     OW 9001   3.320   0.735   2.590
 2872SOL    HW1 9002   3.315   0.670   2.665
 2872SOL    HW2 9003   3.400   0.794   2.603
 2873SOL     OW 9004   2.323   1.266   3.589
 2873SOL    HW1 9005   2.273   1.267   3.503
 2873SOL    HW2 9006   2.260   1.248   3.665
 2874SOL     OW 9007   2.973   1.776   2.099
 2874SOL    HW1 9008   2.913   1.714   2.149
 2874SOL    HW2 9009   3.004   1.732   2.014
 2875SOL     OW 9010   2.064   0.285   3.360
 2875SOL    HW1 9011   1.984   0.345   3.347
 2875SOL    HW2 9012   2.054   0.236   3.446
 2876SOL     OW 9013   3.494   1.377   1.943
 2876SOL    HW1 9014   3.462   1.471   1.933
 2876SOL    HW2 9015   3.418   1.314   1.931
 2877SOL     OW 9016   2.326   1.743   2.185
 2877SOL    HW1 9017   2.359   1.782   2.271
 2877SOL    HW2 9018   2.402   1.736   2.120
 2878SOL     OW 9019   3.262   0.107   2.288
 2878SOL    HW1 9020   3.238   0.070   2.198
 2878SOL    HW2 9021   3.361   0.123   2.292
 2879SOL     OW 9022   2.111   1.785   3.103
 2879SOL    HW1 9023   2.168   1.720   3.153
 2879SOL    HW2 9024   2.095   1.752   3.010
 2880SOL     OW 9025   2.802   1.698   2.766
 2880SOL    HW1 9026   2.882   1.641   2.787
 2880SOL    HW2 9027   2.753   1.658   2.689
 2881SOL     OW 9028   2.244   0.700   2.342
 2881SOL    HW1 9029   2.289   0.610   2.339
 2881SOL    HW2 9030   2.150   0.689   2.375
 2882SOL     OW 9031   3.409   0.222   3.591
 2882SOL    HW1 9032   3.404   0.259   3.683
 2882SOL    HW2 9033   3.337   0.153   3.579
 2883SOL     OW 9034   2.476   0.122   1.979
 2883SOL    HW1 9035   2.574   0.100   1.986
 2883SOL    HW2 9036   2.445   0.105   1.886
 2884SOL     OW 9037   2.643   0.264   3.611
 2884SOL    HW1 9038   2.710   0.203   3.654
 2884SOL    HW2 9039   2.570   0.283   3.676
 2885SOL     OW 9040   2.750   1.514   3.057
 2885SOL    HW1 9041   2.727   1.489   2.963
 2885SOL    HW2 9042   2.811   1.445   3.096
 2886SOL     OW 9043   3.213   0.590   3.295
 2886SOL    HW1 9044   3.241   0.547   3.380
 2886SOL    HW2 9045   3.238   0.686   3.296
 2887SOL     OW 9046   2.665   1.402   2.786
 2887SOL    HW1 9047   2.755   1.416   2.744
 2887SOL    HW2 9048   2.594   1.404   2.715
 2888SOL     OW 9049   2.784   0.503   2.761
 2888SOL    HW1 9050   2.759   0.494   2.665
 2888SOL    HW2 9051   2.832   0.421   2.792
 2889SOL     OW 9052   2.401   0.064   2.374
 2889SOL    HW1 9053   2.320   0.065   2.432
 2889SOL    HW2 9054   2.404   0.147   2.319
 2890SOL     OW 9055   3.296   1.188   1.903
 2890SOL    HW1 9056   3.328   1.112   1.960
 2890SOL    HW2 9057   3.204   1.215   1.933
 2891SOL     OW 9058   2.159   0.035   2.033
 2891SOL    HW1 9059   2.208   0.119   2.012
 2891SOL    HW2 9060   2.221  -0.030   2.078
 2892SOL     OW 9061   2.797   0.236   2.342
 2892SOL    HW1 9062   2.749   0.277   2.264
 2892SOL    HW2 9063   2.896   0.234   2.323
 2893SOL     OW 9064   2.938   0.683   3.326
 2893SOL    HW1 9065   2.858   0.622   3.329
 2893SOL    HW2 9066   3.019   0.630   3.302
 2894SOL     OW 9067   3.089   1.570   2.655
 2894SOL    HW1 9068   3.110   1.644   2.590
 2894SOL    HW2 9069   3.157   1.570   2.728
 2895SOL     OW 9070   2.321   1.152   2.603
 2895SOL    HW1 9071   2.250   1.125   2.668
 2895SOL    HW2 9072   2.295   1.124   2.510
 2896SOL     OW 9073   3.133   1.797   2.453
 2896SOL    HW1 9074   3.177   1.861   2.389
 2896SOL    HW2 9075   3.083   1.849   2.523
 2897SOL     OW 9076   2.894   0.549   1.878
 2897SOL    HW1 9077   2.853   0.631   1.839
 2897SOL    HW2 9078   2.958   0.575   1.951
 2898SOL     OW 9079   1.940   0.556   3.248
 2898SOL    HW1 9080   2.032   0.555   3.207
 2898SOL    HW2 9081   1.934   0.630   3.315
 2899SOL     OW 9082   2.423   0.222   3.009
 2899SOL    HW1 9083   2.461   0.138   3.046
 2899SOL    HW2 9084   2.335   0.241   3.053
 2900SOL     OW 9085   2.728   0.454   2.504
 2900SOL    HW1 9086   2.696   0.526   2.442
 2900SOL    HW2 9087   2.752   0.373   2.451
 2901SOL     OW 9088   2.879   0.039   2.615
 2901SOL    HW1 9089   2.807   0.044   2.546
 2901SOL    HW2 9090   2.855  -0.030   2.684
 2902SOL     OW 9091   3.291   1.173   2.729
 2902SOL    HW1 9092   3.236   1.089   2.722
 2902SOL    HW2 9093   3.317   1.202   2.637
 2903SOL     OW 9094   3.328   0.590   2.854
 2903SOL    HW1 9095   3.298   0.495   2.861
 2903SOL    HW2 9096   3.401   0.606   2.920
 2904SOL     OW 9097   3.719   0.833   2.239
 2904SOL    HW1 9098   3.761   0.769   2.303
 2904SOL    HW2 9099   3.681   0.782   2.161
 2905SOL     OW 9100   2.350   1.385   2.036
 2905SOL    HW1 9101   2.263   1.370   2.083
 2905SOL    HW2 9102   2.333   1.411   1.941
 2906SOL     OW 9103   3.526   1.280   2.519
 2906SOL    HW1 9104   3.625   1.288   2.533
 2906SOL    HW2 9105   3.481   1.364   2.550
 2907SOL     OW 9106   3.252   0.575   1.940
 2907SOL    HW1 9107   3.198   0.554   2.021
 2907SOL    HW2 9108   3.343   0.534   1.949
 2908SOL     OW 9109   2.389   0.256   2.190
 2908SOL    HW1 9110   2.416   0.197   2.115
 2908SOL    HW2 9111   2.389   0.351   2.159
 2909SOL     OW 9112   3.616   1.223   3.450
 2909SOL    HW1 9113   3.707   1.184   3.437
 2909SOL    HW2 9114   3.624   1.319   3.474
 2910SOL     OW 9115   2.926   1.347   3.202
 2910SOL    HW1 9116   2.846   1.324   3.257
 2910SOL    HW2 9117   3.009   1.321   3.251
 2911SOL     OW 9118   3.454   1.629   3.487
 2911SOL    HW1 9119   3.481   1.663   3.397
 2911SOL    HW2 9120   3.533   1.591   3.533
 2912SOL     OW 9121   2.973   1.195   2.962
 2912SOL    HW1 9122   2.933   1.239   3.043
 2912SOL    HW2 9123   2.932   1.232   2.879
 2913SOL     OW 9124   3.500   1.099   2.941
 2913SOL    HW1 9125   3.505   1.180   3.000
 2913SOL    HW2 9126   3.414   1.101   2.890
 2914SOL     OW 9127   2.777   0.089   3.264
 2914SOL    HW1 9128   2.802   0.069   3.169
 2914SOL    HW2 9129   2.849   0.145   3.306
 2915SOL     OW 9130   2.842   1.116   3.581
 2915SOL    HW1 9131   2.743   1.122   3.591
 2915SOL    HW2 9132   2.865   1.036   3.525
 2916SOL     OW 9133   2.567   1.050   2.230
 2916SOL    HW1 9134   2.553   1.057   2.329
 2916SOL    HW2 9135   2.651   0.999   2.212
 2917SOL     OW 9136   2.272   0.813   3.113
 2917SOL    HW1 9137   2.358   0.825   3.163
 2917SOL    HW2 9138   2.230   0.726   3.140
 2918SOL     OW 9139   3.136   0.386   3.124
 2918SOL    HW1 9140   3.157   0.460   3.188
 2918SOL    HW2 9141   3.047   0.403   3.081
 2919SOL     OW 9142   1.926   1.564   3.193
 2919SOL    HW1 9143   1.880   1.646   3.159
 2919SOL    HW2 9144   2.024   1.583   3.202
 2920SOL     OW 9145   2.229   1.100   2.363
 2920SOL    HW1 9146   2.222   1.183   2.307
 2920SOL    HW2 9147   2.233   1.020   2.303
 2921SOL     OW 9148   2.428   0.537   2.727
 2921SOL    HW1 9149   2.440   0.603   2.653
 2921SOL    HW2 9150   2.474   0.571   2.810
 2922SOL     OW 9151   3.114   1.348   2.250
 2922SOL    HW1 9152   3.164   1.425   2.290
 2922SOL    HW2 9153   3.019   1.350   2.282
 2923SOL     OW 9154   3.134   1.445   3.004
 2923SOL    HW1 9155   3.181   1.458   3.091
 2923SOL    HW2 9156   3.068   1.371   3.013
 2924SOL     OW 9157   3.444   0.639   2.334
 2924SOL    HW1 9158   3.413   0.700   2.407
 2924SOL    HW2 9159   3.494   0.691   2.265
 2925SOL     OW 9160   2.216   1.510   3.191
 2925SOL    HW1 9161   2.195   1.466   3.104
 2925SOL    HW2 9162   2.313   1.536   3.194
 2926SOL     OW 9163   2.264   0.751   3.460
 2926SOL    HW1 9164   2.332   0.806   3.413
 2926SOL    HW2 9165   2.304   0.663   3.487
 2927SOL     OW 9166   3.449   0.779   3.532
 2927SOL    HW1 9167   3.357   0.817   3.527
 2927SOL    HW2 9168   3.509   0.826   3.467
 2928SOL     OW 9169   2.875   0.105   3.632
 2928SOL    HW1 9170   2.881   0.190   3.580
 2928SOL    HW2 9171   2.907   0.029   3.575
 2929SOL     OW 9172   2.366   0.050   3.602
 2929SOL    HW1 9173   2.324  -0.007   3.532
 2929SOL    HW2 9174   2.300   0.119   3.634
 2930SOL     OW 9175   2.435   0.870   2.891
 2930SOL    HW1 9176   2.479   0.959   2.882
 2930SOL    HW2 9177   2.372   0.870   2.968
 2931SOL     OW 9178   3.222   0.862   2.907
 2931SOL    HW1 9179   3.147   0.862   2.841
 2931SOL    HW2 9180   3.259   0.770   2.916
 2932SOL     OW 9181   3.071   0.525   2.137
 2932SOL    HW1 9182   3.084   0.441   2.191
 2932SOL    HW2 9183   3.042   0.599   2.197
 2933SOL     OW 9184   2.169   0.213   3.093
 2933SOL    HW1 9185   2.146   0.250   3.183
 2933SOL    HW2 9186   2.139   0.118   3.087
 2934SOL     OW 9187   1.899   1.310   3.144
 2934SOL    HW1 9188   1.952   1.261   3.212
 2934SOL    HW2 9189   1.921   1.408   3.149
 2935SOL     OW 9190   2.594   0.634   2.926
 2935SOL    HW1 9191   2.653   0.608   2.850
 2935SOL    HW2 9192   2.566   0.730   2.915
 2936SOL     OW 9193   3.590   0.935   3.716
 2936SOL    HW1 9194   3.544   0.928   3.627
 2936SOL    HW2 9195   3.528   0.979   3.782
 2937SOL     OW 9196   2.169   0.063   2.480
 2937SOL    HW1 9197   2.158   0.157   2.513
 2937SOL    HW2 9198   2.164   0.000   2.557
 2938SOL     OW 9199   3.484   0.367   2.236
 2938SOL    HW1 9200   3.486   0.291   2.300
 2938SOL    HW2 9201   3.436   0.444   2.276
 2939SOL     OW 9202   2.885   0.766   2.828
 2939SOL    HW1 9203   2.900   0.787   2.924
 2939SOL    HW2 9204   2.855   0.671   2.819
 2940SOL     OW 9205   2.842   1.573   3.562
 2940SOL    HW1 9206   2.822   1.617   3.474
 2940SOL    HW2 9207   2.881   1.482   3.546
 2941SOL     OW 9208   3.721   1.518   3.467
 2941SOL    HW1 9209   3.735   1.545   3.372
 2941SOL    HW2 9210   3.804   1.540   3.520
 2942SOL     OW 9211   2.212   0.898   3.666
 2942SOL    HW1 9212   2.288   0.942   3.714
 2942SOL    HW2 9213   2.247   0.851   3.584
 2943SOL     OW 9214   3.402   0.274   1.987
 2943SOL    HW1 9215   3.341   0.199   2.010
 2943SOL    HW2 9216   3.424   0.326   2.070
 2944SOL     OW 9217   3.165   0.838   1.904
 2944SOL    HW1 9218   3.199   0.745   1.919
 2944SOL    HW2 9219   3.183   0.865   1.809
 2945SOL     OW 9220   2.930   1.333   2.711
 2945SOL    HW1 9221   2.937   1.249   2.656
 2945SOL    HW2 9222   2.992   1.402   2.675
 2946SOL     OW 9223   2.181   0.810   2.811
 2946SOL    HW1 9224   2.274   0.846   2.816
 2946SOL    HW2 9225   2.175   0.725   2.863
 2947SOL     OW 9226   2.201   0.509   2.868
 2947SOL    HW1 9227   2.149   0.426   2.851
 2947SOL    HW2 9228   2.278   0.514   2.804
 2948SOL     OW 9229   3.000   0.380   3.540
 2948SOL    HW1 9230   2.955   0.443   3.604
 2948SOL    HW2 9231   3.093   0.411   3.523
 2949SOL     OW 9232   3.022   0.207   3.339
 2949SOL    HW1 9233   3.022   0.271   3.416
 2949SOL    HW2 9234   3.050   0.255   3.256
 2950SOL     OW 9235   1.870   1.326   2.062
 2950SOL    HW1 9236   1.777   1.347   2.031
 2950SOL    HW2 9237   1.880   1.227   2.075
 2951SOL     OW 9238   1.950   1.801   2.789
 2951SOL    HW1 9239   1.908   1.715   2.762
 2951SOL    HW2 9240   2.044   1.804   2.755
 2952SOL     OW 9241   2.366   1.568   2.772
 2952SOL    HW1 9242   2.432   1.642   2.781
 2952SOL    HW2 9243   2.410   1.489   2.730
 2953SOL     OW 9244   2.864   0.796   3.100
 2953SOL    HW1 9245   2.905   0.764   3.186
 2953SOL    HW2 9246   2.768   0.769   3.097
 2954SOL     OW 9247   1.902   0.544   2.976
 2954SOL    HW1 9248   1.987   0.511   2.935
 2954SOL    HW2 9249   1.915   0.559   3.074
 2955SOL     OW 9250   2.051   0.520   3.584
 2955SOL    HW1 9251   2.110   0.480   3.514
 2955SOL    HW2 9252   1.993   0.591   3.543
 2956SOL     OW 9253   3.231   0.950   3.522
 2956SOL    HW1 9254   3.270   1.039   3.542
 2956SOL    HW2 9255   3.241   0.930   3.425
 2957SOL     OW 9256   2.677   0.572   2.187
 2957SOL    HW1 9257   2.684   0.483   2.141
 2957SOL    HW2 9258   2.583   0.606   2.179
 2958SOL     OW 9259   3.519   0.604   3.068
 2958SOL    HW1 9260   3.481   0.535   3.130
 2958SOL    HW2 9261   3.601   0.568   3.024
 2959SOL     OW 9262   2.114   1.564   3.606
 2959SOL    HW1 9263   2.084   1.621   3.682
 2959SOL    HW2 9264   2.107   1.467   3.632
 2960SOL     OW 9265   2.533   0.464   3.131
 2960SOL    HW1 9266   2.499   0.375   3.101
 2960SOL    HW2 9267   2.559   0.518   3.051
 2961SOL     OW 9268   2.792   1.678   3.327
 2961SOL    HW1 9269   2.768   1.660   3.232
 2961SOL    HW2 9270   2.822   1.772   3.337
 2962SOL     OW 9271   2.335   0.500   2.053
 2962SOL    HW1 9272   2.396   0.580   2.057
 2962SOL    HW2 9273   2.240   0.531   2.060
 2963SOL     OW 9274   2.021   1.137   3.328
 2963SOL    HW1 9275   2.043   1.076   3.404
 2963SOL    HW2 9276   2.031   1.088   3.242
 2964SOL     OW 9277   3.209   1.059   3.096
 2964SOL    HW1 9278   3.233   0.996   3.022
 2964SOL    HW2 9279   3.119   1.099   3.078
 2965SOL     OW 9280   3.164   0.855   2.171
 2965SOL    HW1 9281   3.078   0.824   2.213
 2965SOL    HW2 9282   3.160   0.841   2.072
 2966SOL     OW 9283   3.621   1.747   3.016
 2966SOL    HW1 9284   3.682   1.777   2.943
 2966SOL    HW2 9285   3.583   1.658   2.994
 2967SOL     OW 9286   3.114   1.731   2.990
 2967SOL    HW1 9287   3.198   1.736   2.936
 2967SOL    HW2 9288   3.091   1.635   3.008
 2968SOL     OW 9289   1.945   1.258   2.884
 2968SOL    HW1 9290   1.940   1.257   2.984
 2968SOL    HW2 9291   1.862   1.217   2.846
 2969SOL     OW 9292   2.550   1.662   3.578
 2969SOL    HW1 9293   2.494   1.743   3.587
 2969SOL    HW2 9294   2.602   1.666   3.492
 2970SOL     OW 9295   3.588   0.135   2.385
 2970SOL    HW1 9296   3.661   0.118   2.318
 2970SOL    HW2 9297   3.557   0.048   2.423
 2971SOL     OW 9298   3.250   1.573   2.339
 2971SOL    HW1 9299   3.317   1.585   2.265
 2971SOL    HW2 9300   3.210   1.662   2.362
 2972SOL     OW 9301   1.992   1.794   3.713
 2972SOL    HW1 9302   1.951   1.720   3.766
 2972SOL    HW2 9303   2.056   1.845   3.771
 2973SOL     OW 9304   3.142   0.927   2.534
 2973SOL    HW1 9305   3.202   0.846   2.536
 2973SOL    HW2 9306   3.182   0.996   2.474
 2974SOL     OW 9307   2.692   1.273   3.284
 2974SOL    HW1 9308   2.687   1.306   3.379
 2974SOL    HW2 9309   2.606   1.292   3.238
 2975SOL     OW 9310   2.534   1.616   2.016
 2975SOL    HW1 9311   2.543   1.626   1.917
 2975SOL    HW2 9312   2.494   1.527   2.037
 2976SOL     OW 9313   3.512   1.720   3.256
 2976SOL    HW1 9314   3.565   1.730   3.172
 2976SOL    HW2 9315   3.485   1.810   3.290
 2977SOL     OW 9316   3.703   0.175   2.825
 2977SOL    HW1 9317   3.742   0.090   2.789
 2977SOL    HW2 9318   3.605   0.177   2.806
 2978SOL     OW 9319   2.125   0.326   2.582
 2978SOL    HW1 9320   2.046   0.377   2.548
 2978SOL    HW2 9321   2.116   0.311   2.680
 2979SOL     OW 9322   3.056   1.612   1.893
 2979SOL    HW1 9323   3.062   1.519   1.930
 2979SOL    HW2 9324   2.997   1.612   1.813
 2980SOL     OW 9325   2.684   1.002   3.234
 2980SOL    HW1 9326   2.724   1.001   3.142
 2980SOL    HW2 9327   2.694   1.094   3.274
 2981SOL     OW 9328   2.778   0.910   2.153
 2981SOL    HW1 9329   2.841   0.948   2.085
 2981SOL    HW2 9330   2.818   0.827   2.192
 2982SOL     OW 9331   3.366   1.607   1.906
 2982SOL    HW1 9332   3.274   1.644   1.913
 2982SOL    HW2 9333   3.404   1.627   1.816
 2983SOL     OW 9334   2.234   1.288   3.352
 2983SOL    HW1 9335   2.221   1.381   3.318
 2983SOL    HW2 9336   2.150   1.236   3.339
 2984SOL     OW 9337   3.476   1.292   3.151
 2984SOL    HW1 9338   3.536   1.295   3.231
 2984SOL    HW2 9339   3.401   1.356   3.164
 2985SOL     OW 9340   2.901   1.098   2.558
 2985SOL    HW1 9341   2.831   1.051   2.612
 2985SOL    HW2 9342   2.960   1.030   2.515
 2986SOL     OW 9343   2.876   0.236   2.833
 2986SOL    HW1 9344   2.868   0.200   2.740
 2986SOL    HW2 9345   2.874   0.160   2.898
 2987SOL     OW 9346   2.452   1.487   2.353
 2987SOL    HW1 9347   2.494   1.429   2.283
 2987SOL    HW2 9348   2.408   1.566   2.309
 2988SOL     OW 9349   3.571   0.385   3.243
 2988SOL    HW1 9350   3.644   0.454   3.247
 2988SOL    HW2 9351   3.599   0.310   3.184
 2989SOL     OW 9352   2.117   1.348   2.152
 2989SOL    HW1 9353   2.021   1.349   2.125
 2989SOL    HW2 9354   2.129   1.401   2.236
 2990SOL     OW 9355   1.967   1.013   3.588
 2990SOL    HW1 9356   1.890   0.980   3.642
 2990SOL    HW2 9357   2.052   0.983   3.630
 2991SOL     OW 9358   2.534   0.203   3.351
 2991SOL    HW1 9359   2.624   0.187   3.311
 2991SOL    HW2 9360   2.542   0.208   3.450
 2992SOL     OW 9361   1.937   0.345   1.895
 2992SOL    HW1 9362   1.845   0.317   1.866
 2992SOL    HW2 9363   1.968   0.422   1.839
 2993SOL     OW 9364   3.302   0.856   3.260
 2993SOL    HW1 9365   3.245   0.908   3.197
 2993SOL    HW2 9366   3.398   0.868   3.236
 2994SOL     OW 9367   1.934   0.166   2.180
 2994SOL    HW1 9368   1.917   0.249   2.126
 2994SOL    HW2 9369   2.024   0.129   2.158
 2995SOL     OW 9370   3.045   1.335   1.981
 2995SOL    HW1 9371   2.946   1.324   1.983
 2995SOL    HW2 9372   3.079   1.350   2.074
 2996SOL     OW 9373   2.475   0.842   3.293
 2996SOL    HW1 9374   2.531   0.923   3.276
 2996SOL    HW2 9375   2.534   0.762   3.296
 2997SOL     OW 9376   3.355   1.767   2.821
 2997SOL    HW1 9377   3.388   1.831   2.752
 2997SOL    HW2 9378   3.421   1.761   2.896
 2998SOL     OW 9379   2.578   0.565   3.570
 2998SOL    HW1 9380   2.597   0.630   3.644
 2998SOL    HW2 9381   2.638   0.485   3.579
 2999SOL     OW 9382   3.312   1.220   3.495
 2999SOL    HW1 9383   3.303   1.210   3.594
 2999SOL    HW2 9384   3.408   1.213   3.469
 3000SOL     OW 9385   2.252   1.741   3.422
 3000SOL    HW1 9386   2.161   1.782   3.420
 3000SOL    HW2 9387   2.245   1.647   3.454
 3001SOL     OW 9388   3.536   0.883   3.116
 3001SOL    HW1 9389   3.509   0.794   3.079
 3001SOL    HW2 9390   3.537   0.951   3.043
 3002SOL     OW 9391   3.087   0.325   2.311
 3002SOL    HW1 9392   3.152   0.251   2.300
 3002SOL    HW2 9393   3.107   0.375   2.395
 3003SOL     OW 9394   2.456   0.745   2.514
 3003SOL    HW1 9395   2.506   0.830   2.495
 3003SOL    HW2 9396   2.368   0.747   2.466
 3004SOL     OW 9397   3.639   0.342   3.504
 3004SOL    HW1 9398   3.622   0.373   3.410
 3004SOL    HW2 9399   3.555   0.305   3.542
 3005SOL     OW 9400   3.592   0.934   3.379
 3005SOL    HW1 9401   3.630   1.025   3.394
 3005SOL    HW2 9402   3.584   0.917   3.280
 3006SOL     OW 9403   2.721   1.374   1.878
 3006SOL    HW1 9404   2.675   1.389   1.966
 3006SOL    HW2 9405   2.765   1.459   1.848
 3007SOL     OW 9406   2.523   1.790   2.815
 3007SOL    HW1 9407   2.477   1.878   2.802
 3007SOL    HW2 9408   2.622   1.802   2.808
 3008SOL     OW 9409   2.721   0.956   2.723
 3008SOL    HW1 9410   2.775   0.887   2.771
 3008SOL    HW2 9411   2.689   1.025   2.789
 3009SOL     OW 9412   2.945   0.984   1.949
 3009SOL    HW1 9413   2.922   1.037   1.867
 3009SOL    HW2 9414   3.026   0.928   1.930
 3010SOL     OW 9415   3.723   1.569   2.713
 3010SOL    HW1 9416   3.652   1.557   2.643
 3010SOL    HW2 9417   3.724   1.490   2.773
 3011SOL     OW 9418   2.083   1.314   3.706
 3011SOL    HW1 9419   2.018   1.241   3.685
 3011SOL    HW2 9420   2.087   1.328   3.804
 3012SOL     OW 9421   1.941   1.240   2.515
 3012SOL    HW1 9422   1.940   1.193   2.603
 3012SOL    HW2 9423   2.023   1.212   2.464
 3013SOL     OW 9424   2.534   1.391   3.486
 3013SOL    HW1 9425   2.456   1.341   3.524
 3013SOL    HW2 9426   2.531   1.486   3.517
 3014SOL     OW 9427   3.686   0.192   3.089
 3014SOL    HW1 9428   3.682   0.102   3.133
 3014SOL    HW2 9429   3.689   0.181   2.990
 3015SOL     OW 9430   2.290   0.424   2.382
 3015SOL    HW1 9431   2.320   0.352   2.320
 3015SOL    HW2 9432   2.251   0.384   2.465
 3016SOL     OW 9433   3.567   1.487   2.966
 3016SOL    HW1 9434   3.474   1.462   2.939
 3016SOL    HW2 9435   3.593   1.437   3.048
 3017SOL     OW 9436   2.179   0.547   3.142
 3017SOL    HW1 9437   2.217   0.488   3.214
 3017SOL    HW2 9438   2.219   0.521   3.054
 3018SOL     OW 9439   2.674   1.586   2.549
 3018SOL    HW1 9440   2.706   1.596   2.455
 3018SOL    HW2 9441   2.595   1.524   2.551
 3019SOL     OW 9442   3.286   0.214   2.974
 3019SOL    HW1 9443   3.338   0.149   3.029
 3019SOL    HW2 9444   3.237   0.277   3.035
 3020SOL     OW 9445   2.863   0.034   3.016
 3020SOL    HW1 9446   2.800  -0.038   2.985
 3020SOL    HW2 9447   2.956  -0.002   3.016
 3021SOL     OW 9448   2.632   1.330   2.163
 3021SOL    HW1 9449   2.586   1.243   2.180
 3021SOL    HW2 9450   2.723   1.327   2.204
 3022SOL     OW 9451   2.480   1.567   3.146
 3022SOL    HW1 9452   2.475   1.649   3.203
 3022SOL    HW2 9453   2.569   1.564   3.101
 3023SOL     OW 9454   3.214   0.052   2.030
 3023SOL    HW1 9455   3.249   0.011   1.946
 3023SOL    HW2 9456   3.124   0.014   2.050
 3024SOL     OW 9457   3.162   0.453   2.553
 3024SOL    HW1 9458   3.103   0.533   2.557
 3024SOL    HW2 9459   3.177   0.418   2.646
 3025SOL     OW 9460   3.455   0.221   2.744
 3025SOL    HW1 9461   3.371   0.220   2.798
 3025SOL    HW2 9462   3.457   0.304   2.688
 3026SOL     OW 9463   1.901   1.077   2.162
 3026SOL    HW1 9464   2.000   1.066   2.153
 3026SOL    HW2 9465   1.861   0.991   2.194
 3027SOL     OW 9466   2.737   1.646   2.199
 3027SOL    HW1 9467   2.660   1.611   2.145
 3027SOL    HW2 9468   2.705   1.717   2.261
 3028SOL     OW 9469   2.092   0.628   3.837
 3028SOL    HW1 9470   1.999   0.626   3.874
 3028SOL    HW2 9471   2.093   0.589   3.745
 3029SOL     OW 9472   2.087   0.275   4.720
 3029SOL    HW1 9473   2.122   0.258   4.812
 3029SOL    HW2 9474   1.999   0.230   4.708
 3030SOL     OW 9475   1.881   0.368   4.371
 3030SOL    HW1 9476   1.799   0.411   4.410
 3030SOL    HW2 9477   1.853   0.295   4.308
 3031SOL     OW 9478   2.431   1.275   4.889
 3031SOL    HW1 9479   2.338   1.268   4.852
 3031SOL    HW2 9480   2.442   1.364   4.933
 3032SOL     OW 9481   3.417   1.511   4.427
 3032SOL    HW1 9482   3.360   1.495   4.508
 3032SOL    HW2 9483   3.358   1.521   4.347
 3033SOL     OW 9484   2.997   0.703   4.441
 3033SOL    HW1 9485   3.054   0.781   4.416
 3033SOL    HW2 9486   2.937   0.729   4.517
 3034SOL     OW 9487   3.617   0.607   3.955
 3034SOL    HW1 9488   3.605   0.594   3.856
 3034SOL    HW2 9489   3.587   0.526   4.004
 3035SOL     OW 9490   2.630   1.144   4.747
 3035SOL    HW1 9491   2.552   1.161   4.807
 3035SOL    HW2 9492   2.664   1.231   4.711
 3036SOL     OW 9493   2.712   0.798   5.547
 3036SOL    HW1 9494   2.708   0.874   5.612
 3036SOL    HW2 9495   2.734   0.834   5.456
 3037SOL     OW 9496   2.547   1.012   4.389
 3037SOL    HW1 9497   2.616   0.996   4.459
 3037SOL    HW2 9498   2.474   1.069   4.427
 3038SOL     OW 9499   2.548   1.161   5.527
 3038SOL    HW1 9500   2.608   1.240   5.541
 3038SOL    HW2 9501   2.462   1.192   5.486
 3039SOL     OW 9502   2.197   1.435   4.785
 3039SOL    HW1 9503   2.119   1.404   4.732
 3039SOL    HW2 9504   2.255   1.493   4.728
 3040SOL     OW 9505   3.322   1.505   5.063
 3040SOL    HW1 9506   3.346   1.599   5.089
 3040SOL    HW2 9507   3.306   1.451   5.145
 3041SOL     OW 9508   2.300   0.392   5.223
 3041SOL    HW1 9509   2.382   0.336   5.232
 3041SOL    HW2 9510   2.219   0.334   5.227
 3042SOL     OW 9511   3.465   0.447   4.461
 3042SOL    HW1 9512   3.391   0.493   4.411
 3042SOL    HW2 9513   3.516   0.515   4.514
 3043SOL     OW 9514   2.093   1.713   4.207
 3043SOL    HW1 9515   2.127   1.790   4.261
 3043SOL    HW2 9516   2.137   1.713   4.117
 3044SOL     OW 9517   2.989   1.341   5.414
 3044SOL    HW1 9518   3.036   1.341   5.502
 3044SOL    HW2 9519   2.941   1.254   5.403
 3045SOL     OW 9520   2.092   1.434   4.262
 3045SOL    HW1 9521   2.066   1.530   4.262
 3045SOL    HW2 9522   2.021   1.380   4.307
 3046SOL     OW 9523   2.102   1.091   4.610
 3046SOL    HW1 9524   2.116   1.007   4.662
 3046SOL    HW2 9525   2.047   1.155   4.665
 3047SOL     OW 9526   2.482   1.786   5.163
 3047SOL    HW1 9527   2.390   1.769   5.198
 3047SOL    HW2 9528   2.510   1.878   5.189
 3048SOL     OW 9529   2.468   0.964   3.847
 3048SOL    HW1 9530   2.475   1.048   3.793
 3048SOL    HW2 9531   2.514   0.977   3.935
 3049SOL     OW 9532   3.456   0.114   5.204
 3049SOL    HW1 9533   3.438   0.181   5.132
 3049SOL    HW2 9534   3.453   0.160   5.293
 3050SOL     OW 9535   1.984   0.643   4.287
 3050SOL    HW1 9536   1.939   0.555   4.304
 3050SOL    HW2 9537   1.983   0.697   4.371
 3051SOL     OW 9538   3.704   1.767   4.083
 3051SOL    HW1 9539   3.758   1.738   4.163
 3051SOL    HW2 9540   3.734   1.857   4.054
 3052SOL     OW 9541   1.889   1.596   3.841
 3052SOL    HW1 9542   1.870   1.500   3.862
 3052SOL    HW2 9543   1.856   1.654   3.916
 3053SOL     OW 9544   3.551   0.922   4.336
 3053SOL    HW1 9545   3.646   0.893   4.344
 3053SOL    HW2 9546   3.543   0.987   4.261
 3054SOL     OW 9547   3.503   1.108   4.156
 3054SOL    HW1 9548   3.589   1.110   4.104
 3054SOL    HW2 9549   3.517   1.155   4.244
 3055SOL     OW 9550   1.975   0.737   5.321
 3055SOL    HW1 9551   2.063   0.724   5.366
 3055SOL    HW2 9552   1.962   0.834   5.299
 3056SOL     OW 9553   2.475   1.365   4.450
 3056SOL    HW1 9554   2.426   1.278   4.459
 3056SOL    HW2 9555   2.452   1.408   4.363
 3057SOL     OW 9556   3.155   1.228   5.147
 3057SOL    HW1 9557   3.192   1.155   5.089
 3057SOL    HW2 9558   3.207   1.233   5.232
 3058SOL     OW 9559   2.671   0.004   4.226
 3058SOL    HW1 9560   2.711   0.095   4.217
 3058SOL    HW2 9561   2.571   0.012   4.232
 3059SOL     OW 9562   2.059   0.976   4.988
 3059SOL    HW1 9563   2.148   0.931   4.974
 3059SOL    HW2 9564   1.986   0.911   4.969
 3060SOL     OW 9565   3.387   0.999   3.914
 3060SOL    HW1 9566   3.324   0.923   3.927
 3060SOL    HW2 9567   3.435   1.017   4.000
 3061SOL     OW 9568   3.049   1.792   5.340
 3061SOL    HW1 9569   3.073   1.852   5.264
 3061SOL    HW2 9570   3.056   1.697   5.310
 3062SOL     OW 9571   2.179   0.251   5.525
 3062SOL    HW1 9572   2.250   0.322   5.531
 3062SOL    HW2 9573   2.091   0.290   5.553
 3063SOL     OW 9574   3.328   1.417   4.677
 3063SOL    HW1 9575   3.269   1.423   4.757
 3063SOL    HW2 9576   3.313   1.329   4.631
 3064SOL     OW 9577   3.529   1.714   4.296
 3064SOL    HW1 9578   3.488   1.691   4.208
 3064SOL    HW2 9579   3.511   1.640   4.361
 3065SOL     OW 9580   2.460   0.729   3.994
 3065SOL    HW1 9581   2.484   0.798   3.926
 3065SOL    HW2 9582   2.382   0.762   4.048
 3066SOL     OW 9583   3.143   0.345   4.668
 3066SOL    HW1 9584   3.057   0.295   4.655
 3066SOL    HW2 9585   3.205   0.291   4.724
 3067SOL     OW 9586   3.438   1.662   4.031
 3067SOL    HW1 9587   3.527   1.708   4.034
 3067SOL    HW2 9588   3.417   1.638   3.936
 3068SOL     OW 9589   2.669   0.605   5.189
 3068SOL    HW1 9590   2.622   0.602   5.278
 3068SOL    HW2 9591   2.618   0.550   5.123
 3069SOL     OW 9592   3.256   0.469   5.398
 3069SOL    HW1 9593   3.236   0.512   5.486
 3069SOL    HW2 9594   3.334   0.407   5.407
 3070SOL     OW 9595   2.835   0.890   5.296
 3070SOL    HW1 9596   2.881   0.806   5.267
 3070SOL    HW2 9597   2.779   0.924   5.221
 3071SOL     OW 9598   2.853   0.410   4.966
 3071SOL    HW1 9599   2.776   0.444   5.020
 3071SOL    HW2 9600   2.819   0.359   4.887
 3072SOL     OW 9601   2.903   0.701   4.153
 3072SOL    HW1 9602   2.929   0.697   4.249
 3072SOL    HW2 9603   2.818   0.650   4.139
 3073SOL     OW 9604   1.938   0.811   4.513
 3073SOL    HW1 9605   2.037   0.799   4.522
 3073SOL    HW2 9606   1.914   0.906   4.534
 3074SOL     OW 9607   1.992   1.821   5.295
 3074SOL    HW1 9608   1.982   1.806   5.394
 3074SOL    HW2 9609   1.906   1.857   5.259
 3075SOL     OW 9610   2.727   0.348   3.919
 3075SOL    HW1 9611   2.786   0.411   3.870
 3075SOL    HW2 9612   2.746   0.254   3.890
 3076SOL     OW 9613   3.581   0.585   5.555
 3076SOL    HW1 9614   3.555   0.674   5.519
 3076SOL    HW2 9615   3.579   0.517   5.482
 3077SOL     OW 9616   3.224   1.144   4.269
 3077SOL    HW1 9617   3.307   1.115   4.221
 3077SOL    HW2 9618   3.175   1.211   4.213
 3078SOL     OW 9619   2.412   0.196   4.609
 3078SOL    HW1 9620   2.407   0.191   4.709
 3078SOL    HW2 9621   2.414   0.292   4.580
 3079SOL     OW 9622   2.870   1.456   4.201
 3079SOL    HW1 9623   2.824   1.528   4.149
 3079SOL    HW2 9624   2.866   1.476   4.299
 3080SOL     OW 9625   2.213   1.801   4.577
 3080SOL    HW1 9626   2.263   1.715   4.583
 3080SOL    HW2 9627   2.278   1.878   4.574
 3081SOL     OW 9628   3.657   1.066   4.597
 3081SOL    HW1 9629   3.595   1.051   4.521
 3081SOL    HW2 9630   3.605   1.077   4.682
 3082SOL     OW 9631   3.089   1.550   5.230
 3082SOL    HW1 9632   3.095   1.473   5.294
 3082SOL    HW2 9633   3.037   1.524   5.150
 3083SOL     OW 9634   2.183   0.943   3.966
 3083SOL    HW1 9635   2.265   0.982   3.924
 3083SOL    HW2 9636   2.156   0.861   3.917
 3084SOL     OW 9637   3.320   0.735   4.452
 3084SOL    HW1 9638   3.315   0.670   4.527
 3084SOL    HW2 9639   3.400   0.794   4.465
 3085SOL     OW 9640   2.323   1.266   5.451
 3085SOL    HW1 9641   2.273   1.267   5.365
 3085SOL    HW2 9642   2.260   1.248   5.527
 3086SOL     OW 9643   2.973   1.776   3.961
 3086SOL    HW1 9644   2.913   1.714   4.011
 3086SOL    HW2 9645   3.004   1.732   3.876
 3087SOL     OW 9646   2.064   0.285   5.222
 3087SOL    HW1 9647   1.984   0.345   5.209
 3087SOL    HW2 9648   2.054   0.236   5.308
 3088SOL     OW 9649   3.494   1.377   3.805
 3088SOL    HW1 9650   3.462   1.471   3.795
 3088SOL    HW2 9651   3.418   1.314   3.793
 3089SOL     OW 9652   2.326   1.743   4.047
 3089SOL    HW1 9653   2.359   1.782   4.133
 3089SOL    HW2 9654   2.402   1.736   3.982
 3090SOL     OW 9655   3.262   0.107   4.150
 3090SOL    HW1 9656   3.238   0.070   4.060
 3090SOL    HW2 9657   3.361   0.123   4.154
 3091SOL     OW 9658   2.111   1.785   4.965
 3091SOL    HW1 9659   2.168   1.720   5.015
 3091SOL    HW2 9660   2.095   1.752   4.872
 3092SOL     OW 9661   2.802   1.698   4.628
 3092SOL    HW1 9662   2.882   1.641   4.649
 3092SOL    HW2 9663   2.753   1.658   4.551
 3093SOL     OW 9664   2.244   0.700   4.204
 3093SOL    HW1 9665   2.289   0.610   4.201
 3093SOL    HW2 9666   2.150   0.689   4.237
 3094SOL     OW 9667   3.409   0.222   5.453
 3094SOL    HW1 9668   3.404   0.259   5.545
 3094SOL    HW2 9669   3.337   0.153   5.441
 3095SOL     OW 9670   2.476   0.122   3.841
 3095SOL    HW1 9671   2.574   0.100   3.848
 3095SOL    HW2 9672   2.445   0.105   3.748
 3096SOL     OW 9673   2.643   0.264   5.473
 3096SOL    HW1 9674   2.710   0.203   5.516
 3096SOL    HW2 9675   2.570   0.283   5.538
 3097SOL     OW 9676   2.750   1.514   4.919
 3097SOL    HW1 9677   2.727   1.489   4.825
 3097SOL    HW2 9678   2.811   1.445   4.958
 3098SOL     OW 9679   3.213   0.590   5.157
 3098SOL    HW1 9680   3.241   0.547   5.242
 3098SOL    HW2 9681   3.238   0.686   5.158
 3099SOL     OW 9682   2.665   1.402   4.648
 3099SOL    HW1 9683   2.755   1.416   4.606
 3099SOL    HW2 9684   2.594   1.404   4.577
 3100SOL     OW 9685   2.784   0.503   4.623
 3100SOL    HW1 9686   2.759   0.494   4.527
 3100SOL    HW2 9687   2.832   0.421   4.654
 3101SOL     OW 9688   2.401   0.064   4.236
 3101SOL    HW1 9689   2.320   0.065   4.294
 3101SOL    HW2 9690   2.404   0.147   4.181
 3102SOL     OW 9691   3.296   1.188   3.765
 3102SOL    HW1 9692   3.328   1.112   3.822
 3102SOL    HW2 9693   3.204   1.215   3.795
 3103SOL     OW 9694   2.159   0.035   3.895
 3103SOL    HW1 9695   2.208   0.119   3.874
 3103SOL    HW2 9696   2.221  -0.030   3.940
 3104SOL     OW 9697   2.797   0.236   4.204
 3104SOL    HW1 9698   2.749   0.277   4.126
 3104SOL    HW2 9699   2.896   0.234   4.185
 3105SOL     OW 9700   2.938   0.683   5.188
 3105SOL    HW1 9701   2.858   0.622   5.191
 3105SOL    HW2 9702   3.019   0.630   5.164
 3106SOL     OW 9703   3.089   1.570   4.517
 3106SOL    HW1 9704   3.110   1.644   4.452
 3106SOL    HW2 9705   3.157   1.570   4.590
 3107SOL     OW 9706   2.321   1.152   4.465
 3107SOL    HW1 9707   2.250   1.125   4.530
 3107SOL    HW2 9708   2.295   1.124   4.372
 3108SOL     OW 9709   3.133   1.797   4.315
 3108SOL    HW1 9710   3.177   1.861   4.251
 3108SOL    HW2 9711   3.083   1.849   4.385
 3109SOL     OW 9712   2.894   0.549   3.740
 3109SOL    HW1 9713   2.853   0.631   3.701
 3109SOL    HW2 9714   2.958   0.575   3.813
 3110SOL     OW 9715   1.940   0.556   5.110
 3110SOL    HW1 9716   2.032   0.555   5.069
 3110SOL    HW2 9717   1.934   0.630   5.177
 3111SOL     OW 9718   2.423   0.222   4.871
 3111SOL    HW1 9719   2.461   0.138   4.908
 3111SOL    HW2 9720   2.335   0.241   4.915
 3112SOL     OW 9721   2.728   0.454   4.366
 3112SOL    HW1 9722   2.696   0.526   4.304
 3112SOL    HW2 9723   2.752   0.373   4.313
 3113SOL     OW 9724   2.879   0.039   4.477
 3113SOL    HW1 9725   2.807   0.044   4.408
 3113SOL    HW2 9726   2.855  -0.030   4.546
 3114SOL     OW 9727   3.291   1.173   4.591
 3114SOL    HW1 9728   3.236   1.089   4.584
 3114SOL    HW2 9729   3.317   1.202   4.499
 3115SOL     OW 9730   3.328   0.590   4.716
 3115SOL    HW1 9731   3.298   0.495   4.723
 3115SOL    HW2 9732   3.401   0.606   4.782
 3116SOL     OW 9733   3.719   0.833   4.101
 3116SOL    HW1 9734   3.761   0.769   4.165
 3116SOL    HW2 9735   3.681   0.782   4.023
 3117SOL     OW 9736   2.350   1.385   3.898
 3117SOL    HW1 9737   2.263   1.370   3.945
 3117SOL    HW2 9738   2.333   1.411   3.803
 3118SOL     OW 9739   3.526   1.280   4.381
 3118SOL    HW1 9740   3.625   1.288   4.395
 3118SOL    HW2 9741   3.481   1.364   4.412
 3119SOL     OW 9742   3.252   0.575   3.802
 3119SOL    HW1 9743   3.198   0.554   3.883
 3119SOL    HW2 9744   3.343   0.534   3.811
 3120SOL     OW 9745   2.389   0.256   4.052
 3120SOL    HW1 9746   2.416   0.197   3.977
 3120SOL    HW2 9747   2.389   0.351   4.021
 3121SOL     OW 9748   3.616   1.223   5.312
 3121SOL    HW1 9749   3.707   1.184   5.299
 3121SOL    HW2 9750   3.624   1.319   5.336
 3122SOL     OW 9751   2.926   1.347   5.064
 3122SOL    HW1 9752   2.846   1.324   5.119
 3122SOL    HW2 9753   3.009   1.321   5.113
 3123SOL     OW 9754   3.454   1.629   5.349
 3123SOL    HW1 9755   3.481   1.663   5.259
 3123SOL    HW2 9756   3.533   1.591   5.395
 3124SOL     OW 9757   2.973   1.195   4.824
 3124SOL    HW1 9758   2.933   1.239   4.905
 3124SOL    HW2 9759   2.932   1.232   4.741
 3125SOL     OW 9760   3.500   1.099   4.803
 3125SOL    HW1 9761   3.505   1.180   4.862
 3125SOL    HW2 9762   3.414   1.101   4.752
 3126SOL     OW 9763   2.777   0.089   5.126
 3126SOL    HW1 9764   2.802   0.069   5.031
 3126SOL    HW2 9765   2.849   0.145   5.168
 3127SOL     OW 9766   2.842   1.116   5.443
 3127SOL    HW1 9767   2.743   1.122   5.453
 3127SOL    HW2 9768   2.865   1.036   5.387
 3128SOL     OW 9769   2.567   1.050   4.092
 3128SOL    HW1 9770   2.553   1.057   4.191
 3128SOL    HW2 9771   2.651   0.999   4.074
 3129SOL     OW 9772   2.272   0.813   4.975
 3129SOL    HW1 9773   2.358   0.825   5.025
 3129SOL    HW2 9774   2.230   0.726   5.002
 3130SOL     OW 9775   3.136   0.386   4.986
 3130SOL    HW1 9776   3.157   0.460   5.050
 3130SOL    HW2 9777   3.047   0.403   4.943
 3131SOL     OW 9778   1.926   1.564   5.055
 3131SOL    HW1 9779   1.880   1.646   5.021
 3131SOL    HW2 9780   2.024   1.583   5.064
 3132SOL     OW 9781   2.229   1.100   4.225
 3132SOL    HW1 9782   2.222   1.183   4.169
 3132SOL    HW2 9783   2.233   1.020   4.165
 3133SOL     OW 9784   2.428   0.537   4.589
 3133SOL    HW1 9785   2.440   0.603   4.515
 3133SOL    HW2 9786   2.474   0.571   4.672
 3134SOL     OW 9787   3.114   1.348   4.112
 3134SOL    HW1 9788   3.164   1.425   4.152
 3134SOL    HW2 9789   3.019   1.350   4.144
 3135SOL     OW 9790   3.134   1.445   4.866
 3135SOL    HW1 9791   3.181   1.458   4.953
 3135SOL    HW2 9792   3.068   1.371   4.875
 3136SOL     OW 9793   3.444   0.639   4.196
 3136SOL    HW1 9794   3.413   0.700   4.269
 3136SOL    HW2 9795   3.494   0.691   4.127
 3137SOL     OW 9796   2.216   1.510   5.053
 3137SOL    HW1 9797   2.195   1.466   4.966
 3137SOL    HW2 9798   2.313   1.536   5.056
 3138SOL     OW 9799   2.264   0.751   5.322
 3138SOL    HW1 9800   2.332   0.806   5.275
 3138SOL    HW2 9801   2.304   0.663   5.349
 3139SOL     OW 9802   3.449   0.779   5.394
 3139SOL    HW1 9803   3.357   0.817   5.389
 3139SOL    HW2 9804   3.509   0.826   5.329
 3140SOL     OW 9805   2.875   0.105   5.494
 3140SOL    HW1 9806   2.881   0.190   5.442
 3140SOL    HW2 9807   2.907   0.029   5.437
 3141SOL     OW 9808   2.366   0.050   5.464
 3141SOL    HW1 9809   2.324  -0.007   5.394
 3141SOL    HW2 9810   2.300   0.119   5.496
 3142SOL     OW 9811   2.435   0.870   4.753
 3142SOL    HW1 9812   2.479   0.959   4.744
 3142SOL    HW2 9813   2.372   0.870   4.830
 3143SOL     OW 9814   3.222   0.862   4.769
 3143SOL    HW1 9815   3.147   0.862   4.703
 3143SOL    HW2 9816   3.259   0.770   4.778
 3144SOL     OW 9817   3.071   0.525   3.999
 3144SOL    HW1 9818   3.084   0.441   4.053
 3144SOL    HW2 9819   3.042   0.599   4.059
 3145SOL     OW 9820   2.169   0.213   4.955
 3145SOL    HW1 9821   2.146   0.250   5.045
 3145SOL    HW2 9822   2.139   0.118   4.949
 3146SOL     OW 9823   1.899   1.310   5.006
 3146SOL    HW1 9824   1.952   1.261   5.074
 3146SOL    HW2 9825   1.921   1.408   5.011
 3147SOL     OW 9826   2.594   0.634   4.788
 3147SOL    HW1 9827   2.653   0.608   4.712
 3147SOL    HW2 9828   2.566   0.730   4.777
 3148SOL     OW 9829   3.590   0.935   5.578
 3148SOL    HW1 9830   3.544   0.928   5.489
 3148SOL    HW2 9831   3.528   0.979   5.644
 3149SOL     OW 9832   2.169   0.063   4.342
 3149SOL    HW1 9833   2.158   0.157   4.375
 3149SOL    HW2 9834   2.164   0.000   4.419
 3150SOL     OW 9835   3.484   0.367   4.098
 3150SOL    HW1 9836   3.486   0.291   4.162
 3150SOL    HW2 9837   3.436   0.444   4.138
 3151SOL     OW 9838   2.885   0.766   4.690
 3151SOL    HW1 9839   2.900   0.787   4.786
 3151SOL    HW2 9840   2.855   0.671   4.681
 3152SOL     OW 9841   2.842   1.573   5.424
 3152SOL    HW1 9842   2.822   1.617   5.336
 3152SOL    HW2 9843   2.881   1.482   5.408
 3153SOL     OW 9844   3.721   1.518   5.329
 3153SOL    HW1 9845   3.735   1.545   5.234
 3153SOL    HW2 9846   3.804   1.540   5.382
 3154SOL     OW 9847   2.212   0.898   5.528
 3154SOL    HW1 9848   2.288   0.942   5.576
 3154SOL    HW2 9849   2.247   0.851   5.446
 3155SOL     OW 9850   3.402   0.274   3.849
 3155SOL    HW1 9851   3.341   0.199   3.872
 3155SOL    HW2 9852   3.424   0.326   3.932
 3156SOL     OW 9853   3.165   0.838   3.766
 3156SOL    HW1 9854   3.199   0.745   3.781
 3156SOL    HW2 9855   3.183   0.865   3.671
 3157SOL     OW 9856   2.930   1.333   4.573
 3157SOL    HW1 9857   2.937   1.249   4.518
 3157SOL    HW2 9858   2.992   1.402   4.537
 3158SOL     OW 9859   2.181   0.810   4.673
 3158SOL    HW1 9860   2.274   0.846   4.678
 3158SOL    HW2 9861   2.175   0.725   4.725
 3159SOL     OW 9862   2.201   0.509   4.730
 3159SOL    HW1 9863   2.149   0.426   4.713
 3159SOL    HW2 9864   2.278   0.514   4.666
 3160SOL     OW 9865   3.000   0.380   5.402
 3160SOL    HW1 9866   2.955   0.443   5.466
 3160SOL    HW2 9867   3.093   0.411   5.385
 3161SOL     OW 9868   3.022   0.207   5.201
 3161SOL    HW1 9869   3.022   0.271   5.278
 3161SOL    HW2 9870   3.050   0.255   5.118
 3162SOL     OW 9871   1.870   1.326   3.924
 3162SOL    HW1 9872   1.777   1.347   3.893
 3162SOL    HW2 9873   1.880   1.227   3.937
 3163SOL     OW 9874   1.950   1.801   4.651
 3163SOL    HW1 9875   1.908   1.715   4.624
 3163SOL    HW2 9876   2.044   1.804   4.617
 3164SOL     OW 9877   2.366   1.568   4.634
 3164SOL    HW1 9878   2.432   1.642   4.643
 3164SOL    HW2 9879   2.410   1.489   4.592
 3165SOL     OW 9880   2.864   0.796   4.962
 3165SOL    HW1 9881   2.905   0.764   5.048
 3165SOL    HW2 9882   2.768   0.769   4.959
 3166SOL     OW 9883   1.902   0.544   4.838
 3166SOL    HW1 9884   1.987   0.511   4.797
 3166SOL    HW2 9885   1.915   0.559   4.936
 3167SOL     OW 9886   2.051   0.520   5.446
 3167SOL    HW1 9887   2.110   0.480   5.376
 3167SOL    HW2 9888   1.993   0.591   5.405
 3168SOL     OW 9889   3.231   0.950   5.384
 3168SOL    HW1 9890   3.270   1.039   5.404
 3168SOL    HW2 9891   3.241   0.930   5.287
 3169SOL     OW 9892   2.677   0.572   4.049
 3169SOL    HW1 9893   2.684   0.483   4.003
 3169SOL    HW2 9894   2.583   0.606   4.041
 3170SOL     OW 9895   3.519   0.604   4.930
 3170SOL    HW1 9896   3.481   0.535   4.992
 3170SOL    HW2 9897   3.601   0.568   4.886
 3171SOL     OW 9898   2.114   1.564   5.468
 3171SOL    HW1 9899   2.084   1.621   5.544
 3171SOL    HW2 9900   2.107   1.467   5.494
 3172SOL     OW 9901   2.533   0.464   4.993
 3172SOL    HW1 9902   2.499   0.375   4.963
 3172SOL    HW2 9903   2.559   0.518   4.913
 3173SOL     OW 9904   2.792   1.678   5.189
 3173SOL    HW1 9905   2.768   1.660   5.094
 3173SOL    HW2 9906   2.822   1.772   5.199
 3174SOL     OW 9907   2.335   0.500   3.915
 3174SOL    HW1 9908   2.396   0.580   3.919
 3174SOL    HW2 9909   2.240   0.531   3.922
 3175SOL     OW 9910   2.021   1.137   5.190
 3175SOL    HW1 9911   2.043   1.076   5.266
 3175SOL    HW2 9912   2.031   1.088   5.104
 3176SOL     OW 9913   3.209   1.059   4.958
 3176SOL    HW1 9914   3.233   0.996   4.884
 3176SOL    HW2 9915   3.119   1.099   4.940
 3177SOL     OW 9916   3.164   0.855   4.033
 3177SOL    HW1 9917   3.078   0.824   4.075
 3177SOL    HW2 9918   3.160   0.841   3.934
 3178SOL     OW 9919   3.621   1.747   4.878
 3178SOL    HW1 9920   3.682   1.777   4.805
 3178SOL    HW2 9921   3.583   1.658   4.856
 3179SOL     OW 9922   3.114   1.731   4.852
 3179SOL    HW1 9923   3.198   1.736   4.798
 3179SOL    HW2 9924   3.091   1.635   4.870
 3180SOL     OW 9925   1.945   1.258   4.746
 3180SOL    HW1 9926   1.940   1.257   4.846
 3180SOL    HW2 9927   1.862   1.217   4.708
 3181SOL     OW 9928   2.550   1.662   5.440
 3181SOL    HW1 9929   2.494   1.743   5.449
 3181SOL    HW2 9930   2.602   1.666   5.354
 3182SOL     OW 9931   3.588   0.135   4.247
 3182SOL    HW1 9932   3.661   0.118   4.180
 3182SOL    HW2 9933   3.557   0.048   4.285
 3183SOL     OW 9934   3.250   1.573   4.201
 3183SOL    HW1 9935   3.317   1.585   4.127
 3183SOL    HW2 9936   3.210   1.662   4.224
 3184SOL     OW 9937   1.992   1.794   5.575
 3184SOL    HW1 9938   1.951   1.720   5.628
 3184SOL    HW2 9939   2.056   1.845   5.633
 3185SOL     OW 9940   3.142   0.927   4.396
 3185SOL    HW1 9941   3.202   0.846   4.398
 3185SOL    HW2 9942   3.182   0.996   4.336
 3186SOL     OW 9943   2.692   1.273   5.146
 3186SOL    HW1 9944   2.687   1.306   5.241
 3186SOL    HW2 9945   2.606   1.292   5.100
 3187SOL     OW 9946   2.534   1.616   3.878
 3187SOL    HW1 9947   2.543   1.626   3.779
 3187SOL    HW2 9948   2.494   1.527   3.899
 3188SOL     OW 9949   3.512   1.720   5.118
 3188SOL    HW1 9950   3.565   1.730   5.034
 3188SOL    HW2 9951   3.485   1.810   5.152
 3189SOL     OW 9952   3.703   0.175   4.687
 3189SOL    HW1 9953   3.742   0.090   4.651
 3189SOL    HW2 9954   3.605   0.177   4.668
 3190SOL     OW 9955   2.125   0.326   4.444
 3190SOL    HW1 9956   2.046   0.377   4.410
 3190SOL    HW2 9957   2.116   0.311   4.542
 3191SOL     OW 9958   3.056   1.612   3.755
 3191SOL    HW1 9959   3.062   1.519   3.792
 3191SOL    HW2 9960   2.997   1.612   3.675
 3192SOL     OW 9961   2.684   1.002   5.096
 3192SOL    HW1 9962   2.724   1.001   5.004
 3192SOL    HW2 9963   2.694   1.094   5.136
 3193SOL     OW 9964   2.778   0.910   4.015
 3193SOL    HW1 9965   2.841   0.948   3.947
 3193SOL    HW2 9966   2.818   0.827   4.054
 3194SOL     OW 9967   3.366   1.607   3.768
 3194SOL    HW1 9968   3.274   1.644   3.775
 3194SOL    HW2 9969   3.404   1.627   3.678
 3195SOL     OW 9970   2.234   1.288   5.214
 3195SOL    HW1 9971   2.221   1.381   5.180
 3195SOL    HW2 9972   2.150   1.236   5.201
 3196SOL     OW 9973   3.476   1.292   5.013
 3196SOL    HW1 9974   3.536   1.295   5.093
 3196SOL    HW2 9975   3.401   1.356   5.026
 3197SOL     OW 9976   2.901   1.098   4.420
 3197SOL    HW1 9977   2.831   1.051   4.474
 3197SOL    HW2 9978   2.960   1.030   4.377
 3198SOL     OW 9979   2.876   0.236   4.695
 3198SOL    HW1 9980   2.868   0.200   4.602
 3198SOL    HW2 9981   2.874   0.160   4.760
 3199SOL     OW 9982   2.452   1.487   4.215
 3199SOL    HW1 9983   2.494   1.429   4.145
 3199SOL    HW2 9984   2.408   1.566   4.171
 3200SOL     OW 9985   3.571   0.385   5.105
 3200SOL    HW1 9986   3.644   0.454   5.109
 3200SOL    HW2 9987   3.599   0.310   5.046
 3201SOL     OW 9988   2.117   1.348   4.014
 3201SOL    HW1 9989   2.021   1.349   3.987
 3201SOL    HW2 9990   2.129   1.401   4.098
 3202SOL     OW 9991   1.967   1.013   5.450
 3202SOL    HW1 9992   1.890   0.980   5.504
 3202SOL    HW2 9993   2.052   0.983   5.492
 3203SOL     OW 9994   2.534   0.203   5.213
 3203SOL    HW1 9995   2.624   0.187   5.173
 3203SOL    HW2 9996   2.542   0.208   5.312
 3204SOL     OW 9997   1.937   0.345   3.757
 3204SOL    HW1 9998   1.845   0.317   3.728
 3204SOL    HW2 9999   1.968   0.422   3.701
 3205SOL     OW10000   3.302   0.856   5.122
 3205SOL    HW110001   3.245   0.908   5.059
 3205SOL    HW210002   3.398   0.868   5.098
 3206SOL     OW10003   1.934   0.166   4.042
 3206SOL    HW110004   1.917   0.249   3.988
 3206SOL    HW210005   2.024   0.129   4.020
 3207SOL     OW10006   3.045   1.335   3.843
 3207SOL    HW110007   2.946   1.324   3.845
 3207SOL    HW210008   3.079   1.350   3.936
 3208SOL     OW10009   2.475   0.842   5.155
 3208SOL    HW110010   2.531   0.923   5.138
 3208SOL    HW210011   2.534   0.762   5.158
 3209SOL     OW10012   3.355   1.767   4.683
 3209SOL    HW110013   3.388   1.831   4.614
 3209SOL    HW210014   3.421   1.761   4.758
 3210SOL     OW10015   2.578   0.565   5.432
 3210SOL    HW110016   2.597   0.630   5.506
 3210SOL    HW210017   2.638   0.485   5.441
 3211SOL     OW10018   3.312   1.220   5.357
 3211SOL    HW110019   3.303   1.210   5.456
 3211SOL    HW210020   3.408   1.213   5.331
 3212SOL     OW10021   2.252   1.741   5.284
 3212SOL    HW110022   2.161   1.782   5.282
 3212SOL    HW210023   2.245   1.647   5.316
 3213SOL     OW10024   3.536   0.883   4.978
 3213SOL    HW110025   3.509   0.794   4.941
 3213SOL    HW210026   3.537   0.951   4.905
 3214SOL     OW10027   3.087   0.325   4.173
 3214SOL    HW110028   3.152   0.251   4.162
 3214SOL    HW210029   3.107   0.375   4.257
 3215SOL     OW10030   2.456   0.745   4.376
 3215SOL    HW110031   2.506   0.830   4.357
 3215SOL    HW210032   2.368   0.747   4.328
 3216SOL     OW10033   3.639   0.342   5.366
 3216SOL    HW110034   3.622   0.373   5.272
 3216SOL    HW210035   3.555   0.305   5.404
 3217SOL     OW10036   3.592   0.934   5.241
 3217SOL    HW110037   3.630   1.025   5.256
 3217SOL    HW210038   3.584   0.917   5.142
 3218SOL     OW10039   2.721   1.374   3.740
 3218SOL    HW110040   2.675   1.389   3.828
 3218SOL    HW210041   2.765   1.459   3.710
 3219SOL     OW10042   2.523   1.790   4.677
 3219SOL    HW110043   2.477   1.878   4.664
 3219SOL    HW210044   2.622   1.802   4.670
 3220SOL     OW10045   2.721   0.956   4.585
 3220SOL    HW110046   2.775   0.887   4.633
 3220SOL    HW210047   2.689   1.025   4.651
 3221SOL     OW10048   2.945   0.984   3.811
 3221SOL    HW110049   2.922   1.037   3.729
 3221SOL    HW210050   3.026   0.928   3.792
 3222SOL     OW10051   3.723   1.569   4.575
 3222SOL    HW110052   3.652   1.557   4.505
 3222SOL    HW210053   3.724   1.490   4.635
 3223SOL     OW10054   2.083   1.314   5.568
 3223SOL    HW110055   2.018   1.241   5.547
 3223SOL    HW210056   2.087   1.328   5.666
 3224SOL     OW10057   1.941   1.240   4.377
 3224SOL    HW110058   1.940   1.193   4.465
 3224SOL    HW210059   2.023   1.212   4.326
 3225SOL     OW10060   2.534   1.391   5.348
 3225SOL    HW110061   2.456   1.341   5.386
 3225SOL    HW210062   2.531   1.486   5.379
 3226SOL     OW10063   3.686   0.192   4.951
 3226SOL    HW110064   3.682   0.102   4.995
 3226SOL    HW210065   3.689   0.181   4.852
 3227SOL     OW10066   2.290   0.424   4.244
 3227SOL    HW110067   2.320   0.352   4.182
 3227SOL    HW210068   2.251   0.384   4.327
 3228SOL     OW10069   3.567   1.487   4.828
 3228SOL    HW110070   3.474   1.462   4.801
 3228SOL    HW210071   3.593   1.437   4.910
 3229SOL     OW10072   2.179   0.547   5.004
 3229SOL    HW110073   2.217   0.488   5.076
 3229SOL    HW210074   2.219   0.521   4.916
 3230SOL     OW10075   2.674   1.586   4.411
 3230SOL    HW110076   2.706   1.596   4.317
 3230SOL    HW210077   2.595   1.524   4.413
 3231SOL     OW10078   3.286   0.214   4.836
 3231SOL    HW110079   3.338   0.149   4.891
 3231SOL    HW210080   3.237   0.277   4.897
 3232SOL     OW10081   2.863   0.034   4.878
 3232SOL    HW110082   2.800  -0.038   4.847
 3232SOL    HW210083   2.956  -0.002   4.878
 3233SOL     OW10084   2.632   1.330   4.025
 3233SOL    HW110085   2.586   1.243   4.042
 3233SOL    HW210086   2.723   1.327   4.066
 3234SOL     OW10087   2.480   1.567   5.008
 3234SOL    HW110088   2.475   1.649   5.065
 3234SOL    HW210089   2.569   1.564   4.963
 3235SOL     OW10090   3.214   0.052   3.892
 3235SOL    HW110091   3.249   0.011   3.808
 3235SOL    HW210092   3.124   0.014   3.912
 3236SOL     OW10093   3.162   0.453   4.415
 3236SOL    HW110094   3.103   0.533   4.419
 3236SOL    HW210095   3.177   0.418   4.508
 3237SOL     OW10096   3.455   0.221   4.606
 3237SOL    HW110097   3.371   0.220   4.660
 3237SOL    HW210098   3.457   0.304   4.550
 3238SOL     OW10099   1.901   1.077   4.024
 3238SOL    HW110100   2.000   1.066   4.015
 3238SOL    HW210101   1.861   0.991   4.056
 3239SOL     OW10102   2.737   1.646   4.061
 3239SOL    HW110103   2.660   1.611   4.007
 3239SOL    HW210104   2.705   1.717   4.123
 3240SOL     OW10105   2.092   0.628   5.699
 3240SOL    HW110106   1.999   0.626   5.736
 3240SOL    HW210107   2.093   0.589   5.607
 3241SOL     OW10108   2.087   0.275   6.582
 3241SOL    HW110109   2.122   0.258   6.674
 3241SOL    HW210110   1.999   0.230   6.570
 3242SOL     OW10111   1.881   0.368   6.233
 3242SOL    HW110112   1.799   0.411   6.272
 3242SOL    HW210113   1.853   0.295   6.170
 3243SOL     OW10114   2.431   1.275   6.751
 3243SOL    HW110115   2.338   1.268   6.714
 3243SOL    HW210116   2.442   1.364   6.795
 3244SOL     OW10117   3.417   1.511   6.289
 3244SOL    HW110118   3.360   1.495   6.370
 3244SOL    HW210119   3.358   1.521   6.209
 3245SOL     OW10120   2.997   0.703   6.303
 3245SOL    HW110121   3.054   0.781   6.278
 3245SOL    HW210122   2.937   0.729   6.379
 3246SOL     OW10123   3.617   0.607   5.817
 3246SOL    HW110124   3.605   0.594   5.718
 3246SOL    HW210125   3.587   0.526   5.866
 3247SOL     OW10126   2.630   1.144   6.609
 3247SOL    HW110127   2.552   1.161   6.669
 3247SOL    HW210128   2.664   1.231   6.573
 3248SOL     OW10129   2.712   0.798   7.409
 3248SOL    HW110130   2.708   0.874   7.474
 3248SOL    HW210131   2.734   0.834   7.318
 3249SOL     OW10132   2.547   1.012   6.251
 3249SOL    HW110133   2.616   0.996   6.321
 3249SOL    HW210134   2.474   1.069   6.289
 3250SOL     OW10135   2.548   1.161   7.389
 3250SOL    HW110136   2.608   1.240   7.403
 3250SOL    HW210137   2.462   1.192   7.348
 3251SOL     OW10138   2.197   1.435   6.647
 3251SOL    HW110139   2.119   1.404   6.594
 3251SOL    HW210140   2.255   1.493   6.590
 3252SOL     OW10141   3.322   1.505   6.925
 3252SOL    HW110142   3.346   1.599   6.951
 3252SOL    HW210143   3.306   1.451   7.007
 3253SOL     OW10144   2.300   0.392   7.085
 3253SOL    HW110145   2.382   0.336   7.094
 3253SOL    HW210146   2.219   0.334   7.089
 3254SOL     OW10147   3.465   0.447   6.323
 3254SOL    HW110148   3.391   0.493   6.273
 3254SOL    HW210149   3.516   0.515   6.376
 3255SOL     OW10150   2.093   1.713   6.069
 3255SOL    HW110151   2.127   1.790   6.123
 3255SOL    HW210152   2.137   1.713   5.979
 3256SOL     OW10153   2.989   1.341   7.276
 3256SOL    HW110154   3.036   1.341   7.364
 3256SOL    HW210155   2.941   1.254   7.265
 3257SOL     OW10156   2.092   1.434   6.124
 3257SOL    HW110157   2.066   1.530   6.124
 3257SOL    HW210158   2.021   1.380   6.169
 3258SOL     OW10159   2.102   1.091   6.472
 3258SOL    HW110160   2.116   1.007   6.524
 3258SOL    HW210161   2.047   1.155   6.527
 3259SOL     OW10162   2.482   1.786   7.025
 3259SOL    HW110163   2.390   1.769   7.060
 3259SOL    HW210164   2.510   1.878   7.051
 3260SOL     OW10165   2.468   0.964   5.709
 3260SOL    HW110166   2.475   1.048   5.655
 3260SOL    HW210167   2.514   0.977   5.797
 3261SOL     OW10168   3.456   0.114   7.066
 3261SOL    HW110169   3.438   0.181   6.994
 3261SOL    HW210170   3.453   0.160   7.155
 3262SOL     OW10171   1.984   0.643   6.149
 3262SOL    HW110172   1.939   0.555   6.166
 3262SOL    HW210173   1.983   0.697   6.233
 3263SOL     OW10174   3.704   1.767   5.945
 3263SOL    HW110175   3.758   1.738   6.025
 3263SOL    HW210176   3.734   1.857   5.916
 3264SOL     OW10177   1.889   1.596   5.703
 3264SOL    HW110178   1.870   1.500   5.724
 3264SOL    HW210179   1.856   1.654   5.778
 3265SOL     OW10180   3.551   0.922   6.198
 3265SOL    HW110181   3.646   0.893   6.206
 3265SOL    HW210182   3.543   0.987   6.123
 3266SOL     OW10183   3.503   1.108   6.018
 3266SOL    HW110184   3.589   1.110   5.966
 3266SOL    HW210185   3.517   1.155   6.106
 3267SOL     OW10186   1.975   0.737   7.183
 3267SOL    HW110187   2.063   0.724   7.228
 3267SOL    HW210188   1.962   0.834   7.161
 3268SOL     OW10189   2.475   1.365   6.312
 3268SOL    HW110190   2.426   1.278   6.321
 3268SOL    HW210191   2.452   1.408   6.225
 3269SOL     OW10192   3.155   1.228   7.009
 3269SOL    HW110193   3.192   1.155   6.951
 3269SOL    HW210194   3.207   1.233   7.094
 3270SOL     OW10195   2.671   0.004   6.088
 3270SOL    HW110196   2.711   0.095   6.079
 3270SOL    HW210197   2.571   0.012   6.094
 3271SOL     OW10198   2.059   0.976   6.850
 3271SOL    HW110199   2.148   0.931   6.836
 3271SOL    HW210200   1.986   0.911   6.831
 3272SOL     OW10201   3.387   0.999   5.776
 3272SOL    HW110202   3.324   0.923   5.789
 3272SOL    HW210203   3.435   1.017   5.862
 3273SOL     OW10204   3.049   1.792   7.202
 3273SOL    HW110205   3.073   1.852   7.126
 3273SOL    HW210206   3.056   1.697   7.172
 3274SOL     OW10207   2.179   0.251   7.387
 3274SOL    HW110208   2.250   0.322   7.393
 3274SOL    HW210209   2.091   0.290   7.415
 3275SOL     OW10210   3.328   1.417   6.539
 3275SOL    HW110211   3.269   1.423   6.619
 3275SOL    HW210212   3.313   1.329   6.493
 3276SOL     OW10213   3.529   1.714   6.158
 3276SOL    HW110214   3.488   1.691   6.070
 3276SOL    HW210215   3.511   1.640   6.223
 3277SOL     OW10216   2.460   0.729   5.856
 3277SOL    HW110217   2.484   0.798   5.788
 3277SOL    HW210218   2.382   0.762   5.910
 3278SOL     OW10219   3.143   0.345   6.530
 3278SOL    HW110220   3.057   0.295   6.517
 3278SOL    HW210221   3.205   0.291   6.586
 3279SOL     OW10222   3.438   1.662   5.893
 3279SOL    HW110223   3.527   1.708   5.896
 3279SOL    HW210224   3.417   1.638   5.798
 3280SOL     OW10225   2.669   0.605   7.051
 3280SOL    HW110226   2.622   0.602   7.140
 3280SOL    HW210227   2.618   0.550   6.985
 3281SOL     OW10228   3.256   0.469   7.260
 3281SOL    HW110229   3.236   0.512   7.348
 3281SOL    HW210230   3.334   0.407   7.269
 3282SOL     OW10231   2.835   0.890   7.158
 3282SOL    HW110232   2.881   0.806   7.129
 3282SOL    HW210233   2.779   0.924   7.083
 3283SOL     OW10234   2.853   0.410   6.828
 3283SOL    HW110235   2.776   0.444   6.882
 3283SOL    HW210236   2.819   0.359   6.749
 3284SOL     OW10237   2.903   0.701   6.015
 3284SOL    HW110238   2.929   0.697   6.111
 3284SOL    HW210239   2.818   0.650   6.001
 3285SOL     OW10240   1.938   0.811   6.375
 3285SOL    HW110241   2.037   0.799   6.384
 3285SOL    HW210242   1.914   0.906   6.396
 3286SOL     OW10243   1.992   1.821   7.157
 3286SOL    HW110244   1.982   1.806   7.256
 3286SOL    HW210245   1.906   1.857   7.121
 3287SOL     OW10246   2.727   0.348   5.781
 3287SOL    HW110247   2.786   0.411   5.732
 3287SOL    HW210248   2.746   0.254   5.752
 3288SOL     OW10249   3.581   0.585   7.417
 3288SOL    HW110250   3.555   0.674   7.381
 3288SOL    HW210251   3.579   0.517   7.344
 3289SOL     OW10252   3.224   1.144   6.131
 3289SOL    HW110253   3.307   1.115   6.083
 3289SOL    HW210254   3.175   1.211   6.075
 3290SOL     OW10255   2.412   0.196   6.471
 3290SOL    HW110256   2.407   0.191   6.571
 3290SOL    HW210257   2.414   0.292   6.442
 3291SOL     OW10258   2.870   1.456   6.063
 3291SOL    HW110259   2.824   1.528   6.011
 3291SOL    HW210260   2.866   1.476   6.161
 3292SOL     OW10261   2.213   1.801   6.439
 3292SOL    HW110262   2.263   1.715   6.445
 3292SOL    HW210263   2.278   1.878   6.436
 3293SOL     OW10264   3.657   1.066   6.459
 3293SOL    HW110265   3.595   1.051   6.383
 3293SOL    HW210266   3.605   1.077   6.544
 3294SOL     OW10267   3.089   1.550   7.092
 3294SOL    HW110268   3.095   1.473   7.156
 3294SOL    HW210269   3.037   1.524   7.012
 3295SOL     OW10270   2.183   0.943   5.828
 3295SOL    HW110271   2.265   0.982   5.786
 3295SOL    HW210272   2.156   0.861   5.779
 3296SOL     OW10273   3.320   0.735   6.314
 3296SOL    HW110274   3.315   0.670   6.389
 3296SOL    HW210275   3.400   0.794   6.327
 3297SOL     OW10276   2.323   1.266   7.313
 3297SOL    HW110277   2.273   1.267   7.227
 3297SOL    HW210278   2.260   1.248   7.389
 3298SOL     OW10279   2.973   1.776   5.823
 3298SOL    HW110280   2.913   1.714   5.873
 3298SOL    HW210281   3.004   1.732   5.738
 3299SOL     OW10282   2.064   0.285   7.084
 3299SOL    HW110283   1.984   0.345   7.071
 3299SOL    HW210284   2.054   0.236   7.170
 3300SOL     OW10285   3.494   1.377   5.667
 3300SOL    HW110286   3.462   1.471   5.657
 3300SOL    HW210287   3.418   1.314   5.655
 3301SOL     OW10288   2.326   1.743   5.909
 3301SOL    HW110289   2.359   1.782   5.995
 3301SOL    HW210290   2.402   1.736   5.844
 3302SOL     OW10291   3.262   0.107   6.012
 3302SOL    HW110292   3.238   0.070   5.922
 3302SOL    HW210293   3.361   0.123   6.016
 3303SOL     OW10294   2.111   1.785   6.827
 3303SOL    HW110295   2.168   1.720   6.877
 3303SOL    HW210296   2.095   1.752   6.734
 3304SOL     OW10297   2.802   1.698   6.490
 3304SOL    HW110298   2.882   1.641   6.511
 3304SOL    HW210299   2.753   1.658   6.413
 3305SOL     OW10300   2.244   0.700   6.066
 3305SOL    HW110301   2.289   0.610   6.063
 3305SOL    HW210302   2.150   0.689   6.099
 3306SOL     OW10303   3.409   0.222   7.315
 3306SOL    HW110304   3.404   0.259   7.407
 3306SOL    HW210305   3.337   0.153   7.303
 3307SOL     OW10306   2.476   0.122   5.703
 3307SOL    HW110307   2.574   0.100   5.710
 3307SOL    HW210308   2.445   0.105   5.610
 3308SOL     OW10309   2.643   0.264   7.335
 3308SOL    HW110310   2.710   0.203   7.378
 3308SOL    HW210311   2.570   0.283   7.400
 3309SOL     OW10312   2.750   1.514   6.781
 3309SOL    HW110313   2.727   1.489   6.687
 3309SOL    HW210314   2.811   1.445   6.820
 3310SOL     OW10315   3.213   0.590   7.019
 3310SOL    HW110316   3.241   0.547   7.104
 3310SOL    HW210317   3.238   0.686   7.020
 3311SOL     OW10318   2.665   1.402   6.510
 3311SOL    HW110319   2.755   1.416   6.468
 3311SOL    HW210320   2.594   1.404   6.439
 3312SOL     OW10321   2.784   0.503   6.485
 3312SOL    HW110322   2.759   0.494   6.389
 3312SOL    HW210323   2.832   0.421   6.516
 3313SOL     OW10324   2.401   0.064   6.098
 3313SOL    HW110325   2.320   0.065   6.156
 3313SOL    HW210326   2.404   0.147   6.043
 3314SOL     OW10327   3.296   1.188   5.627
 3314SOL    HW110328   3.328   1.112   5.684
 3314SOL    HW210329   3.204   1.215   5.657
 3315SOL     OW10330   2.159   0.035   5.757
 3315SOL    HW110331   2.208   0.119   5.736
 3315SOL    HW210332   2.221  -0.030   5.802
 3316SOL     OW10333   2.797   0.236   6.066
 3316SOL    HW110334   2.749   0.277   5.988
 3316SOL    HW210335   2.896   0.234   6.047
 3317SOL     OW10336   2.938   0.683   7.050
 3317SOL    HW110337   2.858   0.622   7.053
 3317SOL    HW210338   3.019   0.630   7.026
 3318SOL     OW10339   3.089   1.570   6.379
 3318SOL    HW110340   3.110   1.644   6.314
 3318SOL    HW210341   3.157   1.570   6.452
 3319SOL     OW10342   2.321   1.152   6.327
 3319SOL    HW110343   2.250   1.125   6.392
 3319SOL    HW210344   2.295   1.124   6.234
 3320SOL     OW10345   3.133   1.797   6.177
 3320SOL    HW110346   3.177   1.861   6.113
 3320SOL    HW210347   3.083   1.849   6.247
 3321SOL     OW10348   2.894   0.549   5.602
 3321SOL    HW110349   2.853   0.631   5.563
 3321SOL    HW210350   2.958   0.575   5.675
 3322SOL     OW10351   1.940   0.556   6.972
 3322SOL    HW110352   2.032   0.555   6.931
 3322SOL    HW210353   1.934   0.630   7.039
 3323SOL     OW10354   2.423   0.222   6.733
 3323SOL    HW110355   2.461   0.138   6.770
 3323SOL    HW210356   2.335   0.241   6.777
 3324SOL     OW10357   2.728   0.454   6.228
 3324SOL    HW110358   2.696   0.526   6.166
 3324SOL    HW210359   2.752   0.373   6.175
 3325SOL     OW10360   2.879   0.039   6.339
 3325SOL    HW110361   2.807   0.044   6.270
 3325SOL    HW210362   2.855  -0.030   6.408
 3326SOL     OW10363   3.291   1.173   6.453
 3326SOL    HW110364   3.236   1.089   6.446
 3326SOL    HW210365   3.317   1.202   6.361
 3327SOL     OW10366   3.328   0.590   6.578
 3327SOL    HW110367   3.298   0.495   6.585
 3327SOL    HW210368   3.401   0.606   6.644
 3328SOL     OW10369   3.719   0.833   5.963
 3328SOL    HW110370   3.761   0.769   6.027
 3328SOL    HW210371   3.681   0.782   5.885
 3329SOL     OW10372   2.350   1.385   5.760
 3329SOL    HW110373   2.263   1.370   5.807
 3329SOL    HW210374   2.333   1.411   5.665
 3330SOL     OW10375   3.526   1.280   6.243
 3330SOL    HW110376   3.625   1.288   6.257
 3330SOL    HW210377   3.481   1.364   6.274
 3331SOL     OW10378   3.252   0.575   5.664
 3331SOL    HW110379   3.198   0.554   5.745
 3331SOL    HW210380   3.343   0.534   5.673
 3332SOL     OW10381   2.389   0.256   5.914
 3332SOL    HW110382   2.416   0.197   5.839
 3332SOL    HW210383   2.389   0.351   5.883
 3333SOL     OW10384   3.616   1.223   7.174
 3333SOL    HW110385   3.707   1.184   7.161
 3333SOL    HW210386   3.624   1.319   7.198
 3334SOL     OW10387   2.926   1.347   6.926
 3334SOL    HW110388   2.846   1.324   6.981
 3334SOL    HW210389   3.009   1.321   6.975
 3335SOL     OW10390   3.454   1.629   7.211
 3335SOL    HW110391   3.481   1.663   7.121
 3335SOL    HW210392   3.533   1.591   7.257
 3336SOL     OW10393   2.973   1.195   6.686
 3336SOL    HW110394   2.933   1.239   6.767
 3336SOL    HW210395   2.932   1.232   6.603
 3337SOL     OW10396   3.500   1.099   6.665
 3337SOL    HW110397   3.505   1.180   6.724
 3337SOL    HW210398   3.414   1.101   6.614
 3338SOL     OW10399   2.777   0.089   6.988
 3338SOL    HW110400   2.802   0.069   6.893
 3338SOL    HW210401   2.849   0.145   7.030
 3339SOL     OW10402   2.842   1.116   7.305
 3339SOL    HW110403   2.743   1.122   7.315
 3339SOL    HW210404   2.865   1.036   7.249
 3340SOL     OW10405   2.567   1.050   5.954
 3340SOL    HW110406   2.553   1.057   6.053
 3340SOL    HW210407   2.651   0.999   5.936
 3341SOL     OW10408   2.272   0.813   6.837
 3341SOL    HW110409   2.358   0.825   6.887
 3341SOL    HW210410   2.230   0.726   6.864
 3342SOL     OW10411   3.136   0.386   6.848
 3342SOL    HW110412   3.157   0.460   6.912
 3342SOL    HW210413   3.047   0.403   6.805
 3343SOL     OW10414   1.926   1.564   6.917
 3343SOL    HW110415   1.880   1.646   6.883
 3343SOL    HW210416   2.024   1.583   6.926
 3344SOL     OW10417   2.229   1.100   6.087
 3344SOL    HW110418   2.222   1.183   6.031
 3344SOL    HW210419   2.233   1.020   6.027
 3345SOL     OW10420   2.428   0.537   6.451
 3345SOL    HW110421   2.440   0.603   6.377
 3345SOL    HW210422   2.474   0.571   6.534
 3346SOL     OW10423   3.114   1.348   5.974
 3346SOL    HW110424   3.164   1.425   6.014
 3346SOL    HW210425   3.019   1.350   6.006
 3347SOL     OW10426   3.134   1.445   6.728
 3347SOL    HW110427   3.181   1.458   6.815
 3347SOL    HW210428   3.068   1.371   6.737
 3348SOL     OW10429   3.444   0.639   6.058
 3348SOL    HW110430   3.413   0.700   6.131
 3348SOL    HW210431   3.494   0.691   5.989
 3349SOL     OW10432   2.216   1.510   6.915
 3349SOL    HW110433   2.195   1.466   6.828
 3349SOL    HW210434   2.313   1.536   6.918
 3350SOL     OW10435   2.264   0.751   7.184
 3350SOL    HW110436   2.332   0.806   7.137
 3350SOL    HW210437   2.304   0.663   7.211
 3351SOL     OW10438   3.449   0.779   7.256
 3351SOL    HW110439   3.357   0.817   7.251
 3351SOL    HW210440   3.509   0.826   7.191
 3352SOL     OW10441   2.875   0.105   7.356
 3352SOL    HW110442   2.881   0.190   7.304
 3352SOL    HW210443   2.907   0.029   7.299
 3353SOL     OW10444   2.366   0.050   7.326
 3353SOL    HW110445   2.324  -0.007   7.256
 3353SOL    HW210446   2.300   0.119   7.358
 3354SOL     OW10447   2.435   0.870   6.615
 3354SOL    HW110448   2.479   0.959   6.606
 3354SOL    HW210449   2.372   0.870   6.692
 3355SOL     OW10450   3.222   0.862   6.631
 3355SOL    HW110451   3.147   0.862   6.565
 3355SOL    HW210452   3.259   0.770   6.640
 3356SOL     OW10453   3.071   0.525   5.861
 3356SOL    HW110454   3.084   0.441   5.915
 3356SOL    HW210455   3.042   0.599   5.921
 3357SOL     OW10456   2.169   0.213   6.817
 3357SOL    HW110457   2.146   0.250   6.907
 3357SOL    HW210458   2.139   0.118   6.811
 3358SOL     OW10459   1.899   1.310   6.868
 3358SOL    HW110460   1.952   1.261   6.936
 3358SOL    HW210461   1.921   1.408   6.873
 3359SOL     OW10462   2.594   0.634   6.650
 3359SOL    HW110463   2.653   0.608   6.574
 3359SOL    HW210464   2.566   0.730   6.639
 3360SOL     OW10465   3.590   0.935   7.440
 3360SOL    HW110466   3.544   0.928   7.351
 3360SOL    HW210467   3.528   0.979   7.506
 3361SOL     OW10468   2.169   0.063   6.204
 3361SOL    HW110469   2.158   0.157   6.237
 3361SOL    HW210470   2.164   0.000   6.281
 3362SOL     OW10471   3.484   0.367   5.960
 3362SOL    HW110472   3.486   0.291   6.024
 3362SOL    HW210473   3.436   0.444   6.000
 3363SOL     OW10474   2.885   0.766   6.552
 3363SOL    HW110475   2.900   0.787   6.648
 3363SOL    HW210476   2.855   0.671   6.543
 3364SOL     OW10477   2.842   1.573   7.286
 3364SOL    HW110478   2.822   1.617   7.198
 3364SOL    HW210479   2.881   1.482   7.270
 3365SOL     OW10480   3.721   1.518   7.191
 3365SOL    HW110481   3.735   1.545   7.096
 3365SOL    HW210482   3.804   1.540   7.244
 3366SOL     OW10483   2.212   0.898   7.390
 3366SOL    HW110484   2.288   0.942   7.438
 3366SOL    HW210485   2.247   0.851   7.308
 3367SOL     OW10486   3.402   0.274   5.711
 3367SOL    HW110487   3.341   0.199   5.734
 3367SOL    HW210488   3.424   0.326   5.794
 3368SOL     OW10489   3.165   0.838   5.628
 3368SOL    HW110490   3.199   0.745   5.643
 3368SOL    HW210491   3.183   0.865   5.533
 3369SOL     OW10492   2.930   1.333   6.435
 3369SOL    HW110493   2.937   1.249   6.380
 3369SOL    HW210494   2.992   1.402   6.399
 3370SOL     OW10495   2.181   0.810   6.535
 3370SOL    HW110496   2.274   0.846   6.540
 3370SOL    HW210497   2.175   0.725   6.587
 3371SOL     OW10498   2.201   0.509   6.592
 3371SOL    HW110499   2.149   0.426   6.575
 3371SOL    HW210500   2.278   0.514   6.528
 3372SOL     OW10501   3.000   0.380   7.264
 3372SOL    HW110502   2.955   0.443   7.328
 3372SOL    HW210503   3.093   0.411   7.247
 3373SOL     OW10504   3.022   0.207   7.063
 3373SOL    HW110505   3.022   0.271   7.140
 3373SOL    HW210506   3.050   0.255   6.980
 3374SOL     OW10507   1.870   1.326   5.786
 3374SOL    HW110508   1.777   1.347   5.755
 3374SOL    HW210509   1.880   1.227   5.799
 3375SOL     OW10510   1.950   1.801   6.513
 3375SOL    HW110511   1.908   1.715   6.486
 3375SOL    HW210512   2.044   1.804   6.479
 3376SOL     OW10513   2.366   1.568   6.496
 3376SOL    HW110514   2.432   1.642   6.505
 3376SOL    HW210515   2.410   1.489   6.454
 3377SOL     OW10516   2.864   0.796   6.824
 3377SOL    HW110517   2.905   0.764   6.910
 3377SOL    HW210518   2.768   0.769   6.821
 3378SOL     OW10519   1.902   0.544   6.700
 3378SOL    HW110520   1.987   0.511   6.659
 3378SOL    HW210521   1.915   0.559   6.798
 3379SOL     OW10522   2.051   0.520   7.308
 3379SOL    HW110523   2.110   0.480   7.238
 3379SOL    HW210524   1.993   0.591   7.267
 3380SOL     OW10525   3.231   0.950   7.246
 3380SOL    HW110526   3.270   1.039   7.266
 3380SOL    HW210527   3.241   0.930   7.149
 3381SOL     OW10528   2.677   0.572   5.911
 3381SOL    HW110529   2.684   0.483   5.865
 3381SOL    HW210530   2.583   0.606   5.903
 3382SOL     OW10531   3.519   0.604   6.792
 3382SOL    HW110532   3.481   0.535   6.854
 3382SOL    HW210533   3.601   0.568   6.748
 3383SOL     OW10534   2.114   1.564   7.330
 3383SOL    HW110535   2.084   1.621   7.406
 3383SOL    HW210536   2.107   1.467   7.356
 3384SOL     OW10537   2.533   0.464   6.855
 3384SOL    HW110538   2.499   0.375   6.825
 3384SOL    HW210539   2.559   0.518   6.775
 3385SOL     OW10540   2.792   1.678   7.051
 3385SOL    HW110541   2.768   1.660   6.956
 3385SOL    HW210542   2.822   1.772   7.061
 3386SOL     OW10543   2.335   0.500   5.777
 3386SOL    HW110544   2.396   0.580   5.781
 3386SOL    HW210545   2.240   0.531   5.784
 3387SOL     OW10546   2.021   1.137   7.052
 3387SOL    HW110547   2.043   1.076   7.128
 3387SOL    HW210548   2.031   1.088   6.966
 3388SOL     OW10549   3.209   1.059   6.820
 3388SOL    HW110550   3.233   0.996   6.746
 3388SOL    HW210551   3.119   1.099   6.802
 3389SOL     OW10552   3.164   0.855   5.895
 3389SOL    HW110553   3.078   0.824   5.937
 3389SOL    HW210554   3.160   0.841   5.796
 3390SOL     OW10555   3.621   1.747   6.740
 3390SOL    HW110556   3.682   1.777   6.667
 3390SOL    HW210557   3.583   1.658   6.718
 3391SOL     OW10558   3.114   1.731   6.714
 3391SOL    HW110559   3.198   1.736   6.660
 3391SOL    HW210560   3.091   1.635   6.732
 3392SOL     OW10561   1.945   1.258   6.608
 3392SOL    HW110562   1.940   1.257   6.708
 3392SOL    HW210563   1.862   1.217   6.570
 3393SOL     OW10564   2.550   1.662   7.302
 3393SOL    HW110565   2.494   1.743   7.311
 3393SOL    HW210566   2.602   1.666   7.216
 3394SOL     OW10567   3.588   0.135   6.109
 3394SOL    HW110568   3.661   0.118   6.042
 3394SOL    HW210569   3.557   0.048   6.147
 3395SOL     OW10570   3.250   1.573   6.063
 3395SOL    HW110571   3.317   1.585   5.989
 3395SOL    HW210572   3.210   1.662   6.086
 3396SOL     OW10573   1.992   1.794   7.437
 3396SOL    HW110574   1.951   1.720   7.490
 3396SOL    HW210575   2.056   1.845   7.495
 3397SOL     OW10576   3.142   0.927   6.258
 3397SOL    HW110577   3.202   0.846   6.260
 3397SOL    HW210578   3.182   0.996   6.198
 3398SOL     OW10579   2.692   1.273   7.008
 3398SOL    HW110580   2.687   1.306   7.103
 3398SOL    HW210581   2.606   1.292   6.962
 3399SOL     OW10582   2.534   1.616   5.740
 3399SOL    HW110583   2.543   1.626   5.641
 3399SOL    HW210584   2.494   1.527   5.761
 3400SOL     OW10585   3.512   1.720   6.980
 3400SOL    HW110586   3.565   1.730   6.896
 3400SOL    HW210587   3.485   1.810   7.014
 3401SOL     OW10588   3.703   0.175   6.549
 3401SOL    HW110589   3.742   0.090   6.513
 3401SOL    HW210590   3.605   0.177   6.530
 3402SOL     OW10591   2.125   0.326   6.306
 3402SOL    HW110592   2.046   0.377   6.272
 3402SOL    HW210593   2.116   0.311   6.404
 3403SOL     OW10594   3.056   1.612   5.617
 3403SOL    HW110595   3.062   1.519   5.654
 3403SOL    HW210596   2.997   1.612   5.537
 3404SOL     OW10597   2.684   1.002   6.958
 3404SOL    HW110598   2.724   1.001   6.866
 3404SOL    HW210599   2.694   1.094   6.998
 3405SOL     OW10600   2.778   0.910   5.877
 3405SOL    HW110601   2.841   0.948   5.809
 3405SOL    HW210602   2.818   0.827   5.916
 3406SOL     OW10603   3.366   1.607   5.630
 3406SOL    HW110604   3.274   1.644   5.637
 3406SOL    HW210605   3.404   1.627   5.540
 3407SOL     OW10606   2.234   1.288   7.076
 3407SOL    HW110607   2.221   1.381   7.042
 3407SOL    HW210608   2.150   1.236   7.063
 3408SOL     OW10609   3.476   1.292   6.875
 3408SOL    HW110610   3.536   1.295   6.955
 3408SOL    HW210611   3.401   1.356   6.888
 3409SOL     OW10612   2.901   1.098   6.282
 3409SOL    HW110613   2.831   1.051   6.336
 3409SOL    HW210614   2.960   1.030   6.239
 3410SOL     OW10615   2.876   0.236   6.557
 3410SOL    HW110616   2.868   0.200   6.464
 3410SOL    HW210617   2.874   0.160   6.622
 3411SOL     OW10618   2.452   1.487   6.077
 3411SOL    HW110619   2.494   1.429   6.007
 3411SOL    HW210620   2.408   1.566   6.033
 3412SOL     OW10621   3.571   0.385   6.967
 3412SOL    HW110622   3.644   0.454   6.971
 3412SOL    HW210623   3.599   0.310   6.908
 3413SOL     OW10624   2.117   1.348   5.876
 3413SOL    HW110625   2.021   1.349   5.849
 3413SOL    HW210626   2.129   1.401   5.960
 3414SOL     OW10627   1.967   1.013   7.312
 3414SOL    HW110628   1.890   0.980   7.366
 3414SOL    HW210629   2.052   0.983   7.354
 3415SOL     OW10630   2.534   0.203   7.075
 3415SOL    HW110631   2.624   0.187   7.035
 3415SOL    HW210632   2.542   0.208   7.174
 3416SOL     OW10633   1.937   0.345   5.619
 3416SOL    HW110634   1.845   0.317   5.590
 3416SOL    HW210635   1.968   0.422   5.563
 3417SOL     OW10636   3.302   0.856   6.984
 3417SOL    HW110637   3.245   0.908   6.921
 3417SOL    HW210638   3.398   0.868   6.960
 3418SOL     OW10639   1.934   0.166   5.904
 3418SOL    HW110640   1.917   0.249   5.850
 3418SOL    HW210641   2.024   0.129   5.882
 3419SOL     OW10642   3.045   1.335   5.705
 3419SOL    HW110643   2.946   1.324   5.707
 3419SOL    HW210644   3.079   1.350   5.798
 3420SOL     OW10645   2.475   0.842   7.017
 3420SOL    HW110646   2.531   0.923   7.000
 3420SOL    HW210647   2.534   0.762   7.020
 3421SOL     OW10648   3.355   1.767   6.545
 3421SOL    HW110649   3.388   1.831   6.476
 3421SOL    HW210650   3.421   1.761   6.620
 3422SOL     OW10651   2.578   0.565   7.294
 3422SOL    HW110652   2.597   0.630   7.368
 3422SOL    HW210653   2.638   0.485   7.303
 3423SOL     OW10654   3.312   1.220   7.219
 3423SOL    HW110655   3.303   1.210   7.318
 3423SOL    HW210656   3.408   1.213   7.193
 3424SOL     OW10657   2.252   1.741   7.146
 3424SOL    HW110658   2.161   1.782   7.144
 3424SOL    HW210659   2.245   1.647   7.178
 3425SOL     OW10660   3.536   0.883   6.840
 3425SOL    HW110661   3.509   0.794   6.803
 3425SOL    HW210662   3.537   0.951   6.767
 3426SOL     OW10663   3.087   0.325   6.035
 3426SOL    HW110664   3.152   0.251   6.024
 3426SOL    HW210665   3.107   0.375   6.119
 3427SOL     OW10666   2.456   0.745   6.238
 3427SOL    HW110667   2.506   0.830   6.219
 3427SOL    HW210668   2.368   0.747   6.190
 3428SOL     OW10669   3.639   0.342   7.228
 3428SOL    HW110670   3.622   0.373   7.134
 3428SOL    HW210671   3.555   0.305   7.266
 3429SOL     OW10672   3.592   0.934   7.103
 3429SOL    HW110673   3.630   1.025   7.118
 3429SOL    HW210674   3.584   0.917   7.004
 3430SOL     OW10675   2.721   1.374   5.602
 3430SOL    HW110676   2.675   1.389   5.690
 3430SOL    HW210677   2.765   1.459   5.572
 3431SOL     OW10678   2.523   1.790   6.539
 3431SOL    HW110679   2.477   1.878   6.526
 3431SOL    HW210680   2.622   1.802   6.532
 3432SOL     OW10681   2.721   0.956   6.447
 3432SOL    HW110682   2.775   0.887   6.495
 3432SOL    HW210683   2.689   1.025   6.513
 3433SOL     OW10684   2.945   0.984   5.673
 3433SOL    HW110685   2.922   1.037   5.591
 3433SOL    HW210686   3.026   0.928   5.654
 3434SOL     OW10687   3.723   1.569   6.437
 3434SOL    HW110688   3.652   1.557   6.367
 3434SOL    HW210689   3.724   1.490   6.497
 3435SOL     OW10690   2.083   1.314   7.430
 3435SOL    HW110691   2.018   1.241   7.409
 3435SOL    HW210692   2.087   1.328   7.528
 3436SOL     OW10693   1.941   1.240   6.239
 3436SOL    HW110694   1.940   1.193   6.327
 3436SOL    HW210695   2.023   1.212   6.188
 3437SOL     OW10696   2.534   1.391   7.210
 3437SOL    HW110697   2.456   1.341   7.248
 3437SOL    HW210698   2.531   1.486   7.241
 3438SOL     OW10699   3.686   0.192   6.813
 3438SOL    HW110700   3.682   0.102   6.857
 3438SOL    HW210701   3.689   0.181   6.714
 3439SOL     OW10702   2.290   0.424   6.106
 3439SOL    HW110703   2.320   0.352   6.044
 3439SOL    HW210704   2.251   0.384   6.189
 3440SOL     OW10705   3.567   1.487   6.690
 3440SOL    HW110706   3.474   1.462   6.663
 3440SOL    HW210707   3.593   1.437   6.772
 3441SOL     OW10708   2.179   0.547   6.866
 3441SOL    HW110709   2.217   0.488   6.938
 3441SOL    HW210710   2.219   0.521   6.778
 3442SOL     OW10711   2.674   1.586   6.273
 3442SOL    HW110712   2.706   1.596   6.179
 3442SOL    HW210713   2.595   1.524   6.275
 3443SOL     OW10714   3.286   0.214   6.698
 3443SOL    HW110715   3.338   0.149   6.753
 3443SOL    HW210716   3.237   0.277   6.759
 3444SOL     OW10717   2.863   0.034   6.740
 3444SOL    HW110718   2.800  -0.038   6.709
 3444SOL    HW210719   2.956  -0.002   6.740
 3445SOL     OW10720   2.632   1.330   5.887
 3445SOL    HW110721   2.586   1.243   5.904
 3445SOL    HW210722   2.723   1.327   5.928
 3446SOL     OW10723   2.480   1.567   6.870
 3446SOL    HW110724   2.475   1.649   6.927
 3446SOL    HW210725   2.569   1.564   6.825
 3447SOL     OW10726   3.214   0.052   5.754
 3447SOL    HW110727   3.249   0.011   5.670
 3447SOL    HW210728   3.124   0.014   5.774
 3448SOL     OW10729   3.162   0.453   6.277
 3448SOL    HW110730   3.103   0.533   6.281
 3448SOL    HW210731   3.177   0.418   6.370
 3449SOL     OW10732   3.455   0.221   6.468
 3449SOL    HW110733   3.371   0.220   6.522
 3449SOL    HW210734   3.457   0.304   6.412
 3450SOL     OW10735   1.901   1.077   5.886
 3450SOL    HW110736   2.000   1.066   5.877
 3450SOL    HW210737   1.861   0.991   5.918
 3451SOL     OW10738   2.737   1.646   5.923
 3451SOL    HW110739   2.660   1.611   5.869
 3451SOL    HW210740   2.705   1.717   5.985
 3452SOL     OW10741   2.092   0.628   7.561
 3452SOL    HW110742   1.999   0.626   7.598
 3452SOL    HW210743   2.093   0.589   7.469
 3453SOL     OW10744   3.617   0.607   7.679
 3453SOL    HW110745   3.605   0.594   7.580
 3453SOL    HW210746   3.587   0.526   7.728
 3454SOL     OW10747   2.093   1.713   7.931
 3454SOL    HW110748   2.127   1.790   7.985
 3454SOL    HW210749   2.137   1.713   7.841
 3455SOL     OW10750   2.092   1.434   7.986
 3455SOL    HW110751   2.066   1.530   7.986
 3455SOL    HW210752   2.021   1.380   8.031
 3456SOL     OW10753   2.468   0.964   7.571
 3456SOL    HW110754   2.475   1.048   7.517
 3456SOL    HW210755   2.514   0.977   7.659
 3457SOL     OW10756   3.704   1.767   7.807
 3457SOL    HW110757   3.758   1.738   7.887
 3457SOL    HW210758   3.734   1.857   7.778
 3458SOL     OW10759   1.889   1.596   7.565
 3458SOL    HW110760   1.870   1.500   7.586
 3458SOL    HW210761   1.856   1.654   7.640
 3459SOL     OW10762   3.551   0.922   8.060
 3459SOL    HW110763   3.646   0.893   8.068
 3459SOL    HW210764   3.543   0.987   7.985
 3460SOL     OW10765   3.503   1.108   7.880
 3460SOL    HW110766   3.589   1.110   7.828
 3460SOL    HW210767   3.517   1.155   7.968
 3461SOL     OW10768   2.671   0.004   7.950
 3461SOL    HW110769   2.711   0.095   7.941
 3461SOL    HW210770   2.571   0.012   7.956
 3462SOL     OW10771   3.387   0.999   7.638
 3462SOL    HW110772   3.324   0.923   7.651
 3462SOL    HW210773   3.435   1.017   7.724
 3463SOL     OW10774   2.460   0.729   7.718
 3463SOL    HW110775   2.484   0.798   7.650
 3463SOL    HW210776   2.382   0.762   7.772
 3464SOL     OW10777   3.438   1.662   7.755
 3464SOL    HW110778   3.527   1.708   7.758
 3464SOL    HW210779   3.417   1.638   7.660
 3465SOL     OW10780   1.938   0.811   8.237
 3465SOL    HW110781   2.037   0.799   8.246
 3465SOL    HW210782   1.914   0.906   8.258
 3466SOL     OW10783   2.727   0.348   7.643
 3466SOL    HW110784   2.786   0.411   7.594
 3466SOL    HW210785   2.746   0.254   7.614
 3467SOL     OW10786   2.183   0.943   7.690
 3467SOL    HW110787   2.265   0.982   7.648
 3467SOL    HW210788   2.156   0.861   7.641
 3468SOL     OW10789   2.973   1.776   7.685
 3468SOL    HW110790   2.913   1.714   7.735
 3468SOL    HW210791   3.004   1.732   7.600
 3469SOL     OW10792   3.494   1.377   7.529
 3469SOL    HW110793   3.462   1.471   7.519
 3469SOL    HW210794   3.418   1.314   7.517
 3470SOL     OW10795   2.326   1.743   7.771
 3470SOL    HW110796   2.359   1.782   7.857
 3470SOL    HW210797   2.402   1.736   7.706
 3471SOL     OW10798   3.262   0.107   7.874
 3471SOL    HW110799   3.238   0.070   7.784
 3471SOL    HW210800   3.361   0.123   7.878
 3472SOL     OW10801   2.244   0.700   7.928
 3472SOL    HW110802   2.289   0.610   7.925
 3472SOL    HW210803   2.150   0.689   7.961
 3473SOL     OW10804   2.476   0.122   7.565
 3473SOL    HW110805   2.574   0.100   7.572
 3473SOL    HW210806   2.445   0.105   7.472
 3474SOL     OW10807   2.401   0.064   7.960
 3474SOL    HW110808   2.320   0.065   8.018
 3474SOL    HW210809   2.404   0.147   7.905
 3475SOL     OW10810   3.296   1.188   7.489
 3475SOL    HW110811   3.328   1.112   7.546
 3475SOL    HW210812   3.204   1.215   7.519
 3476SOL     OW10813   2.159   0.035   7.619
 3476SOL    HW110814   2.208   0.119   7.598
 3476SOL    HW210815   2.221  -0.030   7.664
 3477SOL     OW10816   2.797   0.236   7.928
 3477SOL    HW110817   2.749   0.277   7.850
 3477SOL    HW210818   2.896   0.234   7.909
 3478SOL     OW10819   2.321   1.152   8.189
 3478SOL    HW110820   2.250   1.125   8.254
 3478SOL    HW210821   2.295   1.124   8.096
 3479SOL     OW10822   3.133   1.797   8.039
 3479SOL    HW110823   3.177   1.861   7.975
 3479SOL    HW210824   3.083   1.849   8.109
 3480SOL     OW10825   2.894   0.549   7.464
 3480SOL    HW110826   2.853   0.631   7.425
 3480SOL    HW210827   2.958   0.575   7.537
 3481SOL     OW10828   3.719   0.833   7.825
 3481SOL    HW110829   3.761   0.769   7.889
 3481SOL    HW210830   3.681   0.782   7.747
 3482SOL     OW10831   2.350   1.385   7.622
 3482SOL    HW110832   2.263   1.370   7.669
 3482SOL    HW210833   2.333   1.411   7.527
 3483SOL     OW10834   3.252   0.575   7.526
 3483SOL    HW110835   3.198   0.554   7.607
 3483SOL    HW210836   3.343   0.534   7.535
 3484SOL     OW10837   2.389   0.256   7.776
 3484SOL    HW110838   2.416   0.197   7.701
 3484SOL    HW210839   2.389   0.351   7.745
 3485SOL     OW10840   2.567   1.050   7.816
 3485SOL    HW110841   2.553   1.057   7.915
 3485SOL    HW210842   2.651   0.999   7.798
 3486SOL     OW10843   2.229   1.100   7.949
 3486SOL    HW110844   2.222   1.183   7.893
 3486SOL    HW210845   2.233   1.020   7.889
 3487SOL     OW10846   3.114   1.348   7.836
 3487SOL    HW110847   3.164   1.425   7.876
 3487SOL    HW210848   3.019   1.350   7.868
 3488SOL     OW10849   3.444   0.639   7.920
 3488SOL    HW110850   3.413   0.700   7.993
 3488SOL    HW210851   3.494   0.691   7.851
 3489SOL     OW10852   3.071   0.525   7.723
 3489SOL    HW110853   3.084   0.441   7.777
 3489SOL    HW210854   3.042   0.599   7.783
 3490SOL     OW10855   3.484   0.367   7.822
 3490SOL    HW110856   3.486   0.291   7.886
 3490SOL    HW210857   3.436   0.444   7.862
 3491SOL     OW10858   3.402   0.274   7.573
 3491SOL    HW110859   3.341   0.199   7.596
 3491SOL    HW210860   3.424   0.326   7.656
 3492SOL     OW10861   3.165   0.838   7.490
 3492SOL    HW110862   3.199   0.745   7.505
 3492SOL    HW210863   3.183   0.865   7.395
 3493SOL     OW10864   1.870   1.326   7.648
 3493SOL    HW110865   1.777   1.347   7.617
 3493SOL    HW210866   1.880   1.227   7.661
 3494SOL     OW10867   2.677   0.572   7.773
 3494SOL    HW110868   2.684   0.483   7.727
 3494SOL    HW210869   2.583   0.606   7.765
 3495SOL     OW10870   2.335   0.500   7.639
 3495SOL    HW110871   2.396   0.580   7.643
 3495SOL    HW210872   2.240   0.531   7.646
 3496SOL     OW10873   3.164   0.855   7.757
 3496SOL    HW110874   3.078   0.824   7.799
 3496SOL    HW210875   3.160   0.841   7.658
 3497SOL     OW10876   3.588   0.135   7.971
 3497SOL    HW110877   3.661   0.118   7.904
 3497SOL    HW210878   3.557   0.048   8.009
 3498SOL     OW10879   3.250   1.573   7.925
 3498SOL    HW110880   3.317   1.585   7.851
 3498SOL    HW210881   3.210   1.662   7.948
 3499SOL     OW10882   2.534   1.616   7.602
 3499SOL    HW110883   2.543   1.626   7.503
 3499SOL    HW210884   2.494   1.527   7.623
 3500SOL     OW10885   3.056   1.612   7.479
 3500SOL    HW110886   3.062   1.519   7.516
 3500SOL    HW210887   2.997   1.612   7.399
 3501SOL     OW10888   2.778   0.910   7.739
 3501SOL    HW110889   2.841   0.948   7.671
 3501SOL    HW210890   2.818   0.827   7.778
 3502SOL     OW10891   3.366   1.607   7.492
 3502SOL    HW110892   3.274   1.644   7.499
 3502SOL    HW210893   3.404   1.627   7.402
 3503SOL     OW10894   2.452   1.487   7.939
 3503SOL    HW110895   2.494   1.429   7.869
 3503SOL    HW210896   2.408   1.566   7.895
 3504SOL     OW10897   2.117   1.348   7.738
 3504SOL    HW110898   2.021   1.349   7.711
 3504SOL    HW210899   2.129   1.401   7.822
 3505SOL     OW10900   1.937   0.345   7.481
 3505SOL    HW110901   1.845   0.317   7.452
 3505SOL    HW210902   1.968   0.422   7.425
 3506SOL     OW10903   1.934   0.166   7.766
 3506SOL    HW110904   1.917   0.249   7.712
 3506SOL    HW210905   2.024   0.129   7.744
 3507SOL     OW10906   3.045   1.335   7.567
 3507SOL    HW110907   2.946   1.324   7.569
 3507SOL    HW210908   3.079   1.350   7.660
 3508SOL     OW10909   3.087   0.325   7.897
 3508SOL    HW110910   3.152   0.251   7.886
 3508SOL    HW210911   3.107   0.375   7.981
 3509SOL     OW10912   2.456   0.745   8.100
 3509SOL    HW110913   2.506   0.830   8.081
 3509SOL    HW210914   2.368   0.747   8.052
 3510SOL     OW10915   2.721   1.374   7.464
 3510SOL    HW110916   2.675   1.389   7.552
 3510SOL    HW210917   2.765   1.459   7.434
 3511SOL     OW10918   2.945   0.984   7.535
 3511SOL    HW110919   2.922   1.037   7.453
 3511SOL    HW210920   3.026   0.928   7.516
 3512SOL     OW10921   2.290   0.424   7.968
 3512SOL    HW110922   2.320   0.352   7.906
 3512SOL    HW210923   2.251   0.384   8.051
 3513SOL     OW10924   2.632   1.330   7.749
 3513SOL    HW110925   2.586   1.243   7.766
 3513SOL    HW210926   2.723   1.327   7.790
 3514SOL     OW10927   3.214   0.052   7.616
 3514SOL    HW110928   3.249   0.011   7.532
 3514SOL    HW210929   3.124   0.014   7.636
 3515SOL     OW10930   1.901   1.077   7.748
 3515SOL    HW110931   2.000   1.066   7.739
 3515SOL    HW210932   1.861   0.991   7.780
 3516SOL     OW10933   2.737   1.646   7.785
 3516SOL    HW110934   2.660   1.611   7.731
 3516SOL    HW210935   2.705   1.717   7.847
 3517SOL     OW10936   2.092   2.490   0.113
 3517SOL    HW110937   1.999   2.488   0.150
 3517SOL    HW210938   2.093   2.451   0.021
 3518SOL     OW10939   2.087   2.137   0.996
 3518SOL    HW110940   2.122   2.120   1.088
 3518SOL    HW210941   1.999   2.092   0.984
 3519SOL     OW10942   1.881   2.230   0.647
 3519SOL    HW110943   1.799   2.273   0.686
 3519SOL    HW210944   1.853   2.157   0.584
 3520SOL     OW10945   2.431   3.137   1.165
 3520SOL    HW110946   2.338   3.130   1.128
 3520SOL    HW210947   2.442   3.226   1.209
 3521SOL     OW10948   3.417   3.373   0.703
 3521SOL    HW110949   3.360   3.357   0.784
 3521SOL    HW210950   3.358   3.383   0.623
 3522SOL     OW10951   2.997   2.565   0.717
 3522SOL    HW110952   3.054   2.643   0.692
 3522SOL    HW210953   2.937   2.591   0.793
 3523SOL     OW10954   3.617   2.469   0.231
 3523SOL    HW110955   3.605   2.456   0.132
 3523SOL    HW210956   3.587   2.388   0.280
 3524SOL     OW10957   2.630   3.006   1.023
 3524SOL    HW110958   2.552   3.023   1.083
 3524SOL    HW210959   2.664   3.093   0.987
 3525SOL     OW10960   2.548   3.023   1.803
 3525SOL    HW110961   2.608   3.102   1.817
 3525SOL    HW210962   2.462   3.054   1.762
 3526SOL     OW10963   2.197   3.297   1.061
 3526SOL    HW110964   2.119   3.266   1.008
 3526SOL    HW210965   2.255   3.355   1.004
 3527SOL     OW10966   3.322   3.367   1.339
 3527SOL    HW110967   3.346   3.461   1.365
 3527SOL    HW210968   3.306   3.313   1.421
 3528SOL     OW10969   2.300   2.254   1.499
 3528SOL    HW110970   2.382   2.198   1.508
 3528SOL    HW210971   2.219   2.196   1.503
 3529SOL     OW10972   3.465   2.309   0.737
 3529SOL    HW110973   3.391   2.355   0.687
 3529SOL    HW210974   3.516   2.377   0.790
 3530SOL     OW10975   2.093   3.575   0.483
 3530SOL    HW110976   2.127   3.652   0.537
 3530SOL    HW210977   2.137   3.575   0.393
 3531SOL     OW10978   2.989   3.203   1.690
 3531SOL    HW110979   3.036   3.203   1.778
 3531SOL    HW210980   2.941   3.116   1.679
 3532SOL     OW10981   2.092   3.296   0.538
 3532SOL    HW110982   2.066   3.392   0.538
 3532SOL    HW210983   2.021   3.242   0.583
 3533SOL     OW10984   2.102   2.953   0.886
 3533SOL    HW110985   2.116   2.869   0.938
 3533SOL    HW210986   2.047   3.017   0.941
 3534SOL     OW10987   2.482   3.648   1.439
 3534SOL    HW110988   2.390   3.631   1.474
 3534SOL    HW210989   2.510   3.740   1.465
 3535SOL     OW10990   2.468   2.826   0.123
 3535SOL    HW110991   2.475   2.910   0.069
 3535SOL    HW210992   2.514   2.839   0.211
 3536SOL     OW10993   3.456   1.976   1.480
 3536SOL    HW110994   3.438   2.043   1.408
 3536SOL    HW210995   3.453   2.022   1.569
 3537SOL     OW10996   1.984   2.505   0.563
 3537SOL    HW110997   1.939   2.417   0.580
 3537SOL    HW210998   1.983   2.559   0.647
 3538SOL     OW10999   3.704   3.629   0.359
 3538SOL    HW111000   3.758   3.600   0.439
 3538SOL    HW211001   3.734   3.719   0.330
 3539SOL     OW11002   1.889   3.458   0.117
 3539SOL    HW111003   1.870   3.362   0.138
 3539SOL    HW211004   1.856   3.516   0.192
 3540SOL     OW11005   3.551   2.784   0.612
 3540SOL    HW111006   3.646   2.755   0.620
 3540SOL    HW211007   3.543   2.849   0.537
 3541SOL     OW11008   3.503   2.970   0.432
 3541SOL    HW111009   3.589   2.972   0.380
 3541SOL    HW211010   3.517   3.017   0.520
 3542SOL     OW11011   1.975   2.599   1.597
 3542SOL    HW111012   2.063   2.586   1.642
 3542SOL    HW211013   1.962   2.696   1.575
 3543SOL     OW11014   2.475   3.227   0.726
 3543SOL    HW111015   2.426   3.140   0.735
 3543SOL    HW211016   2.452   3.270   0.639
 3544SOL     OW11017   3.155   3.090   1.423
 3544SOL    HW111018   3.192   3.017   1.365
 3544SOL    HW211019   3.207   3.095   1.508
 3545SOL     OW11020   2.671   1.866   0.502
 3545SOL    HW111021   2.711   1.957   0.493
 3545SOL    HW211022   2.571   1.874   0.508
 3546SOL     OW11023   2.059   2.838   1.264
 3546SOL    HW111024   2.148   2.793   1.250
 3546SOL    HW211025   1.986   2.773   1.245
 3547SOL     OW11026   3.387   2.861   0.190
 3547SOL    HW111027   3.324   2.785   0.203
 3547SOL    HW211028   3.435   2.879   0.276
 3548SOL     OW11029   3.049   3.654   1.616
 3548SOL    HW111030   3.073   3.714   1.540
 3548SOL    HW211031   3.056   3.559   1.586
 3549SOL     OW11032   2.179   2.113   1.801
 3549SOL    HW111033   2.250   2.184   1.807
 3549SOL    HW211034   2.091   2.152   1.829
 3550SOL     OW11035   3.328   3.279   0.953
 3550SOL    HW111036   3.269   3.285   1.033
 3550SOL    HW211037   3.313   3.191   0.907
 3551SOL     OW11038   3.529   3.576   0.572
 3551SOL    HW111039   3.488   3.553   0.484
 3551SOL    HW211040   3.511   3.502   0.637
 3552SOL     OW11041   3.143   2.207   0.944
 3552SOL    HW111042   3.057   2.157   0.931
 3552SOL    HW211043   3.205   2.153   1.000
 3553SOL     OW11044   3.438   3.524   0.307
 3553SOL    HW111045   3.527   3.570   0.310
 3553SOL    HW211046   3.417   3.500   0.212
 3554SOL     OW11047   3.256   2.331   1.674
 3554SOL    HW111048   3.236   2.374   1.762
 3554SOL    HW211049   3.334   2.269   1.683
 3555SOL     OW11050   2.853   2.272   1.242
 3555SOL    HW111051   2.776   2.306   1.296
 3555SOL    HW211052   2.819   2.221   1.163
 3556SOL     OW11053   1.938   2.673   0.789
 3556SOL    HW111054   2.037   2.661   0.798
 3556SOL    HW211055   1.914   2.768   0.810
 3557SOL     OW11056   1.992   3.683   1.571
 3557SOL    HW111057   1.982   3.668   1.670
 3557SOL    HW211058   1.906   3.719   1.535
 3558SOL     OW11059   2.727   2.210   0.195
 3558SOL    HW111060   2.786   2.273   0.146
 3558SOL    HW211061   2.746   2.116   0.166
 3559SOL     OW11062   3.581   2.447   1.831
 3559SOL    HW111063   3.555   2.536   1.795
 3559SOL    HW211064   3.579   2.379   1.758
 3560SOL     OW11065   3.224   3.006   0.545
 3560SOL    HW111066   3.307   2.977   0.497
 3560SOL    HW211067   3.175   3.073   0.489
 3561SOL     OW11068   2.412   2.058   0.885
 3561SOL    HW111069   2.407   2.053   0.985
 3561SOL    HW211070   2.414   2.154   0.856
 3562SOL     OW11071   2.870   3.318   0.477
 3562SOL    HW111072   2.824   3.390   0.425
 3562SOL    HW211073   2.866   3.338   0.575
 3563SOL     OW11074   2.213   3.663   0.853
 3563SOL    HW111075   2.263   3.577   0.859
 3563SOL    HW211076   2.278   3.740   0.850
 3564SOL     OW11077   3.657   2.928   0.873
 3564SOL    HW111078   3.595   2.913   0.797
 3564SOL    HW211079   3.605   2.939   0.958
 3565SOL     OW11080   3.089   3.412   1.506
 3565SOL    HW111081   3.095   3.335   1.570
 3565SOL    HW211082   3.037   3.386   1.426
 3566SOL     OW11083   2.183   2.805   0.242
 3566SOL    HW111084   2.265   2.844   0.200
 3566SOL    HW211085   2.156   2.723   0.193
 3567SOL     OW11086   3.320   2.597   0.728
 3567SOL    HW111087   3.315   2.532   0.803
 3567SOL    HW211088   3.400   2.656   0.741
 3568SOL     OW11089   2.323   3.128   1.727
 3568SOL    HW111090   2.273   3.129   1.641
 3568SOL    HW211091   2.260   3.110   1.803
 3569SOL     OW11092   2.973   3.638   0.237
 3569SOL    HW111093   2.913   3.576   0.287
 3569SOL    HW211094   3.004   3.594   0.152
 3570SOL     OW11095   2.064   2.147   1.498
 3570SOL    HW111096   1.984   2.207   1.485
 3570SOL    HW211097   2.054   2.098   1.584
 3571SOL     OW11098   3.494   3.239   0.081
 3571SOL    HW111099   3.462   3.333   0.071
 3571SOL    HW211100   3.418   3.176   0.069
 3572SOL     OW11101   2.326   3.605   0.323
 3572SOL    HW111102   2.359   3.644   0.409
 3572SOL    HW211103   2.402   3.598   0.258
 3573SOL     OW11104   3.262   1.969   0.426
 3573SOL    HW111105   3.238   1.932   0.336
 3573SOL    HW211106   3.361   1.985   0.430
 3574SOL     OW11107   2.111   3.647   1.241
 3574SOL    HW111108   2.168   3.582   1.291
 3574SOL    HW211109   2.095   3.614   1.148
 3575SOL     OW11110   2.802   3.560   0.904
 3575SOL    HW111111   2.882   3.503   0.925
 3575SOL    HW211112   2.753   3.520   0.827
 3576SOL     OW11113   2.244   2.562   0.480
 3576SOL    HW111114   2.289   2.472   0.477
 3576SOL    HW211115   2.150   2.551   0.513
 3577SOL     OW11116   3.409   2.084   1.729
 3577SOL    HW111117   3.404   2.121   1.821
 3577SOL    HW211118   3.337   2.015   1.717
 3578SOL     OW11119   2.476   1.984   0.117
 3578SOL    HW111120   2.574   1.962   0.124
 3578SOL    HW211121   2.445   1.967   0.024
 3579SOL     OW11122   2.643   2.126   1.749
 3579SOL    HW111123   2.710   2.065   1.792
 3579SOL    HW211124   2.570   2.145   1.814
 3580SOL     OW11125   2.750   3.376   1.195
 3580SOL    HW111126   2.727   3.351   1.101
 3580SOL    HW211127   2.811   3.307   1.234
 3581SOL     OW11128   3.213   2.452   1.433
 3581SOL    HW111129   3.241   2.409   1.518
 3581SOL    HW211130   3.238   2.548   1.434
 3582SOL     OW11131   2.665   3.264   0.924
 3582SOL    HW111132   2.755   3.278   0.882
 3582SOL    HW211133   2.594   3.266   0.853
 3583SOL     OW11134   2.784   2.365   0.899
 3583SOL    HW111135   2.759   2.356   0.803
 3583SOL    HW211136   2.832   2.283   0.930
 3584SOL     OW11137   2.401   1.926   0.512
 3584SOL    HW111138   2.320   1.927   0.570
 3584SOL    HW211139   2.404   2.009   0.457
 3585SOL     OW11140   3.296   3.050   0.041
 3585SOL    HW111141   3.328   2.974   0.098
 3585SOL    HW211142   3.204   3.077   0.071
 3586SOL     OW11143   2.159   1.897   0.171
 3586SOL    HW111144   2.208   1.981   0.150
 3586SOL    HW211145   2.221   1.832   0.216
 3587SOL     OW11146   2.797   2.098   0.480
 3587SOL    HW111147   2.749   2.139   0.402
 3587SOL    HW211148   2.896   2.096   0.461
 3588SOL     OW11149   2.938   2.545   1.464
 3588SOL    HW111150   2.858   2.484   1.467
 3588SOL    HW211151   3.019   2.492   1.440
 3589SOL     OW11152   3.089   3.432   0.793
 3589SOL    HW111153   3.110   3.506   0.728
 3589SOL    HW211154   3.157   3.432   0.866
 3590SOL     OW11155   2.321   3.014   0.741
 3590SOL    HW111156   2.250   2.987   0.806
 3590SOL    HW211157   2.295   2.986   0.648
 3591SOL     OW11158   3.133   3.659   0.591
 3591SOL    HW111159   3.177   3.723   0.527
 3591SOL    HW211160   3.083   3.711   0.661
 3592SOL     OW11161   2.894   2.411   0.016
 3592SOL    HW111162   2.853   2.493  -0.023
 3592SOL    HW211163   2.958   2.437   0.089
 3593SOL     OW11164   1.940   2.418   1.386
 3593SOL    HW111165   2.032   2.417   1.345
 3593SOL    HW211166   1.934   2.492   1.453
 3594SOL     OW11167   2.423   2.084   1.147
 3594SOL    HW111168   2.461   2.000   1.184
 3594SOL    HW211169   2.335   2.103   1.191
 3595SOL     OW11170   2.728   2.316   0.642
 3595SOL    HW111171   2.696   2.388   0.580
 3595SOL    HW211172   2.752   2.235   0.589
 3596SOL     OW11173   2.879   1.901   0.753
 3596SOL    HW111174   2.807   1.906   0.684
 3596SOL    HW211175   2.855   1.832   0.822
 3597SOL     OW11176   3.291   3.035   0.867
 3597SOL    HW111177   3.236   2.951   0.860
 3597SOL    HW211178   3.317   3.064   0.775
 3598SOL     OW11179   3.328   2.452   0.992
 3598SOL    HW111180   3.298   2.357   0.999
 3598SOL    HW211181   3.401   2.468   1.058
 3599SOL     OW11182   3.719   2.695   0.377
 3599SOL    HW111183   3.761   2.631   0.441
 3599SOL    HW211184   3.681   2.644   0.299
 3600SOL     OW11185   2.350   3.247   0.174
 3600SOL    HW111186   2.263   3.232   0.221
 3600SOL    HW211187   2.333   3.273   0.079
 3601SOL     OW11188   3.526   3.142   0.657
 3601SOL    HW111189   3.625   3.150   0.671
 3601SOL    HW211190   3.481   3.226   0.688
 3602SOL     OW11191   3.252   2.437   0.078
 3602SOL    HW111192   3.198   2.416   0.159
 3602SOL    HW211193   3.343   2.396   0.087
 3603SOL     OW11194   2.389   2.118   0.328
 3603SOL    HW111195   2.416   2.059   0.253
 3603SOL    HW211196   2.389   2.213   0.297
 3604SOL     OW11197   3.616   3.085   1.588
 3604SOL    HW111198   3.707   3.046   1.575
 3604SOL    HW211199   3.624   3.181   1.612
 3605SOL     OW11200   2.926   3.209   1.340
 3605SOL    HW111201   2.846   3.186   1.395
 3605SOL    HW211202   3.009   3.183   1.389
 3606SOL     OW11203   3.454   3.491   1.625
 3606SOL    HW111204   3.481   3.525   1.535
 3606SOL    HW211205   3.533   3.453   1.671
 3607SOL     OW11206   2.973   3.057   1.100
 3607SOL    HW111207   2.933   3.101   1.181
 3607SOL    HW211208   2.932   3.094   1.017
 3608SOL     OW11209   3.500   2.961   1.079
 3608SOL    HW111210   3.505   3.042   1.138
 3608SOL    HW211211   3.414   2.963   1.028
 3609SOL     OW11212   2.777   1.951   1.402
 3609SOL    HW111213   2.802   1.931   1.307
 3609SOL    HW211214   2.849   2.007   1.444
 3610SOL     OW11215   2.842   2.978   1.719
 3610SOL    HW111216   2.743   2.984   1.729
 3610SOL    HW211217   2.865   2.898   1.663
 3611SOL     OW11218   2.567   2.912   0.368
 3611SOL    HW111219   2.553   2.919   0.467
 3611SOL    HW211220   2.651   2.861   0.350
 3612SOL     OW11221   2.272   2.675   1.251
 3612SOL    HW111222   2.358   2.687   1.301
 3612SOL    HW211223   2.230   2.588   1.278
 3613SOL     OW11224   3.136   2.248   1.262
 3613SOL    HW111225   3.157   2.322   1.326
 3613SOL    HW211226   3.047   2.265   1.219
 3614SOL     OW11227   1.926   3.426   1.331
 3614SOL    HW111228   1.880   3.508   1.297
 3614SOL    HW211229   2.024   3.445   1.340
 3615SOL     OW11230   2.229   2.962   0.501
 3615SOL    HW111231   2.222   3.045   0.445
 3615SOL    HW211232   2.233   2.882   0.441
 3616SOL     OW11233   2.428   2.399   0.865
 3616SOL    HW111234   2.440   2.465   0.791
 3616SOL    HW211235   2.474   2.433   0.948
 3617SOL     OW11236   3.114   3.210   0.388
 3617SOL    HW111237   3.164   3.287   0.428
 3617SOL    HW211238   3.019   3.212   0.420
 3618SOL     OW11239   3.134   3.307   1.142
 3618SOL    HW111240   3.181   3.320   1.229
 3618SOL    HW211241   3.068   3.233   1.151
 3619SOL     OW11242   3.444   2.501   0.472
 3619SOL    HW111243   3.413   2.562   0.545
 3619SOL    HW211244   3.494   2.553   0.403
 3620SOL     OW11245   2.216   3.372   1.329
 3620SOL    HW111246   2.195   3.328   1.242
 3620SOL    HW211247   2.313   3.398   1.332
 3621SOL     OW11248   2.264   2.613   1.598
 3621SOL    HW111249   2.332   2.668   1.551
 3621SOL    HW211250   2.304   2.525   1.625
 3622SOL     OW11251   3.449   2.641   1.670
 3622SOL    HW111252   3.357   2.679   1.665
 3622SOL    HW211253   3.509   2.688   1.605
 3623SOL     OW11254   2.875   1.967   1.770
 3623SOL    HW111255   2.881   2.052   1.718
 3623SOL    HW211256   2.907   1.891   1.713
 3624SOL     OW11257   2.366   1.912   1.740
 3624SOL    HW111258   2.324   1.855   1.670
 3624SOL    HW211259   2.300   1.981   1.772
 3625SOL     OW11260   3.222   2.724   1.045
 3625SOL    HW111261   3.147   2.724   0.979
 3625SOL    HW211262   3.259   2.632   1.054
 3626SOL     OW11263   3.071   2.387   0.275
 3626SOL    HW111264   3.084   2.303   0.329
 3626SOL    HW211265   3.042   2.461   0.335
 3627SOL     OW11266   2.169   2.075   1.231
 3627SOL    HW111267   2.146   2.112   1.321
 3627SOL    HW211268   2.139   1.980   1.225
 3628SOL     OW11269   1.899   3.172   1.282
 3628SOL    HW111270   1.952   3.123   1.350
 3628SOL    HW211271   1.921   3.270   1.287
 3629SOL     OW11272   3.590   2.797   1.854
 3629SOL    HW111273   3.544   2.790   1.765
 3629SOL    HW211274   3.528   2.841   1.920
 3630SOL     OW11275   2.169   1.925   0.618
 3630SOL    HW111276   2.158   2.019   0.651
 3630SOL    HW211277   2.164   1.862   0.695
 3631SOL     OW11278   3.484   2.229   0.374
 3631SOL    HW111279   3.486   2.153   0.438
 3631SOL    HW211280   3.436   2.306   0.414
 3632SOL     OW11281   2.842   3.435   1.700
 3632SOL    HW111282   2.822   3.479   1.612
 3632SOL    HW211283   2.881   3.344   1.684
 3633SOL     OW11284   3.721   3.380   1.605
 3633SOL    HW111285   3.735   3.407   1.510
 3633SOL    HW211286   3.804   3.402   1.658
 3634SOL     OW11287   2.212   2.760   1.804
 3634SOL    HW111288   2.288   2.804   1.852
 3634SOL    HW211289   2.247   2.713   1.722
 3635SOL     OW11290   3.402   2.136   0.125
 3635SOL    HW111291   3.341   2.061   0.148
 3635SOL    HW211292   3.424   2.188   0.208
 3636SOL     OW11293   3.165   2.700   0.042
 3636SOL    HW111294   3.199   2.607   0.057
 3636SOL    HW211295   3.183   2.727  -0.053
 3637SOL     OW11296   2.930   3.195   0.849
 3637SOL    HW111297   2.937   3.111   0.794
 3637SOL    HW211298   2.992   3.264   0.813
 3638SOL     OW11299   2.181   2.672   0.949
 3638SOL    HW111300   2.274   2.708   0.954
 3638SOL    HW211301   2.175   2.587   1.001
 3639SOL     OW11302   2.201   2.371   1.006
 3639SOL    HW111303   2.149   2.288   0.989
 3639SOL    HW211304   2.278   2.376   0.942
 3640SOL     OW11305   3.000   2.242   1.678
 3640SOL    HW111306   2.955   2.305   1.742
 3640SOL    HW211307   3.093   2.273   1.661
 3641SOL     OW11308   3.022   2.069   1.477
 3641SOL    HW111309   3.022   2.133   1.554
 3641SOL    HW211310   3.050   2.117   1.394
 3642SOL     OW11311   1.870   3.188   0.200
 3642SOL    HW111312   1.777   3.209   0.169
 3642SOL    HW211313   1.880   3.089   0.213
 3643SOL     OW11314   1.950   3.663   0.927
 3643SOL    HW111315   1.908   3.577   0.900
 3643SOL    HW211316   2.044   3.666   0.893
 3644SOL     OW11317   2.366   3.430   0.910
 3644SOL    HW111318   2.432   3.504   0.919
 3644SOL    HW211319   2.410   3.351   0.868
 3645SOL     OW11320   1.902   2.406   1.114
 3645SOL    HW111321   1.987   2.373   1.073
 3645SOL    HW211322   1.915   2.421   1.212
 3646SOL     OW11323   2.051   2.382   1.722
 3646SOL    HW111324   2.110   2.342   1.652
 3646SOL    HW211325   1.993   2.453   1.681
 3647SOL     OW11326   3.231   2.812   1.660
 3647SOL    HW111327   3.270   2.901   1.680
 3647SOL    HW211328   3.241   2.792   1.563
 3648SOL     OW11329   3.519   2.466   1.206
 3648SOL    HW111330   3.481   2.397   1.268
 3648SOL    HW211331   3.601   2.430   1.162
 3649SOL     OW11332   2.114   3.426   1.744
 3649SOL    HW111333   2.084   3.483   1.820
 3649SOL    HW211334   2.107   3.329   1.770
 3650SOL     OW11335   2.533   2.326   1.269
 3650SOL    HW111336   2.499   2.237   1.239
 3650SOL    HW211337   2.559   2.380   1.189
 3651SOL     OW11338   2.792   3.540   1.465
 3651SOL    HW111339   2.768   3.522   1.370
 3651SOL    HW211340   2.822   3.634   1.475
 3652SOL     OW11341   2.335   2.362   0.191
 3652SOL    HW111342   2.396   2.442   0.195
 3652SOL    HW211343   2.240   2.393   0.198
 3653SOL     OW11344   2.021   2.999   1.466
 3653SOL    HW111345   2.043   2.938   1.542
 3653SOL    HW211346   2.031   2.950   1.380
 3654SOL     OW11347   3.209   2.921   1.234
 3654SOL    HW111348   3.233   2.858   1.160
 3654SOL    HW211349   3.119   2.961   1.216
 3655SOL     OW11350   3.164   2.717   0.309
 3655SOL    HW111351   3.078   2.686   0.351
 3655SOL    HW211352   3.160   2.703   0.210
 3656SOL     OW11353   3.621   3.609   1.154
 3656SOL    HW111354   3.682   3.639   1.081
 3656SOL    HW211355   3.583   3.520   1.132
 3657SOL     OW11356   3.114   3.593   1.128
 3657SOL    HW111357   3.198   3.598   1.074
 3657SOL    HW211358   3.091   3.497   1.146
 3658SOL     OW11359   1.945   3.120   1.022
 3658SOL    HW111360   1.940   3.119   1.122
 3658SOL    HW211361   1.862   3.079   0.984
 3659SOL     OW11362   2.550   3.524   1.716
 3659SOL    HW111363   2.494   3.605   1.725
 3659SOL    HW211364   2.602   3.528   1.630
 3660SOL     OW11365   2.765   1.948   0.133
 3660SOL    HW111366   2.816   1.949   0.047
 3660SOL    HW211367   2.821   1.906   0.204
 3661SOL     OW11368   3.588   1.997   0.523
 3661SOL    HW111369   3.661   1.980   0.456
 3661SOL    HW211370   3.557   1.910   0.561
 3662SOL     OW11371   3.250   3.435   0.477
 3662SOL    HW111372   3.317   3.447   0.403
 3662SOL    HW211373   3.210   3.524   0.500
 3663SOL     OW11374   1.992   3.656   1.851
 3663SOL    HW111375   1.951   3.582   1.904
 3663SOL    HW211376   2.056   3.707   1.909
 3664SOL     OW11377   3.142   2.789   0.672
 3664SOL    HW111378   3.202   2.708   0.674
 3664SOL    HW211379   3.182   2.858   0.612
 3665SOL     OW11380   2.692   3.135   1.422
 3665SOL    HW111381   2.687   3.168   1.517
 3665SOL    HW211382   2.606   3.154   1.376
 3666SOL     OW11383   2.534   3.478   0.154
 3666SOL    HW111384   2.543   3.488   0.055
 3666SOL    HW211385   2.494   3.389   0.175
 3667SOL     OW11386   3.512   3.582   1.394
 3667SOL    HW111387   3.565   3.592   1.310
 3667SOL    HW211388   3.485   3.672   1.428
 3668SOL     OW11389   3.703   2.037   0.963
 3668SOL    HW111390   3.742   1.952   0.927
 3668SOL    HW211391   3.605   2.039   0.944
 3669SOL     OW11392   2.125   2.188   0.720
 3669SOL    HW111393   2.046   2.239   0.686
 3669SOL    HW211394   2.116   2.173   0.818
 3670SOL     OW11395   3.056   3.474   0.031
 3670SOL    HW111396   3.062   3.381   0.068
 3670SOL    HW211397   2.997   3.474  -0.049
 3671SOL     OW11398   3.366   3.469   0.044
 3671SOL    HW111399   3.274   3.506   0.051
 3671SOL    HW211400   3.404   3.489  -0.046
 3672SOL     OW11401   2.234   3.150   1.490
 3672SOL    HW111402   2.221   3.243   1.456
 3672SOL    HW211403   2.150   3.098   1.477
 3673SOL     OW11404   3.476   3.154   1.289
 3673SOL    HW111405   3.536   3.157   1.369
 3673SOL    HW211406   3.401   3.218   1.302
 3674SOL     OW11407   2.901   2.960   0.696
 3674SOL    HW111408   2.831   2.913   0.750
 3674SOL    HW211409   2.960   2.892   0.653
 3675SOL     OW11410   2.876   2.098   0.971
 3675SOL    HW111411   2.868   2.062   0.878
 3675SOL    HW211412   2.874   2.022   1.036
 3676SOL     OW11413   2.452   3.349   0.491
 3676SOL    HW111414   2.494   3.291   0.421
 3676SOL    HW211415   2.408   3.428   0.447
 3677SOL     OW11416   3.571   2.247   1.381
 3677SOL    HW111417   3.644   2.316   1.385
 3677SOL    HW211418   3.599   2.172   1.322
 3678SOL     OW11419   2.117   3.210   0.290
 3678SOL    HW111420   2.021   3.211   0.263
 3678SOL    HW211421   2.129   3.263   0.374
 3679SOL     OW11422   1.967   2.875   1.726
 3679SOL    HW111423   1.890   2.842   1.780
 3679SOL    HW211424   2.052   2.845   1.768
 3680SOL     OW11425   2.534   2.065   1.489
 3680SOL    HW111426   2.624   2.049   1.449
 3680SOL    HW211427   2.542   2.070   1.588
 3681SOL     OW11428   1.937   2.207   0.033
 3681SOL    HW111429   1.845   2.179   0.004
 3681SOL    HW211430   1.968   2.284  -0.023
 3682SOL     OW11431   3.302   2.718   1.398
 3682SOL    HW111432   3.245   2.770   1.335
 3682SOL    HW211433   3.398   2.730   1.374
 3683SOL     OW11434   1.934   2.028   0.318
 3683SOL    HW111435   1.917   2.111   0.264
 3683SOL    HW211436   2.024   1.991   0.296
 3684SOL     OW11437   3.045   3.197   0.119
 3684SOL    HW111438   2.946   3.186   0.121
 3684SOL    HW211439   3.079   3.212   0.212
 3685SOL     OW11440   3.355   3.629   0.959
 3685SOL    HW111441   3.388   3.693   0.890
 3685SOL    HW211442   3.421   3.623   1.034
 3686SOL     OW11443   3.312   3.082   1.633
 3686SOL    HW111444   3.303   3.072   1.732
 3686SOL    HW211445   3.408   3.075   1.607
 3687SOL     OW11446   2.252   3.603   1.560
 3687SOL    HW111447   2.161   3.644   1.558
 3687SOL    HW211448   2.245   3.509   1.592
 3688SOL     OW11449   3.536   2.745   1.254
 3688SOL    HW111450   3.509   2.656   1.217
 3688SOL    HW211451   3.537   2.813   1.181
 3689SOL     OW11452   3.087   2.187   0.449
 3689SOL    HW111453   3.152   2.113   0.438
 3689SOL    HW211454   3.107   2.237   0.533
 3690SOL     OW11455   3.639   2.204   1.642
 3690SOL    HW111456   3.622   2.235   1.548
 3690SOL    HW211457   3.555   2.167   1.680
 3691SOL     OW11458   3.592   2.796   1.517
 3691SOL    HW111459   3.630   2.887   1.532
 3691SOL    HW211460   3.584   2.779   1.418
 3692SOL     OW11461   2.721   3.236   0.016
 3692SOL    HW111462   2.675   3.251   0.104
 3692SOL    HW211463   2.765   3.321  -0.014
 3693SOL     OW11464   2.523   3.652   0.953
 3693SOL    HW111465   2.477   3.740   0.940
 3693SOL    HW211466   2.622   3.664   0.946
 3694SOL     OW11467   2.945   2.846   0.087
 3694SOL    HW111468   2.922   2.899   0.005
 3694SOL    HW211469   3.026   2.790   0.068
 3695SOL     OW11470   3.723   3.431   0.851
 3695SOL    HW111471   3.652   3.419   0.781
 3695SOL    HW211472   3.724   3.352   0.911
 3696SOL     OW11473   2.083   3.176   1.844
 3696SOL    HW111474   2.018   3.103   1.823
 3696SOL    HW211475   2.087   3.190   1.942
 3697SOL     OW11476   1.941   3.102   0.653
 3697SOL    HW111477   1.940   3.055   0.741
 3697SOL    HW211478   2.023   3.074   0.602
 3698SOL     OW11479   2.534   3.253   1.624
 3698SOL    HW111480   2.456   3.203   1.662
 3698SOL    HW211481   2.531   3.348   1.655
 3699SOL     OW11482   3.686   2.054   1.227
 3699SOL    HW111483   3.682   1.964   1.271
 3699SOL    HW211484   3.689   2.043   1.128
 3700SOL     OW11485   2.290   2.286   0.520
 3700SOL    HW111486   2.320   2.214   0.458
 3700SOL    HW211487   2.251   2.246   0.603
 3701SOL     OW11488   3.567   3.349   1.104
 3701SOL    HW111489   3.474   3.324   1.077
 3701SOL    HW211490   3.593   3.299   1.186
 3702SOL     OW11491   2.179   2.409   1.280
 3702SOL    HW111492   2.217   2.350   1.352
 3702SOL    HW211493   2.219   2.383   1.192
 3703SOL     OW11494   2.674   3.448   0.687
 3703SOL    HW111495   2.706   3.458   0.593
 3703SOL    HW211496   2.595   3.386   0.689
 3704SOL     OW11497   3.286   2.076   1.112
 3704SOL    HW111498   3.338   2.011   1.167
 3704SOL    HW211499   3.237   2.139   1.173
 3705SOL     OW11500   2.863   1.896   1.154
 3705SOL    HW111501   2.800   1.824   1.123
 3705SOL    HW211502   2.956   1.860   1.154
 3706SOL     OW11503   2.632   3.192   0.301
 3706SOL    HW111504   2.586   3.105   0.318
 3706SOL    HW211505   2.723   3.189   0.342
 3707SOL     OW11506   2.480   3.429   1.284
 3707SOL    HW111507   2.475   3.511   1.341
 3707SOL    HW211508   2.569   3.426   1.239
 3708SOL     OW11509   3.214   1.914   0.168
 3708SOL    HW111510   3.249   1.873   0.084
 3708SOL    HW211511   3.124   1.876   0.188
 3709SOL     OW11512   3.162   2.315   0.691
 3709SOL    HW111513   3.103   2.395   0.695
 3709SOL    HW211514   3.177   2.280   0.784
 3710SOL     OW11515   3.455   2.083   0.882
 3710SOL    HW111516   3.371   2.082   0.936
 3710SOL    HW211517   3.457   2.166   0.826
 3711SOL     OW11518   1.901   2.939   0.300
 3711SOL    HW111519   2.000   2.928   0.291
 3711SOL    HW211520   1.861   2.853   0.332
 3712SOL     OW11521   2.737   3.508   0.337
 3712SOL    HW111522   2.660   3.473   0.283
 3712SOL    HW211523   2.705   3.579   0.399
 3713SOL     OW11524   2.092   2.490   1.975
 3713SOL    HW111525   1.999   2.488   2.012
 3713SOL    HW211526   2.093   2.451   1.883
 3714SOL     OW11527   2.087   2.137   2.858
 3714SOL    HW111528   2.122   2.120   2.950
 3714SOL    HW211529   1.999   2.092   2.846
 3715SOL     OW11530   1.881   2.230   2.509
 3715SOL    HW111531   1.799   2.273   2.548
 3715SOL    HW211532   1.853   2.157   2.446
 3716SOL     OW11533   2.431   3.137   3.027
 3716SOL    HW111534   2.338   3.130   2.990
 3716SOL    HW211535   2.442   3.226   3.071
 3717SOL     OW11536   3.417   3.373   2.565
 3717SOL    HW111537   3.360   3.357   2.646
 3717SOL    HW211538   3.358   3.383   2.485
 3718SOL     OW11539   2.997   2.565   2.579
 3718SOL    HW111540   3.054   2.643   2.554
 3718SOL    HW211541   2.937   2.591   2.655
 3719SOL     OW11542   3.617   2.469   2.093
 3719SOL    HW111543   3.605   2.456   1.994
 3719SOL    HW211544   3.587   2.388   2.142
 3720SOL     OW11545   2.630   3.006   2.885
 3720SOL    HW111546   2.552   3.023   2.945
 3720SOL    HW211547   2.664   3.093   2.849
 3721SOL     OW11548   2.197   3.297   2.923
 3721SOL    HW111549   2.119   3.266   2.870
 3721SOL    HW211550   2.255   3.355   2.866
 3722SOL     OW11551   3.322   3.367   3.201
 3722SOL    HW111552   3.346   3.461   3.227
 3722SOL    HW211553   3.306   3.313   3.283
 3723SOL     OW11554   2.300   2.254   3.361
 3723SOL    HW111555   2.382   2.198   3.370
 3723SOL    HW211556   2.219   2.196   3.365
 3724SOL     OW11557   3.465   2.309   2.599
 3724SOL    HW111558   3.391   2.355   2.549
 3724SOL    HW211559   3.516   2.377   2.652
 3725SOL     OW11560   2.093   3.575   2.345
 3725SOL    HW111561   2.127   3.652   2.399
 3725SOL    HW211562   2.137   3.575   2.255
 3726SOL     OW11563   2.092   3.296   2.400
 3726SOL    HW111564   2.066   3.392   2.400
 3726SOL    HW211565   2.021   3.242   2.445
 3727SOL     OW11566   2.102   2.953   2.748
 3727SOL    HW111567   2.116   2.869   2.800
 3727SOL    HW211568   2.047   3.017   2.803
 3728SOL     OW11569   2.482   3.648   3.301
 3728SOL    HW111570   2.390   3.631   3.336
 3728SOL    HW211571   2.510   3.740   3.327
 3729SOL     OW11572   2.468   2.826   1.985
 3729SOL    HW111573   2.475   2.910   1.931
 3729SOL    HW211574   2.514   2.839   2.073
 3730SOL     OW11575   3.456   1.976   3.342
 3730SOL    HW111576   3.438   2.043   3.270
 3730SOL    HW211577   3.453   2.022   3.431
 3731SOL     OW11578   1.984   2.505   2.425
 3731SOL    HW111579   1.939   2.417   2.442
 3731SOL    HW211580   1.983   2.559   2.509
 3732SOL     OW11581   3.704   3.629   2.221
 3732SOL    HW111582   3.758   3.600   2.301
 3732SOL    HW211583   3.734   3.719   2.192
 3733SOL     OW11584   1.889   3.458   1.979
 3733SOL    HW111585   1.870   3.362   2.000
 3733SOL    HW211586   1.856   3.516   2.054
 3734SOL     OW11587   3.551   2.784   2.474
 3734SOL    HW111588   3.646   2.755   2.482
 3734SOL    HW211589   3.543   2.849   2.399
 3735SOL     OW11590   3.503   2.970   2.294
 3735SOL    HW111591   3.589   2.972   2.242
 3735SOL    HW211592   3.517   3.017   2.382
 3736SOL     OW11593   2.475   3.227   2.588
 3736SOL    HW111594   2.426   3.140   2.597
 3736SOL    HW211595   2.452   3.270   2.501
 3737SOL     OW11596   3.155   3.090   3.285
 3737SOL    HW111597   3.192   3.017   3.227
 3737SOL    HW211598   3.207   3.095   3.370
 3738SOL     OW11599   2.671   1.866   2.364
 3738SOL    HW111600   2.711   1.957   2.355
 3738SOL    HW211601   2.571   1.874   2.370
 3739SOL     OW11602   2.059   2.838   3.126
 3739SOL    HW111603   2.148   2.793   3.112
 3739SOL    HW211604   1.986   2.773   3.107
 3740SOL     OW11605   3.387   2.861   2.052
 3740SOL    HW111606   3.324   2.785   2.065
 3740SOL    HW211607   3.435   2.879   2.138
 3741SOL     OW11608   3.049   3.654   3.478
 3741SOL    HW111609   3.073   3.714   3.402
 3741SOL    HW211610   3.056   3.559   3.448
 3742SOL     OW11611   3.328   3.279   2.815
 3742SOL    HW111612   3.269   3.285   2.895
 3742SOL    HW211613   3.313   3.191   2.769
 3743SOL     OW11614   3.529   3.576   2.434
 3743SOL    HW111615   3.488   3.553   2.346
 3743SOL    HW211616   3.511   3.502   2.499
 3744SOL     OW11617   3.143   2.207   2.806
 3744SOL    HW111618   3.057   2.157   2.793
 3744SOL    HW211619   3.205   2.153   2.862
 3745SOL     OW11620   3.438   3.524   2.169
 3745SOL    HW111621   3.527   3.570   2.172
 3745SOL    HW211622   3.417   3.500   2.074
 3746SOL     OW11623   3.256   2.331   3.536
 3746SOL    HW111624   3.236   2.374   3.624
 3746SOL    HW211625   3.334   2.269   3.545
 3747SOL     OW11626   2.853   2.272   3.104
 3747SOL    HW111627   2.776   2.306   3.158
 3747SOL    HW211628   2.819   2.221   3.025
 3748SOL     OW11629   1.938   2.673   2.651
 3748SOL    HW111630   2.037   2.661   2.660
 3748SOL    HW211631   1.914   2.768   2.672
 3749SOL     OW11632   1.992   3.683   3.433
 3749SOL    HW111633   1.982   3.668   3.532
 3749SOL    HW211634   1.906   3.719   3.397
 3750SOL     OW11635   2.727   2.210   2.057
 3750SOL    HW111636   2.786   2.273   2.008
 3750SOL    HW211637   2.746   2.116   2.028
 3751SOL     OW11638   3.581   2.447   3.693
 3751SOL    HW111639   3.555   2.536   3.657
 3751SOL    HW211640   3.579   2.379   3.620
 3752SOL     OW11641   3.224   3.006   2.407
 3752SOL    HW111642   3.307   2.977   2.359
 3752SOL    HW211643   3.175   3.073   2.351
 3753SOL     OW11644   2.412   2.058   2.747
 3753SOL    HW111645   2.407   2.053   2.847
 3753SOL    HW211646   2.414   2.154   2.718
 3754SOL     OW11647   2.870   3.318   2.339
 3754SOL    HW111648   2.824   3.390   2.287
 3754SOL    HW211649   2.866   3.338   2.437
 3755SOL     OW11650   2.213   3.663   2.715
 3755SOL    HW111651   2.263   3.577   2.721
 3755SOL    HW211652   2.278   3.740   2.712
 3756SOL     OW11653   3.657   2.928   2.735
 3756SOL    HW111654   3.595   2.913   2.659
 3756SOL    HW211655   3.605   2.939   2.820
 3757SOL     OW11656   3.089   3.412   3.368
 3757SOL    HW111657   3.095   3.335   3.432
 3757SOL    HW211658   3.037   3.386   3.288
 3758SOL     OW11659   2.183   2.805   2.104
 3758SOL    HW111660   2.265   2.844   2.062
 3758SOL    HW211661   2.156   2.723   2.055
 3759SOL     OW11662   3.320   2.597   2.590
 3759SOL    HW111663   3.315   2.532   2.665
 3759SOL    HW211664   3.400   2.656   2.603
 3760SOL     OW11665   2.973   3.638   2.099
 3760SOL    HW111666   2.913   3.576   2.149
 3760SOL    HW211667   3.004   3.594   2.014
 3761SOL     OW11668   2.064   2.147   3.360
 3761SOL    HW111669   1.984   2.207   3.347
 3761SOL    HW211670   2.054   2.098   3.446
 3762SOL     OW11671   3.494   3.239   1.943
 3762SOL    HW111672   3.462   3.333   1.933
 3762SOL    HW211673   3.418   3.176   1.931
 3763SOL     OW11674   2.326   3.605   2.185
 3763SOL    HW111675   2.359   3.644   2.271
 3763SOL    HW211676   2.402   3.598   2.120
 3764SOL     OW11677   3.262   1.969   2.288
 3764SOL    HW111678   3.238   1.932   2.198
 3764SOL    HW211679   3.361   1.985   2.292
 3765SOL     OW11680   2.111   3.647   3.103
 3765SOL    HW111681   2.168   3.582   3.153
 3765SOL    HW211682   2.095   3.614   3.010
 3766SOL     OW11683   2.802   3.560   2.766
 3766SOL    HW111684   2.882   3.503   2.787
 3766SOL    HW211685   2.753   3.520   2.689
 3767SOL     OW11686   2.244   2.562   2.342
 3767SOL    HW111687   2.289   2.472   2.339
 3767SOL    HW211688   2.150   2.551   2.375
 3768SOL     OW11689   3.409   2.084   3.591
 3768SOL    HW111690   3.404   2.121   3.683
 3768SOL    HW211691   3.337   2.015   3.579
 3769SOL     OW11692   2.476   1.984   1.979
 3769SOL    HW111693   2.574   1.962   1.986
 3769SOL    HW211694   2.445   1.967   1.886
 3770SOL     OW11695   2.750   3.376   3.057
 3770SOL    HW111696   2.727   3.351   2.963
 3770SOL    HW211697   2.811   3.307   3.096
 3771SOL     OW11698   3.213   2.452   3.295
 3771SOL    HW111699   3.241   2.409   3.380
 3771SOL    HW211700   3.238   2.548   3.296
 3772SOL     OW11701   2.665   3.264   2.786
 3772SOL    HW111702   2.755   3.278   2.744
 3772SOL    HW211703   2.594   3.266   2.715
 3773SOL     OW11704   2.784   2.365   2.761
 3773SOL    HW111705   2.759   2.356   2.665
 3773SOL    HW211706   2.832   2.283   2.792
 3774SOL     OW11707   2.401   1.926   2.374
 3774SOL    HW111708   2.320   1.927   2.432
 3774SOL    HW211709   2.404   2.009   2.319
 3775SOL     OW11710   3.296   3.050   1.903
 3775SOL    HW111711   3.328   2.974   1.960
 3775SOL    HW211712   3.204   3.077   1.933
 3776SOL     OW11713   2.159   1.897   2.033
 3776SOL    HW111714   2.208   1.981   2.012
 3776SOL    HW211715   2.221   1.832   2.078
 3777SOL     OW11716   2.797   2.098   2.342
 3777SOL    HW111717   2.749   2.139   2.264
 3777SOL    HW211718   2.896   2.096   2.323
 3778SOL     OW11719   2.938   2.545   3.326
 3778SOL    HW111720   2.858   2.484   3.329
 3778SOL    HW211721   3.019   2.492   3.302
 3779SOL     OW11722   3.089   3.432   2.655
 3779SOL    HW111723   3.110   3.506   2.590
 3779SOL    HW211724   3.157   3.432   2.728
 3780SOL     OW11725   2.321   3.014   2.603
 3780SOL    HW111726   2.250   2.987   2.668
 3780SOL    HW211727   2.295   2.986   2.510
 3781SOL     OW11728   3.133   3.659   2.453
 3781SOL    HW111729   3.177   3.723   2.389
 3781SOL    HW211730   3.083   3.711   2.523
 3782SOL     OW11731   2.894   2.411   1.878
 3782SOL    HW111732   2.853   2.493   1.839
 3782SOL    HW211733   2.958   2.437   1.951
 3783SOL     OW11734   1.940   2.418   3.248
 3783SOL    HW111735   2.032   2.417   3.207
 3783SOL    HW211736   1.934   2.492   3.315
 3784SOL     OW11737   2.423   2.084   3.009
 3784SOL    HW111738   2.461   2.000   3.046
 3784SOL    HW211739   2.335   2.103   3.053
 3785SOL     OW11740   2.728   2.316   2.504
 3785SOL    HW111741   2.696   2.388   2.442
 3785SOL    HW211742   2.752   2.235   2.451
 3786SOL     OW11743   2.879   1.901   2.615
 3786SOL    HW111744   2.807   1.906   2.546
 3786SOL    HW211745   2.855   1.832   2.684
 3787SOL     OW11746   3.291   3.035   2.729
 3787SOL    HW111747   3.236   2.951   2.722
 3787SOL    HW211748   3.317   3.064   2.637
 3788SOL     OW11749   3.328   2.452   2.854
 3788SOL    HW111750   3.298   2.357   2.861
 3788SOL    HW211751   3.401   2.468   2.920
 3789SOL     OW11752   3.719   2.695   2.239
 3789SOL    HW111753   3.761   2.631   2.303
 3789SOL    HW211754   3.681   2.644   2.161
 3790SOL     OW11755   2.350   3.247   2.036
 3790SOL    HW111756   2.263   3.232   2.083
 3790SOL    HW211757   2.333   3.273   1.941
 3791SOL     OW11758   3.526   3.142   2.519
 3791SOL    HW111759   3.625   3.150   2.533
 3791SOL    HW211760   3.481   3.226   2.550
 3792SOL     OW11761   3.252   2.437   1.940
 3792SOL    HW111762   3.198   2.416   2.021
 3792SOL    HW211763   3.343   2.396   1.949
 3793SOL     OW11764   2.389   2.118   2.190
 3793SOL    HW111765   2.416   2.059   2.115
 3793SOL    HW211766   2.389   2.213   2.159
 3794SOL     OW11767   3.616   3.085   3.450
 3794SOL    HW111768   3.707   3.046   3.437
 3794SOL    HW211769   3.624   3.181   3.474
 3795SOL     OW11770   2.926   3.209   3.202
 3795SOL    HW111771   2.846   3.186   3.257
 3795SOL    HW211772   3.009   3.183   3.251
 3796SOL     OW11773   3.454   3.491   3.487
 3796SOL    HW111774   3.481   3.525   3.397
 3796SOL    HW211775   3.533   3.453   3.533
 3797SOL     OW11776   2.973   3.057   2.962
 3797SOL    HW111777   2.933   3.101   3.043
 3797SOL    HW211778   2.932   3.094   2.879
 3798SOL     OW11779   3.500   2.961   2.941
 3798SOL    HW111780   3.505   3.042   3.000
 3798SOL    HW211781   3.414   2.963   2.890
 3799SOL     OW11782   2.777   1.951   3.264
 3799SOL    HW111783   2.802   1.931   3.169
 3799SOL    HW211784   2.849   2.007   3.306
 3800SOL     OW11785   2.842   2.978   3.581
 3800SOL    HW111786   2.743   2.984   3.591
 3800SOL    HW211787   2.865   2.898   3.525
 3801SOL     OW11788   2.272   2.675   3.113
 3801SOL    HW111789   2.358   2.687   3.163
 3801SOL    HW211790   2.230   2.588   3.140
 3802SOL     OW11791   3.136   2.248   3.124
 3802SOL    HW111792   3.157   2.322   3.188
 3802SOL    HW211793   3.047   2.265   3.081
 3803SOL     OW11794   1.926   3.426   3.193
 3803SOL    HW111795   1.880   3.508   3.159
 3803SOL    HW211796   2.024   3.445   3.202
 3804SOL     OW11797   2.229   2.962   2.363
 3804SOL    HW111798   2.222   3.045   2.307
 3804SOL    HW211799   2.233   2.882   2.303
 3805SOL     OW11800   2.428   2.399   2.727
 3805SOL    HW111801   2.440   2.465   2.653
 3805SOL    HW211802   2.474   2.433   2.810
 3806SOL     OW11803   3.114   3.210   2.250
 3806SOL    HW111804   3.164   3.287   2.290
 3806SOL    HW211805   3.019   3.212   2.282
 3807SOL     OW11806   3.134   3.307   3.004
 3807SOL    HW111807   3.181   3.320   3.091
 3807SOL    HW211808   3.068   3.233   3.013
 3808SOL     OW11809   3.444   2.501   2.334
 3808SOL    HW111810   3.413   2.562   2.407
 3808SOL    HW211811   3.494   2.553   2.265
 3809SOL     OW11812   2.216   3.372   3.191
 3809SOL    HW111813   2.195   3.328   3.104
 3809SOL    HW211814   2.313   3.398   3.194
 3810SOL     OW11815   2.264   2.613   3.460
 3810SOL    HW111816   2.332   2.668   3.413
 3810SOL    HW211817   2.304   2.525   3.487
 3811SOL     OW11818   3.449   2.641   3.532
 3811SOL    HW111819   3.357   2.679   3.527
 3811SOL    HW211820   3.509   2.688   3.467
 3812SOL     OW11821   3.222   2.724   2.907
 3812SOL    HW111822   3.147   2.724   2.841
 3812SOL    HW211823   3.259   2.632   2.916
 3813SOL     OW11824   3.071   2.387   2.137
 3813SOL    HW111825   3.084   2.303   2.191
 3813SOL    HW211826   3.042   2.461   2.197
 3814SOL     OW11827   2.169   2.075   3.093
 3814SOL    HW111828   2.146   2.112   3.183
 3814SOL    HW211829   2.139   1.980   3.087
 3815SOL     OW11830   1.899   3.172   3.144
 3815SOL    HW111831   1.952   3.123   3.212
 3815SOL    HW211832   1.921   3.270   3.149
 3816SOL     OW11833   3.590   2.797   3.716
 3816SOL    HW111834   3.544   2.790   3.627
 3816SOL    HW211835   3.528   2.841   3.782
 3817SOL     OW11836   2.169   1.925   2.480
 3817SOL    HW111837   2.158   2.019   2.513
 3817SOL    HW211838   2.164   1.862   2.557
 3818SOL     OW11839   3.484   2.229   2.236
 3818SOL    HW111840   3.486   2.153   2.300
 3818SOL    HW211841   3.436   2.306   2.276
 3819SOL     OW11842   2.842   3.435   3.562
 3819SOL    HW111843   2.822   3.479   3.474
 3819SOL    HW211844   2.881   3.344   3.546
 3820SOL     OW11845   3.721   3.380   3.467
 3820SOL    HW111846   3.735   3.407   3.372
 3820SOL    HW211847   3.804   3.402   3.520
 3821SOL     OW11848   2.212   2.760   3.666
 3821SOL    HW111849   2.288   2.804   3.714
 3821SOL    HW211850   2.247   2.713   3.584
 3822SOL     OW11851   3.402   2.136   1.987
 3822SOL    HW111852   3.341   2.061   2.010
 3822SOL    HW211853   3.424   2.188   2.070
 3823SOL     OW11854   3.165   2.700   1.904
 3823SOL    HW111855   3.199   2.607   1.919
 3823SOL    HW211856   3.183   2.727   1.809
 3824SOL     OW11857   2.930   3.195   2.711
 3824SOL    HW111858   2.937   3.111   2.656
 3824SOL    HW211859   2.992   3.264   2.675
 3825SOL     OW11860   2.181   2.672   2.811
 3825SOL    HW111861   2.274   2.708   2.816
 3825SOL    HW211862   2.175   2.587   2.863
 3826SOL     OW11863   2.201   2.371   2.868
 3826SOL    HW111864   2.149   2.288   2.851
 3826SOL    HW211865   2.278   2.376   2.804
 3827SOL     OW11866   3.022   2.069   3.339
 3827SOL    HW111867   3.022   2.133   3.416
 3827SOL    HW211868   3.050   2.117   3.256
 3828SOL     OW11869   1.870   3.188   2.062
 3828SOL    HW111870   1.777   3.209   2.031
 3828SOL    HW211871   1.880   3.089   2.075
 3829SOL     OW11872   1.950   3.663   2.789
 3829SOL    HW111873   1.908   3.577   2.762
 3829SOL    HW211874   2.044   3.666   2.755
 3830SOL     OW11875   2.366   3.430   2.772
 3830SOL    HW111876   2.432   3.504   2.781
 3830SOL    HW211877   2.410   3.351   2.730
 3831SOL     OW11878   1.902   2.406   2.976
 3831SOL    HW111879   1.987   2.373   2.935
 3831SOL    HW211880   1.915   2.421   3.074
 3832SOL     OW11881   2.677   2.434   2.187
 3832SOL    HW111882   2.684   2.345   2.141
 3832SOL    HW211883   2.583   2.468   2.179
 3833SOL     OW11884   3.519   2.466   3.068
 3833SOL    HW111885   3.481   2.397   3.130
 3833SOL    HW211886   3.601   2.430   3.024
 3834SOL     OW11887   2.114   3.426   3.606
 3834SOL    HW111888   2.084   3.483   3.682
 3834SOL    HW211889   2.107   3.329   3.632
 3835SOL     OW11890   2.533   2.326   3.131
 3835SOL    HW111891   2.499   2.237   3.101
 3835SOL    HW211892   2.559   2.380   3.051
 3836SOL     OW11893   2.792   3.540   3.327
 3836SOL    HW111894   2.768   3.522   3.232
 3836SOL    HW211895   2.822   3.634   3.337
 3837SOL     OW11896   2.335   2.362   2.053
 3837SOL    HW111897   2.396   2.442   2.057
 3837SOL    HW211898   2.240   2.393   2.060
 3838SOL     OW11899   2.021   2.999   3.328
 3838SOL    HW111900   2.043   2.938   3.404
 3838SOL    HW211901   2.031   2.950   3.242
 3839SOL     OW11902   3.209   2.921   3.096
 3839SOL    HW111903   3.233   2.858   3.022
 3839SOL    HW211904   3.119   2.961   3.078
 3840SOL     OW11905   3.164   2.717   2.171
 3840SOL    HW111906   3.078   2.686   2.213
 3840SOL    HW211907   3.160   2.703   2.072
 3841SOL     OW11908   3.621   3.609   3.016
 3841SOL    HW111909   3.682   3.639   2.943
 3841SOL    HW211910   3.583   3.520   2.994
 3842SOL     OW11911   3.114   3.593   2.990
 3842SOL    HW111912   3.198   3.598   2.936
 3842SOL    HW211913   3.091   3.497   3.008
 3843SOL     OW11914   1.945   3.120   2.884
 3843SOL    HW111915   1.940   3.119   2.984
 3843SOL    HW211916   1.862   3.079   2.846
 3844SOL     OW11917   2.550   3.524   3.578
 3844SOL    HW111918   2.494   3.605   3.587
 3844SOL    HW211919   2.602   3.528   3.492
 3845SOL     OW11920   3.588   1.997   2.385
 3845SOL    HW111921   3.661   1.980   2.318
 3845SOL    HW211922   3.557   1.910   2.423
 3846SOL     OW11923   3.250   3.435   2.339
 3846SOL    HW111924   3.317   3.447   2.265
 3846SOL    HW211925   3.210   3.524   2.362
 3847SOL     OW11926   1.992   3.656   3.713
 3847SOL    HW111927   1.951   3.582   3.766
 3847SOL    HW211928   2.056   3.707   3.771
 3848SOL     OW11929   3.142   2.789   2.534
 3848SOL    HW111930   3.202   2.708   2.536
 3848SOL    HW211931   3.182   2.858   2.474
 3849SOL     OW11932   2.692   3.135   3.284
 3849SOL    HW111933   2.687   3.168   3.379
 3849SOL    HW211934   2.606   3.154   3.238
 3850SOL     OW11935   2.534   3.478   2.016
 3850SOL    HW111936   2.543   3.488   1.917
 3850SOL    HW211937   2.494   3.389   2.037
 3851SOL     OW11938   3.512   3.582   3.256
 3851SOL    HW111939   3.565   3.592   3.172
 3851SOL    HW211940   3.485   3.672   3.290
 3852SOL     OW11941   3.703   2.037   2.825
 3852SOL    HW111942   3.742   1.952   2.789
 3852SOL    HW211943   3.605   2.039   2.806
 3853SOL     OW11944   2.125   2.188   2.582
 3853SOL    HW111945   2.046   2.239   2.548
 3853SOL    HW211946   2.116   2.173   2.680
 3854SOL     OW11947   3.056   3.474   1.893
 3854SOL    HW111948   3.062   3.381   1.930
 3854SOL    HW211949   2.997   3.474   1.813
 3855SOL     OW11950   3.366   3.469   1.906
 3855SOL    HW111951   3.274   3.506   1.913
 3855SOL    HW211952   3.404   3.489   1.816
 3856SOL     OW11953   2.234   3.150   3.352
 3856SOL    HW111954   2.221   3.243   3.318
 3856SOL    HW211955   2.150   3.098   3.339
 3857SOL     OW11956   3.476   3.154   3.151
 3857SOL    HW111957   3.536   3.157   3.231
 3857SOL    HW211958   3.401   3.218   3.164
 3858SOL     OW11959   2.901   2.960   2.558
 3858SOL    HW111960   2.831   2.913   2.612
 3858SOL    HW211961   2.960   2.892   2.515
 3859SOL     OW11962   2.876   2.098   2.833
 3859SOL    HW111963   2.868   2.062   2.740
 3859SOL    HW211964   2.874   2.022   2.898
 3860SOL     OW11965   2.452   3.349   2.353
 3860SOL    HW111966   2.494   3.291   2.283
 3860SOL    HW211967   2.408   3.428   2.309
 3861SOL     OW11968   3.571   2.247   3.243
 3861SOL    HW111969   3.644   2.316   3.247
 3861SOL    HW211970   3.599   2.172   3.184
 3862SOL     OW11971   2.117   3.210   2.152
 3862SOL    HW111972   2.021   3.211   2.125
 3862SOL    HW211973   2.129   3.263   2.236
 3863SOL     OW11974   2.534   2.065   3.351
 3863SOL    HW111975   2.624   2.049   3.311
 3863SOL    HW211976   2.542   2.070   3.450
 3864SOL     OW11977   1.937   2.207   1.895
 3864SOL    HW111978   1.845   2.179   1.866
 3864SOL    HW211979   1.968   2.284   1.839
 3865SOL     OW11980   3.302   2.718   3.260
 3865SOL    HW111981   3.245   2.770   3.197
 3865SOL    HW211982   3.398   2.730   3.236
 3866SOL     OW11983   1.934   2.028   2.180
 3866SOL    HW111984   1.917   2.111   2.126
 3866SOL    HW211985   2.024   1.991   2.158
 3867SOL     OW11986   3.045   3.197   1.981
 3867SOL    HW111987   2.946   3.186   1.983
 3867SOL    HW211988   3.079   3.212   2.074
 3868SOL     OW11989   3.355   3.629   2.821
 3868SOL    HW111990   3.388   3.693   2.752
 3868SOL    HW211991   3.421   3.623   2.896
 3869SOL     OW11992   3.312   3.082   3.495
 3869SOL    HW111993   3.303   3.072   3.594
 3869SOL    HW211994   3.408   3.075   3.469
 3870SOL     OW11995   2.252   3.603   3.422
 3870SOL    HW111996   2.161   3.644   3.420
 3870SOL    HW211997   2.245   3.509   3.454
 3871SOL     OW11998   3.536   2.745   3.116
 3871SOL    HW111999   3.509   2.656   3.079
 3871SOL    HW212000   3.537   2.813   3.043
 3872SOL     OW12001   3.087   2.187   2.311
 3872SOL    HW112002   3.152   2.113   2.300
 3872SOL    HW212003   3.107   2.237   2.395
 3873SOL     OW12004   3.639   2.204   3.504
 3873SOL    HW112005   3.622   2.235   3.410
 3873SOL    HW212006   3.555   2.167   3.542
 3874SOL     OW12007   3.592   2.796   3.379
 3874SOL    HW112008   3.630   2.887   3.394
 3874SOL    HW212009   3.584   2.779   3.280
 3875SOL     OW12010   2.721   3.236   1.878
 3875SOL    HW112011   2.675   3.251   1.966
 3875SOL    HW212012   2.765   3.321   1.848
 3876SOL     OW12013   2.523   3.652   2.815
 3876SOL    HW112014   2.477   3.740   2.802
 3876SOL    HW212015   2.622   3.664   2.808
 3877SOL     OW12016   2.945   2.846   1.949
 3877SOL    HW112017   2.922   2.899   1.867
 3877SOL    HW212018   3.026   2.790   1.930
 3878SOL     OW12019   3.723   3.431   2.713
 3878SOL    HW112020   3.652   3.419   2.643
 3878SOL    HW212021   3.724   3.352   2.773
 3879SOL     OW12022   2.083   3.176   3.706
 3879SOL    HW112023   2.018   3.103   3.685
 3879SOL    HW212024   2.087   3.190   3.804
 3880SOL     OW12025   1.941   3.102   2.515
 3880SOL    HW112026   1.940   3.055   2.603
 3880SOL    HW212027   2.023   3.074   2.464
 3881SOL     OW12028   2.534   3.253   3.486
 3881SOL    HW112029   2.456   3.203   3.524
 3881SOL    HW212030   2.531   3.348   3.517
 3882SOL     OW12031   3.686   2.054   3.089
 3882SOL    HW112032   3.682   1.964   3.133
 3882SOL    HW212033   3.689   2.043   2.990
 3883SOL     OW12034   2.290   2.286   2.382
 3883SOL    HW112035   2.320   2.214   2.320
 3883SOL    HW212036   2.251   2.246   2.465
 3884SOL     OW12037   3.567   3.349   2.966
 3884SOL    HW112038   3.474   3.324   2.939
 3884SOL    HW212039   3.593   3.299   3.048
 3885SOL     OW12040   2.179   2.409   3.142
 3885SOL    HW112041   2.217   2.350   3.214
 3885SOL    HW212042   2.219   2.383   3.054
 3886SOL     OW12043   2.674   3.448   2.549
 3886SOL    HW112044   2.706   3.458   2.455
 3886SOL    HW212045   2.595   3.386   2.551
 3887SOL     OW12046   3.286   2.076   2.974
 3887SOL    HW112047   3.338   2.011   3.029
 3887SOL    HW212048   3.237   2.139   3.035
 3888SOL     OW12049   2.863   1.896   3.016
 3888SOL    HW112050   2.800   1.824   2.985
 3888SOL    HW212051   2.956   1.860   3.016
 3889SOL     OW12052   2.632   3.192   2.163
 3889SOL    HW112053   2.586   3.105   2.180
 3889SOL    HW212054   2.723   3.189   2.204
 3890SOL     OW12055   2.480   3.429   3.146
 3890SOL    HW112056   2.475   3.511   3.203
 3890SOL    HW212057   2.569   3.426   3.101
 3891SOL     OW12058   3.214   1.914   2.030
 3891SOL    HW112059   3.249   1.873   1.946
 3891SOL    HW212060   3.124   1.876   2.050
 3892SOL     OW12061   3.162   2.315   2.553
 3892SOL    HW112062   3.103   2.395   2.557
 3892SOL    HW212063   3.177   2.280   2.646
 3893SOL     OW12064   3.455   2.083   2.744
 3893SOL    HW112065   3.371   2.082   2.798
 3893SOL    HW212066   3.457   2.166   2.688
 3894SOL     OW12067   1.901   2.939   2.162
 3894SOL    HW112068   2.000   2.928   2.153
 3894SOL    HW212069   1.861   2.853   2.194
 3895SOL     OW12070   2.737   3.508   2.199
 3895SOL    HW112071   2.660   3.473   2.145
 3895SOL    HW212072   2.705   3.579   2.261
 3896SOL     OW12073   2.087   2.137   4.720
 3896SOL    HW112074   2.122   2.120   4.812
 3896SOL    HW212075   1.999   2.092   4.708
 3897SOL     OW12076   1.881   2.230   4.371
 3897SOL    HW112077   1.799   2.273   4.410
 3897SOL    HW212078   1.853   2.157   4.308
 3898SOL     OW12079   2.431   3.137   4.889
 3898SOL    HW112080   2.338   3.130   4.852
 3898SOL    HW212081   2.442   3.226   4.933
 3899SOL     OW12082   3.417   3.373   4.427
 3899SOL    HW112083   3.360   3.357   4.508
 3899SOL    HW212084   3.358   3.383   4.347
 3900SOL     OW12085   3.617   2.469   3.955
 3900SOL    HW112086   3.605   2.456   3.856
 3900SOL    HW212087   3.587   2.388   4.004
 3901SOL     OW12088   2.630   3.006   4.747
 3901SOL    HW112089   2.552   3.023   4.807
 3901SOL    HW212090   2.664   3.093   4.711
 3902SOL     OW12091   2.548   3.023   5.527
 3902SOL    HW112092   2.608   3.102   5.541
 3902SOL    HW212093   2.462   3.054   5.486
 3903SOL     OW12094   2.197   3.297   4.785
 3903SOL    HW112095   2.119   3.266   4.732
 3903SOL    HW212096   2.255   3.355   4.728
 3904SOL     OW12097   3.322   3.367   5.063
 3904SOL    HW112098   3.346   3.461   5.089
 3904SOL    HW212099   3.306   3.313   5.145
 3905SOL     OW12100   2.300   2.254   5.223
 3905SOL    HW112101   2.382   2.198   5.232
 3905SOL    HW212102   2.219   2.196   5.227
 3906SOL     OW12103   3.465   2.309   4.461
 3906SOL    HW112104   3.391   2.355   4.411
 3906SOL    HW212105   3.516   2.377   4.514
 3907SOL     OW12106   2.093   3.575   4.207
 3907SOL    HW112107   2.127   3.652   4.261
 3907SOL    HW212108   2.137   3.575   4.117
 3908SOL     OW12109   2.989   3.203   5.414
 3908SOL    HW112110   3.036   3.203   5.502
 3908SOL    HW212111   2.941   3.116   5.403
 3909SOL     OW12112   2.092   3.296   4.262
 3909SOL    HW112113   2.066   3.392   4.262
 3909SOL    HW212114   2.021   3.242   4.307
 3910SOL     OW12115   2.102   2.953   4.610
 3910SOL    HW112116   2.116   2.869   4.662
 3910SOL    HW212117   2.047   3.017   4.665
 3911SOL     OW12118   2.482   3.648   5.163
 3911SOL    HW112119   2.390   3.631   5.198
 3911SOL    HW212120   2.510   3.740   5.189
 3912SOL     OW12121   2.468   2.826   3.847
 3912SOL    HW112122   2.475   2.910   3.793
 3912SOL    HW212123   2.514   2.839   3.935
 3913SOL     OW12124   3.456   1.976   5.204
 3913SOL    HW112125   3.438   2.043   5.132
 3913SOL    HW212126   3.453   2.022   5.293
 3914SOL     OW12127   3.704   3.629   4.083
 3914SOL    HW112128   3.758   3.600   4.163
 3914SOL    HW212129   3.734   3.719   4.054
 3915SOL     OW12130   1.889   3.458   3.841
 3915SOL    HW112131   1.870   3.362   3.862
 3915SOL    HW212132   1.856   3.516   3.916
 3916SOL     OW12133   3.551   2.784   4.336
 3916SOL    HW112134   3.646   2.755   4.344
 3916SOL    HW212135   3.543   2.849   4.261
 3917SOL     OW12136   3.503   2.970   4.156
 3917SOL    HW112137   3.589   2.972   4.104
 3917SOL    HW212138   3.517   3.017   4.244
 3918SOL     OW12139   1.975   2.599   5.321
 3918SOL    HW112140   2.063   2.586   5.366
 3918SOL    HW212141   1.962   2.696   5.299
 3919SOL     OW12142   2.475   3.227   4.450
 3919SOL    HW112143   2.426   3.140   4.459
 3919SOL    HW212144   2.452   3.270   4.363
 3920SOL     OW12145   3.155   3.090   5.147
 3920SOL    HW112146   3.192   3.017   5.089
 3920SOL    HW212147   3.207   3.095   5.232
 3921SOL     OW12148   2.671   1.866   4.226
 3921SOL    HW112149   2.711   1.957   4.217
 3921SOL    HW212150   2.571   1.874   4.232
 3922SOL     OW12151   2.059   2.838   4.988
 3922SOL    HW112152   2.148   2.793   4.974
 3922SOL    HW212153   1.986   2.773   4.969
 3923SOL     OW12154   3.387   2.861   3.914
 3923SOL    HW112155   3.324   2.785   3.927
 3923SOL    HW212156   3.435   2.879   4.000
 3924SOL     OW12157   3.049   3.654   5.340
 3924SOL    HW112158   3.073   3.714   5.264
 3924SOL    HW212159   3.056   3.559   5.310
 3925SOL     OW12160   2.179   2.113   5.525
 3925SOL    HW112161   2.250   2.184   5.531
 3925SOL    HW212162   2.091   2.152   5.553
 3926SOL     OW12163   3.328   3.279   4.677
 3926SOL    HW112164   3.269   3.285   4.757
 3926SOL    HW212165   3.313   3.191   4.631
 3927SOL     OW12166   3.529   3.576   4.296
 3927SOL    HW112167   3.488   3.553   4.208
 3927SOL    HW212168   3.511   3.502   4.361
 3928SOL     OW12169   3.143   2.207   4.668
 3928SOL    HW112170   3.057   2.157   4.655
 3928SOL    HW212171   3.205   2.153   4.724
 3929SOL     OW12172   3.438   3.524   4.031
 3929SOL    HW112173   3.527   3.570   4.034
 3929SOL    HW212174   3.417   3.500   3.936
 3930SOL     OW12175   3.256   2.331   5.398
 3930SOL    HW112176   3.236   2.374   5.486
 3930SOL    HW212177   3.334   2.269   5.407
 3931SOL     OW12178   2.853   2.272   4.966
 3931SOL    HW112179   2.776   2.306   5.020
 3931SOL    HW212180   2.819   2.221   4.887
 3932SOL     OW12181   1.938   2.673   4.513
 3932SOL    HW112182   2.037   2.661   4.522
 3932SOL    HW212183   1.914   2.768   4.534
 3933SOL     OW12184   1.992   3.683   5.295
 3933SOL    HW112185   1.982   3.668   5.394
 3933SOL    HW212186   1.906   3.719   5.259
 3934SOL     OW12187   3.581   2.447   5.555
 3934SOL    HW112188   3.555   2.536   5.519
 3934SOL    HW212189   3.579   2.379   5.482
 3935SOL     OW12190   3.224   3.006   4.269
 3935SOL    HW112191   3.307   2.977   4.221
 3935SOL    HW212192   3.175   3.073   4.213
 3936SOL     OW12193   2.412   2.058   4.609
 3936SOL    HW112194   2.407   2.053   4.709
 3936SOL    HW212195   2.414   2.154   4.580
 3937SOL     OW12196   2.870   3.318   4.201
 3937SOL    HW112197   2.824   3.390   4.149
 3937SOL    HW212198   2.866   3.338   4.299
 3938SOL     OW12199   2.213   3.663   4.577
 3938SOL    HW112200   2.263   3.577   4.583
 3938SOL    HW212201   2.278   3.740   4.574
 3939SOL     OW12202   3.657   2.928   4.597
 3939SOL    HW112203   3.595   2.913   4.521
 3939SOL    HW212204   3.605   2.939   4.682
 3940SOL     OW12205   3.089   3.412   5.230
 3940SOL    HW112206   3.095   3.335   5.294
 3940SOL    HW212207   3.037   3.386   5.150
 3941SOL     OW12208   2.323   3.128   5.451
 3941SOL    HW112209   2.273   3.129   5.365
 3941SOL    HW212210   2.260   3.110   5.527
 3942SOL     OW12211   2.973   3.638   3.961
 3942SOL    HW112212   2.913   3.576   4.011
 3942SOL    HW212213   3.004   3.594   3.876
 3943SOL     OW12214   2.064   2.147   5.222
 3943SOL    HW112215   1.984   2.207   5.209
 3943SOL    HW212216   2.054   2.098   5.308
 3944SOL     OW12217   3.494   3.239   3.805
 3944SOL    HW112218   3.462   3.333   3.795
 3944SOL    HW212219   3.418   3.176   3.793
 3945SOL     OW12220   2.326   3.605   4.047
 3945SOL    HW112221   2.359   3.644   4.133
 3945SOL    HW212222   2.402   3.598   3.982
 3946SOL     OW12223   3.262   1.969   4.150
 3946SOL    HW112224   3.238   1.932   4.060
 3946SOL    HW212225   3.361   1.985   4.154
 3947SOL     OW12226   2.111   3.647   4.965
 3947SOL    HW112227   2.168   3.582   5.015
 3947SOL    HW212228   2.095   3.614   4.872
 3948SOL     OW12229   2.802   3.560   4.628
 3948SOL    HW112230   2.882   3.503   4.649
 3948SOL    HW212231   2.753   3.520   4.551
 3949SOL     OW12232   3.409   2.084   5.453
 3949SOL    HW112233   3.404   2.121   5.545
 3949SOL    HW212234   3.337   2.015   5.441
 3950SOL     OW12235   2.643   2.126   5.473
 3950SOL    HW112236   2.710   2.065   5.516
 3950SOL    HW212237   2.570   2.145   5.538
 3951SOL     OW12238   2.750   3.376   4.919
 3951SOL    HW112239   2.727   3.351   4.825
 3951SOL    HW212240   2.811   3.307   4.958
 3952SOL     OW12241   3.213   2.452   5.157
 3952SOL    HW112242   3.241   2.409   5.242
 3952SOL    HW212243   3.238   2.548   5.158
 3953SOL     OW12244   2.665   3.264   4.648
 3953SOL    HW112245   2.755   3.278   4.606
 3953SOL    HW212246   2.594   3.266   4.577
 3954SOL     OW12247   2.401   1.926   4.236
 3954SOL    HW112248   2.320   1.927   4.294
 3954SOL    HW212249   2.404   2.009   4.181
 3955SOL     OW12250   3.296   3.050   3.765
 3955SOL    HW112251   3.328   2.974   3.822
 3955SOL    HW212252   3.204   3.077   3.795
 3956SOL     OW12253   2.938   2.545   5.188
 3956SOL    HW112254   2.858   2.484   5.191
 3956SOL    HW212255   3.019   2.492   5.164
 3957SOL     OW12256   3.089   3.432   4.517
 3957SOL    HW112257   3.110   3.506   4.452
 3957SOL    HW212258   3.157   3.432   4.590
 3958SOL     OW12259   3.133   3.659   4.315
 3958SOL    HW112260   3.177   3.723   4.251
 3958SOL    HW212261   3.083   3.711   4.385
 3959SOL     OW12262   1.940   2.418   5.110
 3959SOL    HW112263   2.032   2.417   5.069
 3959SOL    HW212264   1.934   2.492   5.177
 3960SOL     OW12265   2.423   2.084   4.871
 3960SOL    HW112266   2.461   2.000   4.908
 3960SOL    HW212267   2.335   2.103   4.915
 3961SOL     OW12268   2.879   1.901   4.477
 3961SOL    HW112269   2.807   1.906   4.408
 3961SOL    HW212270   2.855   1.832   4.546
 3962SOL     OW12271   3.291   3.035   4.591
 3962SOL    HW112272   3.236   2.951   4.584
 3962SOL    HW212273   3.317   3.064   4.499
 3963SOL     OW12274   3.328   2.452   4.716
 3963SOL    HW112275   3.298   2.357   4.723
 3963SOL    HW212276   3.401   2.468   4.782
 3964SOL     OW12277   3.719   2.695   4.101
 3964SOL    HW112278   3.761   2.631   4.165
 3964SOL    HW212279   3.681   2.644   4.023
 3965SOL     OW12280   3.526   3.142   4.381
 3965SOL    HW112281   3.625   3.150   4.395
 3965SOL    HW212282   3.481   3.226   4.412
 3966SOL     OW12283   3.616   3.085   5.312
 3966SOL    HW112284   3.707   3.046   5.299
 3966SOL    HW212285   3.624   3.181   5.336
 3967SOL     OW12286   2.926   3.209   5.064
 3967SOL    HW112287   2.846   3.186   5.119
 3967SOL    HW212288   3.009   3.183   5.113
 3968SOL     OW12289   3.454   3.491   5.349
 3968SOL    HW112290   3.481   3.525   5.259
 3968SOL    HW212291   3.533   3.453   5.395
 3969SOL     OW12292   2.973   3.057   4.824
 3969SOL    HW112293   2.933   3.101   4.905
 3969SOL    HW212294   2.932   3.094   4.741
 3970SOL     OW12295   3.500   2.961   4.803
 3970SOL    HW112296   3.505   3.042   4.862
 3970SOL    HW212297   3.414   2.963   4.752
 3971SOL     OW12298   2.777   1.951   5.126
 3971SOL    HW112299   2.802   1.931   5.031
 3971SOL    HW212300   2.849   2.007   5.168
 3972SOL     OW12301   2.842   2.978   5.443
 3972SOL    HW112302   2.743   2.984   5.453
 3972SOL    HW212303   2.865   2.898   5.387
 3973SOL     OW12304   2.272   2.675   4.975
 3973SOL    HW112305   2.358   2.687   5.025
 3973SOL    HW212306   2.230   2.588   5.002
 3974SOL     OW12307   3.136   2.248   4.986
 3974SOL    HW112308   3.157   2.322   5.050
 3974SOL    HW212309   3.047   2.265   4.943
 3975SOL     OW12310   1.926   3.426   5.055
 3975SOL    HW112311   1.880   3.508   5.021
 3975SOL    HW212312   2.024   3.445   5.064
 3976SOL     OW12313   3.134   3.307   4.866
 3976SOL    HW112314   3.181   3.320   4.953
 3976SOL    HW212315   3.068   3.233   4.875
 3977SOL     OW12316   3.444   2.501   4.196
 3977SOL    HW112317   3.413   2.562   4.269
 3977SOL    HW212318   3.494   2.553   4.127
 3978SOL     OW12319   2.216   3.372   5.053
 3978SOL    HW112320   2.195   3.328   4.966
 3978SOL    HW212321   2.313   3.398   5.056
 3979SOL     OW12322   2.264   2.613   5.322
 3979SOL    HW112323   2.332   2.668   5.275
 3979SOL    HW212324   2.304   2.525   5.349
 3980SOL     OW12325   3.449   2.641   5.394
 3980SOL    HW112326   3.357   2.679   5.389
 3980SOL    HW212327   3.509   2.688   5.329
 3981SOL     OW12328   2.875   1.967   5.494
 3981SOL    HW112329   2.881   2.052   5.442
 3981SOL    HW212330   2.907   1.891   5.437
 3982SOL     OW12331   2.366   1.912   5.464
 3982SOL    HW112332   2.324   1.855   5.394
 3982SOL    HW212333   2.300   1.981   5.496
 3983SOL     OW12334   3.222   2.724   4.769
 3983SOL    HW112335   3.147   2.724   4.703
 3983SOL    HW212336   3.259   2.632   4.778
 3984SOL     OW12337   2.169   2.075   4.955
 3984SOL    HW112338   2.146   2.112   5.045
 3984SOL    HW212339   2.139   1.980   4.949
 3985SOL     OW12340   1.899   3.172   5.006
 3985SOL    HW112341   1.952   3.123   5.074
 3985SOL    HW212342   1.921   3.270   5.011
 3986SOL     OW12343   3.590   2.797   5.578
 3986SOL    HW112344   3.544   2.790   5.489
 3986SOL    HW212345   3.528   2.841   5.644
 3987SOL     OW12346   2.169   1.925   4.342
 3987SOL    HW112347   2.158   2.019   4.375
 3987SOL    HW212348   2.164   1.862   4.419
 3988SOL     OW12349   3.484   2.229   4.098
 3988SOL    HW112350   3.486   2.153   4.162
 3988SOL    HW212351   3.436   2.306   4.138
 3989SOL     OW12352   2.842   3.435   5.424
 3989SOL    HW112353   2.822   3.479   5.336
 3989SOL    HW212354   2.881   3.344   5.408
 3990SOL     OW12355   3.721   3.380   5.329
 3990SOL    HW112356   3.735   3.407   5.234
 3990SOL    HW212357   3.804   3.402   5.382
 3991SOL     OW12358   2.212   2.760   5.528
 3991SOL    HW112359   2.288   2.804   5.576
 3991SOL    HW212360   2.247   2.713   5.446
 3992SOL     OW12361   3.402   2.136   3.849
 3992SOL    HW112362   3.341   2.061   3.872
 3992SOL    HW212363   3.424   2.188   3.932
 3993SOL     OW12364   2.930   3.195   4.573
 3993SOL    HW112365   2.937   3.111   4.518
 3993SOL    HW212366   2.992   3.264   4.537
 3994SOL     OW12367   2.181   2.672   4.673
 3994SOL    HW112368   2.274   2.708   4.678
 3994SOL    HW212369   2.175   2.587   4.725
 3995SOL     OW12370   3.000   2.242   5.402
 3995SOL    HW112371   2.955   2.305   5.466
 3995SOL    HW212372   3.093   2.273   5.385
 3996SOL     OW12373   3.022   2.069   5.201
 3996SOL    HW112374   3.022   2.133   5.278
 3996SOL    HW212375   3.050   2.117   5.118
 3997SOL     OW12376   1.870   3.188   3.924
 3997SOL    HW112377   1.777   3.209   3.893
 3997SOL    HW212378   1.880   3.089   3.937
 3998SOL     OW12379   1.950   3.663   4.651
 3998SOL    HW112380   1.908   3.577   4.624
 3998SOL    HW212381   2.044   3.666   4.617
 3999SOL     OW12382   2.366   3.430   4.634
 3999SOL    HW112383   2.432   3.504   4.643
 3999SOL    HW212384   2.410   3.351   4.592
 4000SOL     OW12385   1.902   2.406   4.838
 4000SOL    HW112386   1.987   2.373   4.797
 4000SOL    HW212387   1.915   2.421   4.936
 4001SOL     OW12388   2.051   2.382   5.446
 4001SOL    HW112389   2.110   2.342   5.376
 4001SOL    HW212390   1.993   2.453   5.405
 4002SOL     OW12391   3.231   2.812   5.384
 4002SOL    HW112392   3.270   2.901   5.404
 4002SOL    HW212393   3.241   2.792   5.287
 4003SOL     OW12394   3.519   2.466   4.930
 4003SOL    HW112395   3.481   2.397   4.992
 4003SOL    HW212396   3.601   2.430   4.886
 4004SOL     OW12397   2.114   3.426   5.468
 4004SOL    HW112398   2.084   3.483   5.544
 4004SOL    HW212399   2.107   3.329   5.494
 4005SOL     OW12400   2.533   2.326   4.993
 4005SOL    HW112401   2.499   2.237   4.963
 4005SOL    HW212402   2.559   2.380   4.913
 4006SOL     OW12403   2.792   3.540   5.189
 4006SOL    HW112404   2.768   3.522   5.094
 4006SOL    HW212405   2.822   3.634   5.199
 4007SOL     OW12406   2.021   2.999   5.190
 4007SOL    HW112407   2.043   2.938   5.266
 4007SOL    HW212408   2.031   2.950   5.104
 4008SOL     OW12409   3.209   2.921   4.958
 4008SOL    HW112410   3.233   2.858   4.884
 4008SOL    HW212411   3.119   2.961   4.940
 4009SOL     OW12412   3.621   3.609   4.878
 4009SOL    HW112413   3.682   3.639   4.805
 4009SOL    HW212414   3.583   3.520   4.856
 4010SOL     OW12415   3.114   3.593   4.852
 4010SOL    HW112416   3.198   3.598   4.798
 4010SOL    HW212417   3.091   3.497   4.870
 4011SOL     OW12418   1.945   3.120   4.746
 4011SOL    HW112419   1.940   3.119   4.846
 4011SOL    HW212420   1.862   3.079   4.708
 4012SOL     OW12421   2.550   3.524   5.440
 4012SOL    HW112422   2.494   3.605   5.449
 4012SOL    HW212423   2.602   3.528   5.354
 4013SOL     OW12424   3.588   1.997   4.247
 4013SOL    HW112425   3.661   1.980   4.180
 4013SOL    HW212426   3.557   1.910   4.285
 4014SOL     OW12427   3.250   3.435   4.201
 4014SOL    HW112428   3.317   3.447   4.127
 4014SOL    HW212429   3.210   3.524   4.224
 4015SOL     OW12430   1.992   3.656   5.575
 4015SOL    HW112431   1.951   3.582   5.628
 4015SOL    HW212432   2.056   3.707   5.633
 4016SOL     OW12433   2.692   3.135   5.146
 4016SOL    HW112434   2.687   3.168   5.241
 4016SOL    HW212435   2.606   3.154   5.100
 4017SOL     OW12436   3.512   3.582   5.118
 4017SOL    HW112437   3.565   3.592   5.034
 4017SOL    HW212438   3.485   3.672   5.152
 4018SOL     OW12439   3.703   2.037   4.687
 4018SOL    HW112440   3.742   1.952   4.651
 4018SOL    HW212441   3.605   2.039   4.668
 4019SOL     OW12442   2.125   2.188   4.444
 4019SOL    HW112443   2.046   2.239   4.410
 4019SOL    HW212444   2.116   2.173   4.542
 4020SOL     OW12445   3.366   3.469   3.768
 4020SOL    HW112446   3.274   3.506   3.775
 4020SOL    HW212447   3.404   3.489   3.678
 4021SOL     OW12448   2.234   3.150   5.214
 4021SOL    HW112449   2.221   3.243   5.180
 4021SOL    HW212450   2.150   3.098   5.201
 4022SOL     OW12451   3.476   3.154   5.013
 4022SOL    HW112452   3.536   3.157   5.093
 4022SOL    HW212453   3.401   3.218   5.026
 4023SOL     OW12454   2.876   2.098   4.695
 4023SOL    HW112455   2.868   2.062   4.602
 4023SOL    HW212456   2.874   2.022   4.760
 4024SOL     OW12457   3.571   2.247   5.105
 4024SOL    HW112458   3.644   2.316   5.109
 4024SOL    HW212459   3.599   2.172   5.046
 4025SOL     OW12460   2.117   3.210   4.014
 4025SOL    HW112461   2.021   3.211   3.987
 4025SOL    HW212462   2.129   3.263   4.098
 4026SOL     OW12463   1.967   2.875   5.450
 4026SOL    HW112464   1.890   2.842   5.504
 4026SOL    HW212465   2.052   2.845   5.492
 4027SOL     OW12466   2.534   2.065   5.213
 4027SOL    HW112467   2.624   2.049   5.173
 4027SOL    HW212468   2.542   2.070   5.312
 4028SOL     OW12469   1.937   2.207   3.757
 4028SOL    HW112470   1.845   2.179   3.728
 4028SOL    HW212471   1.968   2.284   3.701
 4029SOL     OW12472   3.302   2.718   5.122
 4029SOL    HW112473   3.245   2.770   5.059
 4029SOL    HW212474   3.398   2.730   5.098
 4030SOL     OW12475   1.934   2.028   4.042
 4030SOL    HW112476   1.917   2.111   3.988
 4030SOL    HW212477   2.024   1.991   4.020
 4031SOL     OW12478   3.355   3.629   4.683
 4031SOL    HW112479   3.388   3.693   4.614
 4031SOL    HW212480   3.421   3.623   4.758
 4032SOL     OW12481   3.312   3.082   5.357
 4032SOL    HW112482   3.303   3.072   5.456
 4032SOL    HW212483   3.408   3.075   5.331
 4033SOL     OW12484   2.252   3.603   5.284
 4033SOL    HW112485   2.161   3.644   5.282
 4033SOL    HW212486   2.245   3.509   5.316
 4034SOL     OW12487   3.536   2.745   4.978
 4034SOL    HW112488   3.509   2.656   4.941
 4034SOL    HW212489   3.537   2.813   4.905
 4035SOL     OW12490   3.639   2.204   5.366
 4035SOL    HW112491   3.622   2.235   5.272
 4035SOL    HW212492   3.555   2.167   5.404
 4036SOL     OW12493   3.592   2.796   5.241
 4036SOL    HW112494   3.630   2.887   5.256
 4036SOL    HW212495   3.584   2.779   5.142
 4037SOL     OW12496   2.523   3.652   4.677
 4037SOL    HW112497   2.477   3.740   4.664
 4037SOL    HW212498   2.622   3.664   4.670
 4038SOL     OW12499   3.723   3.431   4.575
 4038SOL    HW112500   3.652   3.419   4.505
 4038SOL    HW212501   3.724   3.352   4.635
 4039SOL     OW12502   2.083   3.176   5.568
 4039SOL    HW112503   2.018   3.103   5.547
 4039SOL    HW212504   2.087   3.190   5.666
 4040SOL     OW12505   1.941   3.102   4.377
 4040SOL    HW112506   1.940   3.055   4.465
 4040SOL    HW212507   2.023   3.074   4.326
 4041SOL     OW12508   2.534   3.253   5.348
 4041SOL    HW112509   2.456   3.203   5.386
 4041SOL    HW212510   2.531   3.348   5.379
 4042SOL     OW12511   3.686   2.054   4.951
 4042SOL    HW112512   3.682   1.964   4.995
 4042SOL    HW212513   3.689   2.043   4.852
 4043SOL     OW12514   3.567   3.349   4.828
 4043SOL    HW112515   3.474   3.324   4.801
 4043SOL    HW212516   3.593   3.299   4.910
 4044SOL     OW12517   2.179   2.409   5.004
 4044SOL    HW112518   2.217   2.350   5.076
 4044SOL    HW212519   2.219   2.383   4.916
 4045SOL     OW12520   2.674   3.448   4.411
 4045SOL    HW112521   2.706   3.458   4.317
 4045SOL    HW212522   2.595   3.386   4.413
 4046SOL     OW12523   3.286   2.076   4.836
 4046SOL    HW112524   3.338   2.011   4.891
 4046SOL    HW212525   3.237   2.139   4.897
 4047SOL     OW12526   2.863   1.896   4.878
 4047SOL    HW112527   2.800   1.824   4.847
 4047SOL    HW212528   2.956   1.860   4.878
 4048SOL     OW12529   2.480   3.429   5.008
 4048SOL    HW112530   2.475   3.511   5.065
 4048SOL    HW212531   2.569   3.426   4.963
 4049SOL     OW12532   3.214   1.914   3.892
 4049SOL    HW112533   3.249   1.873   3.808
 4049SOL    HW212534   3.124   1.876   3.912
 4050SOL     OW12535   3.455   2.083   4.606
 4050SOL    HW112536   3.371   2.082   4.660
 4050SOL    HW212537   3.457   2.166   4.550
 4051SOL     OW12538   2.737   3.508   4.061
 4051SOL    HW112539   2.660   3.473   4.007
 4051SOL    HW212540   2.705   3.579   4.123
 4052SOL     OW12541   2.092   2.490   5.699
 4052SOL    HW112542   1.999   2.488   5.736
 4052SOL    HW212543   2.093   2.451   5.607
 4053SOL     OW12544   2.087   2.137   6.582
 4053SOL    HW112545   2.122   2.120   6.674
 4053SOL    HW212546   1.999   2.092   6.570
 4054SOL     OW12547   1.881   2.230   6.233
 4054SOL    HW112548   1.799   2.273   6.272
 4054SOL    HW212549   1.853   2.157   6.170
 4055SOL     OW12550   2.431   3.137   6.751
 4055SOL    HW112551   2.338   3.130   6.714
 4055SOL    HW212552   2.442   3.226   6.795
 4056SOL     OW12553   3.417   3.373   6.289
 4056SOL    HW112554   3.360   3.357   6.370
 4056SOL    HW212555   3.358   3.383   6.209
 4057SOL     OW12556   2.997   2.565   6.303
 4057SOL    HW112557   3.054   2.643   6.278
 4057SOL    HW212558   2.937   2.591   6.379
 4058SOL     OW12559   3.617   2.469   5.817
 4058SOL    HW112560   3.605   2.456   5.718
 4058SOL    HW212561   3.587   2.388   5.866
 4059SOL     OW12562   2.630   3.006   6.609
 4059SOL    HW112563   2.552   3.023   6.669
 4059SOL    HW212564   2.664   3.093   6.573
 4060SOL     OW12565   2.548   3.023   7.389
 4060SOL    HW112566   2.608   3.102   7.403
 4060SOL    HW212567   2.462   3.054   7.348
 4061SOL     OW12568   2.197   3.297   6.647
 4061SOL    HW112569   2.119   3.266   6.594
 4061SOL    HW212570   2.255   3.355   6.590
 4062SOL     OW12571   3.322   3.367   6.925
 4062SOL    HW112572   3.346   3.461   6.951
 4062SOL    HW212573   3.306   3.313   7.007
 4063SOL     OW12574   2.300   2.254   7.085
 4063SOL    HW112575   2.382   2.198   7.094
 4063SOL    HW212576   2.219   2.196   7.089
 4064SOL     OW12577   3.465   2.309   6.323
 4064SOL    HW112578   3.391   2.355   6.273
 4064SOL    HW212579   3.516   2.377   6.376
 4065SOL     OW12580   2.093   3.575   6.069
 4065SOL    HW112581   2.127   3.652   6.123
 4065SOL    HW212582   2.137   3.575   5.979
 4066SOL     OW12583   2.989   3.203   7.276
 4066SOL    HW112584   3.036   3.203   7.364
 4066SOL    HW212585   2.941   3.116   7.265
 4067SOL     OW12586   2.092   3.296   6.124
 4067SOL    HW112587   2.066   3.392   6.124
 4067SOL    HW212588   2.021   3.242   6.169
 4068SOL     OW12589   2.102   2.953   6.472
 4068SOL    HW112590   2.116   2.869   6.524
 4068SOL    HW212591   2.047   3.017   6.527
 4069SOL     OW12592   2.482   3.648   7.025
 4069SOL    HW112593   2.390   3.631   7.060
 4069SOL    HW212594   2.510   3.740   7.051
 4070SOL     OW12595   2.468   2.826   5.709
 4070SOL    HW112596   2.475   2.910   5.655
 4070SOL    HW212597   2.514   2.839   5.797
 4071SOL     OW12598   3.456   1.976   7.066
 4071SOL    HW112599   3.438   2.043   6.994
 4071SOL    HW212600   3.453   2.022   7.155
 4072SOL     OW12601   1.984   2.505   6.149
 4072SOL    HW112602   1.939   2.417   6.166
 4072SOL    HW212603   1.983   2.559   6.233
 4073SOL     OW12604   3.704   3.629   5.945
 4073SOL    HW112605   3.758   3.600   6.025
 4073SOL    HW212606   3.734   3.719   5.916
 4074SOL     OW12607   1.889   3.458   5.703
 4074SOL    HW112608   1.870   3.362   5.724
 4074SOL    HW212609   1.856   3.516   5.778
 4075SOL     OW12610   3.551   2.784   6.198
 4075SOL    HW112611   3.646   2.755   6.206
 4075SOL    HW212612   3.543   2.849   6.123
 4076SOL     OW12613   3.503   2.970   6.018
 4076SOL    HW112614   3.589   2.972   5.966
 4076SOL    HW212615   3.517   3.017   6.106
 4077SOL     OW12616   1.975   2.599   7.183
 4077SOL    HW112617   2.063   2.586   7.228
 4077SOL    HW212618   1.962   2.696   7.161
 4078SOL     OW12619   2.475   3.227   6.312
 4078SOL    HW112620   2.426   3.140   6.321
 4078SOL    HW212621   2.452   3.270   6.225
 4079SOL     OW12622   3.155   3.090   7.009
 4079SOL    HW112623   3.192   3.017   6.951
 4079SOL    HW212624   3.207   3.095   7.094
 4080SOL     OW12625   2.671   1.866   6.088
 4080SOL    HW112626   2.711   1.957   6.079
 4080SOL    HW212627   2.571   1.874   6.094
 4081SOL     OW12628   2.059   2.838   6.850
 4081SOL    HW112629   2.148   2.793   6.836
 4081SOL    HW212630   1.986   2.773   6.831
 4082SOL     OW12631   3.387   2.861   5.776
 4082SOL    HW112632   3.324   2.785   5.789
 4082SOL    HW212633   3.435   2.879   5.862
 4083SOL     OW12634   3.049   3.654   7.202
 4083SOL    HW112635   3.073   3.714   7.126
 4083SOL    HW212636   3.056   3.559   7.172
 4084SOL     OW12637   2.179   2.113   7.387
 4084SOL    HW112638   2.250   2.184   7.393
 4084SOL    HW212639   2.091   2.152   7.415
 4085SOL     OW12640   3.328   3.279   6.539
 4085SOL    HW112641   3.269   3.285   6.619
 4085SOL    HW212642   3.313   3.191   6.493
 4086SOL     OW12643   3.529   3.576   6.158
 4086SOL    HW112644   3.488   3.553   6.070
 4086SOL    HW212645   3.511   3.502   6.223
 4087SOL     OW12646   3.143   2.207   6.530
 4087SOL    HW112647   3.057   2.157   6.517
 4087SOL    HW212648   3.205   2.153   6.586
 4088SOL     OW12649   3.438   3.524   5.893
 4088SOL    HW112650   3.527   3.570   5.896
 4088SOL    HW212651   3.417   3.500   5.798
 4089SOL     OW12652   3.256   2.331   7.260
 4089SOL    HW112653   3.236   2.374   7.348
 4089SOL    HW212654   3.334   2.269   7.269
 4090SOL     OW12655   2.853   2.272   6.828
 4090SOL    HW112656   2.776   2.306   6.882
 4090SOL    HW212657   2.819   2.221   6.749
 4091SOL     OW12658   1.938   2.673   6.375
 4091SOL    HW112659   2.037   2.661   6.384
 4091SOL    HW212660   1.914   2.768   6.396
 4092SOL     OW12661   1.992   3.683   7.157
 4092SOL    HW112662   1.982   3.668   7.256
 4092SOL    HW212663   1.906   3.719   7.121
 4093SOL     OW12664   2.727   2.210   5.781
 4093SOL    HW112665   2.786   2.273   5.732
 4093SOL    HW212666   2.746   2.116   5.752
 4094SOL     OW12667   3.581   2.447   7.417
 4094SOL    HW112668   3.555   2.536   7.381
 4094SOL    HW212669   3.579   2.379   7.344
 4095SOL     OW12670   3.224   3.006   6.131
 4095SOL    HW112671   3.307   2.977   6.083
 4095SOL    HW212672   3.175   3.073   6.075
 4096SOL     OW12673   2.412   2.058   6.471
 4096SOL    HW112674   2.407   2.053   6.571
 4096SOL    HW212675   2.414   2.154   6.442
 4097SOL     OW12676   2.870   3.318   6.063
 4097SOL    HW112677   2.824   3.390   6.011
 4097SOL    HW212678   2.866   3.338   6.161
 4098SOL     OW12679   2.213   3.663   6.439
 4098SOL    HW112680   2.263   3.577   6.445
 4098SOL    HW212681   2.278   3.740   6.436
 4099SOL     OW12682   3.657   2.928   6.459
 4099SOL    HW112683   3.595   2.913   6.383
 4099SOL    HW212684   3.605   2.939   6.544
 4100SOL     OW12685   3.089   3.412   7.092
 4100SOL    HW112686   3.095   3.335   7.156
 4100SOL    HW212687   3.037   3.386   7.012
 4101SOL     OW12688   2.183   2.805   5.828
 4101SOL    HW112689   2.265   2.844   5.786
 4101SOL    HW212690   2.156   2.723   5.779
 4102SOL     OW12691   3.320   2.597   6.314
 4102SOL    HW112692   3.315   2.532   6.389
 4102SOL    HW212693   3.400   2.656   6.327
 4103SOL     OW12694   2.323   3.128   7.313
 4103SOL    HW112695   2.273   3.129   7.227
 4103SOL    HW212696   2.260   3.110   7.389
 4104SOL     OW12697   2.973   3.638   5.823
 4104SOL    HW112698   2.913   3.576   5.873
 4104SOL    HW212699   3.004   3.594   5.738
 4105SOL     OW12700   2.064   2.147   7.084
 4105SOL    HW112701   1.984   2.207   7.071
 4105SOL    HW212702   2.054   2.098   7.170
 4106SOL     OW12703   3.494   3.239   5.667
 4106SOL    HW112704   3.462   3.333   5.657
 4106SOL    HW212705   3.418   3.176   5.655
 4107SOL     OW12706   2.326   3.605   5.909
 4107SOL    HW112707   2.359   3.644   5.995
 4107SOL    HW212708   2.402   3.598   5.844
 4108SOL     OW12709   3.262   1.969   6.012
 4108SOL    HW112710   3.238   1.932   5.922
 4108SOL    HW212711   3.361   1.985   6.016
 4109SOL     OW12712   2.111   3.647   6.827
 4109SOL    HW112713   2.168   3.582   6.877
 4109SOL    HW212714   2.095   3.614   6.734
 4110SOL     OW12715   2.802   3.560   6.490
 4110SOL    HW112716   2.882   3.503   6.511
 4110SOL    HW212717   2.753   3.520   6.413
 4111SOL     OW12718   2.244   2.562   6.066
 4111SOL    HW112719   2.289   2.472   6.063
 4111SOL    HW212720   2.150   2.551   6.099
 4112SOL     OW12721   3.409   2.084   7.315
 4112SOL    HW112722   3.404   2.121   7.407
 4112SOL    HW212723   3.337   2.015   7.303
 4113SOL     OW12724   2.476   1.984   5.703
 4113SOL    HW112725   2.574   1.962   5.710
 4113SOL    HW212726   2.445   1.967   5.610
 4114SOL     OW12727   2.643   2.126   7.335
 4114SOL    HW112728   2.710   2.065   7.378
 4114SOL    HW212729   2.570   2.145   7.400
 4115SOL     OW12730   2.750   3.376   6.781
 4115SOL    HW112731   2.727   3.351   6.687
 4115SOL    HW212732   2.811   3.307   6.820
 4116SOL     OW12733   3.213   2.452   7.019
 4116SOL    HW112734   3.241   2.409   7.104
 4116SOL    HW212735   3.238   2.548   7.020
 4117SOL     OW12736   2.665   3.264   6.510
 4117SOL    HW112737   2.755   3.278   6.468
 4117SOL    HW212738   2.594   3.266   6.439
 4118SOL     OW12739   2.784   2.365   6.485
 4118SOL    HW112740   2.759   2.356   6.389
 4118SOL    HW212741   2.832   2.283   6.516
 4119SOL     OW12742   2.401   1.926   6.098
 4119SOL    HW112743   2.320   1.927   6.156
 4119SOL    HW212744   2.404   2.009   6.043
 4120SOL     OW12745   3.296   3.050   5.627
 4120SOL    HW112746   3.328   2.974   5.684
 4120SOL    HW212747   3.204   3.077   5.657
 4121SOL     OW12748   2.159   1.897   5.757
 4121SOL    HW112749   2.208   1.981   5.736
 4121SOL    HW212750   2.221   1.832   5.802
 4122SOL     OW12751   2.797   2.098   6.066
 4122SOL    HW112752   2.749   2.139   5.988
 4122SOL    HW212753   2.896   2.096   6.047
 4123SOL     OW12754   2.938   2.545   7.050
 4123SOL    HW112755   2.858   2.484   7.053
 4123SOL    HW212756   3.019   2.492   7.026
 4124SOL     OW12757   3.089   3.432   6.379
 4124SOL    HW112758   3.110   3.506   6.314
 4124SOL    HW212759   3.157   3.432   6.452
 4125SOL     OW12760   2.321   3.014   6.327
 4125SOL    HW112761   2.250   2.987   6.392
 4125SOL    HW212762   2.295   2.986   6.234
 4126SOL     OW12763   3.133   3.659   6.177
 4126SOL    HW112764   3.177   3.723   6.113
 4126SOL    HW212765   3.083   3.711   6.247
 4127SOL     OW12766   2.894   2.411   5.602
 4127SOL    HW112767   2.853   2.493   5.563
 4127SOL    HW212768   2.958   2.437   5.675
 4128SOL     OW12769   1.940   2.418   6.972
 4128SOL    HW112770   2.032   2.417   6.931
 4128SOL    HW212771   1.934   2.492   7.039
 4129SOL     OW12772   2.423   2.084   6.733
 4129SOL    HW112773   2.461   2.000   6.770
 4129SOL    HW212774   2.335   2.103   6.777
 4130SOL     OW12775   2.728   2.316   6.228
 4130SOL    HW112776   2.696   2.388   6.166
 4130SOL    HW212777   2.752   2.235   6.175
 4131SOL     OW12778   2.879   1.901   6.339
 4131SOL    HW112779   2.807   1.906   6.270
 4131SOL    HW212780   2.855   1.832   6.408
 4132SOL     OW12781   3.291   3.035   6.453
 4132SOL    HW112782   3.236   2.951   6.446
 4132SOL    HW212783   3.317   3.064   6.361
 4133SOL     OW12784   3.328   2.452   6.578
 4133SOL    HW112785   3.298   2.357   6.585
 4133SOL    HW212786   3.401   2.468   6.644
 4134SOL     OW12787   3.719   2.695   5.963
 4134SOL    HW112788   3.761   2.631   6.027
 4134SOL    HW212789   3.681   2.644   5.885
 4135SOL     OW12790   2.350   3.247   5.760
 4135SOL    HW112791   2.263   3.232   5.807
 4135SOL    HW212792   2.333   3.273   5.665
 4136SOL     OW12793   3.526   3.142   6.243
 4136SOL    HW112794   3.625   3.150   6.257
 4136SOL    HW212795   3.481   3.226   6.274
 4137SOL     OW12796   3.252   2.437   5.664
 4137SOL    HW112797   3.198   2.416   5.745
 4137SOL    HW212798   3.343   2.396   5.673
 4138SOL     OW12799   2.389   2.118   5.914
 4138SOL    HW112800   2.416   2.059   5.839
 4138SOL    HW212801   2.389   2.213   5.883
 4139SOL     OW12802   3.616   3.085   7.174
 4139SOL    HW112803   3.707   3.046   7.161
 4139SOL    HW212804   3.624   3.181   7.198
 4140SOL     OW12805   2.926   3.209   6.926
 4140SOL    HW112806   2.846   3.186   6.981
 4140SOL    HW212807   3.009   3.183   6.975
 4141SOL     OW12808   3.454   3.491   7.211
 4141SOL    HW112809   3.481   3.525   7.121
 4141SOL    HW212810   3.533   3.453   7.257
 4142SOL     OW12811   2.973   3.057   6.686
 4142SOL    HW112812   2.933   3.101   6.767
 4142SOL    HW212813   2.932   3.094   6.603
 4143SOL     OW12814   3.500   2.961   6.665
 4143SOL    HW112815   3.505   3.042   6.724
 4143SOL    HW212816   3.414   2.963   6.614
 4144SOL     OW12817   2.777   1.951   6.988
 4144SOL    HW112818   2.802   1.931   6.893
 4144SOL    HW212819   2.849   2.007   7.030
 4145SOL     OW12820   2.842   2.978   7.305
 4145SOL    HW112821   2.743   2.984   7.315
 4145SOL    HW212822   2.865   2.898   7.249
 4146SOL     OW12823   2.272   2.675   6.837
 4146SOL    HW112824   2.358   2.687   6.887
 4146SOL    HW212825   2.230   2.588   6.864
 4147SOL     OW12826   3.136   2.248   6.848
 4147SOL    HW112827   3.157   2.322   6.912
 4147SOL    HW212828   3.047   2.265   6.805
 4148SOL     OW12829   1.926   3.426   6.917
 4148SOL    HW112830   1.880   3.508   6.883
 4148SOL    HW212831   2.024   3.445   6.926
 4149SOL     OW12832   2.229   2.962   6.087
 4149SOL    HW112833   2.222   3.045   6.031
 4149SOL    HW212834   2.233   2.882   6.027
 4150SOL     OW12835   2.428   2.399   6.451
 4150SOL    HW112836   2.440   2.465   6.377
 4150SOL    HW212837   2.474   2.433   6.534
 4151SOL     OW12838   3.114   3.210   5.974
 4151SOL    HW112839   3.164   3.287   6.014
 4151SOL    HW212840   3.019   3.212   6.006
 4152SOL     OW12841   3.134   3.307   6.728
 4152SOL    HW112842   3.181   3.320   6.815
 4152SOL    HW212843   3.068   3.233   6.737
 4153SOL     OW12844   3.444   2.501   6.058
 4153SOL    HW112845   3.413   2.562   6.131
 4153SOL    HW212846   3.494   2.553   5.989
 4154SOL     OW12847   2.216   3.372   6.915
 4154SOL    HW112848   2.195   3.328   6.828
 4154SOL    HW212849   2.313   3.398   6.918
 4155SOL     OW12850   2.264   2.613   7.184
 4155SOL    HW112851   2.332   2.668   7.137
 4155SOL    HW212852   2.304   2.525   7.211
 4156SOL     OW12853   3.449   2.641   7.256
 4156SOL    HW112854   3.357   2.679   7.251
 4156SOL    HW212855   3.509   2.688   7.191
 4157SOL     OW12856   2.875   1.967   7.356
 4157SOL    HW112857   2.881   2.052   7.304
 4157SOL    HW212858   2.907   1.891   7.299
 4158SOL     OW12859   2.366   1.912   7.326
 4158SOL    HW112860   2.324   1.855   7.256
 4158SOL    HW212861   2.300   1.981   7.358
 4159SOL     OW12862   3.222   2.724   6.631
 4159SOL    HW112863   3.147   2.724   6.565
 4159SOL    HW212864   3.259   2.632   6.640
 4160SOL     OW12865   3.071   2.387   5.861
 4160SOL    HW112866   3.084   2.303   5.915
 4160SOL    HW212867   3.042   2.461   5.921
 4161SOL     OW12868   2.169   2.075   6.817
 4161SOL    HW112869   2.146   2.112   6.907
 4161SOL    HW212870   2.139   1.980   6.811
 4162SOL     OW12871   1.899   3.172   6.868
 4162SOL    HW112872   1.952   3.123   6.936
 4162SOL    HW212873   1.921   3.270   6.873
 4163SOL     OW12874   3.590   2.797   7.440
 4163SOL    HW112875   3.544   2.790   7.351
 4163SOL    HW212876   3.528   2.841   7.506
 4164SOL     OW12877   2.169   1.925   6.204
 4164SOL    HW112878   2.158   2.019   6.237
 4164SOL    HW212879   2.164   1.862   6.281
 4165SOL     OW12880   3.484   2.229   5.960
 4165SOL    HW112881   3.486   2.153   6.024
 4165SOL    HW212882   3.436   2.306   6.000
 4166SOL     OW12883   2.842   3.435   7.286
 4166SOL    HW112884   2.822   3.479   7.198
 4166SOL    HW212885   2.881   3.344   7.270
 4167SOL     OW12886   3.721   3.380   7.191
 4167SOL    HW112887   3.735   3.407   7.096
 4167SOL    HW212888   3.804   3.402   7.244
 4168SOL     OW12889   2.212   2.760   7.390
 4168SOL    HW112890   2.288   2.804   7.438
 4168SOL    HW212891   2.247   2.713   7.308
 4169SOL     OW12892   3.402   2.136   5.711
 4169SOL    HW112893   3.341   2.061   5.734
 4169SOL    HW212894   3.424   2.188   5.794
 4170SOL     OW12895   3.165   2.700   5.628
 4170SOL    HW112896   3.199   2.607   5.643
 4170SOL    HW212897   3.183   2.727   5.533
 4171SOL     OW12898   2.930   3.195   6.435
 4171SOL    HW112899   2.937   3.111   6.380
 4171SOL    HW212900   2.992   3.264   6.399
 4172SOL     OW12901   2.181   2.672   6.535
 4172SOL    HW112902   2.274   2.708   6.540
 4172SOL    HW212903   2.175   2.587   6.587
 4173SOL     OW12904   2.201   2.371   6.592
 4173SOL    HW112905   2.149   2.288   6.575
 4173SOL    HW212906   2.278   2.376   6.528
 4174SOL     OW12907   3.000   2.242   7.264
 4174SOL    HW112908   2.955   2.305   7.328
 4174SOL    HW212909   3.093   2.273   7.247
 4175SOL     OW12910   3.022   2.069   7.063
 4175SOL    HW112911   3.022   2.133   7.140
 4175SOL    HW212912   3.050   2.117   6.980
 4176SOL     OW12913   1.870   3.188   5.786
 4176SOL    HW112914   1.777   3.209   5.755
 4176SOL    HW212915   1.880   3.089   5.799
 4177SOL     OW12916   1.950   3.663   6.513
 4177SOL    HW112917   1.908   3.577   6.486
 4177SOL    HW212918   2.044   3.666   6.479
 4178SOL     OW12919   2.366   3.430   6.496
 4178SOL    HW112920   2.432   3.504   6.505
 4178SOL    HW212921   2.410   3.351   6.454
 4179SOL     OW12922   1.902   2.406   6.700
 4179SOL    HW112923   1.987   2.373   6.659
 4179SOL    HW212924   1.915   2.421   6.798
 4180SOL     OW12925   2.051   2.382   7.308
 4180SOL    HW112926   2.110   2.342   7.238
 4180SOL    HW212927   1.993   2.453   7.267
 4181SOL     OW12928   3.231   2.812   7.246
 4181SOL    HW112929   3.270   2.901   7.266
 4181SOL    HW212930   3.241   2.792   7.149
 4182SOL     OW12931   2.677   2.434   5.911
 4182SOL    HW112932   2.684   2.345   5.865
 4182SOL    HW212933   2.583   2.468   5.903
 4183SOL     OW12934   3.519   2.466   6.792
 4183SOL    HW112935   3.481   2.397   6.854
 4183SOL    HW212936   3.601   2.430   6.748
 4184SOL     OW12937   2.114   3.426   7.330
 4184SOL    HW112938   2.084   3.483   7.406
 4184SOL    HW212939   2.107   3.329   7.356
 4185SOL     OW12940   2.533   2.326   6.855
 4185SOL    HW112941   2.499   2.237   6.825
 4185SOL    HW212942   2.559   2.380   6.775
 4186SOL     OW12943   2.792   3.540   7.051
 4186SOL    HW112944   2.768   3.522   6.956
 4186SOL    HW212945   2.822   3.634   7.061
 4187SOL     OW12946   2.335   2.362   5.777
 4187SOL    HW112947   2.396   2.442   5.781
 4187SOL    HW212948   2.240   2.393   5.784
 4188SOL     OW12949   2.021   2.999   7.052
 4188SOL    HW112950   2.043   2.938   7.128
 4188SOL    HW212951   2.031   2.950   6.966
 4189SOL     OW12952   3.209   2.921   6.820
 4189SOL    HW112953   3.233   2.858   6.746
 4189SOL    HW212954   3.119   2.961   6.802
 4190SOL     OW12955   3.164   2.717   5.895
 4190SOL    HW112956   3.078   2.686   5.937
 4190SOL    HW212957   3.160   2.703   5.796
 4191SOL     OW12958   3.621   3.609   6.740
 4191SOL    HW112959   3.682   3.639   6.667
 4191SOL    HW212960   3.583   3.520   6.718
 4192SOL     OW12961   3.114   3.593   6.714
 4192SOL    HW112962   3.198   3.598   6.660
 4192SOL    HW212963   3.091   3.497   6.732
 4193SOL     OW12964   1.945   3.120   6.608
 4193SOL    HW112965   1.940   3.119   6.708
 4193SOL    HW212966   1.862   3.079   6.570
 4194SOL     OW12967   2.550   3.524   7.302
 4194SOL    HW112968   2.494   3.605   7.311
 4194SOL    HW212969   2.602   3.528   7.216
 4195SOL     OW12970   3.588   1.997   6.109
 4195SOL    HW112971   3.661   1.980   6.042
 4195SOL    HW212972   3.557   1.910   6.147
 4196SOL     OW12973   3.250   3.435   6.063
 4196SOL    HW112974   3.317   3.447   5.989
 4196SOL    HW212975   3.210   3.524   6.086
 4197SOL     OW12976   1.992   3.656   7.437
 4197SOL    HW112977   1.951   3.582   7.490
 4197SOL    HW212978   2.056   3.707   7.495
 4198SOL     OW12979   3.142   2.789   6.258
 4198SOL    HW112980   3.202   2.708   6.260
 4198SOL    HW212981   3.182   2.858   6.198
 4199SOL     OW12982   2.692   3.135   7.008
 4199SOL    HW112983   2.687   3.168   7.103
 4199SOL    HW212984   2.606   3.154   6.962
 4200SOL     OW12985   2.534   3.478   5.740
 4200SOL    HW112986   2.543   3.488   5.641
 4200SOL    HW212987   2.494   3.389   5.761
 4201SOL     OW12988   3.512   3.582   6.980
 4201SOL    HW112989   3.565   3.592   6.896
 4201SOL    HW212990   3.485   3.672   7.014
 4202SOL     OW12991   3.703   2.037   6.549
 4202SOL    HW112992   3.742   1.952   6.513
 4202SOL    HW212993   3.605   2.039   6.530
 4203SOL     OW12994   2.125   2.188   6.306
 4203SOL    HW112995   2.046   2.239   6.272
 4203SOL    HW212996   2.116   2.173   6.404
 4204SOL     OW12997   3.056   3.474   5.617
 4204SOL    HW112998   3.062   3.381   5.654
 4204SOL    HW212999   2.997   3.474   5.537
 4205SOL     OW13000   3.366   3.469   5.630
 4205SOL    HW113001   3.274   3.506   5.637
 4205SOL    HW213002   3.404   3.489   5.540
 4206SOL     OW13003   2.234   3.150   7.076
 4206SOL    HW113004   2.221   3.243   7.042
 4206SOL    HW213005   2.150   3.098   7.063
 4207SOL     OW13006   3.476   3.154   6.875
 4207SOL    HW113007   3.536   3.157   6.955
 4207SOL    HW213008   3.401   3.218   6.888
 4208SOL     OW13009   2.901   2.960   6.282
 4208SOL    HW113010   2.831   2.913   6.336
 4208SOL    HW213011   2.960   2.892   6.239
 4209SOL     OW13012   2.876   2.098   6.557
 4209SOL    HW113013   2.868   2.062   6.464
 4209SOL    HW213014   2.874   2.022   6.622
 4210SOL     OW13015   2.452   3.349   6.077
 4210SOL    HW113016   2.494   3.291   6.007
 4210SOL    HW213017   2.408   3.428   6.033
 4211SOL     OW13018   3.571   2.247   6.967
 4211SOL    HW113019   3.644   2.316   6.971
 4211SOL    HW213020   3.599   2.172   6.908
 4212SOL     OW13021   2.117   3.210   5.876
 4212SOL    HW113022   2.021   3.211   5.849
 4212SOL    HW213023   2.129   3.263   5.960
 4213SOL     OW13024   1.967   2.875   7.312
 4213SOL    HW113025   1.890   2.842   7.366
 4213SOL    HW213026   2.052   2.845   7.354
 4214SOL     OW13027   2.534   2.065   7.075
 4214SOL    HW113028   2.624   2.049   7.035
 4214SOL    HW213029   2.542   2.070   7.174
 4215SOL     OW13030   1.937   2.207   5.619
 4215SOL    HW113031   1.845   2.179   5.590
 4215SOL    HW213032   1.968   2.284   5.563
 4216SOL     OW13033   3.302   2.718   6.984
 4216SOL    HW113034   3.245   2.770   6.921
 4216SOL    HW213035   3.398   2.730   6.960
 4217SOL     OW13036   1.934   2.028   5.904
 4217SOL    HW113037   1.917   2.111   5.850
 4217SOL    HW213038   2.024   1.991   5.882
 4218SOL     OW13039   3.045   3.197   5.705
 4218SOL    HW113040   2.946   3.186   5.707
 4218SOL    HW213041   3.079   3.212   5.798
 4219SOL     OW13042   3.355   3.629   6.545
 4219SOL    HW113043   3.388   3.693   6.476
 4219SOL    HW213044   3.421   3.623   6.620
 4220SOL     OW13045   3.312   3.082   7.219
 4220SOL    HW113046   3.303   3.072   7.318
 4220SOL    HW213047   3.408   3.075   7.193
 4221SOL     OW13048   2.252   3.603   7.146
 4221SOL    HW113049   2.161   3.644   7.144
 4221SOL    HW213050   2.245   3.509   7.178
 4222SOL     OW13051   3.536   2.745   6.840
 4222SOL    HW113052   3.509   2.656   6.803
 4222SOL    HW213053   3.537   2.813   6.767
 4223SOL     OW13054   3.087   2.187   6.035
 4223SOL    HW113055   3.152   2.113   6.024
 4223SOL    HW213056   3.107   2.237   6.119
 4224SOL     OW13057   3.639   2.204   7.228
 4224SOL    HW113058   3.622   2.235   7.134
 4224SOL    HW213059   3.555   2.167   7.266
 4225SOL     OW13060   3.592   2.796   7.103
 4225SOL    HW113061   3.630   2.887   7.118
 4225SOL    HW213062   3.584   2.779   7.004
 4226SOL     OW13063   2.721   3.236   5.602
 4226SOL    HW113064   2.675   3.251   5.690
 4226SOL    HW213065   2.765   3.321   5.572
 4227SOL     OW13066   2.523   3.652   6.539
 4227SOL    HW113067   2.477   3.740   6.526
 4227SOL    HW213068   2.622   3.664   6.532
 4228SOL     OW13069   2.945   2.846   5.673
 4228SOL    HW113070   2.922   2.899   5.591
 4228SOL    HW213071   3.026   2.790   5.654
 4229SOL     OW13072   3.723   3.431   6.437
 4229SOL    HW113073   3.652   3.419   6.367
 4229SOL    HW213074   3.724   3.352   6.497
 4230SOL     OW13075   2.083   3.176   7.430
 4230SOL    HW113076   2.018   3.103   7.409
 4230SOL    HW213077   2.087   3.190   7.528
 4231SOL     OW13078   1.941   3.102   6.239
 4231SOL    HW113079   1.940   3.055   6.327
 4231SOL    HW213080   2.023   3.074   6.188
 4232SOL     OW13081   2.534   3.253   7.210
 4232SOL    HW113082   2.456   3.203   7.248
 4232SOL    HW213083   2.531   3.348   7.241
 4233SOL     OW13084   3.686   2.054   6.813
 4233SOL    HW113085   3.682   1.964   6.857
 4233SOL    HW213086   3.689   2.043   6.714
 4234SOL     OW13087   2.290   2.286   6.106
 4234SOL    HW113088   2.320   2.214   6.044
 4234SOL    HW213089   2.251   2.246   6.189
 4235SOL     OW13090   3.567   3.349   6.690
 4235SOL    HW113091   3.474   3.324   6.663
 4235SOL    HW213092   3.593   3.299   6.772
 4236SOL     OW13093   2.179   2.409   6.866
 4236SOL    HW113094   2.217   2.350   6.938
 4236SOL    HW213095   2.219   2.383   6.778
 4237SOL     OW13096   2.674   3.448   6.273
 4237SOL    HW113097   2.706   3.458   6.179
 4237SOL    HW213098   2.595   3.386   6.275
 4238SOL     OW13099   3.286   2.076   6.698
 4238SOL    HW113100   3.338   2.011   6.753
 4238SOL    HW213101   3.237   2.139   6.759
 4239SOL     OW13102   2.863   1.896   6.740
 4239SOL    HW113103   2.800   1.824   6.709
 4239SOL    HW213104   2.956   1.860   6.740
 4240SOL     OW13105   2.632   3.192   5.887
 4240SOL    HW113106   2.586   3.105   5.904
 4240SOL    HW213107   2.723   3.189   5.928
 4241SOL     OW13108   2.480   3.429   6.870
 4241SOL    HW113109   2.475   3.511   6.927
 4241SOL    HW213110   2.569   3.426   6.825
 4242SOL     OW13111   3.214   1.914   5.754
 4242SOL    HW113112   3.249   1.873   5.670
 4242SOL    HW213113   3.124   1.876   5.774
 4243SOL     OW13114   3.162   2.315   6.277
 4243SOL    HW113115   3.103   2.395   6.281
 4243SOL    HW213116   3.177   2.280   6.370
 4244SOL     OW13117   3.455   2.083   6.468
 4244SOL    HW113118   3.371   2.082   6.522
 4244SOL    HW213119   3.457   2.166   6.412
 4245SOL     OW13120   1.901   2.939   5.886
 4245SOL    HW113121   2.000   2.928   5.877
 4245SOL    HW213122   1.861   2.853   5.918
 4246SOL     OW13123   2.737   3.508   5.923
 4246SOL    HW113124   2.660   3.473   5.869
 4246SOL    HW213125   2.705   3.579   5.985
 4247SOL     OW13126   2.092   2.490   7.561
 4247SOL    HW113127   1.999   2.488   7.598
 4247SOL    HW213128   2.093   2.451   7.469
 4248SOL     OW13129   3.617   2.469   7.679
 4248SOL    HW113130   3.605   2.456   7.580
 4248SOL    HW213131   3.587   2.388   7.728
 4249SOL     OW13132   2.093   3.575   7.931
 4249SOL    HW113133   2.127   3.652   7.985
 4249SOL    HW213134   2.137   3.575   7.841
 4250SOL     OW13135   2.092   3.296   7.986
 4250SOL    HW113136   2.066   3.392   7.986
 4250SOL    HW213137   2.021   3.242   8.031
 4251SOL     OW13138   2.468   2.826   7.571
 4251SOL    HW113139   2.475   2.910   7.517
 4251SOL    HW213140   2.514   2.839   7.659
 4252SOL     OW13141   3.704   3.629   7.807
 4252SOL    HW113142   3.758   3.600   7.887
 4252SOL    HW213143   3.734   3.719   7.778
 4253SOL     OW13144   1.889   3.458   7.565
 4253SOL    HW113145   1.870   3.362   7.586
 4253SOL    HW213146   1.856   3.516   7.640
 4254SOL     OW13147   3.551   2.784   8.060
 4254SOL    HW113148   3.646   2.755   8.068
 4254SOL    HW213149   3.543   2.849   7.985
 4255SOL     OW13150   3.503   2.970   7.880
 4255SOL    HW113151   3.589   2.972   7.828
 4255SOL    HW213152   3.517   3.017   7.968
 4256SOL     OW13153   2.671   1.866   7.950
 4256SOL    HW113154   2.711   1.957   7.941
 4256SOL    HW213155   2.571   1.874   7.956
 4257SOL     OW13156   3.387   2.861   7.638
 4257SOL    HW113157   3.324   2.785   7.651
 4257SOL    HW213158   3.435   2.879   7.724
 4258SOL     OW13159   3.438   3.524   7.755
 4258SOL    HW113160   3.527   3.570   7.758
 4258SOL    HW213161   3.417   3.500   7.660
 4259SOL     OW13162   1.938   2.673   8.237
 4259SOL    HW113163   2.037   2.661   8.246
 4259SOL    HW213164   1.914   2.768   8.258
 4260SOL     OW13165   2.727   2.210   7.643
 4260SOL    HW113166   2.786   2.273   7.594
 4260SOL    HW213167   2.746   2.116   7.614
 4261SOL     OW13168   2.183   2.805   7.690
 4261SOL    HW113169   2.265   2.844   7.648
 4261SOL    HW213170   2.156   2.723   7.641
 4262SOL     OW13171   2.973   3.638   7.685
 4262SOL    HW113172   2.913   3.576   7.735
 4262SOL    HW213173   3.004   3.594   7.600
 4263SOL     OW13174   3.494   3.239   7.529
 4263SOL    HW113175   3.462   3.333   7.519
 4263SOL    HW213176   3.418   3.176   7.517
 4264SOL     OW13177   2.326   3.605   7.771
 4264SOL    HW113178   2.359   3.644   7.857
 4264SOL    HW213179   2.402   3.598   7.706
 4265SOL     OW13180   3.262   1.969   7.874
 4265SOL    HW113181   3.238   1.932   7.784
 4265SOL    HW213182   3.361   1.985   7.878
 4266SOL     OW13183   2.244   2.562   7.928
 4266SOL    HW113184   2.289   2.472   7.925
 4266SOL    HW213185   2.150   2.551   7.961
 4267SOL     OW13186   2.476   1.984   7.565
 4267SOL    HW113187   2.574   1.962   7.572
 4267SOL    HW213188   2.445   1.967   7.472
 4268SOL     OW13189   2.401   1.926   7.960
 4268SOL    HW113190   2.320   1.927   8.018
 4268SOL    HW213191   2.404   2.009   7.905
 4269SOL     OW13192   3.296   3.050   7.489
 4269SOL    HW113193   3.328   2.974   7.546
 4269SOL    HW213194   3.204   3.077   7.519
 4270SOL     OW13195   2.159   1.897   7.619
 4270SOL    HW113196   2.208   1.981   7.598
 4270SOL    HW213197   2.221   1.832   7.664
 4271SOL     OW13198   2.797   2.098   7.928
 4271SOL    HW113199   2.749   2.139   7.850
 4271SOL    HW213200   2.896   2.096   7.909
 4272SOL     OW13201   2.321   3.014   8.189
 4272SOL    HW113202   2.250   2.987   8.254
 4272SOL    HW213203   2.295   2.986   8.096
 4273SOL     OW13204   3.133   3.659   8.039
 4273SOL    HW113205   3.177   3.723   7.975
 4273SOL    HW213206   3.083   3.711   8.109
 4274SOL     OW13207   2.894   2.411   7.464
 4274SOL    HW113208   2.853   2.493   7.425
 4274SOL    HW213209   2.958   2.437   7.537
 4275SOL     OW13210   3.719   2.695   7.825
 4275SOL    HW113211   3.761   2.631   7.889
 4275SOL    HW213212   3.681   2.644   7.747
 4276SOL     OW13213   2.350   3.247   7.622
 4276SOL    HW113214   2.263   3.232   7.669
 4276SOL    HW213215   2.333   3.273   7.527
 4277SOL     OW13216   3.252   2.437   7.526
 4277SOL    HW113217   3.198   2.416   7.607
 4277SOL    HW213218   3.343   2.396   7.535
 4278SOL     OW13219   2.389   2.118   7.776
 4278SOL    HW113220   2.416   2.059   7.701
 4278SOL    HW213221   2.389   2.213   7.745
 4279SOL     OW13222   2.567   2.912   7.816
 4279SOL    HW113223   2.553   2.919   7.915
 4279SOL    HW213224   2.651   2.861   7.798
 4280SOL     OW13225   2.229   2.962   7.949
 4280SOL    HW113226   2.222   3.045   7.893
 4280SOL    HW213227   2.233   2.882   7.889
 4281SOL     OW13228   3.114   3.210   7.836
 4281SOL    HW113229   3.164   3.287   7.876
 4281SOL    HW213230   3.019   3.212   7.868
 4282SOL     OW13231   3.444   2.501   7.920
 4282SOL    HW113232   3.413   2.562   7.993
 4282SOL    HW213233   3.494   2.553   7.851
 4283SOL     OW13234   3.071   2.387   7.723
 4283SOL    HW113235   3.084   2.303   7.777
 4283SOL    HW213236   3.042   2.461   7.783
 4284SOL     OW13237   3.484   2.229   7.822
 4284SOL    HW113238   3.486   2.153   7.886
 4284SOL    HW213239   3.436   2.306   7.862
 4285SOL     OW13240   3.402   2.136   7.573
 4285SOL    HW113241   3.341   2.061   7.596
 4285SOL    HW213242   3.424   2.188   7.656
 4286SOL     OW13243   3.165   2.700   7.490
 4286SOL    HW113244   3.199   2.607   7.505
 4286SOL    HW213245   3.183   2.727   7.395
 4287SOL     OW13246   1.870   3.188   7.648
 4287SOL    HW113247   1.777   3.209   7.617
 4287SOL    HW213248   1.880   3.089   7.661
 4288SOL     OW13249   2.335   2.362   7.639
 4288SOL    HW113250   2.396   2.442   7.643
 4288SOL    HW213251   2.240   2.393   7.646
 4289SOL     OW13252   3.164   2.717   7.757
 4289SOL    HW113253   3.078   2.686   7.799
 4289SOL    HW213254   3.160   2.703   7.658
 4290SOL     OW13255   3.588   1.997   7.971
 4290SOL    HW113256   3.661   1.980   7.904
 4290SOL    HW213257   3.557   1.910   8.009
 4291SOL     OW13258   3.250   3.435   7.925
 4291SOL    HW113259   3.317   3.447   7.851
 4291SOL    HW213260   3.210   3.524   7.948
 4292SOL     OW13261   2.534   3.478   7.602
 4292SOL    HW113262   2.543   3.488   7.503
 4292SOL    HW213263   2.494   3.389   7.623
 4293SOL     OW13264   3.056   3.474   7.479
 4293SOL    HW113265   3.062   3.381   7.516
 4293SOL    HW213266   2.997   3.474   7.399
 4294SOL     OW13267   3.366   3.469   7.492
 4294SOL    HW113268   3.274   3.506   7.499
 4294SOL    HW213269   3.404   3.489   7.402
 4295SOL     OW13270   2.452   3.349   7.939
 4295SOL    HW113271   2.494   3.291   7.869
 4295SOL    HW213272   2.408   3.428   7.895
 4296SOL     OW13273   2.117   3.210   7.738
 4296SOL    HW113274   2.021   3.211   7.711
 4296SOL    HW213275   2.129   3.263   7.822
 4297SOL     OW13276   1.937   2.207   7.481
 4297SOL    HW113277   1.845   2.179   7.452
 4297SOL    HW213278   1.968   2.284   7.425
 4298SOL     OW13279   1.934   2.028   7.766
 4298SOL    HW113280   1.917   2.111   7.712
 4298SOL    HW213281   2.024   1.991   7.744
 4299SOL     OW13282   3.045   3.197   7.567
 4299SOL    HW113283   2.946   3.186   7.569
 4299SOL    HW213284   3.079   3.212   7.660
 4300SOL     OW13285   3.087   2.187   7.897
 4300SOL    HW113286   3.152   2.113   7.886
 4300SOL    HW213287   3.107   2.237   7.981
 4301SOL     OW13288   2.721   3.236   7.464
 4301SOL    HW113289   2.675   3.251   7.552
 4301SOL    HW213290   2.765   3.321   7.434
 4302SOL     OW13291   2.945   2.846   7.535
 4302SOL    HW113292   2.922   2.899   7.453
 4302SOL    HW213293   3.026   2.790   7.516
 4303SOL     OW13294   2.290   2.286   7.968
 4303SOL    HW113295   2.320   2.214   7.906
 4303SOL    HW213296   2.251   2.246   8.051
 4304SOL     OW13297   2.632   3.192   7.749
 4304SOL    HW113298   2.586   3.105   7.766
 4304SOL    HW213299   2.723   3.189   7.790
 4305SOL     OW13300   3.214   1.914   7.616
 4305SOL    HW113301   3.249   1.873   7.532
 4305SOL    HW213302   3.124   1.876   7.636
 4306SOL     OW13303   1.901   2.939   7.748
 4306SOL    HW113304   2.000   2.928   7.739
 4306SOL    HW213305   1.861   2.853   7.780
 4307SOL     OW13306   2.737   3.508   7.785
 4307SOL    HW113307   2.660   3.473   7.731
 4307SOL    HW213308   2.705   3.579   7.847
 4308SOL     OW13309   2.092   4.352   0.113
 4308SOL    HW113310   1.999   4.350   0.150
 4308SOL    HW213311   2.093   4.313   0.021
 4309SOL     OW13312   2.087   3.999   0.996
 4309SOL    HW113313   2.122   3.982   1.088
 4309SOL    HW213314   1.999   3.954   0.984
 4310SOL     OW13315   1.881   4.092   0.647
 4310SOL    HW113316   1.799   4.135   0.686
 4310SOL    HW213317   1.853   4.019   0.584
 4311SOL     OW13318   2.431   4.999   1.165
 4311SOL    HW113319   2.338   4.992   1.128
 4311SOL    HW213320   2.442   5.088   1.209
 4312SOL     OW13321   3.417   5.235   0.703
 4312SOL    HW113322   3.360   5.219   0.784
 4312SOL    HW213323   3.358   5.245   0.623
 4313SOL     OW13324   2.997   4.427   0.717
 4313SOL    HW113325   3.054   4.505   0.692
 4313SOL    HW213326   2.937   4.453   0.793
 4314SOL     OW13327   3.617   4.331   0.231
 4314SOL    HW113328   3.605   4.318   0.132
 4314SOL    HW213329   3.587   4.250   0.280
 4315SOL     OW13330   2.630   4.868   1.023
 4315SOL    HW113331   2.552   4.885   1.083
 4315SOL    HW213332   2.664   4.955   0.987
 4316SOL     OW13333   2.712   4.522   1.823
 4316SOL    HW113334   2.708   4.598   1.888
 4316SOL    HW213335   2.734   4.558   1.732
 4317SOL     OW13336   2.547   4.736   0.665
 4317SOL    HW113337   2.616   4.720   0.735
 4317SOL    HW213338   2.474   4.793   0.703
 4318SOL     OW13339   2.548   4.885   1.803
 4318SOL    HW113340   2.608   4.964   1.817
 4318SOL    HW213341   2.462   4.916   1.762
 4319SOL     OW13342   2.197   5.159   1.061
 4319SOL    HW113343   2.119   5.128   1.008
 4319SOL    HW213344   2.255   5.217   1.004
 4320SOL     OW13345   3.322   5.229   1.339
 4320SOL    HW113346   3.346   5.323   1.365
 4320SOL    HW213347   3.306   5.175   1.421
 4321SOL     OW13348   2.300   4.116   1.499
 4321SOL    HW113349   2.382   4.060   1.508
 4321SOL    HW213350   2.219   4.058   1.503
 4322SOL     OW13351   3.465   4.171   0.737
 4322SOL    HW113352   3.391   4.217   0.687
 4322SOL    HW213353   3.516   4.239   0.790
 4323SOL     OW13354   2.989   5.065   1.690
 4323SOL    HW113355   3.036   5.065   1.778
 4323SOL    HW213356   2.941   4.978   1.679
 4324SOL     OW13357   2.092   5.158   0.538
 4324SOL    HW113358   2.066   5.254   0.538
 4324SOL    HW213359   2.021   5.104   0.583
 4325SOL     OW13360   2.102   4.815   0.886
 4325SOL    HW113361   2.116   4.731   0.938
 4325SOL    HW213362   2.047   4.879   0.941
 4326SOL     OW13363   2.468   4.688   0.123
 4326SOL    HW113364   2.475   4.772   0.069
 4326SOL    HW213365   2.514   4.701   0.211
 4327SOL     OW13366   3.456   3.838   1.480
 4327SOL    HW113367   3.438   3.905   1.408
 4327SOL    HW213368   3.453   3.884   1.569
 4328SOL     OW13369   1.984   4.367   0.563
 4328SOL    HW113370   1.939   4.279   0.580
 4328SOL    HW213371   1.983   4.421   0.647
 4329SOL     OW13372   1.889   5.320   0.117
 4329SOL    HW113373   1.870   5.224   0.138
 4329SOL    HW213374   1.856   5.378   0.192
 4330SOL     OW13375   3.551   4.646   0.612
 4330SOL    HW113376   3.646   4.617   0.620
 4330SOL    HW213377   3.543   4.711   0.537
 4331SOL     OW13378   3.503   4.832   0.432
 4331SOL    HW113379   3.589   4.834   0.380
 4331SOL    HW213380   3.517   4.879   0.520
 4332SOL     OW13381   1.975   4.461   1.597
 4332SOL    HW113382   2.063   4.448   1.642
 4332SOL    HW213383   1.962   4.558   1.575
 4333SOL     OW13384   2.475   5.089   0.726
 4333SOL    HW113385   2.426   5.002   0.735
 4333SOL    HW213386   2.452   5.132   0.639
 4334SOL     OW13387   3.155   4.952   1.423
 4334SOL    HW113388   3.192   4.879   1.365
 4334SOL    HW213389   3.207   4.957   1.508
 4335SOL     OW13390   2.671   3.728   0.502
 4335SOL    HW113391   2.711   3.819   0.493
 4335SOL    HW213392   2.571   3.736   0.508
 4336SOL     OW13393   2.059   4.700   1.264
 4336SOL    HW113394   2.148   4.655   1.250
 4336SOL    HW213395   1.986   4.635   1.245
 4337SOL     OW13396   3.387   4.723   0.190
 4337SOL    HW113397   3.324   4.647   0.203
 4337SOL    HW213398   3.435   4.741   0.276
 4338SOL     OW13399   2.179   3.975   1.801
 4338SOL    HW113400   2.250   4.046   1.807
 4338SOL    HW213401   2.091   4.014   1.829
 4339SOL     OW13402   3.328   5.141   0.953
 4339SOL    HW113403   3.269   5.147   1.033
 4339SOL    HW213404   3.313   5.053   0.907
 4340SOL     OW13405   2.460   4.453   0.270
 4340SOL    HW113406   2.484   4.522   0.202
 4340SOL    HW213407   2.382   4.486   0.324
 4341SOL     OW13408   3.143   4.069   0.944
 4341SOL    HW113409   3.057   4.019   0.931
 4341SOL    HW213410   3.205   4.015   1.000
 4342SOL     OW13411   2.669   4.329   1.465
 4342SOL    HW113412   2.622   4.326   1.554
 4342SOL    HW213413   2.618   4.274   1.399
 4343SOL     OW13414   3.256   4.193   1.674
 4343SOL    HW113415   3.236   4.236   1.762
 4343SOL    HW213416   3.334   4.131   1.683
 4344SOL     OW13417   2.835   4.614   1.572
 4344SOL    HW113418   2.881   4.530   1.543
 4344SOL    HW213419   2.779   4.648   1.497
 4345SOL     OW13420   2.853   4.134   1.242
 4345SOL    HW113421   2.776   4.168   1.296
 4345SOL    HW213422   2.819   4.083   1.163
 4346SOL     OW13423   2.903   4.425   0.429
 4346SOL    HW113424   2.929   4.421   0.525
 4346SOL    HW213425   2.818   4.374   0.415
 4347SOL     OW13426   1.938   4.535   0.789
 4347SOL    HW113427   2.037   4.523   0.798
 4347SOL    HW213428   1.914   4.630   0.810
 4348SOL     OW13429   2.727   4.072   0.195
 4348SOL    HW113430   2.786   4.135   0.146
 4348SOL    HW213431   2.746   3.978   0.166
 4349SOL     OW13432   3.581   4.309   1.831
 4349SOL    HW113433   3.555   4.398   1.795
 4349SOL    HW213434   3.579   4.241   1.758
 4350SOL     OW13435   3.224   4.868   0.545
 4350SOL    HW113436   3.307   4.839   0.497
 4350SOL    HW213437   3.175   4.935   0.489
 4351SOL     OW13438   2.412   3.920   0.885
 4351SOL    HW113439   2.407   3.915   0.985
 4351SOL    HW213440   2.414   4.016   0.856
 4352SOL     OW13441   2.870   5.180   0.477
 4352SOL    HW113442   2.824   5.252   0.425
 4352SOL    HW213443   2.866   5.200   0.575
 4353SOL     OW13444   3.657   4.790   0.873
 4353SOL    HW113445   3.595   4.775   0.797
 4353SOL    HW213446   3.605   4.801   0.958
 4354SOL     OW13447   3.089   5.274   1.506
 4354SOL    HW113448   3.095   5.197   1.570
 4354SOL    HW213449   3.037   5.248   1.426
 4355SOL     OW13450   2.183   4.667   0.242
 4355SOL    HW113451   2.265   4.706   0.200
 4355SOL    HW213452   2.156   4.585   0.193
 4356SOL     OW13453   3.320   4.459   0.728
 4356SOL    HW113454   3.315   4.394   0.803
 4356SOL    HW213455   3.400   4.518   0.741
 4357SOL     OW13456   2.323   4.990   1.727
 4357SOL    HW113457   2.273   4.991   1.641
 4357SOL    HW213458   2.260   4.972   1.803
 4358SOL     OW13459   2.973   5.500   0.237
 4358SOL    HW113460   2.913   5.438   0.287
 4358SOL    HW213461   3.004   5.456   0.152
 4359SOL     OW13462   2.064   4.009   1.498
 4359SOL    HW113463   1.984   4.069   1.485
 4359SOL    HW213464   2.054   3.960   1.584
 4360SOL     OW13465   3.494   5.101   0.081
 4360SOL    HW113466   3.462   5.195   0.071
 4360SOL    HW213467   3.418   5.038   0.069
 4361SOL     OW13468   3.262   3.831   0.426
 4361SOL    HW113469   3.238   3.794   0.336
 4361SOL    HW213470   3.361   3.847   0.430
 4362SOL     OW13471   2.244   4.424   0.480
 4362SOL    HW113472   2.289   4.334   0.477
 4362SOL    HW213473   2.150   4.413   0.513
 4363SOL     OW13474   3.409   3.946   1.729
 4363SOL    HW113475   3.404   3.983   1.821
 4363SOL    HW213476   3.337   3.877   1.717
 4364SOL     OW13477   2.476   3.846   0.117
 4364SOL    HW113478   2.574   3.824   0.124
 4364SOL    HW213479   2.445   3.829   0.024
 4365SOL     OW13480   2.643   3.988   1.749
 4365SOL    HW113481   2.710   3.927   1.792
 4365SOL    HW213482   2.570   4.007   1.814
 4366SOL     OW13483   3.213   4.314   1.433
 4366SOL    HW113484   3.241   4.271   1.518
 4366SOL    HW213485   3.238   4.410   1.434
 4367SOL     OW13486   2.665   5.126   0.924
 4367SOL    HW113487   2.755   5.140   0.882
 4367SOL    HW213488   2.594   5.128   0.853
 4368SOL     OW13489   2.784   4.227   0.899
 4368SOL    HW113490   2.759   4.218   0.803
 4368SOL    HW213491   2.832   4.145   0.930
 4369SOL     OW13492   2.401   3.788   0.512
 4369SOL    HW113493   2.320   3.789   0.570
 4369SOL    HW213494   2.404   3.871   0.457
 4370SOL     OW13495   3.296   4.912   0.041
 4370SOL    HW113496   3.328   4.836   0.098
 4370SOL    HW213497   3.204   4.939   0.071
 4371SOL     OW13498   2.159   3.759   0.171
 4371SOL    HW113499   2.208   3.843   0.150
 4371SOL    HW213500   2.221   3.694   0.216
 4372SOL     OW13501   2.797   3.960   0.480
 4372SOL    HW113502   2.749   4.001   0.402
 4372SOL    HW213503   2.896   3.958   0.461
 4373SOL     OW13504   2.938   4.407   1.464
 4373SOL    HW113505   2.858   4.346   1.467
 4373SOL    HW213506   3.019   4.354   1.440
 4374SOL     OW13507   3.089   5.294   0.793
 4374SOL    HW113508   3.110   5.368   0.728
 4374SOL    HW213509   3.157   5.294   0.866
 4375SOL     OW13510   2.321   4.876   0.741
 4375SOL    HW113511   2.250   4.849   0.806
 4375SOL    HW213512   2.295   4.848   0.648
 4376SOL     OW13513   2.894   4.273   0.016
 4376SOL    HW113514   2.853   4.355  -0.023
 4376SOL    HW213515   2.958   4.299   0.089
 4377SOL     OW13516   1.940   4.280   1.386
 4377SOL    HW113517   2.032   4.279   1.345
 4377SOL    HW213518   1.934   4.354   1.453
 4378SOL     OW13519   2.423   3.946   1.147
 4378SOL    HW113520   2.461   3.862   1.184
 4378SOL    HW213521   2.335   3.965   1.191
 4379SOL     OW13522   2.728   4.178   0.642
 4379SOL    HW113523   2.696   4.250   0.580
 4379SOL    HW213524   2.752   4.097   0.589
 4380SOL     OW13525   2.879   3.763   0.753
 4380SOL    HW113526   2.807   3.768   0.684
 4380SOL    HW213527   2.855   3.694   0.822
 4381SOL     OW13528   3.291   4.897   0.867
 4381SOL    HW113529   3.236   4.813   0.860
 4381SOL    HW213530   3.317   4.926   0.775
 4382SOL     OW13531   3.328   4.314   0.992
 4382SOL    HW113532   3.298   4.219   0.999
 4382SOL    HW213533   3.401   4.330   1.058
 4383SOL     OW13534   3.719   4.557   0.377
 4383SOL    HW113535   3.761   4.493   0.441
 4383SOL    HW213536   3.681   4.506   0.299
 4384SOL     OW13537   2.350   5.109   0.174
 4384SOL    HW113538   2.263   5.094   0.221
 4384SOL    HW213539   2.333   5.135   0.079
 4385SOL     OW13540   3.526   5.004   0.657
 4385SOL    HW113541   3.625   5.012   0.671
 4385SOL    HW213542   3.481   5.088   0.688
 4386SOL     OW13543   3.252   4.299   0.078
 4386SOL    HW113544   3.198   4.278   0.159
 4386SOL    HW213545   3.343   4.258   0.087
 4387SOL     OW13546   2.389   3.980   0.328
 4387SOL    HW113547   2.416   3.921   0.253
 4387SOL    HW213548   2.389   4.075   0.297
 4388SOL     OW13549   3.616   4.947   1.588
 4388SOL    HW113550   3.707   4.908   1.575
 4388SOL    HW213551   3.624   5.043   1.612
 4389SOL     OW13552   2.926   5.071   1.340
 4389SOL    HW113553   2.846   5.048   1.395
 4389SOL    HW213554   3.009   5.045   1.389
 4390SOL     OW13555   2.973   4.919   1.100
 4390SOL    HW113556   2.933   4.963   1.181
 4390SOL    HW213557   2.932   4.956   1.017
 4391SOL     OW13558   3.500   4.823   1.079
 4391SOL    HW113559   3.505   4.904   1.138
 4391SOL    HW213560   3.414   4.825   1.028
 4392SOL     OW13561   2.777   3.813   1.402
 4392SOL    HW113562   2.802   3.793   1.307
 4392SOL    HW213563   2.849   3.869   1.444
 4393SOL     OW13564   2.842   4.840   1.719
 4393SOL    HW113565   2.743   4.846   1.729
 4393SOL    HW213566   2.865   4.760   1.663
 4394SOL     OW13567   2.567   4.774   0.368
 4394SOL    HW113568   2.553   4.781   0.467
 4394SOL    HW213569   2.651   4.723   0.350
 4395SOL     OW13570   2.272   4.537   1.251
 4395SOL    HW113571   2.358   4.549   1.301
 4395SOL    HW213572   2.230   4.450   1.278
 4396SOL     OW13573   3.136   4.110   1.262
 4396SOL    HW113574   3.157   4.184   1.326
 4396SOL    HW213575   3.047   4.127   1.219
 4397SOL     OW13576   2.229   4.824   0.501
 4397SOL    HW113577   2.222   4.907   0.445
 4397SOL    HW213578   2.233   4.744   0.441
 4398SOL     OW13579   2.428   4.261   0.865
 4398SOL    HW113580   2.440   4.327   0.791
 4398SOL    HW213581   2.474   4.295   0.948
 4399SOL     OW13582   3.114   5.072   0.388
 4399SOL    HW113583   3.164   5.149   0.428
 4399SOL    HW213584   3.019   5.074   0.420
 4400SOL     OW13585   3.134   5.169   1.142
 4400SOL    HW113586   3.181   5.182   1.229
 4400SOL    HW213587   3.068   5.095   1.151
 4401SOL     OW13588   3.444   4.363   0.472
 4401SOL    HW113589   3.413   4.424   0.545
 4401SOL    HW213590   3.494   4.415   0.403
 4402SOL     OW13591   2.216   5.234   1.329
 4402SOL    HW113592   2.195   5.190   1.242
 4402SOL    HW213593   2.313   5.260   1.332
 4403SOL     OW13594   2.264   4.475   1.598
 4403SOL    HW113595   2.332   4.530   1.551
 4403SOL    HW213596   2.304   4.387   1.625
 4404SOL     OW13597   3.449   4.503   1.670
 4404SOL    HW113598   3.357   4.541   1.665
 4404SOL    HW213599   3.509   4.550   1.605
 4405SOL     OW13600   2.875   3.829   1.770
 4405SOL    HW113601   2.881   3.914   1.718
 4405SOL    HW213602   2.907   3.753   1.713
 4406SOL     OW13603   2.366   3.774   1.740
 4406SOL    HW113604   2.324   3.717   1.670
 4406SOL    HW213605   2.300   3.843   1.772
 4407SOL     OW13606   2.435   4.594   1.029
 4407SOL    HW113607   2.479   4.683   1.020
 4407SOL    HW213608   2.372   4.594   1.106
 4408SOL     OW13609   3.222   4.586   1.045
 4408SOL    HW113610   3.147   4.586   0.979
 4408SOL    HW213611   3.259   4.494   1.054
 4409SOL     OW13612   3.071   4.249   0.275
 4409SOL    HW113613   3.084   4.165   0.329
 4409SOL    HW213614   3.042   4.323   0.335
 4410SOL     OW13615   2.169   3.937   1.231
 4410SOL    HW113616   2.146   3.974   1.321
 4410SOL    HW213617   2.139   3.842   1.225
 4411SOL     OW13618   1.899   5.034   1.282
 4411SOL    HW113619   1.952   4.985   1.350
 4411SOL    HW213620   1.921   5.132   1.287
 4412SOL     OW13621   2.594   4.358   1.064
 4412SOL    HW113622   2.653   4.332   0.988
 4412SOL    HW213623   2.566   4.454   1.053
 4413SOL     OW13624   3.590   4.659   1.854
 4413SOL    HW113625   3.544   4.652   1.765
 4413SOL    HW213626   3.528   4.703   1.920
 4414SOL     OW13627   2.169   3.787   0.618
 4414SOL    HW113628   2.158   3.881   0.651
 4414SOL    HW213629   2.164   3.724   0.695
 4415SOL     OW13630   3.484   4.091   0.374
 4415SOL    HW113631   3.486   4.015   0.438
 4415SOL    HW213632   3.436   4.168   0.414
 4416SOL     OW13633   2.885   4.490   0.966
 4416SOL    HW113634   2.900   4.511   1.062
 4416SOL    HW213635   2.855   4.395   0.957
 4417SOL     OW13636   3.721   5.242   1.605
 4417SOL    HW113637   3.735   5.269   1.510
 4417SOL    HW213638   3.804   5.264   1.658
 4418SOL     OW13639   2.212   4.622   1.804
 4418SOL    HW113640   2.288   4.666   1.852
 4418SOL    HW213641   2.247   4.575   1.722
 4419SOL     OW13642   3.402   3.998   0.125
 4419SOL    HW113643   3.341   3.923   0.148
 4419SOL    HW213644   3.424   4.050   0.208
 4420SOL     OW13645   3.165   4.562   0.042
 4420SOL    HW113646   3.199   4.469   0.057
 4420SOL    HW213647   3.183   4.589  -0.053
 4421SOL     OW13648   2.930   5.057   0.849
 4421SOL    HW113649   2.937   4.973   0.794
 4421SOL    HW213650   2.992   5.126   0.813
 4422SOL     OW13651   2.181   4.534   0.949
 4422SOL    HW113652   2.274   4.570   0.954
 4422SOL    HW213653   2.175   4.449   1.001
 4423SOL     OW13654   2.201   4.233   1.006
 4423SOL    HW113655   2.149   4.150   0.989
 4423SOL    HW213656   2.278   4.238   0.942
 4424SOL     OW13657   3.000   4.104   1.678
 4424SOL    HW113658   2.955   4.167   1.742
 4424SOL    HW213659   3.093   4.135   1.661
 4425SOL     OW13660   3.022   3.931   1.477
 4425SOL    HW113661   3.022   3.995   1.554
 4425SOL    HW213662   3.050   3.979   1.394
 4426SOL     OW13663   1.870   5.050   0.200
 4426SOL    HW113664   1.777   5.071   0.169
 4426SOL    HW213665   1.880   4.951   0.213
 4427SOL     OW13666   2.864   4.520   1.238
 4427SOL    HW113667   2.905   4.488   1.324
 4427SOL    HW213668   2.768   4.493   1.235
 4428SOL     OW13669   1.902   4.268   1.114
 4428SOL    HW113670   1.987   4.235   1.073
 4428SOL    HW213671   1.915   4.283   1.212
 4429SOL     OW13672   2.051   4.244   1.722
 4429SOL    HW113673   2.110   4.204   1.652
 4429SOL    HW213674   1.993   4.315   1.681
 4430SOL     OW13675   3.231   4.674   1.660
 4430SOL    HW113676   3.270   4.763   1.680
 4430SOL    HW213677   3.241   4.654   1.563
 4431SOL     OW13678   2.677   4.296   0.325
 4431SOL    HW113679   2.684   4.207   0.279
 4431SOL    HW213680   2.583   4.330   0.317
 4432SOL     OW13681   3.519   4.328   1.206
 4432SOL    HW113682   3.481   4.259   1.268
 4432SOL    HW213683   3.601   4.292   1.162
 4433SOL     OW13684   2.114   5.288   1.744
 4433SOL    HW113685   2.084   5.345   1.820
 4433SOL    HW213686   2.107   5.191   1.770
 4434SOL     OW13687   2.533   4.188   1.269
 4434SOL    HW113688   2.499   4.099   1.239
 4434SOL    HW213689   2.559   4.242   1.189
 4435SOL     OW13690   2.335   4.224   0.191
 4435SOL    HW113691   2.396   4.304   0.195
 4435SOL    HW213692   2.240   4.255   0.198
 4436SOL     OW13693   2.021   4.861   1.466
 4436SOL    HW113694   2.043   4.800   1.542
 4436SOL    HW213695   2.031   4.812   1.380
 4437SOL     OW13696   3.209   4.783   1.234
 4437SOL    HW113697   3.233   4.720   1.160
 4437SOL    HW213698   3.119   4.823   1.216
 4438SOL     OW13699   3.164   4.579   0.309
 4438SOL    HW113700   3.078   4.548   0.351
 4438SOL    HW213701   3.160   4.565   0.210
 4439SOL     OW13702   1.945   4.982   1.022
 4439SOL    HW113703   1.940   4.981   1.122
 4439SOL    HW213704   1.862   4.941   0.984
 4440SOL     OW13705   2.550   5.386   1.716
 4440SOL    HW113706   2.494   5.467   1.725
 4440SOL    HW213707   2.602   5.390   1.630
 4441SOL     OW13708   2.765   3.810   0.133
 4441SOL    HW113709   2.816   3.811   0.047
 4441SOL    HW213710   2.821   3.768   0.204
 4442SOL     OW13711   3.588   3.859   0.523
 4442SOL    HW113712   3.661   3.842   0.456
 4442SOL    HW213713   3.557   3.772   0.561
 4443SOL     OW13714   3.142   4.651   0.672
 4443SOL    HW113715   3.202   4.570   0.674
 4443SOL    HW213716   3.182   4.720   0.612
 4444SOL     OW13717   2.692   4.997   1.422
 4444SOL    HW113718   2.687   5.030   1.517
 4444SOL    HW213719   2.606   5.016   1.376
 4445SOL     OW13720   3.703   3.899   0.963
 4445SOL    HW113721   3.742   3.814   0.927
 4445SOL    HW213722   3.605   3.901   0.944
 4446SOL     OW13723   2.125   4.050   0.720
 4446SOL    HW113724   2.046   4.101   0.686
 4446SOL    HW213725   2.116   4.035   0.818
 4447SOL     OW13726   3.056   5.336   0.031
 4447SOL    HW113727   3.062   5.243   0.068
 4447SOL    HW213728   2.997   5.336  -0.049
 4448SOL     OW13729   2.684   4.726   1.372
 4448SOL    HW113730   2.724   4.725   1.280
 4448SOL    HW213731   2.694   4.818   1.412
 4449SOL     OW13732   2.778   4.634   0.291
 4449SOL    HW113733   2.841   4.672   0.223
 4449SOL    HW213734   2.818   4.551   0.330
 4450SOL     OW13735   2.234   5.012   1.490
 4450SOL    HW113736   2.221   5.105   1.456
 4450SOL    HW213737   2.150   4.960   1.477
 4451SOL     OW13738   3.476   5.016   1.289
 4451SOL    HW113739   3.536   5.019   1.369
 4451SOL    HW213740   3.401   5.080   1.302
 4452SOL     OW13741   2.901   4.822   0.696
 4452SOL    HW113742   2.831   4.775   0.750
 4452SOL    HW213743   2.960   4.754   0.653
 4453SOL     OW13744   2.876   3.960   0.971
 4453SOL    HW113745   2.868   3.924   0.878
 4453SOL    HW213746   2.874   3.884   1.036
 4454SOL     OW13747   3.571   4.109   1.381
 4454SOL    HW113748   3.644   4.178   1.385
 4454SOL    HW213749   3.599   4.034   1.322
 4455SOL     OW13750   2.117   5.072   0.290
 4455SOL    HW113751   2.021   5.073   0.263
 4455SOL    HW213752   2.129   5.125   0.374
 4456SOL     OW13753   1.967   4.737   1.726
 4456SOL    HW113754   1.890   4.704   1.780
 4456SOL    HW213755   2.052   4.707   1.768
 4457SOL     OW13756   2.534   3.927   1.489
 4457SOL    HW113757   2.624   3.911   1.449
 4457SOL    HW213758   2.542   3.932   1.588
 4458SOL     OW13759   1.937   4.069   0.033
 4458SOL    HW113760   1.845   4.041   0.004
 4458SOL    HW213761   1.968   4.146  -0.023
 4459SOL     OW13762   3.302   4.580   1.398
 4459SOL    HW113763   3.245   4.632   1.335
 4459SOL    HW213764   3.398   4.592   1.374
 4460SOL     OW13765   1.934   3.890   0.318
 4460SOL    HW113766   1.917   3.973   0.264
 4460SOL    HW213767   2.024   3.853   0.296
 4461SOL     OW13768   3.045   5.059   0.119
 4461SOL    HW113769   2.946   5.048   0.121
 4461SOL    HW213770   3.079   5.074   0.212
 4462SOL     OW13771   2.475   4.566   1.431
 4462SOL    HW113772   2.531   4.647   1.414
 4462SOL    HW213773   2.534   4.486   1.434
 4463SOL     OW13774   2.578   4.289   1.708
 4463SOL    HW113775   2.597   4.354   1.782
 4463SOL    HW213776   2.638   4.209   1.717
 4464SOL     OW13777   3.312   4.944   1.633
 4464SOL    HW113778   3.303   4.934   1.732
 4464SOL    HW213779   3.408   4.937   1.607
 4465SOL     OW13780   3.536   4.607   1.254
 4465SOL    HW113781   3.509   4.518   1.217
 4465SOL    HW213782   3.537   4.675   1.181
 4466SOL     OW13783   3.087   4.049   0.449
 4466SOL    HW113784   3.152   3.975   0.438
 4466SOL    HW213785   3.107   4.099   0.533
 4467SOL     OW13786   2.456   4.469   0.652
 4467SOL    HW113787   2.506   4.554   0.633
 4467SOL    HW213788   2.368   4.471   0.604
 4468SOL     OW13789   3.639   4.066   1.642
 4468SOL    HW113790   3.622   4.097   1.548
 4468SOL    HW213791   3.555   4.029   1.680
 4469SOL     OW13792   3.592   4.658   1.517
 4469SOL    HW113793   3.630   4.749   1.532
 4469SOL    HW213794   3.584   4.641   1.418
 4470SOL     OW13795   2.721   5.098   0.016
 4470SOL    HW113796   2.675   5.113   0.104
 4470SOL    HW213797   2.765   5.183  -0.014
 4471SOL     OW13798   2.721   4.680   0.861
 4471SOL    HW113799   2.775   4.611   0.909
 4471SOL    HW213800   2.689   4.749   0.927
 4472SOL     OW13801   2.945   4.708   0.087
 4472SOL    HW113802   2.922   4.761   0.005
 4472SOL    HW213803   3.026   4.652   0.068
 4473SOL     OW13804   2.083   5.038   1.844
 4473SOL    HW113805   2.018   4.965   1.823
 4473SOL    HW213806   2.087   5.052   1.942
 4474SOL     OW13807   1.941   4.964   0.653
 4474SOL    HW113808   1.940   4.917   0.741
 4474SOL    HW213809   2.023   4.936   0.602
 4475SOL     OW13810   2.534   5.115   1.624
 4475SOL    HW113811   2.456   5.065   1.662
 4475SOL    HW213812   2.531   5.210   1.655
 4476SOL     OW13813   3.686   3.916   1.227
 4476SOL    HW113814   3.682   3.826   1.271
 4476SOL    HW213815   3.689   3.905   1.128
 4477SOL     OW13816   2.290   4.148   0.520
 4477SOL    HW113817   2.320   4.076   0.458
 4477SOL    HW213818   2.251   4.108   0.603
 4478SOL     OW13819   3.567   5.211   1.104
 4478SOL    HW113820   3.474   5.186   1.077
 4478SOL    HW213821   3.593   5.161   1.186
 4479SOL     OW13822   2.179   4.271   1.280
 4479SOL    HW113823   2.217   4.212   1.352
 4479SOL    HW213824   2.219   4.245   1.192
 4480SOL     OW13825   3.286   3.938   1.112
 4480SOL    HW113826   3.338   3.873   1.167
 4480SOL    HW213827   3.237   4.001   1.173
 4481SOL     OW13828   2.863   3.758   1.154
 4481SOL    HW113829   2.800   3.686   1.123
 4481SOL    HW213830   2.956   3.722   1.154
 4482SOL     OW13831   2.632   5.054   0.301
 4482SOL    HW113832   2.586   4.967   0.318
 4482SOL    HW213833   2.723   5.051   0.342
 4483SOL     OW13834   2.480   5.291   1.284
 4483SOL    HW113835   2.475   5.373   1.341
 4483SOL    HW213836   2.569   5.288   1.239
 4484SOL     OW13837   3.214   3.776   0.168
 4484SOL    HW113838   3.249   3.735   0.084
 4484SOL    HW213839   3.124   3.738   0.188
 4485SOL     OW13840   3.162   4.177   0.691
 4485SOL    HW113841   3.103   4.257   0.695
 4485SOL    HW213842   3.177   4.142   0.784
 4486SOL     OW13843   3.455   3.945   0.882
 4486SOL    HW113844   3.371   3.944   0.936
 4486SOL    HW213845   3.457   4.028   0.826
 4487SOL     OW13846   1.901   4.801   0.300
 4487SOL    HW113847   2.000   4.790   0.291
 4487SOL    HW213848   1.861   4.715   0.332
 4488SOL     OW13849   2.092   4.352   1.975
 4488SOL    HW113850   1.999   4.350   2.012
 4488SOL    HW213851   2.093   4.313   1.883
 4489SOL     OW13852   2.087   3.999   2.858
 4489SOL    HW113853   2.122   3.982   2.950
 4489SOL    HW213854   1.999   3.954   2.846
 4490SOL     OW13855   1.881   4.092   2.509
 4490SOL    HW113856   1.799   4.135   2.548
 4490SOL    HW213857   1.853   4.019   2.446
 4491SOL     OW13858   2.431   4.999   3.027
 4491SOL    HW113859   2.338   4.992   2.990
 4491SOL    HW213860   2.442   5.088   3.071
 4492SOL     OW13861   3.417   5.235   2.565
 4492SOL    HW113862   3.360   5.219   2.646
 4492SOL    HW213863   3.358   5.245   2.485
 4493SOL     OW13864   2.997   4.427   2.579
 4493SOL    HW113865   3.054   4.505   2.554
 4493SOL    HW213866   2.937   4.453   2.655
 4494SOL     OW13867   3.617   4.331   2.093
 4494SOL    HW113868   3.605   4.318   1.994
 4494SOL    HW213869   3.587   4.250   2.142
 4495SOL     OW13870   2.630   4.868   2.885
 4495SOL    HW113871   2.552   4.885   2.945
 4495SOL    HW213872   2.664   4.955   2.849
 4496SOL     OW13873   2.712   4.522   3.685
 4496SOL    HW113874   2.708   4.598   3.750
 4496SOL    HW213875   2.734   4.558   3.594
 4497SOL     OW13876   2.547   4.736   2.527
 4497SOL    HW113877   2.616   4.720   2.597
 4497SOL    HW213878   2.474   4.793   2.565
 4498SOL     OW13879   2.548   4.885   3.665
 4498SOL    HW113880   2.608   4.964   3.679
 4498SOL    HW213881   2.462   4.916   3.624
 4499SOL     OW13882   2.197   5.159   2.923
 4499SOL    HW113883   2.119   5.128   2.870
 4499SOL    HW213884   2.255   5.217   2.866
 4500SOL     OW13885   3.322   5.229   3.201
 4500SOL    HW113886   3.346   5.323   3.227
 4500SOL    HW213887   3.306   5.175   3.283
 4501SOL     OW13888   2.300   4.116   3.361
 4501SOL    HW113889   2.382   4.060   3.370
 4501SOL    HW213890   2.219   4.058   3.365
 4502SOL     OW13891   3.465   4.171   2.599
 4502SOL    HW113892   3.391   4.217   2.549
 4502SOL    HW213893   3.516   4.239   2.652
 4503SOL     OW13894   2.989   5.065   3.552
 4503SOL    HW113895   3.036   5.065   3.640
 4503SOL    HW213896   2.941   4.978   3.541
 4504SOL     OW13897   2.092   5.158   2.400
 4504SOL    HW113898   2.066   5.254   2.400
 4504SOL    HW213899   2.021   5.104   2.445
 4505SOL     OW13900   2.102   4.815   2.748
 4505SOL    HW113901   2.116   4.731   2.800
 4505SOL    HW213902   2.047   4.879   2.803
 4506SOL     OW13903   2.468   4.688   1.985
 4506SOL    HW113904   2.475   4.772   1.931
 4506SOL    HW213905   2.514   4.701   2.073
 4507SOL     OW13906   3.456   3.838   3.342
 4507SOL    HW113907   3.438   3.905   3.270
 4507SOL    HW213908   3.453   3.884   3.431
 4508SOL     OW13909   1.984   4.367   2.425
 4508SOL    HW113910   1.939   4.279   2.442
 4508SOL    HW213911   1.983   4.421   2.509
 4509SOL     OW13912   1.889   5.320   1.979
 4509SOL    HW113913   1.870   5.224   2.000
 4509SOL    HW213914   1.856   5.378   2.054
 4510SOL     OW13915   3.551   4.646   2.474
 4510SOL    HW113916   3.646   4.617   2.482
 4510SOL    HW213917   3.543   4.711   2.399
 4511SOL     OW13918   3.503   4.832   2.294
 4511SOL    HW113919   3.589   4.834   2.242
 4511SOL    HW213920   3.517   4.879   2.382
 4512SOL     OW13921   1.975   4.461   3.459
 4512SOL    HW113922   2.063   4.448   3.504
 4512SOL    HW213923   1.962   4.558   3.437
 4513SOL     OW13924   2.475   5.089   2.588
 4513SOL    HW113925   2.426   5.002   2.597
 4513SOL    HW213926   2.452   5.132   2.501
 4514SOL     OW13927   3.155   4.952   3.285
 4514SOL    HW113928   3.192   4.879   3.227
 4514SOL    HW213929   3.207   4.957   3.370
 4515SOL     OW13930   2.671   3.728   2.364
 4515SOL    HW113931   2.711   3.819   2.355
 4515SOL    HW213932   2.571   3.736   2.370
 4516SOL     OW13933   2.059   4.700   3.126
 4516SOL    HW113934   2.148   4.655   3.112
 4516SOL    HW213935   1.986   4.635   3.107
 4517SOL     OW13936   3.387   4.723   2.052
 4517SOL    HW113937   3.324   4.647   2.065
 4517SOL    HW213938   3.435   4.741   2.138
 4518SOL     OW13939   2.179   3.975   3.663
 4518SOL    HW113940   2.250   4.046   3.669
 4518SOL    HW213941   2.091   4.014   3.691
 4519SOL     OW13942   3.328   5.141   2.815
 4519SOL    HW113943   3.269   5.147   2.895
 4519SOL    HW213944   3.313   5.053   2.769
 4520SOL     OW13945   2.460   4.453   2.132
 4520SOL    HW113946   2.484   4.522   2.064
 4520SOL    HW213947   2.382   4.486   2.186
 4521SOL     OW13948   3.143   4.069   2.806
 4521SOL    HW113949   3.057   4.019   2.793
 4521SOL    HW213950   3.205   4.015   2.862
 4522SOL     OW13951   2.669   4.329   3.327
 4522SOL    HW113952   2.622   4.326   3.416
 4522SOL    HW213953   2.618   4.274   3.261
 4523SOL     OW13954   3.256   4.193   3.536
 4523SOL    HW113955   3.236   4.236   3.624
 4523SOL    HW213956   3.334   4.131   3.545
 4524SOL     OW13957   2.835   4.614   3.434
 4524SOL    HW113958   2.881   4.530   3.405
 4524SOL    HW213959   2.779   4.648   3.359
 4525SOL     OW13960   2.853   4.134   3.104
 4525SOL    HW113961   2.776   4.168   3.158
 4525SOL    HW213962   2.819   4.083   3.025
 4526SOL     OW13963   2.903   4.425   2.291
 4526SOL    HW113964   2.929   4.421   2.387
 4526SOL    HW213965   2.818   4.374   2.277
 4527SOL     OW13966   1.938   4.535   2.651
 4527SOL    HW113967   2.037   4.523   2.660
 4527SOL    HW213968   1.914   4.630   2.672
 4528SOL     OW13969   2.727   4.072   2.057
 4528SOL    HW113970   2.786   4.135   2.008
 4528SOL    HW213971   2.746   3.978   2.028
 4529SOL     OW13972   3.581   4.309   3.693
 4529SOL    HW113973   3.555   4.398   3.657
 4529SOL    HW213974   3.579   4.241   3.620
 4530SOL     OW13975   3.224   4.868   2.407
 4530SOL    HW113976   3.307   4.839   2.359
 4530SOL    HW213977   3.175   4.935   2.351
 4531SOL     OW13978   2.412   3.920   2.747
 4531SOL    HW113979   2.407   3.915   2.847
 4531SOL    HW213980   2.414   4.016   2.718
 4532SOL     OW13981   2.870   5.180   2.339
 4532SOL    HW113982   2.824   5.252   2.287
 4532SOL    HW213983   2.866   5.200   2.437
 4533SOL     OW13984   3.657   4.790   2.735
 4533SOL    HW113985   3.595   4.775   2.659
 4533SOL    HW213986   3.605   4.801   2.820
 4534SOL     OW13987   3.089   5.274   3.368
 4534SOL    HW113988   3.095   5.197   3.432
 4534SOL    HW213989   3.037   5.248   3.288
 4535SOL     OW13990   2.183   4.667   2.104
 4535SOL    HW113991   2.265   4.706   2.062
 4535SOL    HW213992   2.156   4.585   2.055
 4536SOL     OW13993   3.320   4.459   2.590
 4536SOL    HW113994   3.315   4.394   2.665
 4536SOL    HW213995   3.400   4.518   2.603
 4537SOL     OW13996   2.323   4.990   3.589
 4537SOL    HW113997   2.273   4.991   3.503
 4537SOL    HW213998   2.260   4.972   3.665
 4538SOL     OW13999   2.973   5.500   2.099
 4538SOL    HW114000   2.913   5.438   2.149
 4538SOL    HW214001   3.004   5.456   2.014
 4539SOL     OW14002   2.064   4.009   3.360
 4539SOL    HW114003   1.984   4.069   3.347
 4539SOL    HW214004   2.054   3.960   3.446
 4540SOL     OW14005   3.494   5.101   1.943
 4540SOL    HW114006   3.462   5.195   1.933
 4540SOL    HW214007   3.418   5.038   1.931
 4541SOL     OW14008   3.262   3.831   2.288
 4541SOL    HW114009   3.238   3.794   2.198
 4541SOL    HW214010   3.361   3.847   2.292
 4542SOL     OW14011   2.244   4.424   2.342
 4542SOL    HW114012   2.289   4.334   2.339
 4542SOL    HW214013   2.150   4.413   2.375
 4543SOL     OW14014   3.409   3.946   3.591
 4543SOL    HW114015   3.404   3.983   3.683
 4543SOL    HW214016   3.337   3.877   3.579
 4544SOL     OW14017   2.476   3.846   1.979
 4544SOL    HW114018   2.574   3.824   1.986
 4544SOL    HW214019   2.445   3.829   1.886
 4545SOL     OW14020   2.643   3.988   3.611
 4545SOL    HW114021   2.710   3.927   3.654
 4545SOL    HW214022   2.570   4.007   3.676
 4546SOL     OW14023   3.213   4.314   3.295
 4546SOL    HW114024   3.241   4.271   3.380
 4546SOL    HW214025   3.238   4.410   3.296
 4547SOL     OW14026   2.665   5.126   2.786
 4547SOL    HW114027   2.755   5.140   2.744
 4547SOL    HW214028   2.594   5.128   2.715
 4548SOL     OW14029   2.784   4.227   2.761
 4548SOL    HW114030   2.759   4.218   2.665
 4548SOL    HW214031   2.832   4.145   2.792
 4549SOL     OW14032   2.401   3.788   2.374
 4549SOL    HW114033   2.320   3.789   2.432
 4549SOL    HW214034   2.404   3.871   2.319
 4550SOL     OW14035   3.296   4.912   1.903
 4550SOL    HW114036   3.328   4.836   1.960
 4550SOL    HW214037   3.204   4.939   1.933
 4551SOL     OW14038   2.159   3.759   2.033
 4551SOL    HW114039   2.208   3.843   2.012
 4551SOL    HW214040   2.221   3.694   2.078
 4552SOL     OW14041   2.797   3.960   2.342
 4552SOL    HW114042   2.749   4.001   2.264
 4552SOL    HW214043   2.896   3.958   2.323
 4553SOL     OW14044   2.938   4.407   3.326
 4553SOL    HW114045   2.858   4.346   3.329
 4553SOL    HW214046   3.019   4.354   3.302
 4554SOL     OW14047   3.089   5.294   2.655
 4554SOL    HW114048   3.110   5.368   2.590
 4554SOL    HW214049   3.157   5.294   2.728
 4555SOL     OW14050   2.321   4.876   2.603
 4555SOL    HW114051   2.250   4.849   2.668
 4555SOL    HW214052   2.295   4.848   2.510
 4556SOL     OW14053   2.894   4.273   1.878
 4556SOL    HW114054   2.853   4.355   1.839
 4556SOL    HW214055   2.958   4.299   1.951
 4557SOL     OW14056   1.940   4.280   3.248
 4557SOL    HW114057   2.032   4.279   3.207
 4557SOL    HW214058   1.934   4.354   3.315
 4558SOL     OW14059   2.423   3.946   3.009
 4558SOL    HW114060   2.461   3.862   3.046
 4558SOL    HW214061   2.335   3.965   3.053
 4559SOL     OW14062   2.728   4.178   2.504
 4559SOL    HW114063   2.696   4.250   2.442
 4559SOL    HW214064   2.752   4.097   2.451
 4560SOL     OW14065   2.879   3.763   2.615
 4560SOL    HW114066   2.807   3.768   2.546
 4560SOL    HW214067   2.855   3.694   2.684
 4561SOL     OW14068   3.291   4.897   2.729
 4561SOL    HW114069   3.236   4.813   2.722
 4561SOL    HW214070   3.317   4.926   2.637
 4562SOL     OW14071   3.328   4.314   2.854
 4562SOL    HW114072   3.298   4.219   2.861
 4562SOL    HW214073   3.401   4.330   2.920
 4563SOL     OW14074   3.719   4.557   2.239
 4563SOL    HW114075   3.761   4.493   2.303
 4563SOL    HW214076   3.681   4.506   2.161
 4564SOL     OW14077   2.350   5.109   2.036
 4564SOL    HW114078   2.263   5.094   2.083
 4564SOL    HW214079   2.333   5.135   1.941
 4565SOL     OW14080   3.526   5.004   2.519
 4565SOL    HW114081   3.625   5.012   2.533
 4565SOL    HW214082   3.481   5.088   2.550
 4566SOL     OW14083   3.252   4.299   1.940
 4566SOL    HW114084   3.198   4.278   2.021
 4566SOL    HW214085   3.343   4.258   1.949
 4567SOL     OW14086   2.389   3.980   2.190
 4567SOL    HW114087   2.416   3.921   2.115
 4567SOL    HW214088   2.389   4.075   2.159
 4568SOL     OW14089   3.616   4.947   3.450
 4568SOL    HW114090   3.707   4.908   3.437
 4568SOL    HW214091   3.624   5.043   3.474
 4569SOL     OW14092   2.926   5.071   3.202
 4569SOL    HW114093   2.846   5.048   3.257
 4569SOL    HW214094   3.009   5.045   3.251
 4570SOL     OW14095   2.973   4.919   2.962
 4570SOL    HW114096   2.933   4.963   3.043
 4570SOL    HW214097   2.932   4.956   2.879
 4571SOL     OW14098   3.500   4.823   2.941
 4571SOL    HW114099   3.505   4.904   3.000
 4571SOL    HW214100   3.414   4.825   2.890
 4572SOL     OW14101   2.777   3.813   3.264
 4572SOL    HW114102   2.802   3.793   3.169
 4572SOL    HW214103   2.849   3.869   3.306
 4573SOL     OW14104   2.842   4.840   3.581
 4573SOL    HW114105   2.743   4.846   3.591
 4573SOL    HW214106   2.865   4.760   3.525
 4574SOL     OW14107   2.567   4.774   2.230
 4574SOL    HW114108   2.553   4.781   2.329
 4574SOL    HW214109   2.651   4.723   2.212
 4575SOL     OW14110   2.272   4.537   3.113
 4575SOL    HW114111   2.358   4.549   3.163
 4575SOL    HW214112   2.230   4.450   3.140
 4576SOL     OW14113   3.136   4.110   3.124
 4576SOL    HW114114   3.157   4.184   3.188
 4576SOL    HW214115   3.047   4.127   3.081
 4577SOL     OW14116   2.229   4.824   2.363
 4577SOL    HW114117   2.222   4.907   2.307
 4577SOL    HW214118   2.233   4.744   2.303
 4578SOL     OW14119   2.428   4.261   2.727
 4578SOL    HW114120   2.440   4.327   2.653
 4578SOL    HW214121   2.474   4.295   2.810
 4579SOL     OW14122   3.114   5.072   2.250
 4579SOL    HW114123   3.164   5.149   2.290
 4579SOL    HW214124   3.019   5.074   2.282
 4580SOL     OW14125   3.134   5.169   3.004
 4580SOL    HW114126   3.181   5.182   3.091
 4580SOL    HW214127   3.068   5.095   3.013
 4581SOL     OW14128   3.444   4.363   2.334
 4581SOL    HW114129   3.413   4.424   2.407
 4581SOL    HW214130   3.494   4.415   2.265
 4582SOL     OW14131   2.216   5.234   3.191
 4582SOL    HW114132   2.195   5.190   3.104
 4582SOL    HW214133   2.313   5.260   3.194
 4583SOL     OW14134   2.264   4.475   3.460
 4583SOL    HW114135   2.332   4.530   3.413
 4583SOL    HW214136   2.304   4.387   3.487
 4584SOL     OW14137   3.449   4.503   3.532
 4584SOL    HW114138   3.357   4.541   3.527
 4584SOL    HW214139   3.509   4.550   3.467
 4585SOL     OW14140   2.875   3.829   3.632
 4585SOL    HW114141   2.881   3.914   3.580
 4585SOL    HW214142   2.907   3.753   3.575
 4586SOL     OW14143   2.366   3.774   3.602
 4586SOL    HW114144   2.324   3.717   3.532
 4586SOL    HW214145   2.300   3.843   3.634
 4587SOL     OW14146   2.435   4.594   2.891
 4587SOL    HW114147   2.479   4.683   2.882
 4587SOL    HW214148   2.372   4.594   2.968
 4588SOL     OW14149   3.222   4.586   2.907
 4588SOL    HW114150   3.147   4.586   2.841
 4588SOL    HW214151   3.259   4.494   2.916
 4589SOL     OW14152   3.071   4.249   2.137
 4589SOL    HW114153   3.084   4.165   2.191
 4589SOL    HW214154   3.042   4.323   2.197
 4590SOL     OW14155   2.169   3.937   3.093
 4590SOL    HW114156   2.146   3.974   3.183
 4590SOL    HW214157   2.139   3.842   3.087
 4591SOL     OW14158   1.899   5.034   3.144
 4591SOL    HW114159   1.952   4.985   3.212
 4591SOL    HW214160   1.921   5.132   3.149
 4592SOL     OW14161   2.594   4.358   2.926
 4592SOL    HW114162   2.653   4.332   2.850
 4592SOL    HW214163   2.566   4.454   2.915
 4593SOL     OW14164   3.590   4.659   3.716
 4593SOL    HW114165   3.544   4.652   3.627
 4593SOL    HW214166   3.528   4.703   3.782
 4594SOL     OW14167   2.169   3.787   2.480
 4594SOL    HW114168   2.158   3.881   2.513
 4594SOL    HW214169   2.164   3.724   2.557
 4595SOL     OW14170   3.484   4.091   2.236
 4595SOL    HW114171   3.486   4.015   2.300
 4595SOL    HW214172   3.436   4.168   2.276
 4596SOL     OW14173   2.885   4.490   2.828
 4596SOL    HW114174   2.900   4.511   2.924
 4596SOL    HW214175   2.855   4.395   2.819
 4597SOL     OW14176   3.721   5.242   3.467
 4597SOL    HW114177   3.735   5.269   3.372
 4597SOL    HW214178   3.804   5.264   3.520
 4598SOL     OW14179   2.212   4.622   3.666
 4598SOL    HW114180   2.288   4.666   3.714
 4598SOL    HW214181   2.247   4.575   3.584
 4599SOL     OW14182   3.402   3.998   1.987
 4599SOL    HW114183   3.341   3.923   2.010
 4599SOL    HW214184   3.424   4.050   2.070
 4600SOL     OW14185   3.165   4.562   1.904
 4600SOL    HW114186   3.199   4.469   1.919
 4600SOL    HW214187   3.183   4.589   1.809
 4601SOL     OW14188   2.930   5.057   2.711
 4601SOL    HW114189   2.937   4.973   2.656
 4601SOL    HW214190   2.992   5.126   2.675
 4602SOL     OW14191   2.181   4.534   2.811
 4602SOL    HW114192   2.274   4.570   2.816
 4602SOL    HW214193   2.175   4.449   2.863
 4603SOL     OW14194   2.201   4.233   2.868
 4603SOL    HW114195   2.149   4.150   2.851
 4603SOL    HW214196   2.278   4.238   2.804
 4604SOL     OW14197   3.000   4.104   3.540
 4604SOL    HW114198   2.955   4.167   3.604
 4604SOL    HW214199   3.093   4.135   3.523
 4605SOL     OW14200   3.022   3.931   3.339
 4605SOL    HW114201   3.022   3.995   3.416
 4605SOL    HW214202   3.050   3.979   3.256
 4606SOL     OW14203   1.870   5.050   2.062
 4606SOL    HW114204   1.777   5.071   2.031
 4606SOL    HW214205   1.880   4.951   2.075
 4607SOL     OW14206   2.864   4.520   3.100
 4607SOL    HW114207   2.905   4.488   3.186
 4607SOL    HW214208   2.768   4.493   3.097
 4608SOL     OW14209   1.902   4.268   2.976
 4608SOL    HW114210   1.987   4.235   2.935
 4608SOL    HW214211   1.915   4.283   3.074
 4609SOL     OW14212   2.051   4.244   3.584
 4609SOL    HW114213   2.110   4.204   3.514
 4609SOL    HW214214   1.993   4.315   3.543
 4610SOL     OW14215   3.231   4.674   3.522
 4610SOL    HW114216   3.270   4.763   3.542
 4610SOL    HW214217   3.241   4.654   3.425
 4611SOL     OW14218   2.677   4.296   2.187
 4611SOL    HW114219   2.684   4.207   2.141
 4611SOL    HW214220   2.583   4.330   2.179
 4612SOL     OW14221   3.519   4.328   3.068
 4612SOL    HW114222   3.481   4.259   3.130
 4612SOL    HW214223   3.601   4.292   3.024
 4613SOL     OW14224   2.114   5.288   3.606
 4613SOL    HW114225   2.084   5.345   3.682
 4613SOL    HW214226   2.107   5.191   3.632
 4614SOL     OW14227   2.533   4.188   3.131
 4614SOL    HW114228   2.499   4.099   3.101
 4614SOL    HW214229   2.559   4.242   3.051
 4615SOL     OW14230   2.335   4.224   2.053
 4615SOL    HW114231   2.396   4.304   2.057
 4615SOL    HW214232   2.240   4.255   2.060
 4616SOL     OW14233   2.021   4.861   3.328
 4616SOL    HW114234   2.043   4.800   3.404
 4616SOL    HW214235   2.031   4.812   3.242
 4617SOL     OW14236   3.209   4.783   3.096
 4617SOL    HW114237   3.233   4.720   3.022
 4617SOL    HW214238   3.119   4.823   3.078
 4618SOL     OW14239   3.164   4.579   2.171
 4618SOL    HW114240   3.078   4.548   2.213
 4618SOL    HW214241   3.160   4.565   2.072
 4619SOL     OW14242   1.945   4.982   2.884
 4619SOL    HW114243   1.940   4.981   2.984
 4619SOL    HW214244   1.862   4.941   2.846
 4620SOL     OW14245   2.550   5.386   3.578
 4620SOL    HW114246   2.494   5.467   3.587
 4620SOL    HW214247   2.602   5.390   3.492
 4621SOL     OW14248   3.588   3.859   2.385
 4621SOL    HW114249   3.661   3.842   2.318
 4621SOL    HW214250   3.557   3.772   2.423
 4622SOL     OW14251   3.142   4.651   2.534
 4622SOL    HW114252   3.202   4.570   2.536
 4622SOL    HW214253   3.182   4.720   2.474
 4623SOL     OW14254   2.692   4.997   3.284
 4623SOL    HW114255   2.687   5.030   3.379
 4623SOL    HW214256   2.606   5.016   3.238
 4624SOL     OW14257   3.703   3.899   2.825
 4624SOL    HW114258   3.742   3.814   2.789
 4624SOL    HW214259   3.605   3.901   2.806
 4625SOL     OW14260   2.125   4.050   2.582
 4625SOL    HW114261   2.046   4.101   2.548
 4625SOL    HW214262   2.116   4.035   2.680
 4626SOL     OW14263   2.684   4.726   3.234
 4626SOL    HW114264   2.724   4.725   3.142
 4626SOL    HW214265   2.694   4.818   3.274
 4627SOL     OW14266   2.778   4.634   2.153
 4627SOL    HW114267   2.841   4.672   2.085
 4627SOL    HW214268   2.818   4.551   2.192
 4628SOL     OW14269   2.234   5.012   3.352
 4628SOL    HW114270   2.221   5.105   3.318
 4628SOL    HW214271   2.150   4.960   3.339
 4629SOL     OW14272   3.476   5.016   3.151
 4629SOL    HW114273   3.536   5.019   3.231
 4629SOL    HW214274   3.401   5.080   3.164
 4630SOL     OW14275   2.901   4.822   2.558
 4630SOL    HW114276   2.831   4.775   2.612
 4630SOL    HW214277   2.960   4.754   2.515
 4631SOL     OW14278   2.876   3.960   2.833
 4631SOL    HW114279   2.868   3.924   2.740
 4631SOL    HW214280   2.874   3.884   2.898
 4632SOL     OW14281   3.571   4.109   3.243
 4632SOL    HW114282   3.644   4.178   3.247
 4632SOL    HW214283   3.599   4.034   3.184
 4633SOL     OW14284   2.117   5.072   2.152
 4633SOL    HW114285   2.021   5.073   2.125
 4633SOL    HW214286   2.129   5.125   2.236
 4634SOL     OW14287   1.967   4.737   3.588
 4634SOL    HW114288   1.890   4.704   3.642
 4634SOL    HW214289   2.052   4.707   3.630
 4635SOL     OW14290   2.534   3.927   3.351
 4635SOL    HW114291   2.624   3.911   3.311
 4635SOL    HW214292   2.542   3.932   3.450
 4636SOL     OW14293   1.937   4.069   1.895
 4636SOL    HW114294   1.845   4.041   1.866
 4636SOL    HW214295   1.968   4.146   1.839
 4637SOL     OW14296   3.302   4.580   3.260
 4637SOL    HW114297   3.245   4.632   3.197
 4637SOL    HW214298   3.398   4.592   3.236
 4638SOL     OW14299   1.934   3.890   2.180
 4638SOL    HW114300   1.917   3.973   2.126
 4638SOL    HW214301   2.024   3.853   2.158
 4639SOL     OW14302   3.045   5.059   1.981
 4639SOL    HW114303   2.946   5.048   1.983
 4639SOL    HW214304   3.079   5.074   2.074
 4640SOL     OW14305   2.475   4.566   3.293
 4640SOL    HW114306   2.531   4.647   3.276
 4640SOL    HW214307   2.534   4.486   3.296
 4641SOL     OW14308   2.578   4.289   3.570
 4641SOL    HW114309   2.597   4.354   3.644
 4641SOL    HW214310   2.638   4.209   3.579
 4642SOL     OW14311   3.312   4.944   3.495
 4642SOL    HW114312   3.303   4.934   3.594
 4642SOL    HW214313   3.408   4.937   3.469
 4643SOL     OW14314   3.536   4.607   3.116
 4643SOL    HW114315   3.509   4.518   3.079
 4643SOL    HW214316   3.537   4.675   3.043
 4644SOL     OW14317   3.087   4.049   2.311
 4644SOL    HW114318   3.152   3.975   2.300
 4644SOL    HW214319   3.107   4.099   2.395
 4645SOL     OW14320   2.456   4.469   2.514
 4645SOL    HW114321   2.506   4.554   2.495
 4645SOL    HW214322   2.368   4.471   2.466
 4646SOL     OW14323   3.639   4.066   3.504
 4646SOL    HW114324   3.622   4.097   3.410
 4646SOL    HW214325   3.555   4.029   3.542
 4647SOL     OW14326   3.592   4.658   3.379
 4647SOL    HW114327   3.630   4.749   3.394
 4647SOL    HW214328   3.584   4.641   3.280
 4648SOL     OW14329   2.721   5.098   1.878
 4648SOL    HW114330   2.675   5.113   1.966
 4648SOL    HW214331   2.765   5.183   1.848
 4649SOL     OW14332   2.721   4.680   2.723
 4649SOL    HW114333   2.775   4.611   2.771
 4649SOL    HW214334   2.689   4.749   2.789
 4650SOL     OW14335   2.945   4.708   1.949
 4650SOL    HW114336   2.922   4.761   1.867
 4650SOL    HW214337   3.026   4.652   1.930
 4651SOL     OW14338   2.083   5.038   3.706
 4651SOL    HW114339   2.018   4.965   3.685
 4651SOL    HW214340   2.087   5.052   3.804
 4652SOL     OW14341   1.941   4.964   2.515
 4652SOL    HW114342   1.940   4.917   2.603
 4652SOL    HW214343   2.023   4.936   2.464
 4653SOL     OW14344   2.534   5.115   3.486
 4653SOL    HW114345   2.456   5.065   3.524
 4653SOL    HW214346   2.531   5.210   3.517
 4654SOL     OW14347   3.686   3.916   3.089
 4654SOL    HW114348   3.682   3.826   3.133
 4654SOL    HW214349   3.689   3.905   2.990
 4655SOL     OW14350   2.290   4.148   2.382
 4655SOL    HW114351   2.320   4.076   2.320
 4655SOL    HW214352   2.251   4.108   2.465
 4656SOL     OW14353   3.567   5.211   2.966
 4656SOL    HW114354   3.474   5.186   2.939
 4656SOL    HW214355   3.593   5.161   3.048
 4657SOL     OW14356   2.179   4.271   3.142
 4657SOL    HW114357   2.217   4.212   3.214
 4657SOL    HW214358   2.219   4.245   3.054
 4658SOL     OW14359   3.286   3.938   2.974
 4658SOL    HW114360   3.338   3.873   3.029
 4658SOL    HW214361   3.237   4.001   3.035
 4659SOL     OW14362   2.863   3.758   3.016
 4659SOL    HW114363   2.800   3.686   2.985
 4659SOL    HW214364   2.956   3.722   3.016
 4660SOL     OW14365   2.632   5.054   2.163
 4660SOL    HW114366   2.586   4.967   2.180
 4660SOL    HW214367   2.723   5.051   2.204
 4661SOL     OW14368   2.480   5.291   3.146
 4661SOL    HW114369   2.475   5.373   3.203
 4661SOL    HW214370   2.569   5.288   3.101
 4662SOL     OW14371   3.214   3.776   2.030
 4662SOL    HW114372   3.249   3.735   1.946
 4662SOL    HW214373   3.124   3.738   2.050
 4663SOL     OW14374   3.162   4.177   2.553
 4663SOL    HW114375   3.103   4.257   2.557
 4663SOL    HW214376   3.177   4.142   2.646
 4664SOL     OW14377   3.455   3.945   2.744
 4664SOL    HW114378   3.371   3.944   2.798
 4664SOL    HW214379   3.457   4.028   2.688
 4665SOL     OW14380   1.901   4.801   2.162
 4665SOL    HW114381   2.000   4.790   2.153
 4665SOL    HW214382   1.861   4.715   2.194
 4666SOL     OW14383   2.092   4.352   3.837
 4666SOL    HW114384   1.999   4.350   3.874
 4666SOL    HW214385   2.093   4.313   3.745
 4667SOL     OW14386   2.087   3.999   4.720
 4667SOL    HW114387   2.122   3.982   4.812
 4667SOL    HW214388   1.999   3.954   4.708
 4668SOL     OW14389   1.881   4.092   4.371
 4668SOL    HW114390   1.799   4.135   4.410
 4668SOL    HW214391   1.853   4.019   4.308
 4669SOL     OW14392   2.431   4.999   4.889
 4669SOL    HW114393   2.338   4.992   4.852
 4669SOL    HW214394   2.442   5.088   4.933
 4670SOL     OW14395   3.417   5.235   4.427
 4670SOL    HW114396   3.360   5.219   4.508
 4670SOL    HW214397   3.358   5.245   4.347
 4671SOL     OW14398   2.997   4.427   4.441
 4671SOL    HW114399   3.054   4.505   4.416
 4671SOL    HW214400   2.937   4.453   4.517
 4672SOL     OW14401   3.617   4.331   3.955
 4672SOL    HW114402   3.605   4.318   3.856
 4672SOL    HW214403   3.587   4.250   4.004
 4673SOL     OW14404   2.630   4.868   4.747
 4673SOL    HW114405   2.552   4.885   4.807
 4673SOL    HW214406   2.664   4.955   4.711
 4674SOL     OW14407   2.712   4.522   5.547
 4674SOL    HW114408   2.708   4.598   5.612
 4674SOL    HW214409   2.734   4.558   5.456
 4675SOL     OW14410   2.547   4.736   4.389
 4675SOL    HW114411   2.616   4.720   4.459
 4675SOL    HW214412   2.474   4.793   4.427
 4676SOL     OW14413   2.548   4.885   5.527
 4676SOL    HW114414   2.608   4.964   5.541
 4676SOL    HW214415   2.462   4.916   5.486
 4677SOL     OW14416   2.197   5.159   4.785
 4677SOL    HW114417   2.119   5.128   4.732
 4677SOL    HW214418   2.255   5.217   4.728
 4678SOL     OW14419   3.322   5.229   5.063
 4678SOL    HW114420   3.346   5.323   5.089
 4678SOL    HW214421   3.306   5.175   5.145
 4679SOL     OW14422   2.300   4.116   5.223
 4679SOL    HW114423   2.382   4.060   5.232
 4679SOL    HW214424   2.219   4.058   5.227
 4680SOL     OW14425   3.465   4.171   4.461
 4680SOL    HW114426   3.391   4.217   4.411
 4680SOL    HW214427   3.516   4.239   4.514
 4681SOL     OW14428   2.989   5.065   5.414
 4681SOL    HW114429   3.036   5.065   5.502
 4681SOL    HW214430   2.941   4.978   5.403
 4682SOL     OW14431   2.092   5.158   4.262
 4682SOL    HW114432   2.066   5.254   4.262
 4682SOL    HW214433   2.021   5.104   4.307
 4683SOL     OW14434   2.102   4.815   4.610
 4683SOL    HW114435   2.116   4.731   4.662
 4683SOL    HW214436   2.047   4.879   4.665
 4684SOL     OW14437   2.468   4.688   3.847
 4684SOL    HW114438   2.475   4.772   3.793
 4684SOL    HW214439   2.514   4.701   3.935
 4685SOL     OW14440   3.456   3.838   5.204
 4685SOL    HW114441   3.438   3.905   5.132
 4685SOL    HW214442   3.453   3.884   5.293
 4686SOL     OW14443   1.984   4.367   4.287
 4686SOL    HW114444   1.939   4.279   4.304
 4686SOL    HW214445   1.983   4.421   4.371
 4687SOL     OW14446   1.889   5.320   3.841
 4687SOL    HW114447   1.870   5.224   3.862
 4687SOL    HW214448   1.856   5.378   3.916
 4688SOL     OW14449   3.551   4.646   4.336
 4688SOL    HW114450   3.646   4.617   4.344
 4688SOL    HW214451   3.543   4.711   4.261
 4689SOL     OW14452   3.503   4.832   4.156
 4689SOL    HW114453   3.589   4.834   4.104
 4689SOL    HW214454   3.517   4.879   4.244
 4690SOL     OW14455   1.975   4.461   5.321
 4690SOL    HW114456   2.063   4.448   5.366
 4690SOL    HW214457   1.962   4.558   5.299
 4691SOL     OW14458   2.475   5.089   4.450
 4691SOL    HW114459   2.426   5.002   4.459
 4691SOL    HW214460   2.452   5.132   4.363
 4692SOL     OW14461   3.155   4.952   5.147
 4692SOL    HW114462   3.192   4.879   5.089
 4692SOL    HW214463   3.207   4.957   5.232
 4693SOL     OW14464   2.671   3.728   4.226
 4693SOL    HW114465   2.711   3.819   4.217
 4693SOL    HW214466   2.571   3.736   4.232
 4694SOL     OW14467   2.059   4.700   4.988
 4694SOL    HW114468   2.148   4.655   4.974
 4694SOL    HW214469   1.986   4.635   4.969
 4695SOL     OW14470   3.387   4.723   3.914
 4695SOL    HW114471   3.324   4.647   3.927
 4695SOL    HW214472   3.435   4.741   4.000
 4696SOL     OW14473   2.179   3.975   5.525
 4696SOL    HW114474   2.250   4.046   5.531
 4696SOL    HW214475   2.091   4.014   5.553
 4697SOL     OW14476   3.328   5.141   4.677
 4697SOL    HW114477   3.269   5.147   4.757
 4697SOL    HW214478   3.313   5.053   4.631
 4698SOL     OW14479   2.460   4.453   3.994
 4698SOL    HW114480   2.484   4.522   3.926
 4698SOL    HW214481   2.382   4.486   4.048
 4699SOL     OW14482   3.143   4.069   4.668
 4699SOL    HW114483   3.057   4.019   4.655
 4699SOL    HW214484   3.205   4.015   4.724
 4700SOL     OW14485   2.669   4.329   5.189
 4700SOL    HW114486   2.622   4.326   5.278
 4700SOL    HW214487   2.618   4.274   5.123
 4701SOL     OW14488   3.256   4.193   5.398
 4701SOL    HW114489   3.236   4.236   5.486
 4701SOL    HW214490   3.334   4.131   5.407
 4702SOL     OW14491   2.835   4.614   5.296
 4702SOL    HW114492   2.881   4.530   5.267
 4702SOL    HW214493   2.779   4.648   5.221
 4703SOL     OW14494   2.853   4.134   4.966
 4703SOL    HW114495   2.776   4.168   5.020
 4703SOL    HW214496   2.819   4.083   4.887
 4704SOL     OW14497   2.903   4.425   4.153
 4704SOL    HW114498   2.929   4.421   4.249
 4704SOL    HW214499   2.818   4.374   4.139
 4705SOL     OW14500   1.938   4.535   4.513
 4705SOL    HW114501   2.037   4.523   4.522
 4705SOL    HW214502   1.914   4.630   4.534
 4706SOL     OW14503   2.727   4.072   3.919
 4706SOL    HW114504   2.786   4.135   3.870
 4706SOL    HW214505   2.746   3.978   3.890
 4707SOL     OW14506   3.581   4.309   5.555
 4707SOL    HW114507   3.555   4.398   5.519
 4707SOL    HW214508   3.579   4.241   5.482
 4708SOL     OW14509   3.224   4.868   4.269
 4708SOL    HW114510   3.307   4.839   4.221
 4708SOL    HW214511   3.175   4.935   4.213
 4709SOL     OW14512   2.412   3.920   4.609
 4709SOL    HW114513   2.407   3.915   4.709
 4709SOL    HW214514   2.414   4.016   4.580
 4710SOL     OW14515   2.870   5.180   4.201
 4710SOL    HW114516   2.824   5.252   4.149
 4710SOL    HW214517   2.866   5.200   4.299
 4711SOL     OW14518   3.657   4.790   4.597
 4711SOL    HW114519   3.595   4.775   4.521
 4711SOL    HW214520   3.605   4.801   4.682
 4712SOL     OW14521   3.089   5.274   5.230
 4712SOL    HW114522   3.095   5.197   5.294
 4712SOL    HW214523   3.037   5.248   5.150
 4713SOL     OW14524   2.183   4.667   3.966
 4713SOL    HW114525   2.265   4.706   3.924
 4713SOL    HW214526   2.156   4.585   3.917
 4714SOL     OW14527   3.320   4.459   4.452
 4714SOL    HW114528   3.315   4.394   4.527
 4714SOL    HW214529   3.400   4.518   4.465
 4715SOL     OW14530   2.323   4.990   5.451
 4715SOL    HW114531   2.273   4.991   5.365
 4715SOL    HW214532   2.260   4.972   5.527
 4716SOL     OW14533   2.973   5.500   3.961
 4716SOL    HW114534   2.913   5.438   4.011
 4716SOL    HW214535   3.004   5.456   3.876
 4717SOL     OW14536   2.064   4.009   5.222
 4717SOL    HW114537   1.984   4.069   5.209
 4717SOL    HW214538   2.054   3.960   5.308
 4718SOL     OW14539   3.494   5.101   3.805
 4718SOL    HW114540   3.462   5.195   3.795
 4718SOL    HW214541   3.418   5.038   3.793
 4719SOL     OW14542   3.262   3.831   4.150
 4719SOL    HW114543   3.238   3.794   4.060
 4719SOL    HW214544   3.361   3.847   4.154
 4720SOL     OW14545   2.244   4.424   4.204
 4720SOL    HW114546   2.289   4.334   4.201
 4720SOL    HW214547   2.150   4.413   4.237
 4721SOL     OW14548   3.409   3.946   5.453
 4721SOL    HW114549   3.404   3.983   5.545
 4721SOL    HW214550   3.337   3.877   5.441
 4722SOL     OW14551   2.476   3.846   3.841
 4722SOL    HW114552   2.574   3.824   3.848
 4722SOL    HW214553   2.445   3.829   3.748
 4723SOL     OW14554   2.643   3.988   5.473
 4723SOL    HW114555   2.710   3.927   5.516
 4723SOL    HW214556   2.570   4.007   5.538
 4724SOL     OW14557   3.213   4.314   5.157
 4724SOL    HW114558   3.241   4.271   5.242
 4724SOL    HW214559   3.238   4.410   5.158
 4725SOL     OW14560   2.665   5.126   4.648
 4725SOL    HW114561   2.755   5.140   4.606
 4725SOL    HW214562   2.594   5.128   4.577
 4726SOL     OW14563   2.784   4.227   4.623
 4726SOL    HW114564   2.759   4.218   4.527
 4726SOL    HW214565   2.832   4.145   4.654
 4727SOL     OW14566   2.401   3.788   4.236
 4727SOL    HW114567   2.320   3.789   4.294
 4727SOL    HW214568   2.404   3.871   4.181
 4728SOL     OW14569   3.296   4.912   3.765
 4728SOL    HW114570   3.328   4.836   3.822
 4728SOL    HW214571   3.204   4.939   3.795
 4729SOL     OW14572   2.159   3.759   3.895
 4729SOL    HW114573   2.208   3.843   3.874
 4729SOL    HW214574   2.221   3.694   3.940
 4730SOL     OW14575   2.797   3.960   4.204
 4730SOL    HW114576   2.749   4.001   4.126
 4730SOL    HW214577   2.896   3.958   4.185
 4731SOL     OW14578   2.938   4.407   5.188
 4731SOL    HW114579   2.858   4.346   5.191
 4731SOL    HW214580   3.019   4.354   5.164
 4732SOL     OW14581   3.089   5.294   4.517
 4732SOL    HW114582   3.110   5.368   4.452
 4732SOL    HW214583   3.157   5.294   4.590
 4733SOL     OW14584   2.321   4.876   4.465
 4733SOL    HW114585   2.250   4.849   4.530
 4733SOL    HW214586   2.295   4.848   4.372
 4734SOL     OW14587   2.894   4.273   3.740
 4734SOL    HW114588   2.853   4.355   3.701
 4734SOL    HW214589   2.958   4.299   3.813
 4735SOL     OW14590   1.940   4.280   5.110
 4735SOL    HW114591   2.032   4.279   5.069
 4735SOL    HW214592   1.934   4.354   5.177
 4736SOL     OW14593   2.423   3.946   4.871
 4736SOL    HW114594   2.461   3.862   4.908
 4736SOL    HW214595   2.335   3.965   4.915
 4737SOL     OW14596   2.728   4.178   4.366
 4737SOL    HW114597   2.696   4.250   4.304
 4737SOL    HW214598   2.752   4.097   4.313
 4738SOL     OW14599   2.879   3.763   4.477
 4738SOL    HW114600   2.807   3.768   4.408
 4738SOL    HW214601   2.855   3.694   4.546
 4739SOL     OW14602   3.291   4.897   4.591
 4739SOL    HW114603   3.236   4.813   4.584
 4739SOL    HW214604   3.317   4.926   4.499
 4740SOL     OW14605   3.328   4.314   4.716
 4740SOL    HW114606   3.298   4.219   4.723
 4740SOL    HW214607   3.401   4.330   4.782
 4741SOL     OW14608   3.719   4.557   4.101
 4741SOL    HW114609   3.761   4.493   4.165
 4741SOL    HW214610   3.681   4.506   4.023
 4742SOL     OW14611   2.350   5.109   3.898
 4742SOL    HW114612   2.263   5.094   3.945
 4742SOL    HW214613   2.333   5.135   3.803
 4743SOL     OW14614   3.526   5.004   4.381
 4743SOL    HW114615   3.625   5.012   4.395
 4743SOL    HW214616   3.481   5.088   4.412
 4744SOL     OW14617   3.252   4.299   3.802
 4744SOL    HW114618   3.198   4.278   3.883
 4744SOL    HW214619   3.343   4.258   3.811
 4745SOL     OW14620   2.389   3.980   4.052
 4745SOL    HW114621   2.416   3.921   3.977
 4745SOL    HW214622   2.389   4.075   4.021
 4746SOL     OW14623   3.616   4.947   5.312
 4746SOL    HW114624   3.707   4.908   5.299
 4746SOL    HW214625   3.624   5.043   5.336
 4747SOL     OW14626   2.926   5.071   5.064
 4747SOL    HW114627   2.846   5.048   5.119
 4747SOL    HW214628   3.009   5.045   5.113
 4748SOL     OW14629   2.973   4.919   4.824
 4748SOL    HW114630   2.933   4.963   4.905
 4748SOL    HW214631   2.932   4.956   4.741
 4749SOL     OW14632   3.500   4.823   4.803
 4749SOL    HW114633   3.505   4.904   4.862
 4749SOL    HW214634   3.414   4.825   4.752
 4750SOL     OW14635   2.777   3.813   5.126
 4750SOL    HW114636   2.802   3.793   5.031
 4750SOL    HW214637   2.849   3.869   5.168
 4751SOL     OW14638   2.842   4.840   5.443
 4751SOL    HW114639   2.743   4.846   5.453
 4751SOL    HW214640   2.865   4.760   5.387
 4752SOL     OW14641   2.567   4.774   4.092
 4752SOL    HW114642   2.553   4.781   4.191
 4752SOL    HW214643   2.651   4.723   4.074
 4753SOL     OW14644   2.272   4.537   4.975
 4753SOL    HW114645   2.358   4.549   5.025
 4753SOL    HW214646   2.230   4.450   5.002
 4754SOL     OW14647   3.136   4.110   4.986
 4754SOL    HW114648   3.157   4.184   5.050
 4754SOL    HW214649   3.047   4.127   4.943
 4755SOL     OW14650   2.229   4.824   4.225
 4755SOL    HW114651   2.222   4.907   4.169
 4755SOL    HW214652   2.233   4.744   4.165
 4756SOL     OW14653   2.428   4.261   4.589
 4756SOL    HW114654   2.440   4.327   4.515
 4756SOL    HW214655   2.474   4.295   4.672
 4757SOL     OW14656   3.114   5.072   4.112
 4757SOL    HW114657   3.164   5.149   4.152
 4757SOL    HW214658   3.019   5.074   4.144
 4758SOL     OW14659   3.134   5.169   4.866
 4758SOL    HW114660   3.181   5.182   4.953
 4758SOL    HW214661   3.068   5.095   4.875
 4759SOL     OW14662   3.444   4.363   4.196
 4759SOL    HW114663   3.413   4.424   4.269
 4759SOL    HW214664   3.494   4.415   4.127
 4760SOL     OW14665   2.216   5.234   5.053
 4760SOL    HW114666   2.195   5.190   4.966
 4760SOL    HW214667   2.313   5.260   5.056
 4761SOL     OW14668   2.264   4.475   5.322
 4761SOL    HW114669   2.332   4.530   5.275
 4761SOL    HW214670   2.304   4.387   5.349
 4762SOL     OW14671   3.449   4.503   5.394
 4762SOL    HW114672   3.357   4.541   5.389
 4762SOL    HW214673   3.509   4.550   5.329
 4763SOL     OW14674   2.875   3.829   5.494
 4763SOL    HW114675   2.881   3.914   5.442
 4763SOL    HW214676   2.907   3.753   5.437
 4764SOL     OW14677   2.366   3.774   5.464
 4764SOL    HW114678   2.324   3.717   5.394
 4764SOL    HW214679   2.300   3.843   5.496
 4765SOL     OW14680   2.435   4.594   4.753
 4765SOL    HW114681   2.479   4.683   4.744
 4765SOL    HW214682   2.372   4.594   4.830
 4766SOL     OW14683   3.222   4.586   4.769
 4766SOL    HW114684   3.147   4.586   4.703
 4766SOL    HW214685   3.259   4.494   4.778
 4767SOL     OW14686   3.071   4.249   3.999
 4767SOL    HW114687   3.084   4.165   4.053
 4767SOL    HW214688   3.042   4.323   4.059
 4768SOL     OW14689   2.169   3.937   4.955
 4768SOL    HW114690   2.146   3.974   5.045
 4768SOL    HW214691   2.139   3.842   4.949
 4769SOL     OW14692   1.899   5.034   5.006
 4769SOL    HW114693   1.952   4.985   5.074
 4769SOL    HW214694   1.921   5.132   5.011
 4770SOL     OW14695   2.594   4.358   4.788
 4770SOL    HW114696   2.653   4.332   4.712
 4770SOL    HW214697   2.566   4.454   4.777
 4771SOL     OW14698   3.590   4.659   5.578
 4771SOL    HW114699   3.544   4.652   5.489
 4771SOL    HW214700   3.528   4.703   5.644
 4772SOL     OW14701   2.169   3.787   4.342
 4772SOL    HW114702   2.158   3.881   4.375
 4772SOL    HW214703   2.164   3.724   4.419
 4773SOL     OW14704   3.484   4.091   4.098
 4773SOL    HW114705   3.486   4.015   4.162
 4773SOL    HW214706   3.436   4.168   4.138
 4774SOL     OW14707   2.885   4.490   4.690
 4774SOL    HW114708   2.900   4.511   4.786
 4774SOL    HW214709   2.855   4.395   4.681
 4775SOL     OW14710   3.721   5.242   5.329
 4775SOL    HW114711   3.735   5.269   5.234
 4775SOL    HW214712   3.804   5.264   5.382
 4776SOL     OW14713   2.212   4.622   5.528
 4776SOL    HW114714   2.288   4.666   5.576
 4776SOL    HW214715   2.247   4.575   5.446
 4777SOL     OW14716   3.402   3.998   3.849
 4777SOL    HW114717   3.341   3.923   3.872
 4777SOL    HW214718   3.424   4.050   3.932
 4778SOL     OW14719   3.165   4.562   3.766
 4778SOL    HW114720   3.199   4.469   3.781
 4778SOL    HW214721   3.183   4.589   3.671
 4779SOL     OW14722   2.930   5.057   4.573
 4779SOL    HW114723   2.937   4.973   4.518
 4779SOL    HW214724   2.992   5.126   4.537
 4780SOL     OW14725   2.181   4.534   4.673
 4780SOL    HW114726   2.274   4.570   4.678
 4780SOL    HW214727   2.175   4.449   4.725
 4781SOL     OW14728   2.201   4.233   4.730
 4781SOL    HW114729   2.149   4.150   4.713
 4781SOL    HW214730   2.278   4.238   4.666
 4782SOL     OW14731   3.000   4.104   5.402
 4782SOL    HW114732   2.955   4.167   5.466
 4782SOL    HW214733   3.093   4.135   5.385
 4783SOL     OW14734   3.022   3.931   5.201
 4783SOL    HW114735   3.022   3.995   5.278
 4783SOL    HW214736   3.050   3.979   5.118
 4784SOL     OW14737   1.870   5.050   3.924
 4784SOL    HW114738   1.777   5.071   3.893
 4784SOL    HW214739   1.880   4.951   3.937
 4785SOL     OW14740   2.864   4.520   4.962
 4785SOL    HW114741   2.905   4.488   5.048
 4785SOL    HW214742   2.768   4.493   4.959
 4786SOL     OW14743   1.902   4.268   4.838
 4786SOL    HW114744   1.987   4.235   4.797
 4786SOL    HW214745   1.915   4.283   4.936
 4787SOL     OW14746   2.051   4.244   5.446
 4787SOL    HW114747   2.110   4.204   5.376
 4787SOL    HW214748   1.993   4.315   5.405
 4788SOL     OW14749   3.231   4.674   5.384
 4788SOL    HW114750   3.270   4.763   5.404
 4788SOL    HW214751   3.241   4.654   5.287
 4789SOL     OW14752   2.677   4.296   4.049
 4789SOL    HW114753   2.684   4.207   4.003
 4789SOL    HW214754   2.583   4.330   4.041
 4790SOL     OW14755   3.519   4.328   4.930
 4790SOL    HW114756   3.481   4.259   4.992
 4790SOL    HW214757   3.601   4.292   4.886
 4791SOL     OW14758   2.114   5.288   5.468
 4791SOL    HW114759   2.084   5.345   5.544
 4791SOL    HW214760   2.107   5.191   5.494
 4792SOL     OW14761   2.533   4.188   4.993
 4792SOL    HW114762   2.499   4.099   4.963
 4792SOL    HW214763   2.559   4.242   4.913
 4793SOL     OW14764   2.335   4.224   3.915
 4793SOL    HW114765   2.396   4.304   3.919
 4793SOL    HW214766   2.240   4.255   3.922
 4794SOL     OW14767   2.021   4.861   5.190
 4794SOL    HW114768   2.043   4.800   5.266
 4794SOL    HW214769   2.031   4.812   5.104
 4795SOL     OW14770   3.209   4.783   4.958
 4795SOL    HW114771   3.233   4.720   4.884
 4795SOL    HW214772   3.119   4.823   4.940
 4796SOL     OW14773   3.164   4.579   4.033
 4796SOL    HW114774   3.078   4.548   4.075
 4796SOL    HW214775   3.160   4.565   3.934
 4797SOL     OW14776   1.945   4.982   4.746
 4797SOL    HW114777   1.940   4.981   4.846
 4797SOL    HW214778   1.862   4.941   4.708
 4798SOL     OW14779   2.550   5.386   5.440
 4798SOL    HW114780   2.494   5.467   5.449
 4798SOL    HW214781   2.602   5.390   5.354
 4799SOL     OW14782   3.588   3.859   4.247
 4799SOL    HW114783   3.661   3.842   4.180
 4799SOL    HW214784   3.557   3.772   4.285
 4800SOL     OW14785   3.142   4.651   4.396
 4800SOL    HW114786   3.202   4.570   4.398
 4800SOL    HW214787   3.182   4.720   4.336
 4801SOL     OW14788   2.692   4.997   5.146
 4801SOL    HW114789   2.687   5.030   5.241
 4801SOL    HW214790   2.606   5.016   5.100
 4802SOL     OW14791   3.703   3.899   4.687
 4802SOL    HW114792   3.742   3.814   4.651
 4802SOL    HW214793   3.605   3.901   4.668
 4803SOL     OW14794   2.125   4.050   4.444
 4803SOL    HW114795   2.046   4.101   4.410
 4803SOL    HW214796   2.116   4.035   4.542
 4804SOL     OW14797   2.684   4.726   5.096
 4804SOL    HW114798   2.724   4.725   5.004
 4804SOL    HW214799   2.694   4.818   5.136
 4805SOL     OW14800   2.778   4.634   4.015
 4805SOL    HW114801   2.841   4.672   3.947
 4805SOL    HW214802   2.818   4.551   4.054
 4806SOL     OW14803   2.234   5.012   5.214
 4806SOL    HW114804   2.221   5.105   5.180
 4806SOL    HW214805   2.150   4.960   5.201
 4807SOL     OW14806   3.476   5.016   5.013
 4807SOL    HW114807   3.536   5.019   5.093
 4807SOL    HW214808   3.401   5.080   5.026
 4808SOL     OW14809   2.901   4.822   4.420
 4808SOL    HW114810   2.831   4.775   4.474
 4808SOL    HW214811   2.960   4.754   4.377
 4809SOL     OW14812   2.876   3.960   4.695
 4809SOL    HW114813   2.868   3.924   4.602
 4809SOL    HW214814   2.874   3.884   4.760
 4810SOL     OW14815   3.571   4.109   5.105
 4810SOL    HW114816   3.644   4.178   5.109
 4810SOL    HW214817   3.599   4.034   5.046
 4811SOL     OW14818   2.117   5.072   4.014
 4811SOL    HW114819   2.021   5.073   3.987
 4811SOL    HW214820   2.129   5.125   4.098
 4812SOL     OW14821   1.967   4.737   5.450
 4812SOL    HW114822   1.890   4.704   5.504
 4812SOL    HW214823   2.052   4.707   5.492
 4813SOL     OW14824   2.534   3.927   5.213
 4813SOL    HW114825   2.624   3.911   5.173
 4813SOL    HW214826   2.542   3.932   5.312
 4814SOL     OW14827   1.937   4.069   3.757
 4814SOL    HW114828   1.845   4.041   3.728
 4814SOL    HW214829   1.968   4.146   3.701
 4815SOL     OW14830   3.302   4.580   5.122
 4815SOL    HW114831   3.245   4.632   5.059
 4815SOL    HW214832   3.398   4.592   5.098
 4816SOL     OW14833   1.934   3.890   4.042
 4816SOL    HW114834   1.917   3.973   3.988
 4816SOL    HW214835   2.024   3.853   4.020
 4817SOL     OW14836   3.045   5.059   3.843
 4817SOL    HW114837   2.946   5.048   3.845
 4817SOL    HW214838   3.079   5.074   3.936
 4818SOL     OW14839   2.475   4.566   5.155
 4818SOL    HW114840   2.531   4.647   5.138
 4818SOL    HW214841   2.534   4.486   5.158
 4819SOL     OW14842   2.578   4.289   5.432
 4819SOL    HW114843   2.597   4.354   5.506
 4819SOL    HW214844   2.638   4.209   5.441
 4820SOL     OW14845   3.312   4.944   5.357
 4820SOL    HW114846   3.303   4.934   5.456
 4820SOL    HW214847   3.408   4.937   5.331
 4821SOL     OW14848   3.536   4.607   4.978
 4821SOL    HW114849   3.509   4.518   4.941
 4821SOL    HW214850   3.537   4.675   4.905
 4822SOL     OW14851   3.087   4.049   4.173
 4822SOL    HW114852   3.152   3.975   4.162
 4822SOL    HW214853   3.107   4.099   4.257
 4823SOL     OW14854   2.456   4.469   4.376
 4823SOL    HW114855   2.506   4.554   4.357
 4823SOL    HW214856   2.368   4.471   4.328
 4824SOL     OW14857   3.639   4.066   5.366
 4824SOL    HW114858   3.622   4.097   5.272
 4824SOL    HW214859   3.555   4.029   5.404
 4825SOL     OW14860   3.592   4.658   5.241
 4825SOL    HW114861   3.630   4.749   5.256
 4825SOL    HW214862   3.584   4.641   5.142
 4826SOL     OW14863   2.721   5.098   3.740
 4826SOL    HW114864   2.675   5.113   3.828
 4826SOL    HW214865   2.765   5.183   3.710
 4827SOL     OW14866   2.721   4.680   4.585
 4827SOL    HW114867   2.775   4.611   4.633
 4827SOL    HW214868   2.689   4.749   4.651
 4828SOL     OW14869   2.945   4.708   3.811
 4828SOL    HW114870   2.922   4.761   3.729
 4828SOL    HW214871   3.026   4.652   3.792
 4829SOL     OW14872   2.083   5.038   5.568
 4829SOL    HW114873   2.018   4.965   5.547
 4829SOL    HW214874   2.087   5.052   5.666
 4830SOL     OW14875   1.941   4.964   4.377
 4830SOL    HW114876   1.940   4.917   4.465
 4830SOL    HW214877   2.023   4.936   4.326
 4831SOL     OW14878   2.534   5.115   5.348
 4831SOL    HW114879   2.456   5.065   5.386
 4831SOL    HW214880   2.531   5.210   5.379
 4832SOL     OW14881   3.686   3.916   4.951
 4832SOL    HW114882   3.682   3.826   4.995
 4832SOL    HW214883   3.689   3.905   4.852
 4833SOL     OW14884   2.290   4.148   4.244
 4833SOL    HW114885   2.320   4.076   4.182
 4833SOL    HW214886   2.251   4.108   4.327
 4834SOL     OW14887   3.567   5.211   4.828
 4834SOL    HW114888   3.474   5.186   4.801
 4834SOL    HW214889   3.593   5.161   4.910
 4835SOL     OW14890   2.179   4.271   5.004
 4835SOL    HW114891   2.217   4.212   5.076
 4835SOL    HW214892   2.219   4.245   4.916
 4836SOL     OW14893   3.286   3.938   4.836
 4836SOL    HW114894   3.338   3.873   4.891
 4836SOL    HW214895   3.237   4.001   4.897
 4837SOL     OW14896   2.863   3.758   4.878
 4837SOL    HW114897   2.800   3.686   4.847
 4837SOL    HW214898   2.956   3.722   4.878
 4838SOL     OW14899   2.632   5.054   4.025
 4838SOL    HW114900   2.586   4.967   4.042
 4838SOL    HW214901   2.723   5.051   4.066
 4839SOL     OW14902   2.480   5.291   5.008
 4839SOL    HW114903   2.475   5.373   5.065
 4839SOL    HW214904   2.569   5.288   4.963
 4840SOL     OW14905   3.214   3.776   3.892
 4840SOL    HW114906   3.249   3.735   3.808
 4840SOL    HW214907   3.124   3.738   3.912
 4841SOL     OW14908   3.162   4.177   4.415
 4841SOL    HW114909   3.103   4.257   4.419
 4841SOL    HW214910   3.177   4.142   4.508
 4842SOL     OW14911   3.455   3.945   4.606
 4842SOL    HW114912   3.371   3.944   4.660
 4842SOL    HW214913   3.457   4.028   4.550
 4843SOL     OW14914   1.901   4.801   4.024
 4843SOL    HW114915   2.000   4.790   4.015
 4843SOL    HW214916   1.861   4.715   4.056
 4844SOL     OW14917   2.092   4.352   5.699
 4844SOL    HW114918   1.999   4.350   5.736
 4844SOL    HW214919   2.093   4.313   5.607
 4845SOL     OW14920   2.087   3.999   6.582
 4845SOL    HW114921   2.122   3.982   6.674
 4845SOL    HW214922   1.999   3.954   6.570
 4846SOL     OW14923   1.881   4.092   6.233
 4846SOL    HW114924   1.799   4.135   6.272
 4846SOL    HW214925   1.853   4.019   6.170
 4847SOL     OW14926   2.431   4.999   6.751
 4847SOL    HW114927   2.338   4.992   6.714
 4847SOL    HW214928   2.442   5.088   6.795
 4848SOL     OW14929   3.417   5.235   6.289
 4848SOL    HW114930   3.360   5.219   6.370
 4848SOL    HW214931   3.358   5.245   6.209
 4849SOL     OW14932   2.997   4.427   6.303
 4849SOL    HW114933   3.054   4.505   6.278
 4849SOL    HW214934   2.937   4.453   6.379
 4850SOL     OW14935   3.617   4.331   5.817
 4850SOL    HW114936   3.605   4.318   5.718
 4850SOL    HW214937   3.587   4.250   5.866
 4851SOL     OW14938   2.630   4.868   6.609
 4851SOL    HW114939   2.552   4.885   6.669
 4851SOL    HW214940   2.664   4.955   6.573
 4852SOL     OW14941   2.712   4.522   7.409
 4852SOL    HW114942   2.708   4.598   7.474
 4852SOL    HW214943   2.734   4.558   7.318
 4853SOL     OW14944   2.547   4.736   6.251
 4853SOL    HW114945   2.616   4.720   6.321
 4853SOL    HW214946   2.474   4.793   6.289
 4854SOL     OW14947   2.548   4.885   7.389
 4854SOL    HW114948   2.608   4.964   7.403
 4854SOL    HW214949   2.462   4.916   7.348
 4855SOL     OW14950   2.197   5.159   6.647
 4855SOL    HW114951   2.119   5.128   6.594
 4855SOL    HW214952   2.255   5.217   6.590
 4856SOL     OW14953   3.322   5.229   6.925
 4856SOL    HW114954   3.346   5.323   6.951
 4856SOL    HW214955   3.306   5.175   7.007
 4857SOL     OW14956   2.300   4.116   7.085
 4857SOL    HW114957   2.382   4.060   7.094
 4857SOL    HW214958   2.219   4.058   7.089
 4858SOL     OW14959   3.465   4.171   6.323
 4858SOL    HW114960   3.391   4.217   6.273
 4858SOL    HW214961   3.516   4.239   6.376
 4859SOL     OW14962   2.989   5.065   7.276
 4859SOL    HW114963   3.036   5.065   7.364
 4859SOL    HW214964   2.941   4.978   7.265
 4860SOL     OW14965   2.092   5.158   6.124
 4860SOL    HW114966   2.066   5.254   6.124
 4860SOL    HW214967   2.021   5.104   6.169
 4861SOL     OW14968   2.102   4.815   6.472
 4861SOL    HW114969   2.116   4.731   6.524
 4861SOL    HW214970   2.047   4.879   6.527
 4862SOL     OW14971   2.468   4.688   5.709
 4862SOL    HW114972   2.475   4.772   5.655
 4862SOL    HW214973   2.514   4.701   5.797
 4863SOL     OW14974   3.456   3.838   7.066
 4863SOL    HW114975   3.438   3.905   6.994
 4863SOL    HW214976   3.453   3.884   7.155
 4864SOL     OW14977   1.984   4.367   6.149
 4864SOL    HW114978   1.939   4.279   6.166
 4864SOL    HW214979   1.983   4.421   6.233
 4865SOL     OW14980   1.889   5.320   5.703
 4865SOL    HW114981   1.870   5.224   5.724
 4865SOL    HW214982   1.856   5.378   5.778
 4866SOL     OW14983   3.551   4.646   6.198
 4866SOL    HW114984   3.646   4.617   6.206
 4866SOL    HW214985   3.543   4.711   6.123
 4867SOL     OW14986   3.503   4.832   6.018
 4867SOL    HW114987   3.589   4.834   5.966
 4867SOL    HW214988   3.517   4.879   6.106
 4868SOL     OW14989   1.975   4.461   7.183
 4868SOL    HW114990   2.063   4.448   7.228
 4868SOL    HW214991   1.962   4.558   7.161
 4869SOL     OW14992   2.475   5.089   6.312
 4869SOL    HW114993   2.426   5.002   6.321
 4869SOL    HW214994   2.452   5.132   6.225
 4870SOL     OW14995   3.155   4.952   7.009
 4870SOL    HW114996   3.192   4.879   6.951
 4870SOL    HW214997   3.207   4.957   7.094
 4871SOL     OW14998   2.671   3.728   6.088
 4871SOL    HW114999   2.711   3.819   6.079
 4871SOL    HW215000   2.571   3.736   6.094
 4872SOL     OW15001   2.059   4.700   6.850
 4872SOL    HW115002   2.148   4.655   6.836
 4872SOL    HW215003   1.986   4.635   6.831
 4873SOL     OW15004   3.387   4.723   5.776
 4873SOL    HW115005   3.324   4.647   5.789
 4873SOL    HW215006   3.435   4.741   5.862
 4874SOL     OW15007   2.179   3.975   7.387
 4874SOL    HW115008   2.250   4.046   7.393
 4874SOL    HW215009   2.091   4.014   7.415
 4875SOL     OW15010   3.328   5.141   6.539
 4875SOL    HW115011   3.269   5.147   6.619
 4875SOL    HW215012   3.313   5.053   6.493
 4876SOL     OW15013   2.460   4.453   5.856
 4876SOL    HW115014   2.484   4.522   5.788
 4876SOL    HW215015   2.382   4.486   5.910
 4877SOL     OW15016   3.143   4.069   6.530
 4877SOL    HW115017   3.057   4.019   6.517
 4877SOL    HW215018   3.205   4.015   6.586
 4878SOL     OW15019   2.669   4.329   7.051
 4878SOL    HW115020   2.622   4.326   7.140
 4878SOL    HW215021   2.618   4.274   6.985
 4879SOL     OW15022   3.256   4.193   7.260
 4879SOL    HW115023   3.236   4.236   7.348
 4879SOL    HW215024   3.334   4.131   7.269
 4880SOL     OW15025   2.835   4.614   7.158
 4880SOL    HW115026   2.881   4.530   7.129
 4880SOL    HW215027   2.779   4.648   7.083
 4881SOL     OW15028   2.853   4.134   6.828
 4881SOL    HW115029   2.776   4.168   6.882
 4881SOL    HW215030   2.819   4.083   6.749
 4882SOL     OW15031   2.903   4.425   6.015
 4882SOL    HW115032   2.929   4.421   6.111
 4882SOL    HW215033   2.818   4.374   6.001
 4883SOL     OW15034   1.938   4.535   6.375
 4883SOL    HW115035   2.037   4.523   6.384
 4883SOL    HW215036   1.914   4.630   6.396
 4884SOL     OW15037   2.727   4.072   5.781
 4884SOL    HW115038   2.786   4.135   5.732
 4884SOL    HW215039   2.746   3.978   5.752
 4885SOL     OW15040   3.581   4.309   7.417
 4885SOL    HW115041   3.555   4.398   7.381
 4885SOL    HW215042   3.579   4.241   7.344
 4886SOL     OW15043   3.224   4.868   6.131
 4886SOL    HW115044   3.307   4.839   6.083
 4886SOL    HW215045   3.175   4.935   6.075
 4887SOL     OW15046   2.412   3.920   6.471
 4887SOL    HW115047   2.407   3.915   6.571
 4887SOL    HW215048   2.414   4.016   6.442
 4888SOL     OW15049   2.870   5.180   6.063
 4888SOL    HW115050   2.824   5.252   6.011
 4888SOL    HW215051   2.866   5.200   6.161
 4889SOL     OW15052   3.657   4.790   6.459
 4889SOL    HW115053   3.595   4.775   6.383
 4889SOL    HW215054   3.605   4.801   6.544
 4890SOL     OW15055   3.089   5.274   7.092
 4890SOL    HW115056   3.095   5.197   7.156
 4890SOL    HW215057   3.037   5.248   7.012
 4891SOL     OW15058   2.183   4.667   5.828
 4891SOL    HW115059   2.265   4.706   5.786
 4891SOL    HW215060   2.156   4.585   5.779
 4892SOL     OW15061   3.320   4.459   6.314
 4892SOL    HW115062   3.315   4.394   6.389
 4892SOL    HW215063   3.400   4.518   6.327
 4893SOL     OW15064   2.323   4.990   7.313
 4893SOL    HW115065   2.273   4.991   7.227
 4893SOL    HW215066   2.260   4.972   7.389
 4894SOL     OW15067   2.973   5.500   5.823
 4894SOL    HW115068   2.913   5.438   5.873
 4894SOL    HW215069   3.004   5.456   5.738
 4895SOL     OW15070   2.064   4.009   7.084
 4895SOL    HW115071   1.984   4.069   7.071
 4895SOL    HW215072   2.054   3.960   7.170
 4896SOL     OW15073   3.494   5.101   5.667
 4896SOL    HW115074   3.462   5.195   5.657
 4896SOL    HW215075   3.418   5.038   5.655
 4897SOL     OW15076   3.262   3.831   6.012
 4897SOL    HW115077   3.238   3.794   5.922
 4897SOL    HW215078   3.361   3.847   6.016
 4898SOL     OW15079   2.244   4.424   6.066
 4898SOL    HW115080   2.289   4.334   6.063
 4898SOL    HW215081   2.150   4.413   6.099
 4899SOL     OW15082   3.409   3.946   7.315
 4899SOL    HW115083   3.404   3.983   7.407
 4899SOL    HW215084   3.337   3.877   7.303
 4900SOL     OW15085   2.476   3.846   5.703
 4900SOL    HW115086   2.574   3.824   5.710
 4900SOL    HW215087   2.445   3.829   5.610
 4901SOL     OW15088   2.643   3.988   7.335
 4901SOL    HW115089   2.710   3.927   7.378
 4901SOL    HW215090   2.570   4.007   7.400
 4902SOL     OW15091   3.213   4.314   7.019
 4902SOL    HW115092   3.241   4.271   7.104
 4902SOL    HW215093   3.238   4.410   7.020
 4903SOL     OW15094   2.665   5.126   6.510
 4903SOL    HW115095   2.755   5.140   6.468
 4903SOL    HW215096   2.594   5.128   6.439
 4904SOL     OW15097   2.784   4.227   6.485
 4904SOL    HW115098   2.759   4.218   6.389
 4904SOL    HW215099   2.832   4.145   6.516
 4905SOL     OW15100   2.401   3.788   6.098
 4905SOL    HW115101   2.320   3.789   6.156
 4905SOL    HW215102   2.404   3.871   6.043
 4906SOL     OW15103   3.296   4.912   5.627
 4906SOL    HW115104   3.328   4.836   5.684
 4906SOL    HW215105   3.204   4.939   5.657
 4907SOL     OW15106   2.159   3.759   5.757
 4907SOL    HW115107   2.208   3.843   5.736
 4907SOL    HW215108   2.221   3.694   5.802
 4908SOL     OW15109   2.797   3.960   6.066
 4908SOL    HW115110   2.749   4.001   5.988
 4908SOL    HW215111   2.896   3.958   6.047
 4909SOL     OW15112   2.938   4.407   7.050
 4909SOL    HW115113   2.858   4.346   7.053
 4909SOL    HW215114   3.019   4.354   7.026
 4910SOL     OW15115   3.089   5.294   6.379
 4910SOL    HW115116   3.110   5.368   6.314
 4910SOL    HW215117   3.157   5.294   6.452
 4911SOL     OW15118   2.321   4.876   6.327
 4911SOL    HW115119   2.250   4.849   6.392
 4911SOL    HW215120   2.295   4.848   6.234
 4912SOL     OW15121   2.894   4.273   5.602
 4912SOL    HW115122   2.853   4.355   5.563
 4912SOL    HW215123   2.958   4.299   5.675
 4913SOL     OW15124   1.940   4.280   6.972
 4913SOL    HW115125   2.032   4.279   6.931
 4913SOL    HW215126   1.934   4.354   7.039
 4914SOL     OW15127   2.423   3.946   6.733
 4914SOL    HW115128   2.461   3.862   6.770
 4914SOL    HW215129   2.335   3.965   6.777
 4915SOL     OW15130   2.728   4.178   6.228
 4915SOL    HW115131   2.696   4.250   6.166
 4915SOL    HW215132   2.752   4.097   6.175
 4916SOL     OW15133   2.879   3.763   6.339
 4916SOL    HW115134   2.807   3.768   6.270
 4916SOL    HW215135   2.855   3.694   6.408
 4917SOL     OW15136   3.291   4.897   6.453
 4917SOL    HW115137   3.236   4.813   6.446
 4917SOL    HW215138   3.317   4.926   6.361
 4918SOL     OW15139   3.328   4.314   6.578
 4918SOL    HW115140   3.298   4.219   6.585
 4918SOL    HW215141   3.401   4.330   6.644
 4919SOL     OW15142   3.719   4.557   5.963
 4919SOL    HW115143   3.761   4.493   6.027
 4919SOL    HW215144   3.681   4.506   5.885
 4920SOL     OW15145   2.350   5.109   5.760
 4920SOL    HW115146   2.263   5.094   5.807
 4920SOL    HW215147   2.333   5.135   5.665
 4921SOL     OW15148   3.526   5.004   6.243
 4921SOL    HW115149   3.625   5.012   6.257
 4921SOL    HW215150   3.481   5.088   6.274
 4922SOL     OW15151   3.252   4.299   5.664
 4922SOL    HW115152   3.198   4.278   5.745
 4922SOL    HW215153   3.343   4.258   5.673
 4923SOL     OW15154   2.389   3.980   5.914
 4923SOL    HW115155   2.416   3.921   5.839
 4923SOL    HW215156   2.389   4.075   5.883
 4924SOL     OW15157   3.616   4.947   7.174
 4924SOL    HW115158   3.707   4.908   7.161
 4924SOL    HW215159   3.624   5.043   7.198
 4925SOL     OW15160   2.926   5.071   6.926
 4925SOL    HW115161   2.846   5.048   6.981
 4925SOL    HW215162   3.009   5.045   6.975
 4926SOL     OW15163   2.973   4.919   6.686
 4926SOL    HW115164   2.933   4.963   6.767
 4926SOL    HW215165   2.932   4.956   6.603
 4927SOL     OW15166   3.500   4.823   6.665
 4927SOL    HW115167   3.505   4.904   6.724
 4927SOL    HW215168   3.414   4.825   6.614
 4928SOL     OW15169   2.777   3.813   6.988
 4928SOL    HW115170   2.802   3.793   6.893
 4928SOL    HW215171   2.849   3.869   7.030
 4929SOL     OW15172   2.842   4.840   7.305
 4929SOL    HW115173   2.743   4.846   7.315
 4929SOL    HW215174   2.865   4.760   7.249
 4930SOL     OW15175   2.567   4.774   5.954
 4930SOL    HW115176   2.553   4.781   6.053
 4930SOL    HW215177   2.651   4.723   5.936
 4931SOL     OW15178   2.272   4.537   6.837
 4931SOL    HW115179   2.358   4.549   6.887
 4931SOL    HW215180   2.230   4.450   6.864
 4932SOL     OW15181   3.136   4.110   6.848
 4932SOL    HW115182   3.157   4.184   6.912
 4932SOL    HW215183   3.047   4.127   6.805
 4933SOL     OW15184   2.229   4.824   6.087
 4933SOL    HW115185   2.222   4.907   6.031
 4933SOL    HW215186   2.233   4.744   6.027
 4934SOL     OW15187   2.428   4.261   6.451
 4934SOL    HW115188   2.440   4.327   6.377
 4934SOL    HW215189   2.474   4.295   6.534
 4935SOL     OW15190   3.114   5.072   5.974
 4935SOL    HW115191   3.164   5.149   6.014
 4935SOL    HW215192   3.019   5.074   6.006
 4936SOL     OW15193   3.134   5.169   6.728
 4936SOL    HW115194   3.181   5.182   6.815
 4936SOL    HW215195   3.068   5.095   6.737
 4937SOL     OW15196   3.444   4.363   6.058
 4937SOL    HW115197   3.413   4.424   6.131
 4937SOL    HW215198   3.494   4.415   5.989
 4938SOL     OW15199   2.216   5.234   6.915
 4938SOL    HW115200   2.195   5.190   6.828
 4938SOL    HW215201   2.313   5.260   6.918
 4939SOL     OW15202   2.264   4.475   7.184
 4939SOL    HW115203   2.332   4.530   7.137
 4939SOL    HW215204   2.304   4.387   7.211
 4940SOL     OW15205   3.449   4.503   7.256
 4940SOL    HW115206   3.357   4.541   7.251
 4940SOL    HW215207   3.509   4.550   7.191
 4941SOL     OW15208   2.875   3.829   7.356
 4941SOL    HW115209   2.881   3.914   7.304
 4941SOL    HW215210   2.907   3.753   7.299
 4942SOL     OW15211   2.366   3.774   7.326
 4942SOL    HW115212   2.324   3.717   7.256
 4942SOL    HW215213   2.300   3.843   7.358
 4943SOL     OW15214   2.435   4.594   6.615
 4943SOL    HW115215   2.479   4.683   6.606
 4943SOL    HW215216   2.372   4.594   6.692
 4944SOL     OW15217   3.222   4.586   6.631
 4944SOL    HW115218   3.147   4.586   6.565
 4944SOL    HW215219   3.259   4.494   6.640
 4945SOL     OW15220   3.071   4.249   5.861
 4945SOL    HW115221   3.084   4.165   5.915
 4945SOL    HW215222   3.042   4.323   5.921
 4946SOL     OW15223   2.169   3.937   6.817
 4946SOL    HW115224   2.146   3.974   6.907
 4946SOL    HW215225   2.139   3.842   6.811
 4947SOL     OW15226   1.899   5.034   6.868
 4947SOL    HW115227   1.952   4.985   6.936
 4947SOL    HW215228   1.921   5.132   6.873
 4948SOL     OW15229   2.594   4.358   6.650
 4948SOL    HW115230   2.653   4.332   6.574
 4948SOL    HW215231   2.566   4.454   6.639
 4949SOL     OW15232   3.590   4.659   7.440
 4949SOL    HW115233   3.544   4.652   7.351
 4949SOL    HW215234   3.528   4.703   7.506
 4950SOL     OW15235   2.169   3.787   6.204
 4950SOL    HW115236   2.158   3.881   6.237
 4950SOL    HW215237   2.164   3.724   6.281
 4951SOL     OW15238   3.484   4.091   5.960
 4951SOL    HW115239   3.486   4.015   6.024
 4951SOL    HW215240   3.436   4.168   6.000
 4952SOL     OW15241   2.885   4.490   6.552
 4952SOL    HW115242   2.900   4.511   6.648
 4952SOL    HW215243   2.855   4.395   6.543
 4953SOL     OW15244   3.721   5.242   7.191
 4953SOL    HW115245   3.735   5.269   7.096
 4953SOL    HW215246   3.804   5.264   7.244
 4954SOL     OW15247   2.212   4.622   7.390
 4954SOL    HW115248   2.288   4.666   7.438
 4954SOL    HW215249   2.247   4.575   7.308
 4955SOL     OW15250   3.402   3.998   5.711
 4955SOL    HW115251   3.341   3.923   5.734
 4955SOL    HW215252   3.424   4.050   5.794
 4956SOL     OW15253   3.165   4.562   5.628
 4956SOL    HW115254   3.199   4.469   5.643
 4956SOL    HW215255   3.183   4.589   5.533
 4957SOL     OW15256   2.930   5.057   6.435
 4957SOL    HW115257   2.937   4.973   6.380
 4957SOL    HW215258   2.992   5.126   6.399
 4958SOL     OW15259   2.181   4.534   6.535
 4958SOL    HW115260   2.274   4.570   6.540
 4958SOL    HW215261   2.175   4.449   6.587
 4959SOL     OW15262   2.201   4.233   6.592
 4959SOL    HW115263   2.149   4.150   6.575
 4959SOL    HW215264   2.278   4.238   6.528
 4960SOL     OW15265   3.000   4.104   7.264
 4960SOL    HW115266   2.955   4.167   7.328
 4960SOL    HW215267   3.093   4.135   7.247
 4961SOL     OW15268   3.022   3.931   7.063
 4961SOL    HW115269   3.022   3.995   7.140
 4961SOL    HW215270   3.050   3.979   6.980
 4962SOL     OW15271   1.870   5.050   5.786
 4962SOL    HW115272   1.777   5.071   5.755
 4962SOL    HW215273   1.880   4.951   5.799
 4963SOL     OW15274   2.864   4.520   6.824
 4963SOL    HW115275   2.905   4.488   6.910
 4963SOL    HW215276   2.768   4.493   6.821
 4964SOL     OW15277   1.902   4.268   6.700
 4964SOL    HW115278   1.987   4.235   6.659
 4964SOL    HW215279   1.915   4.283   6.798
 4965SOL     OW15280   2.051   4.244   7.308
 4965SOL    HW115281   2.110   4.204   7.238
 4965SOL    HW215282   1.993   4.315   7.267
 4966SOL     OW15283   3.231   4.674   7.246
 4966SOL    HW115284   3.270   4.763   7.266
 4966SOL    HW215285   3.241   4.654   7.149
 4967SOL     OW15286   2.677   4.296   5.911
 4967SOL    HW115287   2.684   4.207   5.865
 4967SOL    HW215288   2.583   4.330   5.903
 4968SOL     OW15289   3.519   4.328   6.792
 4968SOL    HW115290   3.481   4.259   6.854
 4968SOL    HW215291   3.601   4.292   6.748
 4969SOL     OW15292   2.114   5.288   7.330
 4969SOL    HW115293   2.084   5.345   7.406
 4969SOL    HW215294   2.107   5.191   7.356
 4970SOL     OW15295   2.533   4.188   6.855
 4970SOL    HW115296   2.499   4.099   6.825
 4970SOL    HW215297   2.559   4.242   6.775
 4971SOL     OW15298   2.335   4.224   5.777
 4971SOL    HW115299   2.396   4.304   5.781
 4971SOL    HW215300   2.240   4.255   5.784
 4972SOL     OW15301   2.021   4.861   7.052
 4972SOL    HW115302   2.043   4.800   7.128
 4972SOL    HW215303   2.031   4.812   6.966
 4973SOL     OW15304   3.209   4.783   6.820
 4973SOL    HW115305   3.233   4.720   6.746
 4973SOL    HW215306   3.119   4.823   6.802
 4974SOL     OW15307   3.164   4.579   5.895
 4974SOL    HW115308   3.078   4.548   5.937
 4974SOL    HW215309   3.160   4.565   5.796
 4975SOL     OW15310   1.945   4.982   6.608
 4975SOL    HW115311   1.940   4.981   6.708
 4975SOL    HW215312   1.862   4.941   6.570
 4976SOL     OW15313   2.550   5.386   7.302
 4976SOL    HW115314   2.494   5.467   7.311
 4976SOL    HW215315   2.602   5.390   7.216
 4977SOL     OW15316   3.588   3.859   6.109
 4977SOL    HW115317   3.661   3.842   6.042
 4977SOL    HW215318   3.557   3.772   6.147
 4978SOL     OW15319   3.142   4.651   6.258
 4978SOL    HW115320   3.202   4.570   6.260
 4978SOL    HW215321   3.182   4.720   6.198
 4979SOL     OW15322   2.692   4.997   7.008
 4979SOL    HW115323   2.687   5.030   7.103
 4979SOL    HW215324   2.606   5.016   6.962
 4980SOL     OW15325   3.703   3.899   6.549
 4980SOL    HW115326   3.742   3.814   6.513
 4980SOL    HW215327   3.605   3.901   6.530
 4981SOL     OW15328   2.125   4.050   6.306
 4981SOL    HW115329   2.046   4.101   6.272
 4981SOL    HW215330   2.116   4.035   6.404
 4982SOL     OW15331   2.684   4.726   6.958
 4982SOL    HW115332   2.724   4.725   6.866
 4982SOL    HW215333   2.694   4.818   6.998
 4983SOL     OW15334   2.778   4.634   5.877
 4983SOL    HW115335   2.841   4.672   5.809
 4983SOL    HW215336   2.818   4.551   5.916
 4984SOL     OW15337   2.234   5.012   7.076
 4984SOL    HW115338   2.221   5.105   7.042
 4984SOL    HW215339   2.150   4.960   7.063
 4985SOL     OW15340   3.476   5.016   6.875
 4985SOL    HW115341   3.536   5.019   6.955
 4985SOL    HW215342   3.401   5.080   6.888
 4986SOL     OW15343   2.901   4.822   6.282
 4986SOL    HW115344   2.831   4.775   6.336
 4986SOL    HW215345   2.960   4.754   6.239
 4987SOL     OW15346   2.876   3.960   6.557
 4987SOL    HW115347   2.868   3.924   6.464
 4987SOL    HW215348   2.874   3.884   6.622
 4988SOL     OW15349   3.571   4.109   6.967
 4988SOL    HW115350   3.644   4.178   6.971
 4988SOL    HW215351   3.599   4.034   6.908
 4989SOL     OW15352   2.117   5.072   5.876
 4989SOL    HW115353   2.021   5.073   5.849
 4989SOL    HW215354   2.129   5.125   5.960
 4990SOL     OW15355   1.967   4.737   7.312
 4990SOL    HW115356   1.890   4.704   7.366
 4990SOL    HW215357   2.052   4.707   7.354
 4991SOL     OW15358   2.534   3.927   7.075
 4991SOL    HW115359   2.624   3.911   7.035
 4991SOL    HW215360   2.542   3.932   7.174
 4992SOL     OW15361   1.937   4.069   5.619
 4992SOL    HW115362   1.845   4.041   5.590
 4992SOL    HW215363   1.968   4.146   5.563
 4993SOL     OW15364   3.302   4.580   6.984
 4993SOL    HW115365   3.245   4.632   6.921
 4993SOL    HW215366   3.398   4.592   6.960
 4994SOL     OW15367   1.934   3.890   5.904
 4994SOL    HW115368   1.917   3.973   5.850
 4994SOL    HW215369   2.024   3.853   5.882
 4995SOL     OW15370   3.045   5.059   5.705
 4995SOL    HW115371   2.946   5.048   5.707
 4995SOL    HW215372   3.079   5.074   5.798
 4996SOL     OW15373   2.475   4.566   7.017
 4996SOL    HW115374   2.531   4.647   7.000
 4996SOL    HW215375   2.534   4.486   7.020
 4997SOL     OW15376   2.578   4.289   7.294
 4997SOL    HW115377   2.597   4.354   7.368
 4997SOL    HW215378   2.638   4.209   7.303
 4998SOL     OW15379   3.312   4.944   7.219
 4998SOL    HW115380   3.303   4.934   7.318
 4998SOL    HW215381   3.408   4.937   7.193
 4999SOL     OW15382   3.536   4.607   6.840
 4999SOL    HW115383   3.509   4.518   6.803
 4999SOL    HW215384   3.537   4.675   6.767
 5000SOL     OW15385   3.087   4.049   6.035
 5000SOL    HW115386   3.152   3.975   6.024
 5000SOL    HW215387   3.107   4.099   6.119
 5001SOL     OW15388   2.456   4.469   6.238
 5001SOL    HW115389   2.506   4.554   6.219
 5001SOL    HW215390   2.368   4.471   6.190
 5002SOL     OW15391   3.639   4.066   7.228
 5002SOL    HW115392   3.622   4.097   7.134
 5002SOL    HW215393   3.555   4.029   7.266
 5003SOL     OW15394   3.592   4.658   7.103
 5003SOL    HW115395   3.630   4.749   7.118
 5003SOL    HW215396   3.584   4.641   7.004
 5004SOL     OW15397   2.721   5.098   5.602
 5004SOL    HW115398   2.675   5.113   5.690
 5004SOL    HW215399   2.765   5.183   5.572
 5005SOL     OW15400   2.721   4.680   6.447
 5005SOL    HW115401   2.775   4.611   6.495
 5005SOL    HW215402   2.689   4.749   6.513
 5006SOL     OW15403   2.945   4.708   5.673
 5006SOL    HW115404   2.922   4.761   5.591
 5006SOL    HW215405   3.026   4.652   5.654
 5007SOL     OW15406   2.083   5.038   7.430
 5007SOL    HW115407   2.018   4.965   7.409
 5007SOL    HW215408   2.087   5.052   7.528
 5008SOL     OW15409   1.941   4.964   6.239
 5008SOL    HW115410   1.940   4.917   6.327
 5008SOL    HW215411   2.023   4.936   6.188
 5009SOL     OW15412   2.534   5.115   7.210
 5009SOL    HW115413   2.456   5.065   7.248
 5009SOL    HW215414   2.531   5.210   7.241
 5010SOL     OW15415   3.686   3.916   6.813
 5010SOL    HW115416   3.682   3.826   6.857
 5010SOL    HW215417   3.689   3.905   6.714
 5011SOL     OW15418   2.290   4.148   6.106
 5011SOL    HW115419   2.320   4.076   6.044
 5011SOL    HW215420   2.251   4.108   6.189
 5012SOL     OW15421   3.567   5.211   6.690
 5012SOL    HW115422   3.474   5.186   6.663
 5012SOL    HW215423   3.593   5.161   6.772
 5013SOL     OW15424   2.179   4.271   6.866
 5013SOL    HW115425   2.217   4.212   6.938
 5013SOL    HW215426   2.219   4.245   6.778
 5014SOL     OW15427   3.286   3.938   6.698
 5014SOL    HW115428   3.338   3.873   6.753
 5014SOL    HW215429   3.237   4.001   6.759
 5015SOL     OW15430   2.863   3.758   6.740
 5015SOL    HW115431   2.800   3.686   6.709
 5015SOL    HW215432   2.956   3.722   6.740
 5016SOL     OW15433   2.632   5.054   5.887
 5016SOL    HW115434   2.586   4.967   5.904
 5016SOL    HW215435   2.723   5.051   5.928
 5017SOL     OW15436   2.480   5.291   6.870
 5017SOL    HW115437   2.475   5.373   6.927
 5017SOL    HW215438   2.569   5.288   6.825
 5018SOL     OW15439   3.214   3.776   5.754
 5018SOL    HW115440   3.249   3.735   5.670
 5018SOL    HW215441   3.124   3.738   5.774
 5019SOL     OW15442   3.162   4.177   6.277
 5019SOL    HW115443   3.103   4.257   6.281
 5019SOL    HW215444   3.177   4.142   6.370
 5020SOL     OW15445   3.455   3.945   6.468
 5020SOL    HW115446   3.371   3.944   6.522
 5020SOL    HW215447   3.457   4.028   6.412
 5021SOL     OW15448   1.901   4.801   5.886
 5021SOL    HW115449   2.000   4.790   5.877
 5021SOL    HW215450   1.861   4.715   5.918
 5022SOL     OW15451   2.092   4.352   7.561
 5022SOL    HW115452   1.999   4.350   7.598
 5022SOL    HW215453   2.093   4.313   7.469
 5023SOL     OW15454   3.617   4.331   7.679
 5023SOL    HW115455   3.605   4.318   7.580
 5023SOL    HW215456   3.587   4.250   7.728
 5024SOL     OW15457   2.093   5.437   7.931
 5024SOL    HW115458   2.127   5.514   7.985
 5024SOL    HW215459   2.137   5.437   7.841
 5025SOL     OW15460   2.092   5.158   7.986
 5025SOL    HW115461   2.066   5.254   7.986
 5025SOL    HW215462   2.021   5.104   8.031
 5026SOL     OW15463   2.468   4.688   7.571
 5026SOL    HW115464   2.475   4.772   7.517
 5026SOL    HW215465   2.514   4.701   7.659
 5027SOL     OW15466   1.889   5.320   7.565
 5027SOL    HW115467   1.870   5.224   7.586
 5027SOL    HW215468   1.856   5.378   7.640
 5028SOL     OW15469   3.551   4.646   8.060
 5028SOL    HW115470   3.646   4.617   8.068
 5028SOL    HW215471   3.543   4.711   7.985
 5029SOL     OW15472   3.503   4.832   7.880
 5029SOL    HW115473   3.589   4.834   7.828
 5029SOL    HW215474   3.517   4.879   7.968
 5030SOL     OW15475   2.671   3.728   7.950
 5030SOL    HW115476   2.711   3.819   7.941
 5030SOL    HW215477   2.571   3.736   7.956
 5031SOL     OW15478   3.387   4.723   7.638
 5031SOL    HW115479   3.324   4.647   7.651
 5031SOL    HW215480   3.435   4.741   7.724
 5032SOL     OW15481   2.460   4.453   7.718
 5032SOL    HW115482   2.484   4.522   7.650
 5032SOL    HW215483   2.382   4.486   7.772
 5033SOL     OW15484   1.938   4.535   8.237
 5033SOL    HW115485   2.037   4.523   8.246
 5033SOL    HW215486   1.914   4.630   8.258
 5034SOL     OW15487   2.727   4.072   7.643
 5034SOL    HW115488   2.786   4.135   7.594
 5034SOL    HW215489   2.746   3.978   7.614
 5035SOL     OW15490   2.183   4.667   7.690
 5035SOL    HW115491   2.265   4.706   7.648
 5035SOL    HW215492   2.156   4.585   7.641
 5036SOL     OW15493   2.973   5.500   7.685
 5036SOL    HW115494   2.913   5.438   7.735
 5036SOL    HW215495   3.004   5.456   7.600
 5037SOL     OW15496   3.494   5.101   7.529
 5037SOL    HW115497   3.462   5.195   7.519
 5037SOL    HW215498   3.418   5.038   7.517
 5038SOL     OW15499   3.262   3.831   7.874
 5038SOL    HW115500   3.238   3.794   7.784
 5038SOL    HW215501   3.361   3.847   7.878
 5039SOL     OW15502   2.244   4.424   7.928
 5039SOL    HW115503   2.289   4.334   7.925
 5039SOL    HW215504   2.150   4.413   7.961
 5040SOL     OW15505   2.476   3.846   7.565
 5040SOL    HW115506   2.574   3.824   7.572
 5040SOL    HW215507   2.445   3.829   7.472
 5041SOL     OW15508   2.401   3.788   7.960
 5041SOL    HW115509   2.320   3.789   8.018
 5041SOL    HW215510   2.404   3.871   7.905
 5042SOL     OW15511   3.296   4.912   7.489
 5042SOL    HW115512   3.328   4.836   7.546
 5042SOL    HW215513   3.204   4.939   7.519
 5043SOL     OW15514   2.159   3.759   7.619
 5043SOL    HW115515   2.208   3.843   7.598
 5043SOL    HW215516   2.221   3.694   7.664
 5044SOL     OW15517   2.797   3.960   7.928
 5044SOL    HW115518   2.749   4.001   7.850
 5044SOL    HW215519   2.896   3.958   7.909
 5045SOL     OW15520   2.321   4.876   8.189
 5045SOL    HW115521   2.250   4.849   8.254
 5045SOL    HW215522   2.295   4.848   8.096
 5046SOL     OW15523   2.894   4.273   7.464
 5046SOL    HW115524   2.853   4.355   7.425
 5046SOL    HW215525   2.958   4.299   7.537
 5047SOL     OW15526   3.719   4.557   7.825
 5047SOL    HW115527   3.761   4.493   7.889
 5047SOL    HW215528   3.681   4.506   7.747
 5048SOL     OW15529   2.350   5.109   7.622
 5048SOL    HW115530   2.263   5.094   7.669
 5048SOL    HW215531   2.333   5.135   7.527
 5049SOL     OW15532   3.252   4.299   7.526
 5049SOL    HW115533   3.198   4.278   7.607
 5049SOL    HW215534   3.343   4.258   7.535
 5050SOL     OW15535   2.389   3.980   7.776
 5050SOL    HW115536   2.416   3.921   7.701
 5050SOL    HW215537   2.389   4.075   7.745
 5051SOL     OW15538   2.567   4.774   7.816
 5051SOL    HW115539   2.553   4.781   7.915
 5051SOL    HW215540   2.651   4.723   7.798
 5052SOL     OW15541   2.229   4.824   7.949
 5052SOL    HW115542   2.222   4.907   7.893
 5052SOL    HW215543   2.233   4.744   7.889
 5053SOL     OW15544   3.114   5.072   7.836
 5053SOL    HW115545   3.164   5.149   7.876
 5053SOL    HW215546   3.019   5.074   7.868
 5054SOL     OW15547   3.444   4.363   7.920
 5054SOL    HW115548   3.413   4.424   7.993
 5054SOL    HW215549   3.494   4.415   7.851
 5055SOL     OW15550   3.071   4.249   7.723
 5055SOL    HW115551   3.084   4.165   7.777
 5055SOL    HW215552   3.042   4.323   7.783
 5056SOL     OW15553   3.484   4.091   7.822
 5056SOL    HW115554   3.486   4.015   7.886
 5056SOL    HW215555   3.436   4.168   7.862
 5057SOL     OW15556   3.402   3.998   7.573
 5057SOL    HW115557   3.341   3.923   7.596
 5057SOL    HW215558   3.424   4.050   7.656
 5058SOL     OW15559   3.165   4.562   7.490
 5058SOL    HW115560   3.199   4.469   7.505
 5058SOL    HW215561   3.183   4.589   7.395
 5059SOL     OW15562   1.870   5.050   7.648
 5059SOL    HW115563   1.777   5.071   7.617
 5059SOL    HW215564   1.880   4.951   7.661
 5060SOL     OW15565   2.677   4.296   7.773
 5060SOL    HW115566   2.684   4.207   7.727
 5060SOL    HW215567   2.583   4.330   7.765
 5061SOL     OW15568   2.335   4.224   7.639
 5061SOL    HW115569   2.396   4.304   7.643
 5061SOL    HW215570   2.240   4.255   7.646
 5062SOL     OW15571   3.164   4.579   7.757
 5062SOL    HW115572   3.078   4.548   7.799
 5062SOL    HW215573   3.160   4.565   7.658
 5063SOL     OW15574   3.588   3.859   7.971
 5063SOL    HW115575   3.661   3.842   7.904
 5063SOL    HW215576   3.557   3.772   8.009
 5064SOL     OW15577   2.778   4.634   7.739
 5064SOL    HW115578   2.841   4.672   7.671
 5064SOL    HW215579   2.818   4.551   7.778
 5065SOL     OW15580   2.117   5.072   7.738
 5065SOL    HW115581   2.021   5.073   7.711
 5065SOL    HW215582   2.129   5.125   7.822
 5066SOL     OW15583   1.937   4.069   7.481
 5066SOL    HW115584   1.845   4.041   7.452
 5066SOL    HW215585   1.968   4.146   7.425
 5067SOL     OW15586   1.934   3.890   7.766
 5067SOL    HW115587   1.917   3.973   7.712
 5067SOL    HW215588   2.024   3.853   7.744
 5068SOL     OW15589   3.045   5.059   7.567
 5068SOL    HW115590   2.946   5.048   7.569
 5068SOL    HW215591   3.079   5.074   7.660
 5069SOL     OW15592   3.087   4.049   7.897
 5069SOL    HW115593   3.152   3.975   7.886
 5069SOL    HW215594   3.107   4.099   7.981
 5070SOL     OW15595   2.456   4.469   8.100
 5070SOL    HW115596   2.506   4.554   8.081
 5070SOL    HW215597   2.368   4.471   8.052
 5071SOL     OW15598   2.721   5.098   7.464
 5071SOL    HW115599   2.675   5.113   7.552
 5071SOL    HW215600   2.765   5.183   7.434
 5072SOL     OW15601   2.945   4.708   7.535
 5072SOL    HW115602   2.922   4.761   7.453
 5072SOL    HW215603   3.026   4.652   7.516
 5073SOL     OW15604   2.290   4.148   7.968
 5073SOL    HW115605   2.320   4.076   7.906
 5073SOL    HW215606   2.251   4.108   8.051
 5074SOL     OW15607   2.632   5.054   7.749
 5074SOL    HW115608   2.586   4.967   7.766
 5074SOL    HW215609   2.723   5.051   7.790
 5075SOL     OW15610   3.214   3.776   7.616
 5075SOL    HW115611   3.249   3.735   7.532
 5075SOL    HW215612   3.124   3.738   7.636
 5076SOL     OW15613   1.901   4.801   7.748
 5076SOL    HW115614   2.000   4.790   7.739
 5076SOL    HW215615   1.861   4.715   7.780
 5077SOL     OW15616   3.954   0.628   0.113
 5077SOL    HW115617   3.861   0.626   0.150
 5077SOL    HW215618   3.955   0.589   0.021
 5078SOL     OW15619   3.949   0.275   0.996
 5078SOL    HW115620   3.984   0.258   1.088
 5078SOL    HW215621   3.861   0.230   0.984
 5079SOL     OW15622   3.743   0.368   0.647
 5079SOL    HW115623   3.661   0.411   0.686
 5079SOL    HW215624   3.715   0.295   0.584
 5080SOL     OW15625   4.293   1.275   1.165
 5080SOL    HW115626   4.200   1.268   1.128
 5080SOL    HW215627   4.304   1.364   1.209
 5081SOL     OW15628   5.279   1.511   0.703
 5081SOL    HW115629   5.222   1.495   0.784
 5081SOL    HW215630   5.220   1.521   0.623
 5082SOL     OW15631   4.859   0.703   0.717
 5082SOL    HW115632   4.916   0.781   0.692
 5082SOL    HW215633   4.799   0.729   0.793
 5083SOL     OW15634   4.492   1.144   1.023
 5083SOL    HW115635   4.414   1.161   1.083
 5083SOL    HW215636   4.526   1.231   0.987
 5084SOL     OW15637   4.574   0.798   1.823
 5084SOL    HW115638   4.570   0.874   1.888
 5084SOL    HW215639   4.596   0.834   1.732
 5085SOL     OW15640   4.409   1.012   0.665
 5085SOL    HW115641   4.478   0.996   0.735
 5085SOL    HW215642   4.336   1.069   0.703
 5086SOL     OW15643   4.410   1.161   1.803
 5086SOL    HW115644   4.470   1.240   1.817
 5086SOL    HW215645   4.324   1.192   1.762
 5087SOL     OW15646   4.059   1.435   1.061
 5087SOL    HW115647   3.981   1.404   1.008
 5087SOL    HW215648   4.117   1.493   1.004
 5088SOL     OW15649   5.184   1.505   1.339
 5088SOL    HW115650   5.208   1.599   1.365
 5088SOL    HW215651   5.168   1.451   1.421
 5089SOL     OW15652   4.162   0.392   1.499
 5089SOL    HW115653   4.244   0.336   1.508
 5089SOL    HW215654   4.081   0.334   1.503
 5090SOL     OW15655   3.955   1.713   0.483
 5090SOL    HW115656   3.989   1.790   0.537
 5090SOL    HW215657   3.999   1.713   0.393
 5091SOL     OW15658   4.851   1.341   1.690
 5091SOL    HW115659   4.898   1.341   1.778
 5091SOL    HW215660   4.803   1.254   1.679
 5092SOL     OW15661   3.954   1.434   0.538
 5092SOL    HW115662   3.928   1.530   0.538
 5092SOL    HW215663   3.883   1.380   0.583
 5093SOL     OW15664   3.964   1.091   0.886
 5093SOL    HW115665   3.978   1.007   0.938
 5093SOL    HW215666   3.909   1.155   0.941
 5094SOL     OW15667   4.344   1.786   1.439
 5094SOL    HW115668   4.252   1.769   1.474
 5094SOL    HW215669   4.372   1.878   1.465
 5095SOL     OW15670   4.330   0.964   0.123
 5095SOL    HW115671   4.337   1.048   0.069
 5095SOL    HW215672   4.376   0.977   0.211
 5096SOL     OW15673   5.318   0.114   1.480
 5096SOL    HW115674   5.300   0.181   1.408
 5096SOL    HW215675   5.315   0.160   1.569
 5097SOL     OW15676   3.846   0.643   0.563
 5097SOL    HW115677   3.801   0.555   0.580
 5097SOL    HW215678   3.845   0.697   0.647
 5098SOL     OW15679   3.751   1.596   0.117
 5098SOL    HW115680   3.732   1.500   0.138
 5098SOL    HW215681   3.718   1.654   0.192
 5099SOL     OW15682   5.413   0.922   0.612
 5099SOL    HW115683   5.508   0.893   0.620
 5099SOL    HW215684   5.405   0.987   0.537
 5100SOL     OW15685   3.837   0.737   1.597
 5100SOL    HW115686   3.925   0.724   1.642
 5100SOL    HW215687   3.824   0.834   1.575
 5101SOL     OW15688   4.337   1.365   0.726
 5101SOL    HW115689   4.288   1.278   0.735
 5101SOL    HW215690   4.314   1.408   0.639
 5102SOL     OW15691   5.017   1.228   1.423
 5102SOL    HW115692   5.054   1.155   1.365
 5102SOL    HW215693   5.069   1.233   1.508
 5103SOL     OW15694   4.533   0.004   0.502
 5103SOL    HW115695   4.573   0.095   0.493
 5103SOL    HW215696   4.433   0.012   0.508
 5104SOL     OW15697   3.921   0.976   1.264
 5104SOL    HW115698   4.010   0.931   1.250
 5104SOL    HW215699   3.848   0.911   1.245
 5105SOL     OW15700   4.911   1.792   1.616
 5105SOL    HW115701   4.935   1.852   1.540
 5105SOL    HW215702   4.918   1.697   1.586
 5106SOL     OW15703   4.041   0.251   1.801
 5106SOL    HW115704   4.112   0.322   1.807
 5106SOL    HW215705   3.953   0.290   1.829
 5107SOL     OW15706   5.190   1.417   0.953
 5107SOL    HW115707   5.131   1.423   1.033
 5107SOL    HW215708   5.175   1.329   0.907
 5108SOL     OW15709   4.322   0.729   0.270
 5108SOL    HW115710   4.346   0.798   0.202
 5108SOL    HW215711   4.244   0.762   0.324
 5109SOL     OW15712   5.005   0.345   0.944
 5109SOL    HW115713   4.919   0.295   0.931
 5109SOL    HW215714   5.067   0.291   1.000
 5110SOL     OW15715   4.531   0.605   1.465
 5110SOL    HW115716   4.484   0.602   1.554
 5110SOL    HW215717   4.480   0.550   1.399
 5111SOL     OW15718   5.118   0.469   1.674
 5111SOL    HW115719   5.098   0.512   1.762
 5111SOL    HW215720   5.196   0.407   1.683
 5112SOL     OW15721   4.697   0.890   1.572
 5112SOL    HW115722   4.743   0.806   1.543
 5112SOL    HW215723   4.641   0.924   1.497
 5113SOL     OW15724   4.715   0.410   1.242
 5113SOL    HW115725   4.638   0.444   1.296
 5113SOL    HW215726   4.681   0.359   1.163
 5114SOL     OW15727   4.765   0.701   0.429
 5114SOL    HW115728   4.791   0.697   0.525
 5114SOL    HW215729   4.680   0.650   0.415
 5115SOL     OW15730   3.800   0.811   0.789
 5115SOL    HW115731   3.899   0.799   0.798
 5115SOL    HW215732   3.776   0.906   0.810
 5116SOL     OW15733   3.854   1.821   1.571
 5116SOL    HW115734   3.844   1.806   1.670
 5116SOL    HW215735   3.768   1.857   1.535
 5117SOL     OW15736   4.589   0.348   0.195
 5117SOL    HW115737   4.648   0.411   0.146
 5117SOL    HW215738   4.608   0.254   0.166
 5118SOL     OW15739   5.086   1.144   0.545
 5118SOL    HW115740   5.169   1.115   0.497
 5118SOL    HW215741   5.037   1.211   0.489
 5119SOL     OW15742   4.274   0.196   0.885
 5119SOL    HW115743   4.269   0.191   0.985
 5119SOL    HW215744   4.276   0.292   0.856
 5120SOL     OW15745   4.732   1.456   0.477
 5120SOL    HW115746   4.686   1.528   0.425
 5120SOL    HW215747   4.728   1.476   0.575
 5121SOL     OW15748   4.075   1.801   0.853
 5121SOL    HW115749   4.125   1.715   0.859
 5121SOL    HW215750   4.140   1.878   0.850
 5122SOL     OW15751   4.951   1.550   1.506
 5122SOL    HW115752   4.957   1.473   1.570
 5122SOL    HW215753   4.899   1.524   1.426
 5123SOL     OW15754   4.045   0.943   0.242
 5123SOL    HW115755   4.127   0.982   0.200
 5123SOL    HW215756   4.018   0.861   0.193
 5124SOL     OW15757   4.185   1.266   1.727
 5124SOL    HW115758   4.135   1.267   1.641
 5124SOL    HW215759   4.122   1.248   1.803
 5125SOL     OW15760   4.835   1.776   0.237
 5125SOL    HW115761   4.775   1.714   0.287
 5125SOL    HW215762   4.866   1.732   0.152
 5126SOL     OW15763   3.926   0.285   1.498
 5126SOL    HW115764   3.846   0.345   1.485
 5126SOL    HW215765   3.916   0.236   1.584
 5127SOL     OW15766   4.188   1.743   0.323
 5127SOL    HW115767   4.221   1.782   0.409
 5127SOL    HW215768   4.264   1.736   0.258
 5128SOL     OW15769   5.124   0.107   0.426
 5128SOL    HW115770   5.100   0.070   0.336
 5128SOL    HW215771   5.223   0.123   0.430
 5129SOL     OW15772   3.973   1.785   1.241
 5129SOL    HW115773   4.030   1.720   1.291
 5129SOL    HW215774   3.957   1.752   1.148
 5130SOL     OW15775   4.664   1.698   0.904
 5130SOL    HW115776   4.744   1.641   0.925
 5130SOL    HW215777   4.615   1.658   0.827
 5131SOL     OW15778   4.106   0.700   0.480
 5131SOL    HW115779   4.151   0.610   0.477
 5131SOL    HW215780   4.012   0.689   0.513
 5132SOL     OW15781   4.338   0.122   0.117
 5132SOL    HW115782   4.436   0.100   0.124
 5132SOL    HW215783   4.307   0.105   0.024
 5133SOL     OW15784   4.505   0.264   1.749
 5133SOL    HW115785   4.572   0.203   1.792
 5133SOL    HW215786   4.432   0.283   1.814
 5134SOL     OW15787   4.612   1.514   1.195
 5134SOL    HW115788   4.589   1.489   1.101
 5134SOL    HW215789   4.673   1.445   1.234
 5135SOL     OW15790   5.075   0.590   1.433
 5135SOL    HW115791   5.103   0.547   1.518
 5135SOL    HW215792   5.100   0.686   1.434
 5136SOL     OW15793   4.527   1.402   0.924
 5136SOL    HW115794   4.617   1.416   0.882
 5136SOL    HW215795   4.456   1.404   0.853
 5137SOL     OW15796   4.646   0.503   0.899
 5137SOL    HW115797   4.621   0.494   0.803
 5137SOL    HW215798   4.694   0.421   0.930
 5138SOL     OW15799   4.263   0.064   0.512
 5138SOL    HW115800   4.182   0.065   0.570
 5138SOL    HW215801   4.266   0.147   0.457
 5139SOL     OW15802   5.158   1.188   0.041
 5139SOL    HW115803   5.190   1.112   0.098
 5139SOL    HW215804   5.066   1.215   0.071
 5140SOL     OW15805   4.021   0.035   0.171
 5140SOL    HW115806   4.070   0.119   0.150
 5140SOL    HW215807   4.083  -0.030   0.216
 5141SOL     OW15808   4.659   0.236   0.480
 5141SOL    HW115809   4.611   0.277   0.402
 5141SOL    HW215810   4.758   0.234   0.461
 5142SOL     OW15811   4.800   0.683   1.464
 5142SOL    HW115812   4.720   0.622   1.467
 5142SOL    HW215813   4.881   0.630   1.440
 5143SOL     OW15814   4.951   1.570   0.793
 5143SOL    HW115815   4.972   1.644   0.728
 5143SOL    HW215816   5.019   1.570   0.866
 5144SOL     OW15817   4.183   1.152   0.741
 5144SOL    HW115818   4.112   1.125   0.806
 5144SOL    HW215819   4.157   1.124   0.648
 5145SOL     OW15820   4.995   1.797   0.591
 5145SOL    HW115821   5.039   1.861   0.527
 5145SOL    HW215822   4.945   1.849   0.661
 5146SOL     OW15823   4.756   0.549   0.016
 5146SOL    HW115824   4.715   0.631  -0.023
 5146SOL    HW215825   4.820   0.575   0.089
 5147SOL     OW15826   3.802   0.556   1.386
 5147SOL    HW115827   3.894   0.555   1.345
 5147SOL    HW215828   3.796   0.630   1.453
 5148SOL     OW15829   4.285   0.222   1.147
 5148SOL    HW115830   4.323   0.138   1.184
 5148SOL    HW215831   4.197   0.241   1.191
 5149SOL     OW15832   4.590   0.454   0.642
 5149SOL    HW115833   4.558   0.526   0.580
 5149SOL    HW215834   4.614   0.373   0.589
 5150SOL     OW15835   4.741   0.039   0.753
 5150SOL    HW115836   4.669   0.044   0.684
 5150SOL    HW215837   4.717  -0.030   0.822
 5151SOL     OW15838   5.153   1.173   0.867
 5151SOL    HW115839   5.098   1.089   0.860
 5151SOL    HW215840   5.179   1.202   0.775
 5152SOL     OW15841   4.212   1.385   0.174
 5152SOL    HW115842   4.125   1.370   0.221
 5152SOL    HW215843   4.195   1.411   0.079
 5153SOL     OW15844   5.114   0.575   0.078
 5153SOL    HW115845   5.060   0.554   0.159
 5153SOL    HW215846   5.205   0.534   0.087
 5154SOL     OW15847   4.251   0.256   0.328
 5154SOL    HW115848   4.278   0.197   0.253
 5154SOL    HW215849   4.251   0.351   0.297
 5155SOL     OW15850   4.788   1.347   1.340
 5155SOL    HW115851   4.708   1.324   1.395
 5155SOL    HW215852   4.871   1.321   1.389
 5156SOL     OW15853   5.316   1.629   1.625
 5156SOL    HW115854   5.343   1.663   1.535
 5156SOL    HW215855   5.395   1.591   1.671
 5157SOL     OW15856   4.835   1.195   1.100
 5157SOL    HW115857   4.795   1.239   1.181
 5157SOL    HW215858   4.794   1.232   1.017
 5158SOL     OW15859   4.639   0.089   1.402
 5158SOL    HW115860   4.664   0.069   1.307
 5158SOL    HW215861   4.711   0.145   1.444
 5159SOL     OW15862   4.704   1.116   1.719
 5159SOL    HW115863   4.605   1.122   1.729
 5159SOL    HW215864   4.727   1.036   1.663
 5160SOL     OW15865   4.429   1.050   0.368
 5160SOL    HW115866   4.415   1.057   0.467
 5160SOL    HW215867   4.513   0.999   0.350
 5161SOL     OW15868   4.134   0.813   1.251
 5161SOL    HW115869   4.220   0.825   1.301
 5161SOL    HW215870   4.092   0.726   1.278
 5162SOL     OW15871   4.998   0.386   1.262
 5162SOL    HW115872   5.019   0.460   1.326
 5162SOL    HW215873   4.909   0.403   1.219
 5163SOL     OW15874   3.788   1.564   1.331
 5163SOL    HW115875   3.742   1.646   1.297
 5163SOL    HW215876   3.886   1.583   1.340
 5164SOL     OW15877   4.091   1.100   0.501
 5164SOL    HW115878   4.084   1.183   0.445
 5164SOL    HW215879   4.095   1.020   0.441
 5165SOL     OW15880   4.290   0.537   0.865
 5165SOL    HW115881   4.302   0.603   0.791
 5165SOL    HW215882   4.336   0.571   0.948
 5166SOL     OW15883   4.976   1.348   0.388
 5166SOL    HW115884   5.026   1.425   0.428
 5166SOL    HW215885   4.881   1.350   0.420
 5167SOL     OW15886   4.996   1.445   1.142
 5167SOL    HW115887   5.043   1.458   1.229
 5167SOL    HW215888   4.930   1.371   1.151
 5168SOL     OW15889   4.078   1.510   1.329
 5168SOL    HW115890   4.057   1.466   1.242
 5168SOL    HW215891   4.175   1.536   1.332
 5169SOL     OW15892   4.126   0.751   1.598
 5169SOL    HW115893   4.194   0.806   1.551
 5169SOL    HW215894   4.166   0.663   1.625
 5170SOL     OW15895   4.737   0.105   1.770
 5170SOL    HW115896   4.743   0.190   1.718
 5170SOL    HW215897   4.769   0.029   1.713
 5171SOL     OW15898   4.228   0.050   1.740
 5171SOL    HW115899   4.186  -0.007   1.670
 5171SOL    HW215900   4.162   0.119   1.772
 5172SOL     OW15901   4.297   0.870   1.029
 5172SOL    HW115902   4.341   0.959   1.020
 5172SOL    HW215903   4.234   0.870   1.106
 5173SOL     OW15904   5.084   0.862   1.045
 5173SOL    HW115905   5.009   0.862   0.979
 5173SOL    HW215906   5.121   0.770   1.054
 5174SOL     OW15907   4.933   0.525   0.275
 5174SOL    HW115908   4.946   0.441   0.329
 5174SOL    HW215909   4.904   0.599   0.335
 5175SOL     OW15910   4.031   0.213   1.231
 5175SOL    HW115911   4.008   0.250   1.321
 5175SOL    HW215912   4.001   0.118   1.225
 5176SOL     OW15913   3.761   1.310   1.282
 5176SOL    HW115914   3.814   1.261   1.350
 5176SOL    HW215915   3.783   1.408   1.287
 5177SOL     OW15916   4.456   0.634   1.064
 5177SOL    HW115917   4.515   0.608   0.988
 5177SOL    HW215918   4.428   0.730   1.053
 5178SOL     OW15919   4.031   0.063   0.618
 5178SOL    HW115920   4.020   0.157   0.651
 5178SOL    HW215921   4.026   0.000   0.695
 5179SOL     OW15922   5.346   0.367   0.374
 5179SOL    HW115923   5.348   0.291   0.438
 5179SOL    HW215924   5.298   0.444   0.414
 5180SOL     OW15925   4.747   0.766   0.966
 5180SOL    HW115926   4.762   0.787   1.062
 5180SOL    HW215927   4.717   0.671   0.957
 5181SOL     OW15928   4.704   1.573   1.700
 5181SOL    HW115929   4.684   1.617   1.612
 5181SOL    HW215930   4.743   1.482   1.684
 5182SOL     OW15931   4.074   0.898   1.804
 5182SOL    HW115932   4.150   0.942   1.852
 5182SOL    HW215933   4.109   0.851   1.722
 5183SOL     OW15934   5.027   0.838   0.042
 5183SOL    HW115935   5.061   0.745   0.057
 5183SOL    HW215936   5.045   0.865  -0.053
 5184SOL     OW15937   4.792   1.333   0.849
 5184SOL    HW115938   4.799   1.249   0.794
 5184SOL    HW215939   4.854   1.402   0.813
 5185SOL     OW15940   4.043   0.810   0.949
 5185SOL    HW115941   4.136   0.846   0.954
 5185SOL    HW215942   4.037   0.725   1.001
 5186SOL     OW15943   4.063   0.509   1.006
 5186SOL    HW115944   4.011   0.426   0.989
 5186SOL    HW215945   4.140   0.514   0.942
 5187SOL     OW15946   4.862   0.380   1.678
 5187SOL    HW115947   4.817   0.443   1.742
 5187SOL    HW215948   4.955   0.411   1.661
 5188SOL     OW15949   4.884   0.207   1.477
 5188SOL    HW115950   4.884   0.271   1.554
 5188SOL    HW215951   4.912   0.255   1.394
 5189SOL     OW15952   3.732   1.326   0.200
 5189SOL    HW115953   3.639   1.347   0.169
 5189SOL    HW215954   3.742   1.227   0.213
 5190SOL     OW15955   3.812   1.801   0.927
 5190SOL    HW115956   3.770   1.715   0.900
 5190SOL    HW215957   3.906   1.804   0.893
 5191SOL     OW15958   4.228   1.568   0.910
 5191SOL    HW115959   4.294   1.642   0.919
 5191SOL    HW215960   4.272   1.489   0.868
 5192SOL     OW15961   4.726   0.796   1.238
 5192SOL    HW115962   4.767   0.764   1.324
 5192SOL    HW215963   4.630   0.769   1.235
 5193SOL     OW15964   3.764   0.544   1.114
 5193SOL    HW115965   3.849   0.511   1.073
 5193SOL    HW215966   3.777   0.559   1.212
 5194SOL     OW15967   3.913   0.520   1.722
 5194SOL    HW115968   3.972   0.480   1.652
 5194SOL    HW215969   3.855   0.591   1.681
 5195SOL     OW15970   5.093   0.950   1.660
 5195SOL    HW115971   5.132   1.039   1.680
 5195SOL    HW215972   5.103   0.930   1.563
 5196SOL     OW15973   4.539   0.572   0.325
 5196SOL    HW115974   4.546   0.483   0.279
 5196SOL    HW215975   4.445   0.606   0.317
 5197SOL     OW15976   3.976   1.564   1.744
 5197SOL    HW115977   3.946   1.621   1.820
 5197SOL    HW215978   3.969   1.467   1.770
 5198SOL     OW15979   4.395   0.464   1.269
 5198SOL    HW115980   4.361   0.375   1.239
 5198SOL    HW215981   4.421   0.518   1.189
 5199SOL     OW15982   4.654   1.678   1.465
 5199SOL    HW115983   4.630   1.660   1.370
 5199SOL    HW215984   4.684   1.772   1.475
 5200SOL     OW15985   4.197   0.500   0.191
 5200SOL    HW115986   4.258   0.580   0.195
 5200SOL    HW215987   4.102   0.531   0.198
 5201SOL     OW15988   3.883   1.137   1.466
 5201SOL    HW115989   3.905   1.076   1.542
 5201SOL    HW215990   3.893   1.088   1.380
 5202SOL     OW15991   5.071   1.059   1.234
 5202SOL    HW115992   5.095   0.996   1.160
 5202SOL    HW215993   4.981   1.099   1.216
 5203SOL     OW15994   5.026   0.855   0.309
 5203SOL    HW115995   4.940   0.824   0.351
 5203SOL    HW215996   5.022   0.841   0.210
 5204SOL     OW15997   4.976   1.731   1.128
 5204SOL    HW115998   5.060   1.736   1.074
 5204SOL    HW215999   4.953   1.635   1.146
 5205SOL     OW16000   3.807   1.258   1.022
 5205SOL    HW116001   3.802   1.257   1.122
 5205SOL    HW216002   3.724   1.217   0.984
 5206SOL     OW16003   4.412   1.662   1.716
 5206SOL    HW116004   4.356   1.743   1.725
 5206SOL    HW216005   4.464   1.666   1.630
 5207SOL     OW16006   4.627   0.086   0.133
 5207SOL    HW116007   4.678   0.087   0.047
 5207SOL    HW216008   4.683   0.044   0.204
 5208SOL     OW16009   5.112   1.573   0.477
 5208SOL    HW116010   5.179   1.585   0.403
 5208SOL    HW216011   5.072   1.662   0.500
 5209SOL     OW16012   3.854   1.794   1.851
 5209SOL    HW116013   3.813   1.720   1.904
 5209SOL    HW216014   3.918   1.845   1.909
 5210SOL     OW16015   5.004   0.927   0.672
 5210SOL    HW116016   5.064   0.846   0.674
 5210SOL    HW216017   5.044   0.996   0.612
 5211SOL     OW16018   4.554   1.273   1.422
 5211SOL    HW116019   4.549   1.306   1.517
 5211SOL    HW216020   4.468   1.292   1.376
 5212SOL     OW16021   4.396   1.616   0.154
 5212SOL    HW116022   4.405   1.626   0.055
 5212SOL    HW216023   4.356   1.527   0.175
 5213SOL     OW16024   3.987   0.326   0.720
 5213SOL    HW116025   3.908   0.377   0.686
 5213SOL    HW216026   3.978   0.311   0.818
 5214SOL     OW16027   4.918   1.612   0.031
 5214SOL    HW116028   4.924   1.519   0.068
 5214SOL    HW216029   4.859   1.612  -0.049
 5215SOL     OW16030   4.546   1.002   1.372
 5215SOL    HW116031   4.586   1.001   1.280
 5215SOL    HW216032   4.556   1.094   1.412
 5216SOL     OW16033   4.640   0.910   0.291
 5216SOL    HW116034   4.703   0.948   0.223
 5216SOL    HW216035   4.680   0.827   0.330
 5217SOL     OW16036   4.096   1.288   1.490
 5217SOL    HW116037   4.083   1.381   1.456
 5217SOL    HW216038   4.012   1.236   1.477
 5218SOL     OW16039   4.763   1.098   0.696
 5218SOL    HW116040   4.693   1.051   0.750
 5218SOL    HW216041   4.822   1.030   0.653
 5219SOL     OW16042   4.738   0.236   0.971
 5219SOL    HW116043   4.730   0.200   0.878
 5219SOL    HW216044   4.736   0.160   1.036
 5220SOL     OW16045   4.314   1.487   0.491
 5220SOL    HW116046   4.356   1.429   0.421
 5220SOL    HW216047   4.270   1.566   0.447
 5221SOL     OW16048   3.979   1.348   0.290
 5221SOL    HW116049   3.883   1.349   0.263
 5221SOL    HW216050   3.991   1.401   0.374
 5222SOL     OW16051   3.829   1.013   1.726
 5222SOL    HW116052   3.752   0.980   1.780
 5222SOL    HW216053   3.914   0.983   1.768
 5223SOL     OW16054   4.396   0.203   1.489
 5223SOL    HW116055   4.486   0.187   1.449
 5223SOL    HW216056   4.404   0.208   1.588
 5224SOL     OW16057   3.799   0.345   0.033
 5224SOL    HW116058   3.707   0.317   0.004
 5224SOL    HW216059   3.830   0.422  -0.023
 5225SOL     OW16060   5.164   0.856   1.398
 5225SOL    HW116061   5.107   0.908   1.335
 5225SOL    HW216062   5.260   0.868   1.374
 5226SOL     OW16063   3.796   0.166   0.318
 5226SOL    HW116064   3.779   0.249   0.264
 5226SOL    HW216065   3.886   0.129   0.296
 5227SOL     OW16066   4.907   1.335   0.119
 5227SOL    HW116067   4.808   1.324   0.121
 5227SOL    HW216068   4.941   1.350   0.212
 5228SOL     OW16069   4.337   0.842   1.431
 5228SOL    HW116070   4.393   0.923   1.414
 5228SOL    HW216071   4.396   0.762   1.434
 5229SOL     OW16072   4.440   0.565   1.708
 5229SOL    HW116073   4.459   0.630   1.782
 5229SOL    HW216074   4.500   0.485   1.717
 5230SOL     OW16075   5.174   1.220   1.633
 5230SOL    HW116076   5.165   1.210   1.732
 5230SOL    HW216077   5.270   1.213   1.607
 5231SOL     OW16078   4.114   1.741   1.560
 5231SOL    HW116079   4.023   1.782   1.558
 5231SOL    HW216080   4.107   1.647   1.592
 5232SOL     OW16081   4.949   0.325   0.449
 5232SOL    HW116082   5.014   0.251   0.438
 5232SOL    HW216083   4.969   0.375   0.533
 5233SOL     OW16084   4.318   0.745   0.652
 5233SOL    HW116085   4.368   0.830   0.633
 5233SOL    HW216086   4.230   0.747   0.604
 5234SOL     OW16087   4.583   1.374   0.016
 5234SOL    HW116088   4.537   1.389   0.104
 5234SOL    HW216089   4.627   1.459  -0.014
 5235SOL     OW16090   4.385   1.790   0.953
 5235SOL    HW116091   4.339   1.878   0.940
 5235SOL    HW216092   4.484   1.802   0.946
 5236SOL     OW16093   4.583   0.956   0.861
 5236SOL    HW116094   4.637   0.887   0.909
 5236SOL    HW216095   4.551   1.025   0.927
 5237SOL     OW16096   4.807   0.984   0.087
 5237SOL    HW116097   4.784   1.037   0.005
 5237SOL    HW216098   4.888   0.928   0.068
 5238SOL     OW16099   3.945   1.314   1.844
 5238SOL    HW116100   3.880   1.241   1.823
 5238SOL    HW216101   3.949   1.328   1.942
 5239SOL     OW16102   3.803   1.240   0.653
 5239SOL    HW116103   3.802   1.193   0.741
 5239SOL    HW216104   3.885   1.212   0.602
 5240SOL     OW16105   4.396   1.391   1.624
 5240SOL    HW116106   4.318   1.341   1.662
 5240SOL    HW216107   4.393   1.486   1.655
 5241SOL     OW16108   4.152   0.424   0.520
 5241SOL    HW116109   4.182   0.352   0.458
 5241SOL    HW216110   4.113   0.384   0.603
 5242SOL     OW16111   5.429   1.487   1.104
 5242SOL    HW116112   5.336   1.462   1.077
 5242SOL    HW216113   5.455   1.437   1.186
 5243SOL     OW16114   4.041   0.547   1.280
 5243SOL    HW116115   4.079   0.488   1.352
 5243SOL    HW216116   4.081   0.521   1.192
 5244SOL     OW16117   4.536   1.586   0.687
 5244SOL    HW116118   4.568   1.596   0.593
 5244SOL    HW216119   4.457   1.524   0.689
 5245SOL     OW16120   5.148   0.214   1.112
 5245SOL    HW116121   5.200   0.149   1.167
 5245SOL    HW216122   5.099   0.277   1.173
 5246SOL     OW16123   4.725   0.034   1.154
 5246SOL    HW116124   4.662  -0.038   1.123
 5246SOL    HW216125   4.818  -0.002   1.154
 5247SOL     OW16126   4.494   1.330   0.301
 5247SOL    HW116127   4.448   1.243   0.318
 5247SOL    HW216128   4.585   1.327   0.342
 5248SOL     OW16129   4.342   1.567   1.284
 5248SOL    HW116130   4.337   1.649   1.341
 5248SOL    HW216131   4.431   1.564   1.239
 5249SOL     OW16132   5.076   0.052   0.168
 5249SOL    HW116133   5.111   0.011   0.084
 5249SOL    HW216134   4.986   0.014   0.188
 5250SOL     OW16135   5.024   0.453   0.691
 5250SOL    HW116136   4.965   0.533   0.695
 5250SOL    HW216137   5.039   0.418   0.784
 5251SOL     OW16138   5.317   0.221   0.882
 5251SOL    HW116139   5.233   0.220   0.936
 5251SOL    HW216140   5.319   0.304   0.826
 5252SOL     OW16141   3.763   1.077   0.300
 5252SOL    HW116142   3.862   1.066   0.291
 5252SOL    HW216143   3.723   0.991   0.332
 5253SOL     OW16144   4.599   1.646   0.337
 5253SOL    HW116145   4.522   1.611   0.283
 5253SOL    HW216146   4.567   1.717   0.399
 5254SOL     OW16147   3.954   0.628   1.975
 5254SOL    HW116148   3.861   0.626   2.012
 5254SOL    HW216149   3.955   0.589   1.883
 5255SOL     OW16150   3.949   0.275   2.858
 5255SOL    HW116151   3.984   0.258   2.950
 5255SOL    HW216152   3.861   0.230   2.846
 5256SOL     OW16153   3.743   0.368   2.509
 5256SOL    HW116154   3.661   0.411   2.548
 5256SOL    HW216155   3.715   0.295   2.446
 5257SOL     OW16156   4.293   1.275   3.027
 5257SOL    HW116157   4.200   1.268   2.990
 5257SOL    HW216158   4.304   1.364   3.071
 5258SOL     OW16159   5.279   1.511   2.565
 5258SOL    HW116160   5.222   1.495   2.646
 5258SOL    HW216161   5.220   1.521   2.485
 5259SOL     OW16162   4.859   0.703   2.579
 5259SOL    HW116163   4.916   0.781   2.554
 5259SOL    HW216164   4.799   0.729   2.655
 5260SOL     OW16165   4.492   1.144   2.885
 5260SOL    HW116166   4.414   1.161   2.945
 5260SOL    HW216167   4.526   1.231   2.849
 5261SOL     OW16168   4.574   0.798   3.685
 5261SOL    HW116169   4.570   0.874   3.750
 5261SOL    HW216170   4.596   0.834   3.594
 5262SOL     OW16171   4.409   1.012   2.527
 5262SOL    HW116172   4.478   0.996   2.597
 5262SOL    HW216173   4.336   1.069   2.565
 5263SOL     OW16174   4.410   1.161   3.665
 5263SOL    HW116175   4.470   1.240   3.679
 5263SOL    HW216176   4.324   1.192   3.624
 5264SOL     OW16177   4.059   1.435   2.923
 5264SOL    HW116178   3.981   1.404   2.870
 5264SOL    HW216179   4.117   1.493   2.866
 5265SOL     OW16180   5.184   1.505   3.201
 5265SOL    HW116181   5.208   1.599   3.227
 5265SOL    HW216182   5.168   1.451   3.283
 5266SOL     OW16183   4.162   0.392   3.361
 5266SOL    HW116184   4.244   0.336   3.370
 5266SOL    HW216185   4.081   0.334   3.365
 5267SOL     OW16186   3.955   1.713   2.345
 5267SOL    HW116187   3.989   1.790   2.399
 5267SOL    HW216188   3.999   1.713   2.255
 5268SOL     OW16189   4.851   1.341   3.552
 5268SOL    HW116190   4.898   1.341   3.640
 5268SOL    HW216191   4.803   1.254   3.541
 5269SOL     OW16192   3.954   1.434   2.400
 5269SOL    HW116193   3.928   1.530   2.400
 5269SOL    HW216194   3.883   1.380   2.445
 5270SOL     OW16195   3.964   1.091   2.748
 5270SOL    HW116196   3.978   1.007   2.800
 5270SOL    HW216197   3.909   1.155   2.803
 5271SOL     OW16198   4.344   1.786   3.301
 5271SOL    HW116199   4.252   1.769   3.336
 5271SOL    HW216200   4.372   1.878   3.327
 5272SOL     OW16201   4.330   0.964   1.985
 5272SOL    HW116202   4.337   1.048   1.931
 5272SOL    HW216203   4.376   0.977   2.073
 5273SOL     OW16204   5.318   0.114   3.342
 5273SOL    HW116205   5.300   0.181   3.270
 5273SOL    HW216206   5.315   0.160   3.431
 5274SOL     OW16207   3.846   0.643   2.425
 5274SOL    HW116208   3.801   0.555   2.442
 5274SOL    HW216209   3.845   0.697   2.509
 5275SOL     OW16210   3.751   1.596   1.979
 5275SOL    HW116211   3.732   1.500   2.000
 5275SOL    HW216212   3.718   1.654   2.054
 5276SOL     OW16213   5.413   0.922   2.474
 5276SOL    HW116214   5.508   0.893   2.482
 5276SOL    HW216215   5.405   0.987   2.399
 5277SOL     OW16216   3.837   0.737   3.459
 5277SOL    HW116217   3.925   0.724   3.504
 5277SOL    HW216218   3.824   0.834   3.437
 5278SOL     OW16219   4.337   1.365   2.588
 5278SOL    HW116220   4.288   1.278   2.597
 5278SOL    HW216221   4.314   1.408   2.501
 5279SOL     OW16222   5.017   1.228   3.285
 5279SOL    HW116223   5.054   1.155   3.227
 5279SOL    HW216224   5.069   1.233   3.370
 5280SOL     OW16225   4.533   0.004   2.364
 5280SOL    HW116226   4.573   0.095   2.355
 5280SOL    HW216227   4.433   0.012   2.370
 5281SOL     OW16228   3.921   0.976   3.126
 5281SOL    HW116229   4.010   0.931   3.112
 5281SOL    HW216230   3.848   0.911   3.107
 5282SOL     OW16231   4.911   1.792   3.478
 5282SOL    HW116232   4.935   1.852   3.402
 5282SOL    HW216233   4.918   1.697   3.448
 5283SOL     OW16234   4.041   0.251   3.663
 5283SOL    HW116235   4.112   0.322   3.669
 5283SOL    HW216236   3.953   0.290   3.691
 5284SOL     OW16237   5.190   1.417   2.815
 5284SOL    HW116238   5.131   1.423   2.895
 5284SOL    HW216239   5.175   1.329   2.769
 5285SOL     OW16240   4.322   0.729   2.132
 5285SOL    HW116241   4.346   0.798   2.064
 5285SOL    HW216242   4.244   0.762   2.186
 5286SOL     OW16243   5.005   0.345   2.806
 5286SOL    HW116244   4.919   0.295   2.793
 5286SOL    HW216245   5.067   0.291   2.862
 5287SOL     OW16246   4.531   0.605   3.327
 5287SOL    HW116247   4.484   0.602   3.416
 5287SOL    HW216248   4.480   0.550   3.261
 5288SOL     OW16249   5.118   0.469   3.536
 5288SOL    HW116250   5.098   0.512   3.624
 5288SOL    HW216251   5.196   0.407   3.545
 5289SOL     OW16252   4.697   0.890   3.434
 5289SOL    HW116253   4.743   0.806   3.405
 5289SOL    HW216254   4.641   0.924   3.359
 5290SOL     OW16255   4.715   0.410   3.104
 5290SOL    HW116256   4.638   0.444   3.158
 5290SOL    HW216257   4.681   0.359   3.025
 5291SOL     OW16258   4.765   0.701   2.291
 5291SOL    HW116259   4.791   0.697   2.387
 5291SOL    HW216260   4.680   0.650   2.277
 5292SOL     OW16261   3.800   0.811   2.651
 5292SOL    HW116262   3.899   0.799   2.660
 5292SOL    HW216263   3.776   0.906   2.672
 5293SOL     OW16264   3.854   1.821   3.433
 5293SOL    HW116265   3.844   1.806   3.532
 5293SOL    HW216266   3.768   1.857   3.397
 5294SOL     OW16267   4.589   0.348   2.057
 5294SOL    HW116268   4.648   0.411   2.008
 5294SOL    HW216269   4.608   0.254   2.028
 5295SOL     OW16270   5.086   1.144   2.407
 5295SOL    HW116271   5.169   1.115   2.359
 5295SOL    HW216272   5.037   1.211   2.351
 5296SOL     OW16273   4.274   0.196   2.747
 5296SOL    HW116274   4.269   0.191   2.847
 5296SOL    HW216275   4.276   0.292   2.718
 5297SOL     OW16276   4.732   1.456   2.339
 5297SOL    HW116277   4.686   1.528   2.287
 5297SOL    HW216278   4.728   1.476   2.437
 5298SOL     OW16279   4.075   1.801   2.715
 5298SOL    HW116280   4.125   1.715   2.721
 5298SOL    HW216281   4.140   1.878   2.712
 5299SOL     OW16282   4.951   1.550   3.368
 5299SOL    HW116283   4.957   1.473   3.432
 5299SOL    HW216284   4.899   1.524   3.288
 5300SOL     OW16285   4.045   0.943   2.104
 5300SOL    HW116286   4.127   0.982   2.062
 5300SOL    HW216287   4.018   0.861   2.055
 5301SOL     OW16288   4.185   1.266   3.589
 5301SOL    HW116289   4.135   1.267   3.503
 5301SOL    HW216290   4.122   1.248   3.665
 5302SOL     OW16291   4.835   1.776   2.099
 5302SOL    HW116292   4.775   1.714   2.149
 5302SOL    HW216293   4.866   1.732   2.014
 5303SOL     OW16294   3.926   0.285   3.360
 5303SOL    HW116295   3.846   0.345   3.347
 5303SOL    HW216296   3.916   0.236   3.446
 5304SOL     OW16297   4.188   1.743   2.185
 5304SOL    HW116298   4.221   1.782   2.271
 5304SOL    HW216299   4.264   1.736   2.120
 5305SOL     OW16300   5.124   0.107   2.288
 5305SOL    HW116301   5.100   0.070   2.198
 5305SOL    HW216302   5.223   0.123   2.292
 5306SOL     OW16303   3.973   1.785   3.103
 5306SOL    HW116304   4.030   1.720   3.153
 5306SOL    HW216305   3.957   1.752   3.010
 5307SOL     OW16306   4.664   1.698   2.766
 5307SOL    HW116307   4.744   1.641   2.787
 5307SOL    HW216308   4.615   1.658   2.689
 5308SOL     OW16309   4.106   0.700   2.342
 5308SOL    HW116310   4.151   0.610   2.339
 5308SOL    HW216311   4.012   0.689   2.375
 5309SOL     OW16312   4.338   0.122   1.979
 5309SOL    HW116313   4.436   0.100   1.986
 5309SOL    HW216314   4.307   0.105   1.886
 5310SOL     OW16315   4.505   0.264   3.611
 5310SOL    HW116316   4.572   0.203   3.654
 5310SOL    HW216317   4.432   0.283   3.676
 5311SOL     OW16318   4.612   1.514   3.057
 5311SOL    HW116319   4.589   1.489   2.963
 5311SOL    HW216320   4.673   1.445   3.096
 5312SOL     OW16321   5.075   0.590   3.295
 5312SOL    HW116322   5.103   0.547   3.380
 5312SOL    HW216323   5.100   0.686   3.296
 5313SOL     OW16324   4.527   1.402   2.786
 5313SOL    HW116325   4.617   1.416   2.744
 5313SOL    HW216326   4.456   1.404   2.715
 5314SOL     OW16327   4.646   0.503   2.761
 5314SOL    HW116328   4.621   0.494   2.665
 5314SOL    HW216329   4.694   0.421   2.792
 5315SOL     OW16330   4.263   0.064   2.374
 5315SOL    HW116331   4.182   0.065   2.432
 5315SOL    HW216332   4.266   0.147   2.319
 5316SOL     OW16333   5.158   1.188   1.903
 5316SOL    HW116334   5.190   1.112   1.960
 5316SOL    HW216335   5.066   1.215   1.933
 5317SOL     OW16336   4.021   0.035   2.033
 5317SOL    HW116337   4.070   0.119   2.012
 5317SOL    HW216338   4.083  -0.030   2.078
 5318SOL     OW16339   4.659   0.236   2.342
 5318SOL    HW116340   4.611   0.277   2.264
 5318SOL    HW216341   4.758   0.234   2.323
 5319SOL     OW16342   4.800   0.683   3.326
 5319SOL    HW116343   4.720   0.622   3.329
 5319SOL    HW216344   4.881   0.630   3.302
 5320SOL     OW16345   4.951   1.570   2.655
 5320SOL    HW116346   4.972   1.644   2.590
 5320SOL    HW216347   5.019   1.570   2.728
 5321SOL     OW16348   4.183   1.152   2.603
 5321SOL    HW116349   4.112   1.125   2.668
 5321SOL    HW216350   4.157   1.124   2.510
 5322SOL     OW16351   4.995   1.797   2.453
 5322SOL    HW116352   5.039   1.861   2.389
 5322SOL    HW216353   4.945   1.849   2.523
 5323SOL     OW16354   4.756   0.549   1.878
 5323SOL    HW116355   4.715   0.631   1.839
 5323SOL    HW216356   4.820   0.575   1.951
 5324SOL     OW16357   3.802   0.556   3.248
 5324SOL    HW116358   3.894   0.555   3.207
 5324SOL    HW216359   3.796   0.630   3.315
 5325SOL     OW16360   4.285   0.222   3.009
 5325SOL    HW116361   4.323   0.138   3.046
 5325SOL    HW216362   4.197   0.241   3.053
 5326SOL     OW16363   4.590   0.454   2.504
 5326SOL    HW116364   4.558   0.526   2.442
 5326SOL    HW216365   4.614   0.373   2.451
 5327SOL     OW16366   4.741   0.039   2.615
 5327SOL    HW116367   4.669   0.044   2.546
 5327SOL    HW216368   4.717  -0.030   2.684
 5328SOL     OW16369   5.153   1.173   2.729
 5328SOL    HW116370   5.098   1.089   2.722
 5328SOL    HW216371   5.179   1.202   2.637
 5329SOL     OW16372   4.212   1.385   2.036
 5329SOL    HW116373   4.125   1.370   2.083
 5329SOL    HW216374   4.195   1.411   1.941
 5330SOL     OW16375   5.114   0.575   1.940
 5330SOL    HW116376   5.060   0.554   2.021
 5330SOL    HW216377   5.205   0.534   1.949
 5331SOL     OW16378   4.251   0.256   2.190
 5331SOL    HW116379   4.278   0.197   2.115
 5331SOL    HW216380   4.251   0.351   2.159
 5332SOL     OW16381   4.788   1.347   3.202
 5332SOL    HW116382   4.708   1.324   3.257
 5332SOL    HW216383   4.871   1.321   3.251
 5333SOL     OW16384   5.316   1.629   3.487
 5333SOL    HW116385   5.343   1.663   3.397
 5333SOL    HW216386   5.395   1.591   3.533
 5334SOL     OW16387   4.835   1.195   2.962
 5334SOL    HW116388   4.795   1.239   3.043
 5334SOL    HW216389   4.794   1.232   2.879
 5335SOL     OW16390   4.639   0.089   3.264
 5335SOL    HW116391   4.664   0.069   3.169
 5335SOL    HW216392   4.711   0.145   3.306
 5336SOL     OW16393   4.704   1.116   3.581
 5336SOL    HW116394   4.605   1.122   3.591
 5336SOL    HW216395   4.727   1.036   3.525
 5337SOL     OW16396   4.429   1.050   2.230
 5337SOL    HW116397   4.415   1.057   2.329
 5337SOL    HW216398   4.513   0.999   2.212
 5338SOL     OW16399   4.134   0.813   3.113
 5338SOL    HW116400   4.220   0.825   3.163
 5338SOL    HW216401   4.092   0.726   3.140
 5339SOL     OW16402   4.998   0.386   3.124
 5339SOL    HW116403   5.019   0.460   3.188
 5339SOL    HW216404   4.909   0.403   3.081
 5340SOL     OW16405   3.788   1.564   3.193
 5340SOL    HW116406   3.742   1.646   3.159
 5340SOL    HW216407   3.886   1.583   3.202
 5341SOL     OW16408   4.091   1.100   2.363
 5341SOL    HW116409   4.084   1.183   2.307
 5341SOL    HW216410   4.095   1.020   2.303
 5342SOL     OW16411   4.290   0.537   2.727
 5342SOL    HW116412   4.302   0.603   2.653
 5342SOL    HW216413   4.336   0.571   2.810
 5343SOL     OW16414   4.976   1.348   2.250
 5343SOL    HW116415   5.026   1.425   2.290
 5343SOL    HW216416   4.881   1.350   2.282
 5344SOL     OW16417   4.996   1.445   3.004
 5344SOL    HW116418   5.043   1.458   3.091
 5344SOL    HW216419   4.930   1.371   3.013
 5345SOL     OW16420   4.078   1.510   3.191
 5345SOL    HW116421   4.057   1.466   3.104
 5345SOL    HW216422   4.175   1.536   3.194
 5346SOL     OW16423   4.126   0.751   3.460
 5346SOL    HW116424   4.194   0.806   3.413
 5346SOL    HW216425   4.166   0.663   3.487
 5347SOL     OW16426   4.737   0.105   3.632
 5347SOL    HW116427   4.743   0.190   3.580
 5347SOL    HW216428   4.769   0.029   3.575
 5348SOL     OW16429   4.228   0.050   3.602
 5348SOL    HW116430   4.186  -0.007   3.532
 5348SOL    HW216431   4.162   0.119   3.634
 5349SOL     OW16432   4.297   0.870   2.891
 5349SOL    HW116433   4.341   0.959   2.882
 5349SOL    HW216434   4.234   0.870   2.968
 5350SOL     OW16435   5.084   0.862   2.907
 5350SOL    HW116436   5.009   0.862   2.841
 5350SOL    HW216437   5.121   0.770   2.916
 5351SOL     OW16438   4.933   0.525   2.137
 5351SOL    HW116439   4.946   0.441   2.191
 5351SOL    HW216440   4.904   0.599   2.197
 5352SOL     OW16441   4.031   0.213   3.093
 5352SOL    HW116442   4.008   0.250   3.183
 5352SOL    HW216443   4.001   0.118   3.087
 5353SOL     OW16444   3.761   1.310   3.144
 5353SOL    HW116445   3.814   1.261   3.212
 5353SOL    HW216446   3.783   1.408   3.149
 5354SOL     OW16447   4.456   0.634   2.926
 5354SOL    HW116448   4.515   0.608   2.850
 5354SOL    HW216449   4.428   0.730   2.915
 5355SOL     OW16450   4.031   0.063   2.480
 5355SOL    HW116451   4.020   0.157   2.513
 5355SOL    HW216452   4.026   0.000   2.557
 5356SOL     OW16453   5.346   0.367   2.236
 5356SOL    HW116454   5.348   0.291   2.300
 5356SOL    HW216455   5.298   0.444   2.276
 5357SOL     OW16456   4.747   0.766   2.828
 5357SOL    HW116457   4.762   0.787   2.924
 5357SOL    HW216458   4.717   0.671   2.819
 5358SOL     OW16459   4.704   1.573   3.562
 5358SOL    HW116460   4.684   1.617   3.474
 5358SOL    HW216461   4.743   1.482   3.546
 5359SOL     OW16462   4.074   0.898   3.666
 5359SOL    HW116463   4.150   0.942   3.714
 5359SOL    HW216464   4.109   0.851   3.584
 5360SOL     OW16465   5.027   0.838   1.904
 5360SOL    HW116466   5.061   0.745   1.919
 5360SOL    HW216467   5.045   0.865   1.809
 5361SOL     OW16468   4.792   1.333   2.711
 5361SOL    HW116469   4.799   1.249   2.656
 5361SOL    HW216470   4.854   1.402   2.675
 5362SOL     OW16471   4.043   0.810   2.811
 5362SOL    HW116472   4.136   0.846   2.816
 5362SOL    HW216473   4.037   0.725   2.863
 5363SOL     OW16474   4.063   0.509   2.868
 5363SOL    HW116475   4.011   0.426   2.851
 5363SOL    HW216476   4.140   0.514   2.804
 5364SOL     OW16477   4.862   0.380   3.540
 5364SOL    HW116478   4.817   0.443   3.604
 5364SOL    HW216479   4.955   0.411   3.523
 5365SOL     OW16480   4.884   0.207   3.339
 5365SOL    HW116481   4.884   0.271   3.416
 5365SOL    HW216482   4.912   0.255   3.256
 5366SOL     OW16483   3.732   1.326   2.062
 5366SOL    HW116484   3.639   1.347   2.031
 5366SOL    HW216485   3.742   1.227   2.075
 5367SOL     OW16486   3.812   1.801   2.789
 5367SOL    HW116487   3.770   1.715   2.762
 5367SOL    HW216488   3.906   1.804   2.755
 5368SOL     OW16489   4.228   1.568   2.772
 5368SOL    HW116490   4.294   1.642   2.781
 5368SOL    HW216491   4.272   1.489   2.730
 5369SOL     OW16492   4.726   0.796   3.100
 5369SOL    HW116493   4.767   0.764   3.186
 5369SOL    HW216494   4.630   0.769   3.097
 5370SOL     OW16495   3.764   0.544   2.976
 5370SOL    HW116496   3.849   0.511   2.935
 5370SOL    HW216497   3.777   0.559   3.074
 5371SOL     OW16498   3.913   0.520   3.584
 5371SOL    HW116499   3.972   0.480   3.514
 5371SOL    HW216500   3.855   0.591   3.543
 5372SOL     OW16501   5.093   0.950   3.522
 5372SOL    HW116502   5.132   1.039   3.542
 5372SOL    HW216503   5.103   0.930   3.425
 5373SOL     OW16504   4.539   0.572   2.187
 5373SOL    HW116505   4.546   0.483   2.141
 5373SOL    HW216506   4.445   0.606   2.179
 5374SOL     OW16507   3.976   1.564   3.606
 5374SOL    HW116508   3.946   1.621   3.682
 5374SOL    HW216509   3.969   1.467   3.632
 5375SOL     OW16510   4.395   0.464   3.131
 5375SOL    HW116511   4.361   0.375   3.101
 5375SOL    HW216512   4.421   0.518   3.051
 5376SOL     OW16513   4.654   1.678   3.327
 5376SOL    HW116514   4.630   1.660   3.232
 5376SOL    HW216515   4.684   1.772   3.337
 5377SOL     OW16516   4.197   0.500   2.053
 5377SOL    HW116517   4.258   0.580   2.057
 5377SOL    HW216518   4.102   0.531   2.060
 5378SOL     OW16519   3.883   1.137   3.328
 5378SOL    HW116520   3.905   1.076   3.404
 5378SOL    HW216521   3.893   1.088   3.242
 5379SOL     OW16522   5.071   1.059   3.096
 5379SOL    HW116523   5.095   0.996   3.022
 5379SOL    HW216524   4.981   1.099   3.078
 5380SOL     OW16525   5.026   0.855   2.171
 5380SOL    HW116526   4.940   0.824   2.213
 5380SOL    HW216527   5.022   0.841   2.072
 5381SOL     OW16528   4.976   1.731   2.990
 5381SOL    HW116529   5.060   1.736   2.936
 5381SOL    HW216530   4.953   1.635   3.008
 5382SOL     OW16531   3.807   1.258   2.884
 5382SOL    HW116532   3.802   1.257   2.984
 5382SOL    HW216533   3.724   1.217   2.846
 5383SOL     OW16534   4.412   1.662   3.578
 5383SOL    HW116535   4.356   1.743   3.587
 5383SOL    HW216536   4.464   1.666   3.492
 5384SOL     OW16537   5.112   1.573   2.339
 5384SOL    HW116538   5.179   1.585   2.265
 5384SOL    HW216539   5.072   1.662   2.362
 5385SOL     OW16540   3.854   1.794   3.713
 5385SOL    HW116541   3.813   1.720   3.766
 5385SOL    HW216542   3.918   1.845   3.771
 5386SOL     OW16543   5.004   0.927   2.534
 5386SOL    HW116544   5.064   0.846   2.536
 5386SOL    HW216545   5.044   0.996   2.474
 5387SOL     OW16546   4.554   1.273   3.284
 5387SOL    HW116547   4.549   1.306   3.379
 5387SOL    HW216548   4.468   1.292   3.238
 5388SOL     OW16549   4.396   1.616   2.016
 5388SOL    HW116550   4.405   1.626   1.917
 5388SOL    HW216551   4.356   1.527   2.037
 5389SOL     OW16552   3.987   0.326   2.582
 5389SOL    HW116553   3.908   0.377   2.548
 5389SOL    HW216554   3.978   0.311   2.680
 5390SOL     OW16555   4.918   1.612   1.893
 5390SOL    HW116556   4.924   1.519   1.930
 5390SOL    HW216557   4.859   1.612   1.813
 5391SOL     OW16558   4.546   1.002   3.234
 5391SOL    HW116559   4.586   1.001   3.142
 5391SOL    HW216560   4.556   1.094   3.274
 5392SOL     OW16561   4.640   0.910   2.153
 5392SOL    HW116562   4.703   0.948   2.085
 5392SOL    HW216563   4.680   0.827   2.192
 5393SOL     OW16564   4.096   1.288   3.352
 5393SOL    HW116565   4.083   1.381   3.318
 5393SOL    HW216566   4.012   1.236   3.339
 5394SOL     OW16567   4.763   1.098   2.558
 5394SOL    HW116568   4.693   1.051   2.612
 5394SOL    HW216569   4.822   1.030   2.515
 5395SOL     OW16570   4.738   0.236   2.833
 5395SOL    HW116571   4.730   0.200   2.740
 5395SOL    HW216572   4.736   0.160   2.898
 5396SOL     OW16573   4.314   1.487   2.353
 5396SOL    HW116574   4.356   1.429   2.283
 5396SOL    HW216575   4.270   1.566   2.309
 5397SOL     OW16576   3.979   1.348   2.152
 5397SOL    HW116577   3.883   1.349   2.125
 5397SOL    HW216578   3.991   1.401   2.236
 5398SOL     OW16579   3.829   1.013   3.588
 5398SOL    HW116580   3.752   0.980   3.642
 5398SOL    HW216581   3.914   0.983   3.630
 5399SOL     OW16582   4.396   0.203   3.351
 5399SOL    HW116583   4.486   0.187   3.311
 5399SOL    HW216584   4.404   0.208   3.450
 5400SOL     OW16585   3.799   0.345   1.895
 5400SOL    HW116586   3.707   0.317   1.866
 5400SOL    HW216587   3.830   0.422   1.839
 5401SOL     OW16588   5.164   0.856   3.260
 5401SOL    HW116589   5.107   0.908   3.197
 5401SOL    HW216590   5.260   0.868   3.236
 5402SOL     OW16591   3.796   0.166   2.180
 5402SOL    HW116592   3.779   0.249   2.126
 5402SOL    HW216593   3.886   0.129   2.158
 5403SOL     OW16594   4.907   1.335   1.981
 5403SOL    HW116595   4.808   1.324   1.983
 5403SOL    HW216596   4.941   1.350   2.074
 5404SOL     OW16597   4.337   0.842   3.293
 5404SOL    HW116598   4.393   0.923   3.276
 5404SOL    HW216599   4.396   0.762   3.296
 5405SOL     OW16600   4.440   0.565   3.570
 5405SOL    HW116601   4.459   0.630   3.644
 5405SOL    HW216602   4.500   0.485   3.579
 5406SOL     OW16603   5.174   1.220   3.495
 5406SOL    HW116604   5.165   1.210   3.594
 5406SOL    HW216605   5.270   1.213   3.469
 5407SOL     OW16606   4.114   1.741   3.422
 5407SOL    HW116607   4.023   1.782   3.420
 5407SOL    HW216608   4.107   1.647   3.454
 5408SOL     OW16609   4.949   0.325   2.311
 5408SOL    HW116610   5.014   0.251   2.300
 5408SOL    HW216611   4.969   0.375   2.395
 5409SOL     OW16612   4.318   0.745   2.514
 5409SOL    HW116613   4.368   0.830   2.495
 5409SOL    HW216614   4.230   0.747   2.466
 5410SOL     OW16615   4.583   1.374   1.878
 5410SOL    HW116616   4.537   1.389   1.966
 5410SOL    HW216617   4.627   1.459   1.848
 5411SOL     OW16618   4.385   1.790   2.815
 5411SOL    HW116619   4.339   1.878   2.802
 5411SOL    HW216620   4.484   1.802   2.808
 5412SOL     OW16621   4.583   0.956   2.723
 5412SOL    HW116622   4.637   0.887   2.771
 5412SOL    HW216623   4.551   1.025   2.789
 5413SOL     OW16624   4.807   0.984   1.949
 5413SOL    HW116625   4.784   1.037   1.867
 5413SOL    HW216626   4.888   0.928   1.930
 5414SOL     OW16627   3.945   1.314   3.706
 5414SOL    HW116628   3.880   1.241   3.685
 5414SOL    HW216629   3.949   1.328   3.804
 5415SOL     OW16630   3.803   1.240   2.515
 5415SOL    HW116631   3.802   1.193   2.603
 5415SOL    HW216632   3.885   1.212   2.464
 5416SOL     OW16633   4.396   1.391   3.486
 5416SOL    HW116634   4.318   1.341   3.524
 5416SOL    HW216635   4.393   1.486   3.517
 5417SOL     OW16636   4.152   0.424   2.382
 5417SOL    HW116637   4.182   0.352   2.320
 5417SOL    HW216638   4.113   0.384   2.465
 5418SOL     OW16639   5.429   1.487   2.966
 5418SOL    HW116640   5.336   1.462   2.939
 5418SOL    HW216641   5.455   1.437   3.048
 5419SOL     OW16642   4.041   0.547   3.142
 5419SOL    HW116643   4.079   0.488   3.214
 5419SOL    HW216644   4.081   0.521   3.054
 5420SOL     OW16645   4.536   1.586   2.549
 5420SOL    HW116646   4.568   1.596   2.455
 5420SOL    HW216647   4.457   1.524   2.551
 5421SOL     OW16648   5.148   0.214   2.974
 5421SOL    HW116649   5.200   0.149   3.029
 5421SOL    HW216650   5.099   0.277   3.035
 5422SOL     OW16651   4.725   0.034   3.016
 5422SOL    HW116652   4.662  -0.038   2.985
 5422SOL    HW216653   4.818  -0.002   3.016
 5423SOL     OW16654   4.494   1.330   2.163
 5423SOL    HW116655   4.448   1.243   2.180
 5423SOL    HW216656   4.585   1.327   2.204
 5424SOL     OW16657   4.342   1.567   3.146
 5424SOL    HW116658   4.337   1.649   3.203
 5424SOL    HW216659   4.431   1.564   3.101
 5425SOL     OW16660   5.076   0.052   2.030
 5425SOL    HW116661   5.111   0.011   1.946
 5425SOL    HW216662   4.986   0.014   2.050
 5426SOL     OW16663   5.024   0.453   2.553
 5426SOL    HW116664   4.965   0.533   2.557
 5426SOL    HW216665   5.039   0.418   2.646
 5427SOL     OW16666   5.317   0.221   2.744
 5427SOL    HW116667   5.233   0.220   2.798
 5427SOL    HW216668   5.319   0.304   2.688
 5428SOL     OW16669   3.763   1.077   2.162
 5428SOL    HW116670   3.862   1.066   2.153
 5428SOL    HW216671   3.723   0.991   2.194
 5429SOL     OW16672   4.599   1.646   2.199
 5429SOL    HW116673   4.522   1.611   2.145
 5429SOL    HW216674   4.567   1.717   2.261
 5430SOL     OW16675   3.954   0.628   3.837
 5430SOL    HW116676   3.861   0.626   3.874
 5430SOL    HW216677   3.955   0.589   3.745
 5431SOL     OW16678   3.949   0.275   4.720
 5431SOL    HW116679   3.984   0.258   4.812
 5431SOL    HW216680   3.861   0.230   4.708
 5432SOL     OW16681   3.743   0.368   4.371
 5432SOL    HW116682   3.661   0.411   4.410
 5432SOL    HW216683   3.715   0.295   4.308
 5433SOL     OW16684   4.293   1.275   4.889
 5433SOL    HW116685   4.200   1.268   4.852
 5433SOL    HW216686   4.304   1.364   4.933
 5434SOL     OW16687   5.279   1.511   4.427
 5434SOL    HW116688   5.222   1.495   4.508
 5434SOL    HW216689   5.220   1.521   4.347
 5435SOL     OW16690   4.859   0.703   4.441
 5435SOL    HW116691   4.916   0.781   4.416
 5435SOL    HW216692   4.799   0.729   4.517
 5436SOL     OW16693   4.492   1.144   4.747
 5436SOL    HW116694   4.414   1.161   4.807
 5436SOL    HW216695   4.526   1.231   4.711
 5437SOL     OW16696   4.574   0.798   5.547
 5437SOL    HW116697   4.570   0.874   5.612
 5437SOL    HW216698   4.596   0.834   5.456
 5438SOL     OW16699   4.409   1.012   4.389
 5438SOL    HW116700   4.478   0.996   4.459
 5438SOL    HW216701   4.336   1.069   4.427
 5439SOL     OW16702   4.410   1.161   5.527
 5439SOL    HW116703   4.470   1.240   5.541
 5439SOL    HW216704   4.324   1.192   5.486
 5440SOL     OW16705   4.059   1.435   4.785
 5440SOL    HW116706   3.981   1.404   4.732
 5440SOL    HW216707   4.117   1.493   4.728
 5441SOL     OW16708   5.184   1.505   5.063
 5441SOL    HW116709   5.208   1.599   5.089
 5441SOL    HW216710   5.168   1.451   5.145
 5442SOL     OW16711   4.162   0.392   5.223
 5442SOL    HW116712   4.244   0.336   5.232
 5442SOL    HW216713   4.081   0.334   5.227
 5443SOL     OW16714   3.955   1.713   4.207
 5443SOL    HW116715   3.989   1.790   4.261
 5443SOL    HW216716   3.999   1.713   4.117
 5444SOL     OW16717   4.851   1.341   5.414
 5444SOL    HW116718   4.898   1.341   5.502
 5444SOL    HW216719   4.803   1.254   5.403
 5445SOL     OW16720   3.954   1.434   4.262
 5445SOL    HW116721   3.928   1.530   4.262
 5445SOL    HW216722   3.883   1.380   4.307
 5446SOL     OW16723   3.964   1.091   4.610
 5446SOL    HW116724   3.978   1.007   4.662
 5446SOL    HW216725   3.909   1.155   4.665
 5447SOL     OW16726   4.344   1.786   5.163
 5447SOL    HW116727   4.252   1.769   5.198
 5447SOL    HW216728   4.372   1.878   5.189
 5448SOL     OW16729   4.330   0.964   3.847
 5448SOL    HW116730   4.337   1.048   3.793
 5448SOL    HW216731   4.376   0.977   3.935
 5449SOL     OW16732   5.318   0.114   5.204
 5449SOL    HW116733   5.300   0.181   5.132
 5449SOL    HW216734   5.315   0.160   5.293
 5450SOL     OW16735   3.846   0.643   4.287
 5450SOL    HW116736   3.801   0.555   4.304
 5450SOL    HW216737   3.845   0.697   4.371
 5451SOL     OW16738   3.751   1.596   3.841
 5451SOL    HW116739   3.732   1.500   3.862
 5451SOL    HW216740   3.718   1.654   3.916
 5452SOL     OW16741   5.413   0.922   4.336
 5452SOL    HW116742   5.508   0.893   4.344
 5452SOL    HW216743   5.405   0.987   4.261
 5453SOL     OW16744   3.837   0.737   5.321
 5453SOL    HW116745   3.925   0.724   5.366
 5453SOL    HW216746   3.824   0.834   5.299
 5454SOL     OW16747   4.337   1.365   4.450
 5454SOL    HW116748   4.288   1.278   4.459
 5454SOL    HW216749   4.314   1.408   4.363
 5455SOL     OW16750   5.017   1.228   5.147
 5455SOL    HW116751   5.054   1.155   5.089
 5455SOL    HW216752   5.069   1.233   5.232
 5456SOL     OW16753   4.533   0.004   4.226
 5456SOL    HW116754   4.573   0.095   4.217
 5456SOL    HW216755   4.433   0.012   4.232
 5457SOL     OW16756   3.921   0.976   4.988
 5457SOL    HW116757   4.010   0.931   4.974
 5457SOL    HW216758   3.848   0.911   4.969
 5458SOL     OW16759   4.911   1.792   5.340
 5458SOL    HW116760   4.935   1.852   5.264
 5458SOL    HW216761   4.918   1.697   5.310
 5459SOL     OW16762   4.041   0.251   5.525
 5459SOL    HW116763   4.112   0.322   5.531
 5459SOL    HW216764   3.953   0.290   5.553
 5460SOL     OW16765   5.190   1.417   4.677
 5460SOL    HW116766   5.131   1.423   4.757
 5460SOL    HW216767   5.175   1.329   4.631
 5461SOL     OW16768   4.322   0.729   3.994
 5461SOL    HW116769   4.346   0.798   3.926
 5461SOL    HW216770   4.244   0.762   4.048
 5462SOL     OW16771   5.005   0.345   4.668
 5462SOL    HW116772   4.919   0.295   4.655
 5462SOL    HW216773   5.067   0.291   4.724
 5463SOL     OW16774   4.531   0.605   5.189
 5463SOL    HW116775   4.484   0.602   5.278
 5463SOL    HW216776   4.480   0.550   5.123
 5464SOL     OW16777   5.118   0.469   5.398
 5464SOL    HW116778   5.098   0.512   5.486
 5464SOL    HW216779   5.196   0.407   5.407
 5465SOL     OW16780   4.697   0.890   5.296
 5465SOL    HW116781   4.743   0.806   5.267
 5465SOL    HW216782   4.641   0.924   5.221
 5466SOL     OW16783   4.715   0.410   4.966
 5466SOL    HW116784   4.638   0.444   5.020
 5466SOL    HW216785   4.681   0.359   4.887
 5467SOL     OW16786   4.765   0.701   4.153
 5467SOL    HW116787   4.791   0.697   4.249
 5467SOL    HW216788   4.680   0.650   4.139
 5468SOL     OW16789   3.800   0.811   4.513
 5468SOL    HW116790   3.899   0.799   4.522
 5468SOL    HW216791   3.776   0.906   4.534
 5469SOL     OW16792   3.854   1.821   5.295
 5469SOL    HW116793   3.844   1.806   5.394
 5469SOL    HW216794   3.768   1.857   5.259
 5470SOL     OW16795   4.589   0.348   3.919
 5470SOL    HW116796   4.648   0.411   3.870
 5470SOL    HW216797   4.608   0.254   3.890
 5471SOL     OW16798   5.086   1.144   4.269
 5471SOL    HW116799   5.169   1.115   4.221
 5471SOL    HW216800   5.037   1.211   4.213
 5472SOL     OW16801   4.274   0.196   4.609
 5472SOL    HW116802   4.269   0.191   4.709
 5472SOL    HW216803   4.276   0.292   4.580
 5473SOL     OW16804   4.732   1.456   4.201
 5473SOL    HW116805   4.686   1.528   4.149
 5473SOL    HW216806   4.728   1.476   4.299
 5474SOL     OW16807   4.075   1.801   4.577
 5474SOL    HW116808   4.125   1.715   4.583
 5474SOL    HW216809   4.140   1.878   4.574
 5475SOL     OW16810   4.951   1.550   5.230
 5475SOL    HW116811   4.957   1.473   5.294
 5475SOL    HW216812   4.899   1.524   5.150
 5476SOL     OW16813   4.045   0.943   3.966
 5476SOL    HW116814   4.127   0.982   3.924
 5476SOL    HW216815   4.018   0.861   3.917
 5477SOL     OW16816   4.185   1.266   5.451
 5477SOL    HW116817   4.135   1.267   5.365
 5477SOL    HW216818   4.122   1.248   5.527
 5478SOL     OW16819   4.835   1.776   3.961
 5478SOL    HW116820   4.775   1.714   4.011
 5478SOL    HW216821   4.866   1.732   3.876
 5479SOL     OW16822   3.926   0.285   5.222
 5479SOL    HW116823   3.846   0.345   5.209
 5479SOL    HW216824   3.916   0.236   5.308
 5480SOL     OW16825   4.188   1.743   4.047
 5480SOL    HW116826   4.221   1.782   4.133
 5480SOL    HW216827   4.264   1.736   3.982
 5481SOL     OW16828   5.124   0.107   4.150
 5481SOL    HW116829   5.100   0.070   4.060
 5481SOL    HW216830   5.223   0.123   4.154
 5482SOL     OW16831   3.973   1.785   4.965
 5482SOL    HW116832   4.030   1.720   5.015
 5482SOL    HW216833   3.957   1.752   4.872
 5483SOL     OW16834   4.664   1.698   4.628
 5483SOL    HW116835   4.744   1.641   4.649
 5483SOL    HW216836   4.615   1.658   4.551
 5484SOL     OW16837   4.106   0.700   4.204
 5484SOL    HW116838   4.151   0.610   4.201
 5484SOL    HW216839   4.012   0.689   4.237
 5485SOL     OW16840   4.338   0.122   3.841
 5485SOL    HW116841   4.436   0.100   3.848
 5485SOL    HW216842   4.307   0.105   3.748
 5486SOL     OW16843   4.505   0.264   5.473
 5486SOL    HW116844   4.572   0.203   5.516
 5486SOL    HW216845   4.432   0.283   5.538
 5487SOL     OW16846   4.612   1.514   4.919
 5487SOL    HW116847   4.589   1.489   4.825
 5487SOL    HW216848   4.673   1.445   4.958
 5488SOL     OW16849   5.075   0.590   5.157
 5488SOL    HW116850   5.103   0.547   5.242
 5488SOL    HW216851   5.100   0.686   5.158
 5489SOL     OW16852   4.527   1.402   4.648
 5489SOL    HW116853   4.617   1.416   4.606
 5489SOL    HW216854   4.456   1.404   4.577
 5490SOL     OW16855   4.646   0.503   4.623
 5490SOL    HW116856   4.621   0.494   4.527
 5490SOL    HW216857   4.694   0.421   4.654
 5491SOL     OW16858   4.263   0.064   4.236
 5491SOL    HW116859   4.182   0.065   4.294
 5491SOL    HW216860   4.266   0.147   4.181
 5492SOL     OW16861   5.158   1.188   3.765
 5492SOL    HW116862   5.190   1.112   3.822
 5492SOL    HW216863   5.066   1.215   3.795
 5493SOL     OW16864   4.021   0.035   3.895
 5493SOL    HW116865   4.070   0.119   3.874
 5493SOL    HW216866   4.083  -0.030   3.940
 5494SOL     OW16867   4.659   0.236   4.204
 5494SOL    HW116868   4.611   0.277   4.126
 5494SOL    HW216869   4.758   0.234   4.185
 5495SOL     OW16870   4.800   0.683   5.188
 5495SOL    HW116871   4.720   0.622   5.191
 5495SOL    HW216872   4.881   0.630   5.164
 5496SOL     OW16873   4.951   1.570   4.517
 5496SOL    HW116874   4.972   1.644   4.452
 5496SOL    HW216875   5.019   1.570   4.590
 5497SOL     OW16876   4.183   1.152   4.465
 5497SOL    HW116877   4.112   1.125   4.530
 5497SOL    HW216878   4.157   1.124   4.372
 5498SOL     OW16879   4.995   1.797   4.315
 5498SOL    HW116880   5.039   1.861   4.251
 5498SOL    HW216881   4.945   1.849   4.385
 5499SOL     OW16882   4.756   0.549   3.740
 5499SOL    HW116883   4.715   0.631   3.701
 5499SOL    HW216884   4.820   0.575   3.813
 5500SOL     OW16885   3.802   0.556   5.110
 5500SOL    HW116886   3.894   0.555   5.069
 5500SOL    HW216887   3.796   0.630   5.177
 5501SOL     OW16888   4.285   0.222   4.871
 5501SOL    HW116889   4.323   0.138   4.908
 5501SOL    HW216890   4.197   0.241   4.915
 5502SOL     OW16891   4.590   0.454   4.366
 5502SOL    HW116892   4.558   0.526   4.304
 5502SOL    HW216893   4.614   0.373   4.313
 5503SOL     OW16894   4.741   0.039   4.477
 5503SOL    HW116895   4.669   0.044   4.408
 5503SOL    HW216896   4.717  -0.030   4.546
 5504SOL     OW16897   5.153   1.173   4.591
 5504SOL    HW116898   5.098   1.089   4.584
 5504SOL    HW216899   5.179   1.202   4.499
 5505SOL     OW16900   4.212   1.385   3.898
 5505SOL    HW116901   4.125   1.370   3.945
 5505SOL    HW216902   4.195   1.411   3.803
 5506SOL     OW16903   5.114   0.575   3.802
 5506SOL    HW116904   5.060   0.554   3.883
 5506SOL    HW216905   5.205   0.534   3.811
 5507SOL     OW16906   4.251   0.256   4.052
 5507SOL    HW116907   4.278   0.197   3.977
 5507SOL    HW216908   4.251   0.351   4.021
 5508SOL     OW16909   4.788   1.347   5.064
 5508SOL    HW116910   4.708   1.324   5.119
 5508SOL    HW216911   4.871   1.321   5.113
 5509SOL     OW16912   5.316   1.629   5.349
 5509SOL    HW116913   5.343   1.663   5.259
 5509SOL    HW216914   5.395   1.591   5.395
 5510SOL     OW16915   4.835   1.195   4.824
 5510SOL    HW116916   4.795   1.239   4.905
 5510SOL    HW216917   4.794   1.232   4.741
 5511SOL     OW16918   4.639   0.089   5.126
 5511SOL    HW116919   4.664   0.069   5.031
 5511SOL    HW216920   4.711   0.145   5.168
 5512SOL     OW16921   4.704   1.116   5.443
 5512SOL    HW116922   4.605   1.122   5.453
 5512SOL    HW216923   4.727   1.036   5.387
 5513SOL     OW16924   4.429   1.050   4.092
 5513SOL    HW116925   4.415   1.057   4.191
 5513SOL    HW216926   4.513   0.999   4.074
 5514SOL     OW16927   4.134   0.813   4.975
 5514SOL    HW116928   4.220   0.825   5.025
 5514SOL    HW216929   4.092   0.726   5.002
 5515SOL     OW16930   4.998   0.386   4.986
 5515SOL    HW116931   5.019   0.460   5.050
 5515SOL    HW216932   4.909   0.403   4.943
 5516SOL     OW16933   3.788   1.564   5.055
 5516SOL    HW116934   3.742   1.646   5.021
 5516SOL    HW216935   3.886   1.583   5.064
 5517SOL     OW16936   4.091   1.100   4.225
 5517SOL    HW116937   4.084   1.183   4.169
 5517SOL    HW216938   4.095   1.020   4.165
 5518SOL     OW16939   4.290   0.537   4.589
 5518SOL    HW116940   4.302   0.603   4.515
 5518SOL    HW216941   4.336   0.571   4.672
 5519SOL     OW16942   4.976   1.348   4.112
 5519SOL    HW116943   5.026   1.425   4.152
 5519SOL    HW216944   4.881   1.350   4.144
 5520SOL     OW16945   4.996   1.445   4.866
 5520SOL    HW116946   5.043   1.458   4.953
 5520SOL    HW216947   4.930   1.371   4.875
 5521SOL     OW16948   4.078   1.510   5.053
 5521SOL    HW116949   4.057   1.466   4.966
 5521SOL    HW216950   4.175   1.536   5.056
 5522SOL     OW16951   4.126   0.751   5.322
 5522SOL    HW116952   4.194   0.806   5.275
 5522SOL    HW216953   4.166   0.663   5.349
 5523SOL     OW16954   4.737   0.105   5.494
 5523SOL    HW116955   4.743   0.190   5.442
 5523SOL    HW216956   4.769   0.029   5.437
 5524SOL     OW16957   4.228   0.050   5.464
 5524SOL    HW116958   4.186  -0.007   5.394
 5524SOL    HW216959   4.162   0.119   5.496
 5525SOL     OW16960   4.297   0.870   4.753
 5525SOL    HW116961   4.341   0.959   4.744
 5525SOL    HW216962   4.234   0.870   4.830
 5526SOL     OW16963   5.084   0.862   4.769
 5526SOL    HW116964   5.009   0.862   4.703
 5526SOL    HW216965   5.121   0.770   4.778
 5527SOL     OW16966   4.933   0.525   3.999
 5527SOL    HW116967   4.946   0.441   4.053
 5527SOL    HW216968   4.904   0.599   4.059
 5528SOL     OW16969   4.031   0.213   4.955
 5528SOL    HW116970   4.008   0.250   5.045
 5528SOL    HW216971   4.001   0.118   4.949
 5529SOL     OW16972   3.761   1.310   5.006
 5529SOL    HW116973   3.814   1.261   5.074
 5529SOL    HW216974   3.783   1.408   5.011
 5530SOL     OW16975   4.456   0.634   4.788
 5530SOL    HW116976   4.515   0.608   4.712
 5530SOL    HW216977   4.428   0.730   4.777
 5531SOL     OW16978   4.031   0.063   4.342
 5531SOL    HW116979   4.020   0.157   4.375
 5531SOL    HW216980   4.026   0.000   4.419
 5532SOL     OW16981   5.346   0.367   4.098
 5532SOL    HW116982   5.348   0.291   4.162
 5532SOL    HW216983   5.298   0.444   4.138
 5533SOL     OW16984   4.747   0.766   4.690
 5533SOL    HW116985   4.762   0.787   4.786
 5533SOL    HW216986   4.717   0.671   4.681
 5534SOL     OW16987   4.704   1.573   5.424
 5534SOL    HW116988   4.684   1.617   5.336
 5534SOL    HW216989   4.743   1.482   5.408
 5535SOL     OW16990   4.074   0.898   5.528
 5535SOL    HW116991   4.150   0.942   5.576
 5535SOL    HW216992   4.109   0.851   5.446
 5536SOL     OW16993   5.027   0.838   3.766
 5536SOL    HW116994   5.061   0.745   3.781
 5536SOL    HW216995   5.045   0.865   3.671
 5537SOL     OW16996   4.792   1.333   4.573
 5537SOL    HW116997   4.799   1.249   4.518
 5537SOL    HW216998   4.854   1.402   4.537
 5538SOL     OW16999   4.043   0.810   4.673
 5538SOL    HW117000   4.136   0.846   4.678
 5538SOL    HW217001   4.037   0.725   4.725
 5539SOL     OW17002   4.063   0.509   4.730
 5539SOL    HW117003   4.011   0.426   4.713
 5539SOL    HW217004   4.140   0.514   4.666
 5540SOL     OW17005   4.862   0.380   5.402
 5540SOL    HW117006   4.817   0.443   5.466
 5540SOL    HW217007   4.955   0.411   5.385
 5541SOL     OW17008   4.884   0.207   5.201
 5541SOL    HW117009   4.884   0.271   5.278
 5541SOL    HW217010   4.912   0.255   5.118
 5542SOL     OW17011   3.732   1.326   3.924
 5542SOL    HW117012   3.639   1.347   3.893
 5542SOL    HW217013   3.742   1.227   3.937
 5543SOL     OW17014   3.812   1.801   4.651
 5543SOL    HW117015   3.770   1.715   4.624
 5543SOL    HW217016   3.906   1.804   4.617
 5544SOL     OW17017   4.228   1.568   4.634
 5544SOL    HW117018   4.294   1.642   4.643
 5544SOL    HW217019   4.272   1.489   4.592
 5545SOL     OW17020   4.726   0.796   4.962
 5545SOL    HW117021   4.767   0.764   5.048
 5545SOL    HW217022   4.630   0.769   4.959
 5546SOL     OW17023   3.764   0.544   4.838
 5546SOL    HW117024   3.849   0.511   4.797
 5546SOL    HW217025   3.777   0.559   4.936
 5547SOL     OW17026   3.913   0.520   5.446
 5547SOL    HW117027   3.972   0.480   5.376
 5547SOL    HW217028   3.855   0.591   5.405
 5548SOL     OW17029   5.093   0.950   5.384
 5548SOL    HW117030   5.132   1.039   5.404
 5548SOL    HW217031   5.103   0.930   5.287
 5549SOL     OW17032   4.539   0.572   4.049
 5549SOL    HW117033   4.546   0.483   4.003
 5549SOL    HW217034   4.445   0.606   4.041
 5550SOL     OW17035   3.976   1.564   5.468
 5550SOL    HW117036   3.946   1.621   5.544
 5550SOL    HW217037   3.969   1.467   5.494
 5551SOL     OW17038   4.395   0.464   4.993
 5551SOL    HW117039   4.361   0.375   4.963
 5551SOL    HW217040   4.421   0.518   4.913
 5552SOL     OW17041   4.654   1.678   5.189
 5552SOL    HW117042   4.630   1.660   5.094
 5552SOL    HW217043   4.684   1.772   5.199
 5553SOL     OW17044   4.197   0.500   3.915
 5553SOL    HW117045   4.258   0.580   3.919
 5553SOL    HW217046   4.102   0.531   3.922
 5554SOL     OW17047   3.883   1.137   5.190
 5554SOL    HW117048   3.905   1.076   5.266
 5554SOL    HW217049   3.893   1.088   5.104
 5555SOL     OW17050   5.071   1.059   4.958
 5555SOL    HW117051   5.095   0.996   4.884
 5555SOL    HW217052   4.981   1.099   4.940
 5556SOL     OW17053   5.026   0.855   4.033
 5556SOL    HW117054   4.940   0.824   4.075
 5556SOL    HW217055   5.022   0.841   3.934
 5557SOL     OW17056   4.976   1.731   4.852
 5557SOL    HW117057   5.060   1.736   4.798
 5557SOL    HW217058   4.953   1.635   4.870
 5558SOL     OW17059   3.807   1.258   4.746
 5558SOL    HW117060   3.802   1.257   4.846
 5558SOL    HW217061   3.724   1.217   4.708
 5559SOL     OW17062   4.412   1.662   5.440
 5559SOL    HW117063   4.356   1.743   5.449
 5559SOL    HW217064   4.464   1.666   5.354
 5560SOL     OW17065   5.112   1.573   4.201
 5560SOL    HW117066   5.179   1.585   4.127
 5560SOL    HW217067   5.072   1.662   4.224
 5561SOL     OW17068   3.854   1.794   5.575
 5561SOL    HW117069   3.813   1.720   5.628
 5561SOL    HW217070   3.918   1.845   5.633
 5562SOL     OW17071   5.004   0.927   4.396
 5562SOL    HW117072   5.064   0.846   4.398
 5562SOL    HW217073   5.044   0.996   4.336
 5563SOL     OW17074   4.554   1.273   5.146
 5563SOL    HW117075   4.549   1.306   5.241
 5563SOL    HW217076   4.468   1.292   5.100
 5564SOL     OW17077   4.396   1.616   3.878
 5564SOL    HW117078   4.405   1.626   3.779
 5564SOL    HW217079   4.356   1.527   3.899
 5565SOL     OW17080   3.987   0.326   4.444
 5565SOL    HW117081   3.908   0.377   4.410
 5565SOL    HW217082   3.978   0.311   4.542
 5566SOL     OW17083   4.918   1.612   3.755
 5566SOL    HW117084   4.924   1.519   3.792
 5566SOL    HW217085   4.859   1.612   3.675
 5567SOL     OW17086   4.546   1.002   5.096
 5567SOL    HW117087   4.586   1.001   5.004
 5567SOL    HW217088   4.556   1.094   5.136
 5568SOL     OW17089   4.640   0.910   4.015
 5568SOL    HW117090   4.703   0.948   3.947
 5568SOL    HW217091   4.680   0.827   4.054
 5569SOL     OW17092   4.096   1.288   5.214
 5569SOL    HW117093   4.083   1.381   5.180
 5569SOL    HW217094   4.012   1.236   5.201
 5570SOL     OW17095   4.763   1.098   4.420
 5570SOL    HW117096   4.693   1.051   4.474
 5570SOL    HW217097   4.822   1.030   4.377
 5571SOL     OW17098   4.738   0.236   4.695
 5571SOL    HW117099   4.730   0.200   4.602
 5571SOL    HW217100   4.736   0.160   4.760
 5572SOL     OW17101   4.314   1.487   4.215
 5572SOL    HW117102   4.356   1.429   4.145
 5572SOL    HW217103   4.270   1.566   4.171
 5573SOL     OW17104   3.979   1.348   4.014
 5573SOL    HW117105   3.883   1.349   3.987
 5573SOL    HW217106   3.991   1.401   4.098
 5574SOL     OW17107   3.829   1.013   5.450
 5574SOL    HW117108   3.752   0.980   5.504
 5574SOL    HW217109   3.914   0.983   5.492
 5575SOL     OW17110   4.396   0.203   5.213
 5575SOL    HW117111   4.486   0.187   5.173
 5575SOL    HW217112   4.404   0.208   5.312
 5576SOL     OW17113   3.799   0.345   3.757
 5576SOL    HW117114   3.707   0.317   3.728
 5576SOL    HW217115   3.830   0.422   3.701
 5577SOL     OW17116   5.164   0.856   5.122
 5577SOL    HW117117   5.107   0.908   5.059
 5577SOL    HW217118   5.260   0.868   5.098
 5578SOL     OW17119   3.796   0.166   4.042
 5578SOL    HW117120   3.779   0.249   3.988
 5578SOL    HW217121   3.886   0.129   4.020
 5579SOL     OW17122   4.907   1.335   3.843
 5579SOL    HW117123   4.808   1.324   3.845
 5579SOL    HW217124   4.941   1.350   3.936
 5580SOL     OW17125   4.337   0.842   5.155
 5580SOL    HW117126   4.393   0.923   5.138
 5580SOL    HW217127   4.396   0.762   5.158
 5581SOL     OW17128   4.440   0.565   5.432
 5581SOL    HW117129   4.459   0.630   5.506
 5581SOL    HW217130   4.500   0.485   5.441
 5582SOL     OW17131   5.174   1.220   5.357
 5582SOL    HW117132   5.165   1.210   5.456
 5582SOL    HW217133   5.270   1.213   5.331
 5583SOL     OW17134   4.114   1.741   5.284
 5583SOL    HW117135   4.023   1.782   5.282
 5583SOL    HW217136   4.107   1.647   5.316
 5584SOL     OW17137   4.949   0.325   4.173
 5584SOL    HW117138   5.014   0.251   4.162
 5584SOL    HW217139   4.969   0.375   4.257
 5585SOL     OW17140   4.318   0.745   4.376
 5585SOL    HW117141   4.368   0.830   4.357
 5585SOL    HW217142   4.230   0.747   4.328
 5586SOL     OW17143   4.583   1.374   3.740
 5586SOL    HW117144   4.537   1.389   3.828
 5586SOL    HW217145   4.627   1.459   3.710
 5587SOL     OW17146   4.385   1.790   4.677
 5587SOL    HW117147   4.339   1.878   4.664
 5587SOL    HW217148   4.484   1.802   4.670
 5588SOL     OW17149   4.583   0.956   4.585
 5588SOL    HW117150   4.637   0.887   4.633
 5588SOL    HW217151   4.551   1.025   4.651
 5589SOL     OW17152   4.807   0.984   3.811
 5589SOL    HW117153   4.784   1.037   3.729
 5589SOL    HW217154   4.888   0.928   3.792
 5590SOL     OW17155   3.945   1.314   5.568
 5590SOL    HW117156   3.880   1.241   5.547
 5590SOL    HW217157   3.949   1.328   5.666
 5591SOL     OW17158   3.803   1.240   4.377
 5591SOL    HW117159   3.802   1.193   4.465
 5591SOL    HW217160   3.885   1.212   4.326
 5592SOL     OW17161   4.396   1.391   5.348
 5592SOL    HW117162   4.318   1.341   5.386
 5592SOL    HW217163   4.393   1.486   5.379
 5593SOL     OW17164   4.152   0.424   4.244
 5593SOL    HW117165   4.182   0.352   4.182
 5593SOL    HW217166   4.113   0.384   4.327
 5594SOL     OW17167   5.429   1.487   4.828
 5594SOL    HW117168   5.336   1.462   4.801
 5594SOL    HW217169   5.455   1.437   4.910
 5595SOL     OW17170   4.041   0.547   5.004
 5595SOL    HW117171   4.079   0.488   5.076
 5595SOL    HW217172   4.081   0.521   4.916
 5596SOL     OW17173   4.536   1.586   4.411
 5596SOL    HW117174   4.568   1.596   4.317
 5596SOL    HW217175   4.457   1.524   4.413
 5597SOL     OW17176   5.148   0.214   4.836
 5597SOL    HW117177   5.200   0.149   4.891
 5597SOL    HW217178   5.099   0.277   4.897
 5598SOL     OW17179   4.725   0.034   4.878
 5598SOL    HW117180   4.662  -0.038   4.847
 5598SOL    HW217181   4.818  -0.002   4.878
 5599SOL     OW17182   4.494   1.330   4.025
 5599SOL    HW117183   4.448   1.243   4.042
 5599SOL    HW217184   4.585   1.327   4.066
 5600SOL     OW17185   4.342   1.567   5.008
 5600SOL    HW117186   4.337   1.649   5.065
 5600SOL    HW217187   4.431   1.564   4.963
 5601SOL     OW17188   5.076   0.052   3.892
 5601SOL    HW117189   5.111   0.011   3.808
 5601SOL    HW217190   4.986   0.014   3.912
 5602SOL     OW17191   5.024   0.453   4.415
 5602SOL    HW117192   4.965   0.533   4.419
 5602SOL    HW217193   5.039   0.418   4.508
 5603SOL     OW17194   5.317   0.221   4.606
 5603SOL    HW117195   5.233   0.220   4.660
 5603SOL    HW217196   5.319   0.304   4.550
 5604SOL     OW17197   3.763   1.077   4.024
 5604SOL    HW117198   3.862   1.066   4.015
 5604SOL    HW217199   3.723   0.991   4.056
 5605SOL     OW17200   4.599   1.646   4.061
 5605SOL    HW117201   4.522   1.611   4.007
 5605SOL    HW217202   4.567   1.717   4.123
 5606SOL     OW17203   3.954   0.628   5.699
 5606SOL    HW117204   3.861   0.626   5.736
 5606SOL    HW217205   3.955   0.589   5.607
 5607SOL     OW17206   3.949   0.275   6.582
 5607SOL    HW117207   3.984   0.258   6.674
 5607SOL    HW217208   3.861   0.230   6.570
 5608SOL     OW17209   3.743   0.368   6.233
 5608SOL    HW117210   3.661   0.411   6.272
 5608SOL    HW217211   3.715   0.295   6.170
 5609SOL     OW17212   4.293   1.275   6.751
 5609SOL    HW117213   4.200   1.268   6.714
 5609SOL    HW217214   4.304   1.364   6.795
 5610SOL     OW17215   5.279   1.511   6.289
 5610SOL    HW117216   5.222   1.495   6.370
 5610SOL    HW217217   5.220   1.521   6.209
 5611SOL     OW17218   4.859   0.703   6.303
 5611SOL    HW117219   4.916   0.781   6.278
 5611SOL    HW217220   4.799   0.729   6.379
 5612SOL     OW17221   4.492   1.144   6.609
 5612SOL    HW117222   4.414   1.161   6.669
 5612SOL    HW217223   4.526   1.231   6.573
 5613SOL     OW17224   4.574   0.798   7.409
 5613SOL    HW117225   4.570   0.874   7.474
 5613SOL    HW217226   4.596   0.834   7.318
 5614SOL     OW17227   4.409   1.012   6.251
 5614SOL    HW117228   4.478   0.996   6.321
 5614SOL    HW217229   4.336   1.069   6.289
 5615SOL     OW17230   4.410   1.161   7.389
 5615SOL    HW117231   4.470   1.240   7.403
 5615SOL    HW217232   4.324   1.192   7.348
 5616SOL     OW17233   4.059   1.435   6.647
 5616SOL    HW117234   3.981   1.404   6.594
 5616SOL    HW217235   4.117   1.493   6.590
 5617SOL     OW17236   5.184   1.505   6.925
 5617SOL    HW117237   5.208   1.599   6.951
 5617SOL    HW217238   5.168   1.451   7.007
 5618SOL     OW17239   4.162   0.392   7.085
 5618SOL    HW117240   4.244   0.336   7.094
 5618SOL    HW217241   4.081   0.334   7.089
 5619SOL     OW17242   3.955   1.713   6.069
 5619SOL    HW117243   3.989   1.790   6.123
 5619SOL    HW217244   3.999   1.713   5.979
 5620SOL     OW17245   4.851   1.341   7.276
 5620SOL    HW117246   4.898   1.341   7.364
 5620SOL    HW217247   4.803   1.254   7.265
 5621SOL     OW17248   3.954   1.434   6.124
 5621SOL    HW117249   3.928   1.530   6.124
 5621SOL    HW217250   3.883   1.380   6.169
 5622SOL     OW17251   3.964   1.091   6.472
 5622SOL    HW117252   3.978   1.007   6.524
 5622SOL    HW217253   3.909   1.155   6.527
 5623SOL     OW17254   4.344   1.786   7.025
 5623SOL    HW117255   4.252   1.769   7.060
 5623SOL    HW217256   4.372   1.878   7.051
 5624SOL     OW17257   4.330   0.964   5.709
 5624SOL    HW117258   4.337   1.048   5.655
 5624SOL    HW217259   4.376   0.977   5.797
 5625SOL     OW17260   5.318   0.114   7.066
 5625SOL    HW117261   5.300   0.181   6.994
 5625SOL    HW217262   5.315   0.160   7.155
 5626SOL     OW17263   3.846   0.643   6.149
 5626SOL    HW117264   3.801   0.555   6.166
 5626SOL    HW217265   3.845   0.697   6.233
 5627SOL     OW17266   3.751   1.596   5.703
 5627SOL    HW117267   3.732   1.500   5.724
 5627SOL    HW217268   3.718   1.654   5.778
 5628SOL     OW17269   5.413   0.922   6.198
 5628SOL    HW117270   5.508   0.893   6.206
 5628SOL    HW217271   5.405   0.987   6.123
 5629SOL     OW17272   3.837   0.737   7.183
 5629SOL    HW117273   3.925   0.724   7.228
 5629SOL    HW217274   3.824   0.834   7.161
 5630SOL     OW17275   4.337   1.365   6.312
 5630SOL    HW117276   4.288   1.278   6.321
 5630SOL    HW217277   4.314   1.408   6.225
 5631SOL     OW17278   5.017   1.228   7.009
 5631SOL    HW117279   5.054   1.155   6.951
 5631SOL    HW217280   5.069   1.233   7.094
 5632SOL     OW17281   4.533   0.004   6.088
 5632SOL    HW117282   4.573   0.095   6.079
 5632SOL    HW217283   4.433   0.012   6.094
 5633SOL     OW17284   3.921   0.976   6.850
 5633SOL    HW117285   4.010   0.931   6.836
 5633SOL    HW217286   3.848   0.911   6.831
 5634SOL     OW17287   4.911   1.792   7.202
 5634SOL    HW117288   4.935   1.852   7.126
 5634SOL    HW217289   4.918   1.697   7.172
 5635SOL     OW17290   4.041   0.251   7.387
 5635SOL    HW117291   4.112   0.322   7.393
 5635SOL    HW217292   3.953   0.290   7.415
 5636SOL     OW17293   5.190   1.417   6.539
 5636SOL    HW117294   5.131   1.423   6.619
 5636SOL    HW217295   5.175   1.329   6.493
 5637SOL     OW17296   4.322   0.729   5.856
 5637SOL    HW117297   4.346   0.798   5.788
 5637SOL    HW217298   4.244   0.762   5.910
 5638SOL     OW17299   5.005   0.345   6.530
 5638SOL    HW117300   4.919   0.295   6.517
 5638SOL    HW217301   5.067   0.291   6.586
 5639SOL     OW17302   4.531   0.605   7.051
 5639SOL    HW117303   4.484   0.602   7.140
 5639SOL    HW217304   4.480   0.550   6.985
 5640SOL     OW17305   5.118   0.469   7.260
 5640SOL    HW117306   5.098   0.512   7.348
 5640SOL    HW217307   5.196   0.407   7.269
 5641SOL     OW17308   4.697   0.890   7.158
 5641SOL    HW117309   4.743   0.806   7.129
 5641SOL    HW217310   4.641   0.924   7.083
 5642SOL     OW17311   4.715   0.410   6.828
 5642SOL    HW117312   4.638   0.444   6.882
 5642SOL    HW217313   4.681   0.359   6.749
 5643SOL     OW17314   4.765   0.701   6.015
 5643SOL    HW117315   4.791   0.697   6.111
 5643SOL    HW217316   4.680   0.650   6.001
 5644SOL     OW17317   3.800   0.811   6.375
 5644SOL    HW117318   3.899   0.799   6.384
 5644SOL    HW217319   3.776   0.906   6.396
 5645SOL     OW17320   3.854   1.821   7.157
 5645SOL    HW117321   3.844   1.806   7.256
 5645SOL    HW217322   3.768   1.857   7.121
 5646SOL     OW17323   4.589   0.348   5.781
 5646SOL    HW117324   4.648   0.411   5.732
 5646SOL    HW217325   4.608   0.254   5.752
 5647SOL     OW17326   5.086   1.144   6.131
 5647SOL    HW117327   5.169   1.115   6.083
 5647SOL    HW217328   5.037   1.211   6.075
 5648SOL     OW17329   4.274   0.196   6.471
 5648SOL    HW117330   4.269   0.191   6.571
 5648SOL    HW217331   4.276   0.292   6.442
 5649SOL     OW17332   4.732   1.456   6.063
 5649SOL    HW117333   4.686   1.528   6.011
 5649SOL    HW217334   4.728   1.476   6.161
 5650SOL     OW17335   4.075   1.801   6.439
 5650SOL    HW117336   4.125   1.715   6.445
 5650SOL    HW217337   4.140   1.878   6.436
 5651SOL     OW17338   4.951   1.550   7.092
 5651SOL    HW117339   4.957   1.473   7.156
 5651SOL    HW217340   4.899   1.524   7.012
 5652SOL     OW17341   4.045   0.943   5.828
 5652SOL    HW117342   4.127   0.982   5.786
 5652SOL    HW217343   4.018   0.861   5.779
 5653SOL     OW17344   4.185   1.266   7.313
 5653SOL    HW117345   4.135   1.267   7.227
 5653SOL    HW217346   4.122   1.248   7.389
 5654SOL     OW17347   4.835   1.776   5.823
 5654SOL    HW117348   4.775   1.714   5.873
 5654SOL    HW217349   4.866   1.732   5.738
 5655SOL     OW17350   3.926   0.285   7.084
 5655SOL    HW117351   3.846   0.345   7.071
 5655SOL    HW217352   3.916   0.236   7.170
 5656SOL     OW17353   4.188   1.743   5.909
 5656SOL    HW117354   4.221   1.782   5.995
 5656SOL    HW217355   4.264   1.736   5.844
 5657SOL     OW17356   5.124   0.107   6.012
 5657SOL    HW117357   5.100   0.070   5.922
 5657SOL    HW217358   5.223   0.123   6.016
 5658SOL     OW17359   3.973   1.785   6.827
 5658SOL    HW117360   4.030   1.720   6.877
 5658SOL    HW217361   3.957   1.752   6.734
 5659SOL     OW17362   4.664   1.698   6.490
 5659SOL    HW117363   4.744   1.641   6.511
 5659SOL    HW217364   4.615   1.658   6.413
 5660SOL     OW17365   4.106   0.700   6.066
 5660SOL    HW117366   4.151   0.610   6.063
 5660SOL    HW217367   4.012   0.689   6.099
 5661SOL     OW17368   4.338   0.122   5.703
 5661SOL    HW117369   4.436   0.100   5.710
 5661SOL    HW217370   4.307   0.105   5.610
 5662SOL     OW17371   4.505   0.264   7.335
 5662SOL    HW117372   4.572   0.203   7.378
 5662SOL    HW217373   4.432   0.283   7.400
 5663SOL     OW17374   4.612   1.514   6.781
 5663SOL    HW117375   4.589   1.489   6.687
 5663SOL    HW217376   4.673   1.445   6.820
 5664SOL     OW17377   5.075   0.590   7.019
 5664SOL    HW117378   5.103   0.547   7.104
 5664SOL    HW217379   5.100   0.686   7.020
 5665SOL     OW17380   4.527   1.402   6.510
 5665SOL    HW117381   4.617   1.416   6.468
 5665SOL    HW217382   4.456   1.404   6.439
 5666SOL     OW17383   4.646   0.503   6.485
 5666SOL    HW117384   4.621   0.494   6.389
 5666SOL    HW217385   4.694   0.421   6.516
 5667SOL     OW17386   4.263   0.064   6.098
 5667SOL    HW117387   4.182   0.065   6.156
 5667SOL    HW217388   4.266   0.147   6.043
 5668SOL     OW17389   5.158   1.188   5.627
 5668SOL    HW117390   5.190   1.112   5.684
 5668SOL    HW217391   5.066   1.215   5.657
 5669SOL     OW17392   4.021   0.035   5.757
 5669SOL    HW117393   4.070   0.119   5.736
 5669SOL    HW217394   4.083  -0.030   5.802
 5670SOL     OW17395   4.659   0.236   6.066
 5670SOL    HW117396   4.611   0.277   5.988
 5670SOL    HW217397   4.758   0.234   6.047
 5671SOL     OW17398   4.800   0.683   7.050
 5671SOL    HW117399   4.720   0.622   7.053
 5671SOL    HW217400   4.881   0.630   7.026
 5672SOL     OW17401   4.951   1.570   6.379
 5672SOL    HW117402   4.972   1.644   6.314
 5672SOL    HW217403   5.019   1.570   6.452
 5673SOL     OW17404   4.183   1.152   6.327
 5673SOL    HW117405   4.112   1.125   6.392
 5673SOL    HW217406   4.157   1.124   6.234
 5674SOL     OW17407   4.995   1.797   6.177
 5674SOL    HW117408   5.039   1.861   6.113
 5674SOL    HW217409   4.945   1.849   6.247
 5675SOL     OW17410   4.756   0.549   5.602
 5675SOL    HW117411   4.715   0.631   5.563
 5675SOL    HW217412   4.820   0.575   5.675
 5676SOL     OW17413   3.802   0.556   6.972
 5676SOL    HW117414   3.894   0.555   6.931
 5676SOL    HW217415   3.796   0.630   7.039
 5677SOL     OW17416   4.285   0.222   6.733
 5677SOL    HW117417   4.323   0.138   6.770
 5677SOL    HW217418   4.197   0.241   6.777
 5678SOL     OW17419   4.590   0.454   6.228
 5678SOL    HW117420   4.558   0.526   6.166
 5678SOL    HW217421   4.614   0.373   6.175
 5679SOL     OW17422   4.741   0.039   6.339
 5679SOL    HW117423   4.669   0.044   6.270
 5679SOL    HW217424   4.717  -0.030   6.408
 5680SOL     OW17425   5.153   1.173   6.453
 5680SOL    HW117426   5.098   1.089   6.446
 5680SOL    HW217427   5.179   1.202   6.361
 5681SOL     OW17428   4.212   1.385   5.760
 5681SOL    HW117429   4.125   1.370   5.807
 5681SOL    HW217430   4.195   1.411   5.665
 5682SOL     OW17431   5.114   0.575   5.664
 5682SOL    HW117432   5.060   0.554   5.745
 5682SOL    HW217433   5.205   0.534   5.673
 5683SOL     OW17434   4.251   0.256   5.914
 5683SOL    HW117435   4.278   0.197   5.839
 5683SOL    HW217436   4.251   0.351   5.883
 5684SOL     OW17437   4.788   1.347   6.926
 5684SOL    HW117438   4.708   1.324   6.981
 5684SOL    HW217439   4.871   1.321   6.975
 5685SOL     OW17440   5.316   1.629   7.211
 5685SOL    HW117441   5.343   1.663   7.121
 5685SOL    HW217442   5.395   1.591   7.257
 5686SOL     OW17443   4.835   1.195   6.686
 5686SOL    HW117444   4.795   1.239   6.767
 5686SOL    HW217445   4.794   1.232   6.603
 5687SOL     OW17446   4.639   0.089   6.988
 5687SOL    HW117447   4.664   0.069   6.893
 5687SOL    HW217448   4.711   0.145   7.030
 5688SOL     OW17449   4.704   1.116   7.305
 5688SOL    HW117450   4.605   1.122   7.315
 5688SOL    HW217451   4.727   1.036   7.249
 5689SOL     OW17452   4.429   1.050   5.954
 5689SOL    HW117453   4.415   1.057   6.053
 5689SOL    HW217454   4.513   0.999   5.936
 5690SOL     OW17455   4.134   0.813   6.837
 5690SOL    HW117456   4.220   0.825   6.887
 5690SOL    HW217457   4.092   0.726   6.864
 5691SOL     OW17458   4.998   0.386   6.848
 5691SOL    HW117459   5.019   0.460   6.912
 5691SOL    HW217460   4.909   0.403   6.805
 5692SOL     OW17461   3.788   1.564   6.917
 5692SOL    HW117462   3.742   1.646   6.883
 5692SOL    HW217463   3.886   1.583   6.926
 5693SOL     OW17464   4.091   1.100   6.087
 5693SOL    HW117465   4.084   1.183   6.031
 5693SOL    HW217466   4.095   1.020   6.027
 5694SOL     OW17467   4.290   0.537   6.451
 5694SOL    HW117468   4.302   0.603   6.377
 5694SOL    HW217469   4.336   0.571   6.534
 5695SOL     OW17470   4.976   1.348   5.974
 5695SOL    HW117471   5.026   1.425   6.014
 5695SOL    HW217472   4.881   1.350   6.006
 5696SOL     OW17473   4.996   1.445   6.728
 5696SOL    HW117474   5.043   1.458   6.815
 5696SOL    HW217475   4.930   1.371   6.737
 5697SOL     OW17476   4.078   1.510   6.915
 5697SOL    HW117477   4.057   1.466   6.828
 5697SOL    HW217478   4.175   1.536   6.918
 5698SOL     OW17479   4.126   0.751   7.184
 5698SOL    HW117480   4.194   0.806   7.137
 5698SOL    HW217481   4.166   0.663   7.211
 5699SOL     OW17482   4.737   0.105   7.356
 5699SOL    HW117483   4.743   0.190   7.304
 5699SOL    HW217484   4.769   0.029   7.299
 5700SOL     OW17485   4.228   0.050   7.326
 5700SOL    HW117486   4.186  -0.007   7.256
 5700SOL    HW217487   4.162   0.119   7.358
 5701SOL     OW17488   4.297   0.870   6.615
 5701SOL    HW117489   4.341   0.959   6.606
 5701SOL    HW217490   4.234   0.870   6.692
 5702SOL     OW17491   5.084   0.862   6.631
 5702SOL    HW117492   5.009   0.862   6.565
 5702SOL    HW217493   5.121   0.770   6.640
 5703SOL     OW17494   4.933   0.525   5.861
 5703SOL    HW117495   4.946   0.441   5.915
 5703SOL    HW217496   4.904   0.599   5.921
 5704SOL     OW17497   4.031   0.213   6.817
 5704SOL    HW117498   4.008   0.250   6.907
 5704SOL    HW217499   4.001   0.118   6.811
 5705SOL     OW17500   3.761   1.310   6.868
 5705SOL    HW117501   3.814   1.261   6.936
 5705SOL    HW217502   3.783   1.408   6.873
 5706SOL     OW17503   4.456   0.634   6.650
 5706SOL    HW117504   4.515   0.608   6.574
 5706SOL    HW217505   4.428   0.730   6.639
 5707SOL     OW17506   4.031   0.063   6.204
 5707SOL    HW117507   4.020   0.157   6.237
 5707SOL    HW217508   4.026   0.000   6.281
 5708SOL     OW17509   5.346   0.367   5.960
 5708SOL    HW117510   5.348   0.291   6.024
 5708SOL    HW217511   5.298   0.444   6.000
 5709SOL     OW17512   4.747   0.766   6.552
 5709SOL    HW117513   4.762   0.787   6.648
 5709SOL    HW217514   4.717   0.671   6.543
 5710SOL     OW17515   4.704   1.573   7.286
 5710SOL    HW117516   4.684   1.617   7.198
 5710SOL    HW217517   4.743   1.482   7.270
 5711SOL     OW17518   4.074   0.898   7.390
 5711SOL    HW117519   4.150   0.942   7.438
 5711SOL    HW217520   4.109   0.851   7.308
 5712SOL     OW17521   5.027   0.838   5.628
 5712SOL    HW117522   5.061   0.745   5.643
 5712SOL    HW217523   5.045   0.865   5.533
 5713SOL     OW17524   4.792   1.333   6.435
 5713SOL    HW117525   4.799   1.249   6.380
 5713SOL    HW217526   4.854   1.402   6.399
 5714SOL     OW17527   4.043   0.810   6.535
 5714SOL    HW117528   4.136   0.846   6.540
 5714SOL    HW217529   4.037   0.725   6.587
 5715SOL     OW17530   4.063   0.509   6.592
 5715SOL    HW117531   4.011   0.426   6.575
 5715SOL    HW217532   4.140   0.514   6.528
 5716SOL     OW17533   4.862   0.380   7.264
 5716SOL    HW117534   4.817   0.443   7.328
 5716SOL    HW217535   4.955   0.411   7.247
 5717SOL     OW17536   4.884   0.207   7.063
 5717SOL    HW117537   4.884   0.271   7.140
 5717SOL    HW217538   4.912   0.255   6.980
 5718SOL     OW17539   3.732   1.326   5.786
 5718SOL    HW117540   3.639   1.347   5.755
 5718SOL    HW217541   3.742   1.227   5.799
 5719SOL     OW17542   3.812   1.801   6.513
 5719SOL    HW117543   3.770   1.715   6.486
 5719SOL    HW217544   3.906   1.804   6.479
 5720SOL     OW17545   4.228   1.568   6.496
 5720SOL    HW117546   4.294   1.642   6.505
 5720SOL    HW217547   4.272   1.489   6.454
 5721SOL     OW17548   4.726   0.796   6.824
 5721SOL    HW117549   4.767   0.764   6.910
 5721SOL    HW217550   4.630   0.769   6.821
 5722SOL     OW17551   3.764   0.544   6.700
 5722SOL    HW117552   3.849   0.511   6.659
 5722SOL    HW217553   3.777   0.559   6.798
 5723SOL     OW17554   3.913   0.520   7.308
 5723SOL    HW117555   3.972   0.480   7.238
 5723SOL    HW217556   3.855   0.591   7.267
 5724SOL     OW17557   5.093   0.950   7.246
 5724SOL    HW117558   5.132   1.039   7.266
 5724SOL    HW217559   5.103   0.930   7.149
 5725SOL     OW17560   4.539   0.572   5.911
 5725SOL    HW117561   4.546   0.483   5.865
 5725SOL    HW217562   4.445   0.606   5.903
 5726SOL     OW17563   3.976   1.564   7.330
 5726SOL    HW117564   3.946   1.621   7.406
 5726SOL    HW217565   3.969   1.467   7.356
 5727SOL     OW17566   4.395   0.464   6.855
 5727SOL    HW117567   4.361   0.375   6.825
 5727SOL    HW217568   4.421   0.518   6.775
 5728SOL     OW17569   4.654   1.678   7.051
 5728SOL    HW117570   4.630   1.660   6.956
 5728SOL    HW217571   4.684   1.772   7.061
 5729SOL     OW17572   4.197   0.500   5.777
 5729SOL    HW117573   4.258   0.580   5.781
 5729SOL    HW217574   4.102   0.531   5.784
 5730SOL     OW17575   3.883   1.137   7.052
 5730SOL    HW117576   3.905   1.076   7.128
 5730SOL    HW217577   3.893   1.088   6.966
 5731SOL     OW17578   5.071   1.059   6.820
 5731SOL    HW117579   5.095   0.996   6.746
 5731SOL    HW217580   4.981   1.099   6.802
 5732SOL     OW17581   5.026   0.855   5.895
 5732SOL    HW117582   4.940   0.824   5.937
 5732SOL    HW217583   5.022   0.841   5.796
 5733SOL     OW17584   4.976   1.731   6.714
 5733SOL    HW117585   5.060   1.736   6.660
 5733SOL    HW217586   4.953   1.635   6.732
 5734SOL     OW17587   3.807   1.258   6.608
 5734SOL    HW117588   3.802   1.257   6.708
 5734SOL    HW217589   3.724   1.217   6.570
 5735SOL     OW17590   4.412   1.662   7.302
 5735SOL    HW117591   4.356   1.743   7.311
 5735SOL    HW217592   4.464   1.666   7.216
 5736SOL     OW17593   5.112   1.573   6.063
 5736SOL    HW117594   5.179   1.585   5.989
 5736SOL    HW217595   5.072   1.662   6.086
 5737SOL     OW17596   3.854   1.794   7.437
 5737SOL    HW117597   3.813   1.720   7.490
 5737SOL    HW217598   3.918   1.845   7.495
 5738SOL     OW17599   5.004   0.927   6.258
 5738SOL    HW117600   5.064   0.846   6.260
 5738SOL    HW217601   5.044   0.996   6.198
 5739SOL     OW17602   4.554   1.273   7.008
 5739SOL    HW117603   4.549   1.306   7.103
 5739SOL    HW217604   4.468   1.292   6.962
 5740SOL     OW17605   4.396   1.616   5.740
 5740SOL    HW117606   4.405   1.626   5.641
 5740SOL    HW217607   4.356   1.527   5.761
 5741SOL     OW17608   3.987   0.326   6.306
 5741SOL    HW117609   3.908   0.377   6.272
 5741SOL    HW217610   3.978   0.311   6.404
 5742SOL     OW17611   4.918   1.612   5.617
 5742SOL    HW117612   4.924   1.519   5.654
 5742SOL    HW217613   4.859   1.612   5.537
 5743SOL     OW17614   4.546   1.002   6.958
 5743SOL    HW117615   4.586   1.001   6.866
 5743SOL    HW217616   4.556   1.094   6.998
 5744SOL     OW17617   4.640   0.910   5.877
 5744SOL    HW117618   4.703   0.948   5.809
 5744SOL    HW217619   4.680   0.827   5.916
 5745SOL     OW17620   4.096   1.288   7.076
 5745SOL    HW117621   4.083   1.381   7.042
 5745SOL    HW217622   4.012   1.236   7.063
 5746SOL     OW17623   4.763   1.098   6.282
 5746SOL    HW117624   4.693   1.051   6.336
 5746SOL    HW217625   4.822   1.030   6.239
 5747SOL     OW17626   4.738   0.236   6.557
 5747SOL    HW117627   4.730   0.200   6.464
 5747SOL    HW217628   4.736   0.160   6.622
 5748SOL     OW17629   4.314   1.487   6.077
 5748SOL    HW117630   4.356   1.429   6.007
 5748SOL    HW217631   4.270   1.566   6.033
 5749SOL     OW17632   3.979   1.348   5.876
 5749SOL    HW117633   3.883   1.349   5.849
 5749SOL    HW217634   3.991   1.401   5.960
 5750SOL     OW17635   3.829   1.013   7.312
 5750SOL    HW117636   3.752   0.980   7.366
 5750SOL    HW217637   3.914   0.983   7.354
 5751SOL     OW17638   4.396   0.203   7.075
 5751SOL    HW117639   4.486   0.187   7.035
 5751SOL    HW217640   4.404   0.208   7.174
 5752SOL     OW17641   3.799   0.345   5.619
 5752SOL    HW117642   3.707   0.317   5.590
 5752SOL    HW217643   3.830   0.422   5.563
 5753SOL     OW17644   5.164   0.856   6.984
 5753SOL    HW117645   5.107   0.908   6.921
 5753SOL    HW217646   5.260   0.868   6.960
 5754SOL     OW17647   3.796   0.166   5.904
 5754SOL    HW117648   3.779   0.249   5.850
 5754SOL    HW217649   3.886   0.129   5.882
 5755SOL     OW17650   4.907   1.335   5.705
 5755SOL    HW117651   4.808   1.324   5.707
 5755SOL    HW217652   4.941   1.350   5.798
 5756SOL     OW17653   4.337   0.842   7.017
 5756SOL    HW117654   4.393   0.923   7.000
 5756SOL    HW217655   4.396   0.762   7.020
 5757SOL     OW17656   4.440   0.565   7.294
 5757SOL    HW117657   4.459   0.630   7.368
 5757SOL    HW217658   4.500   0.485   7.303
 5758SOL     OW17659   5.174   1.220   7.219
 5758SOL    HW117660   5.165   1.210   7.318
 5758SOL    HW217661   5.270   1.213   7.193
 5759SOL     OW17662   4.114   1.741   7.146
 5759SOL    HW117663   4.023   1.782   7.144
 5759SOL    HW217664   4.107   1.647   7.178
 5760SOL     OW17665   4.949   0.325   6.035
 5760SOL    HW117666   5.014   0.251   6.024
 5760SOL    HW217667   4.969   0.375   6.119
 5761SOL     OW17668   4.318   0.745   6.238
 5761SOL    HW117669   4.368   0.830   6.219
 5761SOL    HW217670   4.230   0.747   6.190
 5762SOL     OW17671   4.583   1.374   5.602
 5762SOL    HW117672   4.537   1.389   5.690
 5762SOL    HW217673   4.627   1.459   5.572
 5763SOL     OW17674   4.385   1.790   6.539
 5763SOL    HW117675   4.339   1.878   6.526
 5763SOL    HW217676   4.484   1.802   6.532
 5764SOL     OW17677   4.583   0.956   6.447
 5764SOL    HW117678   4.637   0.887   6.495
 5764SOL    HW217679   4.551   1.025   6.513
 5765SOL     OW17680   4.807   0.984   5.673
 5765SOL    HW117681   4.784   1.037   5.591
 5765SOL    HW217682   4.888   0.928   5.654
 5766SOL     OW17683   3.945   1.314   7.430
 5766SOL    HW117684   3.880   1.241   7.409
 5766SOL    HW217685   3.949   1.328   7.528
 5767SOL     OW17686   3.803   1.240   6.239
 5767SOL    HW117687   3.802   1.193   6.327
 5767SOL    HW217688   3.885   1.212   6.188
 5768SOL     OW17689   4.396   1.391   7.210
 5768SOL    HW117690   4.318   1.341   7.248
 5768SOL    HW217691   4.393   1.486   7.241
 5769SOL     OW17692   4.152   0.424   6.106
 5769SOL    HW117693   4.182   0.352   6.044
 5769SOL    HW217694   4.113   0.384   6.189
 5770SOL     OW17695   5.429   1.487   6.690
 5770SOL    HW117696   5.336   1.462   6.663
 5770SOL    HW217697   5.455   1.437   6.772
 5771SOL     OW17698   4.041   0.547   6.866
 5771SOL    HW117699   4.079   0.488   6.938
 5771SOL    HW217700   4.081   0.521   6.778
 5772SOL     OW17701   4.536   1.586   6.273
 5772SOL    HW117702   4.568   1.596   6.179
 5772SOL    HW217703   4.457   1.524   6.275
 5773SOL     OW17704   5.148   0.214   6.698
 5773SOL    HW117705   5.200   0.149   6.753
 5773SOL    HW217706   5.099   0.277   6.759
 5774SOL     OW17707   4.725   0.034   6.740
 5774SOL    HW117708   4.662  -0.038   6.709
 5774SOL    HW217709   4.818  -0.002   6.740
 5775SOL     OW17710   4.494   1.330   5.887
 5775SOL    HW117711   4.448   1.243   5.904
 5775SOL    HW217712   4.585   1.327   5.928
 5776SOL     OW17713   4.342   1.567   6.870
 5776SOL    HW117714   4.337   1.649   6.927
 5776SOL    HW217715   4.431   1.564   6.825
 5777SOL     OW17716   5.076   0.052   5.754
 5777SOL    HW117717   5.111   0.011   5.670
 5777SOL    HW217718   4.986   0.014   5.774
 5778SOL     OW17719   5.024   0.453   6.277
 5778SOL    HW117720   4.965   0.533   6.281
 5778SOL    HW217721   5.039   0.418   6.370
 5779SOL     OW17722   5.317   0.221   6.468
 5779SOL    HW117723   5.233   0.220   6.522
 5779SOL    HW217724   5.319   0.304   6.412
 5780SOL     OW17725   3.763   1.077   5.886
 5780SOL    HW117726   3.862   1.066   5.877
 5780SOL    HW217727   3.723   0.991   5.918
 5781SOL     OW17728   4.599   1.646   5.923
 5781SOL    HW117729   4.522   1.611   5.869
 5781SOL    HW217730   4.567   1.717   5.985
 5782SOL     OW17731   3.954   0.628   7.561
 5782SOL    HW117732   3.861   0.626   7.598
 5782SOL    HW217733   3.955   0.589   7.469
 5783SOL     OW17734   3.955   1.713   7.931
 5783SOL    HW117735   3.989   1.790   7.985
 5783SOL    HW217736   3.999   1.713   7.841
 5784SOL     OW17737   3.954   1.434   7.986
 5784SOL    HW117738   3.928   1.530   7.986
 5784SOL    HW217739   3.883   1.380   8.031
 5785SOL     OW17740   4.330   0.964   7.571
 5785SOL    HW117741   4.337   1.048   7.517
 5785SOL    HW217742   4.376   0.977   7.659
 5786SOL     OW17743   3.751   1.596   7.565
 5786SOL    HW117744   3.732   1.500   7.586
 5786SOL    HW217745   3.718   1.654   7.640
 5787SOL     OW17746   5.413   0.922   8.060
 5787SOL    HW117747   5.508   0.893   8.068
 5787SOL    HW217748   5.405   0.987   7.985
 5788SOL     OW17749   4.533   0.004   7.950
 5788SOL    HW117750   4.573   0.095   7.941
 5788SOL    HW217751   4.433   0.012   7.956
 5789SOL     OW17752   4.322   0.729   7.718
 5789SOL    HW117753   4.346   0.798   7.650
 5789SOL    HW217754   4.244   0.762   7.772
 5790SOL     OW17755   3.800   0.811   8.237
 5790SOL    HW117756   3.899   0.799   8.246
 5790SOL    HW217757   3.776   0.906   8.258
 5791SOL     OW17758   4.589   0.348   7.643
 5791SOL    HW117759   4.648   0.411   7.594
 5791SOL    HW217760   4.608   0.254   7.614
 5792SOL     OW17761   4.045   0.943   7.690
 5792SOL    HW117762   4.127   0.982   7.648
 5792SOL    HW217763   4.018   0.861   7.641
 5793SOL     OW17764   4.835   1.776   7.685
 5793SOL    HW117765   4.775   1.714   7.735
 5793SOL    HW217766   4.866   1.732   7.600
 5794SOL     OW17767   4.188   1.743   7.771
 5794SOL    HW117768   4.221   1.782   7.857
 5794SOL    HW217769   4.264   1.736   7.706
 5795SOL     OW17770   5.124   0.107   7.874
 5795SOL    HW117771   5.100   0.070   7.784
 5795SOL    HW217772   5.223   0.123   7.878
 5796SOL     OW17773   4.106   0.700   7.928
 5796SOL    HW117774   4.151   0.610   7.925
 5796SOL    HW217775   4.012   0.689   7.961
 5797SOL     OW17776   4.338   0.122   7.565
 5797SOL    HW117777   4.436   0.100   7.572
 5797SOL    HW217778   4.307   0.105   7.472
 5798SOL     OW17779   4.263   0.064   7.960
 5798SOL    HW117780   4.182   0.065   8.018
 5798SOL    HW217781   4.266   0.147   7.905
 5799SOL     OW17782   5.158   1.188   7.489
 5799SOL    HW117783   5.190   1.112   7.546
 5799SOL    HW217784   5.066   1.215   7.519
 5800SOL     OW17785   4.021   0.035   7.619
 5800SOL    HW117786   4.070   0.119   7.598
 5800SOL    HW217787   4.083  -0.030   7.664
 5801SOL     OW17788   4.659   0.236   7.928
 5801SOL    HW117789   4.611   0.277   7.850
 5801SOL    HW217790   4.758   0.234   7.909
 5802SOL     OW17791   4.183   1.152   8.189
 5802SOL    HW117792   4.112   1.125   8.254
 5802SOL    HW217793   4.157   1.124   8.096
 5803SOL     OW17794   4.995   1.797   8.039
 5803SOL    HW117795   5.039   1.861   7.975
 5803SOL    HW217796   4.945   1.849   8.109
 5804SOL     OW17797   4.756   0.549   7.464
 5804SOL    HW117798   4.715   0.631   7.425
 5804SOL    HW217799   4.820   0.575   7.537
 5805SOL     OW17800   4.212   1.385   7.622
 5805SOL    HW117801   4.125   1.370   7.669
 5805SOL    HW217802   4.195   1.411   7.527
 5806SOL     OW17803   5.114   0.575   7.526
 5806SOL    HW117804   5.060   0.554   7.607
 5806SOL    HW217805   5.205   0.534   7.535
 5807SOL     OW17806   4.251   0.256   7.776
 5807SOL    HW117807   4.278   0.197   7.701
 5807SOL    HW217808   4.251   0.351   7.745
 5808SOL     OW17809   4.429   1.050   7.816
 5808SOL    HW117810   4.415   1.057   7.915
 5808SOL    HW217811   4.513   0.999   7.798
 5809SOL     OW17812   4.091   1.100   7.949
 5809SOL    HW117813   4.084   1.183   7.893
 5809SOL    HW217814   4.095   1.020   7.889
 5810SOL     OW17815   4.976   1.348   7.836
 5810SOL    HW117816   5.026   1.425   7.876
 5810SOL    HW217817   4.881   1.350   7.868
 5811SOL     OW17818   5.306   0.639   7.920
 5811SOL    HW117819   5.275   0.700   7.993
 5811SOL    HW217820   5.356   0.691   7.851
 5812SOL     OW17821   4.933   0.525   7.723
 5812SOL    HW117822   4.946   0.441   7.777
 5812SOL    HW217823   4.904   0.599   7.783
 5813SOL     OW17824   5.346   0.367   7.822
 5813SOL    HW117825   5.348   0.291   7.886
 5813SOL    HW217826   5.298   0.444   7.862
 5814SOL     OW17827   5.027   0.838   7.490
 5814SOL    HW117828   5.061   0.745   7.505
 5814SOL    HW217829   5.045   0.865   7.395
 5815SOL     OW17830   3.732   1.326   7.648
 5815SOL    HW117831   3.639   1.347   7.617
 5815SOL    HW217832   3.742   1.227   7.661
 5816SOL     OW17833   4.539   0.572   7.773
 5816SOL    HW117834   4.546   0.483   7.727
 5816SOL    HW217835   4.445   0.606   7.765
 5817SOL     OW17836   4.197   0.500   7.639
 5817SOL    HW117837   4.258   0.580   7.643
 5817SOL    HW217838   4.102   0.531   7.646
 5818SOL     OW17839   5.026   0.855   7.757
 5818SOL    HW117840   4.940   0.824   7.799
 5818SOL    HW217841   5.022   0.841   7.658
 5819SOL     OW17842   5.112   1.573   7.925
 5819SOL    HW117843   5.179   1.585   7.851
 5819SOL    HW217844   5.072   1.662   7.948
 5820SOL     OW17845   4.396   1.616   7.602
 5820SOL    HW117846   4.405   1.626   7.503
 5820SOL    HW217847   4.356   1.527   7.623
 5821SOL     OW17848   4.918   1.612   7.479
 5821SOL    HW117849   4.924   1.519   7.516
 5821SOL    HW217850   4.859   1.612   7.399
 5822SOL     OW17851   4.640   0.910   7.739
 5822SOL    HW117852   4.703   0.948   7.671
 5822SOL    HW217853   4.680   0.827   7.778
 5823SOL     OW17854   4.314   1.487   7.939
 5823SOL    HW117855   4.356   1.429   7.869
 5823SOL    HW217856   4.270   1.566   7.895
 5824SOL     OW17857   3.979   1.348   7.738
 5824SOL    HW117858   3.883   1.349   7.711
 5824SOL    HW217859   3.991   1.401   7.822
 5825SOL     OW17860   3.799   0.345   7.481
 5825SOL    HW117861   3.707   0.317   7.452
 5825SOL    HW217862   3.830   0.422   7.425
 5826SOL     OW17863   3.796   0.166   7.766
 5826SOL    HW117864   3.779   0.249   7.712
 5826SOL    HW217865   3.886   0.129   7.744
 5827SOL     OW17866   4.907   1.335   7.567
 5827SOL    HW117867   4.808   1.324   7.569
 5827SOL    HW217868   4.941   1.350   7.660
 5828SOL     OW17869   5.217   1.767   8.407
 5828SOL    HW117870   5.250   1.831   8.338
 5828SOL    HW217871   5.283   1.761   8.482
 5829SOL     OW17872   4.949   0.325   7.897
 5829SOL    HW117873   5.014   0.251   7.886
 5829SOL    HW217874   4.969   0.375   7.981
 5830SOL     OW17875   4.318   0.745   8.100
 5830SOL    HW117876   4.368   0.830   8.081
 5830SOL    HW217877   4.230   0.747   8.052
 5831SOL     OW17878   4.583   1.374   7.464
 5831SOL    HW117879   4.537   1.389   7.552
 5831SOL    HW217880   4.627   1.459   7.434
 5832SOL     OW17881   4.807   0.984   7.535
 5832SOL    HW117882   4.784   1.037   7.453
 5832SOL    HW217883   4.888   0.928   7.516
 5833SOL     OW17884   4.152   0.424   7.968
 5833SOL    HW117885   4.182   0.352   7.906
 5833SOL    HW217886   4.113   0.384   8.051
 5834SOL     OW17887   4.494   1.330   7.749
 5834SOL    HW117888   4.448   1.243   7.766
 5834SOL    HW217889   4.585   1.327   7.790
 5835SOL     OW17890   5.076   0.052   7.616
 5835SOL    HW117891   5.111   0.011   7.532
 5835SOL    HW217892   4.986   0.014   7.636
 5836SOL     OW17893   3.763   1.077   7.748
 5836SOL    HW117894   3.862   1.066   7.739
 5836SOL    HW217895   3.723   0.991   7.780
 5837SOL     OW17896   4.599   1.646   7.785
 5837SOL    HW117897   4.522   1.611   7.731
 5837SOL    HW217898   4.567   1.717   7.847
 5838SOL     OW17899   3.954   2.490   0.113
 5838SOL    HW117900   3.861   2.488   0.150
 5838SOL    HW217901   3.955   2.451   0.021
 5839SOL     OW17902   3.949   2.137   0.996
 5839SOL    HW117903   3.984   2.120   1.088
 5839SOL    HW217904   3.861   2.092   0.984
 5840SOL     OW17905   3.743   2.230   0.647
 5840SOL    HW117906   3.661   2.273   0.686
 5840SOL    HW217907   3.715   2.157   0.584
 5841SOL     OW17908   4.293   3.137   1.165
 5841SOL    HW117909   4.200   3.130   1.128
 5841SOL    HW217910   4.304   3.226   1.209
 5842SOL     OW17911   5.279   3.373   0.703
 5842SOL    HW117912   5.222   3.357   0.784
 5842SOL    HW217913   5.220   3.383   0.623
 5843SOL     OW17914   4.859   2.565   0.717
 5843SOL    HW117915   4.916   2.643   0.692
 5843SOL    HW217916   4.799   2.591   0.793
 5844SOL     OW17917   4.492   3.006   1.023
 5844SOL    HW117918   4.414   3.023   1.083
 5844SOL    HW217919   4.526   3.093   0.987
 5845SOL     OW17920   4.574   2.660   1.823
 5845SOL    HW117921   4.570   2.736   1.888
 5845SOL    HW217922   4.596   2.696   1.732
 5846SOL     OW17923   4.409   2.874   0.665
 5846SOL    HW117924   4.478   2.858   0.735
 5846SOL    HW217925   4.336   2.931   0.703
 5847SOL     OW17926   4.410   3.023   1.803
 5847SOL    HW117927   4.470   3.102   1.817
 5847SOL    HW217928   4.324   3.054   1.762
 5848SOL     OW17929   4.059   3.297   1.061
 5848SOL    HW117930   3.981   3.266   1.008
 5848SOL    HW217931   4.117   3.355   1.004
 5849SOL     OW17932   5.184   3.367   1.339
 5849SOL    HW117933   5.208   3.461   1.365
 5849SOL    HW217934   5.168   3.313   1.421
 5850SOL     OW17935   4.162   2.254   1.499
 5850SOL    HW117936   4.244   2.198   1.508
 5850SOL    HW217937   4.081   2.196   1.503
 5851SOL     OW17938   3.955   3.575   0.483
 5851SOL    HW117939   3.989   3.652   0.537
 5851SOL    HW217940   3.999   3.575   0.393
 5852SOL     OW17941   4.851   3.203   1.690
 5852SOL    HW117942   4.898   3.203   1.778
 5852SOL    HW217943   4.803   3.116   1.679
 5853SOL     OW17944   3.954   3.296   0.538
 5853SOL    HW117945   3.928   3.392   0.538
 5853SOL    HW217946   3.883   3.242   0.583
 5854SOL     OW17947   3.964   2.953   0.886
 5854SOL    HW117948   3.978   2.869   0.938
 5854SOL    HW217949   3.909   3.017   0.941
 5855SOL     OW17950   4.344   3.648   1.439
 5855SOL    HW117951   4.252   3.631   1.474
 5855SOL    HW217952   4.372   3.740   1.465
 5856SOL     OW17953   4.330   2.826   0.123
 5856SOL    HW117954   4.337   2.910   0.069
 5856SOL    HW217955   4.376   2.839   0.211
 5857SOL     OW17956   3.846   2.505   0.563
 5857SOL    HW117957   3.801   2.417   0.580
 5857SOL    HW217958   3.845   2.559   0.647
 5858SOL     OW17959   3.751   3.458   0.117
 5858SOL    HW117960   3.732   3.362   0.138
 5858SOL    HW217961   3.718   3.516   0.192
 5859SOL     OW17962   5.413   2.784   0.612
 5859SOL    HW117963   5.508   2.755   0.620
 5859SOL    HW217964   5.405   2.849   0.537
 5860SOL     OW17965   3.837   2.599   1.597
 5860SOL    HW117966   3.925   2.586   1.642
 5860SOL    HW217967   3.824   2.696   1.575
 5861SOL     OW17968   4.337   3.227   0.726
 5861SOL    HW117969   4.288   3.140   0.735
 5861SOL    HW217970   4.314   3.270   0.639
 5862SOL     OW17971   5.017   3.090   1.423
 5862SOL    HW117972   5.054   3.017   1.365
 5862SOL    HW217973   5.069   3.095   1.508
 5863SOL     OW17974   4.533   1.866   0.502
 5863SOL    HW117975   4.573   1.957   0.493
 5863SOL    HW217976   4.433   1.874   0.508
 5864SOL     OW17977   3.921   2.838   1.264
 5864SOL    HW117978   4.010   2.793   1.250
 5864SOL    HW217979   3.848   2.773   1.245
 5865SOL     OW17980   4.911   3.654   1.616
 5865SOL    HW117981   4.935   3.714   1.540
 5865SOL    HW217982   4.918   3.559   1.586
 5866SOL     OW17983   4.041   2.113   1.801
 5866SOL    HW117984   4.112   2.184   1.807
 5866SOL    HW217985   3.953   2.152   1.829
 5867SOL     OW17986   5.190   3.279   0.953
 5867SOL    HW117987   5.131   3.285   1.033
 5867SOL    HW217988   5.175   3.191   0.907
 5868SOL     OW17989   4.322   2.591   0.270
 5868SOL    HW117990   4.346   2.660   0.202
 5868SOL    HW217991   4.244   2.624   0.324
 5869SOL     OW17992   5.005   2.207   0.944
 5869SOL    HW117993   4.919   2.157   0.931
 5869SOL    HW217994   5.067   2.153   1.000
 5870SOL     OW17995   4.531   2.467   1.465
 5870SOL    HW117996   4.484   2.464   1.554
 5870SOL    HW217997   4.480   2.412   1.399
 5871SOL     OW17998   5.118   2.331   1.674
 5871SOL    HW117999   5.098   2.374   1.762
 5871SOL    HW218000   5.196   2.269   1.683
 5872SOL     OW18001   4.697   2.752   1.572
 5872SOL    HW118002   4.743   2.668   1.543
 5872SOL    HW218003   4.641   2.786   1.497
 5873SOL     OW18004   4.715   2.272   1.242
 5873SOL    HW118005   4.638   2.306   1.296
 5873SOL    HW218006   4.681   2.221   1.163
 5874SOL     OW18007   4.765   2.563   0.429
 5874SOL    HW118008   4.791   2.559   0.525
 5874SOL    HW218009   4.680   2.512   0.415
 5875SOL     OW18010   3.800   2.673   0.789
 5875SOL    HW118011   3.899   2.661   0.798
 5875SOL    HW218012   3.776   2.768   0.810
 5876SOL     OW18013   3.854   3.683   1.571
 5876SOL    HW118014   3.844   3.668   1.670
 5876SOL    HW218015   3.768   3.719   1.535
 5877SOL     OW18016   4.589   2.210   0.195
 5877SOL    HW118017   4.648   2.273   0.146
 5877SOL    HW218018   4.608   2.116   0.166
 5878SOL     OW18019   5.086   3.006   0.545
 5878SOL    HW118020   5.169   2.977   0.497
 5878SOL    HW218021   5.037   3.073   0.489
 5879SOL     OW18022   4.274   2.058   0.885
 5879SOL    HW118023   4.269   2.053   0.985
 5879SOL    HW218024   4.276   2.154   0.856
 5880SOL     OW18025   4.732   3.318   0.477
 5880SOL    HW118026   4.686   3.390   0.425
 5880SOL    HW218027   4.728   3.338   0.575
 5881SOL     OW18028   4.075   3.663   0.853
 5881SOL    HW118029   4.125   3.577   0.859
 5881SOL    HW218030   4.140   3.740   0.850
 5882SOL     OW18031   4.951   3.412   1.506
 5882SOL    HW118032   4.957   3.335   1.570
 5882SOL    HW218033   4.899   3.386   1.426
 5883SOL     OW18034   4.045   2.805   0.242
 5883SOL    HW118035   4.127   2.844   0.200
 5883SOL    HW218036   4.018   2.723   0.193
 5884SOL     OW18037   4.185   3.128   1.727
 5884SOL    HW118038   4.135   3.129   1.641
 5884SOL    HW218039   4.122   3.110   1.803
 5885SOL     OW18040   4.835   3.638   0.237
 5885SOL    HW118041   4.775   3.576   0.287
 5885SOL    HW218042   4.866   3.594   0.152
 5886SOL     OW18043   3.926   2.147   1.498
 5886SOL    HW118044   3.846   2.207   1.485
 5886SOL    HW218045   3.916   2.098   1.584
 5887SOL     OW18046   4.188   3.605   0.323
 5887SOL    HW118047   4.221   3.644   0.409
 5887SOL    HW218048   4.264   3.598   0.258
 5888SOL     OW18049   5.124   1.969   0.426
 5888SOL    HW118050   5.100   1.932   0.336
 5888SOL    HW218051   5.223   1.985   0.430
 5889SOL     OW18052   3.973   3.647   1.241
 5889SOL    HW118053   4.030   3.582   1.291
 5889SOL    HW218054   3.957   3.614   1.148
 5890SOL     OW18055   4.664   3.560   0.904
 5890SOL    HW118056   4.744   3.503   0.925
 5890SOL    HW218057   4.615   3.520   0.827
 5891SOL     OW18058   4.106   2.562   0.480
 5891SOL    HW118059   4.151   2.472   0.477
 5891SOL    HW218060   4.012   2.551   0.513
 5892SOL     OW18061   4.338   1.984   0.117
 5892SOL    HW118062   4.436   1.962   0.124
 5892SOL    HW218063   4.307   1.967   0.024
 5893SOL     OW18064   4.505   2.126   1.749
 5893SOL    HW118065   4.572   2.065   1.792
 5893SOL    HW218066   4.432   2.145   1.814
 5894SOL     OW18067   4.612   3.376   1.195
 5894SOL    HW118068   4.589   3.351   1.101
 5894SOL    HW218069   4.673   3.307   1.234
 5895SOL     OW18070   5.075   2.452   1.433
 5895SOL    HW118071   5.103   2.409   1.518
 5895SOL    HW218072   5.100   2.548   1.434
 5896SOL     OW18073   4.527   3.264   0.924
 5896SOL    HW118074   4.617   3.278   0.882
 5896SOL    HW218075   4.456   3.266   0.853
 5897SOL     OW18076   4.646   2.365   0.899
 5897SOL    HW118077   4.621   2.356   0.803
 5897SOL    HW218078   4.694   2.283   0.930
 5898SOL     OW18079   4.263   1.926   0.512
 5898SOL    HW118080   4.182   1.927   0.570
 5898SOL    HW218081   4.266   2.009   0.457
 5899SOL     OW18082   5.158   3.050   0.041
 5899SOL    HW118083   5.190   2.974   0.098
 5899SOL    HW218084   5.066   3.077   0.071
 5900SOL     OW18085   4.021   1.897   0.171
 5900SOL    HW118086   4.070   1.981   0.150
 5900SOL    HW218087   4.083   1.832   0.216
 5901SOL     OW18088   4.659   2.098   0.480
 5901SOL    HW118089   4.611   2.139   0.402
 5901SOL    HW218090   4.758   2.096   0.461
 5902SOL     OW18091   4.800   2.545   1.464
 5902SOL    HW118092   4.720   2.484   1.467
 5902SOL    HW218093   4.881   2.492   1.440
 5903SOL     OW18094   4.951   3.432   0.793
 5903SOL    HW118095   4.972   3.506   0.728
 5903SOL    HW218096   5.019   3.432   0.866
 5904SOL     OW18097   4.183   3.014   0.741
 5904SOL    HW118098   4.112   2.987   0.806
 5904SOL    HW218099   4.157   2.986   0.648
 5905SOL     OW18100   4.995   3.659   0.591
 5905SOL    HW118101   5.039   3.723   0.527
 5905SOL    HW218102   4.945   3.711   0.661
 5906SOL     OW18103   4.756   2.411   0.016
 5906SOL    HW118104   4.715   2.493  -0.023
 5906SOL    HW218105   4.820   2.437   0.089
 5907SOL     OW18106   3.802   2.418   1.386
 5907SOL    HW118107   3.894   2.417   1.345
 5907SOL    HW218108   3.796   2.492   1.453
 5908SOL     OW18109   4.285   2.084   1.147
 5908SOL    HW118110   4.323   2.000   1.184
 5908SOL    HW218111   4.197   2.103   1.191
 5909SOL     OW18112   4.590   2.316   0.642
 5909SOL    HW118113   4.558   2.388   0.580
 5909SOL    HW218114   4.614   2.235   0.589
 5910SOL     OW18115   4.741   1.901   0.753
 5910SOL    HW118116   4.669   1.906   0.684
 5910SOL    HW218117   4.717   1.832   0.822
 5911SOL     OW18118   5.153   3.035   0.867
 5911SOL    HW118119   5.098   2.951   0.860
 5911SOL    HW218120   5.179   3.064   0.775
 5912SOL     OW18121   4.212   3.247   0.174
 5912SOL    HW118122   4.125   3.232   0.221
 5912SOL    HW218123   4.195   3.273   0.079
 5913SOL     OW18124   5.114   2.437   0.078
 5913SOL    HW118125   5.060   2.416   0.159
 5913SOL    HW218126   5.205   2.396   0.087
 5914SOL     OW18127   4.251   2.118   0.328
 5914SOL    HW118128   4.278   2.059   0.253
 5914SOL    HW218129   4.251   2.213   0.297
 5915SOL     OW18130   4.788   3.209   1.340
 5915SOL    HW118131   4.708   3.186   1.395
 5915SOL    HW218132   4.871   3.183   1.389
 5916SOL     OW18133   5.316   3.491   1.625
 5916SOL    HW118134   5.343   3.525   1.535
 5916SOL    HW218135   5.395   3.453   1.671
 5917SOL     OW18136   4.835   3.057   1.100
 5917SOL    HW118137   4.795   3.101   1.181
 5917SOL    HW218138   4.794   3.094   1.017
 5918SOL     OW18139   4.639   1.951   1.402
 5918SOL    HW118140   4.664   1.931   1.307
 5918SOL    HW218141   4.711   2.007   1.444
 5919SOL     OW18142   4.704   2.978   1.719
 5919SOL    HW118143   4.605   2.984   1.729
 5919SOL    HW218144   4.727   2.898   1.663
 5920SOL     OW18145   4.429   2.912   0.368
 5920SOL    HW118146   4.415   2.919   0.467
 5920SOL    HW218147   4.513   2.861   0.350
 5921SOL     OW18148   4.134   2.675   1.251
 5921SOL    HW118149   4.220   2.687   1.301
 5921SOL    HW218150   4.092   2.588   1.278
 5922SOL     OW18151   4.998   2.248   1.262
 5922SOL    HW118152   5.019   2.322   1.326
 5922SOL    HW218153   4.909   2.265   1.219
 5923SOL     OW18154   3.788   3.426   1.331
 5923SOL    HW118155   3.742   3.508   1.297
 5923SOL    HW218156   3.886   3.445   1.340
 5924SOL     OW18157   4.091   2.962   0.501
 5924SOL    HW118158   4.084   3.045   0.445
 5924SOL    HW218159   4.095   2.882   0.441
 5925SOL     OW18160   4.290   2.399   0.865
 5925SOL    HW118161   4.302   2.465   0.791
 5925SOL    HW218162   4.336   2.433   0.948
 5926SOL     OW18163   4.976   3.210   0.388
 5926SOL    HW118164   5.026   3.287   0.428
 5926SOL    HW218165   4.881   3.212   0.420
 5927SOL     OW18166   4.996   3.307   1.142
 5927SOL    HW118167   5.043   3.320   1.229
 5927SOL    HW218168   4.930   3.233   1.151
 5928SOL     OW18169   4.078   3.372   1.329
 5928SOL    HW118170   4.057   3.328   1.242
 5928SOL    HW218171   4.175   3.398   1.332
 5929SOL     OW18172   4.126   2.613   1.598
 5929SOL    HW118173   4.194   2.668   1.551
 5929SOL    HW218174   4.166   2.525   1.625
 5930SOL     OW18175   4.737   1.967   1.770
 5930SOL    HW118176   4.743   2.052   1.718
 5930SOL    HW218177   4.769   1.891   1.713
 5931SOL     OW18178   4.228   1.912   1.740
 5931SOL    HW118179   4.186   1.855   1.670
 5931SOL    HW218180   4.162   1.981   1.772
 5932SOL     OW18181   4.297   2.732   1.029
 5932SOL    HW118182   4.341   2.821   1.020
 5932SOL    HW218183   4.234   2.732   1.106
 5933SOL     OW18184   5.084   2.724   1.045
 5933SOL    HW118185   5.009   2.724   0.979
 5933SOL    HW218186   5.121   2.632   1.054
 5934SOL     OW18187   4.933   2.387   0.275
 5934SOL    HW118188   4.946   2.303   0.329
 5934SOL    HW218189   4.904   2.461   0.335
 5935SOL     OW18190   4.031   2.075   1.231
 5935SOL    HW118191   4.008   2.112   1.321
 5935SOL    HW218192   4.001   1.980   1.225
 5936SOL     OW18193   3.761   3.172   1.282
 5936SOL    HW118194   3.814   3.123   1.350
 5936SOL    HW218195   3.783   3.270   1.287
 5937SOL     OW18196   4.456   2.496   1.064
 5937SOL    HW118197   4.515   2.470   0.988
 5937SOL    HW218198   4.428   2.592   1.053
 5938SOL     OW18199   4.031   1.925   0.618
 5938SOL    HW118200   4.020   2.019   0.651
 5938SOL    HW218201   4.026   1.862   0.695
 5939SOL     OW18202   5.346   2.229   0.374
 5939SOL    HW118203   5.348   2.153   0.438
 5939SOL    HW218204   5.298   2.306   0.414
 5940SOL     OW18205   4.747   2.628   0.966
 5940SOL    HW118206   4.762   2.649   1.062
 5940SOL    HW218207   4.717   2.533   0.957
 5941SOL     OW18208   4.704   3.435   1.700
 5941SOL    HW118209   4.684   3.479   1.612
 5941SOL    HW218210   4.743   3.344   1.684
 5942SOL     OW18211   4.074   2.760   1.804
 5942SOL    HW118212   4.150   2.804   1.852
 5942SOL    HW218213   4.109   2.713   1.722
 5943SOL     OW18214   5.027   2.700   0.042
 5943SOL    HW118215   5.061   2.607   0.057
 5943SOL    HW218216   5.045   2.727  -0.053
 5944SOL     OW18217   4.792   3.195   0.849
 5944SOL    HW118218   4.799   3.111   0.794
 5944SOL    HW218219   4.854   3.264   0.813
 5945SOL     OW18220   4.043   2.672   0.949
 5945SOL    HW118221   4.136   2.708   0.954
 5945SOL    HW218222   4.037   2.587   1.001
 5946SOL     OW18223   4.063   2.371   1.006
 5946SOL    HW118224   4.011   2.288   0.989
 5946SOL    HW218225   4.140   2.376   0.942
 5947SOL     OW18226   4.862   2.242   1.678
 5947SOL    HW118227   4.817   2.305   1.742
 5947SOL    HW218228   4.955   2.273   1.661
 5948SOL     OW18229   4.884   2.069   1.477
 5948SOL    HW118230   4.884   2.133   1.554
 5948SOL    HW218231   4.912   2.117   1.394
 5949SOL     OW18232   3.732   3.188   0.200
 5949SOL    HW118233   3.639   3.209   0.169
 5949SOL    HW218234   3.742   3.089   0.213
 5950SOL     OW18235   3.812   3.663   0.927
 5950SOL    HW118236   3.770   3.577   0.900
 5950SOL    HW218237   3.906   3.666   0.893
 5951SOL     OW18238   4.228   3.430   0.910
 5951SOL    HW118239   4.294   3.504   0.919
 5951SOL    HW218240   4.272   3.351   0.868
 5952SOL     OW18241   4.726   2.658   1.238
 5952SOL    HW118242   4.767   2.626   1.324
 5952SOL    HW218243   4.630   2.631   1.235
 5953SOL     OW18244   3.764   2.406   1.114
 5953SOL    HW118245   3.849   2.373   1.073
 5953SOL    HW218246   3.777   2.421   1.212
 5954SOL     OW18247   3.913   2.382   1.722
 5954SOL    HW118248   3.972   2.342   1.652
 5954SOL    HW218249   3.855   2.453   1.681
 5955SOL     OW18250   5.093   2.812   1.660
 5955SOL    HW118251   5.132   2.901   1.680
 5955SOL    HW218252   5.103   2.792   1.563
 5956SOL     OW18253   4.539   2.434   0.325
 5956SOL    HW118254   4.546   2.345   0.279
 5956SOL    HW218255   4.445   2.468   0.317
 5957SOL     OW18256   3.976   3.426   1.744
 5957SOL    HW118257   3.946   3.483   1.820
 5957SOL    HW218258   3.969   3.329   1.770
 5958SOL     OW18259   4.395   2.326   1.269
 5958SOL    HW118260   4.361   2.237   1.239
 5958SOL    HW218261   4.421   2.380   1.189
 5959SOL     OW18262   4.654   3.540   1.465
 5959SOL    HW118263   4.630   3.522   1.370
 5959SOL    HW218264   4.684   3.634   1.475
 5960SOL     OW18265   4.197   2.362   0.191
 5960SOL    HW118266   4.258   2.442   0.195
 5960SOL    HW218267   4.102   2.393   0.198
 5961SOL     OW18268   3.883   2.999   1.466
 5961SOL    HW118269   3.905   2.938   1.542
 5961SOL    HW218270   3.893   2.950   1.380
 5962SOL     OW18271   5.071   2.921   1.234
 5962SOL    HW118272   5.095   2.858   1.160
 5962SOL    HW218273   4.981   2.961   1.216
 5963SOL     OW18274   5.026   2.717   0.309
 5963SOL    HW118275   4.940   2.686   0.351
 5963SOL    HW218276   5.022   2.703   0.210
 5964SOL     OW18277   4.976   3.593   1.128
 5964SOL    HW118278   5.060   3.598   1.074
 5964SOL    HW218279   4.953   3.497   1.146
 5965SOL     OW18280   3.807   3.120   1.022
 5965SOL    HW118281   3.802   3.119   1.122
 5965SOL    HW218282   3.724   3.079   0.984
 5966SOL     OW18283   4.412   3.524   1.716
 5966SOL    HW118284   4.356   3.605   1.725
 5966SOL    HW218285   4.464   3.528   1.630
 5967SOL     OW18286   4.627   1.948   0.133
 5967SOL    HW118287   4.678   1.949   0.047
 5967SOL    HW218288   4.683   1.906   0.204
 5968SOL     OW18289   5.450   1.997   0.523
 5968SOL    HW118290   5.523   1.980   0.456
 5968SOL    HW218291   5.419   1.910   0.561
 5969SOL     OW18292   5.112   3.435   0.477
 5969SOL    HW118293   5.179   3.447   0.403
 5969SOL    HW218294   5.072   3.524   0.500
 5970SOL     OW18295   3.854   3.656   1.851
 5970SOL    HW118296   3.813   3.582   1.904
 5970SOL    HW218297   3.918   3.707   1.909
 5971SOL     OW18298   5.004   2.789   0.672
 5971SOL    HW118299   5.064   2.708   0.674
 5971SOL    HW218300   5.044   2.858   0.612
 5972SOL     OW18301   4.554   3.135   1.422
 5972SOL    HW118302   4.549   3.168   1.517
 5972SOL    HW218303   4.468   3.154   1.376
 5973SOL     OW18304   4.396   3.478   0.154
 5973SOL    HW118305   4.405   3.488   0.055
 5973SOL    HW218306   4.356   3.389   0.175
 5974SOL     OW18307   3.987   2.188   0.720
 5974SOL    HW118308   3.908   2.239   0.686
 5974SOL    HW218309   3.978   2.173   0.818
 5975SOL     OW18310   4.918   3.474   0.031
 5975SOL    HW118311   4.924   3.381   0.068
 5975SOL    HW218312   4.859   3.474  -0.049
 5976SOL     OW18313   4.546   2.864   1.372
 5976SOL    HW118314   4.586   2.863   1.280
 5976SOL    HW218315   4.556   2.956   1.412
 5977SOL     OW18316   4.640   2.772   0.291
 5977SOL    HW118317   4.703   2.810   0.223
 5977SOL    HW218318   4.680   2.689   0.330
 5978SOL     OW18319   4.096   3.150   1.490
 5978SOL    HW118320   4.083   3.243   1.456
 5978SOL    HW218321   4.012   3.098   1.477
 5979SOL     OW18322   4.763   2.960   0.696
 5979SOL    HW118323   4.693   2.913   0.750
 5979SOL    HW218324   4.822   2.892   0.653
 5980SOL     OW18325   4.738   2.098   0.971
 5980SOL    HW118326   4.730   2.062   0.878
 5980SOL    HW218327   4.736   2.022   1.036
 5981SOL     OW18328   4.314   3.349   0.491
 5981SOL    HW118329   4.356   3.291   0.421
 5981SOL    HW218330   4.270   3.428   0.447
 5982SOL     OW18331   3.979   3.210   0.290
 5982SOL    HW118332   3.883   3.211   0.263
 5982SOL    HW218333   3.991   3.263   0.374
 5983SOL     OW18334   3.829   2.875   1.726
 5983SOL    HW118335   3.752   2.842   1.780
 5983SOL    HW218336   3.914   2.845   1.768
 5984SOL     OW18337   4.396   2.065   1.489
 5984SOL    HW118338   4.486   2.049   1.449
 5984SOL    HW218339   4.404   2.070   1.588
 5985SOL     OW18340   3.799   2.207   0.033
 5985SOL    HW118341   3.707   2.179   0.004
 5985SOL    HW218342   3.830   2.284  -0.023
 5986SOL     OW18343   5.164   2.718   1.398
 5986SOL    HW118344   5.107   2.770   1.335
 5986SOL    HW218345   5.260   2.730   1.374
 5987SOL     OW18346   3.796   2.028   0.318
 5987SOL    HW118347   3.779   2.111   0.264
 5987SOL    HW218348   3.886   1.991   0.296
 5988SOL     OW18349   4.907   3.197   0.119
 5988SOL    HW118350   4.808   3.186   0.121
 5988SOL    HW218351   4.941   3.212   0.212
 5989SOL     OW18352   4.337   2.704   1.431
 5989SOL    HW118353   4.393   2.785   1.414
 5989SOL    HW218354   4.396   2.624   1.434
 5990SOL     OW18355   4.440   2.427   1.708
 5990SOL    HW118356   4.459   2.492   1.782
 5990SOL    HW218357   4.500   2.347   1.717
 5991SOL     OW18358   5.174   3.082   1.633
 5991SOL    HW118359   5.165   3.072   1.732
 5991SOL    HW218360   5.270   3.075   1.607
 5992SOL     OW18361   4.114   3.603   1.560
 5992SOL    HW118362   4.023   3.644   1.558
 5992SOL    HW218363   4.107   3.509   1.592
 5993SOL     OW18364   4.949   2.187   0.449
 5993SOL    HW118365   5.014   2.113   0.438
 5993SOL    HW218366   4.969   2.237   0.533
 5994SOL     OW18367   4.318   2.607   0.652
 5994SOL    HW118368   4.368   2.692   0.633
 5994SOL    HW218369   4.230   2.609   0.604
 5995SOL     OW18370   4.583   3.236   0.016
 5995SOL    HW118371   4.537   3.251   0.104
 5995SOL    HW218372   4.627   3.321  -0.014
 5996SOL     OW18373   4.385   3.652   0.953
 5996SOL    HW118374   4.339   3.740   0.940
 5996SOL    HW218375   4.484   3.664   0.946
 5997SOL     OW18376   4.583   2.818   0.861
 5997SOL    HW118377   4.637   2.749   0.909
 5997SOL    HW218378   4.551   2.887   0.927
 5998SOL     OW18379   4.807   2.846   0.087
 5998SOL    HW118380   4.784   2.899   0.005
 5998SOL    HW218381   4.888   2.790   0.068
 5999SOL     OW18382   3.945   3.176   1.844
 5999SOL    HW118383   3.880   3.103   1.823
 5999SOL    HW218384   3.949   3.190   1.942
 6000SOL     OW18385   3.803   3.102   0.653
 6000SOL    HW118386   3.802   3.055   0.741
 6000SOL    HW218387   3.885   3.074   0.602
 6001SOL     OW18388   4.396   3.253   1.624
 6001SOL    HW118389   4.318   3.203   1.662
 6001SOL    HW218390   4.393   3.348   1.655
 6002SOL     OW18391   4.152   2.286   0.520
 6002SOL    HW118392   4.182   2.214   0.458
 6002SOL    HW218393   4.113   2.246   0.603
 6003SOL     OW18394   5.429   3.349   1.104
 6003SOL    HW118395   5.336   3.324   1.077
 6003SOL    HW218396   5.455   3.299   1.186
 6004SOL     OW18397   4.041   2.409   1.280
 6004SOL    HW118398   4.079   2.350   1.352
 6004SOL    HW218399   4.081   2.383   1.192
 6005SOL     OW18400   4.536   3.448   0.687
 6005SOL    HW118401   4.568   3.458   0.593
 6005SOL    HW218402   4.457   3.386   0.689
 6006SOL     OW18403   5.148   2.076   1.112
 6006SOL    HW118404   5.200   2.011   1.167
 6006SOL    HW218405   5.099   2.139   1.173
 6007SOL     OW18406   4.725   1.896   1.154
 6007SOL    HW118407   4.662   1.824   1.123
 6007SOL    HW218408   4.818   1.860   1.154
 6008SOL     OW18409   4.494   3.192   0.301
 6008SOL    HW118410   4.448   3.105   0.318
 6008SOL    HW218411   4.585   3.189   0.342
 6009SOL     OW18412   4.342   3.429   1.284
 6009SOL    HW118413   4.337   3.511   1.341
 6009SOL    HW218414   4.431   3.426   1.239
 6010SOL     OW18415   5.076   1.914   0.168
 6010SOL    HW118416   5.111   1.873   0.084
 6010SOL    HW218417   4.986   1.876   0.188
 6011SOL     OW18418   5.024   2.315   0.691
 6011SOL    HW118419   4.965   2.395   0.695
 6011SOL    HW218420   5.039   2.280   0.784
 6012SOL     OW18421   5.317   2.083   0.882
 6012SOL    HW118422   5.233   2.082   0.936
 6012SOL    HW218423   5.319   2.166   0.826
 6013SOL     OW18424   3.763   2.939   0.300
 6013SOL    HW118425   3.862   2.928   0.291
 6013SOL    HW218426   3.723   2.853   0.332
 6014SOL     OW18427   4.599   3.508   0.337
 6014SOL    HW118428   4.522   3.473   0.283
 6014SOL    HW218429   4.567   3.579   0.399
 6015SOL     OW18430   3.954   2.490   1.975
 6015SOL    HW118431   3.861   2.488   2.012
 6015SOL    HW218432   3.955   2.451   1.883
 6016SOL     OW18433   3.949   2.137   2.858
 6016SOL    HW118434   3.984   2.120   2.950
 6016SOL    HW218435   3.861   2.092   2.846
 6017SOL     OW18436   3.743   2.230   2.509
 6017SOL    HW118437   3.661   2.273   2.548
 6017SOL    HW218438   3.715   2.157   2.446
 6018SOL     OW18439   4.293   3.137   3.027
 6018SOL    HW118440   4.200   3.130   2.990
 6018SOL    HW218441   4.304   3.226   3.071
 6019SOL     OW18442   5.279   3.373   2.565
 6019SOL    HW118443   5.222   3.357   2.646
 6019SOL    HW218444   5.220   3.383   2.485
 6020SOL     OW18445   4.859   2.565   2.579
 6020SOL    HW118446   4.916   2.643   2.554
 6020SOL    HW218447   4.799   2.591   2.655
 6021SOL     OW18448   4.492   3.006   2.885
 6021SOL    HW118449   4.414   3.023   2.945
 6021SOL    HW218450   4.526   3.093   2.849
 6022SOL     OW18451   4.574   2.660   3.685
 6022SOL    HW118452   4.570   2.736   3.750
 6022SOL    HW218453   4.596   2.696   3.594
 6023SOL     OW18454   4.409   2.874   2.527
 6023SOL    HW118455   4.478   2.858   2.597
 6023SOL    HW218456   4.336   2.931   2.565
 6024SOL     OW18457   4.410   3.023   3.665
 6024SOL    HW118458   4.470   3.102   3.679
 6024SOL    HW218459   4.324   3.054   3.624
 6025SOL     OW18460   4.059   3.297   2.923
 6025SOL    HW118461   3.981   3.266   2.870
 6025SOL    HW218462   4.117   3.355   2.866
 6026SOL     OW18463   5.184   3.367   3.201
 6026SOL    HW118464   5.208   3.461   3.227
 6026SOL    HW218465   5.168   3.313   3.283
 6027SOL     OW18466   4.162   2.254   3.361
 6027SOL    HW118467   4.244   2.198   3.370
 6027SOL    HW218468   4.081   2.196   3.365
 6028SOL     OW18469   3.955   3.575   2.345
 6028SOL    HW118470   3.989   3.652   2.399
 6028SOL    HW218471   3.999   3.575   2.255
 6029SOL     OW18472   4.851   3.203   3.552
 6029SOL    HW118473   4.898   3.203   3.640
 6029SOL    HW218474   4.803   3.116   3.541
 6030SOL     OW18475   3.954   3.296   2.400
 6030SOL    HW118476   3.928   3.392   2.400
 6030SOL    HW218477   3.883   3.242   2.445
 6031SOL     OW18478   3.964   2.953   2.748
 6031SOL    HW118479   3.978   2.869   2.800
 6031SOL    HW218480   3.909   3.017   2.803
 6032SOL     OW18481   4.344   3.648   3.301
 6032SOL    HW118482   4.252   3.631   3.336
 6032SOL    HW218483   4.372   3.740   3.327
 6033SOL     OW18484   4.330   2.826   1.985
 6033SOL    HW118485   4.337   2.910   1.931
 6033SOL    HW218486   4.376   2.839   2.073
 6034SOL     OW18487   3.846   2.505   2.425
 6034SOL    HW118488   3.801   2.417   2.442
 6034SOL    HW218489   3.845   2.559   2.509
 6035SOL     OW18490   3.751   3.458   1.979
 6035SOL    HW118491   3.732   3.362   2.000
 6035SOL    HW218492   3.718   3.516   2.054
 6036SOL     OW18493   5.413   2.784   2.474
 6036SOL    HW118494   5.508   2.755   2.482
 6036SOL    HW218495   5.405   2.849   2.399
 6037SOL     OW18496   3.837   2.599   3.459
 6037SOL    HW118497   3.925   2.586   3.504
 6037SOL    HW218498   3.824   2.696   3.437
 6038SOL     OW18499   4.337   3.227   2.588
 6038SOL    HW118500   4.288   3.140   2.597
 6038SOL    HW218501   4.314   3.270   2.501
 6039SOL     OW18502   5.017   3.090   3.285
 6039SOL    HW118503   5.054   3.017   3.227
 6039SOL    HW218504   5.069   3.095   3.370
 6040SOL     OW18505   4.533   1.866   2.364
 6040SOL    HW118506   4.573   1.957   2.355
 6040SOL    HW218507   4.433   1.874   2.370
 6041SOL     OW18508   3.921   2.838   3.126
 6041SOL    HW118509   4.010   2.793   3.112
 6041SOL    HW218510   3.848   2.773   3.107
 6042SOL     OW18511   4.911   3.654   3.478
 6042SOL    HW118512   4.935   3.714   3.402
 6042SOL    HW218513   4.918   3.559   3.448
 6043SOL     OW18514   4.041   2.113   3.663
 6043SOL    HW118515   4.112   2.184   3.669
 6043SOL    HW218516   3.953   2.152   3.691
 6044SOL     OW18517   5.190   3.279   2.815
 6044SOL    HW118518   5.131   3.285   2.895
 6044SOL    HW218519   5.175   3.191   2.769
 6045SOL     OW18520   4.322   2.591   2.132
 6045SOL    HW118521   4.346   2.660   2.064
 6045SOL    HW218522   4.244   2.624   2.186
 6046SOL     OW18523   5.005   2.207   2.806
 6046SOL    HW118524   4.919   2.157   2.793
 6046SOL    HW218525   5.067   2.153   2.862
 6047SOL     OW18526   4.531   2.467   3.327
 6047SOL    HW118527   4.484   2.464   3.416
 6047SOL    HW218528   4.480   2.412   3.261
 6048SOL     OW18529   5.118   2.331   3.536
 6048SOL    HW118530   5.098   2.374   3.624
 6048SOL    HW218531   5.196   2.269   3.545
 6049SOL     OW18532   4.697   2.752   3.434
 6049SOL    HW118533   4.743   2.668   3.405
 6049SOL    HW218534   4.641   2.786   3.359
 6050SOL     OW18535   4.715   2.272   3.104
 6050SOL    HW118536   4.638   2.306   3.158
 6050SOL    HW218537   4.681   2.221   3.025
 6051SOL     OW18538   4.765   2.563   2.291
 6051SOL    HW118539   4.791   2.559   2.387
 6051SOL    HW218540   4.680   2.512   2.277
 6052SOL     OW18541   3.800   2.673   2.651
 6052SOL    HW118542   3.899   2.661   2.660
 6052SOL    HW218543   3.776   2.768   2.672
 6053SOL     OW18544   3.854   3.683   3.433
 6053SOL    HW118545   3.844   3.668   3.532
 6053SOL    HW218546   3.768   3.719   3.397
 6054SOL     OW18547   4.589   2.210   2.057
 6054SOL    HW118548   4.648   2.273   2.008
 6054SOL    HW218549   4.608   2.116   2.028
 6055SOL     OW18550   5.086   3.006   2.407
 6055SOL    HW118551   5.169   2.977   2.359
 6055SOL    HW218552   5.037   3.073   2.351
 6056SOL     OW18553   4.274   2.058   2.747
 6056SOL    HW118554   4.269   2.053   2.847
 6056SOL    HW218555   4.276   2.154   2.718
 6057SOL     OW18556   4.732   3.318   2.339
 6057SOL    HW118557   4.686   3.390   2.287
 6057SOL    HW218558   4.728   3.338   2.437
 6058SOL     OW18559   4.075   3.663   2.715
 6058SOL    HW118560   4.125   3.577   2.721
 6058SOL    HW218561   4.140   3.740   2.712
 6059SOL     OW18562   4.951   3.412   3.368
 6059SOL    HW118563   4.957   3.335   3.432
 6059SOL    HW218564   4.899   3.386   3.288
 6060SOL     OW18565   4.045   2.805   2.104
 6060SOL    HW118566   4.127   2.844   2.062
 6060SOL    HW218567   4.018   2.723   2.055
 6061SOL     OW18568   4.185   3.128   3.589
 6061SOL    HW118569   4.135   3.129   3.503
 6061SOL    HW218570   4.122   3.110   3.665
 6062SOL     OW18571   4.835   3.638   2.099
 6062SOL    HW118572   4.775   3.576   2.149
 6062SOL    HW218573   4.866   3.594   2.014
 6063SOL     OW18574   3.926   2.147   3.360
 6063SOL    HW118575   3.846   2.207   3.347
 6063SOL    HW218576   3.916   2.098   3.446
 6064SOL     OW18577   4.188   3.605   2.185
 6064SOL    HW118578   4.221   3.644   2.271
 6064SOL    HW218579   4.264   3.598   2.120
 6065SOL     OW18580   5.124   1.969   2.288
 6065SOL    HW118581   5.100   1.932   2.198
 6065SOL    HW218582   5.223   1.985   2.292
 6066SOL     OW18583   3.973   3.647   3.103
 6066SOL    HW118584   4.030   3.582   3.153
 6066SOL    HW218585   3.957   3.614   3.010
 6067SOL     OW18586   4.664   3.560   2.766
 6067SOL    HW118587   4.744   3.503   2.787
 6067SOL    HW218588   4.615   3.520   2.689
 6068SOL     OW18589   4.106   2.562   2.342
 6068SOL    HW118590   4.151   2.472   2.339
 6068SOL    HW218591   4.012   2.551   2.375
 6069SOL     OW18592   4.338   1.984   1.979
 6069SOL    HW118593   4.436   1.962   1.986
 6069SOL    HW218594   4.307   1.967   1.886
 6070SOL     OW18595   4.505   2.126   3.611
 6070SOL    HW118596   4.572   2.065   3.654
 6070SOL    HW218597   4.432   2.145   3.676
 6071SOL     OW18598   4.612   3.376   3.057
 6071SOL    HW118599   4.589   3.351   2.963
 6071SOL    HW218600   4.673   3.307   3.096
 6072SOL     OW18601   5.075   2.452   3.295
 6072SOL    HW118602   5.103   2.409   3.380
 6072SOL    HW218603   5.100   2.548   3.296
 6073SOL     OW18604   4.527   3.264   2.786
 6073SOL    HW118605   4.617   3.278   2.744
 6073SOL    HW218606   4.456   3.266   2.715
 6074SOL     OW18607   4.646   2.365   2.761
 6074SOL    HW118608   4.621   2.356   2.665
 6074SOL    HW218609   4.694   2.283   2.792
 6075SOL     OW18610   4.263   1.926   2.374
 6075SOL    HW118611   4.182   1.927   2.432
 6075SOL    HW218612   4.266   2.009   2.319
 6076SOL     OW18613   5.158   3.050   1.903
 6076SOL    HW118614   5.190   2.974   1.960
 6076SOL    HW218615   5.066   3.077   1.933
 6077SOL     OW18616   4.021   1.897   2.033
 6077SOL    HW118617   4.070   1.981   2.012
 6077SOL    HW218618   4.083   1.832   2.078
 6078SOL     OW18619   4.659   2.098   2.342
 6078SOL    HW118620   4.611   2.139   2.264
 6078SOL    HW218621   4.758   2.096   2.323
 6079SOL     OW18622   4.800   2.545   3.326
 6079SOL    HW118623   4.720   2.484   3.329
 6079SOL    HW218624   4.881   2.492   3.302
 6080SOL     OW18625   4.951   3.432   2.655
 6080SOL    HW118626   4.972   3.506   2.590
 6080SOL    HW218627   5.019   3.432   2.728
 6081SOL     OW18628   4.183   3.014   2.603
 6081SOL    HW118629   4.112   2.987   2.668
 6081SOL    HW218630   4.157   2.986   2.510
 6082SOL     OW18631   4.995   3.659   2.453
 6082SOL    HW118632   5.039   3.723   2.389
 6082SOL    HW218633   4.945   3.711   2.523
 6083SOL     OW18634   4.756   2.411   1.878
 6083SOL    HW118635   4.715   2.493   1.839
 6083SOL    HW218636   4.820   2.437   1.951
 6084SOL     OW18637   3.802   2.418   3.248
 6084SOL    HW118638   3.894   2.417   3.207
 6084SOL    HW218639   3.796   2.492   3.315
 6085SOL     OW18640   4.285   2.084   3.009
 6085SOL    HW118641   4.323   2.000   3.046
 6085SOL    HW218642   4.197   2.103   3.053
 6086SOL     OW18643   4.590   2.316   2.504
 6086SOL    HW118644   4.558   2.388   2.442
 6086SOL    HW218645   4.614   2.235   2.451
 6087SOL     OW18646   4.741   1.901   2.615
 6087SOL    HW118647   4.669   1.906   2.546
 6087SOL    HW218648   4.717   1.832   2.684
 6088SOL     OW18649   5.153   3.035   2.729
 6088SOL    HW118650   5.098   2.951   2.722
 6088SOL    HW218651   5.179   3.064   2.637
 6089SOL     OW18652   4.212   3.247   2.036
 6089SOL    HW118653   4.125   3.232   2.083
 6089SOL    HW218654   4.195   3.273   1.941
 6090SOL     OW18655   5.114   2.437   1.940
 6090SOL    HW118656   5.060   2.416   2.021
 6090SOL    HW218657   5.205   2.396   1.949
 6091SOL     OW18658   4.251   2.118   2.190
 6091SOL    HW118659   4.278   2.059   2.115
 6091SOL    HW218660   4.251   2.213   2.159
 6092SOL     OW18661   4.788   3.209   3.202
 6092SOL    HW118662   4.708   3.186   3.257
 6092SOL    HW218663   4.871   3.183   3.251
 6093SOL     OW18664   5.316   3.491   3.487
 6093SOL    HW118665   5.343   3.525   3.397
 6093SOL    HW218666   5.395   3.453   3.533
 6094SOL     OW18667   4.835   3.057   2.962
 6094SOL    HW118668   4.795   3.101   3.043
 6094SOL    HW218669   4.794   3.094   2.879
 6095SOL     OW18670   4.639   1.951   3.264
 6095SOL    HW118671   4.664   1.931   3.169
 6095SOL    HW218672   4.711   2.007   3.306
 6096SOL     OW18673   4.704   2.978   3.581
 6096SOL    HW118674   4.605   2.984   3.591
 6096SOL    HW218675   4.727   2.898   3.525
 6097SOL     OW18676   4.429   2.912   2.230
 6097SOL    HW118677   4.415   2.919   2.329
 6097SOL    HW218678   4.513   2.861   2.212
 6098SOL     OW18679   4.134   2.675   3.113
 6098SOL    HW118680   4.220   2.687   3.163
 6098SOL    HW218681   4.092   2.588   3.140
 6099SOL     OW18682   4.998   2.248   3.124
 6099SOL    HW118683   5.019   2.322   3.188
 6099SOL    HW218684   4.909   2.265   3.081
 6100SOL     OW18685   3.788   3.426   3.193
 6100SOL    HW118686   3.742   3.508   3.159
 6100SOL    HW218687   3.886   3.445   3.202
 6101SOL     OW18688   4.091   2.962   2.363
 6101SOL    HW118689   4.084   3.045   2.307
 6101SOL    HW218690   4.095   2.882   2.303
 6102SOL     OW18691   4.290   2.399   2.727
 6102SOL    HW118692   4.302   2.465   2.653
 6102SOL    HW218693   4.336   2.433   2.810
 6103SOL     OW18694   4.976   3.210   2.250
 6103SOL    HW118695   5.026   3.287   2.290
 6103SOL    HW218696   4.881   3.212   2.282
 6104SOL     OW18697   4.996   3.307   3.004
 6104SOL    HW118698   5.043   3.320   3.091
 6104SOL    HW218699   4.930   3.233   3.013
 6105SOL     OW18700   4.078   3.372   3.191
 6105SOL    HW118701   4.057   3.328   3.104
 6105SOL    HW218702   4.175   3.398   3.194
 6106SOL     OW18703   4.126   2.613   3.460
 6106SOL    HW118704   4.194   2.668   3.413
 6106SOL    HW218705   4.166   2.525   3.487
 6107SOL     OW18706   4.737   1.967   3.632
 6107SOL    HW118707   4.743   2.052   3.580
 6107SOL    HW218708   4.769   1.891   3.575
 6108SOL     OW18709   4.228   1.912   3.602
 6108SOL    HW118710   4.186   1.855   3.532
 6108SOL    HW218711   4.162   1.981   3.634
 6109SOL     OW18712   4.297   2.732   2.891
 6109SOL    HW118713   4.341   2.821   2.882
 6109SOL    HW218714   4.234   2.732   2.968
 6110SOL     OW18715   5.084   2.724   2.907
 6110SOL    HW118716   5.009   2.724   2.841
 6110SOL    HW218717   5.121   2.632   2.916
 6111SOL     OW18718   4.933   2.387   2.137
 6111SOL    HW118719   4.946   2.303   2.191
 6111SOL    HW218720   4.904   2.461   2.197
 6112SOL     OW18721   4.031   2.075   3.093
 6112SOL    HW118722   4.008   2.112   3.183
 6112SOL    HW218723   4.001   1.980   3.087
 6113SOL     OW18724   3.761   3.172   3.144
 6113SOL    HW118725   3.814   3.123   3.212
 6113SOL    HW218726   3.783   3.270   3.149
 6114SOL     OW18727   4.456   2.496   2.926
 6114SOL    HW118728   4.515   2.470   2.850
 6114SOL    HW218729   4.428   2.592   2.915
 6115SOL     OW18730   4.031   1.925   2.480
 6115SOL    HW118731   4.020   2.019   2.513
 6115SOL    HW218732   4.026   1.862   2.557
 6116SOL     OW18733   5.346   2.229   2.236
 6116SOL    HW118734   5.348   2.153   2.300
 6116SOL    HW218735   5.298   2.306   2.276
 6117SOL     OW18736   4.747   2.628   2.828
 6117SOL    HW118737   4.762   2.649   2.924
 6117SOL    HW218738   4.717   2.533   2.819
 6118SOL     OW18739   4.704   3.435   3.562
 6118SOL    HW118740   4.684   3.479   3.474
 6118SOL    HW218741   4.743   3.344   3.546
 6119SOL     OW18742   4.074   2.760   3.666
 6119SOL    HW118743   4.150   2.804   3.714
 6119SOL    HW218744   4.109   2.713   3.584
 6120SOL     OW18745   5.027   2.700   1.904
 6120SOL    HW118746   5.061   2.607   1.919
 6120SOL    HW218747   5.045   2.727   1.809
 6121SOL     OW18748   4.792   3.195   2.711
 6121SOL    HW118749   4.799   3.111   2.656
 6121SOL    HW218750   4.854   3.264   2.675
 6122SOL     OW18751   4.043   2.672   2.811
 6122SOL    HW118752   4.136   2.708   2.816
 6122SOL    HW218753   4.037   2.587   2.863
 6123SOL     OW18754   4.063   2.371   2.868
 6123SOL    HW118755   4.011   2.288   2.851
 6123SOL    HW218756   4.140   2.376   2.804
 6124SOL     OW18757   4.862   2.242   3.540
 6124SOL    HW118758   4.817   2.305   3.604
 6124SOL    HW218759   4.955   2.273   3.523
 6125SOL     OW18760   4.884   2.069   3.339
 6125SOL    HW118761   4.884   2.133   3.416
 6125SOL    HW218762   4.912   2.117   3.256
 6126SOL     OW18763   3.732   3.188   2.062
 6126SOL    HW118764   3.639   3.209   2.031
 6126SOL    HW218765   3.742   3.089   2.075
 6127SOL     OW18766   3.812   3.663   2.789
 6127SOL    HW118767   3.770   3.577   2.762
 6127SOL    HW218768   3.906   3.666   2.755
 6128SOL     OW18769   4.228   3.430   2.772
 6128SOL    HW118770   4.294   3.504   2.781
 6128SOL    HW218771   4.272   3.351   2.730
 6129SOL     OW18772   4.726   2.658   3.100
 6129SOL    HW118773   4.767   2.626   3.186
 6129SOL    HW218774   4.630   2.631   3.097
 6130SOL     OW18775   3.764   2.406   2.976
 6130SOL    HW118776   3.849   2.373   2.935
 6130SOL    HW218777   3.777   2.421   3.074
 6131SOL     OW18778   3.913   2.382   3.584
 6131SOL    HW118779   3.972   2.342   3.514
 6131SOL    HW218780   3.855   2.453   3.543
 6132SOL     OW18781   5.093   2.812   3.522
 6132SOL    HW118782   5.132   2.901   3.542
 6132SOL    HW218783   5.103   2.792   3.425
 6133SOL     OW18784   4.539   2.434   2.187
 6133SOL    HW118785   4.546   2.345   2.141
 6133SOL    HW218786   4.445   2.468   2.179
 6134SOL     OW18787   3.976   3.426   3.606
 6134SOL    HW118788   3.946   3.483   3.682
 6134SOL    HW218789   3.969   3.329   3.632
 6135SOL     OW18790   4.395   2.326   3.131
 6135SOL    HW118791   4.361   2.237   3.101
 6135SOL    HW218792   4.421   2.380   3.051
 6136SOL     OW18793   4.654   3.540   3.327
 6136SOL    HW118794   4.630   3.522   3.232
 6136SOL    HW218795   4.684   3.634   3.337
 6137SOL     OW18796   4.197   2.362   2.053
 6137SOL    HW118797   4.258   2.442   2.057
 6137SOL    HW218798   4.102   2.393   2.060
 6138SOL     OW18799   3.883   2.999   3.328
 6138SOL    HW118800   3.905   2.938   3.404
 6138SOL    HW218801   3.893   2.950   3.242
 6139SOL     OW18802   5.071   2.921   3.096
 6139SOL    HW118803   5.095   2.858   3.022
 6139SOL    HW218804   4.981   2.961   3.078
 6140SOL     OW18805   5.026   2.717   2.171
 6140SOL    HW118806   4.940   2.686   2.213
 6140SOL    HW218807   5.022   2.703   2.072
 6141SOL     OW18808   4.976   3.593   2.990
 6141SOL    HW118809   5.060   3.598   2.936
 6141SOL    HW218810   4.953   3.497   3.008
 6142SOL     OW18811   3.807   3.120   2.884
 6142SOL    HW118812   3.802   3.119   2.984
 6142SOL    HW218813   3.724   3.079   2.846
 6143SOL     OW18814   4.412   3.524   3.578
 6143SOL    HW118815   4.356   3.605   3.587
 6143SOL    HW218816   4.464   3.528   3.492
 6144SOL     OW18817   5.450   1.997   2.385
 6144SOL    HW118818   5.523   1.980   2.318
 6144SOL    HW218819   5.419   1.910   2.423
 6145SOL     OW18820   5.112   3.435   2.339
 6145SOL    HW118821   5.179   3.447   2.265
 6145SOL    HW218822   5.072   3.524   2.362
 6146SOL     OW18823   3.854   3.656   3.713
 6146SOL    HW118824   3.813   3.582   3.766
 6146SOL    HW218825   3.918   3.707   3.771
 6147SOL     OW18826   5.004   2.789   2.534
 6147SOL    HW118827   5.064   2.708   2.536
 6147SOL    HW218828   5.044   2.858   2.474
 6148SOL     OW18829   4.554   3.135   3.284
 6148SOL    HW118830   4.549   3.168   3.379
 6148SOL    HW218831   4.468   3.154   3.238
 6149SOL     OW18832   4.396   3.478   2.016
 6149SOL    HW118833   4.405   3.488   1.917
 6149SOL    HW218834   4.356   3.389   2.037
 6150SOL     OW18835   3.987   2.188   2.582
 6150SOL    HW118836   3.908   2.239   2.548
 6150SOL    HW218837   3.978   2.173   2.680
 6151SOL     OW18838   4.918   3.474   1.893
 6151SOL    HW118839   4.924   3.381   1.930
 6151SOL    HW218840   4.859   3.474   1.813
 6152SOL     OW18841   4.546   2.864   3.234
 6152SOL    HW118842   4.586   2.863   3.142
 6152SOL    HW218843   4.556   2.956   3.274
 6153SOL     OW18844   4.640   2.772   2.153
 6153SOL    HW118845   4.703   2.810   2.085
 6153SOL    HW218846   4.680   2.689   2.192
 6154SOL     OW18847   4.096   3.150   3.352
 6154SOL    HW118848   4.083   3.243   3.318
 6154SOL    HW218849   4.012   3.098   3.339
 6155SOL     OW18850   4.763   2.960   2.558
 6155SOL    HW118851   4.693   2.913   2.612
 6155SOL    HW218852   4.822   2.892   2.515
 6156SOL     OW18853   4.738   2.098   2.833
 6156SOL    HW118854   4.730   2.062   2.740
 6156SOL    HW218855   4.736   2.022   2.898
 6157SOL     OW18856   4.314   3.349   2.353
 6157SOL    HW118857   4.356   3.291   2.283
 6157SOL    HW218858   4.270   3.428   2.309
 6158SOL     OW18859   3.979   3.210   2.152
 6158SOL    HW118860   3.883   3.211   2.125
 6158SOL    HW218861   3.991   3.263   2.236
 6159SOL     OW18862   3.829   2.875   3.588
 6159SOL    HW118863   3.752   2.842   3.642
 6159SOL    HW218864   3.914   2.845   3.630
 6160SOL     OW18865   4.396   2.065   3.351
 6160SOL    HW118866   4.486   2.049   3.311
 6160SOL    HW218867   4.404   2.070   3.450
 6161SOL     OW18868   3.799   2.207   1.895
 6161SOL    HW118869   3.707   2.179   1.866
 6161SOL    HW218870   3.830   2.284   1.839
 6162SOL     OW18871   5.164   2.718   3.260
 6162SOL    HW118872   5.107   2.770   3.197
 6162SOL    HW218873   5.260   2.730   3.236
 6163SOL     OW18874   3.796   2.028   2.180
 6163SOL    HW118875   3.779   2.111   2.126
 6163SOL    HW218876   3.886   1.991   2.158
 6164SOL     OW18877   4.907   3.197   1.981
 6164SOL    HW118878   4.808   3.186   1.983
 6164SOL    HW218879   4.941   3.212   2.074
 6165SOL     OW18880   4.337   2.704   3.293
 6165SOL    HW118881   4.393   2.785   3.276
 6165SOL    HW218882   4.396   2.624   3.296
 6166SOL     OW18883   4.440   2.427   3.570
 6166SOL    HW118884   4.459   2.492   3.644
 6166SOL    HW218885   4.500   2.347   3.579
 6167SOL     OW18886   5.174   3.082   3.495
 6167SOL    HW118887   5.165   3.072   3.594
 6167SOL    HW218888   5.270   3.075   3.469
 6168SOL     OW18889   4.114   3.603   3.422
 6168SOL    HW118890   4.023   3.644   3.420
 6168SOL    HW218891   4.107   3.509   3.454
 6169SOL     OW18892   4.949   2.187   2.311
 6169SOL    HW118893   5.014   2.113   2.300
 6169SOL    HW218894   4.969   2.237   2.395
 6170SOL     OW18895   4.318   2.607   2.514
 6170SOL    HW118896   4.368   2.692   2.495
 6170SOL    HW218897   4.230   2.609   2.466
 6171SOL     OW18898   4.583   3.236   1.878
 6171SOL    HW118899   4.537   3.251   1.966
 6171SOL    HW218900   4.627   3.321   1.848
 6172SOL     OW18901   4.385   3.652   2.815
 6172SOL    HW118902   4.339   3.740   2.802
 6172SOL    HW218903   4.484   3.664   2.808
 6173SOL     OW18904   4.583   2.818   2.723
 6173SOL    HW118905   4.637   2.749   2.771
 6173SOL    HW218906   4.551   2.887   2.789
 6174SOL     OW18907   4.807   2.846   1.949
 6174SOL    HW118908   4.784   2.899   1.867
 6174SOL    HW218909   4.888   2.790   1.930
 6175SOL     OW18910   3.945   3.176   3.706
 6175SOL    HW118911   3.880   3.103   3.685
 6175SOL    HW218912   3.949   3.190   3.804
 6176SOL     OW18913   3.803   3.102   2.515
 6176SOL    HW118914   3.802   3.055   2.603
 6176SOL    HW218915   3.885   3.074   2.464
 6177SOL     OW18916   4.396   3.253   3.486
 6177SOL    HW118917   4.318   3.203   3.524
 6177SOL    HW218918   4.393   3.348   3.517
 6178SOL     OW18919   4.152   2.286   2.382
 6178SOL    HW118920   4.182   2.214   2.320
 6178SOL    HW218921   4.113   2.246   2.465
 6179SOL     OW18922   5.429   3.349   2.966
 6179SOL    HW118923   5.336   3.324   2.939
 6179SOL    HW218924   5.455   3.299   3.048
 6180SOL     OW18925   4.041   2.409   3.142
 6180SOL    HW118926   4.079   2.350   3.214
 6180SOL    HW218927   4.081   2.383   3.054
 6181SOL     OW18928   4.536   3.448   2.549
 6181SOL    HW118929   4.568   3.458   2.455
 6181SOL    HW218930   4.457   3.386   2.551
 6182SOL     OW18931   5.148   2.076   2.974
 6182SOL    HW118932   5.200   2.011   3.029
 6182SOL    HW218933   5.099   2.139   3.035
 6183SOL     OW18934   4.725   1.896   3.016
 6183SOL    HW118935   4.662   1.824   2.985
 6183SOL    HW218936   4.818   1.860   3.016
 6184SOL     OW18937   4.494   3.192   2.163
 6184SOL    HW118938   4.448   3.105   2.180
 6184SOL    HW218939   4.585   3.189   2.204
 6185SOL     OW18940   4.342   3.429   3.146
 6185SOL    HW118941   4.337   3.511   3.203
 6185SOL    HW218942   4.431   3.426   3.101
 6186SOL     OW18943   5.076   1.914   2.030
 6186SOL    HW118944   5.111   1.873   1.946
 6186SOL    HW218945   4.986   1.876   2.050
 6187SOL     OW18946   5.024   2.315   2.553
 6187SOL    HW118947   4.965   2.395   2.557
 6187SOL    HW218948   5.039   2.280   2.646
 6188SOL     OW18949   5.317   2.083   2.744
 6188SOL    HW118950   5.233   2.082   2.798
 6188SOL    HW218951   5.319   2.166   2.688
 6189SOL     OW18952   3.763   2.939   2.162
 6189SOL    HW118953   3.862   2.928   2.153
 6189SOL    HW218954   3.723   2.853   2.194
 6190SOL     OW18955   4.599   3.508   2.199
 6190SOL    HW118956   4.522   3.473   2.145
 6190SOL    HW218957   4.567   3.579   2.261
 6191SOL     OW18958   3.954   2.490   3.837
 6191SOL    HW118959   3.861   2.488   3.874
 6191SOL    HW218960   3.955   2.451   3.745
 6192SOL     OW18961   3.949   2.137   4.720
 6192SOL    HW118962   3.984   2.120   4.812
 6192SOL    HW218963   3.861   2.092   4.708
 6193SOL     OW18964   3.743   2.230   4.371
 6193SOL    HW118965   3.661   2.273   4.410
 6193SOL    HW218966   3.715   2.157   4.308
 6194SOL     OW18967   4.293   3.137   4.889
 6194SOL    HW118968   4.200   3.130   4.852
 6194SOL    HW218969   4.304   3.226   4.933
 6195SOL     OW18970   5.279   3.373   4.427
 6195SOL    HW118971   5.222   3.357   4.508
 6195SOL    HW218972   5.220   3.383   4.347
 6196SOL     OW18973   4.859   2.565   4.441
 6196SOL    HW118974   4.916   2.643   4.416
 6196SOL    HW218975   4.799   2.591   4.517
 6197SOL     OW18976   4.492   3.006   4.747
 6197SOL    HW118977   4.414   3.023   4.807
 6197SOL    HW218978   4.526   3.093   4.711
 6198SOL     OW18979   4.574   2.660   5.547
 6198SOL    HW118980   4.570   2.736   5.612
 6198SOL    HW218981   4.596   2.696   5.456
 6199SOL     OW18982   4.409   2.874   4.389
 6199SOL    HW118983   4.478   2.858   4.459
 6199SOL    HW218984   4.336   2.931   4.427
 6200SOL     OW18985   4.410   3.023   5.527
 6200SOL    HW118986   4.470   3.102   5.541
 6200SOL    HW218987   4.324   3.054   5.486
 6201SOL     OW18988   4.059   3.297   4.785
 6201SOL    HW118989   3.981   3.266   4.732
 6201SOL    HW218990   4.117   3.355   4.728
 6202SOL     OW18991   5.184   3.367   5.063
 6202SOL    HW118992   5.208   3.461   5.089
 6202SOL    HW218993   5.168   3.313   5.145
 6203SOL     OW18994   4.162   2.254   5.223
 6203SOL    HW118995   4.244   2.198   5.232
 6203SOL    HW218996   4.081   2.196   5.227
 6204SOL     OW18997   3.955   3.575   4.207
 6204SOL    HW118998   3.989   3.652   4.261
 6204SOL    HW218999   3.999   3.575   4.117
 6205SOL     OW19000   4.851   3.203   5.414
 6205SOL    HW119001   4.898   3.203   5.502
 6205SOL    HW219002   4.803   3.116   5.403
 6206SOL     OW19003   3.954   3.296   4.262
 6206SOL    HW119004   3.928   3.392   4.262
 6206SOL    HW219005   3.883   3.242   4.307
 6207SOL     OW19006   3.964   2.953   4.610
 6207SOL    HW119007   3.978   2.869   4.662
 6207SOL    HW219008   3.909   3.017   4.665
 6208SOL     OW19009   4.344   3.648   5.163
 6208SOL    HW119010   4.252   3.631   5.198
 6208SOL    HW219011   4.372   3.740   5.189
 6209SOL     OW19012   4.330   2.826   3.847
 6209SOL    HW119013   4.337   2.910   3.793
 6209SOL    HW219014   4.376   2.839   3.935
 6210SOL     OW19015   3.846   2.505   4.287
 6210SOL    HW119016   3.801   2.417   4.304
 6210SOL    HW219017   3.845   2.559   4.371
 6211SOL     OW19018   3.751   3.458   3.841
 6211SOL    HW119019   3.732   3.362   3.862
 6211SOL    HW219020   3.718   3.516   3.916
 6212SOL     OW19021   5.413   2.784   4.336
 6212SOL    HW119022   5.508   2.755   4.344
 6212SOL    HW219023   5.405   2.849   4.261
 6213SOL     OW19024   3.837   2.599   5.321
 6213SOL    HW119025   3.925   2.586   5.366
 6213SOL    HW219026   3.824   2.696   5.299
 6214SOL     OW19027   4.337   3.227   4.450
 6214SOL    HW119028   4.288   3.140   4.459
 6214SOL    HW219029   4.314   3.270   4.363
 6215SOL     OW19030   5.017   3.090   5.147
 6215SOL    HW119031   5.054   3.017   5.089
 6215SOL    HW219032   5.069   3.095   5.232
 6216SOL     OW19033   4.533   1.866   4.226
 6216SOL    HW119034   4.573   1.957   4.217
 6216SOL    HW219035   4.433   1.874   4.232
 6217SOL     OW19036   3.921   2.838   4.988
 6217SOL    HW119037   4.010   2.793   4.974
 6217SOL    HW219038   3.848   2.773   4.969
 6218SOL     OW19039   4.911   3.654   5.340
 6218SOL    HW119040   4.935   3.714   5.264
 6218SOL    HW219041   4.918   3.559   5.310
 6219SOL     OW19042   4.041   2.113   5.525
 6219SOL    HW119043   4.112   2.184   5.531
 6219SOL    HW219044   3.953   2.152   5.553
 6220SOL     OW19045   5.190   3.279   4.677
 6220SOL    HW119046   5.131   3.285   4.757
 6220SOL    HW219047   5.175   3.191   4.631
 6221SOL     OW19048   4.322   2.591   3.994
 6221SOL    HW119049   4.346   2.660   3.926
 6221SOL    HW219050   4.244   2.624   4.048
 6222SOL     OW19051   5.005   2.207   4.668
 6222SOL    HW119052   4.919   2.157   4.655
 6222SOL    HW219053   5.067   2.153   4.724
 6223SOL     OW19054   4.531   2.467   5.189
 6223SOL    HW119055   4.484   2.464   5.278
 6223SOL    HW219056   4.480   2.412   5.123
 6224SOL     OW19057   5.118   2.331   5.398
 6224SOL    HW119058   5.098   2.374   5.486
 6224SOL    HW219059   5.196   2.269   5.407
 6225SOL     OW19060   4.697   2.752   5.296
 6225SOL    HW119061   4.743   2.668   5.267
 6225SOL    HW219062   4.641   2.786   5.221
 6226SOL     OW19063   4.715   2.272   4.966
 6226SOL    HW119064   4.638   2.306   5.020
 6226SOL    HW219065   4.681   2.221   4.887
 6227SOL     OW19066   4.765   2.563   4.153
 6227SOL    HW119067   4.791   2.559   4.249
 6227SOL    HW219068   4.680   2.512   4.139
 6228SOL     OW19069   3.800   2.673   4.513
 6228SOL    HW119070   3.899   2.661   4.522
 6228SOL    HW219071   3.776   2.768   4.534
 6229SOL     OW19072   3.854   3.683   5.295
 6229SOL    HW119073   3.844   3.668   5.394
 6229SOL    HW219074   3.768   3.719   5.259
 6230SOL     OW19075   4.589   2.210   3.919
 6230SOL    HW119076   4.648   2.273   3.870
 6230SOL    HW219077   4.608   2.116   3.890
 6231SOL     OW19078   5.086   3.006   4.269
 6231SOL    HW119079   5.169   2.977   4.221
 6231SOL    HW219080   5.037   3.073   4.213
 6232SOL     OW19081   4.274   2.058   4.609
 6232SOL    HW119082   4.269   2.053   4.709
 6232SOL    HW219083   4.276   2.154   4.580
 6233SOL     OW19084   4.732   3.318   4.201
 6233SOL    HW119085   4.686   3.390   4.149
 6233SOL    HW219086   4.728   3.338   4.299
 6234SOL     OW19087   4.075   3.663   4.577
 6234SOL    HW119088   4.125   3.577   4.583
 6234SOL    HW219089   4.140   3.740   4.574
 6235SOL     OW19090   4.951   3.412   5.230
 6235SOL    HW119091   4.957   3.335   5.294
 6235SOL    HW219092   4.899   3.386   5.150
 6236SOL     OW19093   4.045   2.805   3.966
 6236SOL    HW119094   4.127   2.844   3.924
 6236SOL    HW219095   4.018   2.723   3.917
 6237SOL     OW19096   4.185   3.128   5.451
 6237SOL    HW119097   4.135   3.129   5.365
 6237SOL    HW219098   4.122   3.110   5.527
 6238SOL     OW19099   4.835   3.638   3.961
 6238SOL    HW119100   4.775   3.576   4.011
 6238SOL    HW219101   4.866   3.594   3.876
 6239SOL     OW19102   3.926   2.147   5.222
 6239SOL    HW119103   3.846   2.207   5.209
 6239SOL    HW219104   3.916   2.098   5.308
 6240SOL     OW19105   4.188   3.605   4.047
 6240SOL    HW119106   4.221   3.644   4.133
 6240SOL    HW219107   4.264   3.598   3.982
 6241SOL     OW19108   5.124   1.969   4.150
 6241SOL    HW119109   5.100   1.932   4.060
 6241SOL    HW219110   5.223   1.985   4.154
 6242SOL     OW19111   3.973   3.647   4.965
 6242SOL    HW119112   4.030   3.582   5.015
 6242SOL    HW219113   3.957   3.614   4.872
 6243SOL     OW19114   4.664   3.560   4.628
 6243SOL    HW119115   4.744   3.503   4.649
 6243SOL    HW219116   4.615   3.520   4.551
 6244SOL     OW19117   4.106   2.562   4.204
 6244SOL    HW119118   4.151   2.472   4.201
 6244SOL    HW219119   4.012   2.551   4.237
 6245SOL     OW19120   4.338   1.984   3.841
 6245SOL    HW119121   4.436   1.962   3.848
 6245SOL    HW219122   4.307   1.967   3.748
 6246SOL     OW19123   4.505   2.126   5.473
 6246SOL    HW119124   4.572   2.065   5.516
 6246SOL    HW219125   4.432   2.145   5.538
 6247SOL     OW19126   4.612   3.376   4.919
 6247SOL    HW119127   4.589   3.351   4.825
 6247SOL    HW219128   4.673   3.307   4.958
 6248SOL     OW19129   5.075   2.452   5.157
 6248SOL    HW119130   5.103   2.409   5.242
 6248SOL    HW219131   5.100   2.548   5.158
 6249SOL     OW19132   4.527   3.264   4.648
 6249SOL    HW119133   4.617   3.278   4.606
 6249SOL    HW219134   4.456   3.266   4.577
 6250SOL     OW19135   4.646   2.365   4.623
 6250SOL    HW119136   4.621   2.356   4.527
 6250SOL    HW219137   4.694   2.283   4.654
 6251SOL     OW19138   4.263   1.926   4.236
 6251SOL    HW119139   4.182   1.927   4.294
 6251SOL    HW219140   4.266   2.009   4.181
 6252SOL     OW19141   5.158   3.050   3.765
 6252SOL    HW119142   5.190   2.974   3.822
 6252SOL    HW219143   5.066   3.077   3.795
 6253SOL     OW19144   4.021   1.897   3.895
 6253SOL    HW119145   4.070   1.981   3.874
 6253SOL    HW219146   4.083   1.832   3.940
 6254SOL     OW19147   4.659   2.098   4.204
 6254SOL    HW119148   4.611   2.139   4.126
 6254SOL    HW219149   4.758   2.096   4.185
 6255SOL     OW19150   4.800   2.545   5.188
 6255SOL    HW119151   4.720   2.484   5.191
 6255SOL    HW219152   4.881   2.492   5.164
 6256SOL     OW19153   4.951   3.432   4.517
 6256SOL    HW119154   4.972   3.506   4.452
 6256SOL    HW219155   5.019   3.432   4.590
 6257SOL     OW19156   4.183   3.014   4.465
 6257SOL    HW119157   4.112   2.987   4.530
 6257SOL    HW219158   4.157   2.986   4.372
 6258SOL     OW19159   4.995   3.659   4.315
 6258SOL    HW119160   5.039   3.723   4.251
 6258SOL    HW219161   4.945   3.711   4.385
 6259SOL     OW19162   4.756   2.411   3.740
 6259SOL    HW119163   4.715   2.493   3.701
 6259SOL    HW219164   4.820   2.437   3.813
 6260SOL     OW19165   3.802   2.418   5.110
 6260SOL    HW119166   3.894   2.417   5.069
 6260SOL    HW219167   3.796   2.492   5.177
 6261SOL     OW19168   4.285   2.084   4.871
 6261SOL    HW119169   4.323   2.000   4.908
 6261SOL    HW219170   4.197   2.103   4.915
 6262SOL     OW19171   4.590   2.316   4.366
 6262SOL    HW119172   4.558   2.388   4.304
 6262SOL    HW219173   4.614   2.235   4.313
 6263SOL     OW19174   4.741   1.901   4.477
 6263SOL    HW119175   4.669   1.906   4.408
 6263SOL    HW219176   4.717   1.832   4.546
 6264SOL     OW19177   5.153   3.035   4.591
 6264SOL    HW119178   5.098   2.951   4.584
 6264SOL    HW219179   5.179   3.064   4.499
 6265SOL     OW19180   4.212   3.247   3.898
 6265SOL    HW119181   4.125   3.232   3.945
 6265SOL    HW219182   4.195   3.273   3.803
 6266SOL     OW19183   5.114   2.437   3.802
 6266SOL    HW119184   5.060   2.416   3.883
 6266SOL    HW219185   5.205   2.396   3.811
 6267SOL     OW19186   4.251   2.118   4.052
 6267SOL    HW119187   4.278   2.059   3.977
 6267SOL    HW219188   4.251   2.213   4.021
 6268SOL     OW19189   4.788   3.209   5.064
 6268SOL    HW119190   4.708   3.186   5.119
 6268SOL    HW219191   4.871   3.183   5.113
 6269SOL     OW19192   5.316   3.491   5.349
 6269SOL    HW119193   5.343   3.525   5.259
 6269SOL    HW219194   5.395   3.453   5.395
 6270SOL     OW19195   4.835   3.057   4.824
 6270SOL    HW119196   4.795   3.101   4.905
 6270SOL    HW219197   4.794   3.094   4.741
 6271SOL     OW19198   4.639   1.951   5.126
 6271SOL    HW119199   4.664   1.931   5.031
 6271SOL    HW219200   4.711   2.007   5.168
 6272SOL     OW19201   4.704   2.978   5.443
 6272SOL    HW119202   4.605   2.984   5.453
 6272SOL    HW219203   4.727   2.898   5.387
 6273SOL     OW19204   4.429   2.912   4.092
 6273SOL    HW119205   4.415   2.919   4.191
 6273SOL    HW219206   4.513   2.861   4.074
 6274SOL     OW19207   4.134   2.675   4.975
 6274SOL    HW119208   4.220   2.687   5.025
 6274SOL    HW219209   4.092   2.588   5.002
 6275SOL     OW19210   4.998   2.248   4.986
 6275SOL    HW119211   5.019   2.322   5.050
 6275SOL    HW219212   4.909   2.265   4.943
 6276SOL     OW19213   3.788   3.426   5.055
 6276SOL    HW119214   3.742   3.508   5.021
 6276SOL    HW219215   3.886   3.445   5.064
 6277SOL     OW19216   4.091   2.962   4.225
 6277SOL    HW119217   4.084   3.045   4.169
 6277SOL    HW219218   4.095   2.882   4.165
 6278SOL     OW19219   4.290   2.399   4.589
 6278SOL    HW119220   4.302   2.465   4.515
 6278SOL    HW219221   4.336   2.433   4.672
 6279SOL     OW19222   4.976   3.210   4.112
 6279SOL    HW119223   5.026   3.287   4.152
 6279SOL    HW219224   4.881   3.212   4.144
 6280SOL     OW19225   4.996   3.307   4.866
 6280SOL    HW119226   5.043   3.320   4.953
 6280SOL    HW219227   4.930   3.233   4.875
 6281SOL     OW19228   4.078   3.372   5.053
 6281SOL    HW119229   4.057   3.328   4.966
 6281SOL    HW219230   4.175   3.398   5.056
 6282SOL     OW19231   4.126   2.613   5.322
 6282SOL    HW119232   4.194   2.668   5.275
 6282SOL    HW219233   4.166   2.525   5.349
 6283SOL     OW19234   4.737   1.967   5.494
 6283SOL    HW119235   4.743   2.052   5.442
 6283SOL    HW219236   4.769   1.891   5.437
 6284SOL     OW19237   4.228   1.912   5.464
 6284SOL    HW119238   4.186   1.855   5.394
 6284SOL    HW219239   4.162   1.981   5.496
 6285SOL     OW19240   4.297   2.732   4.753
 6285SOL    HW119241   4.341   2.821   4.744
 6285SOL    HW219242   4.234   2.732   4.830
 6286SOL     OW19243   5.084   2.724   4.769
 6286SOL    HW119244   5.009   2.724   4.703
 6286SOL    HW219245   5.121   2.632   4.778
 6287SOL     OW19246   4.933   2.387   3.999
 6287SOL    HW119247   4.946   2.303   4.053
 6287SOL    HW219248   4.904   2.461   4.059
 6288SOL     OW19249   4.031   2.075   4.955
 6288SOL    HW119250   4.008   2.112   5.045
 6288SOL    HW219251   4.001   1.980   4.949
 6289SOL     OW19252   3.761   3.172   5.006
 6289SOL    HW119253   3.814   3.123   5.074
 6289SOL    HW219254   3.783   3.270   5.011
 6290SOL     OW19255   4.456   2.496   4.788
 6290SOL    HW119256   4.515   2.470   4.712
 6290SOL    HW219257   4.428   2.592   4.777
 6291SOL     OW19258   4.031   1.925   4.342
 6291SOL    HW119259   4.020   2.019   4.375
 6291SOL    HW219260   4.026   1.862   4.419
 6292SOL     OW19261   5.346   2.229   4.098
 6292SOL    HW119262   5.348   2.153   4.162
 6292SOL    HW219263   5.298   2.306   4.138
 6293SOL     OW19264   4.747   2.628   4.690
 6293SOL    HW119265   4.762   2.649   4.786
 6293SOL    HW219266   4.717   2.533   4.681
 6294SOL     OW19267   4.704   3.435   5.424
 6294SOL    HW119268   4.684   3.479   5.336
 6294SOL    HW219269   4.743   3.344   5.408
 6295SOL     OW19270   4.074   2.760   5.528
 6295SOL    HW119271   4.150   2.804   5.576
 6295SOL    HW219272   4.109   2.713   5.446
 6296SOL     OW19273   5.027   2.700   3.766
 6296SOL    HW119274   5.061   2.607   3.781
 6296SOL    HW219275   5.045   2.727   3.671
 6297SOL     OW19276   4.792   3.195   4.573
 6297SOL    HW119277   4.799   3.111   4.518
 6297SOL    HW219278   4.854   3.264   4.537
 6298SOL     OW19279   4.043   2.672   4.673
 6298SOL    HW119280   4.136   2.708   4.678
 6298SOL    HW219281   4.037   2.587   4.725
 6299SOL     OW19282   4.063   2.371   4.730
 6299SOL    HW119283   4.011   2.288   4.713
 6299SOL    HW219284   4.140   2.376   4.666
 6300SOL     OW19285   4.862   2.242   5.402
 6300SOL    HW119286   4.817   2.305   5.466
 6300SOL    HW219287   4.955   2.273   5.385
 6301SOL     OW19288   4.884   2.069   5.201
 6301SOL    HW119289   4.884   2.133   5.278
 6301SOL    HW219290   4.912   2.117   5.118
 6302SOL     OW19291   3.732   3.188   3.924
 6302SOL    HW119292   3.639   3.209   3.893
 6302SOL    HW219293   3.742   3.089   3.937
 6303SOL     OW19294   3.812   3.663   4.651
 6303SOL    HW119295   3.770   3.577   4.624
 6303SOL    HW219296   3.906   3.666   4.617
 6304SOL     OW19297   4.228   3.430   4.634
 6304SOL    HW119298   4.294   3.504   4.643
 6304SOL    HW219299   4.272   3.351   4.592
 6305SOL     OW19300   4.726   2.658   4.962
 6305SOL    HW119301   4.767   2.626   5.048
 6305SOL    HW219302   4.630   2.631   4.959
 6306SOL     OW19303   3.764   2.406   4.838
 6306SOL    HW119304   3.849   2.373   4.797
 6306SOL    HW219305   3.777   2.421   4.936
 6307SOL     OW19306   3.913   2.382   5.446
 6307SOL    HW119307   3.972   2.342   5.376
 6307SOL    HW219308   3.855   2.453   5.405
 6308SOL     OW19309   5.093   2.812   5.384
 6308SOL    HW119310   5.132   2.901   5.404
 6308SOL    HW219311   5.103   2.792   5.287
 6309SOL     OW19312   4.539   2.434   4.049
 6309SOL    HW119313   4.546   2.345   4.003
 6309SOL    HW219314   4.445   2.468   4.041
 6310SOL     OW19315   3.976   3.426   5.468
 6310SOL    HW119316   3.946   3.483   5.544
 6310SOL    HW219317   3.969   3.329   5.494
 6311SOL     OW19318   4.395   2.326   4.993
 6311SOL    HW119319   4.361   2.237   4.963
 6311SOL    HW219320   4.421   2.380   4.913
 6312SOL     OW19321   4.654   3.540   5.189
 6312SOL    HW119322   4.630   3.522   5.094
 6312SOL    HW219323   4.684   3.634   5.199
 6313SOL     OW19324   4.197   2.362   3.915
 6313SOL    HW119325   4.258   2.442   3.919
 6313SOL    HW219326   4.102   2.393   3.922
 6314SOL     OW19327   3.883   2.999   5.190
 6314SOL    HW119328   3.905   2.938   5.266
 6314SOL    HW219329   3.893   2.950   5.104
 6315SOL     OW19330   5.071   2.921   4.958
 6315SOL    HW119331   5.095   2.858   4.884
 6315SOL    HW219332   4.981   2.961   4.940
 6316SOL     OW19333   5.026   2.717   4.033
 6316SOL    HW119334   4.940   2.686   4.075
 6316SOL    HW219335   5.022   2.703   3.934
 6317SOL     OW19336   4.976   3.593   4.852
 6317SOL    HW119337   5.060   3.598   4.798
 6317SOL    HW219338   4.953   3.497   4.870
 6318SOL     OW19339   3.807   3.120   4.746
 6318SOL    HW119340   3.802   3.119   4.846
 6318SOL    HW219341   3.724   3.079   4.708
 6319SOL     OW19342   4.412   3.524   5.440
 6319SOL    HW119343   4.356   3.605   5.449
 6319SOL    HW219344   4.464   3.528   5.354
 6320SOL     OW19345   5.450   1.997   4.247
 6320SOL    HW119346   5.523   1.980   4.180
 6320SOL    HW219347   5.419   1.910   4.285
 6321SOL     OW19348   5.112   3.435   4.201
 6321SOL    HW119349   5.179   3.447   4.127
 6321SOL    HW219350   5.072   3.524   4.224
 6322SOL     OW19351   3.854   3.656   5.575
 6322SOL    HW119352   3.813   3.582   5.628
 6322SOL    HW219353   3.918   3.707   5.633
 6323SOL     OW19354   5.004   2.789   4.396
 6323SOL    HW119355   5.064   2.708   4.398
 6323SOL    HW219356   5.044   2.858   4.336
 6324SOL     OW19357   4.554   3.135   5.146
 6324SOL    HW119358   4.549   3.168   5.241
 6324SOL    HW219359   4.468   3.154   5.100
 6325SOL     OW19360   4.396   3.478   3.878
 6325SOL    HW119361   4.405   3.488   3.779
 6325SOL    HW219362   4.356   3.389   3.899
 6326SOL     OW19363   3.987   2.188   4.444
 6326SOL    HW119364   3.908   2.239   4.410
 6326SOL    HW219365   3.978   2.173   4.542
 6327SOL     OW19366   4.918   3.474   3.755
 6327SOL    HW119367   4.924   3.381   3.792
 6327SOL    HW219368   4.859   3.474   3.675
 6328SOL     OW19369   4.546   2.864   5.096
 6328SOL    HW119370   4.586   2.863   5.004
 6328SOL    HW219371   4.556   2.956   5.136
 6329SOL     OW19372   4.640   2.772   4.015
 6329SOL    HW119373   4.703   2.810   3.947
 6329SOL    HW219374   4.680   2.689   4.054
 6330SOL     OW19375   4.096   3.150   5.214
 6330SOL    HW119376   4.083   3.243   5.180
 6330SOL    HW219377   4.012   3.098   5.201
 6331SOL     OW19378   4.763   2.960   4.420
 6331SOL    HW119379   4.693   2.913   4.474
 6331SOL    HW219380   4.822   2.892   4.377
 6332SOL     OW19381   4.738   2.098   4.695
 6332SOL    HW119382   4.730   2.062   4.602
 6332SOL    HW219383   4.736   2.022   4.760
 6333SOL     OW19384   4.314   3.349   4.215
 6333SOL    HW119385   4.356   3.291   4.145
 6333SOL    HW219386   4.270   3.428   4.171
 6334SOL     OW19387   3.979   3.210   4.014
 6334SOL    HW119388   3.883   3.211   3.987
 6334SOL    HW219389   3.991   3.263   4.098
 6335SOL     OW19390   3.829   2.875   5.450
 6335SOL    HW119391   3.752   2.842   5.504
 6335SOL    HW219392   3.914   2.845   5.492
 6336SOL     OW19393   4.396   2.065   5.213
 6336SOL    HW119394   4.486   2.049   5.173
 6336SOL    HW219395   4.404   2.070   5.312
 6337SOL     OW19396   3.799   2.207   3.757
 6337SOL    HW119397   3.707   2.179   3.728
 6337SOL    HW219398   3.830   2.284   3.701
 6338SOL     OW19399   5.164   2.718   5.122
 6338SOL    HW119400   5.107   2.770   5.059
 6338SOL    HW219401   5.260   2.730   5.098
 6339SOL     OW19402   3.796   2.028   4.042
 6339SOL    HW119403   3.779   2.111   3.988
 6339SOL    HW219404   3.886   1.991   4.020
 6340SOL     OW19405   4.907   3.197   3.843
 6340SOL    HW119406   4.808   3.186   3.845
 6340SOL    HW219407   4.941   3.212   3.936
 6341SOL     OW19408   4.337   2.704   5.155
 6341SOL    HW119409   4.393   2.785   5.138
 6341SOL    HW219410   4.396   2.624   5.158
 6342SOL     OW19411   4.440   2.427   5.432
 6342SOL    HW119412   4.459   2.492   5.506
 6342SOL    HW219413   4.500   2.347   5.441
 6343SOL     OW19414   5.174   3.082   5.357
 6343SOL    HW119415   5.165   3.072   5.456
 6343SOL    HW219416   5.270   3.075   5.331
 6344SOL     OW19417   4.114   3.603   5.284
 6344SOL    HW119418   4.023   3.644   5.282
 6344SOL    HW219419   4.107   3.509   5.316
 6345SOL     OW19420   4.949   2.187   4.173
 6345SOL    HW119421   5.014   2.113   4.162
 6345SOL    HW219422   4.969   2.237   4.257
 6346SOL     OW19423   4.318   2.607   4.376
 6346SOL    HW119424   4.368   2.692   4.357
 6346SOL    HW219425   4.230   2.609   4.328
 6347SOL     OW19426   4.583   3.236   3.740
 6347SOL    HW119427   4.537   3.251   3.828
 6347SOL    HW219428   4.627   3.321   3.710
 6348SOL     OW19429   4.385   3.652   4.677
 6348SOL    HW119430   4.339   3.740   4.664
 6348SOL    HW219431   4.484   3.664   4.670
 6349SOL     OW19432   4.583   2.818   4.585
 6349SOL    HW119433   4.637   2.749   4.633
 6349SOL    HW219434   4.551   2.887   4.651
 6350SOL     OW19435   4.807   2.846   3.811
 6350SOL    HW119436   4.784   2.899   3.729
 6350SOL    HW219437   4.888   2.790   3.792
 6351SOL     OW19438   3.945   3.176   5.568
 6351SOL    HW119439   3.880   3.103   5.547
 6351SOL    HW219440   3.949   3.190   5.666
 6352SOL     OW19441   3.803   3.102   4.377
 6352SOL    HW119442   3.802   3.055   4.465
 6352SOL    HW219443   3.885   3.074   4.326
 6353SOL     OW19444   4.396   3.253   5.348
 6353SOL    HW119445   4.318   3.203   5.386
 6353SOL    HW219446   4.393   3.348   5.379
 6354SOL     OW19447   4.152   2.286   4.244
 6354SOL    HW119448   4.182   2.214   4.182
 6354SOL    HW219449   4.113   2.246   4.327
 6355SOL     OW19450   5.429   3.349   4.828
 6355SOL    HW119451   5.336   3.324   4.801
 6355SOL    HW219452   5.455   3.299   4.910
 6356SOL     OW19453   4.041   2.409   5.004
 6356SOL    HW119454   4.079   2.350   5.076
 6356SOL    HW219455   4.081   2.383   4.916
 6357SOL     OW19456   4.536   3.448   4.411
 6357SOL    HW119457   4.568   3.458   4.317
 6357SOL    HW219458   4.457   3.386   4.413
 6358SOL     OW19459   5.148   2.076   4.836
 6358SOL    HW119460   5.200   2.011   4.891
 6358SOL    HW219461   5.099   2.139   4.897
 6359SOL     OW19462   4.725   1.896   4.878
 6359SOL    HW119463   4.662   1.824   4.847
 6359SOL    HW219464   4.818   1.860   4.878
 6360SOL     OW19465   4.494   3.192   4.025
 6360SOL    HW119466   4.448   3.105   4.042
 6360SOL    HW219467   4.585   3.189   4.066
 6361SOL     OW19468   4.342   3.429   5.008
 6361SOL    HW119469   4.337   3.511   5.065
 6361SOL    HW219470   4.431   3.426   4.963
 6362SOL     OW19471   5.076   1.914   3.892
 6362SOL    HW119472   5.111   1.873   3.808
 6362SOL    HW219473   4.986   1.876   3.912
 6363SOL     OW19474   5.024   2.315   4.415
 6363SOL    HW119475   4.965   2.395   4.419
 6363SOL    HW219476   5.039   2.280   4.508
 6364SOL     OW19477   5.317   2.083   4.606
 6364SOL    HW119478   5.233   2.082   4.660
 6364SOL    HW219479   5.319   2.166   4.550
 6365SOL     OW19480   3.763   2.939   4.024
 6365SOL    HW119481   3.862   2.928   4.015
 6365SOL    HW219482   3.723   2.853   4.056
 6366SOL     OW19483   4.599   3.508   4.061
 6366SOL    HW119484   4.522   3.473   4.007
 6366SOL    HW219485   4.567   3.579   4.123
 6367SOL     OW19486   3.954   2.490   5.699
 6367SOL    HW119487   3.861   2.488   5.736
 6367SOL    HW219488   3.955   2.451   5.607
 6368SOL     OW19489   3.949   2.137   6.582
 6368SOL    HW119490   3.984   2.120   6.674
 6368SOL    HW219491   3.861   2.092   6.570
 6369SOL     OW19492   3.743   2.230   6.233
 6369SOL    HW119493   3.661   2.273   6.272
 6369SOL    HW219494   3.715   2.157   6.170
 6370SOL     OW19495   4.293   3.137   6.751
 6370SOL    HW119496   4.200   3.130   6.714
 6370SOL    HW219497   4.304   3.226   6.795
 6371SOL     OW19498   5.279   3.373   6.289
 6371SOL    HW119499   5.222   3.357   6.370
 6371SOL    HW219500   5.220   3.383   6.209
 6372SOL     OW19501   4.859   2.565   6.303
 6372SOL    HW119502   4.916   2.643   6.278
 6372SOL    HW219503   4.799   2.591   6.379
 6373SOL     OW19504   4.492   3.006   6.609
 6373SOL    HW119505   4.414   3.023   6.669
 6373SOL    HW219506   4.526   3.093   6.573
 6374SOL     OW19507   4.574   2.660   7.409
 6374SOL    HW119508   4.570   2.736   7.474
 6374SOL    HW219509   4.596   2.696   7.318
 6375SOL     OW19510   4.409   2.874   6.251
 6375SOL    HW119511   4.478   2.858   6.321
 6375SOL    HW219512   4.336   2.931   6.289
 6376SOL     OW19513   4.410   3.023   7.389
 6376SOL    HW119514   4.470   3.102   7.403
 6376SOL    HW219515   4.324   3.054   7.348
 6377SOL     OW19516   4.059   3.297   6.647
 6377SOL    HW119517   3.981   3.266   6.594
 6377SOL    HW219518   4.117   3.355   6.590
 6378SOL     OW19519   5.184   3.367   6.925
 6378SOL    HW119520   5.208   3.461   6.951
 6378SOL    HW219521   5.168   3.313   7.007
 6379SOL     OW19522   4.162   2.254   7.085
 6379SOL    HW119523   4.244   2.198   7.094
 6379SOL    HW219524   4.081   2.196   7.089
 6380SOL     OW19525   3.955   3.575   6.069
 6380SOL    HW119526   3.989   3.652   6.123
 6380SOL    HW219527   3.999   3.575   5.979
 6381SOL     OW19528   4.851   3.203   7.276
 6381SOL    HW119529   4.898   3.203   7.364
 6381SOL    HW219530   4.803   3.116   7.265
 6382SOL     OW19531   3.954   3.296   6.124
 6382SOL    HW119532   3.928   3.392   6.124
 6382SOL    HW219533   3.883   3.242   6.169
 6383SOL     OW19534   3.964   2.953   6.472
 6383SOL    HW119535   3.978   2.869   6.524
 6383SOL    HW219536   3.909   3.017   6.527
 6384SOL     OW19537   4.344   3.648   7.025
 6384SOL    HW119538   4.252   3.631   7.060
 6384SOL    HW219539   4.372   3.740   7.051
 6385SOL     OW19540   4.330   2.826   5.709
 6385SOL    HW119541   4.337   2.910   5.655
 6385SOL    HW219542   4.376   2.839   5.797
 6386SOL     OW19543   3.846   2.505   6.149
 6386SOL    HW119544   3.801   2.417   6.166
 6386SOL    HW219545   3.845   2.559   6.233
 6387SOL     OW19546   3.751   3.458   5.703
 6387SOL    HW119547   3.732   3.362   5.724
 6387SOL    HW219548   3.718   3.516   5.778
 6388SOL     OW19549   5.413   2.784   6.198
 6388SOL    HW119550   5.508   2.755   6.206
 6388SOL    HW219551   5.405   2.849   6.123
 6389SOL     OW19552   3.837   2.599   7.183
 6389SOL    HW119553   3.925   2.586   7.228
 6389SOL    HW219554   3.824   2.696   7.161
 6390SOL     OW19555   4.337   3.227   6.312
 6390SOL    HW119556   4.288   3.140   6.321
 6390SOL    HW219557   4.314   3.270   6.225
 6391SOL     OW19558   5.017   3.090   7.009
 6391SOL    HW119559   5.054   3.017   6.951
 6391SOL    HW219560   5.069   3.095   7.094
 6392SOL     OW19561   4.533   1.866   6.088
 6392SOL    HW119562   4.573   1.957   6.079
 6392SOL    HW219563   4.433   1.874   6.094
 6393SOL     OW19564   3.921   2.838   6.850
 6393SOL    HW119565   4.010   2.793   6.836
 6393SOL    HW219566   3.848   2.773   6.831
 6394SOL     OW19567   4.911   3.654   7.202
 6394SOL    HW119568   4.935   3.714   7.126
 6394SOL    HW219569   4.918   3.559   7.172
 6395SOL     OW19570   4.041   2.113   7.387
 6395SOL    HW119571   4.112   2.184   7.393
 6395SOL    HW219572   3.953   2.152   7.415
 6396SOL     OW19573   5.190   3.279   6.539
 6396SOL    HW119574   5.131   3.285   6.619
 6396SOL    HW219575   5.175   3.191   6.493
 6397SOL     OW19576   4.322   2.591   5.856
 6397SOL    HW119577   4.346   2.660   5.788
 6397SOL    HW219578   4.244   2.624   5.910
 6398SOL     OW19579   5.005   2.207   6.530
 6398SOL    HW119580   4.919   2.157   6.517
 6398SOL    HW219581   5.067   2.153   6.586
 6399SOL     OW19582   4.531   2.467   7.051
 6399SOL    HW119583   4.484   2.464   7.140
 6399SOL    HW219584   4.480   2.412   6.985
 6400SOL     OW19585   5.118   2.331   7.260
 6400SOL    HW119586   5.098   2.374   7.348
 6400SOL    HW219587   5.196   2.269   7.269
 6401SOL     OW19588   4.697   2.752   7.158
 6401SOL    HW119589   4.743   2.668   7.129
 6401SOL    HW219590   4.641   2.786   7.083
 6402SOL     OW19591   4.715   2.272   6.828
 6402SOL    HW119592   4.638   2.306   6.882
 6402SOL    HW219593   4.681   2.221   6.749
 6403SOL     OW19594   4.765   2.563   6.015
 6403SOL    HW119595   4.791   2.559   6.111
 6403SOL    HW219596   4.680   2.512   6.001
 6404SOL     OW19597   3.800   2.673   6.375
 6404SOL    HW119598   3.899   2.661   6.384
 6404SOL    HW219599   3.776   2.768   6.396
 6405SOL     OW19600   3.854   3.683   7.157
 6405SOL    HW119601   3.844   3.668   7.256
 6405SOL    HW219602   3.768   3.719   7.121
 6406SOL     OW19603   4.589   2.210   5.781
 6406SOL    HW119604   4.648   2.273   5.732
 6406SOL    HW219605   4.608   2.116   5.752
 6407SOL     OW19606   5.086   3.006   6.131
 6407SOL    HW119607   5.169   2.977   6.083
 6407SOL    HW219608   5.037   3.073   6.075
 6408SOL     OW19609   4.274   2.058   6.471
 6408SOL    HW119610   4.269   2.053   6.571
 6408SOL    HW219611   4.276   2.154   6.442
 6409SOL     OW19612   4.732   3.318   6.063
 6409SOL    HW119613   4.686   3.390   6.011
 6409SOL    HW219614   4.728   3.338   6.161
 6410SOL     OW19615   4.075   3.663   6.439
 6410SOL    HW119616   4.125   3.577   6.445
 6410SOL    HW219617   4.140   3.740   6.436
 6411SOL     OW19618   4.951   3.412   7.092
 6411SOL    HW119619   4.957   3.335   7.156
 6411SOL    HW219620   4.899   3.386   7.012
 6412SOL     OW19621   4.045   2.805   5.828
 6412SOL    HW119622   4.127   2.844   5.786
 6412SOL    HW219623   4.018   2.723   5.779
 6413SOL     OW19624   4.185   3.128   7.313
 6413SOL    HW119625   4.135   3.129   7.227
 6413SOL    HW219626   4.122   3.110   7.389
 6414SOL     OW19627   4.835   3.638   5.823
 6414SOL    HW119628   4.775   3.576   5.873
 6414SOL    HW219629   4.866   3.594   5.738
 6415SOL     OW19630   3.926   2.147   7.084
 6415SOL    HW119631   3.846   2.207   7.071
 6415SOL    HW219632   3.916   2.098   7.170
 6416SOL     OW19633   4.188   3.605   5.909
 6416SOL    HW119634   4.221   3.644   5.995
 6416SOL    HW219635   4.264   3.598   5.844
 6417SOL     OW19636   5.124   1.969   6.012
 6417SOL    HW119637   5.100   1.932   5.922
 6417SOL    HW219638   5.223   1.985   6.016
 6418SOL     OW19639   3.973   3.647   6.827
 6418SOL    HW119640   4.030   3.582   6.877
 6418SOL    HW219641   3.957   3.614   6.734
 6419SOL     OW19642   4.664   3.560   6.490
 6419SOL    HW119643   4.744   3.503   6.511
 6419SOL    HW219644   4.615   3.520   6.413
 6420SOL     OW19645   4.106   2.562   6.066
 6420SOL    HW119646   4.151   2.472   6.063
 6420SOL    HW219647   4.012   2.551   6.099
 6421SOL     OW19648   4.338   1.984   5.703
 6421SOL    HW119649   4.436   1.962   5.710
 6421SOL    HW219650   4.307   1.967   5.610
 6422SOL     OW19651   4.505   2.126   7.335
 6422SOL    HW119652   4.572   2.065   7.378
 6422SOL    HW219653   4.432   2.145   7.400
 6423SOL     OW19654   4.612   3.376   6.781
 6423SOL    HW119655   4.589   3.351   6.687
 6423SOL    HW219656   4.673   3.307   6.820
 6424SOL     OW19657   5.075   2.452   7.019
 6424SOL    HW119658   5.103   2.409   7.104
 6424SOL    HW219659   5.100   2.548   7.020
 6425SOL     OW19660   4.527   3.264   6.510
 6425SOL    HW119661   4.617   3.278   6.468
 6425SOL    HW219662   4.456   3.266   6.439
 6426SOL     OW19663   4.646   2.365   6.485
 6426SOL    HW119664   4.621   2.356   6.389
 6426SOL    HW219665   4.694   2.283   6.516
 6427SOL     OW19666   4.263   1.926   6.098
 6427SOL    HW119667   4.182   1.927   6.156
 6427SOL    HW219668   4.266   2.009   6.043
 6428SOL     OW19669   5.158   3.050   5.627
 6428SOL    HW119670   5.190   2.974   5.684
 6428SOL    HW219671   5.066   3.077   5.657
 6429SOL     OW19672   4.021   1.897   5.757
 6429SOL    HW119673   4.070   1.981   5.736
 6429SOL    HW219674   4.083   1.832   5.802
 6430SOL     OW19675   4.659   2.098   6.066
 6430SOL    HW119676   4.611   2.139   5.988
 6430SOL    HW219677   4.758   2.096   6.047
 6431SOL     OW19678   4.800   2.545   7.050
 6431SOL    HW119679   4.720   2.484   7.053
 6431SOL    HW219680   4.881   2.492   7.026
 6432SOL     OW19681   4.951   3.432   6.379
 6432SOL    HW119682   4.972   3.506   6.314
 6432SOL    HW219683   5.019   3.432   6.452
 6433SOL     OW19684   4.183   3.014   6.327
 6433SOL    HW119685   4.112   2.987   6.392
 6433SOL    HW219686   4.157   2.986   6.234
 6434SOL     OW19687   4.995   3.659   6.177
 6434SOL    HW119688   5.039   3.723   6.113
 6434SOL    HW219689   4.945   3.711   6.247
 6435SOL     OW19690   4.756   2.411   5.602
 6435SOL    HW119691   4.715   2.493   5.563
 6435SOL    HW219692   4.820   2.437   5.675
 6436SOL     OW19693   3.802   2.418   6.972
 6436SOL    HW119694   3.894   2.417   6.931
 6436SOL    HW219695   3.796   2.492   7.039
 6437SOL     OW19696   4.285   2.084   6.733
 6437SOL    HW119697   4.323   2.000   6.770
 6437SOL    HW219698   4.197   2.103   6.777
 6438SOL     OW19699   4.590   2.316   6.228
 6438SOL    HW119700   4.558   2.388   6.166
 6438SOL    HW219701   4.614   2.235   6.175
 6439SOL     OW19702   4.741   1.901   6.339
 6439SOL    HW119703   4.669   1.906   6.270
 6439SOL    HW219704   4.717   1.832   6.408
 6440SOL     OW19705   5.153   3.035   6.453
 6440SOL    HW119706   5.098   2.951   6.446
 6440SOL    HW219707   5.179   3.064   6.361
 6441SOL     OW19708   4.212   3.247   5.760
 6441SOL    HW119709   4.125   3.232   5.807
 6441SOL    HW219710   4.195   3.273   5.665
 6442SOL     OW19711   5.114   2.437   5.664
 6442SOL    HW119712   5.060   2.416   5.745
 6442SOL    HW219713   5.205   2.396   5.673
 6443SOL     OW19714   4.251   2.118   5.914
 6443SOL    HW119715   4.278   2.059   5.839
 6443SOL    HW219716   4.251   2.213   5.883
 6444SOL     OW19717   4.788   3.209   6.926
 6444SOL    HW119718   4.708   3.186   6.981
 6444SOL    HW219719   4.871   3.183   6.975
 6445SOL     OW19720   5.316   3.491   7.211
 6445SOL    HW119721   5.343   3.525   7.121
 6445SOL    HW219722   5.395   3.453   7.257
 6446SOL     OW19723   4.835   3.057   6.686
 6446SOL    HW119724   4.795   3.101   6.767
 6446SOL    HW219725   4.794   3.094   6.603
 6447SOL     OW19726   4.639   1.951   6.988
 6447SOL    HW119727   4.664   1.931   6.893
 6447SOL    HW219728   4.711   2.007   7.030
 6448SOL     OW19729   4.704   2.978   7.305
 6448SOL    HW119730   4.605   2.984   7.315
 6448SOL    HW219731   4.727   2.898   7.249
 6449SOL     OW19732   4.429   2.912   5.954
 6449SOL    HW119733   4.415   2.919   6.053
 6449SOL    HW219734   4.513   2.861   5.936
 6450SOL     OW19735   4.134   2.675   6.837
 6450SOL    HW119736   4.220   2.687   6.887
 6450SOL    HW219737   4.092   2.588   6.864
 6451SOL     OW19738   4.998   2.248   6.848
 6451SOL    HW119739   5.019   2.322   6.912
 6451SOL    HW219740   4.909   2.265   6.805
 6452SOL     OW19741   3.788   3.426   6.917
 6452SOL    HW119742   3.742   3.508   6.883
 6452SOL    HW219743   3.886   3.445   6.926
 6453SOL     OW19744   4.091   2.962   6.087
 6453SOL    HW119745   4.084   3.045   6.031
 6453SOL    HW219746   4.095   2.882   6.027
 6454SOL     OW19747   4.290   2.399   6.451
 6454SOL    HW119748   4.302   2.465   6.377
 6454SOL    HW219749   4.336   2.433   6.534
 6455SOL     OW19750   4.976   3.210   5.974
 6455SOL    HW119751   5.026   3.287   6.014
 6455SOL    HW219752   4.881   3.212   6.006
 6456SOL     OW19753   4.996   3.307   6.728
 6456SOL    HW119754   5.043   3.320   6.815
 6456SOL    HW219755   4.930   3.233   6.737
 6457SOL     OW19756   4.078   3.372   6.915
 6457SOL    HW119757   4.057   3.328   6.828
 6457SOL    HW219758   4.175   3.398   6.918
 6458SOL     OW19759   4.126   2.613   7.184
 6458SOL    HW119760   4.194   2.668   7.137
 6458SOL    HW219761   4.166   2.525   7.211
 6459SOL     OW19762   4.737   1.967   7.356
 6459SOL    HW119763   4.743   2.052   7.304
 6459SOL    HW219764   4.769   1.891   7.299
 6460SOL     OW19765   4.228   1.912   7.326
 6460SOL    HW119766   4.186   1.855   7.256
 6460SOL    HW219767   4.162   1.981   7.358
 6461SOL     OW19768   4.297   2.732   6.615
 6461SOL    HW119769   4.341   2.821   6.606
 6461SOL    HW219770   4.234   2.732   6.692
 6462SOL     OW19771   5.084   2.724   6.631
 6462SOL    HW119772   5.009   2.724   6.565
 6462SOL    HW219773   5.121   2.632   6.640
 6463SOL     OW19774   4.933   2.387   5.861
 6463SOL    HW119775   4.946   2.303   5.915
 6463SOL    HW219776   4.904   2.461   5.921
 6464SOL     OW19777   4.031   2.075   6.817
 6464SOL    HW119778   4.008   2.112   6.907
 6464SOL    HW219779   4.001   1.980   6.811
 6465SOL     OW19780   3.761   3.172   6.868
 6465SOL    HW119781   3.814   3.123   6.936
 6465SOL    HW219782   3.783   3.270   6.873
 6466SOL     OW19783   4.456   2.496   6.650
 6466SOL    HW119784   4.515   2.470   6.574
 6466SOL    HW219785   4.428   2.592   6.639
 6467SOL     OW19786   4.031   1.925   6.204
 6467SOL    HW119787   4.020   2.019   6.237
 6467SOL    HW219788   4.026   1.862   6.281
 6468SOL     OW19789   5.346   2.229   5.960
 6468SOL    HW119790   5.348   2.153   6.024
 6468SOL    HW219791   5.298   2.306   6.000
 6469SOL     OW19792   4.747   2.628   6.552
 6469SOL    HW119793   4.762   2.649   6.648
 6469SOL    HW219794   4.717   2.533   6.543
 6470SOL     OW19795   4.704   3.435   7.286
 6470SOL    HW119796   4.684   3.479   7.198
 6470SOL    HW219797   4.743   3.344   7.270
 6471SOL     OW19798   4.074   2.760   7.390
 6471SOL    HW119799   4.150   2.804   7.438
 6471SOL    HW219800   4.109   2.713   7.308
 6472SOL     OW19801   5.027   2.700   5.628
 6472SOL    HW119802   5.061   2.607   5.643
 6472SOL    HW219803   5.045   2.727   5.533
 6473SOL     OW19804   4.792   3.195   6.435
 6473SOL    HW119805   4.799   3.111   6.380
 6473SOL    HW219806   4.854   3.264   6.399
 6474SOL     OW19807   4.043   2.672   6.535
 6474SOL    HW119808   4.136   2.708   6.540
 6474SOL    HW219809   4.037   2.587   6.587
 6475SOL     OW19810   4.063   2.371   6.592
 6475SOL    HW119811   4.011   2.288   6.575
 6475SOL    HW219812   4.140   2.376   6.528
 6476SOL     OW19813   4.862   2.242   7.264
 6476SOL    HW119814   4.817   2.305   7.328
 6476SOL    HW219815   4.955   2.273   7.247
 6477SOL     OW19816   4.884   2.069   7.063
 6477SOL    HW119817   4.884   2.133   7.140
 6477SOL    HW219818   4.912   2.117   6.980
 6478SOL     OW19819   3.732   3.188   5.786
 6478SOL    HW119820   3.639   3.209   5.755
 6478SOL    HW219821   3.742   3.089   5.799
 6479SOL     OW19822   3.812   3.663   6.513
 6479SOL    HW119823   3.770   3.577   6.486
 6479SOL    HW219824   3.906   3.666   6.479
 6480SOL     OW19825   4.228   3.430   6.496
 6480SOL    HW119826   4.294   3.504   6.505
 6480SOL    HW219827   4.272   3.351   6.454
 6481SOL     OW19828   4.726   2.658   6.824
 6481SOL    HW119829   4.767   2.626   6.910
 6481SOL    HW219830   4.630   2.631   6.821
 6482SOL     OW19831   3.764   2.406   6.700
 6482SOL    HW119832   3.849   2.373   6.659
 6482SOL    HW219833   3.777   2.421   6.798
 6483SOL     OW19834   3.913   2.382   7.308
 6483SOL    HW119835   3.972   2.342   7.238
 6483SOL    HW219836   3.855   2.453   7.267
 6484SOL     OW19837   5.093   2.812   7.246
 6484SOL    HW119838   5.132   2.901   7.266
 6484SOL    HW219839   5.103   2.792   7.149
 6485SOL     OW19840   4.539   2.434   5.911
 6485SOL    HW119841   4.546   2.345   5.865
 6485SOL    HW219842   4.445   2.468   5.903
 6486SOL     OW19843   3.976   3.426   7.330
 6486SOL    HW119844   3.946   3.483   7.406
 6486SOL    HW219845   3.969   3.329   7.356
 6487SOL     OW19846   4.395   2.326   6.855
 6487SOL    HW119847   4.361   2.237   6.825
 6487SOL    HW219848   4.421   2.380   6.775
 6488SOL     OW19849   4.654   3.540   7.051
 6488SOL    HW119850   4.630   3.522   6.956
 6488SOL    HW219851   4.684   3.634   7.061
 6489SOL     OW19852   4.197   2.362   5.777
 6489SOL    HW119853   4.258   2.442   5.781
 6489SOL    HW219854   4.102   2.393   5.784
 6490SOL     OW19855   3.883   2.999   7.052
 6490SOL    HW119856   3.905   2.938   7.128
 6490SOL    HW219857   3.893   2.950   6.966
 6491SOL     OW19858   5.071   2.921   6.820
 6491SOL    HW119859   5.095   2.858   6.746
 6491SOL    HW219860   4.981   2.961   6.802
 6492SOL     OW19861   5.026   2.717   5.895
 6492SOL    HW119862   4.940   2.686   5.937
 6492SOL    HW219863   5.022   2.703   5.796
 6493SOL     OW19864   4.976   3.593   6.714
 6493SOL    HW119865   5.060   3.598   6.660
 6493SOL    HW219866   4.953   3.497   6.732
 6494SOL     OW19867   3.807   3.120   6.608
 6494SOL    HW119868   3.802   3.119   6.708
 6494SOL    HW219869   3.724   3.079   6.570
 6495SOL     OW19870   4.412   3.524   7.302
 6495SOL    HW119871   4.356   3.605   7.311
 6495SOL    HW219872   4.464   3.528   7.216
 6496SOL     OW19873   5.450   1.997   6.109
 6496SOL    HW119874   5.523   1.980   6.042
 6496SOL    HW219875   5.419   1.910   6.147
 6497SOL     OW19876   5.112   3.435   6.063
 6497SOL    HW119877   5.179   3.447   5.989
 6497SOL    HW219878   5.072   3.524   6.086
 6498SOL     OW19879   3.854   3.656   7.437
 6498SOL    HW119880   3.813   3.582   7.490
 6498SOL    HW219881   3.918   3.707   7.495
 6499SOL     OW19882   5.004   2.789   6.258
 6499SOL    HW119883   5.064   2.708   6.260
 6499SOL    HW219884   5.044   2.858   6.198
 6500SOL     OW19885   4.554   3.135   7.008
 6500SOL    HW119886   4.549   3.168   7.103
 6500SOL    HW219887   4.468   3.154   6.962
 6501SOL     OW19888   4.396   3.478   5.740
 6501SOL    HW119889   4.405   3.488   5.641
 6501SOL    HW219890   4.356   3.389   5.761
 6502SOL     OW19891   3.987   2.188   6.306
 6502SOL    HW119892   3.908   2.239   6.272
 6502SOL    HW219893   3.978   2.173   6.404
 6503SOL     OW19894   4.918   3.474   5.617
 6503SOL    HW119895   4.924   3.381   5.654
 6503SOL    HW219896   4.859   3.474   5.537
 6504SOL     OW19897   4.546   2.864   6.958
 6504SOL    HW119898   4.586   2.863   6.866
 6504SOL    HW219899   4.556   2.956   6.998
 6505SOL     OW19900   4.640   2.772   5.877
 6505SOL    HW119901   4.703   2.810   5.809
 6505SOL    HW219902   4.680   2.689   5.916
 6506SOL     OW19903   4.096   3.150   7.076
 6506SOL    HW119904   4.083   3.243   7.042
 6506SOL    HW219905   4.012   3.098   7.063
 6507SOL     OW19906   4.763   2.960   6.282
 6507SOL    HW119907   4.693   2.913   6.336
 6507SOL    HW219908   4.822   2.892   6.239
 6508SOL     OW19909   4.738   2.098   6.557
 6508SOL    HW119910   4.730   2.062   6.464
 6508SOL    HW219911   4.736   2.022   6.622
 6509SOL     OW19912   4.314   3.349   6.077
 6509SOL    HW119913   4.356   3.291   6.007
 6509SOL    HW219914   4.270   3.428   6.033
 6510SOL     OW19915   3.979   3.210   5.876
 6510SOL    HW119916   3.883   3.211   5.849
 6510SOL    HW219917   3.991   3.263   5.960
 6511SOL     OW19918   3.829   2.875   7.312
 6511SOL    HW119919   3.752   2.842   7.366
 6511SOL    HW219920   3.914   2.845   7.354
 6512SOL     OW19921   4.396   2.065   7.075
 6512SOL    HW119922   4.486   2.049   7.035
 6512SOL    HW219923   4.404   2.070   7.174
 6513SOL     OW19924   3.799   2.207   5.619
 6513SOL    HW119925   3.707   2.179   5.590
 6513SOL    HW219926   3.830   2.284   5.563
 6514SOL     OW19927   5.164   2.718   6.984
 6514SOL    HW119928   5.107   2.770   6.921
 6514SOL    HW219929   5.260   2.730   6.960
 6515SOL     OW19930   3.796   2.028   5.904
 6515SOL    HW119931   3.779   2.111   5.850
 6515SOL    HW219932   3.886   1.991   5.882
 6516SOL     OW19933   4.907   3.197   5.705
 6516SOL    HW119934   4.808   3.186   5.707
 6516SOL    HW219935   4.941   3.212   5.798
 6517SOL     OW19936   4.337   2.704   7.017
 6517SOL    HW119937   4.393   2.785   7.000
 6517SOL    HW219938   4.396   2.624   7.020
 6518SOL     OW19939   4.440   2.427   7.294
 6518SOL    HW119940   4.459   2.492   7.368
 6518SOL    HW219941   4.500   2.347   7.303
 6519SOL     OW19942   5.174   3.082   7.219
 6519SOL    HW119943   5.165   3.072   7.318
 6519SOL    HW219944   5.270   3.075   7.193
 6520SOL     OW19945   4.114   3.603   7.146
 6520SOL    HW119946   4.023   3.644   7.144
 6520SOL    HW219947   4.107   3.509   7.178
 6521SOL     OW19948   4.949   2.187   6.035
 6521SOL    HW119949   5.014   2.113   6.024
 6521SOL    HW219950   4.969   2.237   6.119
 6522SOL     OW19951   4.318   2.607   6.238
 6522SOL    HW119952   4.368   2.692   6.219
 6522SOL    HW219953   4.230   2.609   6.190
 6523SOL     OW19954   4.583   3.236   5.602
 6523SOL    HW119955   4.537   3.251   5.690
 6523SOL    HW219956   4.627   3.321   5.572
 6524SOL     OW19957   4.385   3.652   6.539
 6524SOL    HW119958   4.339   3.740   6.526
 6524SOL    HW219959   4.484   3.664   6.532
 6525SOL     OW19960   4.583   2.818   6.447
 6525SOL    HW119961   4.637   2.749   6.495
 6525SOL    HW219962   4.551   2.887   6.513
 6526SOL     OW19963   4.807   2.846   5.673
 6526SOL    HW119964   4.784   2.899   5.591
 6526SOL    HW219965   4.888   2.790   5.654
 6527SOL     OW19966   3.945   3.176   7.430
 6527SOL    HW119967   3.880   3.103   7.409
 6527SOL    HW219968   3.949   3.190   7.528
 6528SOL     OW19969   3.803   3.102   6.239
 6528SOL    HW119970   3.802   3.055   6.327
 6528SOL    HW219971   3.885   3.074   6.188
 6529SOL     OW19972   4.396   3.253   7.210
 6529SOL    HW119973   4.318   3.203   7.248
 6529SOL    HW219974   4.393   3.348   7.241
 6530SOL     OW19975   4.152   2.286   6.106
 6530SOL    HW119976   4.182   2.214   6.044
 6530SOL    HW219977   4.113   2.246   6.189
 6531SOL     OW19978   5.429   3.349   6.690
 6531SOL    HW119979   5.336   3.324   6.663
 6531SOL    HW219980   5.455   3.299   6.772
 6532SOL     OW19981   4.041   2.409   6.866
 6532SOL    HW119982   4.079   2.350   6.938
 6532SOL    HW219983   4.081   2.383   6.778
 6533SOL     OW19984   4.536   3.448   6.273
 6533SOL    HW119985   4.568   3.458   6.179
 6533SOL    HW219986   4.457   3.386   6.275
 6534SOL     OW19987   5.148   2.076   6.698
 6534SOL    HW119988   5.200   2.011   6.753
 6534SOL    HW219989   5.099   2.139   6.759
 6535SOL     OW19990   4.725   1.896   6.740
 6535SOL    HW119991   4.662   1.824   6.709
 6535SOL    HW219992   4.818   1.860   6.740
 6536SOL     OW19993   4.494   3.192   5.887
 6536SOL    HW119994   4.448   3.105   5.904
 6536SOL    HW219995   4.585   3.189   5.928
 6537SOL     OW19996   4.342   3.429   6.870
 6537SOL    HW119997   4.337   3.511   6.927
 6537SOL    HW219998   4.431   3.426   6.825
 6538SOL     OW19999   5.076   1.914   5.754
 6538SOL    HW120000   5.111   1.873   5.670
 6538SOL    HW220001   4.986   1.876   5.774
 6539SOL     OW20002   5.024   2.315   6.277
 6539SOL    HW120003   4.965   2.395   6.281
 6539SOL    HW220004   5.039   2.280   6.370
 6540SOL     OW20005   5.317   2.083   6.468
 6540SOL    HW120006   5.233   2.082   6.522
 6540SOL    HW220007   5.319   2.166   6.412
 6541SOL     OW20008   3.763   2.939   5.886
 6541SOL    HW120009   3.862   2.928   5.877
 6541SOL    HW220010   3.723   2.853   5.918
 6542SOL     OW20011   4.599   3.508   5.923
 6542SOL    HW120012   4.522   3.473   5.869
 6542SOL    HW220013   4.567   3.579   5.985
 6543SOL     OW20014   3.954   2.490   7.561
 6543SOL    HW120015   3.861   2.488   7.598
 6543SOL    HW220016   3.955   2.451   7.469
 6544SOL     OW20017   3.955   3.575   7.931
 6544SOL    HW120018   3.989   3.652   7.985
 6544SOL    HW220019   3.999   3.575   7.841
 6545SOL     OW20020   3.954   3.296   7.986
 6545SOL    HW120021   3.928   3.392   7.986
 6545SOL    HW220022   3.883   3.242   8.031
 6546SOL     OW20023   4.330   2.826   7.571
 6546SOL    HW120024   4.337   2.910   7.517
 6546SOL    HW220025   4.376   2.839   7.659
 6547SOL     OW20026   3.751   3.458   7.565
 6547SOL    HW120027   3.732   3.362   7.586
 6547SOL    HW220028   3.718   3.516   7.640
 6548SOL     OW20029   5.413   2.784   8.060
 6548SOL    HW120030   5.508   2.755   8.068
 6548SOL    HW220031   5.405   2.849   7.985
 6549SOL     OW20032   4.533   1.866   7.950
 6549SOL    HW120033   4.573   1.957   7.941
 6549SOL    HW220034   4.433   1.874   7.956
 6550SOL     OW20035   4.322   2.591   7.718
 6550SOL    HW120036   4.346   2.660   7.650
 6550SOL    HW220037   4.244   2.624   7.772
 6551SOL     OW20038   3.800   2.673   8.237
 6551SOL    HW120039   3.899   2.661   8.246
 6551SOL    HW220040   3.776   2.768   8.258
 6552SOL     OW20041   4.589   2.210   7.643
 6552SOL    HW120042   4.648   2.273   7.594
 6552SOL    HW220043   4.608   2.116   7.614
 6553SOL     OW20044   4.045   2.805   7.690
 6553SOL    HW120045   4.127   2.844   7.648
 6553SOL    HW220046   4.018   2.723   7.641
 6554SOL     OW20047   4.835   3.638   7.685
 6554SOL    HW120048   4.775   3.576   7.735
 6554SOL    HW220049   4.866   3.594   7.600
 6555SOL     OW20050   4.188   3.605   7.771
 6555SOL    HW120051   4.221   3.644   7.857
 6555SOL    HW220052   4.264   3.598   7.706
 6556SOL     OW20053   5.124   1.969   7.874
 6556SOL    HW120054   5.100   1.932   7.784
 6556SOL    HW220055   5.223   1.985   7.878
 6557SOL     OW20056   4.106   2.562   7.928
 6557SOL    HW120057   4.151   2.472   7.925
 6557SOL    HW220058   4.012   2.551   7.961
 6558SOL     OW20059   4.338   1.984   7.565
 6558SOL    HW120060   4.436   1.962   7.572
 6558SOL    HW220061   4.307   1.967   7.472
 6559SOL     OW20062   4.263   1.926   7.960
 6559SOL    HW120063   4.182   1.927   8.018
 6559SOL    HW220064   4.266   2.009   7.905
 6560SOL     OW20065   5.158   3.050   7.489
 6560SOL    HW120066   5.190   2.974   7.546
 6560SOL    HW220067   5.066   3.077   7.519
 6561SOL     OW20068   4.021   1.897   7.619
 6561SOL    HW120069   4.070   1.981   7.598
 6561SOL    HW220070   4.083   1.832   7.664
 6562SOL     OW20071   4.659   2.098   7.928
 6562SOL    HW120072   4.611   2.139   7.850
 6562SOL    HW220073   4.758   2.096   7.909
 6563SOL     OW20074   4.183   3.014   8.189
 6563SOL    HW120075   4.112   2.987   8.254
 6563SOL    HW220076   4.157   2.986   8.096
 6564SOL     OW20077   4.995   3.659   8.039
 6564SOL    HW120078   5.039   3.723   7.975
 6564SOL    HW220079   4.945   3.711   8.109
 6565SOL     OW20080   4.756   2.411   7.464
 6565SOL    HW120081   4.715   2.493   7.425
 6565SOL    HW220082   4.820   2.437   7.537
 6566SOL     OW20083   4.212   3.247   7.622
 6566SOL    HW120084   4.125   3.232   7.669
 6566SOL    HW220085   4.195   3.273   7.527
 6567SOL     OW20086   5.114   2.437   7.526
 6567SOL    HW120087   5.060   2.416   7.607
 6567SOL    HW220088   5.205   2.396   7.535
 6568SOL     OW20089   4.251   2.118   7.776
 6568SOL    HW120090   4.278   2.059   7.701
 6568SOL    HW220091   4.251   2.213   7.745
 6569SOL     OW20092   4.429   2.912   7.816
 6569SOL    HW120093   4.415   2.919   7.915
 6569SOL    HW220094   4.513   2.861   7.798
 6570SOL     OW20095   4.091   2.962   7.949
 6570SOL    HW120096   4.084   3.045   7.893
 6570SOL    HW220097   4.095   2.882   7.889
 6571SOL     OW20098   4.976   3.210   7.836
 6571SOL    HW120099   5.026   3.287   7.876
 6571SOL    HW220100   4.881   3.212   7.868
 6572SOL     OW20101   5.306   2.501   7.920
 6572SOL    HW120102   5.275   2.562   7.993
 6572SOL    HW220103   5.356   2.553   7.851
 6573SOL     OW20104   4.933   2.387   7.723
 6573SOL    HW120105   4.946   2.303   7.777
 6573SOL    HW220106   4.904   2.461   7.783
 6574SOL     OW20107   5.346   2.229   7.822
 6574SOL    HW120108   5.348   2.153   7.886
 6574SOL    HW220109   5.298   2.306   7.862
 6575SOL     OW20110   5.027   2.700   7.490
 6575SOL    HW120111   5.061   2.607   7.505
 6575SOL    HW220112   5.045   2.727   7.395
 6576SOL     OW20113   3.732   3.188   7.648
 6576SOL    HW120114   3.639   3.209   7.617
 6576SOL    HW220115   3.742   3.089   7.661
 6577SOL     OW20116   4.539   2.434   7.773
 6577SOL    HW120117   4.546   2.345   7.727
 6577SOL    HW220118   4.445   2.468   7.765
 6578SOL     OW20119   4.197   2.362   7.639
 6578SOL    HW120120   4.258   2.442   7.643
 6578SOL    HW220121   4.102   2.393   7.646
 6579SOL     OW20122   5.026   2.717   7.757
 6579SOL    HW120123   4.940   2.686   7.799
 6579SOL    HW220124   5.022   2.703   7.658
 6580SOL     OW20125   5.450   1.997   7.971
 6580SOL    HW120126   5.523   1.980   7.904
 6580SOL    HW220127   5.419   1.910   8.009
 6581SOL     OW20128   5.112   3.435   7.925
 6581SOL    HW120129   5.179   3.447   7.851
 6581SOL    HW220130   5.072   3.524   7.948
 6582SOL     OW20131   4.396   3.478   7.602
 6582SOL    HW120132   4.405   3.488   7.503
 6582SOL    HW220133   4.356   3.389   7.623
 6583SOL     OW20134   4.918   3.474   7.479
 6583SOL    HW120135   4.924   3.381   7.516
 6583SOL    HW220136   4.859   3.474   7.399
 6584SOL     OW20137   4.640   2.772   7.739
 6584SOL    HW120138   4.703   2.810   7.671
 6584SOL    HW220139   4.680   2.689   7.778
 6585SOL     OW20140   4.314   3.349   7.939
 6585SOL    HW120141   4.356   3.291   7.869
 6585SOL    HW220142   4.270   3.428   7.895
 6586SOL     OW20143   3.979   3.210   7.738
 6586SOL    HW120144   3.883   3.211   7.711
 6586SOL    HW220145   3.991   3.263   7.822
 6587SOL     OW20146   3.799   2.207   7.481
 6587SOL    HW120147   3.707   2.179   7.452
 6587SOL    HW220148   3.830   2.284   7.425
 6588SOL     OW20149   3.796   2.028   7.766
 6588SOL    HW120150   3.779   2.111   7.712
 6588SOL    HW220151   3.886   1.991   7.744
 6589SOL     OW20152   4.907   3.197   7.567
 6589SOL    HW120153   4.808   3.186   7.569
 6589SOL    HW220154   4.941   3.212   7.660
 6590SOL     OW20155   5.217   3.629   8.407
 6590SOL    HW120156   5.250   3.693   8.338
 6590SOL    HW220157   5.283   3.623   8.482
 6591SOL     OW20158   4.949   2.187   7.897
 6591SOL    HW120159   5.014   2.113   7.886
 6591SOL    HW220160   4.969   2.237   7.981
 6592SOL     OW20161   4.318   2.607   8.100
 6592SOL    HW120162   4.368   2.692   8.081
 6592SOL    HW220163   4.230   2.609   8.052
 6593SOL     OW20164   4.583   3.236   7.464
 6593SOL    HW120165   4.537   3.251   7.552
 6593SOL    HW220166   4.627   3.321   7.434
 6594SOL     OW20167   4.807   2.846   7.535
 6594SOL    HW120168   4.784   2.899   7.453
 6594SOL    HW220169   4.888   2.790   7.516
 6595SOL     OW20170   4.152   2.286   7.968
 6595SOL    HW120171   4.182   2.214   7.906
 6595SOL    HW220172   4.113   2.246   8.051
 6596SOL     OW20173   4.494   3.192   7.749
 6596SOL    HW120174   4.448   3.105   7.766
 6596SOL    HW220175   4.585   3.189   7.790
 6597SOL     OW20176   5.076   1.914   7.616
 6597SOL    HW120177   5.111   1.873   7.532
 6597SOL    HW220178   4.986   1.876   7.636
 6598SOL     OW20179   3.763   2.939   7.748
 6598SOL    HW120180   3.862   2.928   7.739
 6598SOL    HW220181   3.723   2.853   7.780
 6599SOL     OW20182   4.599   3.508   7.785
 6599SOL    HW120183   4.522   3.473   7.731
 6599SOL    HW220184   4.567   3.579   7.847
 6600SOL     OW20185   3.954   4.352   0.113
 6600SOL    HW120186   3.861   4.350   0.150
 6600SOL    HW220187   3.955   4.313   0.021
 6601SOL     OW20188   3.949   3.999   0.996
 6601SOL    HW120189   3.984   3.982   1.088
 6601SOL    HW220190   3.861   3.954   0.984
 6602SOL     OW20191   3.743   4.092   0.647
 6602SOL    HW120192   3.661   4.135   0.686
 6602SOL    HW220193   3.715   4.019   0.584
 6603SOL     OW20194   4.293   4.999   1.165
 6603SOL    HW120195   4.200   4.992   1.128
 6603SOL    HW220196   4.304   5.088   1.209
 6604SOL     OW20197   5.279   5.235   0.703
 6604SOL    HW120198   5.222   5.219   0.784
 6604SOL    HW220199   5.220   5.245   0.623
 6605SOL     OW20200   4.859   4.427   0.717
 6605SOL    HW120201   4.916   4.505   0.692
 6605SOL    HW220202   4.799   4.453   0.793
 6606SOL     OW20203   4.492   4.868   1.023
 6606SOL    HW120204   4.414   4.885   1.083
 6606SOL    HW220205   4.526   4.955   0.987
 6607SOL     OW20206   4.574   4.522   1.823
 6607SOL    HW120207   4.570   4.598   1.888
 6607SOL    HW220208   4.596   4.558   1.732
 6608SOL     OW20209   4.409   4.736   0.665
 6608SOL    HW120210   4.478   4.720   0.735
 6608SOL    HW220211   4.336   4.793   0.703
 6609SOL     OW20212   4.410   4.885   1.803
 6609SOL    HW120213   4.470   4.964   1.817
 6609SOL    HW220214   4.324   4.916   1.762
 6610SOL     OW20215   4.059   5.159   1.061
 6610SOL    HW120216   3.981   5.128   1.008
 6610SOL    HW220217   4.117   5.217   1.004
 6611SOL     OW20218   5.184   5.229   1.339
 6611SOL    HW120219   5.208   5.323   1.365
 6611SOL    HW220220   5.168   5.175   1.421
 6612SOL     OW20221   4.162   4.116   1.499
 6612SOL    HW120222   4.244   4.060   1.508
 6612SOL    HW220223   4.081   4.058   1.503
 6613SOL     OW20224   4.851   5.065   1.690
 6613SOL    HW120225   4.898   5.065   1.778
 6613SOL    HW220226   4.803   4.978   1.679
 6614SOL     OW20227   3.954   5.158   0.538
 6614SOL    HW120228   3.928   5.254   0.538
 6614SOL    HW220229   3.883   5.104   0.583
 6615SOL     OW20230   3.964   4.815   0.886
 6615SOL    HW120231   3.978   4.731   0.938
 6615SOL    HW220232   3.909   4.879   0.941
 6616SOL     OW20233   4.330   4.688   0.123
 6616SOL    HW120234   4.337   4.772   0.069
 6616SOL    HW220235   4.376   4.701   0.211
 6617SOL     OW20236   3.846   4.367   0.563
 6617SOL    HW120237   3.801   4.279   0.580
 6617SOL    HW220238   3.845   4.421   0.647
 6618SOL     OW20239   3.751   5.320   0.117
 6618SOL    HW120240   3.732   5.224   0.138
 6618SOL    HW220241   3.718   5.378   0.192
 6619SOL     OW20242   5.413   4.646   0.612
 6619SOL    HW120243   5.508   4.617   0.620
 6619SOL    HW220244   5.405   4.711   0.537
 6620SOL     OW20245   3.837   4.461   1.597
 6620SOL    HW120246   3.925   4.448   1.642
 6620SOL    HW220247   3.824   4.558   1.575
 6621SOL     OW20248   4.337   5.089   0.726
 6621SOL    HW120249   4.288   5.002   0.735
 6621SOL    HW220250   4.314   5.132   0.639
 6622SOL     OW20251   5.017   4.952   1.423
 6622SOL    HW120252   5.054   4.879   1.365
 6622SOL    HW220253   5.069   4.957   1.508
 6623SOL     OW20254   4.533   3.728   0.502
 6623SOL    HW120255   4.573   3.819   0.493
 6623SOL    HW220256   4.433   3.736   0.508
 6624SOL     OW20257   3.921   4.700   1.264
 6624SOL    HW120258   4.010   4.655   1.250
 6624SOL    HW220259   3.848   4.635   1.245
 6625SOL     OW20260   4.041   3.975   1.801
 6625SOL    HW120261   4.112   4.046   1.807
 6625SOL    HW220262   3.953   4.014   1.829
 6626SOL     OW20263   5.190   5.141   0.953
 6626SOL    HW120264   5.131   5.147   1.033
 6626SOL    HW220265   5.175   5.053   0.907
 6627SOL     OW20266   5.391   5.438   0.572
 6627SOL    HW120267   5.350   5.415   0.484
 6627SOL    HW220268   5.373   5.364   0.637
 6628SOL     OW20269   4.322   4.453   0.270
 6628SOL    HW120270   4.346   4.522   0.202
 6628SOL    HW220271   4.244   4.486   0.324
 6629SOL     OW20272   5.005   4.069   0.944
 6629SOL    HW120273   4.919   4.019   0.931
 6629SOL    HW220274   5.067   4.015   1.000
 6630SOL     OW20275   4.531   4.329   1.465
 6630SOL    HW120276   4.484   4.326   1.554
 6630SOL    HW220277   4.480   4.274   1.399
 6631SOL     OW20278   5.118   4.193   1.674
 6631SOL    HW120279   5.098   4.236   1.762
 6631SOL    HW220280   5.196   4.131   1.683
 6632SOL     OW20281   4.697   4.614   1.572
 6632SOL    HW120282   4.743   4.530   1.543
 6632SOL    HW220283   4.641   4.648   1.497
 6633SOL     OW20284   4.715   4.134   1.242
 6633SOL    HW120285   4.638   4.168   1.296
 6633SOL    HW220286   4.681   4.083   1.163
 6634SOL     OW20287   4.765   4.425   0.429
 6634SOL    HW120288   4.791   4.421   0.525
 6634SOL    HW220289   4.680   4.374   0.415
 6635SOL     OW20290   3.800   4.535   0.789
 6635SOL    HW120291   3.899   4.523   0.798
 6635SOL    HW220292   3.776   4.630   0.810
 6636SOL     OW20293   4.589   4.072   0.195
 6636SOL    HW120294   4.648   4.135   0.146
 6636SOL    HW220295   4.608   3.978   0.166
 6637SOL     OW20296   5.086   4.868   0.545
 6637SOL    HW120297   5.169   4.839   0.497
 6637SOL    HW220298   5.037   4.935   0.489
 6638SOL     OW20299   4.274   3.920   0.885
 6638SOL    HW120300   4.269   3.915   0.985
 6638SOL    HW220301   4.276   4.016   0.856
 6639SOL     OW20302   4.732   5.180   0.477
 6639SOL    HW120303   4.686   5.252   0.425
 6639SOL    HW220304   4.728   5.200   0.575
 6640SOL     OW20305   4.951   5.274   1.506
 6640SOL    HW120306   4.957   5.197   1.570
 6640SOL    HW220307   4.899   5.248   1.426
 6641SOL     OW20308   4.045   4.667   0.242
 6641SOL    HW120309   4.127   4.706   0.200
 6641SOL    HW220310   4.018   4.585   0.193
 6642SOL     OW20311   4.185   4.990   1.727
 6642SOL    HW120312   4.135   4.991   1.641
 6642SOL    HW220313   4.122   4.972   1.803
 6643SOL     OW20314   4.835   5.500   0.237
 6643SOL    HW120315   4.775   5.438   0.287
 6643SOL    HW220316   4.866   5.456   0.152
 6644SOL     OW20317   3.926   4.009   1.498
 6644SOL    HW120318   3.846   4.069   1.485
 6644SOL    HW220319   3.916   3.960   1.584
 6645SOL     OW20320   5.124   3.831   0.426
 6645SOL    HW120321   5.100   3.794   0.336
 6645SOL    HW220322   5.223   3.847   0.430
 6646SOL     OW20323   4.106   4.424   0.480
 6646SOL    HW120324   4.151   4.334   0.477
 6646SOL    HW220325   4.012   4.413   0.513
 6647SOL     OW20326   4.338   3.846   0.117
 6647SOL    HW120327   4.436   3.824   0.124
 6647SOL    HW220328   4.307   3.829   0.024
 6648SOL     OW20329   4.505   3.988   1.749
 6648SOL    HW120330   4.572   3.927   1.792
 6648SOL    HW220331   4.432   4.007   1.814
 6649SOL     OW20332   5.075   4.314   1.433
 6649SOL    HW120333   5.103   4.271   1.518
 6649SOL    HW220334   5.100   4.410   1.434
 6650SOL     OW20335   4.527   5.126   0.924
 6650SOL    HW120336   4.617   5.140   0.882
 6650SOL    HW220337   4.456   5.128   0.853
 6651SOL     OW20338   4.646   4.227   0.899
 6651SOL    HW120339   4.621   4.218   0.803
 6651SOL    HW220340   4.694   4.145   0.930
 6652SOL     OW20341   4.263   3.788   0.512
 6652SOL    HW120342   4.182   3.789   0.570
 6652SOL    HW220343   4.266   3.871   0.457
 6653SOL     OW20344   5.158   4.912   0.041
 6653SOL    HW120345   5.190   4.836   0.098
 6653SOL    HW220346   5.066   4.939   0.071
 6654SOL     OW20347   4.021   3.759   0.171
 6654SOL    HW120348   4.070   3.843   0.150
 6654SOL    HW220349   4.083   3.694   0.216
 6655SOL     OW20350   4.659   3.960   0.480
 6655SOL    HW120351   4.611   4.001   0.402
 6655SOL    HW220352   4.758   3.958   0.461
 6656SOL     OW20353   4.800   4.407   1.464
 6656SOL    HW120354   4.720   4.346   1.467
 6656SOL    HW220355   4.881   4.354   1.440
 6657SOL     OW20356   4.951   5.294   0.793
 6657SOL    HW120357   4.972   5.368   0.728
 6657SOL    HW220358   5.019   5.294   0.866
 6658SOL     OW20359   4.183   4.876   0.741
 6658SOL    HW120360   4.112   4.849   0.806
 6658SOL    HW220361   4.157   4.848   0.648
 6659SOL     OW20362   4.756   4.273   0.016
 6659SOL    HW120363   4.715   4.355  -0.023
 6659SOL    HW220364   4.820   4.299   0.089
 6660SOL     OW20365   3.802   4.280   1.386
 6660SOL    HW120366   3.894   4.279   1.345
 6660SOL    HW220367   3.796   4.354   1.453
 6661SOL     OW20368   4.285   3.946   1.147
 6661SOL    HW120369   4.323   3.862   1.184
 6661SOL    HW220370   4.197   3.965   1.191
 6662SOL     OW20371   4.590   4.178   0.642
 6662SOL    HW120372   4.558   4.250   0.580
 6662SOL    HW220373   4.614   4.097   0.589
 6663SOL     OW20374   4.741   3.763   0.753
 6663SOL    HW120375   4.669   3.768   0.684
 6663SOL    HW220376   4.717   3.694   0.822
 6664SOL     OW20377   5.153   4.897   0.867
 6664SOL    HW120378   5.098   4.813   0.860
 6664SOL    HW220379   5.179   4.926   0.775
 6665SOL     OW20380   4.212   5.109   0.174
 6665SOL    HW120381   4.125   5.094   0.221
 6665SOL    HW220382   4.195   5.135   0.079
 6666SOL     OW20383   5.114   4.299   0.078
 6666SOL    HW120384   5.060   4.278   0.159
 6666SOL    HW220385   5.205   4.258   0.087
 6667SOL     OW20386   4.251   3.980   0.328
 6667SOL    HW120387   4.278   3.921   0.253
 6667SOL    HW220388   4.251   4.075   0.297
 6668SOL     OW20389   4.788   5.071   1.340
 6668SOL    HW120390   4.708   5.048   1.395
 6668SOL    HW220391   4.871   5.045   1.389
 6669SOL     OW20392   4.835   4.919   1.100
 6669SOL    HW120393   4.795   4.963   1.181
 6669SOL    HW220394   4.794   4.956   1.017
 6670SOL     OW20395   4.639   3.813   1.402
 6670SOL    HW120396   4.664   3.793   1.307
 6670SOL    HW220397   4.711   3.869   1.444
 6671SOL     OW20398   4.704   4.840   1.719
 6671SOL    HW120399   4.605   4.846   1.729
 6671SOL    HW220400   4.727   4.760   1.663
 6672SOL     OW20401   4.429   4.774   0.368
 6672SOL    HW120402   4.415   4.781   0.467
 6672SOL    HW220403   4.513   4.723   0.350
 6673SOL     OW20404   4.134   4.537   1.251
 6673SOL    HW120405   4.220   4.549   1.301
 6673SOL    HW220406   4.092   4.450   1.278
 6674SOL     OW20407   4.998   4.110   1.262
 6674SOL    HW120408   5.019   4.184   1.326
 6674SOL    HW220409   4.909   4.127   1.219
 6675SOL     OW20410   4.091   4.824   0.501
 6675SOL    HW120411   4.084   4.907   0.445
 6675SOL    HW220412   4.095   4.744   0.441
 6676SOL     OW20413   4.290   4.261   0.865
 6676SOL    HW120414   4.302   4.327   0.791
 6676SOL    HW220415   4.336   4.295   0.948
 6677SOL     OW20416   4.976   5.072   0.388
 6677SOL    HW120417   5.026   5.149   0.428
 6677SOL    HW220418   4.881   5.074   0.420
 6678SOL     OW20419   4.996   5.169   1.142
 6678SOL    HW120420   5.043   5.182   1.229
 6678SOL    HW220421   4.930   5.095   1.151
 6679SOL     OW20422   4.078   5.234   1.329
 6679SOL    HW120423   4.057   5.190   1.242
 6679SOL    HW220424   4.175   5.260   1.332
 6680SOL     OW20425   4.126   4.475   1.598
 6680SOL    HW120426   4.194   4.530   1.551
 6680SOL    HW220427   4.166   4.387   1.625
 6681SOL     OW20428   4.737   3.829   1.770
 6681SOL    HW120429   4.743   3.914   1.718
 6681SOL    HW220430   4.769   3.753   1.713
 6682SOL     OW20431   4.228   3.774   1.740
 6682SOL    HW120432   4.186   3.717   1.670
 6682SOL    HW220433   4.162   3.843   1.772
 6683SOL     OW20434   4.297   4.594   1.029
 6683SOL    HW120435   4.341   4.683   1.020
 6683SOL    HW220436   4.234   4.594   1.106
 6684SOL     OW20437   5.084   4.586   1.045
 6684SOL    HW120438   5.009   4.586   0.979
 6684SOL    HW220439   5.121   4.494   1.054
 6685SOL     OW20440   4.933   4.249   0.275
 6685SOL    HW120441   4.946   4.165   0.329
 6685SOL    HW220442   4.904   4.323   0.335
 6686SOL     OW20443   4.031   3.937   1.231
 6686SOL    HW120444   4.008   3.974   1.321
 6686SOL    HW220445   4.001   3.842   1.225
 6687SOL     OW20446   3.761   5.034   1.282
 6687SOL    HW120447   3.814   4.985   1.350
 6687SOL    HW220448   3.783   5.132   1.287
 6688SOL     OW20449   4.456   4.358   1.064
 6688SOL    HW120450   4.515   4.332   0.988
 6688SOL    HW220451   4.428   4.454   1.053
 6689SOL     OW20452   4.031   3.787   0.618
 6689SOL    HW120453   4.020   3.881   0.651
 6689SOL    HW220454   4.026   3.724   0.695
 6690SOL     OW20455   5.346   4.091   0.374
 6690SOL    HW120456   5.348   4.015   0.438
 6690SOL    HW220457   5.298   4.168   0.414
 6691SOL     OW20458   4.747   4.490   0.966
 6691SOL    HW120459   4.762   4.511   1.062
 6691SOL    HW220460   4.717   4.395   0.957
 6692SOL     OW20461   4.074   4.622   1.804
 6692SOL    HW120462   4.150   4.666   1.852
 6692SOL    HW220463   4.109   4.575   1.722
 6693SOL     OW20464   5.027   4.562   0.042
 6693SOL    HW120465   5.061   4.469   0.057
 6693SOL    HW220466   5.045   4.589  -0.053
 6694SOL     OW20467   4.792   5.057   0.849
 6694SOL    HW120468   4.799   4.973   0.794
 6694SOL    HW220469   4.854   5.126   0.813
 6695SOL     OW20470   4.043   4.534   0.949
 6695SOL    HW120471   4.136   4.570   0.954
 6695SOL    HW220472   4.037   4.449   1.001
 6696SOL     OW20473   4.063   4.233   1.006
 6696SOL    HW120474   4.011   4.150   0.989
 6696SOL    HW220475   4.140   4.238   0.942
 6697SOL     OW20476   4.862   4.104   1.678
 6697SOL    HW120477   4.817   4.167   1.742
 6697SOL    HW220478   4.955   4.135   1.661
 6698SOL     OW20479   4.884   3.931   1.477
 6698SOL    HW120480   4.884   3.995   1.554
 6698SOL    HW220481   4.912   3.979   1.394
 6699SOL     OW20482   3.732   5.050   0.200
 6699SOL    HW120483   3.639   5.071   0.169
 6699SOL    HW220484   3.742   4.951   0.213
 6700SOL     OW20485   4.726   4.520   1.238
 6700SOL    HW120486   4.767   4.488   1.324
 6700SOL    HW220487   4.630   4.493   1.235
 6701SOL     OW20488   3.764   4.268   1.114
 6701SOL    HW120489   3.849   4.235   1.073
 6701SOL    HW220490   3.777   4.283   1.212
 6702SOL     OW20491   3.913   4.244   1.722
 6702SOL    HW120492   3.972   4.204   1.652
 6702SOL    HW220493   3.855   4.315   1.681
 6703SOL     OW20494   5.093   4.674   1.660
 6703SOL    HW120495   5.132   4.763   1.680
 6703SOL    HW220496   5.103   4.654   1.563
 6704SOL     OW20497   4.539   4.296   0.325
 6704SOL    HW120498   4.546   4.207   0.279
 6704SOL    HW220499   4.445   4.330   0.317
 6705SOL     OW20500   3.976   5.288   1.744
 6705SOL    HW120501   3.946   5.345   1.820
 6705SOL    HW220502   3.969   5.191   1.770
 6706SOL     OW20503   4.395   4.188   1.269
 6706SOL    HW120504   4.361   4.099   1.239
 6706SOL    HW220505   4.421   4.242   1.189
 6707SOL     OW20506   4.197   4.224   0.191
 6707SOL    HW120507   4.258   4.304   0.195
 6707SOL    HW220508   4.102   4.255   0.198
 6708SOL     OW20509   3.883   4.861   1.466
 6708SOL    HW120510   3.905   4.800   1.542
 6708SOL    HW220511   3.893   4.812   1.380
 6709SOL     OW20512   5.071   4.783   1.234
 6709SOL    HW120513   5.095   4.720   1.160
 6709SOL    HW220514   4.981   4.823   1.216
 6710SOL     OW20515   5.026   4.579   0.309
 6710SOL    HW120516   4.940   4.548   0.351
 6710SOL    HW220517   5.022   4.565   0.210
 6711SOL     OW20518   3.807   4.982   1.022
 6711SOL    HW120519   3.802   4.981   1.122
 6711SOL    HW220520   3.724   4.941   0.984
 6712SOL     OW20521   4.412   5.386   1.716
 6712SOL    HW120522   4.356   5.467   1.725
 6712SOL    HW220523   4.464   5.390   1.630
 6713SOL     OW20524   4.627   3.810   0.133
 6713SOL    HW120525   4.678   3.811   0.047
 6713SOL    HW220526   4.683   3.768   0.204
 6714SOL     OW20527   5.450   3.859   0.523
 6714SOL    HW120528   5.523   3.842   0.456
 6714SOL    HW220529   5.419   3.772   0.561
 6715SOL     OW20530   5.004   4.651   0.672
 6715SOL    HW120531   5.064   4.570   0.674
 6715SOL    HW220532   5.044   4.720   0.612
 6716SOL     OW20533   4.554   4.997   1.422
 6716SOL    HW120534   4.549   5.030   1.517
 6716SOL    HW220535   4.468   5.016   1.376
 6717SOL     OW20536   3.987   4.050   0.720
 6717SOL    HW120537   3.908   4.101   0.686
 6717SOL    HW220538   3.978   4.035   0.818
 6718SOL     OW20539   4.918   5.336   0.031
 6718SOL    HW120540   4.924   5.243   0.068
 6718SOL    HW220541   4.859   5.336  -0.049
 6719SOL     OW20542   4.546   4.726   1.372
 6719SOL    HW120543   4.586   4.725   1.280
 6719SOL    HW220544   4.556   4.818   1.412
 6720SOL     OW20545   4.640   4.634   0.291
 6720SOL    HW120546   4.703   4.672   0.223
 6720SOL    HW220547   4.680   4.551   0.330
 6721SOL     OW20548   4.096   5.012   1.490
 6721SOL    HW120549   4.083   5.105   1.456
 6721SOL    HW220550   4.012   4.960   1.477
 6722SOL     OW20551   4.763   4.822   0.696
 6722SOL    HW120552   4.693   4.775   0.750
 6722SOL    HW220553   4.822   4.754   0.653
 6723SOL     OW20554   4.738   3.960   0.971
 6723SOL    HW120555   4.730   3.924   0.878
 6723SOL    HW220556   4.736   3.884   1.036
 6724SOL     OW20557   3.979   5.072   0.290
 6724SOL    HW120558   3.883   5.073   0.263
 6724SOL    HW220559   3.991   5.125   0.374
 6725SOL     OW20560   3.829   4.737   1.726
 6725SOL    HW120561   3.752   4.704   1.780
 6725SOL    HW220562   3.914   4.707   1.768
 6726SOL     OW20563   4.396   3.927   1.489
 6726SOL    HW120564   4.486   3.911   1.449
 6726SOL    HW220565   4.404   3.932   1.588
 6727SOL     OW20566   3.799   4.069   0.033
 6727SOL    HW120567   3.707   4.041   0.004
 6727SOL    HW220568   3.830   4.146  -0.023
 6728SOL     OW20569   5.164   4.580   1.398
 6728SOL    HW120570   5.107   4.632   1.335
 6728SOL    HW220571   5.260   4.592   1.374
 6729SOL     OW20572   3.796   3.890   0.318
 6729SOL    HW120573   3.779   3.973   0.264
 6729SOL    HW220574   3.886   3.853   0.296
 6730SOL     OW20575   4.907   5.059   0.119
 6730SOL    HW120576   4.808   5.048   0.121
 6730SOL    HW220577   4.941   5.074   0.212
 6731SOL     OW20578   4.337   4.566   1.431
 6731SOL    HW120579   4.393   4.647   1.414
 6731SOL    HW220580   4.396   4.486   1.434
 6732SOL     OW20581   4.440   4.289   1.708
 6732SOL    HW120582   4.459   4.354   1.782
 6732SOL    HW220583   4.500   4.209   1.717
 6733SOL     OW20584   5.174   4.944   1.633
 6733SOL    HW120585   5.165   4.934   1.732
 6733SOL    HW220586   5.270   4.937   1.607
 6734SOL     OW20587   4.949   4.049   0.449
 6734SOL    HW120588   5.014   3.975   0.438
 6734SOL    HW220589   4.969   4.099   0.533
 6735SOL     OW20590   4.318   4.469   0.652
 6735SOL    HW120591   4.368   4.554   0.633
 6735SOL    HW220592   4.230   4.471   0.604
 6736SOL     OW20593   4.583   5.098   0.016
 6736SOL    HW120594   4.537   5.113   0.104
 6736SOL    HW220595   4.627   5.183  -0.014
 6737SOL     OW20596   4.583   4.680   0.861
 6737SOL    HW120597   4.637   4.611   0.909
 6737SOL    HW220598   4.551   4.749   0.927
 6738SOL     OW20599   4.807   4.708   0.087
 6738SOL    HW120600   4.784   4.761   0.005
 6738SOL    HW220601   4.888   4.652   0.068
 6739SOL     OW20602   3.945   5.038   1.844
 6739SOL    HW120603   3.880   4.965   1.823
 6739SOL    HW220604   3.949   5.052   1.942
 6740SOL     OW20605   3.803   4.964   0.653
 6740SOL    HW120606   3.802   4.917   0.741
 6740SOL    HW220607   3.885   4.936   0.602
 6741SOL     OW20608   4.396   5.115   1.624
 6741SOL    HW120609   4.318   5.065   1.662
 6741SOL    HW220610   4.393   5.210   1.655
 6742SOL     OW20611   4.152   4.148   0.520
 6742SOL    HW120612   4.182   4.076   0.458
 6742SOL    HW220613   4.113   4.108   0.603
 6743SOL     OW20614   5.429   5.211   1.104
 6743SOL    HW120615   5.336   5.186   1.077
 6743SOL    HW220616   5.455   5.161   1.186
 6744SOL     OW20617   4.041   4.271   1.280
 6744SOL    HW120618   4.079   4.212   1.352
 6744SOL    HW220619   4.081   4.245   1.192
 6745SOL     OW20620   5.148   3.938   1.112
 6745SOL    HW120621   5.200   3.873   1.167
 6745SOL    HW220622   5.099   4.001   1.173
 6746SOL     OW20623   4.725   3.758   1.154
 6746SOL    HW120624   4.662   3.686   1.123
 6746SOL    HW220625   4.818   3.722   1.154
 6747SOL     OW20626   4.494   5.054   0.301
 6747SOL    HW120627   4.448   4.967   0.318
 6747SOL    HW220628   4.585   5.051   0.342
 6748SOL     OW20629   4.342   5.291   1.284
 6748SOL    HW120630   4.337   5.373   1.341
 6748SOL    HW220631   4.431   5.288   1.239
 6749SOL     OW20632   5.076   3.776   0.168
 6749SOL    HW120633   5.111   3.735   0.084
 6749SOL    HW220634   4.986   3.738   0.188
 6750SOL     OW20635   5.024   4.177   0.691
 6750SOL    HW120636   4.965   4.257   0.695
 6750SOL    HW220637   5.039   4.142   0.784
 6751SOL     OW20638   5.317   3.945   0.882
 6751SOL    HW120639   5.233   3.944   0.936
 6751SOL    HW220640   5.319   4.028   0.826
 6752SOL     OW20641   3.763   4.801   0.300
 6752SOL    HW120642   3.862   4.790   0.291
 6752SOL    HW220643   3.723   4.715   0.332
 6753SOL     OW20644   3.954   4.352   1.975
 6753SOL    HW120645   3.861   4.350   2.012
 6753SOL    HW220646   3.955   4.313   1.883
 6754SOL     OW20647   3.949   3.999   2.858
 6754SOL    HW120648   3.984   3.982   2.950
 6754SOL    HW220649   3.861   3.954   2.846
 6755SOL     OW20650   3.743   4.092   2.509
 6755SOL    HW120651   3.661   4.135   2.548
 6755SOL    HW220652   3.715   4.019   2.446
 6756SOL     OW20653   4.293   4.999   3.027
 6756SOL    HW120654   4.200   4.992   2.990
 6756SOL    HW220655   4.304   5.088   3.071
 6757SOL     OW20656   5.279   5.235   2.565
 6757SOL    HW120657   5.222   5.219   2.646
 6757SOL    HW220658   5.220   5.245   2.485
 6758SOL     OW20659   4.859   4.427   2.579
 6758SOL    HW120660   4.916   4.505   2.554
 6758SOL    HW220661   4.799   4.453   2.655
 6759SOL     OW20662   4.492   4.868   2.885
 6759SOL    HW120663   4.414   4.885   2.945
 6759SOL    HW220664   4.526   4.955   2.849
 6760SOL     OW20665   4.574   4.522   3.685
 6760SOL    HW120666   4.570   4.598   3.750
 6760SOL    HW220667   4.596   4.558   3.594
 6761SOL     OW20668   4.409   4.736   2.527
 6761SOL    HW120669   4.478   4.720   2.597
 6761SOL    HW220670   4.336   4.793   2.565
 6762SOL     OW20671   4.410   4.885   3.665
 6762SOL    HW120672   4.470   4.964   3.679
 6762SOL    HW220673   4.324   4.916   3.624
 6763SOL     OW20674   4.059   5.159   2.923
 6763SOL    HW120675   3.981   5.128   2.870
 6763SOL    HW220676   4.117   5.217   2.866
 6764SOL     OW20677   5.184   5.229   3.201
 6764SOL    HW120678   5.208   5.323   3.227
 6764SOL    HW220679   5.168   5.175   3.283
 6765SOL     OW20680   4.162   4.116   3.361
 6765SOL    HW120681   4.244   4.060   3.370
 6765SOL    HW220682   4.081   4.058   3.365
 6766SOL     OW20683   4.851   5.065   3.552
 6766SOL    HW120684   4.898   5.065   3.640
 6766SOL    HW220685   4.803   4.978   3.541
 6767SOL     OW20686   3.954   5.158   2.400
 6767SOL    HW120687   3.928   5.254   2.400
 6767SOL    HW220688   3.883   5.104   2.445
 6768SOL     OW20689   3.964   4.815   2.748
 6768SOL    HW120690   3.978   4.731   2.800
 6768SOL    HW220691   3.909   4.879   2.803
 6769SOL     OW20692   4.330   4.688   1.985
 6769SOL    HW120693   4.337   4.772   1.931
 6769SOL    HW220694   4.376   4.701   2.073
 6770SOL     OW20695   3.846   4.367   2.425
 6770SOL    HW120696   3.801   4.279   2.442
 6770SOL    HW220697   3.845   4.421   2.509
 6771SOL     OW20698   3.751   5.320   1.979
 6771SOL    HW120699   3.732   5.224   2.000
 6771SOL    HW220700   3.718   5.378   2.054
 6772SOL     OW20701   5.413   4.646   2.474
 6772SOL    HW120702   5.508   4.617   2.482
 6772SOL    HW220703   5.405   4.711   2.399
 6773SOL     OW20704   3.837   4.461   3.459
 6773SOL    HW120705   3.925   4.448   3.504
 6773SOL    HW220706   3.824   4.558   3.437
 6774SOL     OW20707   4.337   5.089   2.588
 6774SOL    HW120708   4.288   5.002   2.597
 6774SOL    HW220709   4.314   5.132   2.501
 6775SOL     OW20710   5.017   4.952   3.285
 6775SOL    HW120711   5.054   4.879   3.227
 6775SOL    HW220712   5.069   4.957   3.370
 6776SOL     OW20713   4.533   3.728   2.364
 6776SOL    HW120714   4.573   3.819   2.355
 6776SOL    HW220715   4.433   3.736   2.370
 6777SOL     OW20716   3.921   4.700   3.126
 6777SOL    HW120717   4.010   4.655   3.112
 6777SOL    HW220718   3.848   4.635   3.107
 6778SOL     OW20719   4.041   3.975   3.663
 6778SOL    HW120720   4.112   4.046   3.669
 6778SOL    HW220721   3.953   4.014   3.691
 6779SOL     OW20722   5.190   5.141   2.815
 6779SOL    HW120723   5.131   5.147   2.895
 6779SOL    HW220724   5.175   5.053   2.769
 6780SOL     OW20725   5.391   5.438   2.434
 6780SOL    HW120726   5.350   5.415   2.346
 6780SOL    HW220727   5.373   5.364   2.499
 6781SOL     OW20728   4.322   4.453   2.132
 6781SOL    HW120729   4.346   4.522   2.064
 6781SOL    HW220730   4.244   4.486   2.186
 6782SOL     OW20731   5.005   4.069   2.806
 6782SOL    HW120732   4.919   4.019   2.793
 6782SOL    HW220733   5.067   4.015   2.862
 6783SOL     OW20734   4.531   4.329   3.327
 6783SOL    HW120735   4.484   4.326   3.416
 6783SOL    HW220736   4.480   4.274   3.261
 6784SOL     OW20737   5.118   4.193   3.536
 6784SOL    HW120738   5.098   4.236   3.624
 6784SOL    HW220739   5.196   4.131   3.545
 6785SOL     OW20740   4.697   4.614   3.434
 6785SOL    HW120741   4.743   4.530   3.405
 6785SOL    HW220742   4.641   4.648   3.359
 6786SOL     OW20743   4.715   4.134   3.104
 6786SOL    HW120744   4.638   4.168   3.158
 6786SOL    HW220745   4.681   4.083   3.025
 6787SOL     OW20746   4.765   4.425   2.291
 6787SOL    HW120747   4.791   4.421   2.387
 6787SOL    HW220748   4.680   4.374   2.277
 6788SOL     OW20749   3.800   4.535   2.651
 6788SOL    HW120750   3.899   4.523   2.660
 6788SOL    HW220751   3.776   4.630   2.672
 6789SOL     OW20752   4.589   4.072   2.057
 6789SOL    HW120753   4.648   4.135   2.008
 6789SOL    HW220754   4.608   3.978   2.028
 6790SOL     OW20755   5.086   4.868   2.407
 6790SOL    HW120756   5.169   4.839   2.359
 6790SOL    HW220757   5.037   4.935   2.351
 6791SOL     OW20758   4.274   3.920   2.747
 6791SOL    HW120759   4.269   3.915   2.847
 6791SOL    HW220760   4.276   4.016   2.718
 6792SOL     OW20761   4.732   5.180   2.339
 6792SOL    HW120762   4.686   5.252   2.287
 6792SOL    HW220763   4.728   5.200   2.437
 6793SOL     OW20764   4.951   5.274   3.368
 6793SOL    HW120765   4.957   5.197   3.432
 6793SOL    HW220766   4.899   5.248   3.288
 6794SOL     OW20767   4.045   4.667   2.104
 6794SOL    HW120768   4.127   4.706   2.062
 6794SOL    HW220769   4.018   4.585   2.055
 6795SOL     OW20770   4.185   4.990   3.589
 6795SOL    HW120771   4.135   4.991   3.503
 6795SOL    HW220772   4.122   4.972   3.665
 6796SOL     OW20773   4.835   5.500   2.099
 6796SOL    HW120774   4.775   5.438   2.149
 6796SOL    HW220775   4.866   5.456   2.014
 6797SOL     OW20776   3.926   4.009   3.360
 6797SOL    HW120777   3.846   4.069   3.347
 6797SOL    HW220778   3.916   3.960   3.446
 6798SOL     OW20779   5.124   3.831   2.288
 6798SOL    HW120780   5.100   3.794   2.198
 6798SOL    HW220781   5.223   3.847   2.292
 6799SOL     OW20782   4.106   4.424   2.342
 6799SOL    HW120783   4.151   4.334   2.339
 6799SOL    HW220784   4.012   4.413   2.375
 6800SOL     OW20785   4.338   3.846   1.979
 6800SOL    HW120786   4.436   3.824   1.986
 6800SOL    HW220787   4.307   3.829   1.886
 6801SOL     OW20788   4.505   3.988   3.611
 6801SOL    HW120789   4.572   3.927   3.654
 6801SOL    HW220790   4.432   4.007   3.676
 6802SOL     OW20791   5.075   4.314   3.295
 6802SOL    HW120792   5.103   4.271   3.380
 6802SOL    HW220793   5.100   4.410   3.296
 6803SOL     OW20794   4.527   5.126   2.786
 6803SOL    HW120795   4.617   5.140   2.744
 6803SOL    HW220796   4.456   5.128   2.715
 6804SOL     OW20797   4.646   4.227   2.761
 6804SOL    HW120798   4.621   4.218   2.665
 6804SOL    HW220799   4.694   4.145   2.792
 6805SOL     OW20800   4.263   3.788   2.374
 6805SOL    HW120801   4.182   3.789   2.432
 6805SOL    HW220802   4.266   3.871   2.319
 6806SOL     OW20803   5.158   4.912   1.903
 6806SOL    HW120804   5.190   4.836   1.960
 6806SOL    HW220805   5.066   4.939   1.933
 6807SOL     OW20806   4.021   3.759   2.033
 6807SOL    HW120807   4.070   3.843   2.012
 6807SOL    HW220808   4.083   3.694   2.078
 6808SOL     OW20809   4.659   3.960   2.342
 6808SOL    HW120810   4.611   4.001   2.264
 6808SOL    HW220811   4.758   3.958   2.323
 6809SOL     OW20812   4.800   4.407   3.326
 6809SOL    HW120813   4.720   4.346   3.329
 6809SOL    HW220814   4.881   4.354   3.302
 6810SOL     OW20815   4.951   5.294   2.655
 6810SOL    HW120816   4.972   5.368   2.590
 6810SOL    HW220817   5.019   5.294   2.728
 6811SOL     OW20818   4.183   4.876   2.603
 6811SOL    HW120819   4.112   4.849   2.668
 6811SOL    HW220820   4.157   4.848   2.510
 6812SOL     OW20821   4.756   4.273   1.878
 6812SOL    HW120822   4.715   4.355   1.839
 6812SOL    HW220823   4.820   4.299   1.951
 6813SOL     OW20824   3.802   4.280   3.248
 6813SOL    HW120825   3.894   4.279   3.207
 6813SOL    HW220826   3.796   4.354   3.315
 6814SOL     OW20827   4.285   3.946   3.009
 6814SOL    HW120828   4.323   3.862   3.046
 6814SOL    HW220829   4.197   3.965   3.053
 6815SOL     OW20830   4.590   4.178   2.504
 6815SOL    HW120831   4.558   4.250   2.442
 6815SOL    HW220832   4.614   4.097   2.451
 6816SOL     OW20833   4.741   3.763   2.615
 6816SOL    HW120834   4.669   3.768   2.546
 6816SOL    HW220835   4.717   3.694   2.684
 6817SOL     OW20836   5.153   4.897   2.729
 6817SOL    HW120837   5.098   4.813   2.722
 6817SOL    HW220838   5.179   4.926   2.637
 6818SOL     OW20839   4.212   5.109   2.036
 6818SOL    HW120840   4.125   5.094   2.083
 6818SOL    HW220841   4.195   5.135   1.941
 6819SOL     OW20842   5.114   4.299   1.940
 6819SOL    HW120843   5.060   4.278   2.021
 6819SOL    HW220844   5.205   4.258   1.949
 6820SOL     OW20845   4.251   3.980   2.190
 6820SOL    HW120846   4.278   3.921   2.115
 6820SOL    HW220847   4.251   4.075   2.159
 6821SOL     OW20848   4.788   5.071   3.202
 6821SOL    HW120849   4.708   5.048   3.257
 6821SOL    HW220850   4.871   5.045   3.251
 6822SOL     OW20851   4.835   4.919   2.962
 6822SOL    HW120852   4.795   4.963   3.043
 6822SOL    HW220853   4.794   4.956   2.879
 6823SOL     OW20854   4.639   3.813   3.264
 6823SOL    HW120855   4.664   3.793   3.169
 6823SOL    HW220856   4.711   3.869   3.306
 6824SOL     OW20857   4.704   4.840   3.581
 6824SOL    HW120858   4.605   4.846   3.591
 6824SOL    HW220859   4.727   4.760   3.525
 6825SOL     OW20860   4.429   4.774   2.230
 6825SOL    HW120861   4.415   4.781   2.329
 6825SOL    HW220862   4.513   4.723   2.212
 6826SOL     OW20863   4.134   4.537   3.113
 6826SOL    HW120864   4.220   4.549   3.163
 6826SOL    HW220865   4.092   4.450   3.140
 6827SOL     OW20866   4.998   4.110   3.124
 6827SOL    HW120867   5.019   4.184   3.188
 6827SOL    HW220868   4.909   4.127   3.081
 6828SOL     OW20869   4.091   4.824   2.363
 6828SOL    HW120870   4.084   4.907   2.307
 6828SOL    HW220871   4.095   4.744   2.303
 6829SOL     OW20872   4.290   4.261   2.727
 6829SOL    HW120873   4.302   4.327   2.653
 6829SOL    HW220874   4.336   4.295   2.810
 6830SOL     OW20875   4.976   5.072   2.250
 6830SOL    HW120876   5.026   5.149   2.290
 6830SOL    HW220877   4.881   5.074   2.282
 6831SOL     OW20878   4.996   5.169   3.004
 6831SOL    HW120879   5.043   5.182   3.091
 6831SOL    HW220880   4.930   5.095   3.013
 6832SOL     OW20881   4.078   5.234   3.191
 6832SOL    HW120882   4.057   5.190   3.104
 6832SOL    HW220883   4.175   5.260   3.194
 6833SOL     OW20884   4.126   4.475   3.460
 6833SOL    HW120885   4.194   4.530   3.413
 6833SOL    HW220886   4.166   4.387   3.487
 6834SOL     OW20887   4.737   3.829   3.632
 6834SOL    HW120888   4.743   3.914   3.580
 6834SOL    HW220889   4.769   3.753   3.575
 6835SOL     OW20890   4.228   3.774   3.602
 6835SOL    HW120891   4.186   3.717   3.532
 6835SOL    HW220892   4.162   3.843   3.634
 6836SOL     OW20893   4.297   4.594   2.891
 6836SOL    HW120894   4.341   4.683   2.882
 6836SOL    HW220895   4.234   4.594   2.968
 6837SOL     OW20896   5.084   4.586   2.907
 6837SOL    HW120897   5.009   4.586   2.841
 6837SOL    HW220898   5.121   4.494   2.916
 6838SOL     OW20899   4.933   4.249   2.137
 6838SOL    HW120900   4.946   4.165   2.191
 6838SOL    HW220901   4.904   4.323   2.197
 6839SOL     OW20902   4.031   3.937   3.093
 6839SOL    HW120903   4.008   3.974   3.183
 6839SOL    HW220904   4.001   3.842   3.087
 6840SOL     OW20905   3.761   5.034   3.144
 6840SOL    HW120906   3.814   4.985   3.212
 6840SOL    HW220907   3.783   5.132   3.149
 6841SOL     OW20908   4.456   4.358   2.926
 6841SOL    HW120909   4.515   4.332   2.850
 6841SOL    HW220910   4.428   4.454   2.915
 6842SOL     OW20911   4.031   3.787   2.480
 6842SOL    HW120912   4.020   3.881   2.513
 6842SOL    HW220913   4.026   3.724   2.557
 6843SOL     OW20914   5.346   4.091   2.236
 6843SOL    HW120915   5.348   4.015   2.300
 6843SOL    HW220916   5.298   4.168   2.276
 6844SOL     OW20917   4.747   4.490   2.828
 6844SOL    HW120918   4.762   4.511   2.924
 6844SOL    HW220919   4.717   4.395   2.819
 6845SOL     OW20920   4.074   4.622   3.666
 6845SOL    HW120921   4.150   4.666   3.714
 6845SOL    HW220922   4.109   4.575   3.584
 6846SOL     OW20923   5.027   4.562   1.904
 6846SOL    HW120924   5.061   4.469   1.919
 6846SOL    HW220925   5.045   4.589   1.809
 6847SOL     OW20926   4.792   5.057   2.711
 6847SOL    HW120927   4.799   4.973   2.656
 6847SOL    HW220928   4.854   5.126   2.675
 6848SOL     OW20929   4.043   4.534   2.811
 6848SOL    HW120930   4.136   4.570   2.816
 6848SOL    HW220931   4.037   4.449   2.863
 6849SOL     OW20932   4.063   4.233   2.868
 6849SOL    HW120933   4.011   4.150   2.851
 6849SOL    HW220934   4.140   4.238   2.804
 6850SOL     OW20935   4.862   4.104   3.540
 6850SOL    HW120936   4.817   4.167   3.604
 6850SOL    HW220937   4.955   4.135   3.523
 6851SOL     OW20938   4.884   3.931   3.339
 6851SOL    HW120939   4.884   3.995   3.416
 6851SOL    HW220940   4.912   3.979   3.256
 6852SOL     OW20941   3.732   5.050   2.062
 6852SOL    HW120942   3.639   5.071   2.031
 6852SOL    HW220943   3.742   4.951   2.075
 6853SOL     OW20944   4.726   4.520   3.100
 6853SOL    HW120945   4.767   4.488   3.186
 6853SOL    HW220946   4.630   4.493   3.097
 6854SOL     OW20947   3.764   4.268   2.976
 6854SOL    HW120948   3.849   4.235   2.935
 6854SOL    HW220949   3.777   4.283   3.074
 6855SOL     OW20950   3.913   4.244   3.584
 6855SOL    HW120951   3.972   4.204   3.514
 6855SOL    HW220952   3.855   4.315   3.543
 6856SOL     OW20953   5.093   4.674   3.522
 6856SOL    HW120954   5.132   4.763   3.542
 6856SOL    HW220955   5.103   4.654   3.425
 6857SOL     OW20956   4.539   4.296   2.187
 6857SOL    HW120957   4.546   4.207   2.141
 6857SOL    HW220958   4.445   4.330   2.179
 6858SOL     OW20959   3.976   5.288   3.606
 6858SOL    HW120960   3.946   5.345   3.682
 6858SOL    HW220961   3.969   5.191   3.632
 6859SOL     OW20962   4.395   4.188   3.131
 6859SOL    HW120963   4.361   4.099   3.101
 6859SOL    HW220964   4.421   4.242   3.051
 6860SOL     OW20965   4.197   4.224   2.053
 6860SOL    HW120966   4.258   4.304   2.057
 6860SOL    HW220967   4.102   4.255   2.060
 6861SOL     OW20968   3.883   4.861   3.328
 6861SOL    HW120969   3.905   4.800   3.404
 6861SOL    HW220970   3.893   4.812   3.242
 6862SOL     OW20971   5.071   4.783   3.096
 6862SOL    HW120972   5.095   4.720   3.022
 6862SOL    HW220973   4.981   4.823   3.078
 6863SOL     OW20974   5.026   4.579   2.171
 6863SOL    HW120975   4.940   4.548   2.213
 6863SOL    HW220976   5.022   4.565   2.072
 6864SOL     OW20977   3.807   4.982   2.884
 6864SOL    HW120978   3.802   4.981   2.984
 6864SOL    HW220979   3.724   4.941   2.846
 6865SOL     OW20980   4.412   5.386   3.578
 6865SOL    HW120981   4.356   5.467   3.587
 6865SOL    HW220982   4.464   5.390   3.492
 6866SOL     OW20983   5.450   3.859   2.385
 6866SOL    HW120984   5.523   3.842   2.318
 6866SOL    HW220985   5.419   3.772   2.423
 6867SOL     OW20986   5.004   4.651   2.534
 6867SOL    HW120987   5.064   4.570   2.536
 6867SOL    HW220988   5.044   4.720   2.474
 6868SOL     OW20989   4.554   4.997   3.284
 6868SOL    HW120990   4.549   5.030   3.379
 6868SOL    HW220991   4.468   5.016   3.238
 6869SOL     OW20992   3.987   4.050   2.582
 6869SOL    HW120993   3.908   4.101   2.548
 6869SOL    HW220994   3.978   4.035   2.680
 6870SOL     OW20995   4.546   4.726   3.234
 6870SOL    HW120996   4.586   4.725   3.142
 6870SOL    HW220997   4.556   4.818   3.274
 6871SOL     OW20998   4.640   4.634   2.153
 6871SOL    HW120999   4.703   4.672   2.085
 6871SOL    HW221000   4.680   4.551   2.192
 6872SOL     OW21001   4.096   5.012   3.352
 6872SOL    HW121002   4.083   5.105   3.318
 6872SOL    HW221003   4.012   4.960   3.339
 6873SOL     OW21004   4.763   4.822   2.558
 6873SOL    HW121005   4.693   4.775   2.612
 6873SOL    HW221006   4.822   4.754   2.515
 6874SOL     OW21007   4.738   3.960   2.833
 6874SOL    HW121008   4.730   3.924   2.740
 6874SOL    HW221009   4.736   3.884   2.898
 6875SOL     OW21010   3.979   5.072   2.152
 6875SOL    HW121011   3.883   5.073   2.125
 6875SOL    HW221012   3.991   5.125   2.236
 6876SOL     OW21013   3.829   4.737   3.588
 6876SOL    HW121014   3.752   4.704   3.642
 6876SOL    HW221015   3.914   4.707   3.630
 6877SOL     OW21016   4.396   3.927   3.351
 6877SOL    HW121017   4.486   3.911   3.311
 6877SOL    HW221018   4.404   3.932   3.450
 6878SOL     OW21019   3.799   4.069   1.895
 6878SOL    HW121020   3.707   4.041   1.866
 6878SOL    HW221021   3.830   4.146   1.839
 6879SOL     OW21022   5.164   4.580   3.260
 6879SOL    HW121023   5.107   4.632   3.197
 6879SOL    HW221024   5.260   4.592   3.236
 6880SOL     OW21025   3.796   3.890   2.180
 6880SOL    HW121026   3.779   3.973   2.126
 6880SOL    HW221027   3.886   3.853   2.158
 6881SOL     OW21028   4.907   5.059   1.981
 6881SOL    HW121029   4.808   5.048   1.983
 6881SOL    HW221030   4.941   5.074   2.074
 6882SOL     OW21031   4.337   4.566   3.293
 6882SOL    HW121032   4.393   4.647   3.276
 6882SOL    HW221033   4.396   4.486   3.296
 6883SOL     OW21034   4.440   4.289   3.570
 6883SOL    HW121035   4.459   4.354   3.644
 6883SOL    HW221036   4.500   4.209   3.579
 6884SOL     OW21037   5.174   4.944   3.495
 6884SOL    HW121038   5.165   4.934   3.594
 6884SOL    HW221039   5.270   4.937   3.469
 6885SOL     OW21040   4.949   4.049   2.311
 6885SOL    HW121041   5.014   3.975   2.300
 6885SOL    HW221042   4.969   4.099   2.395
 6886SOL     OW21043   4.318   4.469   2.514
 6886SOL    HW121044   4.368   4.554   2.495
 6886SOL    HW221045   4.230   4.471   2.466
 6887SOL     OW21046   4.583   5.098   1.878
 6887SOL    HW121047   4.537   5.113   1.966
 6887SOL    HW221048   4.627   5.183   1.848
 6888SOL     OW21049   4.583   4.680   2.723
 6888SOL    HW121050   4.637   4.611   2.771
 6888SOL    HW221051   4.551   4.749   2.789
 6889SOL     OW21052   4.807   4.708   1.949
 6889SOL    HW121053   4.784   4.761   1.867
 6889SOL    HW221054   4.888   4.652   1.930
 6890SOL     OW21055   3.945   5.038   3.706
 6890SOL    HW121056   3.880   4.965   3.685
 6890SOL    HW221057   3.949   5.052   3.804
 6891SOL     OW21058   3.803   4.964   2.515
 6891SOL    HW121059   3.802   4.917   2.603
 6891SOL    HW221060   3.885   4.936   2.464
 6892SOL     OW21061   4.396   5.115   3.486
 6892SOL    HW121062   4.318   5.065   3.524
 6892SOL    HW221063   4.393   5.210   3.517
 6893SOL     OW21064   4.152   4.148   2.382
 6893SOL    HW121065   4.182   4.076   2.320
 6893SOL    HW221066   4.113   4.108   2.465
 6894SOL     OW21067   5.429   5.211   2.966
 6894SOL    HW121068   5.336   5.186   2.939
 6894SOL    HW221069   5.455   5.161   3.048
 6895SOL     OW21070   4.041   4.271   3.142
 6895SOL    HW121071   4.079   4.212   3.214
 6895SOL    HW221072   4.081   4.245   3.054
 6896SOL     OW21073   5.148   3.938   2.974
 6896SOL    HW121074   5.200   3.873   3.029
 6896SOL    HW221075   5.099   4.001   3.035
 6897SOL     OW21076   4.725   3.758   3.016
 6897SOL    HW121077   4.662   3.686   2.985
 6897SOL    HW221078   4.818   3.722   3.016
 6898SOL     OW21079   4.494   5.054   2.163
 6898SOL    HW121080   4.448   4.967   2.180
 6898SOL    HW221081   4.585   5.051   2.204
 6899SOL     OW21082   4.342   5.291   3.146
 6899SOL    HW121083   4.337   5.373   3.203
 6899SOL    HW221084   4.431   5.288   3.101
 6900SOL     OW21085   5.076   3.776   2.030
 6900SOL    HW121086   5.111   3.735   1.946
 6900SOL    HW221087   4.986   3.738   2.050
 6901SOL     OW21088   5.024   4.177   2.553
 6901SOL    HW121089   4.965   4.257   2.557
 6901SOL    HW221090   5.039   4.142   2.646
 6902SOL     OW21091   5.317   3.945   2.744
 6902SOL    HW121092   5.233   3.944   2.798
 6902SOL    HW221093   5.319   4.028   2.688
 6903SOL     OW21094   3.763   4.801   2.162
 6903SOL    HW121095   3.862   4.790   2.153
 6903SOL    HW221096   3.723   4.715   2.194
 6904SOL     OW21097   3.954   4.352   3.837
 6904SOL    HW121098   3.861   4.350   3.874
 6904SOL    HW221099   3.955   4.313   3.745
 6905SOL     OW21100   3.949   3.999   4.720
 6905SOL    HW121101   3.984   3.982   4.812
 6905SOL    HW221102   3.861   3.954   4.708
 6906SOL     OW21103   3.743   4.092   4.371
 6906SOL    HW121104   3.661   4.135   4.410
 6906SOL    HW221105   3.715   4.019   4.308
 6907SOL     OW21106   4.293   4.999   4.889
 6907SOL    HW121107   4.200   4.992   4.852
 6907SOL    HW221108   4.304   5.088   4.933
 6908SOL     OW21109   5.279   5.235   4.427
 6908SOL    HW121110   5.222   5.219   4.508
 6908SOL    HW221111   5.220   5.245   4.347
 6909SOL     OW21112   4.859   4.427   4.441
 6909SOL    HW121113   4.916   4.505   4.416
 6909SOL    HW221114   4.799   4.453   4.517
 6910SOL     OW21115   4.492   4.868   4.747
 6910SOL    HW121116   4.414   4.885   4.807
 6910SOL    HW221117   4.526   4.955   4.711
 6911SOL     OW21118   4.574   4.522   5.547
 6911SOL    HW121119   4.570   4.598   5.612
 6911SOL    HW221120   4.596   4.558   5.456
 6912SOL     OW21121   4.409   4.736   4.389
 6912SOL    HW121122   4.478   4.720   4.459
 6912SOL    HW221123   4.336   4.793   4.427
 6913SOL     OW21124   4.410   4.885   5.527
 6913SOL    HW121125   4.470   4.964   5.541
 6913SOL    HW221126   4.324   4.916   5.486
 6914SOL     OW21127   4.059   5.159   4.785
 6914SOL    HW121128   3.981   5.128   4.732
 6914SOL    HW221129   4.117   5.217   4.728
 6915SOL     OW21130   5.184   5.229   5.063
 6915SOL    HW121131   5.208   5.323   5.089
 6915SOL    HW221132   5.168   5.175   5.145
 6916SOL     OW21133   4.162   4.116   5.223
 6916SOL    HW121134   4.244   4.060   5.232
 6916SOL    HW221135   4.081   4.058   5.227
 6917SOL     OW21136   4.851   5.065   5.414
 6917SOL    HW121137   4.898   5.065   5.502
 6917SOL    HW221138   4.803   4.978   5.403
 6918SOL     OW21139   3.954   5.158   4.262
 6918SOL    HW121140   3.928   5.254   4.262
 6918SOL    HW221141   3.883   5.104   4.307
 6919SOL     OW21142   3.964   4.815   4.610
 6919SOL    HW121143   3.978   4.731   4.662
 6919SOL    HW221144   3.909   4.879   4.665
 6920SOL     OW21145   4.330   4.688   3.847
 6920SOL    HW121146   4.337   4.772   3.793
 6920SOL    HW221147   4.376   4.701   3.935
 6921SOL     OW21148   3.846   4.367   4.287
 6921SOL    HW121149   3.801   4.279   4.304
 6921SOL    HW221150   3.845   4.421   4.371
 6922SOL     OW21151   3.751   5.320   3.841
 6922SOL    HW121152   3.732   5.224   3.862
 6922SOL    HW221153   3.718   5.378   3.916
 6923SOL     OW21154   5.413   4.646   4.336
 6923SOL    HW121155   5.508   4.617   4.344
 6923SOL    HW221156   5.405   4.711   4.261
 6924SOL     OW21157   3.837   4.461   5.321
 6924SOL    HW121158   3.925   4.448   5.366
 6924SOL    HW221159   3.824   4.558   5.299
 6925SOL     OW21160   4.337   5.089   4.450
 6925SOL    HW121161   4.288   5.002   4.459
 6925SOL    HW221162   4.314   5.132   4.363
 6926SOL     OW21163   5.017   4.952   5.147
 6926SOL    HW121164   5.054   4.879   5.089
 6926SOL    HW221165   5.069   4.957   5.232
 6927SOL     OW21166   4.533   3.728   4.226
 6927SOL    HW121167   4.573   3.819   4.217
 6927SOL    HW221168   4.433   3.736   4.232
 6928SOL     OW21169   3.921   4.700   4.988
 6928SOL    HW121170   4.010   4.655   4.974
 6928SOL    HW221171   3.848   4.635   4.969
 6929SOL     OW21172   4.041   3.975   5.525
 6929SOL    HW121173   4.112   4.046   5.531
 6929SOL    HW221174   3.953   4.014   5.553
 6930SOL     OW21175   5.190   5.141   4.677
 6930SOL    HW121176   5.131   5.147   4.757
 6930SOL    HW221177   5.175   5.053   4.631
 6931SOL     OW21178   5.391   5.438   4.296
 6931SOL    HW121179   5.350   5.415   4.208
 6931SOL    HW221180   5.373   5.364   4.361
 6932SOL     OW21181   4.322   4.453   3.994
 6932SOL    HW121182   4.346   4.522   3.926
 6932SOL    HW221183   4.244   4.486   4.048
 6933SOL     OW21184   5.005   4.069   4.668
 6933SOL    HW121185   4.919   4.019   4.655
 6933SOL    HW221186   5.067   4.015   4.724
 6934SOL     OW21187   4.531   4.329   5.189
 6934SOL    HW121188   4.484   4.326   5.278
 6934SOL    HW221189   4.480   4.274   5.123
 6935SOL     OW21190   5.118   4.193   5.398
 6935SOL    HW121191   5.098   4.236   5.486
 6935SOL    HW221192   5.196   4.131   5.407
 6936SOL     OW21193   4.697   4.614   5.296
 6936SOL    HW121194   4.743   4.530   5.267
 6936SOL    HW221195   4.641   4.648   5.221
 6937SOL     OW21196   4.715   4.134   4.966
 6937SOL    HW121197   4.638   4.168   5.020
 6937SOL    HW221198   4.681   4.083   4.887
 6938SOL     OW21199   4.765   4.425   4.153
 6938SOL    HW121200   4.791   4.421   4.249
 6938SOL    HW221201   4.680   4.374   4.139
 6939SOL     OW21202   3.800   4.535   4.513
 6939SOL    HW121203   3.899   4.523   4.522
 6939SOL    HW221204   3.776   4.630   4.534
 6940SOL     OW21205   4.589   4.072   3.919
 6940SOL    HW121206   4.648   4.135   3.870
 6940SOL    HW221207   4.608   3.978   3.890
 6941SOL     OW21208   5.086   4.868   4.269
 6941SOL    HW121209   5.169   4.839   4.221
 6941SOL    HW221210   5.037   4.935   4.213
 6942SOL     OW21211   4.274   3.920   4.609
 6942SOL    HW121212   4.269   3.915   4.709
 6942SOL    HW221213   4.276   4.016   4.580
 6943SOL     OW21214   4.732   5.180   4.201
 6943SOL    HW121215   4.686   5.252   4.149
 6943SOL    HW221216   4.728   5.200   4.299
 6944SOL     OW21217   4.951   5.274   5.230
 6944SOL    HW121218   4.957   5.197   5.294
 6944SOL    HW221219   4.899   5.248   5.150
 6945SOL     OW21220   4.045   4.667   3.966
 6945SOL    HW121221   4.127   4.706   3.924
 6945SOL    HW221222   4.018   4.585   3.917
 6946SOL     OW21223   4.185   4.990   5.451
 6946SOL    HW121224   4.135   4.991   5.365
 6946SOL    HW221225   4.122   4.972   5.527
 6947SOL     OW21226   4.835   5.500   3.961
 6947SOL    HW121227   4.775   5.438   4.011
 6947SOL    HW221228   4.866   5.456   3.876
 6948SOL     OW21229   3.926   4.009   5.222
 6948SOL    HW121230   3.846   4.069   5.209
 6948SOL    HW221231   3.916   3.960   5.308
 6949SOL     OW21232   5.124   3.831   4.150
 6949SOL    HW121233   5.100   3.794   4.060
 6949SOL    HW221234   5.223   3.847   4.154
 6950SOL     OW21235   4.106   4.424   4.204
 6950SOL    HW121236   4.151   4.334   4.201
 6950SOL    HW221237   4.012   4.413   4.237
 6951SOL     OW21238   4.338   3.846   3.841
 6951SOL    HW121239   4.436   3.824   3.848
 6951SOL    HW221240   4.307   3.829   3.748
 6952SOL     OW21241   4.505   3.988   5.473
 6952SOL    HW121242   4.572   3.927   5.516
 6952SOL    HW221243   4.432   4.007   5.538
 6953SOL     OW21244   5.075   4.314   5.157
 6953SOL    HW121245   5.103   4.271   5.242
 6953SOL    HW221246   5.100   4.410   5.158
 6954SOL     OW21247   4.527   5.126   4.648
 6954SOL    HW121248   4.617   5.140   4.606
 6954SOL    HW221249   4.456   5.128   4.577
 6955SOL     OW21250   4.646   4.227   4.623
 6955SOL    HW121251   4.621   4.218   4.527
 6955SOL    HW221252   4.694   4.145   4.654
 6956SOL     OW21253   4.263   3.788   4.236
 6956SOL    HW121254   4.182   3.789   4.294
 6956SOL    HW221255   4.266   3.871   4.181
 6957SOL     OW21256   5.158   4.912   3.765
 6957SOL    HW121257   5.190   4.836   3.822
 6957SOL    HW221258   5.066   4.939   3.795
 6958SOL     OW21259   4.021   3.759   3.895
 6958SOL    HW121260   4.070   3.843   3.874
 6958SOL    HW221261   4.083   3.694   3.940
 6959SOL     OW21262   4.659   3.960   4.204
 6959SOL    HW121263   4.611   4.001   4.126
 6959SOL    HW221264   4.758   3.958   4.185
 6960SOL     OW21265   4.800   4.407   5.188
 6960SOL    HW121266   4.720   4.346   5.191
 6960SOL    HW221267   4.881   4.354   5.164
 6961SOL     OW21268   4.951   5.294   4.517
 6961SOL    HW121269   4.972   5.368   4.452
 6961SOL    HW221270   5.019   5.294   4.590
 6962SOL     OW21271   4.183   4.876   4.465
 6962SOL    HW121272   4.112   4.849   4.530
 6962SOL    HW221273   4.157   4.848   4.372
 6963SOL     OW21274   4.756   4.273   3.740
 6963SOL    HW121275   4.715   4.355   3.701
 6963SOL    HW221276   4.820   4.299   3.813
 6964SOL     OW21277   3.802   4.280   5.110
 6964SOL    HW121278   3.894   4.279   5.069
 6964SOL    HW221279   3.796   4.354   5.177
 6965SOL     OW21280   4.285   3.946   4.871
 6965SOL    HW121281   4.323   3.862   4.908
 6965SOL    HW221282   4.197   3.965   4.915
 6966SOL     OW21283   4.590   4.178   4.366
 6966SOL    HW121284   4.558   4.250   4.304
 6966SOL    HW221285   4.614   4.097   4.313
 6967SOL     OW21286   4.741   3.763   4.477
 6967SOL    HW121287   4.669   3.768   4.408
 6967SOL    HW221288   4.717   3.694   4.546
 6968SOL     OW21289   5.153   4.897   4.591
 6968SOL    HW121290   5.098   4.813   4.584
 6968SOL    HW221291   5.179   4.926   4.499
 6969SOL     OW21292   4.212   5.109   3.898
 6969SOL    HW121293   4.125   5.094   3.945
 6969SOL    HW221294   4.195   5.135   3.803
 6970SOL     OW21295   5.114   4.299   3.802
 6970SOL    HW121296   5.060   4.278   3.883
 6970SOL    HW221297   5.205   4.258   3.811
 6971SOL     OW21298   4.251   3.980   4.052
 6971SOL    HW121299   4.278   3.921   3.977
 6971SOL    HW221300   4.251   4.075   4.021
 6972SOL     OW21301   4.788   5.071   5.064
 6972SOL    HW121302   4.708   5.048   5.119
 6972SOL    HW221303   4.871   5.045   5.113
 6973SOL     OW21304   4.835   4.919   4.824
 6973SOL    HW121305   4.795   4.963   4.905
 6973SOL    HW221306   4.794   4.956   4.741
 6974SOL     OW21307   4.639   3.813   5.126
 6974SOL    HW121308   4.664   3.793   5.031
 6974SOL    HW221309   4.711   3.869   5.168
 6975SOL     OW21310   4.704   4.840   5.443
 6975SOL    HW121311   4.605   4.846   5.453
 6975SOL    HW221312   4.727   4.760   5.387
 6976SOL     OW21313   4.429   4.774   4.092
 6976SOL    HW121314   4.415   4.781   4.191
 6976SOL    HW221315   4.513   4.723   4.074
 6977SOL     OW21316   4.134   4.537   4.975
 6977SOL    HW121317   4.220   4.549   5.025
 6977SOL    HW221318   4.092   4.450   5.002
 6978SOL     OW21319   4.998   4.110   4.986
 6978SOL    HW121320   5.019   4.184   5.050
 6978SOL    HW221321   4.909   4.127   4.943
 6979SOL     OW21322   4.091   4.824   4.225
 6979SOL    HW121323   4.084   4.907   4.169
 6979SOL    HW221324   4.095   4.744   4.165
 6980SOL     OW21325   4.290   4.261   4.589
 6980SOL    HW121326   4.302   4.327   4.515
 6980SOL    HW221327   4.336   4.295   4.672
 6981SOL     OW21328   4.976   5.072   4.112
 6981SOL    HW121329   5.026   5.149   4.152
 6981SOL    HW221330   4.881   5.074   4.144
 6982SOL     OW21331   4.996   5.169   4.866
 6982SOL    HW121332   5.043   5.182   4.953
 6982SOL    HW221333   4.930   5.095   4.875
 6983SOL     OW21334   4.078   5.234   5.053
 6983SOL    HW121335   4.057   5.190   4.966
 6983SOL    HW221336   4.175   5.260   5.056
 6984SOL     OW21337   4.126   4.475   5.322
 6984SOL    HW121338   4.194   4.530   5.275
 6984SOL    HW221339   4.166   4.387   5.349
 6985SOL     OW21340   4.737   3.829   5.494
 6985SOL    HW121341   4.743   3.914   5.442
 6985SOL    HW221342   4.769   3.753   5.437
 6986SOL     OW21343   4.228   3.774   5.464
 6986SOL    HW121344   4.186   3.717   5.394
 6986SOL    HW221345   4.162   3.843   5.496
 6987SOL     OW21346   4.297   4.594   4.753
 6987SOL    HW121347   4.341   4.683   4.744
 6987SOL    HW221348   4.234   4.594   4.830
 6988SOL     OW21349   5.084   4.586   4.769
 6988SOL    HW121350   5.009   4.586   4.703
 6988SOL    HW221351   5.121   4.494   4.778
 6989SOL     OW21352   4.933   4.249   3.999
 6989SOL    HW121353   4.946   4.165   4.053
 6989SOL    HW221354   4.904   4.323   4.059
 6990SOL     OW21355   4.031   3.937   4.955
 6990SOL    HW121356   4.008   3.974   5.045
 6990SOL    HW221357   4.001   3.842   4.949
 6991SOL     OW21358   3.761   5.034   5.006
 6991SOL    HW121359   3.814   4.985   5.074
 6991SOL    HW221360   3.783   5.132   5.011
 6992SOL     OW21361   4.456   4.358   4.788
 6992SOL    HW121362   4.515   4.332   4.712
 6992SOL    HW221363   4.428   4.454   4.777
 6993SOL     OW21364   4.031   3.787   4.342
 6993SOL    HW121365   4.020   3.881   4.375
 6993SOL    HW221366   4.026   3.724   4.419
 6994SOL     OW21367   5.346   4.091   4.098
 6994SOL    HW121368   5.348   4.015   4.162
 6994SOL    HW221369   5.298   4.168   4.138
 6995SOL     OW21370   4.747   4.490   4.690
 6995SOL    HW121371   4.762   4.511   4.786
 6995SOL    HW221372   4.717   4.395   4.681
 6996SOL     OW21373   4.074   4.622   5.528
 6996SOL    HW121374   4.150   4.666   5.576
 6996SOL    HW221375   4.109   4.575   5.446
 6997SOL     OW21376   5.027   4.562   3.766
 6997SOL    HW121377   5.061   4.469   3.781
 6997SOL    HW221378   5.045   4.589   3.671
 6998SOL     OW21379   4.792   5.057   4.573
 6998SOL    HW121380   4.799   4.973   4.518
 6998SOL    HW221381   4.854   5.126   4.537
 6999SOL     OW21382   4.043   4.534   4.673
 6999SOL    HW121383   4.136   4.570   4.678
 6999SOL    HW221384   4.037   4.449   4.725
 7000SOL     OW21385   4.063   4.233   4.730
 7000SOL    HW121386   4.011   4.150   4.713
 7000SOL    HW221387   4.140   4.238   4.666
 7001SOL     OW21388   4.862   4.104   5.402
 7001SOL    HW121389   4.817   4.167   5.466
 7001SOL    HW221390   4.955   4.135   5.385
 7002SOL     OW21391   4.884   3.931   5.201
 7002SOL    HW121392   4.884   3.995   5.278
 7002SOL    HW221393   4.912   3.979   5.118
 7003SOL     OW21394   3.732   5.050   3.924
 7003SOL    HW121395   3.639   5.071   3.893
 7003SOL    HW221396   3.742   4.951   3.937
 7004SOL     OW21397   4.726   4.520   4.962
 7004SOL    HW121398   4.767   4.488   5.048
 7004SOL    HW221399   4.630   4.493   4.959
 7005SOL     OW21400   3.764   4.268   4.838
 7005SOL    HW121401   3.849   4.235   4.797
 7005SOL    HW221402   3.777   4.283   4.936
 7006SOL     OW21403   3.913   4.244   5.446
 7006SOL    HW121404   3.972   4.204   5.376
 7006SOL    HW221405   3.855   4.315   5.405
 7007SOL     OW21406   5.093   4.674   5.384
 7007SOL    HW121407   5.132   4.763   5.404
 7007SOL    HW221408   5.103   4.654   5.287
 7008SOL     OW21409   4.539   4.296   4.049
 7008SOL    HW121410   4.546   4.207   4.003
 7008SOL    HW221411   4.445   4.330   4.041
 7009SOL     OW21412   3.976   5.288   5.468
 7009SOL    HW121413   3.946   5.345   5.544
 7009SOL    HW221414   3.969   5.191   5.494
 7010SOL     OW21415   4.395   4.188   4.993
 7010SOL    HW121416   4.361   4.099   4.963
 7010SOL    HW221417   4.421   4.242   4.913
 7011SOL     OW21418   4.197   4.224   3.915
 7011SOL    HW121419   4.258   4.304   3.919
 7011SOL    HW221420   4.102   4.255   3.922
 7012SOL     OW21421   3.883   4.861   5.190
 7012SOL    HW121422   3.905   4.800   5.266
 7012SOL    HW221423   3.893   4.812   5.104
 7013SOL     OW21424   5.071   4.783   4.958
 7013SOL    HW121425   5.095   4.720   4.884
 7013SOL    HW221426   4.981   4.823   4.940
 7014SOL     OW21427   5.026   4.579   4.033
 7014SOL    HW121428   4.940   4.548   4.075
 7014SOL    HW221429   5.022   4.565   3.934
 7015SOL     OW21430   3.807   4.982   4.746
 7015SOL    HW121431   3.802   4.981   4.846
 7015SOL    HW221432   3.724   4.941   4.708
 7016SOL     OW21433   4.412   5.386   5.440
 7016SOL    HW121434   4.356   5.467   5.449
 7016SOL    HW221435   4.464   5.390   5.354
 7017SOL     OW21436   5.450   3.859   4.247
 7017SOL    HW121437   5.523   3.842   4.180
 7017SOL    HW221438   5.419   3.772   4.285
 7018SOL     OW21439   5.004   4.651   4.396
 7018SOL    HW121440   5.064   4.570   4.398
 7018SOL    HW221441   5.044   4.720   4.336
 7019SOL     OW21442   4.554   4.997   5.146
 7019SOL    HW121443   4.549   5.030   5.241
 7019SOL    HW221444   4.468   5.016   5.100
 7020SOL     OW21445   3.987   4.050   4.444
 7020SOL    HW121446   3.908   4.101   4.410
 7020SOL    HW221447   3.978   4.035   4.542
 7021SOL     OW21448   4.546   4.726   5.096
 7021SOL    HW121449   4.586   4.725   5.004
 7021SOL    HW221450   4.556   4.818   5.136
 7022SOL     OW21451   4.640   4.634   4.015
 7022SOL    HW121452   4.703   4.672   3.947
 7022SOL    HW221453   4.680   4.551   4.054
 7023SOL     OW21454   4.096   5.012   5.214
 7023SOL    HW121455   4.083   5.105   5.180
 7023SOL    HW221456   4.012   4.960   5.201
 7024SOL     OW21457   4.763   4.822   4.420
 7024SOL    HW121458   4.693   4.775   4.474
 7024SOL    HW221459   4.822   4.754   4.377
 7025SOL     OW21460   4.738   3.960   4.695
 7025SOL    HW121461   4.730   3.924   4.602
 7025SOL    HW221462   4.736   3.884   4.760
 7026SOL     OW21463   3.979   5.072   4.014
 7026SOL    HW121464   3.883   5.073   3.987
 7026SOL    HW221465   3.991   5.125   4.098
 7027SOL     OW21466   3.829   4.737   5.450
 7027SOL    HW121467   3.752   4.704   5.504
 7027SOL    HW221468   3.914   4.707   5.492
 7028SOL     OW21469   4.396   3.927   5.213
 7028SOL    HW121470   4.486   3.911   5.173
 7028SOL    HW221471   4.404   3.932   5.312
 7029SOL     OW21472   3.799   4.069   3.757
 7029SOL    HW121473   3.707   4.041   3.728
 7029SOL    HW221474   3.830   4.146   3.701
 7030SOL     OW21475   5.164   4.580   5.122
 7030SOL    HW121476   5.107   4.632   5.059
 7030SOL    HW221477   5.260   4.592   5.098
 7031SOL     OW21478   3.796   3.890   4.042
 7031SOL    HW121479   3.779   3.973   3.988
 7031SOL    HW221480   3.886   3.853   4.020
 7032SOL     OW21481   4.907   5.059   3.843
 7032SOL    HW121482   4.808   5.048   3.845
 7032SOL    HW221483   4.941   5.074   3.936
 7033SOL     OW21484   4.337   4.566   5.155
 7033SOL    HW121485   4.393   4.647   5.138
 7033SOL    HW221486   4.396   4.486   5.158
 7034SOL     OW21487   4.440   4.289   5.432
 7034SOL    HW121488   4.459   4.354   5.506
 7034SOL    HW221489   4.500   4.209   5.441
 7035SOL     OW21490   5.174   4.944   5.357
 7035SOL    HW121491   5.165   4.934   5.456
 7035SOL    HW221492   5.270   4.937   5.331
 7036SOL     OW21493   4.949   4.049   4.173
 7036SOL    HW121494   5.014   3.975   4.162
 7036SOL    HW221495   4.969   4.099   4.257
 7037SOL     OW21496   4.318   4.469   4.376
 7037SOL    HW121497   4.368   4.554   4.357
 7037SOL    HW221498   4.230   4.471   4.328
 7038SOL     OW21499   4.583   5.098   3.740
 7038SOL    HW121500   4.537   5.113   3.828
 7038SOL    HW221501   4.627   5.183   3.710
 7039SOL     OW21502   4.583   4.680   4.585
 7039SOL    HW121503   4.637   4.611   4.633
 7039SOL    HW221504   4.551   4.749   4.651
 7040SOL     OW21505   4.807   4.708   3.811
 7040SOL    HW121506   4.784   4.761   3.729
 7040SOL    HW221507   4.888   4.652   3.792
 7041SOL     OW21508   3.945   5.038   5.568
 7041SOL    HW121509   3.880   4.965   5.547
 7041SOL    HW221510   3.949   5.052   5.666
 7042SOL     OW21511   3.803   4.964   4.377
 7042SOL    HW121512   3.802   4.917   4.465
 7042SOL    HW221513   3.885   4.936   4.326
 7043SOL     OW21514   4.396   5.115   5.348
 7043SOL    HW121515   4.318   5.065   5.386
 7043SOL    HW221516   4.393   5.210   5.379
 7044SOL     OW21517   4.152   4.148   4.244
 7044SOL    HW121518   4.182   4.076   4.182
 7044SOL    HW221519   4.113   4.108   4.327
 7045SOL     OW21520   5.429   5.211   4.828
 7045SOL    HW121521   5.336   5.186   4.801
 7045SOL    HW221522   5.455   5.161   4.910
 7046SOL     OW21523   4.041   4.271   5.004
 7046SOL    HW121524   4.079   4.212   5.076
 7046SOL    HW221525   4.081   4.245   4.916
 7047SOL     OW21526   5.148   3.938   4.836
 7047SOL    HW121527   5.200   3.873   4.891
 7047SOL    HW221528   5.099   4.001   4.897
 7048SOL     OW21529   4.725   3.758   4.878
 7048SOL    HW121530   4.662   3.686   4.847
 7048SOL    HW221531   4.818   3.722   4.878
 7049SOL     OW21532   4.494   5.054   4.025
 7049SOL    HW121533   4.448   4.967   4.042
 7049SOL    HW221534   4.585   5.051   4.066
 7050SOL     OW21535   4.342   5.291   5.008
 7050SOL    HW121536   4.337   5.373   5.065
 7050SOL    HW221537   4.431   5.288   4.963
 7051SOL     OW21538   5.076   3.776   3.892
 7051SOL    HW121539   5.111   3.735   3.808
 7051SOL    HW221540   4.986   3.738   3.912
 7052SOL     OW21541   5.024   4.177   4.415
 7052SOL    HW121542   4.965   4.257   4.419
 7052SOL    HW221543   5.039   4.142   4.508
 7053SOL     OW21544   5.317   3.945   4.606
 7053SOL    HW121545   5.233   3.944   4.660
 7053SOL    HW221546   5.319   4.028   4.550
 7054SOL     OW21547   3.763   4.801   4.024
 7054SOL    HW121548   3.862   4.790   4.015
 7054SOL    HW221549   3.723   4.715   4.056
 7055SOL     OW21550   3.954   4.352   5.699
 7055SOL    HW121551   3.861   4.350   5.736
 7055SOL    HW221552   3.955   4.313   5.607
 7056SOL     OW21553   3.949   3.999   6.582
 7056SOL    HW121554   3.984   3.982   6.674
 7056SOL    HW221555   3.861   3.954   6.570
 7057SOL     OW21556   3.743   4.092   6.233
 7057SOL    HW121557   3.661   4.135   6.272
 7057SOL    HW221558   3.715   4.019   6.170
 7058SOL     OW21559   4.293   4.999   6.751
 7058SOL    HW121560   4.200   4.992   6.714
 7058SOL    HW221561   4.304   5.088   6.795
 7059SOL     OW21562   5.279   5.235   6.289
 7059SOL    HW121563   5.222   5.219   6.370
 7059SOL    HW221564   5.220   5.245   6.209
 7060SOL     OW21565   4.859   4.427   6.303
 7060SOL    HW121566   4.916   4.505   6.278
 7060SOL    HW221567   4.799   4.453   6.379
 7061SOL     OW21568   4.492   4.868   6.609
 7061SOL    HW121569   4.414   4.885   6.669
 7061SOL    HW221570   4.526   4.955   6.573
 7062SOL     OW21571   4.574   4.522   7.409
 7062SOL    HW121572   4.570   4.598   7.474
 7062SOL    HW221573   4.596   4.558   7.318
 7063SOL     OW21574   4.409   4.736   6.251
 7063SOL    HW121575   4.478   4.720   6.321
 7063SOL    HW221576   4.336   4.793   6.289
 7064SOL     OW21577   4.410   4.885   7.389
 7064SOL    HW121578   4.470   4.964   7.403
 7064SOL    HW221579   4.324   4.916   7.348
 7065SOL     OW21580   4.059   5.159   6.647
 7065SOL    HW121581   3.981   5.128   6.594
 7065SOL    HW221582   4.117   5.217   6.590
 7066SOL     OW21583   5.184   5.229   6.925
 7066SOL    HW121584   5.208   5.323   6.951
 7066SOL    HW221585   5.168   5.175   7.007
 7067SOL     OW21586   4.162   4.116   7.085
 7067SOL    HW121587   4.244   4.060   7.094
 7067SOL    HW221588   4.081   4.058   7.089
 7068SOL     OW21589   4.851   5.065   7.276
 7068SOL    HW121590   4.898   5.065   7.364
 7068SOL    HW221591   4.803   4.978   7.265
 7069SOL     OW21592   3.954   5.158   6.124
 7069SOL    HW121593   3.928   5.254   6.124
 7069SOL    HW221594   3.883   5.104   6.169
 7070SOL     OW21595   3.964   4.815   6.472
 7070SOL    HW121596   3.978   4.731   6.524
 7070SOL    HW221597   3.909   4.879   6.527
 7071SOL     OW21598   4.330   4.688   5.709
 7071SOL    HW121599   4.337   4.772   5.655
 7071SOL    HW221600   4.376   4.701   5.797
 7072SOL     OW21601   3.846   4.367   6.149
 7072SOL    HW121602   3.801   4.279   6.166
 7072SOL    HW221603   3.845   4.421   6.233
 7073SOL     OW21604   3.751   5.320   5.703
 7073SOL    HW121605   3.732   5.224   5.724
 7073SOL    HW221606   3.718   5.378   5.778
 7074SOL     OW21607   5.413   4.646   6.198
 7074SOL    HW121608   5.508   4.617   6.206
 7074SOL    HW221609   5.405   4.711   6.123
 7075SOL     OW21610   3.837   4.461   7.183
 7075SOL    HW121611   3.925   4.448   7.228
 7075SOL    HW221612   3.824   4.558   7.161
 7076SOL     OW21613   4.337   5.089   6.312
 7076SOL    HW121614   4.288   5.002   6.321
 7076SOL    HW221615   4.314   5.132   6.225
 7077SOL     OW21616   5.017   4.952   7.009
 7077SOL    HW121617   5.054   4.879   6.951
 7077SOL    HW221618   5.069   4.957   7.094
 7078SOL     OW21619   4.533   3.728   6.088
 7078SOL    HW121620   4.573   3.819   6.079
 7078SOL    HW221621   4.433   3.736   6.094
 7079SOL     OW21622   3.921   4.700   6.850
 7079SOL    HW121623   4.010   4.655   6.836
 7079SOL    HW221624   3.848   4.635   6.831
 7080SOL     OW21625   4.041   3.975   7.387
 7080SOL    HW121626   4.112   4.046   7.393
 7080SOL    HW221627   3.953   4.014   7.415
 7081SOL     OW21628   5.190   5.141   6.539
 7081SOL    HW121629   5.131   5.147   6.619
 7081SOL    HW221630   5.175   5.053   6.493
 7082SOL     OW21631   5.391   5.438   6.158
 7082SOL    HW121632   5.350   5.415   6.070
 7082SOL    HW221633   5.373   5.364   6.223
 7083SOL     OW21634   4.322   4.453   5.856
 7083SOL    HW121635   4.346   4.522   5.788
 7083SOL    HW221636   4.244   4.486   5.910
 7084SOL     OW21637   5.005   4.069   6.530
 7084SOL    HW121638   4.919   4.019   6.517
 7084SOL    HW221639   5.067   4.015   6.586
 7085SOL     OW21640   4.531   4.329   7.051
 7085SOL    HW121641   4.484   4.326   7.140
 7085SOL    HW221642   4.480   4.274   6.985
 7086SOL     OW21643   5.118   4.193   7.260
 7086SOL    HW121644   5.098   4.236   7.348
 7086SOL    HW221645   5.196   4.131   7.269
 7087SOL     OW21646   4.697   4.614   7.158
 7087SOL    HW121647   4.743   4.530   7.129
 7087SOL    HW221648   4.641   4.648   7.083
 7088SOL     OW21649   4.715   4.134   6.828
 7088SOL    HW121650   4.638   4.168   6.882
 7088SOL    HW221651   4.681   4.083   6.749
 7089SOL     OW21652   4.765   4.425   6.015
 7089SOL    HW121653   4.791   4.421   6.111
 7089SOL    HW221654   4.680   4.374   6.001
 7090SOL     OW21655   3.800   4.535   6.375
 7090SOL    HW121656   3.899   4.523   6.384
 7090SOL    HW221657   3.776   4.630   6.396
 7091SOL     OW21658   4.589   4.072   5.781
 7091SOL    HW121659   4.648   4.135   5.732
 7091SOL    HW221660   4.608   3.978   5.752
 7092SOL     OW21661   5.086   4.868   6.131
 7092SOL    HW121662   5.169   4.839   6.083
 7092SOL    HW221663   5.037   4.935   6.075
 7093SOL     OW21664   4.274   3.920   6.471
 7093SOL    HW121665   4.269   3.915   6.571
 7093SOL    HW221666   4.276   4.016   6.442
 7094SOL     OW21667   4.732   5.180   6.063
 7094SOL    HW121668   4.686   5.252   6.011
 7094SOL    HW221669   4.728   5.200   6.161
 7095SOL     OW21670   4.951   5.274   7.092
 7095SOL    HW121671   4.957   5.197   7.156
 7095SOL    HW221672   4.899   5.248   7.012
 7096SOL     OW21673   4.045   4.667   5.828
 7096SOL    HW121674   4.127   4.706   5.786
 7096SOL    HW221675   4.018   4.585   5.779
 7097SOL     OW21676   4.185   4.990   7.313
 7097SOL    HW121677   4.135   4.991   7.227
 7097SOL    HW221678   4.122   4.972   7.389
 7098SOL     OW21679   4.835   5.500   5.823
 7098SOL    HW121680   4.775   5.438   5.873
 7098SOL    HW221681   4.866   5.456   5.738
 7099SOL     OW21682   3.926   4.009   7.084
 7099SOL    HW121683   3.846   4.069   7.071
 7099SOL    HW221684   3.916   3.960   7.170
 7100SOL     OW21685   5.124   3.831   6.012
 7100SOL    HW121686   5.100   3.794   5.922
 7100SOL    HW221687   5.223   3.847   6.016
 7101SOL     OW21688   4.106   4.424   6.066
 7101SOL    HW121689   4.151   4.334   6.063
 7101SOL    HW221690   4.012   4.413   6.099
 7102SOL     OW21691   4.338   3.846   5.703
 7102SOL    HW121692   4.436   3.824   5.710
 7102SOL    HW221693   4.307   3.829   5.610
 7103SOL     OW21694   4.505   3.988   7.335
 7103SOL    HW121695   4.572   3.927   7.378
 7103SOL    HW221696   4.432   4.007   7.400
 7104SOL     OW21697   5.075   4.314   7.019
 7104SOL    HW121698   5.103   4.271   7.104
 7104SOL    HW221699   5.100   4.410   7.020
 7105SOL     OW21700   4.527   5.126   6.510
 7105SOL    HW121701   4.617   5.140   6.468
 7105SOL    HW221702   4.456   5.128   6.439
 7106SOL     OW21703   4.646   4.227   6.485
 7106SOL    HW121704   4.621   4.218   6.389
 7106SOL    HW221705   4.694   4.145   6.516
 7107SOL     OW21706   4.263   3.788   6.098
 7107SOL    HW121707   4.182   3.789   6.156
 7107SOL    HW221708   4.266   3.871   6.043
 7108SOL     OW21709   5.158   4.912   5.627
 7108SOL    HW121710   5.190   4.836   5.684
 7108SOL    HW221711   5.066   4.939   5.657
 7109SOL     OW21712   4.021   3.759   5.757
 7109SOL    HW121713   4.070   3.843   5.736
 7109SOL    HW221714   4.083   3.694   5.802
 7110SOL     OW21715   4.659   3.960   6.066
 7110SOL    HW121716   4.611   4.001   5.988
 7110SOL    HW221717   4.758   3.958   6.047
 7111SOL     OW21718   4.800   4.407   7.050
 7111SOL    HW121719   4.720   4.346   7.053
 7111SOL    HW221720   4.881   4.354   7.026
 7112SOL     OW21721   4.951   5.294   6.379
 7112SOL    HW121722   4.972   5.368   6.314
 7112SOL    HW221723   5.019   5.294   6.452
 7113SOL     OW21724   4.183   4.876   6.327
 7113SOL    HW121725   4.112   4.849   6.392
 7113SOL    HW221726   4.157   4.848   6.234
 7114SOL     OW21727   4.756   4.273   5.602
 7114SOL    HW121728   4.715   4.355   5.563
 7114SOL    HW221729   4.820   4.299   5.675
 7115SOL     OW21730   3.802   4.280   6.972
 7115SOL    HW121731   3.894   4.279   6.931
 7115SOL    HW221732   3.796   4.354   7.039
 7116SOL     OW21733   4.285   3.946   6.733
 7116SOL    HW121734   4.323   3.862   6.770
 7116SOL    HW221735   4.197   3.965   6.777
 7117SOL     OW21736   4.590   4.178   6.228
 7117SOL    HW121737   4.558   4.250   6.166
 7117SOL    HW221738   4.614   4.097   6.175
 7118SOL     OW21739   4.741   3.763   6.339
 7118SOL    HW121740   4.669   3.768   6.270
 7118SOL    HW221741   4.717   3.694   6.408
 7119SOL     OW21742   5.153   4.897   6.453
 7119SOL    HW121743   5.098   4.813   6.446
 7119SOL    HW221744   5.179   4.926   6.361
 7120SOL     OW21745   4.212   5.109   5.760
 7120SOL    HW121746   4.125   5.094   5.807
 7120SOL    HW221747   4.195   5.135   5.665
 7121SOL     OW21748   5.114   4.299   5.664
 7121SOL    HW121749   5.060   4.278   5.745
 7121SOL    HW221750   5.205   4.258   5.673
 7122SOL     OW21751   4.251   3.980   5.914
 7122SOL    HW121752   4.278   3.921   5.839
 7122SOL    HW221753   4.251   4.075   5.883
 7123SOL     OW21754   4.788   5.071   6.926
 7123SOL    HW121755   4.708   5.048   6.981
 7123SOL    HW221756   4.871   5.045   6.975
 7124SOL     OW21757   4.835   4.919   6.686
 7124SOL    HW121758   4.795   4.963   6.767
 7124SOL    HW221759   4.794   4.956   6.603
 7125SOL     OW21760   4.639   3.813   6.988
 7125SOL    HW121761   4.664   3.793   6.893
 7125SOL    HW221762   4.711   3.869   7.030
 7126SOL     OW21763   4.704   4.840   7.305
 7126SOL    HW121764   4.605   4.846   7.315
 7126SOL    HW221765   4.727   4.760   7.249
 7127SOL     OW21766   4.429   4.774   5.954
 7127SOL    HW121767   4.415   4.781   6.053
 7127SOL    HW221768   4.513   4.723   5.936
 7128SOL     OW21769   4.134   4.537   6.837
 7128SOL    HW121770   4.220   4.549   6.887
 7128SOL    HW221771   4.092   4.450   6.864
 7129SOL     OW21772   4.998   4.110   6.848
 7129SOL    HW121773   5.019   4.184   6.912
 7129SOL    HW221774   4.909   4.127   6.805
 7130SOL     OW21775   4.091   4.824   6.087
 7130SOL    HW121776   4.084   4.907   6.031
 7130SOL    HW221777   4.095   4.744   6.027
 7131SOL     OW21778   4.290   4.261   6.451
 7131SOL    HW121779   4.302   4.327   6.377
 7131SOL    HW221780   4.336   4.295   6.534
 7132SOL     OW21781   4.976   5.072   5.974
 7132SOL    HW121782   5.026   5.149   6.014
 7132SOL    HW221783   4.881   5.074   6.006
 7133SOL     OW21784   4.996   5.169   6.728
 7133SOL    HW121785   5.043   5.182   6.815
 7133SOL    HW221786   4.930   5.095   6.737
 7134SOL     OW21787   4.078   5.234   6.915
 7134SOL    HW121788   4.057   5.190   6.828
 7134SOL    HW221789   4.175   5.260   6.918
 7135SOL     OW21790   4.126   4.475   7.184
 7135SOL    HW121791   4.194   4.530   7.137
 7135SOL    HW221792   4.166   4.387   7.211
 7136SOL     OW21793   4.737   3.829   7.356
 7136SOL    HW121794   4.743   3.914   7.304
 7136SOL    HW221795   4.769   3.753   7.299
 7137SOL     OW21796   4.228   3.774   7.326
 7137SOL    HW121797   4.186   3.717   7.256
 7137SOL    HW221798   4.162   3.843   7.358
 7138SOL     OW21799   4.297   4.594   6.615
 7138SOL    HW121800   4.341   4.683   6.606
 7138SOL    HW221801   4.234   4.594   6.692
 7139SOL     OW21802   5.084   4.586   6.631
 7139SOL    HW121803   5.009   4.586   6.565
 7139SOL    HW221804   5.121   4.494   6.640
 7140SOL     OW21805   4.933   4.249   5.861
 7140SOL    HW121806   4.946   4.165   5.915
 7140SOL    HW221807   4.904   4.323   5.921
 7141SOL     OW21808   4.031   3.937   6.817
 7141SOL    HW121809   4.008   3.974   6.907
 7141SOL    HW221810   4.001   3.842   6.811
 7142SOL     OW21811   3.761   5.034   6.868
 7142SOL    HW121812   3.814   4.985   6.936
 7142SOL    HW221813   3.783   5.132   6.873
 7143SOL     OW21814   4.456   4.358   6.650
 7143SOL    HW121815   4.515   4.332   6.574
 7143SOL    HW221816   4.428   4.454   6.639
 7144SOL     OW21817   4.031   3.787   6.204
 7144SOL    HW121818   4.020   3.881   6.237
 7144SOL    HW221819   4.026   3.724   6.281
 7145SOL     OW21820   5.346   4.091   5.960
 7145SOL    HW121821   5.348   4.015   6.024
 7145SOL    HW221822   5.298   4.168   6.000
 7146SOL     OW21823   4.747   4.490   6.552
 7146SOL    HW121824   4.762   4.511   6.648
 7146SOL    HW221825   4.717   4.395   6.543
 7147SOL     OW21826   4.074   4.622   7.390
 7147SOL    HW121827   4.150   4.666   7.438
 7147SOL    HW221828   4.109   4.575   7.308
 7148SOL     OW21829   5.027   4.562   5.628
 7148SOL    HW121830   5.061   4.469   5.643
 7148SOL    HW221831   5.045   4.589   5.533
 7149SOL     OW21832   4.792   5.057   6.435
 7149SOL    HW121833   4.799   4.973   6.380
 7149SOL    HW221834   4.854   5.126   6.399
 7150SOL     OW21835   4.043   4.534   6.535
 7150SOL    HW121836   4.136   4.570   6.540
 7150SOL    HW221837   4.037   4.449   6.587
 7151SOL     OW21838   4.063   4.233   6.592
 7151SOL    HW121839   4.011   4.150   6.575
 7151SOL    HW221840   4.140   4.238   6.528
 7152SOL     OW21841   4.862   4.104   7.264
 7152SOL    HW121842   4.817   4.167   7.328
 7152SOL    HW221843   4.955   4.135   7.247
 7153SOL     OW21844   4.884   3.931   7.063
 7153SOL    HW121845   4.884   3.995   7.140
 7153SOL    HW221846   4.912   3.979   6.980
 7154SOL     OW21847   3.732   5.050   5.786
 7154SOL    HW121848   3.639   5.071   5.755
 7154SOL    HW221849   3.742   4.951   5.799
 7155SOL     OW21850   4.726   4.520   6.824
 7155SOL    HW121851   4.767   4.488   6.910
 7155SOL    HW221852   4.630   4.493   6.821
 7156SOL     OW21853   3.764   4.268   6.700
 7156SOL    HW121854   3.849   4.235   6.659
 7156SOL    HW221855   3.777   4.283   6.798
 7157SOL     OW21856   3.913   4.244   7.308
 7157SOL    HW121857   3.972   4.204   7.238
 7157SOL    HW221858   3.855   4.315   7.267
 7158SOL     OW21859   5.093   4.674   7.246
 7158SOL    HW121860   5.132   4.763   7.266
 7158SOL    HW221861   5.103   4.654   7.149
 7159SOL     OW21862   4.539   4.296   5.911
 7159SOL    HW121863   4.546   4.207   5.865
 7159SOL    HW221864   4.445   4.330   5.903
 7160SOL     OW21865   3.976   5.288   7.330
 7160SOL    HW121866   3.946   5.345   7.406
 7160SOL    HW221867   3.969   5.191   7.356
 7161SOL     OW21868   4.395   4.188   6.855
 7161SOL    HW121869   4.361   4.099   6.825
 7161SOL    HW221870   4.421   4.242   6.775
 7162SOL     OW21871   4.197   4.224   5.777
 7162SOL    HW121872   4.258   4.304   5.781
 7162SOL    HW221873   4.102   4.255   5.784
 7163SOL     OW21874   3.883   4.861   7.052
 7163SOL    HW121875   3.905   4.800   7.128
 7163SOL    HW221876   3.893   4.812   6.966
 7164SOL     OW21877   5.071   4.783   6.820
 7164SOL    HW121878   5.095   4.720   6.746
 7164SOL    HW221879   4.981   4.823   6.802
 7165SOL     OW21880   5.026   4.579   5.895
 7165SOL    HW121881   4.940   4.548   5.937
 7165SOL    HW221882   5.022   4.565   5.796
 7166SOL     OW21883   3.807   4.982   6.608
 7166SOL    HW121884   3.802   4.981   6.708
 7166SOL    HW221885   3.724   4.941   6.570
 7167SOL     OW21886   4.412   5.386   7.302
 7167SOL    HW121887   4.356   5.467   7.311
 7167SOL    HW221888   4.464   5.390   7.216
 7168SOL     OW21889   5.450   3.859   6.109
 7168SOL    HW121890   5.523   3.842   6.042
 7168SOL    HW221891   5.419   3.772   6.147
 7169SOL     OW21892   5.004   4.651   6.258
 7169SOL    HW121893   5.064   4.570   6.260
 7169SOL    HW221894   5.044   4.720   6.198
 7170SOL     OW21895   4.554   4.997   7.008
 7170SOL    HW121896   4.549   5.030   7.103
 7170SOL    HW221897   4.468   5.016   6.962
 7171SOL     OW21898   3.987   4.050   6.306
 7171SOL    HW121899   3.908   4.101   6.272
 7171SOL    HW221900   3.978   4.035   6.404
 7172SOL     OW21901   4.546   4.726   6.958
 7172SOL    HW121902   4.586   4.725   6.866
 7172SOL    HW221903   4.556   4.818   6.998
 7173SOL     OW21904   4.640   4.634   5.877
 7173SOL    HW121905   4.703   4.672   5.809
 7173SOL    HW221906   4.680   4.551   5.916
 7174SOL     OW21907   4.096   5.012   7.076
 7174SOL    HW121908   4.083   5.105   7.042
 7174SOL    HW221909   4.012   4.960   7.063
 7175SOL     OW21910   4.763   4.822   6.282
 7175SOL    HW121911   4.693   4.775   6.336
 7175SOL    HW221912   4.822   4.754   6.239
 7176SOL     OW21913   4.738   3.960   6.557
 7176SOL    HW121914   4.730   3.924   6.464
 7176SOL    HW221915   4.736   3.884   6.622
 7177SOL     OW21916   3.979   5.072   5.876
 7177SOL    HW121917   3.883   5.073   5.849
 7177SOL    HW221918   3.991   5.125   5.960
 7178SOL     OW21919   3.829   4.737   7.312
 7178SOL    HW121920   3.752   4.704   7.366
 7178SOL    HW221921   3.914   4.707   7.354
 7179SOL     OW21922   4.396   3.927   7.075
 7179SOL    HW121923   4.486   3.911   7.035
 7179SOL    HW221924   4.404   3.932   7.174
 7180SOL     OW21925   3.799   4.069   5.619
 7180SOL    HW121926   3.707   4.041   5.590
 7180SOL    HW221927   3.830   4.146   5.563
 7181SOL     OW21928   5.164   4.580   6.984
 7181SOL    HW121929   5.107   4.632   6.921
 7181SOL    HW221930   5.260   4.592   6.960
 7182SOL     OW21931   3.796   3.890   5.904
 7182SOL    HW121932   3.779   3.973   5.850
 7182SOL    HW221933   3.886   3.853   5.882
 7183SOL     OW21934   4.907   5.059   5.705
 7183SOL    HW121935   4.808   5.048   5.707
 7183SOL    HW221936   4.941   5.074   5.798
 7184SOL     OW21937   4.337   4.566   7.017
 7184SOL    HW121938   4.393   4.647   7.000
 7184SOL    HW221939   4.396   4.486   7.020
 7185SOL     OW21940   4.440   4.289   7.294
 7185SOL    HW121941   4.459   4.354   7.368
 7185SOL    HW221942   4.500   4.209   7.303
 7186SOL     OW21943   5.174   4.944   7.219
 7186SOL    HW121944   5.165   4.934   7.318
 7186SOL    HW221945   5.270   4.937   7.193
 7187SOL     OW21946   4.949   4.049   6.035
 7187SOL    HW121947   5.014   3.975   6.024
 7187SOL    HW221948   4.969   4.099   6.119
 7188SOL     OW21949   4.318   4.469   6.238
 7188SOL    HW121950   4.368   4.554   6.219
 7188SOL    HW221951   4.230   4.471   6.190
 7189SOL     OW21952   4.583   5.098   5.602
 7189SOL    HW121953   4.537   5.113   5.690
 7189SOL    HW221954   4.627   5.183   5.572
 7190SOL     OW21955   4.583   4.680   6.447
 7190SOL    HW121956   4.637   4.611   6.495
 7190SOL    HW221957   4.551   4.749   6.513
 7191SOL     OW21958   4.807   4.708   5.673
 7191SOL    HW121959   4.784   4.761   5.591
 7191SOL    HW221960   4.888   4.652   5.654
 7192SOL     OW21961   3.945   5.038   7.430
 7192SOL    HW121962   3.880   4.965   7.409
 7192SOL    HW221963   3.949   5.052   7.528
 7193SOL     OW21964   3.803   4.964   6.239
 7193SOL    HW121965   3.802   4.917   6.327
 7193SOL    HW221966   3.885   4.936   6.188
 7194SOL     OW21967   4.396   5.115   7.210
 7194SOL    HW121968   4.318   5.065   7.248
 7194SOL    HW221969   4.393   5.210   7.241
 7195SOL     OW21970   4.152   4.148   6.106
 7195SOL    HW121971   4.182   4.076   6.044
 7195SOL    HW221972   4.113   4.108   6.189
 7196SOL     OW21973   5.429   5.211   6.690
 7196SOL    HW121974   5.336   5.186   6.663
 7196SOL    HW221975   5.455   5.161   6.772
 7197SOL     OW21976   4.041   4.271   6.866
 7197SOL    HW121977   4.079   4.212   6.938
 7197SOL    HW221978   4.081   4.245   6.778
 7198SOL     OW21979   5.148   3.938   6.698
 7198SOL    HW121980   5.200   3.873   6.753
 7198SOL    HW221981   5.099   4.001   6.759
 7199SOL     OW21982   4.725   3.758   6.740
 7199SOL    HW121983   4.662   3.686   6.709
 7199SOL    HW221984   4.818   3.722   6.740
 7200SOL     OW21985   4.494   5.054   5.887
 7200SOL    HW121986   4.448   4.967   5.904
 7200SOL    HW221987   4.585   5.051   5.928
 7201SOL     OW21988   4.342   5.291   6.870
 7201SOL    HW121989   4.337   5.373   6.927
 7201SOL    HW221990   4.431   5.288   6.825
 7202SOL     OW21991   5.076   3.776   5.754
 7202SOL    HW121992   5.111   3.735   5.670
 7202SOL    HW221993   4.986   3.738   5.774
 7203SOL     OW21994   5.024   4.177   6.277
 7203SOL    HW121995   4.965   4.257   6.281
 7203SOL    HW221996   5.039   4.142   6.370
 7204SOL     OW21997   5.317   3.945   6.468
 7204SOL    HW121998   5.233   3.944   6.522
 7204SOL    HW221999   5.319   4.028   6.412
 7205SOL     OW22000   3.763   4.801   5.886
 7205SOL    HW122001   3.862   4.790   5.877
 7205SOL    HW222002   3.723   4.715   5.918
 7206SOL     OW22003   3.954   4.352   7.561
 7206SOL    HW122004   3.861   4.350   7.598
 7206SOL    HW222005   3.955   4.313   7.469
 7207SOL     OW22006   3.955   5.437   7.931
 7207SOL    HW122007   3.989   5.514   7.985
 7207SOL    HW222008   3.999   5.437   7.841
 7208SOL     OW22009   3.954   5.158   7.986
 7208SOL    HW122010   3.928   5.254   7.986
 7208SOL    HW222011   3.883   5.104   8.031
 7209SOL     OW22012   4.330   4.688   7.571
 7209SOL    HW122013   4.337   4.772   7.517
 7209SOL    HW222014   4.376   4.701   7.659
 7210SOL     OW22015   3.751   5.320   7.565
 7210SOL    HW122016   3.732   5.224   7.586
 7210SOL    HW222017   3.718   5.378   7.640
 7211SOL     OW22018   5.413   4.646   8.060
 7211SOL    HW122019   5.508   4.617   8.068
 7211SOL    HW222020   5.405   4.711   7.985
 7212SOL     OW22021   4.533   3.728   7.950
 7212SOL    HW122022   4.573   3.819   7.941
 7212SOL    HW222023   4.433   3.736   7.956
 7213SOL     OW22024   4.322   4.453   7.718
 7213SOL    HW122025   4.346   4.522   7.650
 7213SOL    HW222026   4.244   4.486   7.772
 7214SOL     OW22027   3.800   4.535   8.237
 7214SOL    HW122028   3.899   4.523   8.246
 7214SOL    HW222029   3.776   4.630   8.258
 7215SOL     OW22030   4.589   4.072   7.643
 7215SOL    HW122031   4.648   4.135   7.594
 7215SOL    HW222032   4.608   3.978   7.614
 7216SOL     OW22033   4.045   4.667   7.690
 7216SOL    HW122034   4.127   4.706   7.648
 7216SOL    HW222035   4.018   4.585   7.641
 7217SOL     OW22036   4.835   5.500   7.685
 7217SOL    HW122037   4.775   5.438   7.735
 7217SOL    HW222038   4.866   5.456   7.600
 7218SOL     OW22039   5.124   3.831   7.874
 7218SOL    HW122040   5.100   3.794   7.784
 7218SOL    HW222041   5.223   3.847   7.878
 7219SOL     OW22042   4.106   4.424   7.928
 7219SOL    HW122043   4.151   4.334   7.925
 7219SOL    HW222044   4.012   4.413   7.961
 7220SOL     OW22045   4.338   3.846   7.565
 7220SOL    HW122046   4.436   3.824   7.572
 7220SOL    HW222047   4.307   3.829   7.472
 7221SOL     OW22048   4.263   3.788   7.960
 7221SOL    HW122049   4.182   3.789   8.018
 7221SOL    HW222050   4.266   3.871   7.905
 7222SOL     OW22051   5.158   4.912   7.489
 7222SOL    HW122052   5.190   4.836   7.546
 7222SOL    HW222053   5.066   4.939   7.519
 7223SOL     OW22054   4.021   3.759   7.619
 7223SOL    HW122055   4.070   3.843   7.598
 7223SOL    HW222056   4.083   3.694   7.664
 7224SOL     OW22057   4.659   3.960   7.928
 7224SOL    HW122058   4.611   4.001   7.850
 7224SOL    HW222059   4.758   3.958   7.909
 7225SOL     OW22060   4.183   4.876   8.189
 7225SOL    HW122061   4.112   4.849   8.254
 7225SOL    HW222062   4.157   4.848   8.096
 7226SOL     OW22063   4.756   4.273   7.464
 7226SOL    HW122064   4.715   4.355   7.425
 7226SOL    HW222065   4.820   4.299   7.537
 7227SOL     OW22066   4.212   5.109   7.622
 7227SOL    HW122067   4.125   5.094   7.669
 7227SOL    HW222068   4.195   5.135   7.527
 7228SOL     OW22069   5.114   4.299   7.526
 7228SOL    HW122070   5.060   4.278   7.607
 7228SOL    HW222071   5.205   4.258   7.535
 7229SOL     OW22072   4.251   3.980   7.776
 7229SOL    HW122073   4.278   3.921   7.701
 7229SOL    HW222074   4.251   4.075   7.745
 7230SOL     OW22075   4.429   4.774   7.816
 7230SOL    HW122076   4.415   4.781   7.915
 7230SOL    HW222077   4.513   4.723   7.798
 7231SOL     OW22078   4.091   4.824   7.949
 7231SOL    HW122079   4.084   4.907   7.893
 7231SOL    HW222080   4.095   4.744   7.889
 7232SOL     OW22081   4.976   5.072   7.836
 7232SOL    HW122082   5.026   5.149   7.876
 7232SOL    HW222083   4.881   5.074   7.868
 7233SOL     OW22084   5.306   4.363   7.920
 7233SOL    HW122085   5.275   4.424   7.993
 7233SOL    HW222086   5.356   4.415   7.851
 7234SOL     OW22087   4.933   4.249   7.723
 7234SOL    HW122088   4.946   4.165   7.777
 7234SOL    HW222089   4.904   4.323   7.783
 7235SOL     OW22090   5.346   4.091   7.822
 7235SOL    HW122091   5.348   4.015   7.886
 7235SOL    HW222092   5.298   4.168   7.862
 7236SOL     OW22093   5.027   4.562   7.490
 7236SOL    HW122094   5.061   4.469   7.505
 7236SOL    HW222095   5.045   4.589   7.395
 7237SOL     OW22096   3.732   5.050   7.648
 7237SOL    HW122097   3.639   5.071   7.617
 7237SOL    HW222098   3.742   4.951   7.661
 7238SOL     OW22099   4.539   4.296   7.773
 7238SOL    HW122100   4.546   4.207   7.727
 7238SOL    HW222101   4.445   4.330   7.765
 7239SOL     OW22102   4.197   4.224   7.639
 7239SOL    HW122103   4.258   4.304   7.643
 7239SOL    HW222104   4.102   4.255   7.646
 7240SOL     OW22105   5.026   4.579   7.757
 7240SOL    HW122106   4.940   4.548   7.799
 7240SOL    HW222107   5.022   4.565   7.658
 7241SOL     OW22108   5.450   3.859   7.971
 7241SOL    HW122109   5.523   3.842   7.904
 7241SOL    HW222110   5.419   3.772   8.009
 7242SOL     OW22111   4.640   4.634   7.739
 7242SOL    HW122112   4.703   4.672   7.671
 7242SOL    HW222113   4.680   4.551   7.778
 7243SOL     OW22114   3.979   5.072   7.738
 7243SOL    HW122115   3.883   5.073   7.711
 7243SOL    HW222116   3.991   5.125   7.822
 7244SOL     OW22117   3.799   4.069   7.481
 7244SOL    HW122118   3.707   4.041   7.452
 7244SOL    HW222119   3.830   4.146   7.425
 7245SOL     OW22120   3.796   3.890   7.766
 7245SOL    HW122121   3.779   3.973   7.712
 7245SOL    HW222122   3.886   3.853   7.744
 7246SOL     OW22123   4.907   5.059   7.567
 7246SOL    HW122124   4.808   5.048   7.569
 7246SOL    HW222125   4.941   5.074   7.660
 7247SOL     OW22126   4.949   4.049   7.897
 7247SOL    HW122127   5.014   3.975   7.886
 7247SOL    HW222128   4.969   4.099   7.981
 7248SOL     OW22129   4.318   4.469   8.100
 7248SOL    HW122130   4.368   4.554   8.081
 7248SOL    HW222131   4.230   4.471   8.052
 7249SOL     OW22132   4.583   5.098   7.464
 7249SOL    HW122133   4.537   5.113   7.552
 7249SOL    HW222134   4.627   5.183   7.434
 7250SOL     OW22135   4.807   4.708   7.535
 7250SOL    HW122136   4.784   4.761   7.453
 7250SOL    HW222137   4.888   4.652   7.516
 7251SOL     OW22138   4.152   4.148   7.968
 7251SOL    HW122139   4.182   4.076   7.906
 7251SOL    HW222140   4.113   4.108   8.051
 7252SOL     OW22141   4.494   5.054   7.749
 7252SOL    HW122142   4.448   4.967   7.766
 7252SOL    HW222143   4.585   5.051   7.790
 7253SOL     OW22144   5.076   3.776   7.616
 7253SOL    HW122145   5.111   3.735   7.532
 7253SOL    HW222146   4.986   3.738   7.636
 7254SOL     OW22147   3.763   4.801   7.748
 7254SOL    HW122148   3.862   4.790   7.739
 7254SOL    HW222149   3.723   4.715   7.780
   5.30000   5.30000   8.08000
