Built with Packmol
22011
    1LIG      O    1   2.347   2.340   0.012
    1LIG      C    2   2.412   2.390   0.121
    1LIG     C1    3   2.341   2.337   0.237
    1LIG     O1    4   2.405   2.387   0.348
    1LIG     C2    5   2.340   2.338   0.457
    1LIG     C3    6   2.411   2.393   0.571
    1LIG     O2    7   2.347   2.345   0.681
    1LIG     C4    8   2.410   2.395   0.791
    1LIG     C5    9   2.338   2.340   0.906
    1LIG     O3   10   2.401   2.390   1.016
    1LIG     C6   11   2.336   2.341   1.125
    1LIG     C7   12   2.408   2.397   1.239
    1LIG     O4   13   2.344   2.349   1.350
    1LIG     C8   14   2.408   2.399   1.460
    1LIG     C9   15   2.335   2.343   1.573
    1LIG     O5   16   2.399   2.393   1.683
    1LIG    C10   17   2.335   2.344   1.793
    1LIG    C11   18   2.407   2.400   1.907
    1LIG     O6   19   2.343   2.351   2.017
    1LIG    C12   20   2.406   2.400   2.127
    1LIG    C13   21   2.333   2.345   2.241
    1LIG     O7   22   2.397   2.394   2.351
    1LIG    C14   23   2.333   2.345   2.461
    1LIG    C15   24   2.405   2.400   2.576
    1LIG     O8   25   2.341   2.351   2.686
    1LIG    C16   26   2.405   2.401   2.796
    1LIG    C17   27   2.334   2.346   2.910
    1LIG     O9   28   2.397   2.395   3.021
    1LIG    C18   29   2.332   2.346   3.130
    1LIG    C19   30   2.404   2.401   3.243
    1LIG    O10   31   2.341   2.352   3.354
    1LIG    C20   32   2.405   2.402   3.463
    1LIG    C21   33   2.332   2.346   3.577
    1LIG    O11   34   2.396   2.395   3.687
    1LIG    C22   35   2.332   2.346   3.797
    1LIG    C23   36   2.404   2.402   3.911
    1LIG    O12   37   2.340   2.353   4.021
    1LIG    C24   38   2.404   2.402   4.131
    1LIG    C25   39   2.332   2.347   4.246
    1LIG    O13   40   2.395   2.396   4.356
    1LIG    C26   41   2.331   2.347   4.466
    1LIG    C27   42   2.403   2.402   4.579
    1LIG    O14   43   2.339   2.353   4.689
    1LIG    C28   44   2.404   2.402   4.800
    1LIG    C29   45   2.332   2.346   4.914
    1LIG    O15   46   2.396   2.395   5.024
    1LIG    C30   47   2.332   2.346   5.134
    1LIG    C31   48   2.404   2.401   5.247
    1LIG    O16   49   2.340   2.352   5.357
    1LIG    C32   50   2.404   2.401   5.467
    1LIG    C33   51   2.332   2.346   5.581
    1LIG    O17   52   2.396   2.395   5.691
    1LIG    C34   53   2.332   2.345   5.801
    1LIG    C35   54   2.404   2.400   5.915
    1LIG    O18   55   2.340   2.351   6.026
    1LIG    C36   56   2.404   2.400   6.135
    1LIG    C37   57   2.333   2.345   6.250
    1LIG    O19   58   2.397   2.394   6.360
    1LIG    C38   59   2.333   2.344   6.469
    1LIG    C39   60   2.404   2.399   6.584
    1LIG    O20   61   2.341   2.350   6.695
    1LIG    C40   62   2.405   2.399   6.804
    1LIG    C41   63   2.334   2.344   6.918
    1LIG    O21   64   2.397   2.393   7.029
    1LIG    C42   65   2.333   2.343   7.138
    1LIG    C43   66   2.405   2.398   7.252
    1LIG    O22   67   2.342   2.349   7.362
    1LIG    C44   68   2.406   2.398   7.472
    1LIG    C45   69   2.334   2.342   7.586
    1LIG    O23   70   2.398   2.391   7.696
    1LIG    C46   71   2.334   2.342   7.806
    1LIG    C47   72   2.407   2.398   7.920
    1LIG    O24   73   2.343   2.348   8.029
    1LIG    C48   74   2.406   2.397   8.140
    1LIG    C49   75   2.334   2.341   8.253
    1LIG    O25   76   2.398   2.390   8.363
    1LIG    C50   77   2.335   2.341   8.473
    1LIG    C51   78   2.407   2.397   8.587
    1LIG    O26   79   2.344   2.347   8.697
    1LIG    C52   80   2.407   2.396   8.807
    1LIG    C53   81   2.335   2.339   8.921
    1LIG    O27   82   2.399   2.389   9.030
    1LIG    C54   83   2.336   2.339   9.141
    1LIG    C55   84   2.408   2.395   9.256
    1LIG    O28   85   2.344   2.345   9.366
    1LIG    C56   86   2.408   2.394   9.476
    1LIG    C57   87   2.337   2.338   9.591
    1LIG    O29   88   2.401   2.387   9.701
    1LIG    C58   89   2.337   2.337   9.811
    1LIG    C59   90   2.408   2.392   9.926
    1LIG      H   91   2.409   2.500   0.119
    1LIG     H1   92   2.517   2.359   0.120
    1LIG     H2   93   2.344   2.228   0.237
    1LIG     H3   94   2.236   2.368   0.236
    1LIG     H4   95   2.343   2.228   0.459
    1LIG     H5   96   2.235   2.369   0.458
    1LIG     H6   97   2.409   2.503   0.569
    1LIG     H7   98   2.517   2.362   0.571
    1LIG     H8   99   2.408   2.504   0.792
    1LIG     H9  100   2.515   2.364   0.793
    1LIG    H10  101   2.341   2.231   0.905
    1LIG    H11  102   2.233   2.371   0.904
    1LIG    H12  103   2.339   2.232   1.127
    1LIG    H13  104   2.231   2.372   1.126
    1LIG    H14  105   2.405   2.507   1.238
    1LIG    H15  106   2.513   2.366   1.239
    1LIG    H16  107   2.405   2.508   1.461
    1LIG    H17  108   2.513   2.368   1.462
    1LIG    H18  109   2.338   2.234   1.572
    1LIG    H19  110   2.230   2.374   1.571
    1LIG    H20  111   2.337   2.234   1.795
    1LIG    H21  112   2.229   2.375   1.795
    1LIG    H22  113   2.404   2.509   1.905
    1LIG    H23  114   2.512   2.369   1.906
    1LIG    H24  115   2.403   2.509   2.128
    1LIG    H25  116   2.511   2.369   2.129
    1LIG    H26  117   2.336   2.235   2.240
    1LIG    H27  118   2.228   2.376   2.239
    1LIG    H28  119   2.336   2.235   2.463
    1LIG    H29  120   2.228   2.376   2.462
    1LIG    H30  121   2.402   2.510   2.574
    1LIG    H31  122   2.510   2.369   2.575
    1LIG    H32  123   2.402   2.511   2.797
    1LIG    H33  124   2.510   2.370   2.797
    1LIG    H34  125   2.336   2.237   2.909
    1LIG    H35  126   2.228   2.377   2.908
    1LIG    H36  127   2.335   2.236   3.131
    1LIG    H37  128   2.227   2.377   3.131
    1LIG    H38  129   2.401   2.511   3.242
    1LIG    H39  130   2.509   2.370   3.242
    1LIG    H40  131   2.402   2.511   3.465
    1LIG    H41  132   2.510   2.371   3.465
    1LIG    H42  133   2.335   2.237   3.576
    1LIG    H43  134   2.227   2.377   3.576
    1LIG    H44  135   2.335   2.237   3.799
    1LIG    H45  136   2.227   2.377   3.798
    1LIG    H46  137   2.401   2.512   3.909
    1LIG    H47  138   2.510   2.371   3.910
    1LIG    H48  139   2.401   2.511   4.133
    1LIG    H49  140   2.509   2.371   4.133
    1LIG    H50  141   2.335   2.237   4.245
    1LIG    H51  142   2.227   2.378   4.244
    1LIG    H52  143   2.334   2.237   4.467
    1LIG    H53  144   2.226   2.378   4.467
    1LIG    H54  145   2.400   2.512   4.578
    1LIG    H55  146   2.508   2.371   4.578
    1LIG    H56  147   2.401   2.511   4.801
    1LIG    H57  148   2.509   2.371   4.801
    1LIG    H58  149   2.335   2.237   4.912
    1LIG    H59  150   2.227   2.377   4.913
    1LIG    H60  151   2.335   2.236   5.135
    1LIG    H61  152   2.227   2.377   5.135
    1LIG    H62  153   2.401   2.511   5.246
    1LIG    H63  154   2.509   2.370   5.246
    1LIG    H64  155   2.401   2.510   5.469
    1LIG    H65  156   2.509   2.370   5.468
    1LIG    H66  157   2.335   2.236   5.580
    1LIG    H67  158   2.227   2.377   5.580
    1LIG    H68  159   2.335   2.236   5.802
    1LIG    H69  160   2.227   2.376   5.802
    1LIG    H70  161   2.401   2.510   5.914
    1LIG    H71  162   2.509   2.370   5.914
    1LIG    H72  163   2.401   2.510   6.137
    1LIG    H73  164   2.510   2.370   6.136
    1LIG    H74  165   2.336   2.236   6.248
    1LIG    H75  166   2.228   2.376   6.249
    1LIG    H76  167   2.336   2.235   6.470
    1LIG    H77  168   2.228   2.375   6.471
    1LIG    H78  169   2.401   2.508   6.583
    1LIG    H79  170   2.510   2.368   6.583
    1LIG    H80  171   2.402   2.509   6.805
    1LIG    H81  172   2.510   2.369   6.805
    1LIG    H82  173   2.337   2.234   6.917
    1LIG    H83  174   2.228   2.374   6.917
    1LIG    H84  175   2.337   2.233   7.139
    1LIG    H85  176   2.228   2.373   7.139
    1LIG    H86  177   2.402   2.508   7.250
    1LIG    H87  178   2.511   2.368   7.250
    1LIG    H88  179   2.403   2.508   7.473
    1LIG    H89  180   2.511   2.368   7.473
    1LIG    H90  181   2.337   2.233   7.584
    1LIG    H91  182   2.229   2.373   7.584
    1LIG    H92  183   2.338   2.232   7.807
    1LIG    H93  184   2.229   2.372   7.808
    1LIG    H94  185   2.403   2.507   7.918
    1LIG    H95  186   2.512   2.367   7.918
    1LIG    H96  187   2.403   2.506   8.141
    1LIG    H97  188   2.511   2.366   8.141
    1LIG    H98  189   2.338   2.231   8.252
    1LIG    H99  190   2.229   2.371   8.252
    1LIG   H100  191   2.338   2.231   8.475
    1LIG   H101  192   2.230   2.371   8.475
    1LIG   H102  193   2.404   2.506   8.586
    1LIG   H103  194   2.512   2.366   8.586
    1LIG   H104  195   2.404   2.505   8.809
    1LIG   H105  196   2.512   2.365   8.809
    1LIG   H106  197   2.339   2.230   8.919
    1LIG   H107  198   2.230   2.370   8.920
    1LIG   H108  199   2.340   2.230   9.142
    1LIG   H109  200   2.231   2.370   9.143
    1LIG   H110  201   2.404   2.504   9.255
    1LIG   H111  202   2.513   2.364   9.254
    1LIG   H112  203   2.405   2.504   9.477
    1LIG   H113  204   2.514   2.364   9.477
    1LIG   H114  205   2.341   2.229   9.589
    1LIG   H115  206   2.232   2.369   9.590
    1LIG   H116  207   2.341   2.227   9.811
    1LIG   H117  208   2.232   2.369   9.812
    1LIG   H118  209   2.513   2.362   9.926
    1LIG   H119  210   2.361   2.355  10.012
    1MOL     C1  211   2.923   2.367   4.988
    1MOL     H1  212   3.012   2.427   5.009
    1MOL     O1  213   2.897   2.294   5.106
    1MOL     C2  214   2.776   2.215   5.100
    1MOL     H2  215   2.691   2.279   5.075
    1MOL     C3  216   2.752   2.159   5.241
    1MOL     H3  217   2.848   2.156   5.294
    1MOL     H4  218   2.712   2.057   5.236
    1MOL     O2  219   2.663   2.241   5.316
    1MOL     H5  220   2.576   2.197   5.315
    1MOL     C4  221   2.945   2.271   4.870
    1MOL     H6  222   3.034   2.211   4.891
    1MOL     O3  223   2.970   2.339   4.748
    1MOL     H7  224   2.916   2.421   4.747
    1MOL     C5  225   2.824   2.179   4.857
    1MOL     H8  226   2.737   2.240   4.828
    1MOL     O4  227   2.846   2.078   4.758
    1MOL     H9  228   2.881   2.124   4.680
    1MOL     C6  229   2.790   2.110   4.988
    1MOL    H10  230   2.867   2.036   5.013
    1MOL     O5  231   2.664   2.045   4.966
    1MOL     C7  232   2.644   1.911   5.006
    1MOL    H11  233   2.739   1.863   5.031
    1MOL     O6  234   2.565   1.903   5.123
    1MOL     C8  235   2.436   1.967   5.112
    1MOL    H12  236   2.450   2.073   5.084
    1MOL     C9  237   2.373   1.963   5.249
    1MOL    H13  238   2.389   1.864   5.293
    1MOL    H14  239   2.265   1.981   5.241
    1MOL     O7  240   2.435   2.064   5.330
    1MOL    H15  241   2.412   2.049   5.423
    1MOL    C10  242   2.574   1.841   4.889
    1MOL    H16  243   2.563   1.735   4.915
    1MOL     O8  244   2.647   1.846   4.769
    1MOL    H17  245   2.693   1.933   4.763
    1MOL    C11  246   2.434   1.901   4.871
    1MOL    H18  247   2.445   2.005   4.840
    1MOL     O9  248   2.361   1.828   4.772
    1MOL    H19  249   2.422   1.818   4.697
    1MOL    C12  250   2.353   1.899   5.001
    1MOL    H20  251   2.330   1.796   5.029
    1MOL    O10  252   2.234   1.973   4.977
    1MOL    C13  253   2.106   1.913   4.996
    1MOL    H21  254   2.118   1.806   5.017
    1MOL    O11  255   2.040   1.967   5.108
    1MOL    C14  256   2.014   2.108   5.103
    1MOL    H22  257   2.110   2.162   5.104
    1MOL    C15  258   1.937   2.145   5.229
    1MOL    H23  259   1.933   2.255   5.235
    1MOL    H24  260   1.993   2.107   5.316
    1MOL    O12  261   1.807   2.089   5.222
    1MOL    H25  262   1.753   2.131   5.290
    1MOL    C16  263   2.024   1.937   4.869
    1MOL    H26  264   1.926   1.890   4.884
    1MOL    O13  265   2.079   1.879   4.753
    1MOL    H27  266   2.177   1.882   4.757
    1MOL    C17  267   2.004   2.087   4.851
    1MOL    H28  268   2.102   2.134   4.837
    1MOL    O14  269   1.921   2.114   4.738
    1MOL    H29  270   1.954   2.057   4.667
    1MOL    C18  271   1.938   2.148   4.974
    1MOL    H30  272   1.834   2.114   4.981
    1MOL    O15  273   1.944   2.290   4.959
    1MOL    C19  274   1.828   2.369   4.974
    1MOL    H31  275   1.739   2.306   4.988
    1MOL    O16  276   1.836   2.450   5.090
    1MOL    C20  277   1.951   2.537   5.094
    1MOL    H32  278   2.042   2.476   5.096
    1MOL    C21  279   1.944   2.616   5.224
    1MOL    H33  280   2.041   2.665   5.239
    1MOL    H34  281   1.927   2.545   5.306
    1MOL    O17  282   1.838   2.711   5.216
    1MOL    H35  283   1.846   2.770   5.292
    1MOL    C22  284   1.816   2.457   4.849
    1MOL    H36  285   1.727   2.519   4.859
    1MOL    O18  286   1.801   2.383   4.729
    1MOL    H37  287   1.858   2.304   4.732
    1MOL    C23  288   1.939   2.548   4.841
    1MOL    H38  289   2.028   2.485   4.827
    1MOL    O19  290   1.928   2.640   4.733
    1MOL    H39  291   1.899   2.588   4.657
    1MOL    C24  292   1.958   2.628   4.970
    1MOL    H40  293   1.881   2.705   4.976
    1MOL    O20  294   2.088   2.687   4.960
    1MOL    C25  295   2.110   2.820   5.001
    1MOL    H41  296   2.015   2.868   5.028
    1MOL    O21  297   2.191   2.826   5.116
    1MOL    C26  298   2.320   2.761   5.101
    1MOL    H42  299   2.302   2.657   5.072
    1MOL    C27  300   2.391   2.763   5.237
    1MOL    H43  301   2.448   2.671   5.250
    1MOL    H44  302   2.313   2.764   5.314
    1MOL    O22  303   2.474   2.876   5.258
    1MOL    H45  304   2.565   2.846   5.240
    1MOL    C28  305   2.177   2.892   4.883
    1MOL    H46  306   2.189   2.998   4.908
    1MOL    O23  307   2.100   2.888   4.764
    1MOL    H47  308   2.062   2.798   4.754
    1MOL    C29  309   2.316   2.831   4.860
    1MOL    H48  310   2.304   2.727   4.827
    1MOL    O24  311   2.388   2.905   4.761
    1MOL    H49  312   2.325   2.918   4.687
    1MOL    C30  313   2.397   2.832   4.988
    1MOL    H50  314   2.419   2.935   5.019
    1MOL    O25  315   2.519   2.763   4.959
    1MOL    C31  316   2.642   2.822   4.993
    1MOL    H51  317   2.629   2.928   5.018
    1MOL    O26  318   2.699   2.762   5.109
    1MOL    C32  319   2.720   2.619   5.099
    1MOL    H52  320   2.624   2.570   5.078
    1MOL    C33  321   2.770   2.571   5.236
    1MOL    H53  322   2.825   2.654   5.282
    1MOL    H54  323   2.840   2.488   5.222
    1MOL    O27  324   2.663   2.534   5.321
    1MOL    H55  325   2.658   2.436   5.321
    1MOL    C34  326   2.736   2.804   4.873
    1MOL    H56  327   2.831   2.855   4.896
    1MOL    O28  328   2.686   2.863   4.755
    1MOL    H57  329   2.588   2.855   4.754
    1MOL    C35  330   2.764   2.655   4.853
    1MOL    H58  331   2.669   2.607   4.826
    1MOL    O29  332   2.860   2.634   4.750
    1MOL    H59  333   2.832   2.690   4.676
    1MOL    C36  334   2.814   2.589   4.981
    1MOL    H60  335   2.917   2.623   5.002
    1MOL    O30  336   2.815   2.449   4.952
    2SOL     OW  337   0.230   0.628   0.113
    2SOL    HW1  338   0.137   0.626   0.150
    2SOL    HW2  339   0.231   0.589   0.021
    3SOL     OW  340   0.225   0.275   0.996
    3SOL    HW1  341   0.260   0.258   1.088
    3SOL    HW2  342   0.137   0.230   0.984
    4SOL     OW  343   0.019   0.368   0.647
    4SOL    HW1  344  -0.063   0.411   0.686
    4SOL    HW2  345  -0.009   0.295   0.584
    5SOL     OW  346   0.569   1.275   1.165
    5SOL    HW1  347   0.476   1.268   1.128
    5SOL    HW2  348   0.580   1.364   1.209
    6SOL     OW  349   1.555   1.511   0.703
    6SOL    HW1  350   1.498   1.495   0.784
    6SOL    HW2  351   1.496   1.521   0.623
    7SOL     OW  352   1.135   0.703   0.717
    7SOL    HW1  353   1.192   0.781   0.692
    7SOL    HW2  354   1.075   0.729   0.793
    8SOL     OW  355   1.755   0.607   0.231
    8SOL    HW1  356   1.743   0.594   0.132
    8SOL    HW2  357   1.725   0.526   0.280
    9SOL     OW  358   0.768   1.144   1.023
    9SOL    HW1  359   0.690   1.161   1.083
    9SOL    HW2  360   0.802   1.231   0.987
   10SOL     OW  361   0.850   0.798   1.823
   10SOL    HW1  362   0.846   0.874   1.888
   10SOL    HW2  363   0.872   0.834   1.732
   11SOL     OW  364   0.685   1.012   0.665
   11SOL    HW1  365   0.754   0.996   0.735
   11SOL    HW2  366   0.612   1.069   0.703
   12SOL     OW  367   0.686   1.161   1.803
   12SOL    HW1  368   0.746   1.240   1.817
   12SOL    HW2  369   0.600   1.192   1.762
   13SOL     OW  370   0.335   1.435   1.061
   13SOL    HW1  371   0.257   1.404   1.008
   13SOL    HW2  372   0.393   1.493   1.004
   14SOL     OW  373   1.460   1.505   1.339
   14SOL    HW1  374   1.484   1.599   1.365
   14SOL    HW2  375   1.444   1.451   1.421
   15SOL     OW  376   0.438   0.392   1.499
   15SOL    HW1  377   0.520   0.336   1.508
   15SOL    HW2  378   0.357   0.334   1.503
   16SOL     OW  379   1.603   0.447   0.737
   16SOL    HW1  380   1.529   0.493   0.687
   16SOL    HW2  381   1.654   0.515   0.790
   17SOL     OW  382   0.231   1.713   0.483
   17SOL    HW1  383   0.265   1.790   0.537
   17SOL    HW2  384   0.275   1.713   0.393
   18SOL     OW  385   1.127   1.341   1.690
   18SOL    HW1  386   1.174   1.341   1.778
   18SOL    HW2  387   1.079   1.254   1.679
   19SOL     OW  388   0.230   1.434   0.538
   19SOL    HW1  389   0.204   1.530   0.538
   19SOL    HW2  390   0.159   1.380   0.583
   20SOL     OW  391   0.240   1.091   0.886
   20SOL    HW1  392   0.254   1.007   0.938
   20SOL    HW2  393   0.185   1.155   0.941
   21SOL     OW  394   0.620   1.786   1.439
   21SOL    HW1  395   0.528   1.769   1.474
   21SOL    HW2  396   0.648   1.878   1.465
   22SOL     OW  397   0.606   0.964   0.123
   22SOL    HW1  398   0.613   1.048   0.069
   22SOL    HW2  399   0.652   0.977   0.211
   23SOL     OW  400   1.594   0.114   1.480
   23SOL    HW1  401   1.576   0.181   1.408
   23SOL    HW2  402   1.591   0.160   1.569
   24SOL     OW  403   0.122   0.643   0.563
   24SOL    HW1  404   0.077   0.555   0.580
   24SOL    HW2  405   0.121   0.697   0.647
   25SOL     OW  406   1.842   1.767   0.359
   25SOL    HW1  407   1.896   1.738   0.439
   25SOL    HW2  408   1.872   1.857   0.330
   26SOL     OW  409   0.027   1.596   0.117
   26SOL    HW1  410   0.008   1.500   0.138
   26SOL    HW2  411  -0.006   1.654   0.192
   27SOL     OW  412   1.689   0.922   0.612
   27SOL    HW1  413   1.784   0.893   0.620
   27SOL    HW2  414   1.681   0.987   0.537
   28SOL     OW  415   1.641   1.108   0.432
   28SOL    HW1  416   1.727   1.110   0.380
   28SOL    HW2  417   1.655   1.155   0.520
   29SOL     OW  418   0.113   0.737   1.597
   29SOL    HW1  419   0.201   0.724   1.642
   29SOL    HW2  420   0.100   0.834   1.575
   30SOL     OW  421   0.613   1.365   0.726
   30SOL    HW1  422   0.564   1.278   0.735
   30SOL    HW2  423   0.590   1.408   0.639
   31SOL     OW  424   1.293   1.228   1.423
   31SOL    HW1  425   1.330   1.155   1.365
   31SOL    HW2  426   1.345   1.233   1.508
   32SOL     OW  427   0.809   0.004   0.502
   32SOL    HW1  428   0.849   0.095   0.493
   32SOL    HW2  429   0.709   0.012   0.508
   33SOL     OW  430   0.197   0.976   1.264
   33SOL    HW1  431   0.286   0.931   1.250
   33SOL    HW2  432   0.124   0.911   1.245
   34SOL     OW  433   1.525   0.999   0.190
   34SOL    HW1  434   1.462   0.923   0.203
   34SOL    HW2  435   1.573   1.017   0.276
   35SOL     OW  436   1.187   1.792   1.616
   35SOL    HW1  437   1.211   1.852   1.540
   35SOL    HW2  438   1.194   1.697   1.586
   36SOL     OW  439   0.317   0.251   1.801
   36SOL    HW1  440   0.388   0.322   1.807
   36SOL    HW2  441   0.229   0.290   1.829
   37SOL     OW  442   1.466   1.417   0.953
   37SOL    HW1  443   1.407   1.423   1.033
   37SOL    HW2  444   1.451   1.329   0.907
   38SOL     OW  445   1.667   1.714   0.572
   38SOL    HW1  446   1.626   1.691   0.484
   38SOL    HW2  447   1.649   1.640   0.637
   39SOL     OW  448   0.598   0.729   0.270
   39SOL    HW1  449   0.622   0.798   0.202
   39SOL    HW2  450   0.520   0.762   0.324
   40SOL     OW  451   1.281   0.345   0.944
   40SOL    HW1  452   1.195   0.295   0.931
   40SOL    HW2  453   1.343   0.291   1.000
   41SOL     OW  454   1.576   1.662   0.307
   41SOL    HW1  455   1.665   1.708   0.310
   41SOL    HW2  456   1.555   1.638   0.212
   42SOL     OW  457   0.807   0.605   1.465
   42SOL    HW1  458   0.760   0.602   1.554
   42SOL    HW2  459   0.756   0.550   1.399
   43SOL     OW  460   1.394   0.469   1.674
   43SOL    HW1  461   1.374   0.512   1.762
   43SOL    HW2  462   1.472   0.407   1.683
   44SOL     OW  463   0.973   0.890   1.572
   44SOL    HW1  464   1.019   0.806   1.543
   44SOL    HW2  465   0.917   0.924   1.497
   45SOL     OW  466   0.991   0.410   1.242
   45SOL    HW1  467   0.914   0.444   1.296
   45SOL    HW2  468   0.957   0.359   1.163
   46SOL     OW  469   1.041   0.701   0.429
   46SOL    HW1  470   1.067   0.697   0.525
   46SOL    HW2  471   0.956   0.650   0.415
   47SOL     OW  472   0.076   0.811   0.789
   47SOL    HW1  473   0.175   0.799   0.798
   47SOL    HW2  474   0.052   0.906   0.810
   48SOL     OW  475   0.130   1.821   1.571
   48SOL    HW1  476   0.120   1.806   1.670
   48SOL    HW2  477   0.044   1.857   1.535
   49SOL     OW  478   0.865   0.348   0.195
   49SOL    HW1  479   0.924   0.411   0.146
   49SOL    HW2  480   0.884   0.254   0.166
   50SOL     OW  481   1.719   0.585   1.831
   50SOL    HW1  482   1.693   0.674   1.795
   50SOL    HW2  483   1.717   0.517   1.758
   51SOL     OW  484   1.362   1.144   0.545
   51SOL    HW1  485   1.445   1.115   0.497
   51SOL    HW2  486   1.313   1.211   0.489
   52SOL     OW  487   0.550   0.196   0.885
   52SOL    HW1  488   0.545   0.191   0.985
   52SOL    HW2  489   0.552   0.292   0.856
   53SOL     OW  490   1.008   1.456   0.477
   53SOL    HW1  491   0.962   1.528   0.425
   53SOL    HW2  492   1.004   1.476   0.575
   54SOL     OW  493   0.351   1.801   0.853
   54SOL    HW1  494   0.401   1.715   0.859
   54SOL    HW2  495   0.416   1.878   0.850
   55SOL     OW  496   1.795   1.066   0.873
   55SOL    HW1  497   1.733   1.051   0.797
   55SOL    HW2  498   1.743   1.077   0.958
   56SOL     OW  499   1.227   1.550   1.506
   56SOL    HW1  500   1.233   1.473   1.570
   56SOL    HW2  501   1.175   1.524   1.426
   57SOL     OW  502   0.321   0.943   0.242
   57SOL    HW1  503   0.403   0.982   0.200
   57SOL    HW2  504   0.294   0.861   0.193
   58SOL     OW  505   1.458   0.735   0.728
   58SOL    HW1  506   1.453   0.670   0.803
   58SOL    HW2  507   1.538   0.794   0.741
   59SOL     OW  508   0.461   1.266   1.727
   59SOL    HW1  509   0.411   1.267   1.641
   59SOL    HW2  510   0.398   1.248   1.803
   60SOL     OW  511   1.111   1.776   0.237
   60SOL    HW1  512   1.051   1.714   0.287
   60SOL    HW2  513   1.142   1.732   0.152
   61SOL     OW  514   0.202   0.285   1.498
   61SOL    HW1  515   0.122   0.345   1.485
   61SOL    HW2  516   0.192   0.236   1.584
   62SOL     OW  517   1.632   1.377   0.081
   62SOL    HW1  518   1.600   1.471   0.071
   62SOL    HW2  519   1.556   1.314   0.069
   63SOL     OW  520   0.464   1.743   0.323
   63SOL    HW1  521   0.497   1.782   0.409
   63SOL    HW2  522   0.540   1.736   0.258
   64SOL     OW  523   1.400   0.107   0.426
   64SOL    HW1  524   1.376   0.070   0.336
   64SOL    HW2  525   1.499   0.123   0.430
   65SOL     OW  526   0.249   1.785   1.241
   65SOL    HW1  527   0.306   1.720   1.291
   65SOL    HW2  528   0.233   1.752   1.148
   66SOL     OW  529   0.940   1.698   0.904
   66SOL    HW1  530   1.020   1.641   0.925
   66SOL    HW2  531   0.891   1.658   0.827
   67SOL     OW  532   0.382   0.700   0.480
   67SOL    HW1  533   0.427   0.610   0.477
   67SOL    HW2  534   0.288   0.689   0.513
   68SOL     OW  535   1.547   0.222   1.729
   68SOL    HW1  536   1.542   0.259   1.821
   68SOL    HW2  537   1.475   0.153   1.717
   69SOL     OW  538   0.614   0.122   0.117
   69SOL    HW1  539   0.712   0.100   0.124
   69SOL    HW2  540   0.583   0.105   0.024
   70SOL     OW  541   0.781   0.264   1.749
   70SOL    HW1  542   0.848   0.203   1.792
   70SOL    HW2  543   0.708   0.283   1.814
   71SOL     OW  544   0.888   1.514   1.195
   71SOL    HW1  545   0.865   1.489   1.101
   71SOL    HW2  546   0.949   1.445   1.234
   72SOL     OW  547   1.351   0.590   1.433
   72SOL    HW1  548   1.379   0.547   1.518
   72SOL    HW2  549   1.376   0.686   1.434
   73SOL     OW  550   0.803   1.402   0.924
   73SOL    HW1  551   0.893   1.416   0.882
   73SOL    HW2  552   0.732   1.404   0.853
   74SOL     OW  553   0.922   0.503   0.899
   74SOL    HW1  554   0.897   0.494   0.803
   74SOL    HW2  555   0.970   0.421   0.930
   75SOL     OW  556   0.539   0.064   0.512
   75SOL    HW1  557   0.458   0.065   0.570
   75SOL    HW2  558   0.542   0.147   0.457
   76SOL     OW  559   1.434   1.188   0.041
   76SOL    HW1  560   1.466   1.112   0.098
   76SOL    HW2  561   1.342   1.215   0.071
   77SOL     OW  562   0.297   0.035   0.171
   77SOL    HW1  563   0.346   0.119   0.150
   77SOL    HW2  564   0.359  -0.030   0.216
   78SOL     OW  565   0.935   0.236   0.480
   78SOL    HW1  566   0.887   0.277   0.402
   78SOL    HW2  567   1.034   0.234   0.461
   79SOL     OW  568   1.076   0.683   1.464
   79SOL    HW1  569   0.996   0.622   1.467
   79SOL    HW2  570   1.157   0.630   1.440
   80SOL     OW  571   1.227   1.570   0.793
   80SOL    HW1  572   1.248   1.644   0.728
   80SOL    HW2  573   1.295   1.570   0.866
   81SOL     OW  574   0.459   1.152   0.741
   81SOL    HW1  575   0.388   1.125   0.806
   81SOL    HW2  576   0.433   1.124   0.648
   82SOL     OW  577   1.271   1.797   0.591
   82SOL    HW1  578   1.315   1.861   0.527
   82SOL    HW2  579   1.221   1.849   0.661
   83SOL     OW  580   1.032   0.549   0.016
   83SOL    HW1  581   0.991   0.631  -0.023
   83SOL    HW2  582   1.096   0.575   0.089
   84SOL     OW  583   0.078   0.556   1.386
   84SOL    HW1  584   0.170   0.555   1.345
   84SOL    HW2  585   0.072   0.630   1.453
   85SOL     OW  586   0.561   0.222   1.147
   85SOL    HW1  587   0.599   0.138   1.184
   85SOL    HW2  588   0.473   0.241   1.191
   86SOL     OW  589   0.866   0.454   0.642
   86SOL    HW1  590   0.834   0.526   0.580
   86SOL    HW2  591   0.890   0.373   0.589
   87SOL     OW  592   1.017   0.039   0.753
   87SOL    HW1  593   0.945   0.044   0.684
   87SOL    HW2  594   0.993  -0.030   0.822
   88SOL     OW  595   1.429   1.173   0.867
   88SOL    HW1  596   1.374   1.089   0.860
   88SOL    HW2  597   1.455   1.202   0.775
   89SOL     OW  598   1.466   0.590   0.992
   89SOL    HW1  599   1.436   0.495   0.999
   89SOL    HW2  600   1.539   0.606   1.058
   90SOL     OW  601   1.857   0.833   0.377
   90SOL    HW1  602   1.899   0.769   0.441
   90SOL    HW2  603   1.819   0.782   0.299
   91SOL     OW  604   0.488   1.385   0.174
   91SOL    HW1  605   0.401   1.370   0.221
   91SOL    HW2  606   0.471   1.411   0.079
   92SOL     OW  607   1.664   1.280   0.657
   92SOL    HW1  608   1.763   1.288   0.671
   92SOL    HW2  609   1.619   1.364   0.688
   93SOL     OW  610   1.390   0.575   0.078
   93SOL    HW1  611   1.336   0.554   0.159
   93SOL    HW2  612   1.481   0.534   0.087
   94SOL     OW  613   0.527   0.256   0.328
   94SOL    HW1  614   0.554   0.197   0.253
   94SOL    HW2  615   0.527   0.351   0.297
   95SOL     OW  616   1.754   1.223   1.588
   95SOL    HW1  617   1.845   1.184   1.575
   95SOL    HW2  618   1.762   1.319   1.612
   96SOL     OW  619   1.064   1.347   1.340
   96SOL    HW1  620   0.984   1.324   1.395
   96SOL    HW2  621   1.147   1.321   1.389
   97SOL     OW  622   1.592   1.629   1.625
   97SOL    HW1  623   1.619   1.663   1.535
   97SOL    HW2  624   1.671   1.591   1.671
   98SOL     OW  625   1.111   1.195   1.100
   98SOL    HW1  626   1.071   1.239   1.181
   98SOL    HW2  627   1.070   1.232   1.017
   99SOL     OW  628   1.638   1.099   1.079
   99SOL    HW1  629   1.643   1.180   1.138
   99SOL    HW2  630   1.552   1.101   1.028
  100SOL     OW  631   0.915   0.089   1.402
  100SOL    HW1  632   0.940   0.069   1.307
  100SOL    HW2  633   0.987   0.145   1.444
  101SOL     OW  634   0.980   1.116   1.719
  101SOL    HW1  635   0.881   1.122   1.729
  101SOL    HW2  636   1.003   1.036   1.663
  102SOL     OW  637   0.705   1.050   0.368
  102SOL    HW1  638   0.691   1.057   0.467
  102SOL    HW2  639   0.789   0.999   0.350
  103SOL     OW  640   0.410   0.813   1.251
  103SOL    HW1  641   0.496   0.825   1.301
  103SOL    HW2  642   0.368   0.726   1.278
  104SOL     OW  643   1.274   0.386   1.262
  104SOL    HW1  644   1.295   0.460   1.326
  104SOL    HW2  645   1.185   0.403   1.219
  105SOL     OW  646   0.064   1.564   1.331
  105SOL    HW1  647   0.018   1.646   1.297
  105SOL    HW2  648   0.162   1.583   1.340
  106SOL     OW  649   0.367   1.100   0.501
  106SOL    HW1  650   0.360   1.183   0.445
  106SOL    HW2  651   0.371   1.020   0.441
  107SOL     OW  652   0.566   0.537   0.865
  107SOL    HW1  653   0.578   0.603   0.791
  107SOL    HW2  654   0.612   0.571   0.948
  108SOL     OW  655   1.252   1.348   0.388
  108SOL    HW1  656   1.302   1.425   0.428
  108SOL    HW2  657   1.157   1.350   0.420
  109SOL     OW  658   1.272   1.445   1.142
  109SOL    HW1  659   1.319   1.458   1.229
  109SOL    HW2  660   1.206   1.371   1.151
  110SOL     OW  661   1.582   0.639   0.472
  110SOL    HW1  662   1.551   0.700   0.545
  110SOL    HW2  663   1.632   0.691   0.403
  111SOL     OW  664   0.354   1.510   1.329
  111SOL    HW1  665   0.333   1.466   1.242
  111SOL    HW2  666   0.451   1.536   1.332
  112SOL     OW  667   0.402   0.751   1.598
  112SOL    HW1  668   0.470   0.806   1.551
  112SOL    HW2  669   0.442   0.663   1.625
  113SOL     OW  670   1.587   0.779   1.670
  113SOL    HW1  671   1.495   0.817   1.665
  113SOL    HW2  672   1.647   0.826   1.605
  114SOL     OW  673   1.013   0.105   1.770
  114SOL    HW1  674   1.019   0.190   1.718
  114SOL    HW2  675   1.045   0.029   1.713
  115SOL     OW  676   0.504   0.050   1.740
  115SOL    HW1  677   0.462  -0.007   1.670
  115SOL    HW2  678   0.438   0.119   1.772
  116SOL     OW  679   0.573   0.870   1.029
  116SOL    HW1  680   0.617   0.959   1.020
  116SOL    HW2  681   0.510   0.870   1.106
  117SOL     OW  682   1.360   0.862   1.045
  117SOL    HW1  683   1.285   0.862   0.979
  117SOL    HW2  684   1.397   0.770   1.054
  118SOL     OW  685   1.209   0.525   0.275
  118SOL    HW1  686   1.222   0.441   0.329
  118SOL    HW2  687   1.180   0.599   0.335
  119SOL     OW  688   0.307   0.213   1.231
  119SOL    HW1  689   0.284   0.250   1.321
  119SOL    HW2  690   0.277   0.118   1.225
  120SOL     OW  691   0.037   1.310   1.282
  120SOL    HW1  692   0.090   1.261   1.350
  120SOL    HW2  693   0.059   1.408   1.287
  121SOL     OW  694   0.732   0.634   1.064
  121SOL    HW1  695   0.791   0.608   0.988
  121SOL    HW2  696   0.704   0.730   1.053
  122SOL     OW  697   1.728   0.935   1.854
  122SOL    HW1  698   1.682   0.928   1.765
  122SOL    HW2  699   1.666   0.979   1.920
  123SOL     OW  700   0.307   0.063   0.618
  123SOL    HW1  701   0.296   0.157   0.651
  123SOL    HW2  702   0.302   0.000   0.695
  124SOL     OW  703   1.622   0.367   0.374
  124SOL    HW1  704   1.624   0.291   0.438
  124SOL    HW2  705   1.574   0.444   0.414
  125SOL     OW  706   1.023   0.766   0.966
  125SOL    HW1  707   1.038   0.787   1.062
  125SOL    HW2  708   0.993   0.671   0.957
  126SOL     OW  709   0.980   1.573   1.700
  126SOL    HW1  710   0.960   1.617   1.612
  126SOL    HW2  711   1.019   1.482   1.684
  127SOL     OW  712   1.859   1.518   1.605
  127SOL    HW1  713   1.873   1.545   1.510
  127SOL    HW2  714   1.942   1.540   1.658
  128SOL     OW  715   0.350   0.898   1.804
  128SOL    HW1  716   0.426   0.942   1.852
  128SOL    HW2  717   0.385   0.851   1.722
  129SOL     OW  718   1.540   0.274   0.125
  129SOL    HW1  719   1.479   0.199   0.148
  129SOL    HW2  720   1.562   0.326   0.208
  130SOL     OW  721   1.303   0.838   0.042
  130SOL    HW1  722   1.337   0.745   0.057
  130SOL    HW2  723   1.321   0.865  -0.053
  131SOL     OW  724   1.068   1.333   0.849
  131SOL    HW1  725   1.075   1.249   0.794
  131SOL    HW2  726   1.130   1.402   0.813
  132SOL     OW  727   0.319   0.810   0.949
  132SOL    HW1  728   0.412   0.846   0.954
  132SOL    HW2  729   0.313   0.725   1.001
  133SOL     OW  730   0.339   0.509   1.006
  133SOL    HW1  731   0.287   0.426   0.989
  133SOL    HW2  732   0.416   0.514   0.942
  134SOL     OW  733   1.138   0.380   1.678
  134SOL    HW1  734   1.093   0.443   1.742
  134SOL    HW2  735   1.231   0.411   1.661
  135SOL     OW  736   1.160   0.207   1.477
  135SOL    HW1  737   1.160   0.271   1.554
  135SOL    HW2  738   1.188   0.255   1.394
  136SOL     OW  739   0.008   1.326   0.200
  136SOL    HW1  740  -0.085   1.347   0.169
  136SOL    HW2  741   0.018   1.227   0.213
  137SOL     OW  742   0.088   1.801   0.927
  137SOL    HW1  743   0.046   1.715   0.900
  137SOL    HW2  744   0.182   1.804   0.893
  138SOL     OW  745   0.504   1.568   0.910
  138SOL    HW1  746   0.570   1.642   0.919
  138SOL    HW2  747   0.548   1.489   0.868
  139SOL     OW  748   1.002   0.796   1.238
  139SOL    HW1  749   1.043   0.764   1.324
  139SOL    HW2  750   0.906   0.769   1.235
  140SOL     OW  751   0.040   0.544   1.114
  140SOL    HW1  752   0.125   0.511   1.073
  140SOL    HW2  753   0.053   0.559   1.212
  141SOL     OW  754   0.189   0.520   1.722
  141SOL    HW1  755   0.248   0.480   1.652
  141SOL    HW2  756   0.131   0.591   1.681
  142SOL     OW  757   1.369   0.950   1.660
  142SOL    HW1  758   1.408   1.039   1.680
  142SOL    HW2  759   1.379   0.930   1.563
  143SOL     OW  760   0.815   0.572   0.325
  143SOL    HW1  761   0.822   0.483   0.279
  143SOL    HW2  762   0.721   0.606   0.317
  144SOL     OW  763   1.657   0.604   1.206
  144SOL    HW1  764   1.619   0.535   1.268
  144SOL    HW2  765   1.739   0.568   1.162
  145SOL     OW  766   0.252   1.564   1.744
  145SOL    HW1  767   0.222   1.621   1.820
  145SOL    HW2  768   0.245   1.467   1.770
  146SOL     OW  769   0.671   0.464   1.269
  146SOL    HW1  770   0.637   0.375   1.239
  146SOL    HW2  771   0.697   0.518   1.189
  147SOL     OW  772   0.930   1.678   1.465
  147SOL    HW1  773   0.906   1.660   1.370
  147SOL    HW2  774   0.960   1.772   1.475
  148SOL     OW  775   0.473   0.500   0.191
  148SOL    HW1  776   0.534   0.580   0.195
  148SOL    HW2  777   0.378   0.531   0.198
  149SOL     OW  778   0.159   1.137   1.466
  149SOL    HW1  779   0.181   1.076   1.542
  149SOL    HW2  780   0.169   1.088   1.380
  150SOL     OW  781   1.347   1.059   1.234
  150SOL    HW1  782   1.371   0.996   1.160
  150SOL    HW2  783   1.257   1.099   1.216
  151SOL     OW  784   1.302   0.855   0.309
  151SOL    HW1  785   1.216   0.824   0.351
  151SOL    HW2  786   1.298   0.841   0.210
  152SOL     OW  787   1.759   1.747   1.154
  152SOL    HW1  788   1.820   1.777   1.081
  152SOL    HW2  789   1.721   1.658   1.132
  153SOL     OW  790   1.252   1.731   1.128
  153SOL    HW1  791   1.336   1.736   1.074
  153SOL    HW2  792   1.229   1.635   1.146
  154SOL     OW  793   0.083   1.258   1.022
  154SOL    HW1  794   0.078   1.257   1.122
  154SOL    HW2  795   0.000   1.217   0.984
  155SOL     OW  796   0.688   1.662   1.716
  155SOL    HW1  797   0.632   1.743   1.725
  155SOL    HW2  798   0.740   1.666   1.630
  156SOL     OW  799   0.903   0.086   0.133
  156SOL    HW1  800   0.954   0.087   0.047
  156SOL    HW2  801   0.959   0.044   0.204
  157SOL     OW  802   1.726   0.135   0.523
  157SOL    HW1  803   1.799   0.118   0.456
  157SOL    HW2  804   1.695   0.048   0.561
  158SOL     OW  805   1.388   1.573   0.477
  158SOL    HW1  806   1.455   1.585   0.403
  158SOL    HW2  807   1.348   1.662   0.500
  159SOL     OW  808   0.130   1.794   1.851
  159SOL    HW1  809   0.089   1.720   1.904
  159SOL    HW2  810   0.194   1.845   1.909
  160SOL     OW  811   1.280   0.927   0.672
  160SOL    HW1  812   1.340   0.846   0.674
  160SOL    HW2  813   1.320   0.996   0.612
  161SOL     OW  814   0.830   1.273   1.422
  161SOL    HW1  815   0.825   1.306   1.517
  161SOL    HW2  816   0.744   1.292   1.376
  162SOL     OW  817   0.672   1.616   0.154
  162SOL    HW1  818   0.681   1.626   0.055
  162SOL    HW2  819   0.632   1.527   0.175
  163SOL     OW  820   1.650   1.720   1.394
  163SOL    HW1  821   1.703   1.730   1.310
  163SOL    HW2  822   1.623   1.810   1.428
  164SOL     OW  823   1.841   0.175   0.963
  164SOL    HW1  824   1.880   0.090   0.927
  164SOL    HW2  825   1.743   0.177   0.944
  165SOL     OW  826   0.263   0.326   0.720
  165SOL    HW1  827   0.184   0.377   0.686
  165SOL    HW2  828   0.254   0.311   0.818
  166SOL     OW  829   1.194   1.612   0.031
  166SOL    HW1  830   1.200   1.519   0.068
  166SOL    HW2  831   1.135   1.612  -0.049
  167SOL     OW  832   0.822   1.002   1.372
  167SOL    HW1  833   0.862   1.001   1.280
  167SOL    HW2  834   0.832   1.094   1.412
  168SOL     OW  835   0.916   0.910   0.291
  168SOL    HW1  836   0.979   0.948   0.223
  168SOL    HW2  837   0.956   0.827   0.330
  169SOL     OW  838   1.504   1.607   0.044
  169SOL    HW1  839   1.412   1.644   0.051
  169SOL    HW2  840   1.542   1.627  -0.046
  170SOL     OW  841   0.372   1.288   1.490
  170SOL    HW1  842   0.359   1.381   1.456
  170SOL    HW2  843   0.288   1.236   1.477
  171SOL     OW  844   1.614   1.292   1.289
  171SOL    HW1  845   1.674   1.295   1.369
  171SOL    HW2  846   1.539   1.356   1.302
  172SOL     OW  847   1.039   1.098   0.696
  172SOL    HW1  848   0.969   1.051   0.750
  172SOL    HW2  849   1.098   1.030   0.653
  173SOL     OW  850   1.014   0.236   0.971
  173SOL    HW1  851   1.006   0.200   0.878
  173SOL    HW2  852   1.012   0.160   1.036
  174SOL     OW  853   0.590   1.487   0.491
  174SOL    HW1  854   0.632   1.429   0.421
  174SOL    HW2  855   0.546   1.566   0.447
  175SOL     OW  856   1.709   0.385   1.381
  175SOL    HW1  857   1.782   0.454   1.385
  175SOL    HW2  858   1.737   0.310   1.322
  176SOL     OW  859   0.255   1.348   0.290
  176SOL    HW1  860   0.159   1.349   0.263
  176SOL    HW2  861   0.267   1.401   0.374
  177SOL     OW  862   0.105   1.013   1.726
  177SOL    HW1  863   0.028   0.980   1.780
  177SOL    HW2  864   0.190   0.983   1.768
  178SOL     OW  865   0.672   0.203   1.489
  178SOL    HW1  866   0.762   0.187   1.449
  178SOL    HW2  867   0.680   0.208   1.588
  179SOL     OW  868   0.075   0.345   0.033
  179SOL    HW1  869  -0.017   0.317   0.004
  179SOL    HW2  870   0.106   0.422  -0.023
  180SOL     OW  871   1.440   0.856   1.398
  180SOL    HW1  872   1.383   0.908   1.335
  180SOL    HW2  873   1.536   0.868   1.374
  181SOL     OW  874   0.072   0.166   0.318
  181SOL    HW1  875   0.055   0.249   0.264
  181SOL    HW2  876   0.162   0.129   0.296
  182SOL     OW  877   1.183   1.335   0.119
  182SOL    HW1  878   1.084   1.324   0.121
  182SOL    HW2  879   1.217   1.350   0.212
  183SOL     OW  880   0.613   0.842   1.431
  183SOL    HW1  881   0.669   0.923   1.414
  183SOL    HW2  882   0.672   0.762   1.434
  184SOL     OW  883   1.493   1.767   0.959
  184SOL    HW1  884   1.526   1.831   0.890
  184SOL    HW2  885   1.559   1.761   1.034
  185SOL     OW  886   0.716   0.565   1.708
  185SOL    HW1  887   0.735   0.630   1.782
  185SOL    HW2  888   0.776   0.485   1.717
  186SOL     OW  889   1.450   1.220   1.633
  186SOL    HW1  890   1.441   1.210   1.732
  186SOL    HW2  891   1.546   1.213   1.607
  187SOL     OW  892   0.390   1.741   1.560
  187SOL    HW1  893   0.299   1.782   1.558
  187SOL    HW2  894   0.383   1.647   1.592
  188SOL     OW  895   1.674   0.883   1.254
  188SOL    HW1  896   1.647   0.794   1.217
  188SOL    HW2  897   1.675   0.951   1.181
  189SOL     OW  898   1.225   0.325   0.449
  189SOL    HW1  899   1.290   0.251   0.438
  189SOL    HW2  900   1.245   0.375   0.533
  190SOL     OW  901   0.594   0.745   0.652
  190SOL    HW1  902   0.644   0.830   0.633
  190SOL    HW2  903   0.506   0.747   0.604
  191SOL     OW  904   1.777   0.342   1.642
  191SOL    HW1  905   1.760   0.373   1.548
  191SOL    HW2  906   1.693   0.305   1.680
  192SOL     OW  907   1.730   0.934   1.517
  192SOL    HW1  908   1.768   1.025   1.532
  192SOL    HW2  909   1.722   0.917   1.418
  193SOL     OW  910   0.859   1.374   0.016
  193SOL    HW1  911   0.813   1.389   0.104
  193SOL    HW2  912   0.903   1.459  -0.014
  194SOL     OW  913   0.661   1.790   0.953
  194SOL    HW1  914   0.615   1.878   0.940
  194SOL    HW2  915   0.760   1.802   0.946
  195SOL     OW  916   0.859   0.956   0.861
  195SOL    HW1  917   0.913   0.887   0.909
  195SOL    HW2  918   0.827   1.025   0.927
  196SOL     OW  919   1.083   0.984   0.087
  196SOL    HW1  920   1.060   1.037   0.005
  196SOL    HW2  921   1.164   0.928   0.068
  197SOL     OW  922   1.861   1.569   0.851
  197SOL    HW1  923   1.790   1.557   0.781
  197SOL    HW2  924   1.862   1.490   0.911
  198SOL     OW  925   0.221   1.314   1.844
  198SOL    HW1  926   0.156   1.241   1.823
  198SOL    HW2  927   0.225   1.328   1.942
  199SOL     OW  928   0.079   1.240   0.653
  199SOL    HW1  929   0.078   1.193   0.741
  199SOL    HW2  930   0.161   1.212   0.602
  200SOL     OW  931   0.672   1.391   1.624
  200SOL    HW1  932   0.594   1.341   1.662
  200SOL    HW2  933   0.669   1.486   1.655
  201SOL     OW  934   1.824   0.192   1.227
  201SOL    HW1  935   1.820   0.102   1.271
  201SOL    HW2  936   1.827   0.181   1.128
  202SOL     OW  937   0.428   0.424   0.520
  202SOL    HW1  938   0.458   0.352   0.458
  202SOL    HW2  939   0.389   0.384   0.603
  203SOL     OW  940   1.705   1.487   1.104
  203SOL    HW1  941   1.612   1.462   1.077
  203SOL    HW2  942   1.731   1.437   1.186
  204SOL     OW  943   0.317   0.547   1.280
  204SOL    HW1  944   0.355   0.488   1.352
  204SOL    HW2  945   0.357   0.521   1.192
  205SOL     OW  946   0.812   1.586   0.687
  205SOL    HW1  947   0.844   1.596   0.593
  205SOL    HW2  948   0.733   1.524   0.689
  206SOL     OW  949   1.424   0.214   1.112
  206SOL    HW1  950   1.476   0.149   1.167
  206SOL    HW2  951   1.375   0.277   1.173
  207SOL     OW  952   1.001   0.034   1.154
  207SOL    HW1  953   0.938  -0.038   1.123
  207SOL    HW2  954   1.094  -0.002   1.154
  208SOL     OW  955   0.770   1.330   0.301
  208SOL    HW1  956   0.724   1.243   0.318
  208SOL    HW2  957   0.861   1.327   0.342
  209SOL     OW  958   0.618   1.567   1.284
  209SOL    HW1  959   0.613   1.649   1.341
  209SOL    HW2  960   0.707   1.564   1.239
  210SOL     OW  961   1.352   0.052   0.168
  210SOL    HW1  962   1.387   0.011   0.084
  210SOL    HW2  963   1.262   0.014   0.188
  211SOL     OW  964   1.300   0.453   0.691
  211SOL    HW1  965   1.241   0.533   0.695
  211SOL    HW2  966   1.315   0.418   0.784
  212SOL     OW  967   1.593   0.221   0.882
  212SOL    HW1  968   1.509   0.220   0.936
  212SOL    HW2  969   1.595   0.304   0.826
  213SOL     OW  970   0.039   1.077   0.300
  213SOL    HW1  971   0.138   1.066   0.291
  213SOL    HW2  972  -0.001   0.991   0.332
  214SOL     OW  973   0.875   1.646   0.337
  214SOL    HW1  974   0.798   1.611   0.283
  214SOL    HW2  975   0.843   1.717   0.399
  215SOL     OW  976   0.230   0.628   1.975
  215SOL    HW1  977   0.137   0.626   2.012
  215SOL    HW2  978   0.231   0.589   1.883
  216SOL     OW  979   0.225   0.275   2.858
  216SOL    HW1  980   0.260   0.258   2.950
  216SOL    HW2  981   0.137   0.230   2.846
  217SOL     OW  982   0.019   0.368   2.509
  217SOL    HW1  983  -0.063   0.411   2.548
  217SOL    HW2  984  -0.009   0.295   2.446
  218SOL     OW  985   0.569   1.275   3.027
  218SOL    HW1  986   0.476   1.268   2.990
  218SOL    HW2  987   0.580   1.364   3.071
  219SOL     OW  988   1.555   1.511   2.565
  219SOL    HW1  989   1.498   1.495   2.646
  219SOL    HW2  990   1.496   1.521   2.485
  220SOL     OW  991   1.135   0.703   2.579
  220SOL    HW1  992   1.192   0.781   2.554
  220SOL    HW2  993   1.075   0.729   2.655
  221SOL     OW  994   1.755   0.607   2.093
  221SOL    HW1  995   1.743   0.594   1.994
  221SOL    HW2  996   1.725   0.526   2.142
  222SOL     OW  997   0.768   1.144   2.885
  222SOL    HW1  998   0.690   1.161   2.945
  222SOL    HW2  999   0.802   1.231   2.849
  223SOL     OW 1000   0.850   0.798   3.685
  223SOL    HW1 1001   0.846   0.874   3.750
  223SOL    HW2 1002   0.872   0.834   3.594
  224SOL     OW 1003   0.685   1.012   2.527
  224SOL    HW1 1004   0.754   0.996   2.597
  224SOL    HW2 1005   0.612   1.069   2.565
  225SOL     OW 1006   0.686   1.161   3.665
  225SOL    HW1 1007   0.746   1.240   3.679
  225SOL    HW2 1008   0.600   1.192   3.624
  226SOL     OW 1009   0.335   1.435   2.923
  226SOL    HW1 1010   0.257   1.404   2.870
  226SOL    HW2 1011   0.393   1.493   2.866
  227SOL     OW 1012   1.460   1.505   3.201
  227SOL    HW1 1013   1.484   1.599   3.227
  227SOL    HW2 1014   1.444   1.451   3.283
  228SOL     OW 1015   0.438   0.392   3.361
  228SOL    HW1 1016   0.520   0.336   3.370
  228SOL    HW2 1017   0.357   0.334   3.365
  229SOL     OW 1018   1.603   0.447   2.599
  229SOL    HW1 1019   1.529   0.493   2.549
  229SOL    HW2 1020   1.654   0.515   2.652
  230SOL     OW 1021   0.231   1.713   2.345
  230SOL    HW1 1022   0.265   1.790   2.399
  230SOL    HW2 1023   0.275   1.713   2.255
  231SOL     OW 1024   1.127   1.341   3.552
  231SOL    HW1 1025   1.174   1.341   3.640
  231SOL    HW2 1026   1.079   1.254   3.541
  232SOL     OW 1027   0.230   1.434   2.400
  232SOL    HW1 1028   0.204   1.530   2.400
  232SOL    HW2 1029   0.159   1.380   2.445
  233SOL     OW 1030   0.240   1.091   2.748
  233SOL    HW1 1031   0.254   1.007   2.800
  233SOL    HW2 1032   0.185   1.155   2.803
  234SOL     OW 1033   0.620   1.786   3.301
  234SOL    HW1 1034   0.528   1.769   3.336
  234SOL    HW2 1035   0.648   1.878   3.327
  235SOL     OW 1036   0.606   0.964   1.985
  235SOL    HW1 1037   0.613   1.048   1.931
  235SOL    HW2 1038   0.652   0.977   2.073
  236SOL     OW 1039   1.594   0.114   3.342
  236SOL    HW1 1040   1.576   0.181   3.270
  236SOL    HW2 1041   1.591   0.160   3.431
  237SOL     OW 1042   0.122   0.643   2.425
  237SOL    HW1 1043   0.077   0.555   2.442
  237SOL    HW2 1044   0.121   0.697   2.509
  238SOL     OW 1045   1.842   1.767   2.221
  238SOL    HW1 1046   1.896   1.738   2.301
  238SOL    HW2 1047   1.872   1.857   2.192
  239SOL     OW 1048   0.027   1.596   1.979
  239SOL    HW1 1049   0.008   1.500   2.000
  239SOL    HW2 1050  -0.006   1.654   2.054
  240SOL     OW 1051   1.689   0.922   2.474
  240SOL    HW1 1052   1.784   0.893   2.482
  240SOL    HW2 1053   1.681   0.987   2.399
  241SOL     OW 1054   1.641   1.108   2.294
  241SOL    HW1 1055   1.727   1.110   2.242
  241SOL    HW2 1056   1.655   1.155   2.382
  242SOL     OW 1057   0.113   0.737   3.459
  242SOL    HW1 1058   0.201   0.724   3.504
  242SOL    HW2 1059   0.100   0.834   3.437
  243SOL     OW 1060   0.613   1.365   2.588
  243SOL    HW1 1061   0.564   1.278   2.597
  243SOL    HW2 1062   0.590   1.408   2.501
  244SOL     OW 1063   1.293   1.228   3.285
  244SOL    HW1 1064   1.330   1.155   3.227
  244SOL    HW2 1065   1.345   1.233   3.370
  245SOL     OW 1066   0.809   0.004   2.364
  245SOL    HW1 1067   0.849   0.095   2.355
  245SOL    HW2 1068   0.709   0.012   2.370
  246SOL     OW 1069   0.197   0.976   3.126
  246SOL    HW1 1070   0.286   0.931   3.112
  246SOL    HW2 1071   0.124   0.911   3.107
  247SOL     OW 1072   1.525   0.999   2.052
  247SOL    HW1 1073   1.462   0.923   2.065
  247SOL    HW2 1074   1.573   1.017   2.138
  248SOL     OW 1075   1.187   1.792   3.478
  248SOL    HW1 1076   1.211   1.852   3.402
  248SOL    HW2 1077   1.194   1.697   3.448
  249SOL     OW 1078   0.317   0.251   3.663
  249SOL    HW1 1079   0.388   0.322   3.669
  249SOL    HW2 1080   0.229   0.290   3.691
  250SOL     OW 1081   1.466   1.417   2.815
  250SOL    HW1 1082   1.407   1.423   2.895
  250SOL    HW2 1083   1.451   1.329   2.769
  251SOL     OW 1084   1.667   1.714   2.434
  251SOL    HW1 1085   1.626   1.691   2.346
  251SOL    HW2 1086   1.649   1.640   2.499
  252SOL     OW 1087   0.598   0.729   2.132
  252SOL    HW1 1088   0.622   0.798   2.064
  252SOL    HW2 1089   0.520   0.762   2.186
  253SOL     OW 1090   1.281   0.345   2.806
  253SOL    HW1 1091   1.195   0.295   2.793
  253SOL    HW2 1092   1.343   0.291   2.862
  254SOL     OW 1093   1.576   1.662   2.169
  254SOL    HW1 1094   1.665   1.708   2.172
  254SOL    HW2 1095   1.555   1.638   2.074
  255SOL     OW 1096   0.807   0.605   3.327
  255SOL    HW1 1097   0.760   0.602   3.416
  255SOL    HW2 1098   0.756   0.550   3.261
  256SOL     OW 1099   1.394   0.469   3.536
  256SOL    HW1 1100   1.374   0.512   3.624
  256SOL    HW2 1101   1.472   0.407   3.545
  257SOL     OW 1102   0.973   0.890   3.434
  257SOL    HW1 1103   1.019   0.806   3.405
  257SOL    HW2 1104   0.917   0.924   3.359
  258SOL     OW 1105   0.991   0.410   3.104
  258SOL    HW1 1106   0.914   0.444   3.158
  258SOL    HW2 1107   0.957   0.359   3.025
  259SOL     OW 1108   1.041   0.701   2.291
  259SOL    HW1 1109   1.067   0.697   2.387
  259SOL    HW2 1110   0.956   0.650   2.277
  260SOL     OW 1111   0.076   0.811   2.651
  260SOL    HW1 1112   0.175   0.799   2.660
  260SOL    HW2 1113   0.052   0.906   2.672
  261SOL     OW 1114   0.130   1.821   3.433
  261SOL    HW1 1115   0.120   1.806   3.532
  261SOL    HW2 1116   0.044   1.857   3.397
  262SOL     OW 1117   0.865   0.348   2.057
  262SOL    HW1 1118   0.924   0.411   2.008
  262SOL    HW2 1119   0.884   0.254   2.028
  263SOL     OW 1120   1.719   0.585   3.693
  263SOL    HW1 1121   1.693   0.674   3.657
  263SOL    HW2 1122   1.717   0.517   3.620
  264SOL     OW 1123   1.362   1.144   2.407
  264SOL    HW1 1124   1.445   1.115   2.359
  264SOL    HW2 1125   1.313   1.211   2.351
  265SOL     OW 1126   0.550   0.196   2.747
  265SOL    HW1 1127   0.545   0.191   2.847
  265SOL    HW2 1128   0.552   0.292   2.718
  266SOL     OW 1129   1.008   1.456   2.339
  266SOL    HW1 1130   0.962   1.528   2.287
  266SOL    HW2 1131   1.004   1.476   2.437
  267SOL     OW 1132   0.351   1.801   2.715
  267SOL    HW1 1133   0.401   1.715   2.721
  267SOL    HW2 1134   0.416   1.878   2.712
  268SOL     OW 1135   1.795   1.066   2.735
  268SOL    HW1 1136   1.733   1.051   2.659
  268SOL    HW2 1137   1.743   1.077   2.820
  269SOL     OW 1138   1.227   1.550   3.368
  269SOL    HW1 1139   1.233   1.473   3.432
  269SOL    HW2 1140   1.175   1.524   3.288
  270SOL     OW 1141   0.321   0.943   2.104
  270SOL    HW1 1142   0.403   0.982   2.062
  270SOL    HW2 1143   0.294   0.861   2.055
  271SOL     OW 1144   1.458   0.735   2.590
  271SOL    HW1 1145   1.453   0.670   2.665
  271SOL    HW2 1146   1.538   0.794   2.603
  272SOL     OW 1147   0.461   1.266   3.589
  272SOL    HW1 1148   0.411   1.267   3.503
  272SOL    HW2 1149   0.398   1.248   3.665
  273SOL     OW 1150   1.111   1.776   2.099
  273SOL    HW1 1151   1.051   1.714   2.149
  273SOL    HW2 1152   1.142   1.732   2.014
  274SOL     OW 1153   0.202   0.285   3.360
  274SOL    HW1 1154   0.122   0.345   3.347
  274SOL    HW2 1155   0.192   0.236   3.446
  275SOL     OW 1156   1.632   1.377   1.943
  275SOL    HW1 1157   1.600   1.471   1.933
  275SOL    HW2 1158   1.556   1.314   1.931
  276SOL     OW 1159   0.464   1.743   2.185
  276SOL    HW1 1160   0.497   1.782   2.271
  276SOL    HW2 1161   0.540   1.736   2.120
  277SOL     OW 1162   1.400   0.107   2.288
  277SOL    HW1 1163   1.376   0.070   2.198
  277SOL    HW2 1164   1.499   0.123   2.292
  278SOL     OW 1165   0.249   1.785   3.103
  278SOL    HW1 1166   0.306   1.720   3.153
  278SOL    HW2 1167   0.233   1.752   3.010
  279SOL     OW 1168   0.940   1.698   2.766
  279SOL    HW1 1169   1.020   1.641   2.787
  279SOL    HW2 1170   0.891   1.658   2.689
  280SOL     OW 1171   0.382   0.700   2.342
  280SOL    HW1 1172   0.427   0.610   2.339
  280SOL    HW2 1173   0.288   0.689   2.375
  281SOL     OW 1174   1.547   0.222   3.591
  281SOL    HW1 1175   1.542   0.259   3.683
  281SOL    HW2 1176   1.475   0.153   3.579
  282SOL     OW 1177   0.614   0.122   1.979
  282SOL    HW1 1178   0.712   0.100   1.986
  282SOL    HW2 1179   0.583   0.105   1.886
  283SOL     OW 1180   0.781   0.264   3.611
  283SOL    HW1 1181   0.848   0.203   3.654
  283SOL    HW2 1182   0.708   0.283   3.676
  284SOL     OW 1183   0.888   1.514   3.057
  284SOL    HW1 1184   0.865   1.489   2.963
  284SOL    HW2 1185   0.949   1.445   3.096
  285SOL     OW 1186   1.351   0.590   3.295
  285SOL    HW1 1187   1.379   0.547   3.380
  285SOL    HW2 1188   1.376   0.686   3.296
  286SOL     OW 1189   0.803   1.402   2.786
  286SOL    HW1 1190   0.893   1.416   2.744
  286SOL    HW2 1191   0.732   1.404   2.715
  287SOL     OW 1192   0.922   0.503   2.761
  287SOL    HW1 1193   0.897   0.494   2.665
  287SOL    HW2 1194   0.970   0.421   2.792
  288SOL     OW 1195   0.539   0.064   2.374
  288SOL    HW1 1196   0.458   0.065   2.432
  288SOL    HW2 1197   0.542   0.147   2.319
  289SOL     OW 1198   1.434   1.188   1.903
  289SOL    HW1 1199   1.466   1.112   1.960
  289SOL    HW2 1200   1.342   1.215   1.933
  290SOL     OW 1201   0.297   0.035   2.033
  290SOL    HW1 1202   0.346   0.119   2.012
  290SOL    HW2 1203   0.359  -0.030   2.078
  291SOL     OW 1204   0.935   0.236   2.342
  291SOL    HW1 1205   0.887   0.277   2.264
  291SOL    HW2 1206   1.034   0.234   2.323
  292SOL     OW 1207   1.076   0.683   3.326
  292SOL    HW1 1208   0.996   0.622   3.329
  292SOL    HW2 1209   1.157   0.630   3.302
  293SOL     OW 1210   1.227   1.570   2.655
  293SOL    HW1 1211   1.248   1.644   2.590
  293SOL    HW2 1212   1.295   1.570   2.728
  294SOL     OW 1213   0.459   1.152   2.603
  294SOL    HW1 1214   0.388   1.125   2.668
  294SOL    HW2 1215   0.433   1.124   2.510
  295SOL     OW 1216   1.271   1.797   2.453
  295SOL    HW1 1217   1.315   1.861   2.389
  295SOL    HW2 1218   1.221   1.849   2.523
  296SOL     OW 1219   1.032   0.549   1.878
  296SOL    HW1 1220   0.991   0.631   1.839
  296SOL    HW2 1221   1.096   0.575   1.951
  297SOL     OW 1222   0.078   0.556   3.248
  297SOL    HW1 1223   0.170   0.555   3.207
  297SOL    HW2 1224   0.072   0.630   3.315
  298SOL     OW 1225   0.561   0.222   3.009
  298SOL    HW1 1226   0.599   0.138   3.046
  298SOL    HW2 1227   0.473   0.241   3.053
  299SOL     OW 1228   0.866   0.454   2.504
  299SOL    HW1 1229   0.834   0.526   2.442
  299SOL    HW2 1230   0.890   0.373   2.451
  300SOL     OW 1231   1.017   0.039   2.615
  300SOL    HW1 1232   0.945   0.044   2.546
  300SOL    HW2 1233   0.993  -0.030   2.684
  301SOL     OW 1234   1.429   1.173   2.729
  301SOL    HW1 1235   1.374   1.089   2.722
  301SOL    HW2 1236   1.455   1.202   2.637
  302SOL     OW 1237   1.466   0.590   2.854
  302SOL    HW1 1238   1.436   0.495   2.861
  302SOL    HW2 1239   1.539   0.606   2.920
  303SOL     OW 1240   1.857   0.833   2.239
  303SOL    HW1 1241   1.899   0.769   2.303
  303SOL    HW2 1242   1.819   0.782   2.161
  304SOL     OW 1243   0.488   1.385   2.036
  304SOL    HW1 1244   0.401   1.370   2.083
  304SOL    HW2 1245   0.471   1.411   1.941
  305SOL     OW 1246   1.664   1.280   2.519
  305SOL    HW1 1247   1.763   1.288   2.533
  305SOL    HW2 1248   1.619   1.364   2.550
  306SOL     OW 1249   1.390   0.575   1.940
  306SOL    HW1 1250   1.336   0.554   2.021
  306SOL    HW2 1251   1.481   0.534   1.949
  307SOL     OW 1252   0.527   0.256   2.190
  307SOL    HW1 1253   0.554   0.197   2.115
  307SOL    HW2 1254   0.527   0.351   2.159
  308SOL     OW 1255   1.754   1.223   3.450
  308SOL    HW1 1256   1.845   1.184   3.437
  308SOL    HW2 1257   1.762   1.319   3.474
  309SOL     OW 1258   1.064   1.347   3.202
  309SOL    HW1 1259   0.984   1.324   3.257
  309SOL    HW2 1260   1.147   1.321   3.251
  310SOL     OW 1261   1.592   1.629   3.487
  310SOL    HW1 1262   1.619   1.663   3.397
  310SOL    HW2 1263   1.671   1.591   3.533
  311SOL     OW 1264   1.111   1.195   2.962
  311SOL    HW1 1265   1.071   1.239   3.043
  311SOL    HW2 1266   1.070   1.232   2.879
  312SOL     OW 1267   1.638   1.099   2.941
  312SOL    HW1 1268   1.643   1.180   3.000
  312SOL    HW2 1269   1.552   1.101   2.890
  313SOL     OW 1270   0.915   0.089   3.264
  313SOL    HW1 1271   0.940   0.069   3.169
  313SOL    HW2 1272   0.987   0.145   3.306
  314SOL     OW 1273   0.980   1.116   3.581
  314SOL    HW1 1274   0.881   1.122   3.591
  314SOL    HW2 1275   1.003   1.036   3.525
  315SOL     OW 1276   0.705   1.050   2.230
  315SOL    HW1 1277   0.691   1.057   2.329
  315SOL    HW2 1278   0.789   0.999   2.212
  316SOL     OW 1279   0.410   0.813   3.113
  316SOL    HW1 1280   0.496   0.825   3.163
  316SOL    HW2 1281   0.368   0.726   3.140
  317SOL     OW 1282   1.274   0.386   3.124
  317SOL    HW1 1283   1.295   0.460   3.188
  317SOL    HW2 1284   1.185   0.403   3.081
  318SOL     OW 1285   0.064   1.564   3.193
  318SOL    HW1 1286   0.018   1.646   3.159
  318SOL    HW2 1287   0.162   1.583   3.202
  319SOL     OW 1288   0.367   1.100   2.363
  319SOL    HW1 1289   0.360   1.183   2.307
  319SOL    HW2 1290   0.371   1.020   2.303
  320SOL     OW 1291   0.566   0.537   2.727
  320SOL    HW1 1292   0.578   0.603   2.653
  320SOL    HW2 1293   0.612   0.571   2.810
  321SOL     OW 1294   1.252   1.348   2.250
  321SOL    HW1 1295   1.302   1.425   2.290
  321SOL    HW2 1296   1.157   1.350   2.282
  322SOL     OW 1297   1.272   1.445   3.004
  322SOL    HW1 1298   1.319   1.458   3.091
  322SOL    HW2 1299   1.206   1.371   3.013
  323SOL     OW 1300   1.582   0.639   2.334
  323SOL    HW1 1301   1.551   0.700   2.407
  323SOL    HW2 1302   1.632   0.691   2.265
  324SOL     OW 1303   0.354   1.510   3.191
  324SOL    HW1 1304   0.333   1.466   3.104
  324SOL    HW2 1305   0.451   1.536   3.194
  325SOL     OW 1306   0.402   0.751   3.460
  325SOL    HW1 1307   0.470   0.806   3.413
  325SOL    HW2 1308   0.442   0.663   3.487
  326SOL     OW 1309   1.587   0.779   3.532
  326SOL    HW1 1310   1.495   0.817   3.527
  326SOL    HW2 1311   1.647   0.826   3.467
  327SOL     OW 1312   1.013   0.105   3.632
  327SOL    HW1 1313   1.019   0.190   3.580
  327SOL    HW2 1314   1.045   0.029   3.575
  328SOL     OW 1315   0.504   0.050   3.602
  328SOL    HW1 1316   0.462  -0.007   3.532
  328SOL    HW2 1317   0.438   0.119   3.634
  329SOL     OW 1318   0.573   0.870   2.891
  329SOL    HW1 1319   0.617   0.959   2.882
  329SOL    HW2 1320   0.510   0.870   2.968
  330SOL     OW 1321   1.360   0.862   2.907
  330SOL    HW1 1322   1.285   0.862   2.841
  330SOL    HW2 1323   1.397   0.770   2.916
  331SOL     OW 1324   1.209   0.525   2.137
  331SOL    HW1 1325   1.222   0.441   2.191
  331SOL    HW2 1326   1.180   0.599   2.197
  332SOL     OW 1327   0.307   0.213   3.093
  332SOL    HW1 1328   0.284   0.250   3.183
  332SOL    HW2 1329   0.277   0.118   3.087
  333SOL     OW 1330   0.037   1.310   3.144
  333SOL    HW1 1331   0.090   1.261   3.212
  333SOL    HW2 1332   0.059   1.408   3.149
  334SOL     OW 1333   0.732   0.634   2.926
  334SOL    HW1 1334   0.791   0.608   2.850
  334SOL    HW2 1335   0.704   0.730   2.915
  335SOL     OW 1336   1.728   0.935   3.716
  335SOL    HW1 1337   1.682   0.928   3.627
  335SOL    HW2 1338   1.666   0.979   3.782
  336SOL     OW 1339   0.307   0.063   2.480
  336SOL    HW1 1340   0.296   0.157   2.513
  336SOL    HW2 1341   0.302   0.000   2.557
  337SOL     OW 1342   1.622   0.367   2.236
  337SOL    HW1 1343   1.624   0.291   2.300
  337SOL    HW2 1344   1.574   0.444   2.276
  338SOL     OW 1345   1.023   0.766   2.828
  338SOL    HW1 1346   1.038   0.787   2.924
  338SOL    HW2 1347   0.993   0.671   2.819
  339SOL     OW 1348   0.980   1.573   3.562
  339SOL    HW1 1349   0.960   1.617   3.474
  339SOL    HW2 1350   1.019   1.482   3.546
  340SOL     OW 1351   1.859   1.518   3.467
  340SOL    HW1 1352   1.873   1.545   3.372
  340SOL    HW2 1353   1.942   1.540   3.520
  341SOL     OW 1354   0.350   0.898   3.666
  341SOL    HW1 1355   0.426   0.942   3.714
  341SOL    HW2 1356   0.385   0.851   3.584
  342SOL     OW 1357   1.540   0.274   1.987
  342SOL    HW1 1358   1.479   0.199   2.010
  342SOL    HW2 1359   1.562   0.326   2.070
  343SOL     OW 1360   1.303   0.838   1.904
  343SOL    HW1 1361   1.337   0.745   1.919
  343SOL    HW2 1362   1.321   0.865   1.809
  344SOL     OW 1363   1.068   1.333   2.711
  344SOL    HW1 1364   1.075   1.249   2.656
  344SOL    HW2 1365   1.130   1.402   2.675
  345SOL     OW 1366   0.319   0.810   2.811
  345SOL    HW1 1367   0.412   0.846   2.816
  345SOL    HW2 1368   0.313   0.725   2.863
  346SOL     OW 1369   0.339   0.509   2.868
  346SOL    HW1 1370   0.287   0.426   2.851
  346SOL    HW2 1371   0.416   0.514   2.804
  347SOL     OW 1372   1.138   0.380   3.540
  347SOL    HW1 1373   1.093   0.443   3.604
  347SOL    HW2 1374   1.231   0.411   3.523
  348SOL     OW 1375   1.160   0.207   3.339
  348SOL    HW1 1376   1.160   0.271   3.416
  348SOL    HW2 1377   1.188   0.255   3.256
  349SOL     OW 1378   0.008   1.326   2.062
  349SOL    HW1 1379  -0.085   1.347   2.031
  349SOL    HW2 1380   0.018   1.227   2.075
  350SOL     OW 1381   0.088   1.801   2.789
  350SOL    HW1 1382   0.046   1.715   2.762
  350SOL    HW2 1383   0.182   1.804   2.755
  351SOL     OW 1384   0.504   1.568   2.772
  351SOL    HW1 1385   0.570   1.642   2.781
  351SOL    HW2 1386   0.548   1.489   2.730
  352SOL     OW 1387   1.002   0.796   3.100
  352SOL    HW1 1388   1.043   0.764   3.186
  352SOL    HW2 1389   0.906   0.769   3.097
  353SOL     OW 1390   0.040   0.544   2.976
  353SOL    HW1 1391   0.125   0.511   2.935
  353SOL    HW2 1392   0.053   0.559   3.074
  354SOL     OW 1393   0.189   0.520   3.584
  354SOL    HW1 1394   0.248   0.480   3.514
  354SOL    HW2 1395   0.131   0.591   3.543
  355SOL     OW 1396   1.369   0.950   3.522
  355SOL    HW1 1397   1.408   1.039   3.542
  355SOL    HW2 1398   1.379   0.930   3.425
  356SOL     OW 1399   0.815   0.572   2.187
  356SOL    HW1 1400   0.822   0.483   2.141
  356SOL    HW2 1401   0.721   0.606   2.179
  357SOL     OW 1402   1.657   0.604   3.068
  357SOL    HW1 1403   1.619   0.535   3.130
  357SOL    HW2 1404   1.739   0.568   3.024
  358SOL     OW 1405   0.252   1.564   3.606
  358SOL    HW1 1406   0.222   1.621   3.682
  358SOL    HW2 1407   0.245   1.467   3.632
  359SOL     OW 1408   0.671   0.464   3.131
  359SOL    HW1 1409   0.637   0.375   3.101
  359SOL    HW2 1410   0.697   0.518   3.051
  360SOL     OW 1411   0.930   1.678   3.327
  360SOL    HW1 1412   0.906   1.660   3.232
  360SOL    HW2 1413   0.960   1.772   3.337
  361SOL     OW 1414   0.473   0.500   2.053
  361SOL    HW1 1415   0.534   0.580   2.057
  361SOL    HW2 1416   0.378   0.531   2.060
  362SOL     OW 1417   0.159   1.137   3.328
  362SOL    HW1 1418   0.181   1.076   3.404
  362SOL    HW2 1419   0.169   1.088   3.242
  363SOL     OW 1420   1.347   1.059   3.096
  363SOL    HW1 1421   1.371   0.996   3.022
  363SOL    HW2 1422   1.257   1.099   3.078
  364SOL     OW 1423   1.302   0.855   2.171
  364SOL    HW1 1424   1.216   0.824   2.213
  364SOL    HW2 1425   1.298   0.841   2.072
  365SOL     OW 1426   1.759   1.747   3.016
  365SOL    HW1 1427   1.820   1.777   2.943
  365SOL    HW2 1428   1.721   1.658   2.994
  366SOL     OW 1429   1.252   1.731   2.990
  366SOL    HW1 1430   1.336   1.736   2.936
  366SOL    HW2 1431   1.229   1.635   3.008
  367SOL     OW 1432   0.083   1.258   2.884
  367SOL    HW1 1433   0.078   1.257   2.984
  367SOL    HW2 1434   0.000   1.217   2.846
  368SOL     OW 1435   0.688   1.662   3.578
  368SOL    HW1 1436   0.632   1.743   3.587
  368SOL    HW2 1437   0.740   1.666   3.492
  369SOL     OW 1438   1.726   0.135   2.385
  369SOL    HW1 1439   1.799   0.118   2.318
  369SOL    HW2 1440   1.695   0.048   2.423
  370SOL     OW 1441   1.388   1.573   2.339
  370SOL    HW1 1442   1.455   1.585   2.265
  370SOL    HW2 1443   1.348   1.662   2.362
  371SOL     OW 1444   0.130   1.794   3.713
  371SOL    HW1 1445   0.089   1.720   3.766
  371SOL    HW2 1446   0.194   1.845   3.771
  372SOL     OW 1447   1.280   0.927   2.534
  372SOL    HW1 1448   1.340   0.846   2.536
  372SOL    HW2 1449   1.320   0.996   2.474
  373SOL     OW 1450   0.830   1.273   3.284
  373SOL    HW1 1451   0.825   1.306   3.379
  373SOL    HW2 1452   0.744   1.292   3.238
  374SOL     OW 1453   0.672   1.616   2.016
  374SOL    HW1 1454   0.681   1.626   1.917
  374SOL    HW2 1455   0.632   1.527   2.037
  375SOL     OW 1456   1.650   1.720   3.256
  375SOL    HW1 1457   1.703   1.730   3.172
  375SOL    HW2 1458   1.623   1.810   3.290
  376SOL     OW 1459   1.841   0.175   2.825
  376SOL    HW1 1460   1.880   0.090   2.789
  376SOL    HW2 1461   1.743   0.177   2.806
  377SOL     OW 1462   0.263   0.326   2.582
  377SOL    HW1 1463   0.184   0.377   2.548
  377SOL    HW2 1464   0.254   0.311   2.680
  378SOL     OW 1465   1.194   1.612   1.893
  378SOL    HW1 1466   1.200   1.519   1.930
  378SOL    HW2 1467   1.135   1.612   1.813
  379SOL     OW 1468   0.822   1.002   3.234
  379SOL    HW1 1469   0.862   1.001   3.142
  379SOL    HW2 1470   0.832   1.094   3.274
  380SOL     OW 1471   0.916   0.910   2.153
  380SOL    HW1 1472   0.979   0.948   2.085
  380SOL    HW2 1473   0.956   0.827   2.192
  381SOL     OW 1474   1.504   1.607   1.906
  381SOL    HW1 1475   1.412   1.644   1.913
  381SOL    HW2 1476   1.542   1.627   1.816
  382SOL     OW 1477   0.372   1.288   3.352
  382SOL    HW1 1478   0.359   1.381   3.318
  382SOL    HW2 1479   0.288   1.236   3.339
  383SOL     OW 1480   1.614   1.292   3.151
  383SOL    HW1 1481   1.674   1.295   3.231
  383SOL    HW2 1482   1.539   1.356   3.164
  384SOL     OW 1483   1.039   1.098   2.558
  384SOL    HW1 1484   0.969   1.051   2.612
  384SOL    HW2 1485   1.098   1.030   2.515
  385SOL     OW 1486   1.014   0.236   2.833
  385SOL    HW1 1487   1.006   0.200   2.740
  385SOL    HW2 1488   1.012   0.160   2.898
  386SOL     OW 1489   0.590   1.487   2.353
  386SOL    HW1 1490   0.632   1.429   2.283
  386SOL    HW2 1491   0.546   1.566   2.309
  387SOL     OW 1492   1.709   0.385   3.243
  387SOL    HW1 1493   1.782   0.454   3.247
  387SOL    HW2 1494   1.737   0.310   3.184
  388SOL     OW 1495   0.255   1.348   2.152
  388SOL    HW1 1496   0.159   1.349   2.125
  388SOL    HW2 1497   0.267   1.401   2.236
  389SOL     OW 1498   0.105   1.013   3.588
  389SOL    HW1 1499   0.028   0.980   3.642
  389SOL    HW2 1500   0.190   0.983   3.630
  390SOL     OW 1501   0.672   0.203   3.351
  390SOL    HW1 1502   0.762   0.187   3.311
  390SOL    HW2 1503   0.680   0.208   3.450
  391SOL     OW 1504   0.075   0.345   1.895
  391SOL    HW1 1505  -0.017   0.317   1.866
  391SOL    HW2 1506   0.106   0.422   1.839
  392SOL     OW 1507   1.440   0.856   3.260
  392SOL    HW1 1508   1.383   0.908   3.197
  392SOL    HW2 1509   1.536   0.868   3.236
  393SOL     OW 1510   0.072   0.166   2.180
  393SOL    HW1 1511   0.055   0.249   2.126
  393SOL    HW2 1512   0.162   0.129   2.158
  394SOL     OW 1513   1.183   1.335   1.981
  394SOL    HW1 1514   1.084   1.324   1.983
  394SOL    HW2 1515   1.217   1.350   2.074
  395SOL     OW 1516   0.613   0.842   3.293
  395SOL    HW1 1517   0.669   0.923   3.276
  395SOL    HW2 1518   0.672   0.762   3.296
  396SOL     OW 1519   1.493   1.767   2.821
  396SOL    HW1 1520   1.526   1.831   2.752
  396SOL    HW2 1521   1.559   1.761   2.896
  397SOL     OW 1522   0.716   0.565   3.570
  397SOL    HW1 1523   0.735   0.630   3.644
  397SOL    HW2 1524   0.776   0.485   3.579
  398SOL     OW 1525   1.450   1.220   3.495
  398SOL    HW1 1526   1.441   1.210   3.594
  398SOL    HW2 1527   1.546   1.213   3.469
  399SOL     OW 1528   0.390   1.741   3.422
  399SOL    HW1 1529   0.299   1.782   3.420
  399SOL    HW2 1530   0.383   1.647   3.454
  400SOL     OW 1531   1.674   0.883   3.116
  400SOL    HW1 1532   1.647   0.794   3.079
  400SOL    HW2 1533   1.675   0.951   3.043
  401SOL     OW 1534   1.225   0.325   2.311
  401SOL    HW1 1535   1.290   0.251   2.300
  401SOL    HW2 1536   1.245   0.375   2.395
  402SOL     OW 1537   0.594   0.745   2.514
  402SOL    HW1 1538   0.644   0.830   2.495
  402SOL    HW2 1539   0.506   0.747   2.466
  403SOL     OW 1540   1.777   0.342   3.504
  403SOL    HW1 1541   1.760   0.373   3.410
  403SOL    HW2 1542   1.693   0.305   3.542
  404SOL     OW 1543   1.730   0.934   3.379
  404SOL    HW1 1544   1.768   1.025   3.394
  404SOL    HW2 1545   1.722   0.917   3.280
  405SOL     OW 1546   0.859   1.374   1.878
  405SOL    HW1 1547   0.813   1.389   1.966
  405SOL    HW2 1548   0.903   1.459   1.848
  406SOL     OW 1549   0.661   1.790   2.815
  406SOL    HW1 1550   0.615   1.878   2.802
  406SOL    HW2 1551   0.760   1.802   2.808
  407SOL     OW 1552   0.859   0.956   2.723
  407SOL    HW1 1553   0.913   0.887   2.771
  407SOL    HW2 1554   0.827   1.025   2.789
  408SOL     OW 1555   1.083   0.984   1.949
  408SOL    HW1 1556   1.060   1.037   1.867
  408SOL    HW2 1557   1.164   0.928   1.930
  409SOL     OW 1558   1.861   1.569   2.713
  409SOL    HW1 1559   1.790   1.557   2.643
  409SOL    HW2 1560   1.862   1.490   2.773
  410SOL     OW 1561   0.221   1.314   3.706
  410SOL    HW1 1562   0.156   1.241   3.685
  410SOL    HW2 1563   0.225   1.328   3.804
  411SOL     OW 1564   0.079   1.240   2.515
  411SOL    HW1 1565   0.078   1.193   2.603
  411SOL    HW2 1566   0.161   1.212   2.464
  412SOL     OW 1567   0.672   1.391   3.486
  412SOL    HW1 1568   0.594   1.341   3.524
  412SOL    HW2 1569   0.669   1.486   3.517
  413SOL     OW 1570   1.824   0.192   3.089
  413SOL    HW1 1571   1.820   0.102   3.133
  413SOL    HW2 1572   1.827   0.181   2.990
  414SOL     OW 1573   0.428   0.424   2.382
  414SOL    HW1 1574   0.458   0.352   2.320
  414SOL    HW2 1575   0.389   0.384   2.465
  415SOL     OW 1576   1.705   1.487   2.966
  415SOL    HW1 1577   1.612   1.462   2.939
  415SOL    HW2 1578   1.731   1.437   3.048
  416SOL     OW 1579   0.317   0.547   3.142
  416SOL    HW1 1580   0.355   0.488   3.214
  416SOL    HW2 1581   0.357   0.521   3.054
  417SOL     OW 1582   0.812   1.586   2.549
  417SOL    HW1 1583   0.844   1.596   2.455
  417SOL    HW2 1584   0.733   1.524   2.551
  418SOL     OW 1585   1.424   0.214   2.974
  418SOL    HW1 1586   1.476   0.149   3.029
  418SOL    HW2 1587   1.375   0.277   3.035
  419SOL     OW 1588   1.001   0.034   3.016
  419SOL    HW1 1589   0.938  -0.038   2.985
  419SOL    HW2 1590   1.094  -0.002   3.016
  420SOL     OW 1591   0.770   1.330   2.163
  420SOL    HW1 1592   0.724   1.243   2.180
  420SOL    HW2 1593   0.861   1.327   2.204
  421SOL     OW 1594   0.618   1.567   3.146
  421SOL    HW1 1595   0.613   1.649   3.203
  421SOL    HW2 1596   0.707   1.564   3.101
  422SOL     OW 1597   1.352   0.052   2.030
  422SOL    HW1 1598   1.387   0.011   1.946
  422SOL    HW2 1599   1.262   0.014   2.050
  423SOL     OW 1600   1.300   0.453   2.553
  423SOL    HW1 1601   1.241   0.533   2.557
  423SOL    HW2 1602   1.315   0.418   2.646
  424SOL     OW 1603   1.593   0.221   2.744
  424SOL    HW1 1604   1.509   0.220   2.798
  424SOL    HW2 1605   1.595   0.304   2.688
  425SOL     OW 1606   0.039   1.077   2.162
  425SOL    HW1 1607   0.138   1.066   2.153
  425SOL    HW2 1608  -0.001   0.991   2.194
  426SOL     OW 1609   0.875   1.646   2.199
  426SOL    HW1 1610   0.798   1.611   2.145
  426SOL    HW2 1611   0.843   1.717   2.261
  427SOL     OW 1612   0.230   0.628   3.837
  427SOL    HW1 1613   0.137   0.626   3.874
  427SOL    HW2 1614   0.231   0.589   3.745
  428SOL     OW 1615   0.225   0.275   4.720
  428SOL    HW1 1616   0.260   0.258   4.812
  428SOL    HW2 1617   0.137   0.230   4.708
  429SOL     OW 1618   0.019   0.368   4.371
  429SOL    HW1 1619  -0.063   0.411   4.410
  429SOL    HW2 1620  -0.009   0.295   4.308
  430SOL     OW 1621   0.569   1.275   4.889
  430SOL    HW1 1622   0.476   1.268   4.852
  430SOL    HW2 1623   0.580   1.364   4.933
  431SOL     OW 1624   1.555   1.511   4.427
  431SOL    HW1 1625   1.498   1.495   4.508
  431SOL    HW2 1626   1.496   1.521   4.347
  432SOL     OW 1627   1.135   0.703   4.441
  432SOL    HW1 1628   1.192   0.781   4.416
  432SOL    HW2 1629   1.075   0.729   4.517
  433SOL     OW 1630   1.755   0.607   3.955
  433SOL    HW1 1631   1.743   0.594   3.856
  433SOL    HW2 1632   1.725   0.526   4.004
  434SOL     OW 1633   0.768   1.144   4.747
  434SOL    HW1 1634   0.690   1.161   4.807
  434SOL    HW2 1635   0.802   1.231   4.711
  435SOL     OW 1636   0.850   0.798   5.547
  435SOL    HW1 1637   0.846   0.874   5.612
  435SOL    HW2 1638   0.872   0.834   5.456
  436SOL     OW 1639   0.685   1.012   4.389
  436SOL    HW1 1640   0.754   0.996   4.459
  436SOL    HW2 1641   0.612   1.069   4.427
  437SOL     OW 1642   0.686   1.161   5.527
  437SOL    HW1 1643   0.746   1.240   5.541
  437SOL    HW2 1644   0.600   1.192   5.486
  438SOL     OW 1645   0.335   1.435   4.785
  438SOL    HW1 1646   0.257   1.404   4.732
  438SOL    HW2 1647   0.393   1.493   4.728
  439SOL     OW 1648   1.460   1.505   5.063
  439SOL    HW1 1649   1.484   1.599   5.089
  439SOL    HW2 1650   1.444   1.451   5.145
  440SOL     OW 1651   0.438   0.392   5.223
  440SOL    HW1 1652   0.520   0.336   5.232
  440SOL    HW2 1653   0.357   0.334   5.227
  441SOL     OW 1654   1.603   0.447   4.461
  441SOL    HW1 1655   1.529   0.493   4.411
  441SOL    HW2 1656   1.654   0.515   4.514
  442SOL     OW 1657   0.231   1.713   4.207
  442SOL    HW1 1658   0.265   1.790   4.261
  442SOL    HW2 1659   0.275   1.713   4.117
  443SOL     OW 1660   1.127   1.341   5.414
  443SOL    HW1 1661   1.174   1.341   5.502
  443SOL    HW2 1662   1.079   1.254   5.403
  444SOL     OW 1663   0.230   1.434   4.262
  444SOL    HW1 1664   0.204   1.530   4.262
  444SOL    HW2 1665   0.159   1.380   4.307
  445SOL     OW 1666   0.240   1.091   4.610
  445SOL    HW1 1667   0.254   1.007   4.662
  445SOL    HW2 1668   0.185   1.155   4.665
  446SOL     OW 1669   0.620   1.786   5.163
  446SOL    HW1 1670   0.528   1.769   5.198
  446SOL    HW2 1671   0.648   1.878   5.189
  447SOL     OW 1672   0.606   0.964   3.847
  447SOL    HW1 1673   0.613   1.048   3.793
  447SOL    HW2 1674   0.652   0.977   3.935
  448SOL     OW 1675   1.594   0.114   5.204
  448SOL    HW1 1676   1.576   0.181   5.132
  448SOL    HW2 1677   1.591   0.160   5.293
  449SOL     OW 1678   0.122   0.643   4.287
  449SOL    HW1 1679   0.077   0.555   4.304
  449SOL    HW2 1680   0.121   0.697   4.371
  450SOL     OW 1681   1.842   1.767   4.083
  450SOL    HW1 1682   1.896   1.738   4.163
  450SOL    HW2 1683   1.872   1.857   4.054
  451SOL     OW 1684   0.027   1.596   3.841
  451SOL    HW1 1685   0.008   1.500   3.862
  451SOL    HW2 1686  -0.006   1.654   3.916
  452SOL     OW 1687   1.689   0.922   4.336
  452SOL    HW1 1688   1.784   0.893   4.344
  452SOL    HW2 1689   1.681   0.987   4.261
  453SOL     OW 1690   1.641   1.108   4.156
  453SOL    HW1 1691   1.727   1.110   4.104
  453SOL    HW2 1692   1.655   1.155   4.244
  454SOL     OW 1693   0.113   0.737   5.321
  454SOL    HW1 1694   0.201   0.724   5.366
  454SOL    HW2 1695   0.100   0.834   5.299
  455SOL     OW 1696   0.613   1.365   4.450
  455SOL    HW1 1697   0.564   1.278   4.459
  455SOL    HW2 1698   0.590   1.408   4.363
  456SOL     OW 1699   1.293   1.228   5.147
  456SOL    HW1 1700   1.330   1.155   5.089
  456SOL    HW2 1701   1.345   1.233   5.232
  457SOL     OW 1702   0.809   0.004   4.226
  457SOL    HW1 1703   0.849   0.095   4.217
  457SOL    HW2 1704   0.709   0.012   4.232
  458SOL     OW 1705   0.197   0.976   4.988
  458SOL    HW1 1706   0.286   0.931   4.974
  458SOL    HW2 1707   0.124   0.911   4.969
  459SOL     OW 1708   1.525   0.999   3.914
  459SOL    HW1 1709   1.462   0.923   3.927
  459SOL    HW2 1710   1.573   1.017   4.000
  460SOL     OW 1711   1.187   1.792   5.340
  460SOL    HW1 1712   1.211   1.852   5.264
  460SOL    HW2 1713   1.194   1.697   5.310
  461SOL     OW 1714   0.317   0.251   5.525
  461SOL    HW1 1715   0.388   0.322   5.531
  461SOL    HW2 1716   0.229   0.290   5.553
  462SOL     OW 1717   1.466   1.417   4.677
  462SOL    HW1 1718   1.407   1.423   4.757
  462SOL    HW2 1719   1.451   1.329   4.631
  463SOL     OW 1720   1.667   1.714   4.296
  463SOL    HW1 1721   1.626   1.691   4.208
  463SOL    HW2 1722   1.649   1.640   4.361
  464SOL     OW 1723   0.598   0.729   3.994
  464SOL    HW1 1724   0.622   0.798   3.926
  464SOL    HW2 1725   0.520   0.762   4.048
  465SOL     OW 1726   1.281   0.345   4.668
  465SOL    HW1 1727   1.195   0.295   4.655
  465SOL    HW2 1728   1.343   0.291   4.724
  466SOL     OW 1729   1.576   1.662   4.031
  466SOL    HW1 1730   1.665   1.708   4.034
  466SOL    HW2 1731   1.555   1.638   3.936
  467SOL     OW 1732   0.807   0.605   5.189
  467SOL    HW1 1733   0.760   0.602   5.278
  467SOL    HW2 1734   0.756   0.550   5.123
  468SOL     OW 1735   1.394   0.469   5.398
  468SOL    HW1 1736   1.374   0.512   5.486
  468SOL    HW2 1737   1.472   0.407   5.407
  469SOL     OW 1738   0.973   0.890   5.296
  469SOL    HW1 1739   1.019   0.806   5.267
  469SOL    HW2 1740   0.917   0.924   5.221
  470SOL     OW 1741   0.991   0.410   4.966
  470SOL    HW1 1742   0.914   0.444   5.020
  470SOL    HW2 1743   0.957   0.359   4.887
  471SOL     OW 1744   1.041   0.701   4.153
  471SOL    HW1 1745   1.067   0.697   4.249
  471SOL    HW2 1746   0.956   0.650   4.139
  472SOL     OW 1747   0.076   0.811   4.513
  472SOL    HW1 1748   0.175   0.799   4.522
  472SOL    HW2 1749   0.052   0.906   4.534
  473SOL     OW 1750   0.130   1.821   5.295
  473SOL    HW1 1751   0.120   1.806   5.394
  473SOL    HW2 1752   0.044   1.857   5.259
  474SOL     OW 1753   0.865   0.348   3.919
  474SOL    HW1 1754   0.924   0.411   3.870
  474SOL    HW2 1755   0.884   0.254   3.890
  475SOL     OW 1756   1.719   0.585   5.555
  475SOL    HW1 1757   1.693   0.674   5.519
  475SOL    HW2 1758   1.717   0.517   5.482
  476SOL     OW 1759   1.362   1.144   4.269
  476SOL    HW1 1760   1.445   1.115   4.221
  476SOL    HW2 1761   1.313   1.211   4.213
  477SOL     OW 1762   0.550   0.196   4.609
  477SOL    HW1 1763   0.545   0.191   4.709
  477SOL    HW2 1764   0.552   0.292   4.580
  478SOL     OW 1765   1.008   1.456   4.201
  478SOL    HW1 1766   0.962   1.528   4.149
  478SOL    HW2 1767   1.004   1.476   4.299
  479SOL     OW 1768   0.351   1.801   4.577
  479SOL    HW1 1769   0.401   1.715   4.583
  479SOL    HW2 1770   0.416   1.878   4.574
  480SOL     OW 1771   1.795   1.066   4.597
  480SOL    HW1 1772   1.733   1.051   4.521
  480SOL    HW2 1773   1.743   1.077   4.682
  481SOL     OW 1774   1.227   1.550   5.230
  481SOL    HW1 1775   1.233   1.473   5.294
  481SOL    HW2 1776   1.175   1.524   5.150
  482SOL     OW 1777   0.321   0.943   3.966
  482SOL    HW1 1778   0.403   0.982   3.924
  482SOL    HW2 1779   0.294   0.861   3.917
  483SOL     OW 1780   1.458   0.735   4.452
  483SOL    HW1 1781   1.453   0.670   4.527
  483SOL    HW2 1782   1.538   0.794   4.465
  484SOL     OW 1783   0.461   1.266   5.451
  484SOL    HW1 1784   0.411   1.267   5.365
  484SOL    HW2 1785   0.398   1.248   5.527
  485SOL     OW 1786   1.111   1.776   3.961
  485SOL    HW1 1787   1.051   1.714   4.011
  485SOL    HW2 1788   1.142   1.732   3.876
  486SOL     OW 1789   0.202   0.285   5.222
  486SOL    HW1 1790   0.122   0.345   5.209
  486SOL    HW2 1791   0.192   0.236   5.308
  487SOL     OW 1792   1.632   1.377   3.805
  487SOL    HW1 1793   1.600   1.471   3.795
  487SOL    HW2 1794   1.556   1.314   3.793
  488SOL     OW 1795   0.464   1.743   4.047
  488SOL    HW1 1796   0.497   1.782   4.133
  488SOL    HW2 1797   0.540   1.736   3.982
  489SOL     OW 1798   1.400   0.107   4.150
  489SOL    HW1 1799   1.376   0.070   4.060
  489SOL    HW2 1800   1.499   0.123   4.154
  490SOL     OW 1801   0.249   1.785   4.965
  490SOL    HW1 1802   0.306   1.720   5.015
  490SOL    HW2 1803   0.233   1.752   4.872
  491SOL     OW 1804   0.940   1.698   4.628
  491SOL    HW1 1805   1.020   1.641   4.649
  491SOL    HW2 1806   0.891   1.658   4.551
  492SOL     OW 1807   0.382   0.700   4.204
  492SOL    HW1 1808   0.427   0.610   4.201
  492SOL    HW2 1809   0.288   0.689   4.237
  493SOL     OW 1810   1.547   0.222   5.453
  493SOL    HW1 1811   1.542   0.259   5.545
  493SOL    HW2 1812   1.475   0.153   5.441
  494SOL     OW 1813   0.614   0.122   3.841
  494SOL    HW1 1814   0.712   0.100   3.848
  494SOL    HW2 1815   0.583   0.105   3.748
  495SOL     OW 1816   0.781   0.264   5.473
  495SOL    HW1 1817   0.848   0.203   5.516
  495SOL    HW2 1818   0.708   0.283   5.538
  496SOL     OW 1819   0.888   1.514   4.919
  496SOL    HW1 1820   0.865   1.489   4.825
  496SOL    HW2 1821   0.949   1.445   4.958
  497SOL     OW 1822   1.351   0.590   5.157
  497SOL    HW1 1823   1.379   0.547   5.242
  497SOL    HW2 1824   1.376   0.686   5.158
  498SOL     OW 1825   0.803   1.402   4.648
  498SOL    HW1 1826   0.893   1.416   4.606
  498SOL    HW2 1827   0.732   1.404   4.577
  499SOL     OW 1828   0.922   0.503   4.623
  499SOL    HW1 1829   0.897   0.494   4.527
  499SOL    HW2 1830   0.970   0.421   4.654
  500SOL     OW 1831   0.539   0.064   4.236
  500SOL    HW1 1832   0.458   0.065   4.294
  500SOL    HW2 1833   0.542   0.147   4.181
  501SOL     OW 1834   1.434   1.188   3.765
  501SOL    HW1 1835   1.466   1.112   3.822
  501SOL    HW2 1836   1.342   1.215   3.795
  502SOL     OW 1837   0.297   0.035   3.895
  502SOL    HW1 1838   0.346   0.119   3.874
  502SOL    HW2 1839   0.359  -0.030   3.940
  503SOL     OW 1840   0.935   0.236   4.204
  503SOL    HW1 1841   0.887   0.277   4.126
  503SOL    HW2 1842   1.034   0.234   4.185
  504SOL     OW 1843   1.076   0.683   5.188
  504SOL    HW1 1844   0.996   0.622   5.191
  504SOL    HW2 1845   1.157   0.630   5.164
  505SOL     OW 1846   1.227   1.570   4.517
  505SOL    HW1 1847   1.248   1.644   4.452
  505SOL    HW2 1848   1.295   1.570   4.590
  506SOL     OW 1849   0.459   1.152   4.465
  506SOL    HW1 1850   0.388   1.125   4.530
  506SOL    HW2 1851   0.433   1.124   4.372
  507SOL     OW 1852   1.271   1.797   4.315
  507SOL    HW1 1853   1.315   1.861   4.251
  507SOL    HW2 1854   1.221   1.849   4.385
  508SOL     OW 1855   1.032   0.549   3.740
  508SOL    HW1 1856   0.991   0.631   3.701
  508SOL    HW2 1857   1.096   0.575   3.813
  509SOL     OW 1858   0.078   0.556   5.110
  509SOL    HW1 1859   0.170   0.555   5.069
  509SOL    HW2 1860   0.072   0.630   5.177
  510SOL     OW 1861   0.561   0.222   4.871
  510SOL    HW1 1862   0.599   0.138   4.908
  510SOL    HW2 1863   0.473   0.241   4.915
  511SOL     OW 1864   0.866   0.454   4.366
  511SOL    HW1 1865   0.834   0.526   4.304
  511SOL    HW2 1866   0.890   0.373   4.313
  512SOL     OW 1867   1.017   0.039   4.477
  512SOL    HW1 1868   0.945   0.044   4.408
  512SOL    HW2 1869   0.993  -0.030   4.546
  513SOL     OW 1870   1.429   1.173   4.591
  513SOL    HW1 1871   1.374   1.089   4.584
  513SOL    HW2 1872   1.455   1.202   4.499
  514SOL     OW 1873   1.466   0.590   4.716
  514SOL    HW1 1874   1.436   0.495   4.723
  514SOL    HW2 1875   1.539   0.606   4.782
  515SOL     OW 1876   1.857   0.833   4.101
  515SOL    HW1 1877   1.899   0.769   4.165
  515SOL    HW2 1878   1.819   0.782   4.023
  516SOL     OW 1879   0.488   1.385   3.898
  516SOL    HW1 1880   0.401   1.370   3.945
  516SOL    HW2 1881   0.471   1.411   3.803
  517SOL     OW 1882   1.664   1.280   4.381
  517SOL    HW1 1883   1.763   1.288   4.395
  517SOL    HW2 1884   1.619   1.364   4.412
  518SOL     OW 1885   1.390   0.575   3.802
  518SOL    HW1 1886   1.336   0.554   3.883
  518SOL    HW2 1887   1.481   0.534   3.811
  519SOL     OW 1888   0.527   0.256   4.052
  519SOL    HW1 1889   0.554   0.197   3.977
  519SOL    HW2 1890   0.527   0.351   4.021
  520SOL     OW 1891   1.754   1.223   5.312
  520SOL    HW1 1892   1.845   1.184   5.299
  520SOL    HW2 1893   1.762   1.319   5.336
  521SOL     OW 1894   1.064   1.347   5.064
  521SOL    HW1 1895   0.984   1.324   5.119
  521SOL    HW2 1896   1.147   1.321   5.113
  522SOL     OW 1897   1.592   1.629   5.349
  522SOL    HW1 1898   1.619   1.663   5.259
  522SOL    HW2 1899   1.671   1.591   5.395
  523SOL     OW 1900   1.111   1.195   4.824
  523SOL    HW1 1901   1.071   1.239   4.905
  523SOL    HW2 1902   1.070   1.232   4.741
  524SOL     OW 1903   1.638   1.099   4.803
  524SOL    HW1 1904   1.643   1.180   4.862
  524SOL    HW2 1905   1.552   1.101   4.752
  525SOL     OW 1906   0.915   0.089   5.126
  525SOL    HW1 1907   0.940   0.069   5.031
  525SOL    HW2 1908   0.987   0.145   5.168
  526SOL     OW 1909   0.980   1.116   5.443
  526SOL    HW1 1910   0.881   1.122   5.453
  526SOL    HW2 1911   1.003   1.036   5.387
  527SOL     OW 1912   0.705   1.050   4.092
  527SOL    HW1 1913   0.691   1.057   4.191
  527SOL    HW2 1914   0.789   0.999   4.074
  528SOL     OW 1915   0.410   0.813   4.975
  528SOL    HW1 1916   0.496   0.825   5.025
  528SOL    HW2 1917   0.368   0.726   5.002
  529SOL     OW 1918   1.274   0.386   4.986
  529SOL    HW1 1919   1.295   0.460   5.050
  529SOL    HW2 1920   1.185   0.403   4.943
  530SOL     OW 1921   0.064   1.564   5.055
  530SOL    HW1 1922   0.018   1.646   5.021
  530SOL    HW2 1923   0.162   1.583   5.064
  531SOL     OW 1924   0.367   1.100   4.225
  531SOL    HW1 1925   0.360   1.183   4.169
  531SOL    HW2 1926   0.371   1.020   4.165
  532SOL     OW 1927   0.566   0.537   4.589
  532SOL    HW1 1928   0.578   0.603   4.515
  532SOL    HW2 1929   0.612   0.571   4.672
  533SOL     OW 1930   1.252   1.348   4.112
  533SOL    HW1 1931   1.302   1.425   4.152
  533SOL    HW2 1932   1.157   1.350   4.144
  534SOL     OW 1933   1.272   1.445   4.866
  534SOL    HW1 1934   1.319   1.458   4.953
  534SOL    HW2 1935   1.206   1.371   4.875
  535SOL     OW 1936   1.582   0.639   4.196
  535SOL    HW1 1937   1.551   0.700   4.269
  535SOL    HW2 1938   1.632   0.691   4.127
  536SOL     OW 1939   0.354   1.510   5.053
  536SOL    HW1 1940   0.333   1.466   4.966
  536SOL    HW2 1941   0.451   1.536   5.056
  537SOL     OW 1942   0.402   0.751   5.322
  537SOL    HW1 1943   0.470   0.806   5.275
  537SOL    HW2 1944   0.442   0.663   5.349
  538SOL     OW 1945   1.587   0.779   5.394
  538SOL    HW1 1946   1.495   0.817   5.389
  538SOL    HW2 1947   1.647   0.826   5.329
  539SOL     OW 1948   1.013   0.105   5.494
  539SOL    HW1 1949   1.019   0.190   5.442
  539SOL    HW2 1950   1.045   0.029   5.437
  540SOL     OW 1951   0.504   0.050   5.464
  540SOL    HW1 1952   0.462  -0.007   5.394
  540SOL    HW2 1953   0.438   0.119   5.496
  541SOL     OW 1954   0.573   0.870   4.753
  541SOL    HW1 1955   0.617   0.959   4.744
  541SOL    HW2 1956   0.510   0.870   4.830
  542SOL     OW 1957   1.360   0.862   4.769
  542SOL    HW1 1958   1.285   0.862   4.703
  542SOL    HW2 1959   1.397   0.770   4.778
  543SOL     OW 1960   1.209   0.525   3.999
  543SOL    HW1 1961   1.222   0.441   4.053
  543SOL    HW2 1962   1.180   0.599   4.059
  544SOL     OW 1963   0.307   0.213   4.955
  544SOL    HW1 1964   0.284   0.250   5.045
  544SOL    HW2 1965   0.277   0.118   4.949
  545SOL     OW 1966   0.037   1.310   5.006
  545SOL    HW1 1967   0.090   1.261   5.074
  545SOL    HW2 1968   0.059   1.408   5.011
  546SOL     OW 1969   0.732   0.634   4.788
  546SOL    HW1 1970   0.791   0.608   4.712
  546SOL    HW2 1971   0.704   0.730   4.777
  547SOL     OW 1972   1.728   0.935   5.578
  547SOL    HW1 1973   1.682   0.928   5.489
  547SOL    HW2 1974   1.666   0.979   5.644
  548SOL     OW 1975   0.307   0.063   4.342
  548SOL    HW1 1976   0.296   0.157   4.375
  548SOL    HW2 1977   0.302   0.000   4.419
  549SOL     OW 1978   1.622   0.367   4.098
  549SOL    HW1 1979   1.624   0.291   4.162
  549SOL    HW2 1980   1.574   0.444   4.138
  550SOL     OW 1981   1.023   0.766   4.690
  550SOL    HW1 1982   1.038   0.787   4.786
  550SOL    HW2 1983   0.993   0.671   4.681
  551SOL     OW 1984   0.980   1.573   5.424
  551SOL    HW1 1985   0.960   1.617   5.336
  551SOL    HW2 1986   1.019   1.482   5.408
  552SOL     OW 1987   1.859   1.518   5.329
  552SOL    HW1 1988   1.873   1.545   5.234
  552SOL    HW2 1989   1.942   1.540   5.382
  553SOL     OW 1990   0.350   0.898   5.528
  553SOL    HW1 1991   0.426   0.942   5.576
  553SOL    HW2 1992   0.385   0.851   5.446
  554SOL     OW 1993   1.540   0.274   3.849
  554SOL    HW1 1994   1.479   0.199   3.872
  554SOL    HW2 1995   1.562   0.326   3.932
  555SOL     OW 1996   1.303   0.838   3.766
  555SOL    HW1 1997   1.337   0.745   3.781
  555SOL    HW2 1998   1.321   0.865   3.671
  556SOL     OW 1999   1.068   1.333   4.573
  556SOL    HW1 2000   1.075   1.249   4.518
  556SOL    HW2 2001   1.130   1.402   4.537
  557SOL     OW 2002   0.319   0.810   4.673
  557SOL    HW1 2003   0.412   0.846   4.678
  557SOL    HW2 2004   0.313   0.725   4.725
  558SOL     OW 2005   0.339   0.509   4.730
  558SOL    HW1 2006   0.287   0.426   4.713
  558SOL    HW2 2007   0.416   0.514   4.666
  559SOL     OW 2008   1.138   0.380   5.402
  559SOL    HW1 2009   1.093   0.443   5.466
  559SOL    HW2 2010   1.231   0.411   5.385
  560SOL     OW 2011   1.160   0.207   5.201
  560SOL    HW1 2012   1.160   0.271   5.278
  560SOL    HW2 2013   1.188   0.255   5.118
  561SOL     OW 2014   0.008   1.326   3.924
  561SOL    HW1 2015  -0.085   1.347   3.893
  561SOL    HW2 2016   0.018   1.227   3.937
  562SOL     OW 2017   0.088   1.801   4.651
  562SOL    HW1 2018   0.046   1.715   4.624
  562SOL    HW2 2019   0.182   1.804   4.617
  563SOL     OW 2020   0.504   1.568   4.634
  563SOL    HW1 2021   0.570   1.642   4.643
  563SOL    HW2 2022   0.548   1.489   4.592
  564SOL     OW 2023   1.002   0.796   4.962
  564SOL    HW1 2024   1.043   0.764   5.048
  564SOL    HW2 2025   0.906   0.769   4.959
  565SOL     OW 2026   0.040   0.544   4.838
  565SOL    HW1 2027   0.125   0.511   4.797
  565SOL    HW2 2028   0.053   0.559   4.936
  566SOL     OW 2029   0.189   0.520   5.446
  566SOL    HW1 2030   0.248   0.480   5.376
  566SOL    HW2 2031   0.131   0.591   5.405
  567SOL     OW 2032   1.369   0.950   5.384
  567SOL    HW1 2033   1.408   1.039   5.404
  567SOL    HW2 2034   1.379   0.930   5.287
  568SOL     OW 2035   0.815   0.572   4.049
  568SOL    HW1 2036   0.822   0.483   4.003
  568SOL    HW2 2037   0.721   0.606   4.041
  569SOL     OW 2038   1.657   0.604   4.930
  569SOL    HW1 2039   1.619   0.535   4.992
  569SOL    HW2 2040   1.739   0.568   4.886
  570SOL     OW 2041   0.252   1.564   5.468
  570SOL    HW1 2042   0.222   1.621   5.544
  570SOL    HW2 2043   0.245   1.467   5.494
  571SOL     OW 2044   0.671   0.464   4.993
  571SOL    HW1 2045   0.637   0.375   4.963
  571SOL    HW2 2046   0.697   0.518   4.913
  572SOL     OW 2047   0.930   1.678   5.189
  572SOL    HW1 2048   0.906   1.660   5.094
  572SOL    HW2 2049   0.960   1.772   5.199
  573SOL     OW 2050   0.473   0.500   3.915
  573SOL    HW1 2051   0.534   0.580   3.919
  573SOL    HW2 2052   0.378   0.531   3.922
  574SOL     OW 2053   0.159   1.137   5.190
  574SOL    HW1 2054   0.181   1.076   5.266
  574SOL    HW2 2055   0.169   1.088   5.104
  575SOL     OW 2056   1.347   1.059   4.958
  575SOL    HW1 2057   1.371   0.996   4.884
  575SOL    HW2 2058   1.257   1.099   4.940
  576SOL     OW 2059   1.302   0.855   4.033
  576SOL    HW1 2060   1.216   0.824   4.075
  576SOL    HW2 2061   1.298   0.841   3.934
  577SOL     OW 2062   1.759   1.747   4.878
  577SOL    HW1 2063   1.820   1.777   4.805
  577SOL    HW2 2064   1.721   1.658   4.856
  578SOL     OW 2065   1.252   1.731   4.852
  578SOL    HW1 2066   1.336   1.736   4.798
  578SOL    HW2 2067   1.229   1.635   4.870
  579SOL     OW 2068   0.083   1.258   4.746
  579SOL    HW1 2069   0.078   1.257   4.846
  579SOL    HW2 2070   0.000   1.217   4.708
  580SOL     OW 2071   0.688   1.662   5.440
  580SOL    HW1 2072   0.632   1.743   5.449
  580SOL    HW2 2073   0.740   1.666   5.354
  581SOL     OW 2074   1.726   0.135   4.247
  581SOL    HW1 2075   1.799   0.118   4.180
  581SOL    HW2 2076   1.695   0.048   4.285
  582SOL     OW 2077   1.388   1.573   4.201
  582SOL    HW1 2078   1.455   1.585   4.127
  582SOL    HW2 2079   1.348   1.662   4.224
  583SOL     OW 2080   0.130   1.794   5.575
  583SOL    HW1 2081   0.089   1.720   5.628
  583SOL    HW2 2082   0.194   1.845   5.633
  584SOL     OW 2083   1.280   0.927   4.396
  584SOL    HW1 2084   1.340   0.846   4.398
  584SOL    HW2 2085   1.320   0.996   4.336
  585SOL     OW 2086   0.830   1.273   5.146
  585SOL    HW1 2087   0.825   1.306   5.241
  585SOL    HW2 2088   0.744   1.292   5.100
  586SOL     OW 2089   0.672   1.616   3.878
  586SOL    HW1 2090   0.681   1.626   3.779
  586SOL    HW2 2091   0.632   1.527   3.899
  587SOL     OW 2092   1.650   1.720   5.118
  587SOL    HW1 2093   1.703   1.730   5.034
  587SOL    HW2 2094   1.623   1.810   5.152
  588SOL     OW 2095   1.841   0.175   4.687
  588SOL    HW1 2096   1.880   0.090   4.651
  588SOL    HW2 2097   1.743   0.177   4.668
  589SOL     OW 2098   0.263   0.326   4.444
  589SOL    HW1 2099   0.184   0.377   4.410
  589SOL    HW2 2100   0.254   0.311   4.542
  590SOL     OW 2101   1.194   1.612   3.755
  590SOL    HW1 2102   1.200   1.519   3.792
  590SOL    HW2 2103   1.135   1.612   3.675
  591SOL     OW 2104   0.822   1.002   5.096
  591SOL    HW1 2105   0.862   1.001   5.004
  591SOL    HW2 2106   0.832   1.094   5.136
  592SOL     OW 2107   0.916   0.910   4.015
  592SOL    HW1 2108   0.979   0.948   3.947
  592SOL    HW2 2109   0.956   0.827   4.054
  593SOL     OW 2110   1.504   1.607   3.768
  593SOL    HW1 2111   1.412   1.644   3.775
  593SOL    HW2 2112   1.542   1.627   3.678
  594SOL     OW 2113   0.372   1.288   5.214
  594SOL    HW1 2114   0.359   1.381   5.180
  594SOL    HW2 2115   0.288   1.236   5.201
  595SOL     OW 2116   1.614   1.292   5.013
  595SOL    HW1 2117   1.674   1.295   5.093
  595SOL    HW2 2118   1.539   1.356   5.026
  596SOL     OW 2119   1.039   1.098   4.420
  596SOL    HW1 2120   0.969   1.051   4.474
  596SOL    HW2 2121   1.098   1.030   4.377
  597SOL     OW 2122   1.014   0.236   4.695
  597SOL    HW1 2123   1.006   0.200   4.602
  597SOL    HW2 2124   1.012   0.160   4.760
  598SOL     OW 2125   0.590   1.487   4.215
  598SOL    HW1 2126   0.632   1.429   4.145
  598SOL    HW2 2127   0.546   1.566   4.171
  599SOL     OW 2128   1.709   0.385   5.105
  599SOL    HW1 2129   1.782   0.454   5.109
  599SOL    HW2 2130   1.737   0.310   5.046
  600SOL     OW 2131   0.255   1.348   4.014
  600SOL    HW1 2132   0.159   1.349   3.987
  600SOL    HW2 2133   0.267   1.401   4.098
  601SOL     OW 2134   0.105   1.013   5.450
  601SOL    HW1 2135   0.028   0.980   5.504
  601SOL    HW2 2136   0.190   0.983   5.492
  602SOL     OW 2137   0.672   0.203   5.213
  602SOL    HW1 2138   0.762   0.187   5.173
  602SOL    HW2 2139   0.680   0.208   5.312
  603SOL     OW 2140   0.075   0.345   3.757
  603SOL    HW1 2141  -0.017   0.317   3.728
  603SOL    HW2 2142   0.106   0.422   3.701
  604SOL     OW 2143   1.440   0.856   5.122
  604SOL    HW1 2144   1.383   0.908   5.059
  604SOL    HW2 2145   1.536   0.868   5.098
  605SOL     OW 2146   0.072   0.166   4.042
  605SOL    HW1 2147   0.055   0.249   3.988
  605SOL    HW2 2148   0.162   0.129   4.020
  606SOL     OW 2149   1.183   1.335   3.843
  606SOL    HW1 2150   1.084   1.324   3.845
  606SOL    HW2 2151   1.217   1.350   3.936
  607SOL     OW 2152   0.613   0.842   5.155
  607SOL    HW1 2153   0.669   0.923   5.138
  607SOL    HW2 2154   0.672   0.762   5.158
  608SOL     OW 2155   1.493   1.767   4.683
  608SOL    HW1 2156   1.526   1.831   4.614
  608SOL    HW2 2157   1.559   1.761   4.758
  609SOL     OW 2158   0.716   0.565   5.432
  609SOL    HW1 2159   0.735   0.630   5.506
  609SOL    HW2 2160   0.776   0.485   5.441
  610SOL     OW 2161   1.450   1.220   5.357
  610SOL    HW1 2162   1.441   1.210   5.456
  610SOL    HW2 2163   1.546   1.213   5.331
  611SOL     OW 2164   0.390   1.741   5.284
  611SOL    HW1 2165   0.299   1.782   5.282
  611SOL    HW2 2166   0.383   1.647   5.316
  612SOL     OW 2167   1.674   0.883   4.978
  612SOL    HW1 2168   1.647   0.794   4.941
  612SOL    HW2 2169   1.675   0.951   4.905
  613SOL     OW 2170   1.225   0.325   4.173
  613SOL    HW1 2171   1.290   0.251   4.162
  613SOL    HW2 2172   1.245   0.375   4.257
  614SOL     OW 2173   0.594   0.745   4.376
  614SOL    HW1 2174   0.644   0.830   4.357
  614SOL    HW2 2175   0.506   0.747   4.328
  615SOL     OW 2176   1.777   0.342   5.366
  615SOL    HW1 2177   1.760   0.373   5.272
  615SOL    HW2 2178   1.693   0.305   5.404
  616SOL     OW 2179   1.730   0.934   5.241
  616SOL    HW1 2180   1.768   1.025   5.256
  616SOL    HW2 2181   1.722   0.917   5.142
  617SOL     OW 2182   0.859   1.374   3.740
  617SOL    HW1 2183   0.813   1.389   3.828
  617SOL    HW2 2184   0.903   1.459   3.710
  618SOL     OW 2185   0.661   1.790   4.677
  618SOL    HW1 2186   0.615   1.878   4.664
  618SOL    HW2 2187   0.760   1.802   4.670
  619SOL     OW 2188   0.859   0.956   4.585
  619SOL    HW1 2189   0.913   0.887   4.633
  619SOL    HW2 2190   0.827   1.025   4.651
  620SOL     OW 2191   1.083   0.984   3.811
  620SOL    HW1 2192   1.060   1.037   3.729
  620SOL    HW2 2193   1.164   0.928   3.792
  621SOL     OW 2194   1.861   1.569   4.575
  621SOL    HW1 2195   1.790   1.557   4.505
  621SOL    HW2 2196   1.862   1.490   4.635
  622SOL     OW 2197   0.221   1.314   5.568
  622SOL    HW1 2198   0.156   1.241   5.547
  622SOL    HW2 2199   0.225   1.328   5.666
  623SOL     OW 2200   0.079   1.240   4.377
  623SOL    HW1 2201   0.078   1.193   4.465
  623SOL    HW2 2202   0.161   1.212   4.326
  624SOL     OW 2203   0.672   1.391   5.348
  624SOL    HW1 2204   0.594   1.341   5.386
  624SOL    HW2 2205   0.669   1.486   5.379
  625SOL     OW 2206   1.824   0.192   4.951
  625SOL    HW1 2207   1.820   0.102   4.995
  625SOL    HW2 2208   1.827   0.181   4.852
  626SOL     OW 2209   0.428   0.424   4.244
  626SOL    HW1 2210   0.458   0.352   4.182
  626SOL    HW2 2211   0.389   0.384   4.327
  627SOL     OW 2212   1.705   1.487   4.828
  627SOL    HW1 2213   1.612   1.462   4.801
  627SOL    HW2 2214   1.731   1.437   4.910
  628SOL     OW 2215   0.317   0.547   5.004
  628SOL    HW1 2216   0.355   0.488   5.076
  628SOL    HW2 2217   0.357   0.521   4.916
  629SOL     OW 2218   0.812   1.586   4.411
  629SOL    HW1 2219   0.844   1.596   4.317
  629SOL    HW2 2220   0.733   1.524   4.413
  630SOL     OW 2221   1.424   0.214   4.836
  630SOL    HW1 2222   1.476   0.149   4.891
  630SOL    HW2 2223   1.375   0.277   4.897
  631SOL     OW 2224   1.001   0.034   4.878
  631SOL    HW1 2225   0.938  -0.038   4.847
  631SOL    HW2 2226   1.094  -0.002   4.878
  632SOL     OW 2227   0.770   1.330   4.025
  632SOL    HW1 2228   0.724   1.243   4.042
  632SOL    HW2 2229   0.861   1.327   4.066
  633SOL     OW 2230   0.618   1.567   5.008
  633SOL    HW1 2231   0.613   1.649   5.065
  633SOL    HW2 2232   0.707   1.564   4.963
  634SOL     OW 2233   1.352   0.052   3.892
  634SOL    HW1 2234   1.387   0.011   3.808
  634SOL    HW2 2235   1.262   0.014   3.912
  635SOL     OW 2236   1.300   0.453   4.415
  635SOL    HW1 2237   1.241   0.533   4.419
  635SOL    HW2 2238   1.315   0.418   4.508
  636SOL     OW 2239   1.593   0.221   4.606
  636SOL    HW1 2240   1.509   0.220   4.660
  636SOL    HW2 2241   1.595   0.304   4.550
  637SOL     OW 2242   0.039   1.077   4.024
  637SOL    HW1 2243   0.138   1.066   4.015
  637SOL    HW2 2244  -0.001   0.991   4.056
  638SOL     OW 2245   0.875   1.646   4.061
  638SOL    HW1 2246   0.798   1.611   4.007
  638SOL    HW2 2247   0.843   1.717   4.123
  639SOL     OW 2248   0.230   0.628   5.699
  639SOL    HW1 2249   0.137   0.626   5.736
  639SOL    HW2 2250   0.231   0.589   5.607
  640SOL     OW 2251   0.225   0.275   6.582
  640SOL    HW1 2252   0.260   0.258   6.674
  640SOL    HW2 2253   0.137   0.230   6.570
  641SOL     OW 2254   0.019   0.368   6.233
  641SOL    HW1 2255  -0.063   0.411   6.272
  641SOL    HW2 2256  -0.009   0.295   6.170
  642SOL     OW 2257   0.569   1.275   6.751
  642SOL    HW1 2258   0.476   1.268   6.714
  642SOL    HW2 2259   0.580   1.364   6.795
  643SOL     OW 2260   1.555   1.511   6.289
  643SOL    HW1 2261   1.498   1.495   6.370
  643SOL    HW2 2262   1.496   1.521   6.209
  644SOL     OW 2263   1.135   0.703   6.303
  644SOL    HW1 2264   1.192   0.781   6.278
  644SOL    HW2 2265   1.075   0.729   6.379
  645SOL     OW 2266   1.755   0.607   5.817
  645SOL    HW1 2267   1.743   0.594   5.718
  645SOL    HW2 2268   1.725   0.526   5.866
  646SOL     OW 2269   0.768   1.144   6.609
  646SOL    HW1 2270   0.690   1.161   6.669
  646SOL    HW2 2271   0.802   1.231   6.573
  647SOL     OW 2272   0.850   0.798   7.409
  647SOL    HW1 2273   0.846   0.874   7.474
  647SOL    HW2 2274   0.872   0.834   7.318
  648SOL     OW 2275   0.685   1.012   6.251
  648SOL    HW1 2276   0.754   0.996   6.321
  648SOL    HW2 2277   0.612   1.069   6.289
  649SOL     OW 2278   0.686   1.161   7.389
  649SOL    HW1 2279   0.746   1.240   7.403
  649SOL    HW2 2280   0.600   1.192   7.348
  650SOL     OW 2281   0.335   1.435   6.647
  650SOL    HW1 2282   0.257   1.404   6.594
  650SOL    HW2 2283   0.393   1.493   6.590
  651SOL     OW 2284   1.460   1.505   6.925
  651SOL    HW1 2285   1.484   1.599   6.951
  651SOL    HW2 2286   1.444   1.451   7.007
  652SOL     OW 2287   0.438   0.392   7.085
  652SOL    HW1 2288   0.520   0.336   7.094
  652SOL    HW2 2289   0.357   0.334   7.089
  653SOL     OW 2290   1.603   0.447   6.323
  653SOL    HW1 2291   1.529   0.493   6.273
  653SOL    HW2 2292   1.654   0.515   6.376
  654SOL     OW 2293   0.231   1.713   6.069
  654SOL    HW1 2294   0.265   1.790   6.123
  654SOL    HW2 2295   0.275   1.713   5.979
  655SOL     OW 2296   1.127   1.341   7.276
  655SOL    HW1 2297   1.174   1.341   7.364
  655SOL    HW2 2298   1.079   1.254   7.265
  656SOL     OW 2299   0.230   1.434   6.124
  656SOL    HW1 2300   0.204   1.530   6.124
  656SOL    HW2 2301   0.159   1.380   6.169
  657SOL     OW 2302   0.240   1.091   6.472
  657SOL    HW1 2303   0.254   1.007   6.524
  657SOL    HW2 2304   0.185   1.155   6.527
  658SOL     OW 2305   0.620   1.786   7.025
  658SOL    HW1 2306   0.528   1.769   7.060
  658SOL    HW2 2307   0.648   1.878   7.051
  659SOL     OW 2308   0.606   0.964   5.709
  659SOL    HW1 2309   0.613   1.048   5.655
  659SOL    HW2 2310   0.652   0.977   5.797
  660SOL     OW 2311   1.594   0.114   7.066
  660SOL    HW1 2312   1.576   0.181   6.994
  660SOL    HW2 2313   1.591   0.160   7.155
  661SOL     OW 2314   0.122   0.643   6.149
  661SOL    HW1 2315   0.077   0.555   6.166
  661SOL    HW2 2316   0.121   0.697   6.233
  662SOL     OW 2317   1.842   1.767   5.945
  662SOL    HW1 2318   1.896   1.738   6.025
  662SOL    HW2 2319   1.872   1.857   5.916
  663SOL     OW 2320   0.027   1.596   5.703
  663SOL    HW1 2321   0.008   1.500   5.724
  663SOL    HW2 2322  -0.006   1.654   5.778
  664SOL     OW 2323   1.689   0.922   6.198
  664SOL    HW1 2324   1.784   0.893   6.206
  664SOL    HW2 2325   1.681   0.987   6.123
  665SOL     OW 2326   1.641   1.108   6.018
  665SOL    HW1 2327   1.727   1.110   5.966
  665SOL    HW2 2328   1.655   1.155   6.106
  666SOL     OW 2329   0.113   0.737   7.183
  666SOL    HW1 2330   0.201   0.724   7.228
  666SOL    HW2 2331   0.100   0.834   7.161
  667SOL     OW 2332   0.613   1.365   6.312
  667SOL    HW1 2333   0.564   1.278   6.321
  667SOL    HW2 2334   0.590   1.408   6.225
  668SOL     OW 2335   1.293   1.228   7.009
  668SOL    HW1 2336   1.330   1.155   6.951
  668SOL    HW2 2337   1.345   1.233   7.094
  669SOL     OW 2338   0.809   0.004   6.088
  669SOL    HW1 2339   0.849   0.095   6.079
  669SOL    HW2 2340   0.709   0.012   6.094
  670SOL     OW 2341   0.197   0.976   6.850
  670SOL    HW1 2342   0.286   0.931   6.836
  670SOL    HW2 2343   0.124   0.911   6.831
  671SOL     OW 2344   1.525   0.999   5.776
  671SOL    HW1 2345   1.462   0.923   5.789
  671SOL    HW2 2346   1.573   1.017   5.862
  672SOL     OW 2347   1.187   1.792   7.202
  672SOL    HW1 2348   1.211   1.852   7.126
  672SOL    HW2 2349   1.194   1.697   7.172
  673SOL     OW 2350   0.317   0.251   7.387
  673SOL    HW1 2351   0.388   0.322   7.393
  673SOL    HW2 2352   0.229   0.290   7.415
  674SOL     OW 2353   1.466   1.417   6.539
  674SOL    HW1 2354   1.407   1.423   6.619
  674SOL    HW2 2355   1.451   1.329   6.493
  675SOL     OW 2356   1.667   1.714   6.158
  675SOL    HW1 2357   1.626   1.691   6.070
  675SOL    HW2 2358   1.649   1.640   6.223
  676SOL     OW 2359   0.598   0.729   5.856
  676SOL    HW1 2360   0.622   0.798   5.788
  676SOL    HW2 2361   0.520   0.762   5.910
  677SOL     OW 2362   1.281   0.345   6.530
  677SOL    HW1 2363   1.195   0.295   6.517
  677SOL    HW2 2364   1.343   0.291   6.586
  678SOL     OW 2365   1.576   1.662   5.893
  678SOL    HW1 2366   1.665   1.708   5.896
  678SOL    HW2 2367   1.555   1.638   5.798
  679SOL     OW 2368   0.807   0.605   7.051
  679SOL    HW1 2369   0.760   0.602   7.140
  679SOL    HW2 2370   0.756   0.550   6.985
  680SOL     OW 2371   1.394   0.469   7.260
  680SOL    HW1 2372   1.374   0.512   7.348
  680SOL    HW2 2373   1.472   0.407   7.269
  681SOL     OW 2374   0.973   0.890   7.158
  681SOL    HW1 2375   1.019   0.806   7.129
  681SOL    HW2 2376   0.917   0.924   7.083
  682SOL     OW 2377   0.991   0.410   6.828
  682SOL    HW1 2378   0.914   0.444   6.882
  682SOL    HW2 2379   0.957   0.359   6.749
  683SOL     OW 2380   1.041   0.701   6.015
  683SOL    HW1 2381   1.067   0.697   6.111
  683SOL    HW2 2382   0.956   0.650   6.001
  684SOL     OW 2383   0.076   0.811   6.375
  684SOL    HW1 2384   0.175   0.799   6.384
  684SOL    HW2 2385   0.052   0.906   6.396
  685SOL     OW 2386   0.130   1.821   7.157
  685SOL    HW1 2387   0.120   1.806   7.256
  685SOL    HW2 2388   0.044   1.857   7.121
  686SOL     OW 2389   0.865   0.348   5.781
  686SOL    HW1 2390   0.924   0.411   5.732
  686SOL    HW2 2391   0.884   0.254   5.752
  687SOL     OW 2392   1.719   0.585   7.417
  687SOL    HW1 2393   1.693   0.674   7.381
  687SOL    HW2 2394   1.717   0.517   7.344
  688SOL     OW 2395   1.362   1.144   6.131
  688SOL    HW1 2396   1.445   1.115   6.083
  688SOL    HW2 2397   1.313   1.211   6.075
  689SOL     OW 2398   0.550   0.196   6.471
  689SOL    HW1 2399   0.545   0.191   6.571
  689SOL    HW2 2400   0.552   0.292   6.442
  690SOL     OW 2401   1.008   1.456   6.063
  690SOL    HW1 2402   0.962   1.528   6.011
  690SOL    HW2 2403   1.004   1.476   6.161
  691SOL     OW 2404   0.351   1.801   6.439
  691SOL    HW1 2405   0.401   1.715   6.445
  691SOL    HW2 2406   0.416   1.878   6.436
  692SOL     OW 2407   1.795   1.066   6.459
  692SOL    HW1 2408   1.733   1.051   6.383
  692SOL    HW2 2409   1.743   1.077   6.544
  693SOL     OW 2410   1.227   1.550   7.092
  693SOL    HW1 2411   1.233   1.473   7.156
  693SOL    HW2 2412   1.175   1.524   7.012
  694SOL     OW 2413   0.321   0.943   5.828
  694SOL    HW1 2414   0.403   0.982   5.786
  694SOL    HW2 2415   0.294   0.861   5.779
  695SOL     OW 2416   1.458   0.735   6.314
  695SOL    HW1 2417   1.453   0.670   6.389
  695SOL    HW2 2418   1.538   0.794   6.327
  696SOL     OW 2419   0.461   1.266   7.313
  696SOL    HW1 2420   0.411   1.267   7.227
  696SOL    HW2 2421   0.398   1.248   7.389
  697SOL     OW 2422   1.111   1.776   5.823
  697SOL    HW1 2423   1.051   1.714   5.873
  697SOL    HW2 2424   1.142   1.732   5.738
  698SOL     OW 2425   0.202   0.285   7.084
  698SOL    HW1 2426   0.122   0.345   7.071
  698SOL    HW2 2427   0.192   0.236   7.170
  699SOL     OW 2428   1.632   1.377   5.667
  699SOL    HW1 2429   1.600   1.471   5.657
  699SOL    HW2 2430   1.556   1.314   5.655
  700SOL     OW 2431   0.464   1.743   5.909
  700SOL    HW1 2432   0.497   1.782   5.995
  700SOL    HW2 2433   0.540   1.736   5.844
  701SOL     OW 2434   1.400   0.107   6.012
  701SOL    HW1 2435   1.376   0.070   5.922
  701SOL    HW2 2436   1.499   0.123   6.016
  702SOL     OW 2437   0.249   1.785   6.827
  702SOL    HW1 2438   0.306   1.720   6.877
  702SOL    HW2 2439   0.233   1.752   6.734
  703SOL     OW 2440   0.940   1.698   6.490
  703SOL    HW1 2441   1.020   1.641   6.511
  703SOL    HW2 2442   0.891   1.658   6.413
  704SOL     OW 2443   0.382   0.700   6.066
  704SOL    HW1 2444   0.427   0.610   6.063
  704SOL    HW2 2445   0.288   0.689   6.099
  705SOL     OW 2446   1.547   0.222   7.315
  705SOL    HW1 2447   1.542   0.259   7.407
  705SOL    HW2 2448   1.475   0.153   7.303
  706SOL     OW 2449   0.614   0.122   5.703
  706SOL    HW1 2450   0.712   0.100   5.710
  706SOL    HW2 2451   0.583   0.105   5.610
  707SOL     OW 2452   0.781   0.264   7.335
  707SOL    HW1 2453   0.848   0.203   7.378
  707SOL    HW2 2454   0.708   0.283   7.400
  708SOL     OW 2455   0.888   1.514   6.781
  708SOL    HW1 2456   0.865   1.489   6.687
  708SOL    HW2 2457   0.949   1.445   6.820
  709SOL     OW 2458   1.351   0.590   7.019
  709SOL    HW1 2459   1.379   0.547   7.104
  709SOL    HW2 2460   1.376   0.686   7.020
  710SOL     OW 2461   0.803   1.402   6.510
  710SOL    HW1 2462   0.893   1.416   6.468
  710SOL    HW2 2463   0.732   1.404   6.439
  711SOL     OW 2464   0.922   0.503   6.485
  711SOL    HW1 2465   0.897   0.494   6.389
  711SOL    HW2 2466   0.970   0.421   6.516
  712SOL     OW 2467   0.539   0.064   6.098
  712SOL    HW1 2468   0.458   0.065   6.156
  712SOL    HW2 2469   0.542   0.147   6.043
  713SOL     OW 2470   1.434   1.188   5.627
  713SOL    HW1 2471   1.466   1.112   5.684
  713SOL    HW2 2472   1.342   1.215   5.657
  714SOL     OW 2473   0.297   0.035   5.757
  714SOL    HW1 2474   0.346   0.119   5.736
  714SOL    HW2 2475   0.359  -0.030   5.802
  715SOL     OW 2476   0.935   0.236   6.066
  715SOL    HW1 2477   0.887   0.277   5.988
  715SOL    HW2 2478   1.034   0.234   6.047
  716SOL     OW 2479   1.076   0.683   7.050
  716SOL    HW1 2480   0.996   0.622   7.053
  716SOL    HW2 2481   1.157   0.630   7.026
  717SOL     OW 2482   1.227   1.570   6.379
  717SOL    HW1 2483   1.248   1.644   6.314
  717SOL    HW2 2484   1.295   1.570   6.452
  718SOL     OW 2485   0.459   1.152   6.327
  718SOL    HW1 2486   0.388   1.125   6.392
  718SOL    HW2 2487   0.433   1.124   6.234
  719SOL     OW 2488   1.271   1.797   6.177
  719SOL    HW1 2489   1.315   1.861   6.113
  719SOL    HW2 2490   1.221   1.849   6.247
  720SOL     OW 2491   1.032   0.549   5.602
  720SOL    HW1 2492   0.991   0.631   5.563
  720SOL    HW2 2493   1.096   0.575   5.675
  721SOL     OW 2494   0.078   0.556   6.972
  721SOL    HW1 2495   0.170   0.555   6.931
  721SOL    HW2 2496   0.072   0.630   7.039
  722SOL     OW 2497   0.561   0.222   6.733
  722SOL    HW1 2498   0.599   0.138   6.770
  722SOL    HW2 2499   0.473   0.241   6.777
  723SOL     OW 2500   0.866   0.454   6.228
  723SOL    HW1 2501   0.834   0.526   6.166
  723SOL    HW2 2502   0.890   0.373   6.175
  724SOL     OW 2503   1.017   0.039   6.339
  724SOL    HW1 2504   0.945   0.044   6.270
  724SOL    HW2 2505   0.993  -0.030   6.408
  725SOL     OW 2506   1.429   1.173   6.453
  725SOL    HW1 2507   1.374   1.089   6.446
  725SOL    HW2 2508   1.455   1.202   6.361
  726SOL     OW 2509   1.466   0.590   6.578
  726SOL    HW1 2510   1.436   0.495   6.585
  726SOL    HW2 2511   1.539   0.606   6.644
  727SOL     OW 2512   1.857   0.833   5.963
  727SOL    HW1 2513   1.899   0.769   6.027
  727SOL    HW2 2514   1.819   0.782   5.885
  728SOL     OW 2515   0.488   1.385   5.760
  728SOL    HW1 2516   0.401   1.370   5.807
  728SOL    HW2 2517   0.471   1.411   5.665
  729SOL     OW 2518   1.664   1.280   6.243
  729SOL    HW1 2519   1.763   1.288   6.257
  729SOL    HW2 2520   1.619   1.364   6.274
  730SOL     OW 2521   1.390   0.575   5.664
  730SOL    HW1 2522   1.336   0.554   5.745
  730SOL    HW2 2523   1.481   0.534   5.673
  731SOL     OW 2524   0.527   0.256   5.914
  731SOL    HW1 2525   0.554   0.197   5.839
  731SOL    HW2 2526   0.527   0.351   5.883
  732SOL     OW 2527   1.754   1.223   7.174
  732SOL    HW1 2528   1.845   1.184   7.161
  732SOL    HW2 2529   1.762   1.319   7.198
  733SOL     OW 2530   1.064   1.347   6.926
  733SOL    HW1 2531   0.984   1.324   6.981
  733SOL    HW2 2532   1.147   1.321   6.975
  734SOL     OW 2533   1.592   1.629   7.211
  734SOL    HW1 2534   1.619   1.663   7.121
  734SOL    HW2 2535   1.671   1.591   7.257
  735SOL     OW 2536   1.111   1.195   6.686
  735SOL    HW1 2537   1.071   1.239   6.767
  735SOL    HW2 2538   1.070   1.232   6.603
  736SOL     OW 2539   1.638   1.099   6.665
  736SOL    HW1 2540   1.643   1.180   6.724
  736SOL    HW2 2541   1.552   1.101   6.614
  737SOL     OW 2542   0.915   0.089   6.988
  737SOL    HW1 2543   0.940   0.069   6.893
  737SOL    HW2 2544   0.987   0.145   7.030
  738SOL     OW 2545   0.980   1.116   7.305
  738SOL    HW1 2546   0.881   1.122   7.315
  738SOL    HW2 2547   1.003   1.036   7.249
  739SOL     OW 2548   0.705   1.050   5.954
  739SOL    HW1 2549   0.691   1.057   6.053
  739SOL    HW2 2550   0.789   0.999   5.936
  740SOL     OW 2551   0.410   0.813   6.837
  740SOL    HW1 2552   0.496   0.825   6.887
  740SOL    HW2 2553   0.368   0.726   6.864
  741SOL     OW 2554   1.274   0.386   6.848
  741SOL    HW1 2555   1.295   0.460   6.912
  741SOL    HW2 2556   1.185   0.403   6.805
  742SOL     OW 2557   0.064   1.564   6.917
  742SOL    HW1 2558   0.018   1.646   6.883
  742SOL    HW2 2559   0.162   1.583   6.926
  743SOL     OW 2560   0.367   1.100   6.087
  743SOL    HW1 2561   0.360   1.183   6.031
  743SOL    HW2 2562   0.371   1.020   6.027
  744SOL     OW 2563   0.566   0.537   6.451
  744SOL    HW1 2564   0.578   0.603   6.377
  744SOL    HW2 2565   0.612   0.571   6.534
  745SOL     OW 2566   1.252   1.348   5.974
  745SOL    HW1 2567   1.302   1.425   6.014
  745SOL    HW2 2568   1.157   1.350   6.006
  746SOL     OW 2569   1.272   1.445   6.728
  746SOL    HW1 2570   1.319   1.458   6.815
  746SOL    HW2 2571   1.206   1.371   6.737
  747SOL     OW 2572   1.582   0.639   6.058
  747SOL    HW1 2573   1.551   0.700   6.131
  747SOL    HW2 2574   1.632   0.691   5.989
  748SOL     OW 2575   0.354   1.510   6.915
  748SOL    HW1 2576   0.333   1.466   6.828
  748SOL    HW2 2577   0.451   1.536   6.918
  749SOL     OW 2578   0.402   0.751   7.184
  749SOL    HW1 2579   0.470   0.806   7.137
  749SOL    HW2 2580   0.442   0.663   7.211
  750SOL     OW 2581   1.587   0.779   7.256
  750SOL    HW1 2582   1.495   0.817   7.251
  750SOL    HW2 2583   1.647   0.826   7.191
  751SOL     OW 2584   1.013   0.105   7.356
  751SOL    HW1 2585   1.019   0.190   7.304
  751SOL    HW2 2586   1.045   0.029   7.299
  752SOL     OW 2587   0.504   0.050   7.326
  752SOL    HW1 2588   0.462  -0.007   7.256
  752SOL    HW2 2589   0.438   0.119   7.358
  753SOL     OW 2590   0.573   0.870   6.615
  753SOL    HW1 2591   0.617   0.959   6.606
  753SOL    HW2 2592   0.510   0.870   6.692
  754SOL     OW 2593   1.360   0.862   6.631
  754SOL    HW1 2594   1.285   0.862   6.565
  754SOL    HW2 2595   1.397   0.770   6.640
  755SOL     OW 2596   1.209   0.525   5.861
  755SOL    HW1 2597   1.222   0.441   5.915
  755SOL    HW2 2598   1.180   0.599   5.921
  756SOL     OW 2599   0.307   0.213   6.817
  756SOL    HW1 2600   0.284   0.250   6.907
  756SOL    HW2 2601   0.277   0.118   6.811
  757SOL     OW 2602   0.037   1.310   6.868
  757SOL    HW1 2603   0.090   1.261   6.936
  757SOL    HW2 2604   0.059   1.408   6.873
  758SOL     OW 2605   0.732   0.634   6.650
  758SOL    HW1 2606   0.791   0.608   6.574
  758SOL    HW2 2607   0.704   0.730   6.639
  759SOL     OW 2608   1.728   0.935   7.440
  759SOL    HW1 2609   1.682   0.928   7.351
  759SOL    HW2 2610   1.666   0.979   7.506
  760SOL     OW 2611   0.307   0.063   6.204
  760SOL    HW1 2612   0.296   0.157   6.237
  760SOL    HW2 2613   0.302   0.000   6.281
  761SOL     OW 2614   1.622   0.367   5.960
  761SOL    HW1 2615   1.624   0.291   6.024
  761SOL    HW2 2616   1.574   0.444   6.000
  762SOL     OW 2617   1.023   0.766   6.552
  762SOL    HW1 2618   1.038   0.787   6.648
  762SOL    HW2 2619   0.993   0.671   6.543
  763SOL     OW 2620   0.980   1.573   7.286
  763SOL    HW1 2621   0.960   1.617   7.198
  763SOL    HW2 2622   1.019   1.482   7.270
  764SOL     OW 2623   1.859   1.518   7.191
  764SOL    HW1 2624   1.873   1.545   7.096
  764SOL    HW2 2625   1.942   1.540   7.244
  765SOL     OW 2626   0.350   0.898   7.390
  765SOL    HW1 2627   0.426   0.942   7.438
  765SOL    HW2 2628   0.385   0.851   7.308
  766SOL     OW 2629   1.540   0.274   5.711
  766SOL    HW1 2630   1.479   0.199   5.734
  766SOL    HW2 2631   1.562   0.326   5.794
  767SOL     OW 2632   1.303   0.838   5.628
  767SOL    HW1 2633   1.337   0.745   5.643
  767SOL    HW2 2634   1.321   0.865   5.533
  768SOL     OW 2635   1.068   1.333   6.435
  768SOL    HW1 2636   1.075   1.249   6.380
  768SOL    HW2 2637   1.130   1.402   6.399
  769SOL     OW 2638   0.319   0.810   6.535
  769SOL    HW1 2639   0.412   0.846   6.540
  769SOL    HW2 2640   0.313   0.725   6.587
  770SOL     OW 2641   0.339   0.509   6.592
  770SOL    HW1 2642   0.287   0.426   6.575
  770SOL    HW2 2643   0.416   0.514   6.528
  771SOL     OW 2644   1.138   0.380   7.264
  771SOL    HW1 2645   1.093   0.443   7.328
  771SOL    HW2 2646   1.231   0.411   7.247
  772SOL     OW 2647   1.160   0.207   7.063
  772SOL    HW1 2648   1.160   0.271   7.140
  772SOL    HW2 2649   1.188   0.255   6.980
  773SOL     OW 2650   0.008   1.326   5.786
  773SOL    HW1 2651  -0.085   1.347   5.755
  773SOL    HW2 2652   0.018   1.227   5.799
  774SOL     OW 2653   0.088   1.801   6.513
  774SOL    HW1 2654   0.046   1.715   6.486
  774SOL    HW2 2655   0.182   1.804   6.479
  775SOL     OW 2656   0.504   1.568   6.496
  775SOL    HW1 2657   0.570   1.642   6.505
  775SOL    HW2 2658   0.548   1.489   6.454
  776SOL     OW 2659   1.002   0.796   6.824
  776SOL    HW1 2660   1.043   0.764   6.910
  776SOL    HW2 2661   0.906   0.769   6.821
  777SOL     OW 2662   0.040   0.544   6.700
  777SOL    HW1 2663   0.125   0.511   6.659
  777SOL    HW2 2664   0.053   0.559   6.798
  778SOL     OW 2665   0.189   0.520   7.308
  778SOL    HW1 2666   0.248   0.480   7.238
  778SOL    HW2 2667   0.131   0.591   7.267
  779SOL     OW 2668   1.369   0.950   7.246
  779SOL    HW1 2669   1.408   1.039   7.266
  779SOL    HW2 2670   1.379   0.930   7.149
  780SOL     OW 2671   0.815   0.572   5.911
  780SOL    HW1 2672   0.822   0.483   5.865
  780SOL    HW2 2673   0.721   0.606   5.903
  781SOL     OW 2674   1.657   0.604   6.792
  781SOL    HW1 2675   1.619   0.535   6.854
  781SOL    HW2 2676   1.739   0.568   6.748
  782SOL     OW 2677   0.252   1.564   7.330
  782SOL    HW1 2678   0.222   1.621   7.406
  782SOL    HW2 2679   0.245   1.467   7.356
  783SOL     OW 2680   0.671   0.464   6.855
  783SOL    HW1 2681   0.637   0.375   6.825
  783SOL    HW2 2682   0.697   0.518   6.775
  784SOL     OW 2683   0.930   1.678   7.051
  784SOL    HW1 2684   0.906   1.660   6.956
  784SOL    HW2 2685   0.960   1.772   7.061
  785SOL     OW 2686   0.473   0.500   5.777
  785SOL    HW1 2687   0.534   0.580   5.781
  785SOL    HW2 2688   0.378   0.531   5.784
  786SOL     OW 2689   0.159   1.137   7.052
  786SOL    HW1 2690   0.181   1.076   7.128
  786SOL    HW2 2691   0.169   1.088   6.966
  787SOL     OW 2692   1.347   1.059   6.820
  787SOL    HW1 2693   1.371   0.996   6.746
  787SOL    HW2 2694   1.257   1.099   6.802
  788SOL     OW 2695   1.302   0.855   5.895
  788SOL    HW1 2696   1.216   0.824   5.937
  788SOL    HW2 2697   1.298   0.841   5.796
  789SOL     OW 2698   1.759   1.747   6.740
  789SOL    HW1 2699   1.820   1.777   6.667
  789SOL    HW2 2700   1.721   1.658   6.718
  790SOL     OW 2701   1.252   1.731   6.714
  790SOL    HW1 2702   1.336   1.736   6.660
  790SOL    HW2 2703   1.229   1.635   6.732
  791SOL     OW 2704   0.083   1.258   6.608
  791SOL    HW1 2705   0.078   1.257   6.708
  791SOL    HW2 2706   0.000   1.217   6.570
  792SOL     OW 2707   0.688   1.662   7.302
  792SOL    HW1 2708   0.632   1.743   7.311
  792SOL    HW2 2709   0.740   1.666   7.216
  793SOL     OW 2710   1.726   0.135   6.109
  793SOL    HW1 2711   1.799   0.118   6.042
  793SOL    HW2 2712   1.695   0.048   6.147
  794SOL     OW 2713   1.388   1.573   6.063
  794SOL    HW1 2714   1.455   1.585   5.989
  794SOL    HW2 2715   1.348   1.662   6.086
  795SOL     OW 2716   0.130   1.794   7.437
  795SOL    HW1 2717   0.089   1.720   7.490
  795SOL    HW2 2718   0.194   1.845   7.495
  796SOL     OW 2719   1.280   0.927   6.258
  796SOL    HW1 2720   1.340   0.846   6.260
  796SOL    HW2 2721   1.320   0.996   6.198
  797SOL     OW 2722   0.830   1.273   7.008
  797SOL    HW1 2723   0.825   1.306   7.103
  797SOL    HW2 2724   0.744   1.292   6.962
  798SOL     OW 2725   0.672   1.616   5.740
  798SOL    HW1 2726   0.681   1.626   5.641
  798SOL    HW2 2727   0.632   1.527   5.761
  799SOL     OW 2728   1.650   1.720   6.980
  799SOL    HW1 2729   1.703   1.730   6.896
  799SOL    HW2 2730   1.623   1.810   7.014
  800SOL     OW 2731   1.841   0.175   6.549
  800SOL    HW1 2732   1.880   0.090   6.513
  800SOL    HW2 2733   1.743   0.177   6.530
  801SOL     OW 2734   0.263   0.326   6.306
  801SOL    HW1 2735   0.184   0.377   6.272
  801SOL    HW2 2736   0.254   0.311   6.404
  802SOL     OW 2737   1.194   1.612   5.617
  802SOL    HW1 2738   1.200   1.519   5.654
  802SOL    HW2 2739   1.135   1.612   5.537
  803SOL     OW 2740   0.822   1.002   6.958
  803SOL    HW1 2741   0.862   1.001   6.866
  803SOL    HW2 2742   0.832   1.094   6.998
  804SOL     OW 2743   0.916   0.910   5.877
  804SOL    HW1 2744   0.979   0.948   5.809
  804SOL    HW2 2745   0.956   0.827   5.916
  805SOL     OW 2746   1.504   1.607   5.630
  805SOL    HW1 2747   1.412   1.644   5.637
  805SOL    HW2 2748   1.542   1.627   5.540
  806SOL     OW 2749   0.372   1.288   7.076
  806SOL    HW1 2750   0.359   1.381   7.042
  806SOL    HW2 2751   0.288   1.236   7.063
  807SOL     OW 2752   1.614   1.292   6.875
  807SOL    HW1 2753   1.674   1.295   6.955
  807SOL    HW2 2754   1.539   1.356   6.888
  808SOL     OW 2755   1.039   1.098   6.282
  808SOL    HW1 2756   0.969   1.051   6.336
  808SOL    HW2 2757   1.098   1.030   6.239
  809SOL     OW 2758   1.014   0.236   6.557
  809SOL    HW1 2759   1.006   0.200   6.464
  809SOL    HW2 2760   1.012   0.160   6.622
  810SOL     OW 2761   0.590   1.487   6.077
  810SOL    HW1 2762   0.632   1.429   6.007
  810SOL    HW2 2763   0.546   1.566   6.033
  811SOL     OW 2764   1.709   0.385   6.967
  811SOL    HW1 2765   1.782   0.454   6.971
  811SOL    HW2 2766   1.737   0.310   6.908
  812SOL     OW 2767   0.255   1.348   5.876
  812SOL    HW1 2768   0.159   1.349   5.849
  812SOL    HW2 2769   0.267   1.401   5.960
  813SOL     OW 2770   0.105   1.013   7.312
  813SOL    HW1 2771   0.028   0.980   7.366
  813SOL    HW2 2772   0.190   0.983   7.354
  814SOL     OW 2773   0.672   0.203   7.075
  814SOL    HW1 2774   0.762   0.187   7.035
  814SOL    HW2 2775   0.680   0.208   7.174
  815SOL     OW 2776   0.075   0.345   5.619
  815SOL    HW1 2777  -0.017   0.317   5.590
  815SOL    HW2 2778   0.106   0.422   5.563
  816SOL     OW 2779   1.440   0.856   6.984
  816SOL    HW1 2780   1.383   0.908   6.921
  816SOL    HW2 2781   1.536   0.868   6.960
  817SOL     OW 2782   0.072   0.166   5.904
  817SOL    HW1 2783   0.055   0.249   5.850
  817SOL    HW2 2784   0.162   0.129   5.882
  818SOL     OW 2785   1.183   1.335   5.705
  818SOL    HW1 2786   1.084   1.324   5.707
  818SOL    HW2 2787   1.217   1.350   5.798
  819SOL     OW 2788   0.613   0.842   7.017
  819SOL    HW1 2789   0.669   0.923   7.000
  819SOL    HW2 2790   0.672   0.762   7.020
  820SOL     OW 2791   1.493   1.767   6.545
  820SOL    HW1 2792   1.526   1.831   6.476
  820SOL    HW2 2793   1.559   1.761   6.620
  821SOL     OW 2794   0.716   0.565   7.294
  821SOL    HW1 2795   0.735   0.630   7.368
  821SOL    HW2 2796   0.776   0.485   7.303
  822SOL     OW 2797   1.450   1.220   7.219
  822SOL    HW1 2798   1.441   1.210   7.318
  822SOL    HW2 2799   1.546   1.213   7.193
  823SOL     OW 2800   0.390   1.741   7.146
  823SOL    HW1 2801   0.299   1.782   7.144
  823SOL    HW2 2802   0.383   1.647   7.178
  824SOL     OW 2803   1.674   0.883   6.840
  824SOL    HW1 2804   1.647   0.794   6.803
  824SOL    HW2 2805   1.675   0.951   6.767
  825SOL     OW 2806   1.225   0.325   6.035
  825SOL    HW1 2807   1.290   0.251   6.024
  825SOL    HW2 2808   1.245   0.375   6.119
  826SOL     OW 2809   0.594   0.745   6.238
  826SOL    HW1 2810   0.644   0.830   6.219
  826SOL    HW2 2811   0.506   0.747   6.190
  827SOL     OW 2812   1.777   0.342   7.228
  827SOL    HW1 2813   1.760   0.373   7.134
  827SOL    HW2 2814   1.693   0.305   7.266
  828SOL     OW 2815   1.730   0.934   7.103
  828SOL    HW1 2816   1.768   1.025   7.118
  828SOL    HW2 2817   1.722   0.917   7.004
  829SOL     OW 2818   0.859   1.374   5.602
  829SOL    HW1 2819   0.813   1.389   5.690
  829SOL    HW2 2820   0.903   1.459   5.572
  830SOL     OW 2821   0.661   1.790   6.539
  830SOL    HW1 2822   0.615   1.878   6.526
  830SOL    HW2 2823   0.760   1.802   6.532
  831SOL     OW 2824   0.859   0.956   6.447
  831SOL    HW1 2825   0.913   0.887   6.495
  831SOL    HW2 2826   0.827   1.025   6.513
  832SOL     OW 2827   1.083   0.984   5.673
  832SOL    HW1 2828   1.060   1.037   5.591
  832SOL    HW2 2829   1.164   0.928   5.654
  833SOL     OW 2830   1.861   1.569   6.437
  833SOL    HW1 2831   1.790   1.557   6.367
  833SOL    HW2 2832   1.862   1.490   6.497
  834SOL     OW 2833   0.221   1.314   7.430
  834SOL    HW1 2834   0.156   1.241   7.409
  834SOL    HW2 2835   0.225   1.328   7.528
  835SOL     OW 2836   0.079   1.240   6.239
  835SOL    HW1 2837   0.078   1.193   6.327
  835SOL    HW2 2838   0.161   1.212   6.188
  836SOL     OW 2839   0.672   1.391   7.210
  836SOL    HW1 2840   0.594   1.341   7.248
  836SOL    HW2 2841   0.669   1.486   7.241
  837SOL     OW 2842   1.824   0.192   6.813
  837SOL    HW1 2843   1.820   0.102   6.857
  837SOL    HW2 2844   1.827   0.181   6.714
  838SOL     OW 2845   0.428   0.424   6.106
  838SOL    HW1 2846   0.458   0.352   6.044
  838SOL    HW2 2847   0.389   0.384   6.189
  839SOL     OW 2848   1.705   1.487   6.690
  839SOL    HW1 2849   1.612   1.462   6.663
  839SOL    HW2 2850   1.731   1.437   6.772
  840SOL     OW 2851   0.317   0.547   6.866
  840SOL    HW1 2852   0.355   0.488   6.938
  840SOL    HW2 2853   0.357   0.521   6.778
  841SOL     OW 2854   0.812   1.586   6.273
  841SOL    HW1 2855   0.844   1.596   6.179
  841SOL    HW2 2856   0.733   1.524   6.275
  842SOL     OW 2857   1.424   0.214   6.698
  842SOL    HW1 2858   1.476   0.149   6.753
  842SOL    HW2 2859   1.375   0.277   6.759
  843SOL     OW 2860   1.001   0.034   6.740
  843SOL    HW1 2861   0.938  -0.038   6.709
  843SOL    HW2 2862   1.094  -0.002   6.740
  844SOL     OW 2863   0.770   1.330   5.887
  844SOL    HW1 2864   0.724   1.243   5.904
  844SOL    HW2 2865   0.861   1.327   5.928
  845SOL     OW 2866   0.618   1.567   6.870
  845SOL    HW1 2867   0.613   1.649   6.927
  845SOL    HW2 2868   0.707   1.564   6.825
  846SOL     OW 2869   1.352   0.052   5.754
  846SOL    HW1 2870   1.387   0.011   5.670
  846SOL    HW2 2871   1.262   0.014   5.774
  847SOL     OW 2872   1.300   0.453   6.277
  847SOL    HW1 2873   1.241   0.533   6.281
  847SOL    HW2 2874   1.315   0.418   6.370
  848SOL     OW 2875   1.593   0.221   6.468
  848SOL    HW1 2876   1.509   0.220   6.522
  848SOL    HW2 2877   1.595   0.304   6.412
  849SOL     OW 2878   0.039   1.077   5.886
  849SOL    HW1 2879   0.138   1.066   5.877
  849SOL    HW2 2880  -0.001   0.991   5.918
  850SOL     OW 2881   0.875   1.646   5.923
  850SOL    HW1 2882   0.798   1.611   5.869
  850SOL    HW2 2883   0.843   1.717   5.985
  851SOL     OW 2884   0.230   0.628   7.561
  851SOL    HW1 2885   0.137   0.626   7.598
  851SOL    HW2 2886   0.231   0.589   7.469
  852SOL     OW 2887   0.225   0.275   8.444
  852SOL    HW1 2888   0.260   0.258   8.536
  852SOL    HW2 2889   0.137   0.230   8.432
  853SOL     OW 2890   0.019   0.368   8.095
  853SOL    HW1 2891  -0.063   0.411   8.134
  853SOL    HW2 2892  -0.009   0.295   8.032
  854SOL     OW 2893   0.569   1.275   8.613
  854SOL    HW1 2894   0.476   1.268   8.576
  854SOL    HW2 2895   0.580   1.364   8.657
  855SOL     OW 2896   1.555   1.511   8.151
  855SOL    HW1 2897   1.498   1.495   8.232
  855SOL    HW2 2898   1.496   1.521   8.071
  856SOL     OW 2899   1.135   0.703   8.165
  856SOL    HW1 2900   1.192   0.781   8.140
  856SOL    HW2 2901   1.075   0.729   8.241
  857SOL     OW 2902   1.755   0.607   7.679
  857SOL    HW1 2903   1.743   0.594   7.580
  857SOL    HW2 2904   1.725   0.526   7.728
  858SOL     OW 2905   0.768   1.144   8.471
  858SOL    HW1 2906   0.690   1.161   8.531
  858SOL    HW2 2907   0.802   1.231   8.435
  859SOL     OW 2908   0.850   0.798   9.271
  859SOL    HW1 2909   0.846   0.874   9.336
  859SOL    HW2 2910   0.872   0.834   9.180
  860SOL     OW 2911   0.685   1.012   8.113
  860SOL    HW1 2912   0.754   0.996   8.183
  860SOL    HW2 2913   0.612   1.069   8.151
  861SOL     OW 2914   0.686   1.161   9.251
  861SOL    HW1 2915   0.746   1.240   9.265
  861SOL    HW2 2916   0.600   1.192   9.210
  862SOL     OW 2917   0.335   1.435   8.509
  862SOL    HW1 2918   0.257   1.404   8.456
  862SOL    HW2 2919   0.393   1.493   8.452
  863SOL     OW 2920   1.460   1.505   8.787
  863SOL    HW1 2921   1.484   1.599   8.813
  863SOL    HW2 2922   1.444   1.451   8.869
  864SOL     OW 2923   0.438   0.392   8.947
  864SOL    HW1 2924   0.520   0.336   8.956
  864SOL    HW2 2925   0.357   0.334   8.951
  865SOL     OW 2926   1.603   0.447   8.185
  865SOL    HW1 2927   1.529   0.493   8.135
  865SOL    HW2 2928   1.654   0.515   8.238
  866SOL     OW 2929   0.231   1.713   7.931
  866SOL    HW1 2930   0.265   1.790   7.985
  866SOL    HW2 2931   0.275   1.713   7.841
  867SOL     OW 2932   1.127   1.341   9.138
  867SOL    HW1 2933   1.174   1.341   9.226
  867SOL    HW2 2934   1.079   1.254   9.127
  868SOL     OW 2935   0.230   1.434   7.986
  868SOL    HW1 2936   0.204   1.530   7.986
  868SOL    HW2 2937   0.159   1.380   8.031
  869SOL     OW 2938   0.240   1.091   8.334
  869SOL    HW1 2939   0.254   1.007   8.386
  869SOL    HW2 2940   0.185   1.155   8.389
  870SOL     OW 2941   0.620   1.786   8.887
  870SOL    HW1 2942   0.528   1.769   8.922
  870SOL    HW2 2943   0.648   1.878   8.913
  871SOL     OW 2944   0.606   0.964   7.571
  871SOL    HW1 2945   0.613   1.048   7.517
  871SOL    HW2 2946   0.652   0.977   7.659
  872SOL     OW 2947   1.594   0.114   8.928
  872SOL    HW1 2948   1.576   0.181   8.856
  872SOL    HW2 2949   1.591   0.160   9.017
  873SOL     OW 2950   0.122   0.643   8.011
  873SOL    HW1 2951   0.077   0.555   8.028
  873SOL    HW2 2952   0.121   0.697   8.095
  874SOL     OW 2953   1.842   1.767   7.807
  874SOL    HW1 2954   1.896   1.738   7.887
  874SOL    HW2 2955   1.872   1.857   7.778
  875SOL     OW 2956   0.027   1.596   7.565
  875SOL    HW1 2957   0.008   1.500   7.586
  875SOL    HW2 2958  -0.006   1.654   7.640
  876SOL     OW 2959   1.689   0.922   8.060
  876SOL    HW1 2960   1.784   0.893   8.068
  876SOL    HW2 2961   1.681   0.987   7.985
  877SOL     OW 2962   1.641   1.108   7.880
  877SOL    HW1 2963   1.727   1.110   7.828
  877SOL    HW2 2964   1.655   1.155   7.968
  878SOL     OW 2965   0.113   0.737   9.045
  878SOL    HW1 2966   0.201   0.724   9.090
  878SOL    HW2 2967   0.100   0.834   9.023
  879SOL     OW 2968   0.613   1.365   8.174
  879SOL    HW1 2969   0.564   1.278   8.183
  879SOL    HW2 2970   0.590   1.408   8.087
  880SOL     OW 2971   1.293   1.228   8.871
  880SOL    HW1 2972   1.330   1.155   8.813
  880SOL    HW2 2973   1.345   1.233   8.956
  881SOL     OW 2974   0.809   0.004   7.950
  881SOL    HW1 2975   0.849   0.095   7.941
  881SOL    HW2 2976   0.709   0.012   7.956
  882SOL     OW 2977   0.197   0.976   8.712
  882SOL    HW1 2978   0.286   0.931   8.698
  882SOL    HW2 2979   0.124   0.911   8.693
  883SOL     OW 2980   1.525   0.999   7.638
  883SOL    HW1 2981   1.462   0.923   7.651
  883SOL    HW2 2982   1.573   1.017   7.724
  884SOL     OW 2983   1.187   1.792   9.064
  884SOL    HW1 2984   1.211   1.852   8.988
  884SOL    HW2 2985   1.194   1.697   9.034
  885SOL     OW 2986   0.317   0.251   9.249
  885SOL    HW1 2987   0.388   0.322   9.255
  885SOL    HW2 2988   0.229   0.290   9.277
  886SOL     OW 2989   1.466   1.417   8.401
  886SOL    HW1 2990   1.407   1.423   8.481
  886SOL    HW2 2991   1.451   1.329   8.355
  887SOL     OW 2992   1.667   1.714   8.020
  887SOL    HW1 2993   1.626   1.691   7.932
  887SOL    HW2 2994   1.649   1.640   8.085
  888SOL     OW 2995   0.598   0.729   7.718
  888SOL    HW1 2996   0.622   0.798   7.650
  888SOL    HW2 2997   0.520   0.762   7.772
  889SOL     OW 2998   1.281   0.345   8.392
  889SOL    HW1 2999   1.195   0.295   8.379
  889SOL    HW2 3000   1.343   0.291   8.448
  890SOL     OW 3001   1.576   1.662   7.755
  890SOL    HW1 3002   1.665   1.708   7.758
  890SOL    HW2 3003   1.555   1.638   7.660
  891SOL     OW 3004   0.807   0.605   8.913
  891SOL    HW1 3005   0.760   0.602   9.002
  891SOL    HW2 3006   0.756   0.550   8.847
  892SOL     OW 3007   1.394   0.469   9.122
  892SOL    HW1 3008   1.374   0.512   9.210
  892SOL    HW2 3009   1.472   0.407   9.131
  893SOL     OW 3010   0.973   0.890   9.020
  893SOL    HW1 3011   1.019   0.806   8.991
  893SOL    HW2 3012   0.917   0.924   8.945
  894SOL     OW 3013   0.991   0.410   8.690
  894SOL    HW1 3014   0.914   0.444   8.744
  894SOL    HW2 3015   0.957   0.359   8.611
  895SOL     OW 3016   1.041   0.701   7.877
  895SOL    HW1 3017   1.067   0.697   7.973
  895SOL    HW2 3018   0.956   0.650   7.863
  896SOL     OW 3019   0.076   0.811   8.237
  896SOL    HW1 3020   0.175   0.799   8.246
  896SOL    HW2 3021   0.052   0.906   8.258
  897SOL     OW 3022   0.130   1.821   9.019
  897SOL    HW1 3023   0.120   1.806   9.118
  897SOL    HW2 3024   0.044   1.857   8.983
  898SOL     OW 3025   0.865   0.348   7.643
  898SOL    HW1 3026   0.924   0.411   7.594
  898SOL    HW2 3027   0.884   0.254   7.614
  899SOL     OW 3028   1.719   0.585   9.279
  899SOL    HW1 3029   1.693   0.674   9.243
  899SOL    HW2 3030   1.717   0.517   9.206
  900SOL     OW 3031   1.362   1.144   7.993
  900SOL    HW1 3032   1.445   1.115   7.945
  900SOL    HW2 3033   1.313   1.211   7.937
  901SOL     OW 3034   0.550   0.196   8.333
  901SOL    HW1 3035   0.545   0.191   8.433
  901SOL    HW2 3036   0.552   0.292   8.304
  902SOL     OW 3037   1.008   1.456   7.925
  902SOL    HW1 3038   0.962   1.528   7.873
  902SOL    HW2 3039   1.004   1.476   8.023
  903SOL     OW 3040   0.351   1.801   8.301
  903SOL    HW1 3041   0.401   1.715   8.307
  903SOL    HW2 3042   0.416   1.878   8.298
  904SOL     OW 3043   1.795   1.066   8.321
  904SOL    HW1 3044   1.733   1.051   8.245
  904SOL    HW2 3045   1.743   1.077   8.406
  905SOL     OW 3046   1.227   1.550   8.954
  905SOL    HW1 3047   1.233   1.473   9.018
  905SOL    HW2 3048   1.175   1.524   8.874
  906SOL     OW 3049   0.321   0.943   7.690
  906SOL    HW1 3050   0.403   0.982   7.648
  906SOL    HW2 3051   0.294   0.861   7.641
  907SOL     OW 3052   1.458   0.735   8.176
  907SOL    HW1 3053   1.453   0.670   8.251
  907SOL    HW2 3054   1.538   0.794   8.189
  908SOL     OW 3055   0.461   1.266   9.175
  908SOL    HW1 3056   0.411   1.267   9.089
  908SOL    HW2 3057   0.398   1.248   9.251
  909SOL     OW 3058   1.111   1.776   7.685
  909SOL    HW1 3059   1.051   1.714   7.735
  909SOL    HW2 3060   1.142   1.732   7.600
  910SOL     OW 3061   0.202   0.285   8.946
  910SOL    HW1 3062   0.122   0.345   8.933
  910SOL    HW2 3063   0.192   0.236   9.032
  911SOL     OW 3064   1.632   1.377   7.529
  911SOL    HW1 3065   1.600   1.471   7.519
  911SOL    HW2 3066   1.556   1.314   7.517
  912SOL     OW 3067   0.464   1.743   7.771
  912SOL    HW1 3068   0.497   1.782   7.857
  912SOL    HW2 3069   0.540   1.736   7.706
  913SOL     OW 3070   1.400   0.107   7.874
  913SOL    HW1 3071   1.376   0.070   7.784
  913SOL    HW2 3072   1.499   0.123   7.878
  914SOL     OW 3073   0.249   1.785   8.689
  914SOL    HW1 3074   0.306   1.720   8.739
  914SOL    HW2 3075   0.233   1.752   8.596
  915SOL     OW 3076   0.940   1.698   8.352
  915SOL    HW1 3077   1.020   1.641   8.373
  915SOL    HW2 3078   0.891   1.658   8.275
  916SOL     OW 3079   0.382   0.700   7.928
  916SOL    HW1 3080   0.427   0.610   7.925
  916SOL    HW2 3081   0.288   0.689   7.961
  917SOL     OW 3082   1.547   0.222   9.177
  917SOL    HW1 3083   1.542   0.259   9.269
  917SOL    HW2 3084   1.475   0.153   9.165
  918SOL     OW 3085   0.614   0.122   7.565
  918SOL    HW1 3086   0.712   0.100   7.572
  918SOL    HW2 3087   0.583   0.105   7.472
  919SOL     OW 3088   0.781   0.264   9.197
  919SOL    HW1 3089   0.848   0.203   9.240
  919SOL    HW2 3090   0.708   0.283   9.262
  920SOL     OW 3091   0.888   1.514   8.643
  920SOL    HW1 3092   0.865   1.489   8.549
  920SOL    HW2 3093   0.949   1.445   8.682
  921SOL     OW 3094   1.351   0.590   8.881
  921SOL    HW1 3095   1.379   0.547   8.966
  921SOL    HW2 3096   1.376   0.686   8.882
  922SOL     OW 3097   0.803   1.402   8.372
  922SOL    HW1 3098   0.893   1.416   8.330
  922SOL    HW2 3099   0.732   1.404   8.301
  923SOL     OW 3100   0.922   0.503   8.347
  923SOL    HW1 3101   0.897   0.494   8.251
  923SOL    HW2 3102   0.970   0.421   8.378
  924SOL     OW 3103   0.539   0.064   7.960
  924SOL    HW1 3104   0.458   0.065   8.018
  924SOL    HW2 3105   0.542   0.147   7.905
  925SOL     OW 3106   1.434   1.188   7.489
  925SOL    HW1 3107   1.466   1.112   7.546
  925SOL    HW2 3108   1.342   1.215   7.519
  926SOL     OW 3109   0.297   0.035   7.619
  926SOL    HW1 3110   0.346   0.119   7.598
  926SOL    HW2 3111   0.359  -0.030   7.664
  927SOL     OW 3112   0.935   0.236   7.928
  927SOL    HW1 3113   0.887   0.277   7.850
  927SOL    HW2 3114   1.034   0.234   7.909
  928SOL     OW 3115   1.076   0.683   8.912
  928SOL    HW1 3116   0.996   0.622   8.915
  928SOL    HW2 3117   1.157   0.630   8.888
  929SOL     OW 3118   1.227   1.570   8.241
  929SOL    HW1 3119   1.248   1.644   8.176
  929SOL    HW2 3120   1.295   1.570   8.314
  930SOL     OW 3121   0.459   1.152   8.189
  930SOL    HW1 3122   0.388   1.125   8.254
  930SOL    HW2 3123   0.433   1.124   8.096
  931SOL     OW 3124   1.271   1.797   8.039
  931SOL    HW1 3125   1.315   1.861   7.975
  931SOL    HW2 3126   1.221   1.849   8.109
  932SOL     OW 3127   1.032   0.549   7.464
  932SOL    HW1 3128   0.991   0.631   7.425
  932SOL    HW2 3129   1.096   0.575   7.537
  933SOL     OW 3130   0.078   0.556   8.834
  933SOL    HW1 3131   0.170   0.555   8.793
  933SOL    HW2 3132   0.072   0.630   8.901
  934SOL     OW 3133   0.561   0.222   8.595
  934SOL    HW1 3134   0.599   0.138   8.632
  934SOL    HW2 3135   0.473   0.241   8.639
  935SOL     OW 3136   0.866   0.454   8.090
  935SOL    HW1 3137   0.834   0.526   8.028
  935SOL    HW2 3138   0.890   0.373   8.037
  936SOL     OW 3139   1.017   0.039   8.201
  936SOL    HW1 3140   0.945   0.044   8.132
  936SOL    HW2 3141   0.993  -0.030   8.270
  937SOL     OW 3142   1.429   1.173   8.315
  937SOL    HW1 3143   1.374   1.089   8.308
  937SOL    HW2 3144   1.455   1.202   8.223
  938SOL     OW 3145   1.466   0.590   8.440
  938SOL    HW1 3146   1.436   0.495   8.447
  938SOL    HW2 3147   1.539   0.606   8.506
  939SOL     OW 3148   1.857   0.833   7.825
  939SOL    HW1 3149   1.899   0.769   7.889
  939SOL    HW2 3150   1.819   0.782   7.747
  940SOL     OW 3151   0.488   1.385   7.622
  940SOL    HW1 3152   0.401   1.370   7.669
  940SOL    HW2 3153   0.471   1.411   7.527
  941SOL     OW 3154   1.664   1.280   8.105
  941SOL    HW1 3155   1.763   1.288   8.119
  941SOL    HW2 3156   1.619   1.364   8.136
  942SOL     OW 3157   1.390   0.575   7.526
  942SOL    HW1 3158   1.336   0.554   7.607
  942SOL    HW2 3159   1.481   0.534   7.535
  943SOL     OW 3160   0.527   0.256   7.776
  943SOL    HW1 3161   0.554   0.197   7.701
  943SOL    HW2 3162   0.527   0.351   7.745
  944SOL     OW 3163   1.754   1.223   9.036
  944SOL    HW1 3164   1.845   1.184   9.023
  944SOL    HW2 3165   1.762   1.319   9.060
  945SOL     OW 3166   1.064   1.347   8.788
  945SOL    HW1 3167   0.984   1.324   8.843
  945SOL    HW2 3168   1.147   1.321   8.837
  946SOL     OW 3169   1.592   1.629   9.073
  946SOL    HW1 3170   1.619   1.663   8.983
  946SOL    HW2 3171   1.671   1.591   9.119
  947SOL     OW 3172   1.111   1.195   8.548
  947SOL    HW1 3173   1.071   1.239   8.629
  947SOL    HW2 3174   1.070   1.232   8.465
  948SOL     OW 3175   1.638   1.099   8.527
  948SOL    HW1 3176   1.643   1.180   8.586
  948SOL    HW2 3177   1.552   1.101   8.476
  949SOL     OW 3178   0.915   0.089   8.850
  949SOL    HW1 3179   0.940   0.069   8.755
  949SOL    HW2 3180   0.987   0.145   8.892
  950SOL     OW 3181   0.980   1.116   9.167
  950SOL    HW1 3182   0.881   1.122   9.177
  950SOL    HW2 3183   1.003   1.036   9.111
  951SOL     OW 3184   0.705   1.050   7.816
  951SOL    HW1 3185   0.691   1.057   7.915
  951SOL    HW2 3186   0.789   0.999   7.798
  952SOL     OW 3187   0.410   0.813   8.699
  952SOL    HW1 3188   0.496   0.825   8.749
  952SOL    HW2 3189   0.368   0.726   8.726
  953SOL     OW 3190   1.274   0.386   8.710
  953SOL    HW1 3191   1.295   0.460   8.774
  953SOL    HW2 3192   1.185   0.403   8.667
  954SOL     OW 3193   0.064   1.564   8.779
  954SOL    HW1 3194   0.018   1.646   8.745
  954SOL    HW2 3195   0.162   1.583   8.788
  955SOL     OW 3196   0.367   1.100   7.949
  955SOL    HW1 3197   0.360   1.183   7.893
  955SOL    HW2 3198   0.371   1.020   7.889
  956SOL     OW 3199   0.566   0.537   8.313
  956SOL    HW1 3200   0.578   0.603   8.239
  956SOL    HW2 3201   0.612   0.571   8.396
  957SOL     OW 3202   1.252   1.348   7.836
  957SOL    HW1 3203   1.302   1.425   7.876
  957SOL    HW2 3204   1.157   1.350   7.868
  958SOL     OW 3205   1.272   1.445   8.590
  958SOL    HW1 3206   1.319   1.458   8.677
  958SOL    HW2 3207   1.206   1.371   8.599
  959SOL     OW 3208   1.582   0.639   7.920
  959SOL    HW1 3209   1.551   0.700   7.993
  959SOL    HW2 3210   1.632   0.691   7.851
  960SOL     OW 3211   0.354   1.510   8.777
  960SOL    HW1 3212   0.333   1.466   8.690
  960SOL    HW2 3213   0.451   1.536   8.780
  961SOL     OW 3214   0.402   0.751   9.046
  961SOL    HW1 3215   0.470   0.806   8.999
  961SOL    HW2 3216   0.442   0.663   9.073
  962SOL     OW 3217   1.587   0.779   9.118
  962SOL    HW1 3218   1.495   0.817   9.113
  962SOL    HW2 3219   1.647   0.826   9.053
  963SOL     OW 3220   1.013   0.105   9.218
  963SOL    HW1 3221   1.019   0.190   9.166
  963SOL    HW2 3222   1.045   0.029   9.161
  964SOL     OW 3223   0.504   0.050   9.188
  964SOL    HW1 3224   0.462  -0.007   9.118
  964SOL    HW2 3225   0.438   0.119   9.220
  965SOL     OW 3226   0.573   0.870   8.477
  965SOL    HW1 3227   0.617   0.959   8.468
  965SOL    HW2 3228   0.510   0.870   8.554
  966SOL     OW 3229   1.360   0.862   8.493
  966SOL    HW1 3230   1.285   0.862   8.427
  966SOL    HW2 3231   1.397   0.770   8.502
  967SOL     OW 3232   1.209   0.525   7.723
  967SOL    HW1 3233   1.222   0.441   7.777
  967SOL    HW2 3234   1.180   0.599   7.783
  968SOL     OW 3235   0.307   0.213   8.679
  968SOL    HW1 3236   0.284   0.250   8.769
  968SOL    HW2 3237   0.277   0.118   8.673
  969SOL     OW 3238   0.037   1.310   8.730
  969SOL    HW1 3239   0.090   1.261   8.798
  969SOL    HW2 3240   0.059   1.408   8.735
  970SOL     OW 3241   0.732   0.634   8.512
  970SOL    HW1 3242   0.791   0.608   8.436
  970SOL    HW2 3243   0.704   0.730   8.501
  971SOL     OW 3244   1.728   0.935   9.302
  971SOL    HW1 3245   1.682   0.928   9.213
  971SOL    HW2 3246   1.666   0.979   9.368
  972SOL     OW 3247   0.307   0.063   8.066
  972SOL    HW1 3248   0.296   0.157   8.099
  972SOL    HW2 3249   0.302   0.000   8.143
  973SOL     OW 3250   1.622   0.367   7.822
  973SOL    HW1 3251   1.624   0.291   7.886
  973SOL    HW2 3252   1.574   0.444   7.862
  974SOL     OW 3253   1.023   0.766   8.414
  974SOL    HW1 3254   1.038   0.787   8.510
  974SOL    HW2 3255   0.993   0.671   8.405
  975SOL     OW 3256   0.980   1.573   9.148
  975SOL    HW1 3257   0.960   1.617   9.060
  975SOL    HW2 3258   1.019   1.482   9.132
  976SOL     OW 3259   1.859   1.518   9.053
  976SOL    HW1 3260   1.873   1.545   8.958
  976SOL    HW2 3261   1.942   1.540   9.106
  977SOL     OW 3262   0.350   0.898   9.252
  977SOL    HW1 3263   0.426   0.942   9.300
  977SOL    HW2 3264   0.385   0.851   9.170
  978SOL     OW 3265   1.540   0.274   7.573
  978SOL    HW1 3266   1.479   0.199   7.596
  978SOL    HW2 3267   1.562   0.326   7.656
  979SOL     OW 3268   1.303   0.838   7.490
  979SOL    HW1 3269   1.337   0.745   7.505
  979SOL    HW2 3270   1.321   0.865   7.395
  980SOL     OW 3271   1.068   1.333   8.297
  980SOL    HW1 3272   1.075   1.249   8.242
  980SOL    HW2 3273   1.130   1.402   8.261
  981SOL     OW 3274   0.319   0.810   8.397
  981SOL    HW1 3275   0.412   0.846   8.402
  981SOL    HW2 3276   0.313   0.725   8.449
  982SOL     OW 3277   0.339   0.509   8.454
  982SOL    HW1 3278   0.287   0.426   8.437
  982SOL    HW2 3279   0.416   0.514   8.390
  983SOL     OW 3280   1.138   0.380   9.126
  983SOL    HW1 3281   1.093   0.443   9.190
  983SOL    HW2 3282   1.231   0.411   9.109
  984SOL     OW 3283   1.160   0.207   8.925
  984SOL    HW1 3284   1.160   0.271   9.002
  984SOL    HW2 3285   1.188   0.255   8.842
  985SOL     OW 3286   0.008   1.326   7.648
  985SOL    HW1 3287  -0.085   1.347   7.617
  985SOL    HW2 3288   0.018   1.227   7.661
  986SOL     OW 3289   0.088   1.801   8.375
  986SOL    HW1 3290   0.046   1.715   8.348
  986SOL    HW2 3291   0.182   1.804   8.341
  987SOL     OW 3292   0.504   1.568   8.358
  987SOL    HW1 3293   0.570   1.642   8.367
  987SOL    HW2 3294   0.548   1.489   8.316
  988SOL     OW 3295   1.002   0.796   8.686
  988SOL    HW1 3296   1.043   0.764   8.772
  988SOL    HW2 3297   0.906   0.769   8.683
  989SOL     OW 3298   0.040   0.544   8.562
  989SOL    HW1 3299   0.125   0.511   8.521
  989SOL    HW2 3300   0.053   0.559   8.660
  990SOL     OW 3301   0.189   0.520   9.170
  990SOL    HW1 3302   0.248   0.480   9.100
  990SOL    HW2 3303   0.131   0.591   9.129
  991SOL     OW 3304   1.369   0.950   9.108
  991SOL    HW1 3305   1.408   1.039   9.128
  991SOL    HW2 3306   1.379   0.930   9.011
  992SOL     OW 3307   0.815   0.572   7.773
  992SOL    HW1 3308   0.822   0.483   7.727
  992SOL    HW2 3309   0.721   0.606   7.765
  993SOL     OW 3310   1.657   0.604   8.654
  993SOL    HW1 3311   1.619   0.535   8.716
  993SOL    HW2 3312   1.739   0.568   8.610
  994SOL     OW 3313   0.252   1.564   9.192
  994SOL    HW1 3314   0.222   1.621   9.268
  994SOL    HW2 3315   0.245   1.467   9.218
  995SOL     OW 3316   0.671   0.464   8.717
  995SOL    HW1 3317   0.637   0.375   8.687
  995SOL    HW2 3318   0.697   0.518   8.637
  996SOL     OW 3319   0.930   1.678   8.913
  996SOL    HW1 3320   0.906   1.660   8.818
  996SOL    HW2 3321   0.960   1.772   8.923
  997SOL     OW 3322   0.473   0.500   7.639
  997SOL    HW1 3323   0.534   0.580   7.643
  997SOL    HW2 3324   0.378   0.531   7.646
  998SOL     OW 3325   0.159   1.137   8.914
  998SOL    HW1 3326   0.181   1.076   8.990
  998SOL    HW2 3327   0.169   1.088   8.828
  999SOL     OW 3328   1.347   1.059   8.682
  999SOL    HW1 3329   1.371   0.996   8.608
  999SOL    HW2 3330   1.257   1.099   8.664
 1000SOL     OW 3331   1.302   0.855   7.757
 1000SOL    HW1 3332   1.216   0.824   7.799
 1000SOL    HW2 3333   1.298   0.841   7.658
 1001SOL     OW 3334   1.759   1.747   8.602
 1001SOL    HW1 3335   1.820   1.777   8.529
 1001SOL    HW2 3336   1.721   1.658   8.580
 1002SOL     OW 3337   1.252   1.731   8.576
 1002SOL    HW1 3338   1.336   1.736   8.522
 1002SOL    HW2 3339   1.229   1.635   8.594
 1003SOL     OW 3340   0.083   1.258   8.470
 1003SOL    HW1 3341   0.078   1.257   8.570
 1003SOL    HW2 3342   0.000   1.217   8.432
 1004SOL     OW 3343   0.688   1.662   9.164
 1004SOL    HW1 3344   0.632   1.743   9.173
 1004SOL    HW2 3345   0.740   1.666   9.078
 1005SOL     OW 3346   1.726   0.135   7.971
 1005SOL    HW1 3347   1.799   0.118   7.904
 1005SOL    HW2 3348   1.695   0.048   8.009
 1006SOL     OW 3349   1.388   1.573   7.925
 1006SOL    HW1 3350   1.455   1.585   7.851
 1006SOL    HW2 3351   1.348   1.662   7.948
 1007SOL     OW 3352   0.130   1.794   9.299
 1007SOL    HW1 3353   0.089   1.720   9.352
 1007SOL    HW2 3354   0.194   1.845   9.357
 1008SOL     OW 3355   1.280   0.927   8.120
 1008SOL    HW1 3356   1.340   0.846   8.122
 1008SOL    HW2 3357   1.320   0.996   8.060
 1009SOL     OW 3358   0.830   1.273   8.870
 1009SOL    HW1 3359   0.825   1.306   8.965
 1009SOL    HW2 3360   0.744   1.292   8.824
 1010SOL     OW 3361   0.672   1.616   7.602
 1010SOL    HW1 3362   0.681   1.626   7.503
 1010SOL    HW2 3363   0.632   1.527   7.623
 1011SOL     OW 3364   1.650   1.720   8.842
 1011SOL    HW1 3365   1.703   1.730   8.758
 1011SOL    HW2 3366   1.623   1.810   8.876
 1012SOL     OW 3367   1.841   0.175   8.411
 1012SOL    HW1 3368   1.880   0.090   8.375
 1012SOL    HW2 3369   1.743   0.177   8.392
 1013SOL     OW 3370   0.263   0.326   8.168
 1013SOL    HW1 3371   0.184   0.377   8.134
 1013SOL    HW2 3372   0.254   0.311   8.266
 1014SOL     OW 3373   1.194   1.612   7.479
 1014SOL    HW1 3374   1.200   1.519   7.516
 1014SOL    HW2 3375   1.135   1.612   7.399
 1015SOL     OW 3376   0.822   1.002   8.820
 1015SOL    HW1 3377   0.862   1.001   8.728
 1015SOL    HW2 3378   0.832   1.094   8.860
 1016SOL     OW 3379   0.916   0.910   7.739
 1016SOL    HW1 3380   0.979   0.948   7.671
 1016SOL    HW2 3381   0.956   0.827   7.778
 1017SOL     OW 3382   1.504   1.607   7.492
 1017SOL    HW1 3383   1.412   1.644   7.499
 1017SOL    HW2 3384   1.542   1.627   7.402
 1018SOL     OW 3385   0.372   1.288   8.938
 1018SOL    HW1 3386   0.359   1.381   8.904
 1018SOL    HW2 3387   0.288   1.236   8.925
 1019SOL     OW 3388   1.614   1.292   8.737
 1019SOL    HW1 3389   1.674   1.295   8.817
 1019SOL    HW2 3390   1.539   1.356   8.750
 1020SOL     OW 3391   1.039   1.098   8.144
 1020SOL    HW1 3392   0.969   1.051   8.198
 1020SOL    HW2 3393   1.098   1.030   8.101
 1021SOL     OW 3394   1.014   0.236   8.419
 1021SOL    HW1 3395   1.006   0.200   8.326
 1021SOL    HW2 3396   1.012   0.160   8.484
 1022SOL     OW 3397   0.590   1.487   7.939
 1022SOL    HW1 3398   0.632   1.429   7.869
 1022SOL    HW2 3399   0.546   1.566   7.895
 1023SOL     OW 3400   1.709   0.385   8.829
 1023SOL    HW1 3401   1.782   0.454   8.833
 1023SOL    HW2 3402   1.737   0.310   8.770
 1024SOL     OW 3403   0.255   1.348   7.738
 1024SOL    HW1 3404   0.159   1.349   7.711
 1024SOL    HW2 3405   0.267   1.401   7.822
 1025SOL     OW 3406   0.105   1.013   9.174
 1025SOL    HW1 3407   0.028   0.980   9.228
 1025SOL    HW2 3408   0.190   0.983   9.216
 1026SOL     OW 3409   0.672   0.203   8.937
 1026SOL    HW1 3410   0.762   0.187   8.897
 1026SOL    HW2 3411   0.680   0.208   9.036
 1027SOL     OW 3412   0.075   0.345   7.481
 1027SOL    HW1 3413  -0.017   0.317   7.452
 1027SOL    HW2 3414   0.106   0.422   7.425
 1028SOL     OW 3415   1.440   0.856   8.846
 1028SOL    HW1 3416   1.383   0.908   8.783
 1028SOL    HW2 3417   1.536   0.868   8.822
 1029SOL     OW 3418   0.072   0.166   7.766
 1029SOL    HW1 3419   0.055   0.249   7.712
 1029SOL    HW2 3420   0.162   0.129   7.744
 1030SOL     OW 3421   1.183   1.335   7.567
 1030SOL    HW1 3422   1.084   1.324   7.569
 1030SOL    HW2 3423   1.217   1.350   7.660
 1031SOL     OW 3424   0.613   0.842   8.879
 1031SOL    HW1 3425   0.669   0.923   8.862
 1031SOL    HW2 3426   0.672   0.762   8.882
 1032SOL     OW 3427   1.493   1.767   8.407
 1032SOL    HW1 3428   1.526   1.831   8.338
 1032SOL    HW2 3429   1.559   1.761   8.482
 1033SOL     OW 3430   0.716   0.565   9.156
 1033SOL    HW1 3431   0.735   0.630   9.230
 1033SOL    HW2 3432   0.776   0.485   9.165
 1034SOL     OW 3433   1.450   1.220   9.081
 1034SOL    HW1 3434   1.441   1.210   9.180
 1034SOL    HW2 3435   1.546   1.213   9.055
 1035SOL     OW 3436   0.390   1.741   9.008
 1035SOL    HW1 3437   0.299   1.782   9.006
 1035SOL    HW2 3438   0.383   1.647   9.040
 1036SOL     OW 3439   1.674   0.883   8.702
 1036SOL    HW1 3440   1.647   0.794   8.665
 1036SOL    HW2 3441   1.675   0.951   8.629
 1037SOL     OW 3442   1.225   0.325   7.897
 1037SOL    HW1 3443   1.290   0.251   7.886
 1037SOL    HW2 3444   1.245   0.375   7.981
 1038SOL     OW 3445   0.594   0.745   8.100
 1038SOL    HW1 3446   0.644   0.830   8.081
 1038SOL    HW2 3447   0.506   0.747   8.052
 1039SOL     OW 3448   1.777   0.342   9.090
 1039SOL    HW1 3449   1.760   0.373   8.996
 1039SOL    HW2 3450   1.693   0.305   9.128
 1040SOL     OW 3451   1.730   0.934   8.965
 1040SOL    HW1 3452   1.768   1.025   8.980
 1040SOL    HW2 3453   1.722   0.917   8.866
 1041SOL     OW 3454   0.859   1.374   7.464
 1041SOL    HW1 3455   0.813   1.389   7.552
 1041SOL    HW2 3456   0.903   1.459   7.434
 1042SOL     OW 3457   0.661   1.790   8.401
 1042SOL    HW1 3458   0.615   1.878   8.388
 1042SOL    HW2 3459   0.760   1.802   8.394
 1043SOL     OW 3460   0.859   0.956   8.309
 1043SOL    HW1 3461   0.913   0.887   8.357
 1043SOL    HW2 3462   0.827   1.025   8.375
 1044SOL     OW 3463   1.083   0.984   7.535
 1044SOL    HW1 3464   1.060   1.037   7.453
 1044SOL    HW2 3465   1.164   0.928   7.516
 1045SOL     OW 3466   1.861   1.569   8.299
 1045SOL    HW1 3467   1.790   1.557   8.229
 1045SOL    HW2 3468   1.862   1.490   8.359
 1046SOL     OW 3469   0.221   1.314   9.292
 1046SOL    HW1 3470   0.156   1.241   9.271
 1046SOL    HW2 3471   0.225   1.328   9.390
 1047SOL     OW 3472   0.079   1.240   8.101
 1047SOL    HW1 3473   0.078   1.193   8.189
 1047SOL    HW2 3474   0.161   1.212   8.050
 1048SOL     OW 3475   0.672   1.391   9.072
 1048SOL    HW1 3476   0.594   1.341   9.110
 1048SOL    HW2 3477   0.669   1.486   9.103
 1049SOL     OW 3478   1.824   0.192   8.675
 1049SOL    HW1 3479   1.820   0.102   8.719
 1049SOL    HW2 3480   1.827   0.181   8.576
 1050SOL     OW 3481   0.428   0.424   7.968
 1050SOL    HW1 3482   0.458   0.352   7.906
 1050SOL    HW2 3483   0.389   0.384   8.051
 1051SOL     OW 3484   1.705   1.487   8.552
 1051SOL    HW1 3485   1.612   1.462   8.525
 1051SOL    HW2 3486   1.731   1.437   8.634
 1052SOL     OW 3487   0.317   0.547   8.728
 1052SOL    HW1 3488   0.355   0.488   8.800
 1052SOL    HW2 3489   0.357   0.521   8.640
 1053SOL     OW 3490   0.812   1.586   8.135
 1053SOL    HW1 3491   0.844   1.596   8.041
 1053SOL    HW2 3492   0.733   1.524   8.137
 1054SOL     OW 3493   1.424   0.214   8.560
 1054SOL    HW1 3494   1.476   0.149   8.615
 1054SOL    HW2 3495   1.375   0.277   8.621
 1055SOL     OW 3496   1.001   0.034   8.602
 1055SOL    HW1 3497   0.938  -0.038   8.571
 1055SOL    HW2 3498   1.094  -0.002   8.602
 1056SOL     OW 3499   0.770   1.330   7.749
 1056SOL    HW1 3500   0.724   1.243   7.766
 1056SOL    HW2 3501   0.861   1.327   7.790
 1057SOL     OW 3502   0.618   1.567   8.732
 1057SOL    HW1 3503   0.613   1.649   8.789
 1057SOL    HW2 3504   0.707   1.564   8.687
 1058SOL     OW 3505   1.352   0.052   7.616
 1058SOL    HW1 3506   1.387   0.011   7.532
 1058SOL    HW2 3507   1.262   0.014   7.636
 1059SOL     OW 3508   1.300   0.453   8.139
 1059SOL    HW1 3509   1.241   0.533   8.143
 1059SOL    HW2 3510   1.315   0.418   8.232
 1060SOL     OW 3511   1.593   0.221   8.330
 1060SOL    HW1 3512   1.509   0.220   8.384
 1060SOL    HW2 3513   1.595   0.304   8.274
 1061SOL     OW 3514   0.039   1.077   7.748
 1061SOL    HW1 3515   0.138   1.066   7.739
 1061SOL    HW2 3516  -0.001   0.991   7.780
 1062SOL     OW 3517   0.875   1.646   7.785
 1062SOL    HW1 3518   0.798   1.611   7.731
 1062SOL    HW2 3519   0.843   1.717   7.847
 1063SOL     OW 3520   0.230   0.628   9.423
 1063SOL    HW1 3521   0.137   0.626   9.460
 1063SOL    HW2 3522   0.231   0.589   9.331
 1064SOL     OW 3523   1.755   0.607   9.541
 1064SOL    HW1 3524   1.743   0.594   9.442
 1064SOL    HW2 3525   1.725   0.526   9.590
 1065SOL     OW 3526   0.231   1.713   9.793
 1065SOL    HW1 3527   0.265   1.790   9.847
 1065SOL    HW2 3528   0.275   1.713   9.703
 1066SOL     OW 3529   0.230   1.434   9.848
 1066SOL    HW1 3530   0.204   1.530   9.848
 1066SOL    HW2 3531   0.159   1.380   9.893
 1067SOL     OW 3532   0.606   0.964   9.433
 1067SOL    HW1 3533   0.613   1.048   9.379
 1067SOL    HW2 3534   0.652   0.977   9.521
 1068SOL     OW 3535   0.122   0.643   9.873
 1068SOL    HW1 3536   0.077   0.555   9.890
 1068SOL    HW2 3537   0.121   0.697   9.957
 1069SOL     OW 3538   1.842   1.767   9.669
 1069SOL    HW1 3539   1.896   1.738   9.749
 1069SOL    HW2 3540   1.872   1.857   9.640
 1070SOL     OW 3541   0.027   1.596   9.427
 1070SOL    HW1 3542   0.008   1.500   9.448
 1070SOL    HW2 3543  -0.006   1.654   9.502
 1071SOL     OW 3544   1.689   0.922   9.922
 1071SOL    HW1 3545   1.784   0.893   9.930
 1071SOL    HW2 3546   1.681   0.987   9.847
 1072SOL     OW 3547   1.641   1.108   9.742
 1072SOL    HW1 3548   1.727   1.110   9.690
 1072SOL    HW2 3549   1.655   1.155   9.830
 1073SOL     OW 3550   0.613   1.365  10.036
 1073SOL    HW1 3551   0.564   1.278  10.045
 1073SOL    HW2 3552   0.590   1.408   9.949
 1074SOL     OW 3553   0.809   0.004   9.812
 1074SOL    HW1 3554   0.849   0.095   9.803
 1074SOL    HW2 3555   0.709   0.012   9.818
 1075SOL     OW 3556   1.525   0.999   9.500
 1075SOL    HW1 3557   1.462   0.923   9.513
 1075SOL    HW2 3558   1.573   1.017   9.586
 1076SOL     OW 3559   0.598   0.729   9.580
 1076SOL    HW1 3560   0.622   0.798   9.512
 1076SOL    HW2 3561   0.520   0.762   9.634
 1077SOL     OW 3562   1.576   1.662   9.617
 1077SOL    HW1 3563   1.665   1.708   9.620
 1077SOL    HW2 3564   1.555   1.638   9.522
 1078SOL     OW 3565   1.041   0.701   9.739
 1078SOL    HW1 3566   1.067   0.697   9.835
 1078SOL    HW2 3567   0.956   0.650   9.725
 1079SOL     OW 3568   0.076   0.811  10.099
 1079SOL    HW1 3569   0.175   0.799  10.108
 1079SOL    HW2 3570   0.052   0.906  10.120
 1080SOL     OW 3571   0.865   0.348   9.505
 1080SOL    HW1 3572   0.924   0.411   9.456
 1080SOL    HW2 3573   0.884   0.254   9.476
 1081SOL     OW 3574   1.362   1.144   9.855
 1081SOL    HW1 3575   1.445   1.115   9.807
 1081SOL    HW2 3576   1.313   1.211   9.799
 1082SOL     OW 3577   1.008   1.456   9.787
 1082SOL    HW1 3578   0.962   1.528   9.735
 1082SOL    HW2 3579   1.004   1.476   9.885
 1083SOL     OW 3580   0.321   0.943   9.552
 1083SOL    HW1 3581   0.403   0.982   9.510
 1083SOL    HW2 3582   0.294   0.861   9.503
 1084SOL     OW 3583   1.111   1.776   9.547
 1084SOL    HW1 3584   1.051   1.714   9.597
 1084SOL    HW2 3585   1.142   1.732   9.462
 1085SOL     OW 3586   1.632   1.377   9.391
 1085SOL    HW1 3587   1.600   1.471   9.381
 1085SOL    HW2 3588   1.556   1.314   9.379
 1086SOL     OW 3589   0.464   1.743   9.633
 1086SOL    HW1 3590   0.497   1.782   9.719
 1086SOL    HW2 3591   0.540   1.736   9.568
 1087SOL     OW 3592   1.400   0.107   9.736
 1087SOL    HW1 3593   1.376   0.070   9.646
 1087SOL    HW2 3594   1.499   0.123   9.740
 1088SOL     OW 3595   0.382   0.700   9.790
 1088SOL    HW1 3596   0.427   0.610   9.787
 1088SOL    HW2 3597   0.288   0.689   9.823
 1089SOL     OW 3598   0.614   0.122   9.427
 1089SOL    HW1 3599   0.712   0.100   9.434
 1089SOL    HW2 3600   0.583   0.105   9.334
 1090SOL     OW 3601   0.539   0.064   9.822
 1090SOL    HW1 3602   0.458   0.065   9.880
 1090SOL    HW2 3603   0.542   0.147   9.767
 1091SOL     OW 3604   1.434   1.188   9.351
 1091SOL    HW1 3605   1.466   1.112   9.408
 1091SOL    HW2 3606   1.342   1.215   9.381
 1092SOL     OW 3607   0.297   0.035   9.481
 1092SOL    HW1 3608   0.346   0.119   9.460
 1092SOL    HW2 3609   0.359  -0.030   9.526
 1093SOL     OW 3610   0.935   0.236   9.790
 1093SOL    HW1 3611   0.887   0.277   9.712
 1093SOL    HW2 3612   1.034   0.234   9.771
 1094SOL     OW 3613   0.459   1.152  10.051
 1094SOL    HW1 3614   0.388   1.125  10.116
 1094SOL    HW2 3615   0.433   1.124   9.958
 1095SOL     OW 3616   1.271   1.797   9.901
 1095SOL    HW1 3617   1.315   1.861   9.837
 1095SOL    HW2 3618   1.221   1.849   9.971
 1096SOL     OW 3619   1.032   0.549   9.326
 1096SOL    HW1 3620   0.991   0.631   9.287
 1096SOL    HW2 3621   1.096   0.575   9.399
 1097SOL     OW 3622   0.866   0.454   9.952
 1097SOL    HW1 3623   0.834   0.526   9.890
 1097SOL    HW2 3624   0.890   0.373   9.899
 1098SOL     OW 3625   1.857   0.833   9.687
 1098SOL    HW1 3626   1.899   0.769   9.751
 1098SOL    HW2 3627   1.819   0.782   9.609
 1099SOL     OW 3628   0.488   1.385   9.484
 1099SOL    HW1 3629   0.401   1.370   9.531
 1099SOL    HW2 3630   0.471   1.411   9.389
 1100SOL     OW 3631   1.390   0.575   9.388
 1100SOL    HW1 3632   1.336   0.554   9.469
 1100SOL    HW2 3633   1.481   0.534   9.397
 1101SOL     OW 3634   0.527   0.256   9.638
 1101SOL    HW1 3635   0.554   0.197   9.563
 1101SOL    HW2 3636   0.527   0.351   9.607
 1102SOL     OW 3637   0.705   1.050   9.678
 1102SOL    HW1 3638   0.691   1.057   9.777
 1102SOL    HW2 3639   0.789   0.999   9.660
 1103SOL     OW 3640   0.367   1.100   9.811
 1103SOL    HW1 3641   0.360   1.183   9.755
 1103SOL    HW2 3642   0.371   1.020   9.751
 1104SOL     OW 3643   1.252   1.348   9.698
 1104SOL    HW1 3644   1.302   1.425   9.738
 1104SOL    HW2 3645   1.157   1.350   9.730
 1105SOL     OW 3646   1.582   0.639   9.782
 1105SOL    HW1 3647   1.551   0.700   9.855
 1105SOL    HW2 3648   1.632   0.691   9.713
 1106SOL     OW 3649   1.209   0.525   9.585
 1106SOL    HW1 3650   1.222   0.441   9.639
 1106SOL    HW2 3651   1.180   0.599   9.645
 1107SOL     OW 3652   0.307   0.063   9.928
 1107SOL    HW1 3653   0.296   0.157   9.961
 1107SOL    HW2 3654   0.302   0.000  10.005
 1108SOL     OW 3655   1.622   0.367   9.684
 1108SOL    HW1 3656   1.624   0.291   9.748
 1108SOL    HW2 3657   1.574   0.444   9.724
 1109SOL     OW 3658   1.540   0.274   9.435
 1109SOL    HW1 3659   1.479   0.199   9.458
 1109SOL    HW2 3660   1.562   0.326   9.518
 1110SOL     OW 3661   1.303   0.838   9.352
 1110SOL    HW1 3662   1.337   0.745   9.367
 1110SOL    HW2 3663   1.321   0.865   9.257
 1111SOL     OW 3664   0.008   1.326   9.510
 1111SOL    HW1 3665  -0.085   1.347   9.479
 1111SOL    HW2 3666   0.018   1.227   9.523
 1112SOL     OW 3667   0.815   0.572   9.635
 1112SOL    HW1 3668   0.822   0.483   9.589
 1112SOL    HW2 3669   0.721   0.606   9.627
 1113SOL     OW 3670   0.473   0.500   9.501
 1113SOL    HW1 3671   0.534   0.580   9.505
 1113SOL    HW2 3672   0.378   0.531   9.508
 1114SOL     OW 3673   1.302   0.855   9.619
 1114SOL    HW1 3674   1.216   0.824   9.661
 1114SOL    HW2 3675   1.298   0.841   9.520
 1115SOL     OW 3676   1.726   0.135   9.833
 1115SOL    HW1 3677   1.799   0.118   9.766
 1115SOL    HW2 3678   1.695   0.048   9.871
 1116SOL     OW 3679   1.388   1.573   9.787
 1116SOL    HW1 3680   1.455   1.585   9.713
 1116SOL    HW2 3681   1.348   1.662   9.810
 1117SOL     OW 3682   0.672   1.616   9.464
 1117SOL    HW1 3683   0.681   1.626   9.365
 1117SOL    HW2 3684   0.632   1.527   9.485
 1118SOL     OW 3685   1.841   0.175  10.273
 1118SOL    HW1 3686   1.880   0.090  10.237
 1118SOL    HW2 3687   1.743   0.177  10.254
 1119SOL     OW 3688   1.194   1.612   9.341
 1119SOL    HW1 3689   1.200   1.519   9.378
 1119SOL    HW2 3690   1.135   1.612   9.261
 1120SOL     OW 3691   0.916   0.910   9.601
 1120SOL    HW1 3692   0.979   0.948   9.533
 1120SOL    HW2 3693   0.956   0.827   9.640
 1121SOL     OW 3694   1.504   1.607   9.354
 1121SOL    HW1 3695   1.412   1.644   9.361
 1121SOL    HW2 3696   1.542   1.627   9.264
 1122SOL     OW 3697   0.590   1.487   9.801
 1122SOL    HW1 3698   0.632   1.429   9.731
 1122SOL    HW2 3699   0.546   1.566   9.757
 1123SOL     OW 3700   0.255   1.348   9.600
 1123SOL    HW1 3701   0.159   1.349   9.573
 1123SOL    HW2 3702   0.267   1.401   9.684
 1124SOL     OW 3703   0.075   0.345   9.343
 1124SOL    HW1 3704  -0.017   0.317   9.314
 1124SOL    HW2 3705   0.106   0.422   9.287
 1125SOL     OW 3706   0.072   0.166   9.628
 1125SOL    HW1 3707   0.055   0.249   9.574
 1125SOL    HW2 3708   0.162   0.129   9.606
 1126SOL     OW 3709   1.183   1.335   9.429
 1126SOL    HW1 3710   1.084   1.324   9.431
 1126SOL    HW2 3711   1.217   1.350   9.522
 1127SOL     OW 3712   1.225   0.325   9.759
 1127SOL    HW1 3713   1.290   0.251   9.748
 1127SOL    HW2 3714   1.245   0.375   9.843
 1128SOL     OW 3715   0.594   0.745   9.962
 1128SOL    HW1 3716   0.644   0.830   9.943
 1128SOL    HW2 3717   0.506   0.747   9.914
 1129SOL     OW 3718   0.859   1.374   9.326
 1129SOL    HW1 3719   0.813   1.389   9.414
 1129SOL    HW2 3720   0.903   1.459   9.296
 1130SOL     OW 3721   1.083   0.984   9.397
 1130SOL    HW1 3722   1.060   1.037   9.315
 1130SOL    HW2 3723   1.164   0.928   9.378
 1131SOL     OW 3724   0.079   1.240   9.963
 1131SOL    HW1 3725   0.078   1.193  10.051
 1131SOL    HW2 3726   0.161   1.212   9.912
 1132SOL     OW 3727   0.428   0.424   9.830
 1132SOL    HW1 3728   0.458   0.352   9.768
 1132SOL    HW2 3729   0.389   0.384   9.913
 1133SOL     OW 3730   0.770   1.330   9.611
 1133SOL    HW1 3731   0.724   1.243   9.628
 1133SOL    HW2 3732   0.861   1.327   9.652
 1134SOL     OW 3733   1.352   0.052   9.478
 1134SOL    HW1 3734   1.387   0.011   9.394
 1134SOL    HW2 3735   1.262   0.014   9.498
 1135SOL     OW 3736   0.039   1.077   9.610
 1135SOL    HW1 3737   0.138   1.066   9.601
 1135SOL    HW2 3738  -0.001   0.991   9.642
 1136SOL     OW 3739   0.875   1.646   9.647
 1136SOL    HW1 3740   0.798   1.611   9.593
 1136SOL    HW2 3741   0.843   1.717   9.709
 1137SOL     OW 3742   0.230   2.490   0.113
 1137SOL    HW1 3743   0.137   2.488   0.150
 1137SOL    HW2 3744   0.231   2.451   0.021
 1138SOL     OW 3745   0.225   2.137   0.996
 1138SOL    HW1 3746   0.260   2.120   1.088
 1138SOL    HW2 3747   0.137   2.092   0.984
 1139SOL     OW 3748   0.019   2.230   0.647
 1139SOL    HW1 3749  -0.063   2.273   0.686
 1139SOL    HW2 3750  -0.009   2.157   0.584
 1140SOL     OW 3751   0.569   3.137   1.165
 1140SOL    HW1 3752   0.476   3.130   1.128
 1140SOL    HW2 3753   0.580   3.226   1.209
 1141SOL     OW 3754   1.555   3.373   0.703
 1141SOL    HW1 3755   1.498   3.357   0.784
 1141SOL    HW2 3756   1.496   3.383   0.623
 1142SOL     OW 3757   1.135   2.565   0.717
 1142SOL    HW1 3758   1.192   2.643   0.692
 1142SOL    HW2 3759   1.075   2.591   0.793
 1143SOL     OW 3760   1.755   2.469   0.231
 1143SOL    HW1 3761   1.743   2.456   0.132
 1143SOL    HW2 3762   1.725   2.388   0.280
 1144SOL     OW 3763   0.768   3.006   1.023
 1144SOL    HW1 3764   0.690   3.023   1.083
 1144SOL    HW2 3765   0.802   3.093   0.987
 1145SOL     OW 3766   0.850   2.660   1.823
 1145SOL    HW1 3767   0.846   2.736   1.888
 1145SOL    HW2 3768   0.872   2.696   1.732
 1146SOL     OW 3769   0.685   2.874   0.665
 1146SOL    HW1 3770   0.754   2.858   0.735
 1146SOL    HW2 3771   0.612   2.931   0.703
 1147SOL     OW 3772   0.686   3.023   1.803
 1147SOL    HW1 3773   0.746   3.102   1.817
 1147SOL    HW2 3774   0.600   3.054   1.762
 1148SOL     OW 3775   0.335   3.297   1.061
 1148SOL    HW1 3776   0.257   3.266   1.008
 1148SOL    HW2 3777   0.393   3.355   1.004
 1149SOL     OW 3778   1.460   3.367   1.339
 1149SOL    HW1 3779   1.484   3.461   1.365
 1149SOL    HW2 3780   1.444   3.313   1.421
 1150SOL     OW 3781   0.438   2.254   1.499
 1150SOL    HW1 3782   0.520   2.198   1.508
 1150SOL    HW2 3783   0.357   2.196   1.503
 1151SOL     OW 3784   1.603   2.309   0.737
 1151SOL    HW1 3785   1.529   2.355   0.687
 1151SOL    HW2 3786   1.654   2.377   0.790
 1152SOL     OW 3787   0.231   3.575   0.483
 1152SOL    HW1 3788   0.265   3.652   0.537
 1152SOL    HW2 3789   0.275   3.575   0.393
 1153SOL     OW 3790   1.127   3.203   1.690
 1153SOL    HW1 3791   1.174   3.203   1.778
 1153SOL    HW2 3792   1.079   3.116   1.679
 1154SOL     OW 3793   0.230   3.296   0.538
 1154SOL    HW1 3794   0.204   3.392   0.538
 1154SOL    HW2 3795   0.159   3.242   0.583
 1155SOL     OW 3796   0.240   2.953   0.886
 1155SOL    HW1 3797   0.254   2.869   0.938
 1155SOL    HW2 3798   0.185   3.017   0.941
 1156SOL     OW 3799   0.620   3.648   1.439
 1156SOL    HW1 3800   0.528   3.631   1.474
 1156SOL    HW2 3801   0.648   3.740   1.465
 1157SOL     OW 3802   0.606   2.826   0.123
 1157SOL    HW1 3803   0.613   2.910   0.069
 1157SOL    HW2 3804   0.652   2.839   0.211
 1158SOL     OW 3805   1.594   1.976   1.480
 1158SOL    HW1 3806   1.576   2.043   1.408
 1158SOL    HW2 3807   1.591   2.022   1.569
 1159SOL     OW 3808   0.122   2.505   0.563
 1159SOL    HW1 3809   0.077   2.417   0.580
 1159SOL    HW2 3810   0.121   2.559   0.647
 1160SOL     OW 3811   1.842   3.629   0.359
 1160SOL    HW1 3812   1.896   3.600   0.439
 1160SOL    HW2 3813   1.872   3.719   0.330
 1161SOL     OW 3814   0.027   3.458   0.117
 1161SOL    HW1 3815   0.008   3.362   0.138
 1161SOL    HW2 3816  -0.006   3.516   0.192
 1162SOL     OW 3817   1.689   2.784   0.612
 1162SOL    HW1 3818   1.784   2.755   0.620
 1162SOL    HW2 3819   1.681   2.849   0.537
 1163SOL     OW 3820   1.641   2.970   0.432
 1163SOL    HW1 3821   1.727   2.972   0.380
 1163SOL    HW2 3822   1.655   3.017   0.520
 1164SOL     OW 3823   0.113   2.599   1.597
 1164SOL    HW1 3824   0.201   2.586   1.642
 1164SOL    HW2 3825   0.100   2.696   1.575
 1165SOL     OW 3826   0.613   3.227   0.726
 1165SOL    HW1 3827   0.564   3.140   0.735
 1165SOL    HW2 3828   0.590   3.270   0.639
 1166SOL     OW 3829   1.293   3.090   1.423
 1166SOL    HW1 3830   1.330   3.017   1.365
 1166SOL    HW2 3831   1.345   3.095   1.508
 1167SOL     OW 3832   0.809   1.866   0.502
 1167SOL    HW1 3833   0.849   1.957   0.493
 1167SOL    HW2 3834   0.709   1.874   0.508
 1168SOL     OW 3835   0.197   2.838   1.264
 1168SOL    HW1 3836   0.286   2.793   1.250
 1168SOL    HW2 3837   0.124   2.773   1.245
 1169SOL     OW 3838   1.525   2.861   0.190
 1169SOL    HW1 3839   1.462   2.785   0.203
 1169SOL    HW2 3840   1.573   2.879   0.276
 1170SOL     OW 3841   1.187   3.654   1.616
 1170SOL    HW1 3842   1.211   3.714   1.540
 1170SOL    HW2 3843   1.194   3.559   1.586
 1171SOL     OW 3844   0.317   2.113   1.801
 1171SOL    HW1 3845   0.388   2.184   1.807
 1171SOL    HW2 3846   0.229   2.152   1.829
 1172SOL     OW 3847   1.466   3.279   0.953
 1172SOL    HW1 3848   1.407   3.285   1.033
 1172SOL    HW2 3849   1.451   3.191   0.907
 1173SOL     OW 3850   1.667   3.576   0.572
 1173SOL    HW1 3851   1.626   3.553   0.484
 1173SOL    HW2 3852   1.649   3.502   0.637
 1174SOL     OW 3853   0.598   2.591   0.270
 1174SOL    HW1 3854   0.622   2.660   0.202
 1174SOL    HW2 3855   0.520   2.624   0.324
 1175SOL     OW 3856   1.281   2.207   0.944
 1175SOL    HW1 3857   1.195   2.157   0.931
 1175SOL    HW2 3858   1.343   2.153   1.000
 1176SOL     OW 3859   1.576   3.524   0.307
 1176SOL    HW1 3860   1.665   3.570   0.310
 1176SOL    HW2 3861   1.555   3.500   0.212
 1177SOL     OW 3862   0.807   2.467   1.465
 1177SOL    HW1 3863   0.760   2.464   1.554
 1177SOL    HW2 3864   0.756   2.412   1.399
 1178SOL     OW 3865   1.394   2.331   1.674
 1178SOL    HW1 3866   1.374   2.374   1.762
 1178SOL    HW2 3867   1.472   2.269   1.683
 1179SOL     OW 3868   0.973   2.752   1.572
 1179SOL    HW1 3869   1.019   2.668   1.543
 1179SOL    HW2 3870   0.917   2.786   1.497
 1180SOL     OW 3871   0.991   2.272   1.242
 1180SOL    HW1 3872   0.914   2.306   1.296
 1180SOL    HW2 3873   0.957   2.221   1.163
 1181SOL     OW 3874   1.041   2.563   0.429
 1181SOL    HW1 3875   1.067   2.559   0.525
 1181SOL    HW2 3876   0.956   2.512   0.415
 1182SOL     OW 3877   0.076   2.673   0.789
 1182SOL    HW1 3878   0.175   2.661   0.798
 1182SOL    HW2 3879   0.052   2.768   0.810
 1183SOL     OW 3880   0.130   3.683   1.571
 1183SOL    HW1 3881   0.120   3.668   1.670
 1183SOL    HW2 3882   0.044   3.719   1.535
 1184SOL     OW 3883   0.865   2.210   0.195
 1184SOL    HW1 3884   0.924   2.273   0.146
 1184SOL    HW2 3885   0.884   2.116   0.166
 1185SOL     OW 3886   1.719   2.447   1.831
 1185SOL    HW1 3887   1.693   2.536   1.795
 1185SOL    HW2 3888   1.717   2.379   1.758
 1186SOL     OW 3889   1.362   3.006   0.545
 1186SOL    HW1 3890   1.445   2.977   0.497
 1186SOL    HW2 3891   1.313   3.073   0.489
 1187SOL     OW 3892   0.550   2.058   0.885
 1187SOL    HW1 3893   0.545   2.053   0.985
 1187SOL    HW2 3894   0.552   2.154   0.856
 1188SOL     OW 3895   1.008   3.318   0.477
 1188SOL    HW1 3896   0.962   3.390   0.425
 1188SOL    HW2 3897   1.004   3.338   0.575
 1189SOL     OW 3898   0.351   3.663   0.853
 1189SOL    HW1 3899   0.401   3.577   0.859
 1189SOL    HW2 3900   0.416   3.740   0.850
 1190SOL     OW 3901   1.795   2.928   0.873
 1190SOL    HW1 3902   1.733   2.913   0.797
 1190SOL    HW2 3903   1.743   2.939   0.958
 1191SOL     OW 3904   1.227   3.412   1.506
 1191SOL    HW1 3905   1.233   3.335   1.570
 1191SOL    HW2 3906   1.175   3.386   1.426
 1192SOL     OW 3907   0.321   2.805   0.242
 1192SOL    HW1 3908   0.403   2.844   0.200
 1192SOL    HW2 3909   0.294   2.723   0.193
 1193SOL     OW 3910   1.458   2.597   0.728
 1193SOL    HW1 3911   1.453   2.532   0.803
 1193SOL    HW2 3912   1.538   2.656   0.741
 1194SOL     OW 3913   0.461   3.128   1.727
 1194SOL    HW1 3914   0.411   3.129   1.641
 1194SOL    HW2 3915   0.398   3.110   1.803
 1195SOL     OW 3916   1.111   3.638   0.237
 1195SOL    HW1 3917   1.051   3.576   0.287
 1195SOL    HW2 3918   1.142   3.594   0.152
 1196SOL     OW 3919   0.202   2.147   1.498
 1196SOL    HW1 3920   0.122   2.207   1.485
 1196SOL    HW2 3921   0.192   2.098   1.584
 1197SOL     OW 3922   1.632   3.239   0.081
 1197SOL    HW1 3923   1.600   3.333   0.071
 1197SOL    HW2 3924   1.556   3.176   0.069
 1198SOL     OW 3925   0.464   3.605   0.323
 1198SOL    HW1 3926   0.497   3.644   0.409
 1198SOL    HW2 3927   0.540   3.598   0.258
 1199SOL     OW 3928   1.400   1.969   0.426
 1199SOL    HW1 3929   1.376   1.932   0.336
 1199SOL    HW2 3930   1.499   1.985   0.430
 1200SOL     OW 3931   0.249   3.647   1.241
 1200SOL    HW1 3932   0.306   3.582   1.291
 1200SOL    HW2 3933   0.233   3.614   1.148
 1201SOL     OW 3934   0.940   3.560   0.904
 1201SOL    HW1 3935   1.020   3.503   0.925
 1201SOL    HW2 3936   0.891   3.520   0.827
 1202SOL     OW 3937   0.382   2.562   0.480
 1202SOL    HW1 3938   0.427   2.472   0.477
 1202SOL    HW2 3939   0.288   2.551   0.513
 1203SOL     OW 3940   1.547   2.084   1.729
 1203SOL    HW1 3941   1.542   2.121   1.821
 1203SOL    HW2 3942   1.475   2.015   1.717
 1204SOL     OW 3943   0.614   1.984   0.117
 1204SOL    HW1 3944   0.712   1.962   0.124
 1204SOL    HW2 3945   0.583   1.967   0.024
 1205SOL     OW 3946   0.781   2.126   1.749
 1205SOL    HW1 3947   0.848   2.065   1.792
 1205SOL    HW2 3948   0.708   2.145   1.814
 1206SOL     OW 3949   0.888   3.376   1.195
 1206SOL    HW1 3950   0.865   3.351   1.101
 1206SOL    HW2 3951   0.949   3.307   1.234
 1207SOL     OW 3952   1.351   2.452   1.433
 1207SOL    HW1 3953   1.379   2.409   1.518
 1207SOL    HW2 3954   1.376   2.548   1.434
 1208SOL     OW 3955   0.803   3.264   0.924
 1208SOL    HW1 3956   0.893   3.278   0.882
 1208SOL    HW2 3957   0.732   3.266   0.853
 1209SOL     OW 3958   0.922   2.365   0.899
 1209SOL    HW1 3959   0.897   2.356   0.803
 1209SOL    HW2 3960   0.970   2.283   0.930
 1210SOL     OW 3961   0.539   1.926   0.512
 1210SOL    HW1 3962   0.458   1.927   0.570
 1210SOL    HW2 3963   0.542   2.009   0.457
 1211SOL     OW 3964   1.434   3.050   0.041
 1211SOL    HW1 3965   1.466   2.974   0.098
 1211SOL    HW2 3966   1.342   3.077   0.071
 1212SOL     OW 3967   0.297   1.897   0.171
 1212SOL    HW1 3968   0.346   1.981   0.150
 1212SOL    HW2 3969   0.359   1.832   0.216
 1213SOL     OW 3970   0.935   2.098   0.480
 1213SOL    HW1 3971   0.887   2.139   0.402
 1213SOL    HW2 3972   1.034   2.096   0.461
 1214SOL     OW 3973   1.076   2.545   1.464
 1214SOL    HW1 3974   0.996   2.484   1.467
 1214SOL    HW2 3975   1.157   2.492   1.440
 1215SOL     OW 3976   1.227   3.432   0.793
 1215SOL    HW1 3977   1.248   3.506   0.728
 1215SOL    HW2 3978   1.295   3.432   0.866
 1216SOL     OW 3979   0.459   3.014   0.741
 1216SOL    HW1 3980   0.388   2.987   0.806
 1216SOL    HW2 3981   0.433   2.986   0.648
 1217SOL     OW 3982   1.271   3.659   0.591
 1217SOL    HW1 3983   1.315   3.723   0.527
 1217SOL    HW2 3984   1.221   3.711   0.661
 1218SOL     OW 3985   1.032   2.411   0.016
 1218SOL    HW1 3986   0.991   2.493  -0.023
 1218SOL    HW2 3987   1.096   2.437   0.089
 1219SOL     OW 3988   0.078   2.418   1.386
 1219SOL    HW1 3989   0.170   2.417   1.345
 1219SOL    HW2 3990   0.072   2.492   1.453
 1220SOL     OW 3991   0.561   2.084   1.147
 1220SOL    HW1 3992   0.599   2.000   1.184
 1220SOL    HW2 3993   0.473   2.103   1.191
 1221SOL     OW 3994   0.866   2.316   0.642
 1221SOL    HW1 3995   0.834   2.388   0.580
 1221SOL    HW2 3996   0.890   2.235   0.589
 1222SOL     OW 3997   1.017   1.901   0.753
 1222SOL    HW1 3998   0.945   1.906   0.684
 1222SOL    HW2 3999   0.993   1.832   0.822
 1223SOL     OW 4000   1.429   3.035   0.867
 1223SOL    HW1 4001   1.374   2.951   0.860
 1223SOL    HW2 4002   1.455   3.064   0.775
 1224SOL     OW 4003   1.466   2.452   0.992
 1224SOL    HW1 4004   1.436   2.357   0.999
 1224SOL    HW2 4005   1.539   2.468   1.058
 1225SOL     OW 4006   1.857   2.695   0.377
 1225SOL    HW1 4007   1.899   2.631   0.441
 1225SOL    HW2 4008   1.819   2.644   0.299
 1226SOL     OW 4009   0.488   3.247   0.174
 1226SOL    HW1 4010   0.401   3.232   0.221
 1226SOL    HW2 4011   0.471   3.273   0.079
 1227SOL     OW 4012   1.664   3.142   0.657
 1227SOL    HW1 4013   1.763   3.150   0.671
 1227SOL    HW2 4014   1.619   3.226   0.688
 1228SOL     OW 4015   1.390   2.437   0.078
 1228SOL    HW1 4016   1.336   2.416   0.159
 1228SOL    HW2 4017   1.481   2.396   0.087
 1229SOL     OW 4018   0.527   2.118   0.328
 1229SOL    HW1 4019   0.554   2.059   0.253
 1229SOL    HW2 4020   0.527   2.213   0.297
 1230SOL     OW 4021   1.754   3.085   1.588
 1230SOL    HW1 4022   1.845   3.046   1.575
 1230SOL    HW2 4023   1.762   3.181   1.612
 1231SOL     OW 4024   1.064   3.209   1.340
 1231SOL    HW1 4025   0.984   3.186   1.395
 1231SOL    HW2 4026   1.147   3.183   1.389
 1232SOL     OW 4027   1.592   3.491   1.625
 1232SOL    HW1 4028   1.619   3.525   1.535
 1232SOL    HW2 4029   1.671   3.453   1.671
 1233SOL     OW 4030   1.111   3.057   1.100
 1233SOL    HW1 4031   1.071   3.101   1.181
 1233SOL    HW2 4032   1.070   3.094   1.017
 1234SOL     OW 4033   1.638   2.961   1.079
 1234SOL    HW1 4034   1.643   3.042   1.138
 1234SOL    HW2 4035   1.552   2.963   1.028
 1235SOL     OW 4036   0.915   1.951   1.402
 1235SOL    HW1 4037   0.940   1.931   1.307
 1235SOL    HW2 4038   0.987   2.007   1.444
 1236SOL     OW 4039   0.980   2.978   1.719
 1236SOL    HW1 4040   0.881   2.984   1.729
 1236SOL    HW2 4041   1.003   2.898   1.663
 1237SOL     OW 4042   0.705   2.912   0.368
 1237SOL    HW1 4043   0.691   2.919   0.467
 1237SOL    HW2 4044   0.789   2.861   0.350
 1238SOL     OW 4045   0.410   2.675   1.251
 1238SOL    HW1 4046   0.496   2.687   1.301
 1238SOL    HW2 4047   0.368   2.588   1.278
 1239SOL     OW 4048   1.274   2.248   1.262
 1239SOL    HW1 4049   1.295   2.322   1.326
 1239SOL    HW2 4050   1.185   2.265   1.219
 1240SOL     OW 4051   0.064   3.426   1.331
 1240SOL    HW1 4052   0.018   3.508   1.297
 1240SOL    HW2 4053   0.162   3.445   1.340
 1241SOL     OW 4054   0.367   2.962   0.501
 1241SOL    HW1 4055   0.360   3.045   0.445
 1241SOL    HW2 4056   0.371   2.882   0.441
 1242SOL     OW 4057   0.566   2.399   0.865
 1242SOL    HW1 4058   0.578   2.465   0.791
 1242SOL    HW2 4059   0.612   2.433   0.948
 1243SOL     OW 4060   1.252   3.210   0.388
 1243SOL    HW1 4061   1.302   3.287   0.428
 1243SOL    HW2 4062   1.157   3.212   0.420
 1244SOL     OW 4063   1.272   3.307   1.142
 1244SOL    HW1 4064   1.319   3.320   1.229
 1244SOL    HW2 4065   1.206   3.233   1.151
 1245SOL     OW 4066   1.582   2.501   0.472
 1245SOL    HW1 4067   1.551   2.562   0.545
 1245SOL    HW2 4068   1.632   2.553   0.403
 1246SOL     OW 4069   0.354   3.372   1.329
 1246SOL    HW1 4070   0.333   3.328   1.242
 1246SOL    HW2 4071   0.451   3.398   1.332
 1247SOL     OW 4072   0.402   2.613   1.598
 1247SOL    HW1 4073   0.470   2.668   1.551
 1247SOL    HW2 4074   0.442   2.525   1.625
 1248SOL     OW 4075   1.587   2.641   1.670
 1248SOL    HW1 4076   1.495   2.679   1.665
 1248SOL    HW2 4077   1.647   2.688   1.605
 1249SOL     OW 4078   1.013   1.967   1.770
 1249SOL    HW1 4079   1.019   2.052   1.718
 1249SOL    HW2 4080   1.045   1.891   1.713
 1250SOL     OW 4081   0.504   1.912   1.740
 1250SOL    HW1 4082   0.462   1.855   1.670
 1250SOL    HW2 4083   0.438   1.981   1.772
 1251SOL     OW 4084   0.573   2.732   1.029
 1251SOL    HW1 4085   0.617   2.821   1.020
 1251SOL    HW2 4086   0.510   2.732   1.106
 1252SOL     OW 4087   1.360   2.724   1.045
 1252SOL    HW1 4088   1.285   2.724   0.979
 1252SOL    HW2 4089   1.397   2.632   1.054
 1253SOL     OW 4090   1.209   2.387   0.275
 1253SOL    HW1 4091   1.222   2.303   0.329
 1253SOL    HW2 4092   1.180   2.461   0.335
 1254SOL     OW 4093   0.307   2.075   1.231
 1254SOL    HW1 4094   0.284   2.112   1.321
 1254SOL    HW2 4095   0.277   1.980   1.225
 1255SOL     OW 4096   0.037   3.172   1.282
 1255SOL    HW1 4097   0.090   3.123   1.350
 1255SOL    HW2 4098   0.059   3.270   1.287
 1256SOL     OW 4099   0.732   2.496   1.064
 1256SOL    HW1 4100   0.791   2.470   0.988
 1256SOL    HW2 4101   0.704   2.592   1.053
 1257SOL     OW 4102   1.728   2.797   1.854
 1257SOL    HW1 4103   1.682   2.790   1.765
 1257SOL    HW2 4104   1.666   2.841   1.920
 1258SOL     OW 4105   0.307   1.925   0.618
 1258SOL    HW1 4106   0.296   2.019   0.651
 1258SOL    HW2 4107   0.302   1.862   0.695
 1259SOL     OW 4108   1.622   2.229   0.374
 1259SOL    HW1 4109   1.624   2.153   0.438
 1259SOL    HW2 4110   1.574   2.306   0.414
 1260SOL     OW 4111   1.023   2.628   0.966
 1260SOL    HW1 4112   1.038   2.649   1.062
 1260SOL    HW2 4113   0.993   2.533   0.957
 1261SOL     OW 4114   0.980   3.435   1.700
 1261SOL    HW1 4115   0.960   3.479   1.612
 1261SOL    HW2 4116   1.019   3.344   1.684
 1262SOL     OW 4117   1.859   3.380   1.605
 1262SOL    HW1 4118   1.873   3.407   1.510
 1262SOL    HW2 4119   1.942   3.402   1.658
 1263SOL     OW 4120   0.350   2.760   1.804
 1263SOL    HW1 4121   0.426   2.804   1.852
 1263SOL    HW2 4122   0.385   2.713   1.722
 1264SOL     OW 4123   1.540   2.136   0.125
 1264SOL    HW1 4124   1.479   2.061   0.148
 1264SOL    HW2 4125   1.562   2.188   0.208
 1265SOL     OW 4126   1.303   2.700   0.042
 1265SOL    HW1 4127   1.337   2.607   0.057
 1265SOL    HW2 4128   1.321   2.727  -0.053
 1266SOL     OW 4129   1.068   3.195   0.849
 1266SOL    HW1 4130   1.075   3.111   0.794
 1266SOL    HW2 4131   1.130   3.264   0.813
 1267SOL     OW 4132   0.319   2.672   0.949
 1267SOL    HW1 4133   0.412   2.708   0.954
 1267SOL    HW2 4134   0.313   2.587   1.001
 1268SOL     OW 4135   0.339   2.371   1.006
 1268SOL    HW1 4136   0.287   2.288   0.989
 1268SOL    HW2 4137   0.416   2.376   0.942
 1269SOL     OW 4138   1.138   2.242   1.678
 1269SOL    HW1 4139   1.093   2.305   1.742
 1269SOL    HW2 4140   1.231   2.273   1.661
 1270SOL     OW 4141   1.160   2.069   1.477
 1270SOL    HW1 4142   1.160   2.133   1.554
 1270SOL    HW2 4143   1.188   2.117   1.394
 1271SOL     OW 4144   0.008   3.188   0.200
 1271SOL    HW1 4145  -0.085   3.209   0.169
 1271SOL    HW2 4146   0.018   3.089   0.213
 1272SOL     OW 4147   0.088   3.663   0.927
 1272SOL    HW1 4148   0.046   3.577   0.900
 1272SOL    HW2 4149   0.182   3.666   0.893
 1273SOL     OW 4150   0.504   3.430   0.910
 1273SOL    HW1 4151   0.570   3.504   0.919
 1273SOL    HW2 4152   0.548   3.351   0.868
 1274SOL     OW 4153   1.002   2.658   1.238
 1274SOL    HW1 4154   1.043   2.626   1.324
 1274SOL    HW2 4155   0.906   2.631   1.235
 1275SOL     OW 4156   0.040   2.406   1.114
 1275SOL    HW1 4157   0.125   2.373   1.073
 1275SOL    HW2 4158   0.053   2.421   1.212
 1276SOL     OW 4159   0.189   2.382   1.722
 1276SOL    HW1 4160   0.248   2.342   1.652
 1276SOL    HW2 4161   0.131   2.453   1.681
 1277SOL     OW 4162   1.369   2.812   1.660
 1277SOL    HW1 4163   1.408   2.901   1.680
 1277SOL    HW2 4164   1.379   2.792   1.563
 1278SOL     OW 4165   0.815   2.434   0.325
 1278SOL    HW1 4166   0.822   2.345   0.279
 1278SOL    HW2 4167   0.721   2.468   0.317
 1279SOL     OW 4168   1.657   2.466   1.206
 1279SOL    HW1 4169   1.619   2.397   1.268
 1279SOL    HW2 4170   1.739   2.430   1.162
 1280SOL     OW 4171   0.252   3.426   1.744
 1280SOL    HW1 4172   0.222   3.483   1.820
 1280SOL    HW2 4173   0.245   3.329   1.770
 1281SOL     OW 4174   0.671   2.326   1.269
 1281SOL    HW1 4175   0.637   2.237   1.239
 1281SOL    HW2 4176   0.697   2.380   1.189
 1282SOL     OW 4177   0.930   3.540   1.465
 1282SOL    HW1 4178   0.906   3.522   1.370
 1282SOL    HW2 4179   0.960   3.634   1.475
 1283SOL     OW 4180   0.473   2.362   0.191
 1283SOL    HW1 4181   0.534   2.442   0.195
 1283SOL    HW2 4182   0.378   2.393   0.198
 1284SOL     OW 4183   0.159   2.999   1.466
 1284SOL    HW1 4184   0.181   2.938   1.542
 1284SOL    HW2 4185   0.169   2.950   1.380
 1285SOL     OW 4186   1.347   2.921   1.234
 1285SOL    HW1 4187   1.371   2.858   1.160
 1285SOL    HW2 4188   1.257   2.961   1.216
 1286SOL     OW 4189   1.302   2.717   0.309
 1286SOL    HW1 4190   1.216   2.686   0.351
 1286SOL    HW2 4191   1.298   2.703   0.210
 1287SOL     OW 4192   1.759   3.609   1.154
 1287SOL    HW1 4193   1.820   3.639   1.081
 1287SOL    HW2 4194   1.721   3.520   1.132
 1288SOL     OW 4195   1.252   3.593   1.128
 1288SOL    HW1 4196   1.336   3.598   1.074
 1288SOL    HW2 4197   1.229   3.497   1.146
 1289SOL     OW 4198   0.083   3.120   1.022
 1289SOL    HW1 4199   0.078   3.119   1.122
 1289SOL    HW2 4200   0.000   3.079   0.984
 1290SOL     OW 4201   0.688   3.524   1.716
 1290SOL    HW1 4202   0.632   3.605   1.725
 1290SOL    HW2 4203   0.740   3.528   1.630
 1291SOL     OW 4204   0.903   1.948   0.133
 1291SOL    HW1 4205   0.954   1.949   0.047
 1291SOL    HW2 4206   0.959   1.906   0.204
 1292SOL     OW 4207   1.726   1.997   0.523
 1292SOL    HW1 4208   1.799   1.980   0.456
 1292SOL    HW2 4209   1.695   1.910   0.561
 1293SOL     OW 4210   1.388   3.435   0.477
 1293SOL    HW1 4211   1.455   3.447   0.403
 1293SOL    HW2 4212   1.348   3.524   0.500
 1294SOL     OW 4213   0.130   3.656   1.851
 1294SOL    HW1 4214   0.089   3.582   1.904
 1294SOL    HW2 4215   0.194   3.707   1.909
 1295SOL     OW 4216   1.280   2.789   0.672
 1295SOL    HW1 4217   1.340   2.708   0.674
 1295SOL    HW2 4218   1.320   2.858   0.612
 1296SOL     OW 4219   0.830   3.135   1.422
 1296SOL    HW1 4220   0.825   3.168   1.517
 1296SOL    HW2 4221   0.744   3.154   1.376
 1297SOL     OW 4222   0.672   3.478   0.154
 1297SOL    HW1 4223   0.681   3.488   0.055
 1297SOL    HW2 4224   0.632   3.389   0.175
 1298SOL     OW 4225   1.650   3.582   1.394
 1298SOL    HW1 4226   1.703   3.592   1.310
 1298SOL    HW2 4227   1.623   3.672   1.428
 1299SOL     OW 4228   1.841   2.037   0.963
 1299SOL    HW1 4229   1.880   1.952   0.927
 1299SOL    HW2 4230   1.743   2.039   0.944
 1300SOL     OW 4231   0.263   2.188   0.720
 1300SOL    HW1 4232   0.184   2.239   0.686
 1300SOL    HW2 4233   0.254   2.173   0.818
 1301SOL     OW 4234   1.194   3.474   0.031
 1301SOL    HW1 4235   1.200   3.381   0.068
 1301SOL    HW2 4236   1.135   3.474  -0.049
 1302SOL     OW 4237   0.822   2.864   1.372
 1302SOL    HW1 4238   0.862   2.863   1.280
 1302SOL    HW2 4239   0.832   2.956   1.412
 1303SOL     OW 4240   0.916   2.772   0.291
 1303SOL    HW1 4241   0.979   2.810   0.223
 1303SOL    HW2 4242   0.956   2.689   0.330
 1304SOL     OW 4243   1.504   3.469   0.044
 1304SOL    HW1 4244   1.412   3.506   0.051
 1304SOL    HW2 4245   1.542   3.489  -0.046
 1305SOL     OW 4246   0.372   3.150   1.490
 1305SOL    HW1 4247   0.359   3.243   1.456
 1305SOL    HW2 4248   0.288   3.098   1.477
 1306SOL     OW 4249   1.614   3.154   1.289
 1306SOL    HW1 4250   1.674   3.157   1.369
 1306SOL    HW2 4251   1.539   3.218   1.302
 1307SOL     OW 4252   1.039   2.960   0.696
 1307SOL    HW1 4253   0.969   2.913   0.750
 1307SOL    HW2 4254   1.098   2.892   0.653
 1308SOL     OW 4255   1.014   2.098   0.971
 1308SOL    HW1 4256   1.006   2.062   0.878
 1308SOL    HW2 4257   1.012   2.022   1.036
 1309SOL     OW 4258   0.590   3.349   0.491
 1309SOL    HW1 4259   0.632   3.291   0.421
 1309SOL    HW2 4260   0.546   3.428   0.447
 1310SOL     OW 4261   1.709   2.247   1.381
 1310SOL    HW1 4262   1.782   2.316   1.385
 1310SOL    HW2 4263   1.737   2.172   1.322
 1311SOL     OW 4264   0.255   3.210   0.290
 1311SOL    HW1 4265   0.159   3.211   0.263
 1311SOL    HW2 4266   0.267   3.263   0.374
 1312SOL     OW 4267   0.105   2.875   1.726
 1312SOL    HW1 4268   0.028   2.842   1.780
 1312SOL    HW2 4269   0.190   2.845   1.768
 1313SOL     OW 4270   0.672   2.065   1.489
 1313SOL    HW1 4271   0.762   2.049   1.449
 1313SOL    HW2 4272   0.680   2.070   1.588
 1314SOL     OW 4273   0.075   2.207   0.033
 1314SOL    HW1 4274  -0.017   2.179   0.004
 1314SOL    HW2 4275   0.106   2.284  -0.023
 1315SOL     OW 4276   1.440   2.718   1.398
 1315SOL    HW1 4277   1.383   2.770   1.335
 1315SOL    HW2 4278   1.536   2.730   1.374
 1316SOL     OW 4279   0.072   2.028   0.318
 1316SOL    HW1 4280   0.055   2.111   0.264
 1316SOL    HW2 4281   0.162   1.991   0.296
 1317SOL     OW 4282   1.183   3.197   0.119
 1317SOL    HW1 4283   1.084   3.186   0.121
 1317SOL    HW2 4284   1.217   3.212   0.212
 1318SOL     OW 4285   0.613   2.704   1.431
 1318SOL    HW1 4286   0.669   2.785   1.414
 1318SOL    HW2 4287   0.672   2.624   1.434
 1319SOL     OW 4288   1.493   3.629   0.959
 1319SOL    HW1 4289   1.526   3.693   0.890
 1319SOL    HW2 4290   1.559   3.623   1.034
 1320SOL     OW 4291   0.716   2.427   1.708
 1320SOL    HW1 4292   0.735   2.492   1.782
 1320SOL    HW2 4293   0.776   2.347   1.717
 1321SOL     OW 4294   1.450   3.082   1.633
 1321SOL    HW1 4295   1.441   3.072   1.732
 1321SOL    HW2 4296   1.546   3.075   1.607
 1322SOL     OW 4297   0.390   3.603   1.560
 1322SOL    HW1 4298   0.299   3.644   1.558
 1322SOL    HW2 4299   0.383   3.509   1.592
 1323SOL     OW 4300   1.674   2.745   1.254
 1323SOL    HW1 4301   1.647   2.656   1.217
 1323SOL    HW2 4302   1.675   2.813   1.181
 1324SOL     OW 4303   1.225   2.187   0.449
 1324SOL    HW1 4304   1.290   2.113   0.438
 1324SOL    HW2 4305   1.245   2.237   0.533
 1325SOL     OW 4306   0.594   2.607   0.652
 1325SOL    HW1 4307   0.644   2.692   0.633
 1325SOL    HW2 4308   0.506   2.609   0.604
 1326SOL     OW 4309   1.777   2.204   1.642
 1326SOL    HW1 4310   1.760   2.235   1.548
 1326SOL    HW2 4311   1.693   2.167   1.680
 1327SOL     OW 4312   1.730   2.796   1.517
 1327SOL    HW1 4313   1.768   2.887   1.532
 1327SOL    HW2 4314   1.722   2.779   1.418
 1328SOL     OW 4315   0.859   3.236   0.016
 1328SOL    HW1 4316   0.813   3.251   0.104
 1328SOL    HW2 4317   0.903   3.321  -0.014
 1329SOL     OW 4318   0.661   3.652   0.953
 1329SOL    HW1 4319   0.615   3.740   0.940
 1329SOL    HW2 4320   0.760   3.664   0.946
 1330SOL     OW 4321   0.859   2.818   0.861
 1330SOL    HW1 4322   0.913   2.749   0.909
 1330SOL    HW2 4323   0.827   2.887   0.927
 1331SOL     OW 4324   1.083   2.846   0.087
 1331SOL    HW1 4325   1.060   2.899   0.005
 1331SOL    HW2 4326   1.164   2.790   0.068
 1332SOL     OW 4327   1.861   3.431   0.851
 1332SOL    HW1 4328   1.790   3.419   0.781
 1332SOL    HW2 4329   1.862   3.352   0.911
 1333SOL     OW 4330   0.221   3.176   1.844
 1333SOL    HW1 4331   0.156   3.103   1.823
 1333SOL    HW2 4332   0.225   3.190   1.942
 1334SOL     OW 4333   0.079   3.102   0.653
 1334SOL    HW1 4334   0.078   3.055   0.741
 1334SOL    HW2 4335   0.161   3.074   0.602
 1335SOL     OW 4336   0.672   3.253   1.624
 1335SOL    HW1 4337   0.594   3.203   1.662
 1335SOL    HW2 4338   0.669   3.348   1.655
 1336SOL     OW 4339   1.824   2.054   1.227
 1336SOL    HW1 4340   1.820   1.964   1.271
 1336SOL    HW2 4341   1.827   2.043   1.128
 1337SOL     OW 4342   0.428   2.286   0.520
 1337SOL    HW1 4343   0.458   2.214   0.458
 1337SOL    HW2 4344   0.389   2.246   0.603
 1338SOL     OW 4345   1.705   3.349   1.104
 1338SOL    HW1 4346   1.612   3.324   1.077
 1338SOL    HW2 4347   1.731   3.299   1.186
 1339SOL     OW 4348   0.317   2.409   1.280
 1339SOL    HW1 4349   0.355   2.350   1.352
 1339SOL    HW2 4350   0.357   2.383   1.192
 1340SOL     OW 4351   0.812   3.448   0.687
 1340SOL    HW1 4352   0.844   3.458   0.593
 1340SOL    HW2 4353   0.733   3.386   0.689
 1341SOL     OW 4354   1.424   2.076   1.112
 1341SOL    HW1 4355   1.476   2.011   1.167
 1341SOL    HW2 4356   1.375   2.139   1.173
 1342SOL     OW 4357   1.001   1.896   1.154
 1342SOL    HW1 4358   0.938   1.824   1.123
 1342SOL    HW2 4359   1.094   1.860   1.154
 1343SOL     OW 4360   0.770   3.192   0.301
 1343SOL    HW1 4361   0.724   3.105   0.318
 1343SOL    HW2 4362   0.861   3.189   0.342
 1344SOL     OW 4363   0.618   3.429   1.284
 1344SOL    HW1 4364   0.613   3.511   1.341
 1344SOL    HW2 4365   0.707   3.426   1.239
 1345SOL     OW 4366   1.352   1.914   0.168
 1345SOL    HW1 4367   1.387   1.873   0.084
 1345SOL    HW2 4368   1.262   1.876   0.188
 1346SOL     OW 4369   1.300   2.315   0.691
 1346SOL    HW1 4370   1.241   2.395   0.695
 1346SOL    HW2 4371   1.315   2.280   0.784
 1347SOL     OW 4372   1.593   2.083   0.882
 1347SOL    HW1 4373   1.509   2.082   0.936
 1347SOL    HW2 4374   1.595   2.166   0.826
 1348SOL     OW 4375   0.039   2.939   0.300
 1348SOL    HW1 4376   0.138   2.928   0.291
 1348SOL    HW2 4377  -0.001   2.853   0.332
 1349SOL     OW 4378   0.875   3.508   0.337
 1349SOL    HW1 4379   0.798   3.473   0.283
 1349SOL    HW2 4380   0.843   3.579   0.399
 1350SOL     OW 4381   0.230   2.490   1.975
 1350SOL    HW1 4382   0.137   2.488   2.012
 1350SOL    HW2 4383   0.231   2.451   1.883
 1351SOL     OW 4384   0.225   2.137   2.858
 1351SOL    HW1 4385   0.260   2.120   2.950
 1351SOL    HW2 4386   0.137   2.092   2.846
 1352SOL     OW 4387   0.019   2.230   2.509
 1352SOL    HW1 4388  -0.063   2.273   2.548
 1352SOL    HW2 4389  -0.009   2.157   2.446
 1353SOL     OW 4390   0.569   3.137   3.027
 1353SOL    HW1 4391   0.476   3.130   2.990
 1353SOL    HW2 4392   0.580   3.226   3.071
 1354SOL     OW 4393   1.555   3.373   2.565
 1354SOL    HW1 4394   1.498   3.357   2.646
 1354SOL    HW2 4395   1.496   3.383   2.485
 1355SOL     OW 4396   1.135   2.565   2.579
 1355SOL    HW1 4397   1.192   2.643   2.554
 1355SOL    HW2 4398   1.075   2.591   2.655
 1356SOL     OW 4399   1.755   2.469   2.093
 1356SOL    HW1 4400   1.743   2.456   1.994
 1356SOL    HW2 4401   1.725   2.388   2.142
 1357SOL     OW 4402   0.768   3.006   2.885
 1357SOL    HW1 4403   0.690   3.023   2.945
 1357SOL    HW2 4404   0.802   3.093   2.849
 1358SOL     OW 4405   0.850   2.660   3.685
 1358SOL    HW1 4406   0.846   2.736   3.750
 1358SOL    HW2 4407   0.872   2.696   3.594
 1359SOL     OW 4408   0.685   2.874   2.527
 1359SOL    HW1 4409   0.754   2.858   2.597
 1359SOL    HW2 4410   0.612   2.931   2.565
 1360SOL     OW 4411   0.686   3.023   3.665
 1360SOL    HW1 4412   0.746   3.102   3.679
 1360SOL    HW2 4413   0.600   3.054   3.624
 1361SOL     OW 4414   0.335   3.297   2.923
 1361SOL    HW1 4415   0.257   3.266   2.870
 1361SOL    HW2 4416   0.393   3.355   2.866
 1362SOL     OW 4417   1.460   3.367   3.201
 1362SOL    HW1 4418   1.484   3.461   3.227
 1362SOL    HW2 4419   1.444   3.313   3.283
 1363SOL     OW 4420   0.438   2.254   3.361
 1363SOL    HW1 4421   0.520   2.198   3.370
 1363SOL    HW2 4422   0.357   2.196   3.365
 1364SOL     OW 4423   1.603   2.309   2.599
 1364SOL    HW1 4424   1.529   2.355   2.549
 1364SOL    HW2 4425   1.654   2.377   2.652
 1365SOL     OW 4426   0.231   3.575   2.345
 1365SOL    HW1 4427   0.265   3.652   2.399
 1365SOL    HW2 4428   0.275   3.575   2.255
 1366SOL     OW 4429   1.127   3.203   3.552
 1366SOL    HW1 4430   1.174   3.203   3.640
 1366SOL    HW2 4431   1.079   3.116   3.541
 1367SOL     OW 4432   0.230   3.296   2.400
 1367SOL    HW1 4433   0.204   3.392   2.400
 1367SOL    HW2 4434   0.159   3.242   2.445
 1368SOL     OW 4435   0.240   2.953   2.748
 1368SOL    HW1 4436   0.254   2.869   2.800
 1368SOL    HW2 4437   0.185   3.017   2.803
 1369SOL     OW 4438   0.620   3.648   3.301
 1369SOL    HW1 4439   0.528   3.631   3.336
 1369SOL    HW2 4440   0.648   3.740   3.327
 1370SOL     OW 4441   0.606   2.826   1.985
 1370SOL    HW1 4442   0.613   2.910   1.931
 1370SOL    HW2 4443   0.652   2.839   2.073
 1371SOL     OW 4444   1.594   1.976   3.342
 1371SOL    HW1 4445   1.576   2.043   3.270
 1371SOL    HW2 4446   1.591   2.022   3.431
 1372SOL     OW 4447   0.122   2.505   2.425
 1372SOL    HW1 4448   0.077   2.417   2.442
 1372SOL    HW2 4449   0.121   2.559   2.509
 1373SOL     OW 4450   1.842   3.629   2.221
 1373SOL    HW1 4451   1.896   3.600   2.301
 1373SOL    HW2 4452   1.872   3.719   2.192
 1374SOL     OW 4453   0.027   3.458   1.979
 1374SOL    HW1 4454   0.008   3.362   2.000
 1374SOL    HW2 4455  -0.006   3.516   2.054
 1375SOL     OW 4456   1.689   2.784   2.474
 1375SOL    HW1 4457   1.784   2.755   2.482
 1375SOL    HW2 4458   1.681   2.849   2.399
 1376SOL     OW 4459   1.641   2.970   2.294
 1376SOL    HW1 4460   1.727   2.972   2.242
 1376SOL    HW2 4461   1.655   3.017   2.382
 1377SOL     OW 4462   0.113   2.599   3.459
 1377SOL    HW1 4463   0.201   2.586   3.504
 1377SOL    HW2 4464   0.100   2.696   3.437
 1378SOL     OW 4465   0.613   3.227   2.588
 1378SOL    HW1 4466   0.564   3.140   2.597
 1378SOL    HW2 4467   0.590   3.270   2.501
 1379SOL     OW 4468   1.293   3.090   3.285
 1379SOL    HW1 4469   1.330   3.017   3.227
 1379SOL    HW2 4470   1.345   3.095   3.370
 1380SOL     OW 4471   0.809   1.866   2.364
 1380SOL    HW1 4472   0.849   1.957   2.355
 1380SOL    HW2 4473   0.709   1.874   2.370
 1381SOL     OW 4474   0.197   2.838   3.126
 1381SOL    HW1 4475   0.286   2.793   3.112
 1381SOL    HW2 4476   0.124   2.773   3.107
 1382SOL     OW 4477   1.525   2.861   2.052
 1382SOL    HW1 4478   1.462   2.785   2.065
 1382SOL    HW2 4479   1.573   2.879   2.138
 1383SOL     OW 4480   1.187   3.654   3.478
 1383SOL    HW1 4481   1.211   3.714   3.402
 1383SOL    HW2 4482   1.194   3.559   3.448
 1384SOL     OW 4483   0.317   2.113   3.663
 1384SOL    HW1 4484   0.388   2.184   3.669
 1384SOL    HW2 4485   0.229   2.152   3.691
 1385SOL     OW 4486   1.466   3.279   2.815
 1385SOL    HW1 4487   1.407   3.285   2.895
 1385SOL    HW2 4488   1.451   3.191   2.769
 1386SOL     OW 4489   1.667   3.576   2.434
 1386SOL    HW1 4490   1.626   3.553   2.346
 1386SOL    HW2 4491   1.649   3.502   2.499
 1387SOL     OW 4492   0.598   2.591   2.132
 1387SOL    HW1 4493   0.622   2.660   2.064
 1387SOL    HW2 4494   0.520   2.624   2.186
 1388SOL     OW 4495   1.281   2.207   2.806
 1388SOL    HW1 4496   1.195   2.157   2.793
 1388SOL    HW2 4497   1.343   2.153   2.862
 1389SOL     OW 4498   1.576   3.524   2.169
 1389SOL    HW1 4499   1.665   3.570   2.172
 1389SOL    HW2 4500   1.555   3.500   2.074
 1390SOL     OW 4501   0.807   2.467   3.327
 1390SOL    HW1 4502   0.760   2.464   3.416
 1390SOL    HW2 4503   0.756   2.412   3.261
 1391SOL     OW 4504   1.394   2.331   3.536
 1391SOL    HW1 4505   1.374   2.374   3.624
 1391SOL    HW2 4506   1.472   2.269   3.545
 1392SOL     OW 4507   0.973   2.752   3.434
 1392SOL    HW1 4508   1.019   2.668   3.405
 1392SOL    HW2 4509   0.917   2.786   3.359
 1393SOL     OW 4510   0.991   2.272   3.104
 1393SOL    HW1 4511   0.914   2.306   3.158
 1393SOL    HW2 4512   0.957   2.221   3.025
 1394SOL     OW 4513   1.041   2.563   2.291
 1394SOL    HW1 4514   1.067   2.559   2.387
 1394SOL    HW2 4515   0.956   2.512   2.277
 1395SOL     OW 4516   0.076   2.673   2.651
 1395SOL    HW1 4517   0.175   2.661   2.660
 1395SOL    HW2 4518   0.052   2.768   2.672
 1396SOL     OW 4519   0.130   3.683   3.433
 1396SOL    HW1 4520   0.120   3.668   3.532
 1396SOL    HW2 4521   0.044   3.719   3.397
 1397SOL     OW 4522   0.865   2.210   2.057
 1397SOL    HW1 4523   0.924   2.273   2.008
 1397SOL    HW2 4524   0.884   2.116   2.028
 1398SOL     OW 4525   1.719   2.447   3.693
 1398SOL    HW1 4526   1.693   2.536   3.657
 1398SOL    HW2 4527   1.717   2.379   3.620
 1399SOL     OW 4528   1.362   3.006   2.407
 1399SOL    HW1 4529   1.445   2.977   2.359
 1399SOL    HW2 4530   1.313   3.073   2.351
 1400SOL     OW 4531   0.550   2.058   2.747
 1400SOL    HW1 4532   0.545   2.053   2.847
 1400SOL    HW2 4533   0.552   2.154   2.718
 1401SOL     OW 4534   1.008   3.318   2.339
 1401SOL    HW1 4535   0.962   3.390   2.287
 1401SOL    HW2 4536   1.004   3.338   2.437
 1402SOL     OW 4537   0.351   3.663   2.715
 1402SOL    HW1 4538   0.401   3.577   2.721
 1402SOL    HW2 4539   0.416   3.740   2.712
 1403SOL     OW 4540   1.795   2.928   2.735
 1403SOL    HW1 4541   1.733   2.913   2.659
 1403SOL    HW2 4542   1.743   2.939   2.820
 1404SOL     OW 4543   1.227   3.412   3.368
 1404SOL    HW1 4544   1.233   3.335   3.432
 1404SOL    HW2 4545   1.175   3.386   3.288
 1405SOL     OW 4546   0.321   2.805   2.104
 1405SOL    HW1 4547   0.403   2.844   2.062
 1405SOL    HW2 4548   0.294   2.723   2.055
 1406SOL     OW 4549   1.458   2.597   2.590
 1406SOL    HW1 4550   1.453   2.532   2.665
 1406SOL    HW2 4551   1.538   2.656   2.603
 1407SOL     OW 4552   0.461   3.128   3.589
 1407SOL    HW1 4553   0.411   3.129   3.503
 1407SOL    HW2 4554   0.398   3.110   3.665
 1408SOL     OW 4555   1.111   3.638   2.099
 1408SOL    HW1 4556   1.051   3.576   2.149
 1408SOL    HW2 4557   1.142   3.594   2.014
 1409SOL     OW 4558   0.202   2.147   3.360
 1409SOL    HW1 4559   0.122   2.207   3.347
 1409SOL    HW2 4560   0.192   2.098   3.446
 1410SOL     OW 4561   1.632   3.239   1.943
 1410SOL    HW1 4562   1.600   3.333   1.933
 1410SOL    HW2 4563   1.556   3.176   1.931
 1411SOL     OW 4564   0.464   3.605   2.185
 1411SOL    HW1 4565   0.497   3.644   2.271
 1411SOL    HW2 4566   0.540   3.598   2.120
 1412SOL     OW 4567   1.400   1.969   2.288
 1412SOL    HW1 4568   1.376   1.932   2.198
 1412SOL    HW2 4569   1.499   1.985   2.292
 1413SOL     OW 4570   0.249   3.647   3.103
 1413SOL    HW1 4571   0.306   3.582   3.153
 1413SOL    HW2 4572   0.233   3.614   3.010
 1414SOL     OW 4573   0.940   3.560   2.766
 1414SOL    HW1 4574   1.020   3.503   2.787
 1414SOL    HW2 4575   0.891   3.520   2.689
 1415SOL     OW 4576   0.382   2.562   2.342
 1415SOL    HW1 4577   0.427   2.472   2.339
 1415SOL    HW2 4578   0.288   2.551   2.375
 1416SOL     OW 4579   1.547   2.084   3.591
 1416SOL    HW1 4580   1.542   2.121   3.683
 1416SOL    HW2 4581   1.475   2.015   3.579
 1417SOL     OW 4582   0.614   1.984   1.979
 1417SOL    HW1 4583   0.712   1.962   1.986
 1417SOL    HW2 4584   0.583   1.967   1.886
 1418SOL     OW 4585   0.781   2.126   3.611
 1418SOL    HW1 4586   0.848   2.065   3.654
 1418SOL    HW2 4587   0.708   2.145   3.676
 1419SOL     OW 4588   0.888   3.376   3.057
 1419SOL    HW1 4589   0.865   3.351   2.963
 1419SOL    HW2 4590   0.949   3.307   3.096
 1420SOL     OW 4591   1.351   2.452   3.295
 1420SOL    HW1 4592   1.379   2.409   3.380
 1420SOL    HW2 4593   1.376   2.548   3.296
 1421SOL     OW 4594   0.803   3.264   2.786
 1421SOL    HW1 4595   0.893   3.278   2.744
 1421SOL    HW2 4596   0.732   3.266   2.715
 1422SOL     OW 4597   0.922   2.365   2.761
 1422SOL    HW1 4598   0.897   2.356   2.665
 1422SOL    HW2 4599   0.970   2.283   2.792
 1423SOL     OW 4600   0.539   1.926   2.374
 1423SOL    HW1 4601   0.458   1.927   2.432
 1423SOL    HW2 4602   0.542   2.009   2.319
 1424SOL     OW 4603   1.434   3.050   1.903
 1424SOL    HW1 4604   1.466   2.974   1.960
 1424SOL    HW2 4605   1.342   3.077   1.933
 1425SOL     OW 4606   0.297   1.897   2.033
 1425SOL    HW1 4607   0.346   1.981   2.012
 1425SOL    HW2 4608   0.359   1.832   2.078
 1426SOL     OW 4609   0.935   2.098   2.342
 1426SOL    HW1 4610   0.887   2.139   2.264
 1426SOL    HW2 4611   1.034   2.096   2.323
 1427SOL     OW 4612   1.076   2.545   3.326
 1427SOL    HW1 4613   0.996   2.484   3.329
 1427SOL    HW2 4614   1.157   2.492   3.302
 1428SOL     OW 4615   1.227   3.432   2.655
 1428SOL    HW1 4616   1.248   3.506   2.590
 1428SOL    HW2 4617   1.295   3.432   2.728
 1429SOL     OW 4618   0.459   3.014   2.603
 1429SOL    HW1 4619   0.388   2.987   2.668
 1429SOL    HW2 4620   0.433   2.986   2.510
 1430SOL     OW 4621   1.271   3.659   2.453
 1430SOL    HW1 4622   1.315   3.723   2.389
 1430SOL    HW2 4623   1.221   3.711   2.523
 1431SOL     OW 4624   1.032   2.411   1.878
 1431SOL    HW1 4625   0.991   2.493   1.839
 1431SOL    HW2 4626   1.096   2.437   1.951
 1432SOL     OW 4627   0.078   2.418   3.248
 1432SOL    HW1 4628   0.170   2.417   3.207
 1432SOL    HW2 4629   0.072   2.492   3.315
 1433SOL     OW 4630   0.561   2.084   3.009
 1433SOL    HW1 4631   0.599   2.000   3.046
 1433SOL    HW2 4632   0.473   2.103   3.053
 1434SOL     OW 4633   0.866   2.316   2.504
 1434SOL    HW1 4634   0.834   2.388   2.442
 1434SOL    HW2 4635   0.890   2.235   2.451
 1435SOL     OW 4636   1.017   1.901   2.615
 1435SOL    HW1 4637   0.945   1.906   2.546
 1435SOL    HW2 4638   0.993   1.832   2.684
 1436SOL     OW 4639   1.429   3.035   2.729
 1436SOL    HW1 4640   1.374   2.951   2.722
 1436SOL    HW2 4641   1.455   3.064   2.637
 1437SOL     OW 4642   1.466   2.452   2.854
 1437SOL    HW1 4643   1.436   2.357   2.861
 1437SOL    HW2 4644   1.539   2.468   2.920
 1438SOL     OW 4645   1.857   2.695   2.239
 1438SOL    HW1 4646   1.899   2.631   2.303
 1438SOL    HW2 4647   1.819   2.644   2.161
 1439SOL     OW 4648   0.488   3.247   2.036
 1439SOL    HW1 4649   0.401   3.232   2.083
 1439SOL    HW2 4650   0.471   3.273   1.941
 1440SOL     OW 4651   1.664   3.142   2.519
 1440SOL    HW1 4652   1.763   3.150   2.533
 1440SOL    HW2 4653   1.619   3.226   2.550
 1441SOL     OW 4654   1.390   2.437   1.940
 1441SOL    HW1 4655   1.336   2.416   2.021
 1441SOL    HW2 4656   1.481   2.396   1.949
 1442SOL     OW 4657   0.527   2.118   2.190
 1442SOL    HW1 4658   0.554   2.059   2.115
 1442SOL    HW2 4659   0.527   2.213   2.159
 1443SOL     OW 4660   1.754   3.085   3.450
 1443SOL    HW1 4661   1.845   3.046   3.437
 1443SOL    HW2 4662   1.762   3.181   3.474
 1444SOL     OW 4663   1.064   3.209   3.202
 1444SOL    HW1 4664   0.984   3.186   3.257
 1444SOL    HW2 4665   1.147   3.183   3.251
 1445SOL     OW 4666   1.592   3.491   3.487
 1445SOL    HW1 4667   1.619   3.525   3.397
 1445SOL    HW2 4668   1.671   3.453   3.533
 1446SOL     OW 4669   1.111   3.057   2.962
 1446SOL    HW1 4670   1.071   3.101   3.043
 1446SOL    HW2 4671   1.070   3.094   2.879
 1447SOL     OW 4672   1.638   2.961   2.941
 1447SOL    HW1 4673   1.643   3.042   3.000
 1447SOL    HW2 4674   1.552   2.963   2.890
 1448SOL     OW 4675   0.915   1.951   3.264
 1448SOL    HW1 4676   0.940   1.931   3.169
 1448SOL    HW2 4677   0.987   2.007   3.306
 1449SOL     OW 4678   0.980   2.978   3.581
 1449SOL    HW1 4679   0.881   2.984   3.591
 1449SOL    HW2 4680   1.003   2.898   3.525
 1450SOL     OW 4681   0.705   2.912   2.230
 1450SOL    HW1 4682   0.691   2.919   2.329
 1450SOL    HW2 4683   0.789   2.861   2.212
 1451SOL     OW 4684   0.410   2.675   3.113
 1451SOL    HW1 4685   0.496   2.687   3.163
 1451SOL    HW2 4686   0.368   2.588   3.140
 1452SOL     OW 4687   1.274   2.248   3.124
 1452SOL    HW1 4688   1.295   2.322   3.188
 1452SOL    HW2 4689   1.185   2.265   3.081
 1453SOL     OW 4690   0.064   3.426   3.193
 1453SOL    HW1 4691   0.018   3.508   3.159
 1453SOL    HW2 4692   0.162   3.445   3.202
 1454SOL     OW 4693   0.367   2.962   2.363
 1454SOL    HW1 4694   0.360   3.045   2.307
 1454SOL    HW2 4695   0.371   2.882   2.303
 1455SOL     OW 4696   0.566   2.399   2.727
 1455SOL    HW1 4697   0.578   2.465   2.653
 1455SOL    HW2 4698   0.612   2.433   2.810
 1456SOL     OW 4699   1.252   3.210   2.250
 1456SOL    HW1 4700   1.302   3.287   2.290
 1456SOL    HW2 4701   1.157   3.212   2.282
 1457SOL     OW 4702   1.272   3.307   3.004
 1457SOL    HW1 4703   1.319   3.320   3.091
 1457SOL    HW2 4704   1.206   3.233   3.013
 1458SOL     OW 4705   1.582   2.501   2.334
 1458SOL    HW1 4706   1.551   2.562   2.407
 1458SOL    HW2 4707   1.632   2.553   2.265
 1459SOL     OW 4708   0.354   3.372   3.191
 1459SOL    HW1 4709   0.333   3.328   3.104
 1459SOL    HW2 4710   0.451   3.398   3.194
 1460SOL     OW 4711   0.402   2.613   3.460
 1460SOL    HW1 4712   0.470   2.668   3.413
 1460SOL    HW2 4713   0.442   2.525   3.487
 1461SOL     OW 4714   1.587   2.641   3.532
 1461SOL    HW1 4715   1.495   2.679   3.527
 1461SOL    HW2 4716   1.647   2.688   3.467
 1462SOL     OW 4717   1.013   1.967   3.632
 1462SOL    HW1 4718   1.019   2.052   3.580
 1462SOL    HW2 4719   1.045   1.891   3.575
 1463SOL     OW 4720   0.504   1.912   3.602
 1463SOL    HW1 4721   0.462   1.855   3.532
 1463SOL    HW2 4722   0.438   1.981   3.634
 1464SOL     OW 4723   0.573   2.732   2.891
 1464SOL    HW1 4724   0.617   2.821   2.882
 1464SOL    HW2 4725   0.510   2.732   2.968
 1465SOL     OW 4726   1.360   2.724   2.907
 1465SOL    HW1 4727   1.285   2.724   2.841
 1465SOL    HW2 4728   1.397   2.632   2.916
 1466SOL     OW 4729   1.209   2.387   2.137
 1466SOL    HW1 4730   1.222   2.303   2.191
 1466SOL    HW2 4731   1.180   2.461   2.197
 1467SOL     OW 4732   0.307   2.075   3.093
 1467SOL    HW1 4733   0.284   2.112   3.183
 1467SOL    HW2 4734   0.277   1.980   3.087
 1468SOL     OW 4735   0.037   3.172   3.144
 1468SOL    HW1 4736   0.090   3.123   3.212
 1468SOL    HW2 4737   0.059   3.270   3.149
 1469SOL     OW 4738   0.732   2.496   2.926
 1469SOL    HW1 4739   0.791   2.470   2.850
 1469SOL    HW2 4740   0.704   2.592   2.915
 1470SOL     OW 4741   1.728   2.797   3.716
 1470SOL    HW1 4742   1.682   2.790   3.627
 1470SOL    HW2 4743   1.666   2.841   3.782
 1471SOL     OW 4744   0.307   1.925   2.480
 1471SOL    HW1 4745   0.296   2.019   2.513
 1471SOL    HW2 4746   0.302   1.862   2.557
 1472SOL     OW 4747   1.622   2.229   2.236
 1472SOL    HW1 4748   1.624   2.153   2.300
 1472SOL    HW2 4749   1.574   2.306   2.276
 1473SOL     OW 4750   1.023   2.628   2.828
 1473SOL    HW1 4751   1.038   2.649   2.924
 1473SOL    HW2 4752   0.993   2.533   2.819
 1474SOL     OW 4753   0.980   3.435   3.562
 1474SOL    HW1 4754   0.960   3.479   3.474
 1474SOL    HW2 4755   1.019   3.344   3.546
 1475SOL     OW 4756   1.859   3.380   3.467
 1475SOL    HW1 4757   1.873   3.407   3.372
 1475SOL    HW2 4758   1.942   3.402   3.520
 1476SOL     OW 4759   0.350   2.760   3.666
 1476SOL    HW1 4760   0.426   2.804   3.714
 1476SOL    HW2 4761   0.385   2.713   3.584
 1477SOL     OW 4762   1.540   2.136   1.987
 1477SOL    HW1 4763   1.479   2.061   2.010
 1477SOL    HW2 4764   1.562   2.188   2.070
 1478SOL     OW 4765   1.303   2.700   1.904
 1478SOL    HW1 4766   1.337   2.607   1.919
 1478SOL    HW2 4767   1.321   2.727   1.809
 1479SOL     OW 4768   1.068   3.195   2.711
 1479SOL    HW1 4769   1.075   3.111   2.656
 1479SOL    HW2 4770   1.130   3.264   2.675
 1480SOL     OW 4771   0.319   2.672   2.811
 1480SOL    HW1 4772   0.412   2.708   2.816
 1480SOL    HW2 4773   0.313   2.587   2.863
 1481SOL     OW 4774   0.339   2.371   2.868
 1481SOL    HW1 4775   0.287   2.288   2.851
 1481SOL    HW2 4776   0.416   2.376   2.804
 1482SOL     OW 4777   1.138   2.242   3.540
 1482SOL    HW1 4778   1.093   2.305   3.604
 1482SOL    HW2 4779   1.231   2.273   3.523
 1483SOL     OW 4780   1.160   2.069   3.339
 1483SOL    HW1 4781   1.160   2.133   3.416
 1483SOL    HW2 4782   1.188   2.117   3.256
 1484SOL     OW 4783   0.008   3.188   2.062
 1484SOL    HW1 4784  -0.085   3.209   2.031
 1484SOL    HW2 4785   0.018   3.089   2.075
 1485SOL     OW 4786   0.088   3.663   2.789
 1485SOL    HW1 4787   0.046   3.577   2.762
 1485SOL    HW2 4788   0.182   3.666   2.755
 1486SOL     OW 4789   0.504   3.430   2.772
 1486SOL    HW1 4790   0.570   3.504   2.781
 1486SOL    HW2 4791   0.548   3.351   2.730
 1487SOL     OW 4792   1.002   2.658   3.100
 1487SOL    HW1 4793   1.043   2.626   3.186
 1487SOL    HW2 4794   0.906   2.631   3.097
 1488SOL     OW 4795   0.040   2.406   2.976
 1488SOL    HW1 4796   0.125   2.373   2.935
 1488SOL    HW2 4797   0.053   2.421   3.074
 1489SOL     OW 4798   0.189   2.382   3.584
 1489SOL    HW1 4799   0.248   2.342   3.514
 1489SOL    HW2 4800   0.131   2.453   3.543
 1490SOL     OW 4801   1.369   2.812   3.522
 1490SOL    HW1 4802   1.408   2.901   3.542
 1490SOL    HW2 4803   1.379   2.792   3.425
 1491SOL     OW 4804   0.815   2.434   2.187
 1491SOL    HW1 4805   0.822   2.345   2.141
 1491SOL    HW2 4806   0.721   2.468   2.179
 1492SOL     OW 4807   1.657   2.466   3.068
 1492SOL    HW1 4808   1.619   2.397   3.130
 1492SOL    HW2 4809   1.739   2.430   3.024
 1493SOL     OW 4810   0.252   3.426   3.606
 1493SOL    HW1 4811   0.222   3.483   3.682
 1493SOL    HW2 4812   0.245   3.329   3.632
 1494SOL     OW 4813   0.671   2.326   3.131
 1494SOL    HW1 4814   0.637   2.237   3.101
 1494SOL    HW2 4815   0.697   2.380   3.051
 1495SOL     OW 4816   0.930   3.540   3.327
 1495SOL    HW1 4817   0.906   3.522   3.232
 1495SOL    HW2 4818   0.960   3.634   3.337
 1496SOL     OW 4819   0.473   2.362   2.053
 1496SOL    HW1 4820   0.534   2.442   2.057
 1496SOL    HW2 4821   0.378   2.393   2.060
 1497SOL     OW 4822   0.159   2.999   3.328
 1497SOL    HW1 4823   0.181   2.938   3.404
 1497SOL    HW2 4824   0.169   2.950   3.242
 1498SOL     OW 4825   1.347   2.921   3.096
 1498SOL    HW1 4826   1.371   2.858   3.022
 1498SOL    HW2 4827   1.257   2.961   3.078
 1499SOL     OW 4828   1.302   2.717   2.171
 1499SOL    HW1 4829   1.216   2.686   2.213
 1499SOL    HW2 4830   1.298   2.703   2.072
 1500SOL     OW 4831   1.759   3.609   3.016
 1500SOL    HW1 4832   1.820   3.639   2.943
 1500SOL    HW2 4833   1.721   3.520   2.994
 1501SOL     OW 4834   1.252   3.593   2.990
 1501SOL    HW1 4835   1.336   3.598   2.936
 1501SOL    HW2 4836   1.229   3.497   3.008
 1502SOL     OW 4837   0.083   3.120   2.884
 1502SOL    HW1 4838   0.078   3.119   2.984
 1502SOL    HW2 4839   0.000   3.079   2.846
 1503SOL     OW 4840   0.688   3.524   3.578
 1503SOL    HW1 4841   0.632   3.605   3.587
 1503SOL    HW2 4842   0.740   3.528   3.492
 1504SOL     OW 4843   1.726   1.997   2.385
 1504SOL    HW1 4844   1.799   1.980   2.318
 1504SOL    HW2 4845   1.695   1.910   2.423
 1505SOL     OW 4846   1.388   3.435   2.339
 1505SOL    HW1 4847   1.455   3.447   2.265
 1505SOL    HW2 4848   1.348   3.524   2.362
 1506SOL     OW 4849   0.130   3.656   3.713
 1506SOL    HW1 4850   0.089   3.582   3.766
 1506SOL    HW2 4851   0.194   3.707   3.771
 1507SOL     OW 4852   1.280   2.789   2.534
 1507SOL    HW1 4853   1.340   2.708   2.536
 1507SOL    HW2 4854   1.320   2.858   2.474
 1508SOL     OW 4855   0.830   3.135   3.284
 1508SOL    HW1 4856   0.825   3.168   3.379
 1508SOL    HW2 4857   0.744   3.154   3.238
 1509SOL     OW 4858   0.672   3.478   2.016
 1509SOL    HW1 4859   0.681   3.488   1.917
 1509SOL    HW2 4860   0.632   3.389   2.037
 1510SOL     OW 4861   1.650   3.582   3.256
 1510SOL    HW1 4862   1.703   3.592   3.172
 1510SOL    HW2 4863   1.623   3.672   3.290
 1511SOL     OW 4864   1.841   2.037   2.825
 1511SOL    HW1 4865   1.880   1.952   2.789
 1511SOL    HW2 4866   1.743   2.039   2.806
 1512SOL     OW 4867   0.263   2.188   2.582
 1512SOL    HW1 4868   0.184   2.239   2.548
 1512SOL    HW2 4869   0.254   2.173   2.680
 1513SOL     OW 4870   1.194   3.474   1.893
 1513SOL    HW1 4871   1.200   3.381   1.930
 1513SOL    HW2 4872   1.135   3.474   1.813
 1514SOL     OW 4873   0.822   2.864   3.234
 1514SOL    HW1 4874   0.862   2.863   3.142
 1514SOL    HW2 4875   0.832   2.956   3.274
 1515SOL     OW 4876   0.916   2.772   2.153
 1515SOL    HW1 4877   0.979   2.810   2.085
 1515SOL    HW2 4878   0.956   2.689   2.192
 1516SOL     OW 4879   1.504   3.469   1.906
 1516SOL    HW1 4880   1.412   3.506   1.913
 1516SOL    HW2 4881   1.542   3.489   1.816
 1517SOL     OW 4882   0.372   3.150   3.352
 1517SOL    HW1 4883   0.359   3.243   3.318
 1517SOL    HW2 4884   0.288   3.098   3.339
 1518SOL     OW 4885   1.614   3.154   3.151
 1518SOL    HW1 4886   1.674   3.157   3.231
 1518SOL    HW2 4887   1.539   3.218   3.164
 1519SOL     OW 4888   1.039   2.960   2.558
 1519SOL    HW1 4889   0.969   2.913   2.612
 1519SOL    HW2 4890   1.098   2.892   2.515
 1520SOL     OW 4891   1.014   2.098   2.833
 1520SOL    HW1 4892   1.006   2.062   2.740
 1520SOL    HW2 4893   1.012   2.022   2.898
 1521SOL     OW 4894   0.590   3.349   2.353
 1521SOL    HW1 4895   0.632   3.291   2.283
 1521SOL    HW2 4896   0.546   3.428   2.309
 1522SOL     OW 4897   1.709   2.247   3.243
 1522SOL    HW1 4898   1.782   2.316   3.247
 1522SOL    HW2 4899   1.737   2.172   3.184
 1523SOL     OW 4900   0.255   3.210   2.152
 1523SOL    HW1 4901   0.159   3.211   2.125
 1523SOL    HW2 4902   0.267   3.263   2.236
 1524SOL     OW 4903   0.105   2.875   3.588
 1524SOL    HW1 4904   0.028   2.842   3.642
 1524SOL    HW2 4905   0.190   2.845   3.630
 1525SOL     OW 4906   0.672   2.065   3.351
 1525SOL    HW1 4907   0.762   2.049   3.311
 1525SOL    HW2 4908   0.680   2.070   3.450
 1526SOL     OW 4909   0.075   2.207   1.895
 1526SOL    HW1 4910  -0.017   2.179   1.866
 1526SOL    HW2 4911   0.106   2.284   1.839
 1527SOL     OW 4912   1.440   2.718   3.260
 1527SOL    HW1 4913   1.383   2.770   3.197
 1527SOL    HW2 4914   1.536   2.730   3.236
 1528SOL     OW 4915   0.072   2.028   2.180
 1528SOL    HW1 4916   0.055   2.111   2.126
 1528SOL    HW2 4917   0.162   1.991   2.158
 1529SOL     OW 4918   1.183   3.197   1.981
 1529SOL    HW1 4919   1.084   3.186   1.983
 1529SOL    HW2 4920   1.217   3.212   2.074
 1530SOL     OW 4921   0.613   2.704   3.293
 1530SOL    HW1 4922   0.669   2.785   3.276
 1530SOL    HW2 4923   0.672   2.624   3.296
 1531SOL     OW 4924   1.493   3.629   2.821
 1531SOL    HW1 4925   1.526   3.693   2.752
 1531SOL    HW2 4926   1.559   3.623   2.896
 1532SOL     OW 4927   0.716   2.427   3.570
 1532SOL    HW1 4928   0.735   2.492   3.644
 1532SOL    HW2 4929   0.776   2.347   3.579
 1533SOL     OW 4930   1.450   3.082   3.495
 1533SOL    HW1 4931   1.441   3.072   3.594
 1533SOL    HW2 4932   1.546   3.075   3.469
 1534SOL     OW 4933   0.390   3.603   3.422
 1534SOL    HW1 4934   0.299   3.644   3.420
 1534SOL    HW2 4935   0.383   3.509   3.454
 1535SOL     OW 4936   1.674   2.745   3.116
 1535SOL    HW1 4937   1.647   2.656   3.079
 1535SOL    HW2 4938   1.675   2.813   3.043
 1536SOL     OW 4939   1.225   2.187   2.311
 1536SOL    HW1 4940   1.290   2.113   2.300
 1536SOL    HW2 4941   1.245   2.237   2.395
 1537SOL     OW 4942   0.594   2.607   2.514
 1537SOL    HW1 4943   0.644   2.692   2.495
 1537SOL    HW2 4944   0.506   2.609   2.466
 1538SOL     OW 4945   1.777   2.204   3.504
 1538SOL    HW1 4946   1.760   2.235   3.410
 1538SOL    HW2 4947   1.693   2.167   3.542
 1539SOL     OW 4948   1.730   2.796   3.379
 1539SOL    HW1 4949   1.768   2.887   3.394
 1539SOL    HW2 4950   1.722   2.779   3.280
 1540SOL     OW 4951   0.859   3.236   1.878
 1540SOL    HW1 4952   0.813   3.251   1.966
 1540SOL    HW2 4953   0.903   3.321   1.848
 1541SOL     OW 4954   0.661   3.652   2.815
 1541SOL    HW1 4955   0.615   3.740   2.802
 1541SOL    HW2 4956   0.760   3.664   2.808
 1542SOL     OW 4957   0.859   2.818   2.723
 1542SOL    HW1 4958   0.913   2.749   2.771
 1542SOL    HW2 4959   0.827   2.887   2.789
 1543SOL     OW 4960   1.083   2.846   1.949
 1543SOL    HW1 4961   1.060   2.899   1.867
 1543SOL    HW2 4962   1.164   2.790   1.930
 1544SOL     OW 4963   1.861   3.431   2.713
 1544SOL    HW1 4964   1.790   3.419   2.643
 1544SOL    HW2 4965   1.862   3.352   2.773
 1545SOL     OW 4966   0.221   3.176   3.706
 1545SOL    HW1 4967   0.156   3.103   3.685
 1545SOL    HW2 4968   0.225   3.190   3.804
 1546SOL     OW 4969   0.079   3.102   2.515
 1546SOL    HW1 4970   0.078   3.055   2.603
 1546SOL    HW2 4971   0.161   3.074   2.464
 1547SOL     OW 4972   0.672   3.253   3.486
 1547SOL    HW1 4973   0.594   3.203   3.524
 1547SOL    HW2 4974   0.669   3.348   3.517
 1548SOL     OW 4975   1.824   2.054   3.089
 1548SOL    HW1 4976   1.820   1.964   3.133
 1548SOL    HW2 4977   1.827   2.043   2.990
 1549SOL     OW 4978   0.428   2.286   2.382
 1549SOL    HW1 4979   0.458   2.214   2.320
 1549SOL    HW2 4980   0.389   2.246   2.465
 1550SOL     OW 4981   1.705   3.349   2.966
 1550SOL    HW1 4982   1.612   3.324   2.939
 1550SOL    HW2 4983   1.731   3.299   3.048
 1551SOL     OW 4984   0.317   2.409   3.142
 1551SOL    HW1 4985   0.355   2.350   3.214
 1551SOL    HW2 4986   0.357   2.383   3.054
 1552SOL     OW 4987   0.812   3.448   2.549
 1552SOL    HW1 4988   0.844   3.458   2.455
 1552SOL    HW2 4989   0.733   3.386   2.551
 1553SOL     OW 4990   1.424   2.076   2.974
 1553SOL    HW1 4991   1.476   2.011   3.029
 1553SOL    HW2 4992   1.375   2.139   3.035
 1554SOL     OW 4993   1.001   1.896   3.016
 1554SOL    HW1 4994   0.938   1.824   2.985
 1554SOL    HW2 4995   1.094   1.860   3.016
 1555SOL     OW 4996   0.770   3.192   2.163
 1555SOL    HW1 4997   0.724   3.105   2.180
 1555SOL    HW2 4998   0.861   3.189   2.204
 1556SOL     OW 4999   0.618   3.429   3.146
 1556SOL    HW1 5000   0.613   3.511   3.203
 1556SOL    HW2 5001   0.707   3.426   3.101
 1557SOL     OW 5002   1.352   1.914   2.030
 1557SOL    HW1 5003   1.387   1.873   1.946
 1557SOL    HW2 5004   1.262   1.876   2.050
 1558SOL     OW 5005   1.300   2.315   2.553
 1558SOL    HW1 5006   1.241   2.395   2.557
 1558SOL    HW2 5007   1.315   2.280   2.646
 1559SOL     OW 5008   1.593   2.083   2.744
 1559SOL    HW1 5009   1.509   2.082   2.798
 1559SOL    HW2 5010   1.595   2.166   2.688
 1560SOL     OW 5011   0.039   2.939   2.162
 1560SOL    HW1 5012   0.138   2.928   2.153
 1560SOL    HW2 5013  -0.001   2.853   2.194
 1561SOL     OW 5014   0.875   3.508   2.199
 1561SOL    HW1 5015   0.798   3.473   2.145
 1561SOL    HW2 5016   0.843   3.579   2.261
 1562SOL     OW 5017   0.230   2.490   3.837
 1562SOL    HW1 5018   0.137   2.488   3.874
 1562SOL    HW2 5019   0.231   2.451   3.745
 1563SOL     OW 5020   0.225   2.137   4.720
 1563SOL    HW1 5021   0.260   2.120   4.812
 1563SOL    HW2 5022   0.137   2.092   4.708
 1564SOL     OW 5023   0.019   2.230   4.371
 1564SOL    HW1 5024  -0.063   2.273   4.410
 1564SOL    HW2 5025  -0.009   2.157   4.308
 1565SOL     OW 5026   0.569   3.137   4.889
 1565SOL    HW1 5027   0.476   3.130   4.852
 1565SOL    HW2 5028   0.580   3.226   4.933
 1566SOL     OW 5029   1.555   3.373   4.427
 1566SOL    HW1 5030   1.498   3.357   4.508
 1566SOL    HW2 5031   1.496   3.383   4.347
 1567SOL     OW 5032   1.135   2.565   4.441
 1567SOL    HW1 5033   1.192   2.643   4.416
 1567SOL    HW2 5034   1.075   2.591   4.517
 1568SOL     OW 5035   1.755   2.469   3.955
 1568SOL    HW1 5036   1.743   2.456   3.856
 1568SOL    HW2 5037   1.725   2.388   4.004
 1569SOL     OW 5038   0.768   3.006   4.747
 1569SOL    HW1 5039   0.690   3.023   4.807
 1569SOL    HW2 5040   0.802   3.093   4.711
 1570SOL     OW 5041   0.850   2.660   5.547
 1570SOL    HW1 5042   0.846   2.736   5.612
 1570SOL    HW2 5043   0.872   2.696   5.456
 1571SOL     OW 5044   0.685   2.874   4.389
 1571SOL    HW1 5045   0.754   2.858   4.459
 1571SOL    HW2 5046   0.612   2.931   4.427
 1572SOL     OW 5047   0.686   3.023   5.527
 1572SOL    HW1 5048   0.746   3.102   5.541
 1572SOL    HW2 5049   0.600   3.054   5.486
 1573SOL     OW 5050   0.335   3.297   4.785
 1573SOL    HW1 5051   0.257   3.266   4.732
 1573SOL    HW2 5052   0.393   3.355   4.728
 1574SOL     OW 5053   1.460   3.367   5.063
 1574SOL    HW1 5054   1.484   3.461   5.089
 1574SOL    HW2 5055   1.444   3.313   5.145
 1575SOL     OW 5056   0.438   2.254   5.223
 1575SOL    HW1 5057   0.520   2.198   5.232
 1575SOL    HW2 5058   0.357   2.196   5.227
 1576SOL     OW 5059   1.603   2.309   4.461
 1576SOL    HW1 5060   1.529   2.355   4.411
 1576SOL    HW2 5061   1.654   2.377   4.514
 1577SOL     OW 5062   0.231   3.575   4.207
 1577SOL    HW1 5063   0.265   3.652   4.261
 1577SOL    HW2 5064   0.275   3.575   4.117
 1578SOL     OW 5065   1.127   3.203   5.414
 1578SOL    HW1 5066   1.174   3.203   5.502
 1578SOL    HW2 5067   1.079   3.116   5.403
 1579SOL     OW 5068   0.230   3.296   4.262
 1579SOL    HW1 5069   0.204   3.392   4.262
 1579SOL    HW2 5070   0.159   3.242   4.307
 1580SOL     OW 5071   0.240   2.953   4.610
 1580SOL    HW1 5072   0.254   2.869   4.662
 1580SOL    HW2 5073   0.185   3.017   4.665
 1581SOL     OW 5074   0.620   3.648   5.163
 1581SOL    HW1 5075   0.528   3.631   5.198
 1581SOL    HW2 5076   0.648   3.740   5.189
 1582SOL     OW 5077   0.606   2.826   3.847
 1582SOL    HW1 5078   0.613   2.910   3.793
 1582SOL    HW2 5079   0.652   2.839   3.935
 1583SOL     OW 5080   1.594   1.976   5.204
 1583SOL    HW1 5081   1.576   2.043   5.132
 1583SOL    HW2 5082   1.591   2.022   5.293
 1584SOL     OW 5083   0.122   2.505   4.287
 1584SOL    HW1 5084   0.077   2.417   4.304
 1584SOL    HW2 5085   0.121   2.559   4.371
 1585SOL     OW 5086   1.842   3.629   4.083
 1585SOL    HW1 5087   1.896   3.600   4.163
 1585SOL    HW2 5088   1.872   3.719   4.054
 1586SOL     OW 5089   0.027   3.458   3.841
 1586SOL    HW1 5090   0.008   3.362   3.862
 1586SOL    HW2 5091  -0.006   3.516   3.916
 1587SOL     OW 5092   1.689   2.784   4.336
 1587SOL    HW1 5093   1.784   2.755   4.344
 1587SOL    HW2 5094   1.681   2.849   4.261
 1588SOL     OW 5095   1.641   2.970   4.156
 1588SOL    HW1 5096   1.727   2.972   4.104
 1588SOL    HW2 5097   1.655   3.017   4.244
 1589SOL     OW 5098   0.113   2.599   5.321
 1589SOL    HW1 5099   0.201   2.586   5.366
 1589SOL    HW2 5100   0.100   2.696   5.299
 1590SOL     OW 5101   0.613   3.227   4.450
 1590SOL    HW1 5102   0.564   3.140   4.459
 1590SOL    HW2 5103   0.590   3.270   4.363
 1591SOL     OW 5104   1.293   3.090   5.147
 1591SOL    HW1 5105   1.330   3.017   5.089
 1591SOL    HW2 5106   1.345   3.095   5.232
 1592SOL     OW 5107   0.809   1.866   4.226
 1592SOL    HW1 5108   0.849   1.957   4.217
 1592SOL    HW2 5109   0.709   1.874   4.232
 1593SOL     OW 5110   0.197   2.838   4.988
 1593SOL    HW1 5111   0.286   2.793   4.974
 1593SOL    HW2 5112   0.124   2.773   4.969
 1594SOL     OW 5113   1.525   2.861   3.914
 1594SOL    HW1 5114   1.462   2.785   3.927
 1594SOL    HW2 5115   1.573   2.879   4.000
 1595SOL     OW 5116   1.187   3.654   5.340
 1595SOL    HW1 5117   1.211   3.714   5.264
 1595SOL    HW2 5118   1.194   3.559   5.310
 1596SOL     OW 5119   0.317   2.113   5.525
 1596SOL    HW1 5120   0.388   2.184   5.531
 1596SOL    HW2 5121   0.229   2.152   5.553
 1597SOL     OW 5122   1.466   3.279   4.677
 1597SOL    HW1 5123   1.407   3.285   4.757
 1597SOL    HW2 5124   1.451   3.191   4.631
 1598SOL     OW 5125   1.667   3.576   4.296
 1598SOL    HW1 5126   1.626   3.553   4.208
 1598SOL    HW2 5127   1.649   3.502   4.361
 1599SOL     OW 5128   0.598   2.591   3.994
 1599SOL    HW1 5129   0.622   2.660   3.926
 1599SOL    HW2 5130   0.520   2.624   4.048
 1600SOL     OW 5131   1.281   2.207   4.668
 1600SOL    HW1 5132   1.195   2.157   4.655
 1600SOL    HW2 5133   1.343   2.153   4.724
 1601SOL     OW 5134   1.576   3.524   4.031
 1601SOL    HW1 5135   1.665   3.570   4.034
 1601SOL    HW2 5136   1.555   3.500   3.936
 1602SOL     OW 5137   0.807   2.467   5.189
 1602SOL    HW1 5138   0.760   2.464   5.278
 1602SOL    HW2 5139   0.756   2.412   5.123
 1603SOL     OW 5140   1.394   2.331   5.398
 1603SOL    HW1 5141   1.374   2.374   5.486
 1603SOL    HW2 5142   1.472   2.269   5.407
 1604SOL     OW 5143   0.973   2.752   5.296
 1604SOL    HW1 5144   1.019   2.668   5.267
 1604SOL    HW2 5145   0.917   2.786   5.221
 1605SOL     OW 5146   0.991   2.272   4.966
 1605SOL    HW1 5147   0.914   2.306   5.020
 1605SOL    HW2 5148   0.957   2.221   4.887
 1606SOL     OW 5149   1.041   2.563   4.153
 1606SOL    HW1 5150   1.067   2.559   4.249
 1606SOL    HW2 5151   0.956   2.512   4.139
 1607SOL     OW 5152   0.076   2.673   4.513
 1607SOL    HW1 5153   0.175   2.661   4.522
 1607SOL    HW2 5154   0.052   2.768   4.534
 1608SOL     OW 5155   0.130   3.683   5.295
 1608SOL    HW1 5156   0.120   3.668   5.394
 1608SOL    HW2 5157   0.044   3.719   5.259
 1609SOL     OW 5158   0.865   2.210   3.919
 1609SOL    HW1 5159   0.924   2.273   3.870
 1609SOL    HW2 5160   0.884   2.116   3.890
 1610SOL     OW 5161   1.719   2.447   5.555
 1610SOL    HW1 5162   1.693   2.536   5.519
 1610SOL    HW2 5163   1.717   2.379   5.482
 1611SOL     OW 5164   1.362   3.006   4.269
 1611SOL    HW1 5165   1.445   2.977   4.221
 1611SOL    HW2 5166   1.313   3.073   4.213
 1612SOL     OW 5167   0.550   2.058   4.609
 1612SOL    HW1 5168   0.545   2.053   4.709
 1612SOL    HW2 5169   0.552   2.154   4.580
 1613SOL     OW 5170   1.008   3.318   4.201
 1613SOL    HW1 5171   0.962   3.390   4.149
 1613SOL    HW2 5172   1.004   3.338   4.299
 1614SOL     OW 5173   0.351   3.663   4.577
 1614SOL    HW1 5174   0.401   3.577   4.583
 1614SOL    HW2 5175   0.416   3.740   4.574
 1615SOL     OW 5176   1.795   2.928   4.597
 1615SOL    HW1 5177   1.733   2.913   4.521
 1615SOL    HW2 5178   1.743   2.939   4.682
 1616SOL     OW 5179   1.227   3.412   5.230
 1616SOL    HW1 5180   1.233   3.335   5.294
 1616SOL    HW2 5181   1.175   3.386   5.150
 1617SOL     OW 5182   0.321   2.805   3.966
 1617SOL    HW1 5183   0.403   2.844   3.924
 1617SOL    HW2 5184   0.294   2.723   3.917
 1618SOL     OW 5185   1.458   2.597   4.452
 1618SOL    HW1 5186   1.453   2.532   4.527
 1618SOL    HW2 5187   1.538   2.656   4.465
 1619SOL     OW 5188   0.461   3.128   5.451
 1619SOL    HW1 5189   0.411   3.129   5.365
 1619SOL    HW2 5190   0.398   3.110   5.527
 1620SOL     OW 5191   1.111   3.638   3.961
 1620SOL    HW1 5192   1.051   3.576   4.011
 1620SOL    HW2 5193   1.142   3.594   3.876
 1621SOL     OW 5194   0.202   2.147   5.222
 1621SOL    HW1 5195   0.122   2.207   5.209
 1621SOL    HW2 5196   0.192   2.098   5.308
 1622SOL     OW 5197   1.632   3.239   3.805
 1622SOL    HW1 5198   1.600   3.333   3.795
 1622SOL    HW2 5199   1.556   3.176   3.793
 1623SOL     OW 5200   0.464   3.605   4.047
 1623SOL    HW1 5201   0.497   3.644   4.133
 1623SOL    HW2 5202   0.540   3.598   3.982
 1624SOL     OW 5203   1.400   1.969   4.150
 1624SOL    HW1 5204   1.376   1.932   4.060
 1624SOL    HW2 5205   1.499   1.985   4.154
 1625SOL     OW 5206   0.249   3.647   4.965
 1625SOL    HW1 5207   0.306   3.582   5.015
 1625SOL    HW2 5208   0.233   3.614   4.872
 1626SOL     OW 5209   0.940   3.560   4.628
 1626SOL    HW1 5210   1.020   3.503   4.649
 1626SOL    HW2 5211   0.891   3.520   4.551
 1627SOL     OW 5212   0.382   2.562   4.204
 1627SOL    HW1 5213   0.427   2.472   4.201
 1627SOL    HW2 5214   0.288   2.551   4.237
 1628SOL     OW 5215   1.547   2.084   5.453
 1628SOL    HW1 5216   1.542   2.121   5.545
 1628SOL    HW2 5217   1.475   2.015   5.441
 1629SOL     OW 5218   0.614   1.984   3.841
 1629SOL    HW1 5219   0.712   1.962   3.848
 1629SOL    HW2 5220   0.583   1.967   3.748
 1630SOL     OW 5221   0.781   2.126   5.473
 1630SOL    HW1 5222   0.848   2.065   5.516
 1630SOL    HW2 5223   0.708   2.145   5.538
 1631SOL     OW 5224   0.888   3.376   4.919
 1631SOL    HW1 5225   0.865   3.351   4.825
 1631SOL    HW2 5226   0.949   3.307   4.958
 1632SOL     OW 5227   1.351   2.452   5.157
 1632SOL    HW1 5228   1.379   2.409   5.242
 1632SOL    HW2 5229   1.376   2.548   5.158
 1633SOL     OW 5230   0.803   3.264   4.648
 1633SOL    HW1 5231   0.893   3.278   4.606
 1633SOL    HW2 5232   0.732   3.266   4.577
 1634SOL     OW 5233   0.922   2.365   4.623
 1634SOL    HW1 5234   0.897   2.356   4.527
 1634SOL    HW2 5235   0.970   2.283   4.654
 1635SOL     OW 5236   0.539   1.926   4.236
 1635SOL    HW1 5237   0.458   1.927   4.294
 1635SOL    HW2 5238   0.542   2.009   4.181
 1636SOL     OW 5239   1.434   3.050   3.765
 1636SOL    HW1 5240   1.466   2.974   3.822
 1636SOL    HW2 5241   1.342   3.077   3.795
 1637SOL     OW 5242   0.297   1.897   3.895
 1637SOL    HW1 5243   0.346   1.981   3.874
 1637SOL    HW2 5244   0.359   1.832   3.940
 1638SOL     OW 5245   0.935   2.098   4.204
 1638SOL    HW1 5246   0.887   2.139   4.126
 1638SOL    HW2 5247   1.034   2.096   4.185
 1639SOL     OW 5248   1.076   2.545   5.188
 1639SOL    HW1 5249   0.996   2.484   5.191
 1639SOL    HW2 5250   1.157   2.492   5.164
 1640SOL     OW 5251   1.227   3.432   4.517
 1640SOL    HW1 5252   1.248   3.506   4.452
 1640SOL    HW2 5253   1.295   3.432   4.590
 1641SOL     OW 5254   0.459   3.014   4.465
 1641SOL    HW1 5255   0.388   2.987   4.530
 1641SOL    HW2 5256   0.433   2.986   4.372
 1642SOL     OW 5257   1.271   3.659   4.315
 1642SOL    HW1 5258   1.315   3.723   4.251
 1642SOL    HW2 5259   1.221   3.711   4.385
 1643SOL     OW 5260   1.032   2.411   3.740
 1643SOL    HW1 5261   0.991   2.493   3.701
 1643SOL    HW2 5262   1.096   2.437   3.813
 1644SOL     OW 5263   0.078   2.418   5.110
 1644SOL    HW1 5264   0.170   2.417   5.069
 1644SOL    HW2 5265   0.072   2.492   5.177
 1645SOL     OW 5266   0.561   2.084   4.871
 1645SOL    HW1 5267   0.599   2.000   4.908
 1645SOL    HW2 5268   0.473   2.103   4.915
 1646SOL     OW 5269   0.866   2.316   4.366
 1646SOL    HW1 5270   0.834   2.388   4.304
 1646SOL    HW2 5271   0.890   2.235   4.313
 1647SOL     OW 5272   1.017   1.901   4.477
 1647SOL    HW1 5273   0.945   1.906   4.408
 1647SOL    HW2 5274   0.993   1.832   4.546
 1648SOL     OW 5275   1.429   3.035   4.591
 1648SOL    HW1 5276   1.374   2.951   4.584
 1648SOL    HW2 5277   1.455   3.064   4.499
 1649SOL     OW 5278   1.466   2.452   4.716
 1649SOL    HW1 5279   1.436   2.357   4.723
 1649SOL    HW2 5280   1.539   2.468   4.782
 1650SOL     OW 5281   1.857   2.695   4.101
 1650SOL    HW1 5282   1.899   2.631   4.165
 1650SOL    HW2 5283   1.819   2.644   4.023
 1651SOL     OW 5284   0.488   3.247   3.898
 1651SOL    HW1 5285   0.401   3.232   3.945
 1651SOL    HW2 5286   0.471   3.273   3.803
 1652SOL     OW 5287   1.664   3.142   4.381
 1652SOL    HW1 5288   1.763   3.150   4.395
 1652SOL    HW2 5289   1.619   3.226   4.412
 1653SOL     OW 5290   1.390   2.437   3.802
 1653SOL    HW1 5291   1.336   2.416   3.883
 1653SOL    HW2 5292   1.481   2.396   3.811
 1654SOL     OW 5293   0.527   2.118   4.052
 1654SOL    HW1 5294   0.554   2.059   3.977
 1654SOL    HW2 5295   0.527   2.213   4.021
 1655SOL     OW 5296   1.754   3.085   5.312
 1655SOL    HW1 5297   1.845   3.046   5.299
 1655SOL    HW2 5298   1.762   3.181   5.336
 1656SOL     OW 5299   1.064   3.209   5.064
 1656SOL    HW1 5300   0.984   3.186   5.119
 1656SOL    HW2 5301   1.147   3.183   5.113
 1657SOL     OW 5302   1.592   3.491   5.349
 1657SOL    HW1 5303   1.619   3.525   5.259
 1657SOL    HW2 5304   1.671   3.453   5.395
 1658SOL     OW 5305   1.111   3.057   4.824
 1658SOL    HW1 5306   1.071   3.101   4.905
 1658SOL    HW2 5307   1.070   3.094   4.741
 1659SOL     OW 5308   1.638   2.961   4.803
 1659SOL    HW1 5309   1.643   3.042   4.862
 1659SOL    HW2 5310   1.552   2.963   4.752
 1660SOL     OW 5311   0.915   1.951   5.126
 1660SOL    HW1 5312   0.940   1.931   5.031
 1660SOL    HW2 5313   0.987   2.007   5.168
 1661SOL     OW 5314   0.980   2.978   5.443
 1661SOL    HW1 5315   0.881   2.984   5.453
 1661SOL    HW2 5316   1.003   2.898   5.387
 1662SOL     OW 5317   0.705   2.912   4.092
 1662SOL    HW1 5318   0.691   2.919   4.191
 1662SOL    HW2 5319   0.789   2.861   4.074
 1663SOL     OW 5320   0.410   2.675   4.975
 1663SOL    HW1 5321   0.496   2.687   5.025
 1663SOL    HW2 5322   0.368   2.588   5.002
 1664SOL     OW 5323   1.274   2.248   4.986
 1664SOL    HW1 5324   1.295   2.322   5.050
 1664SOL    HW2 5325   1.185   2.265   4.943
 1665SOL     OW 5326   0.064   3.426   5.055
 1665SOL    HW1 5327   0.018   3.508   5.021
 1665SOL    HW2 5328   0.162   3.445   5.064
 1666SOL     OW 5329   0.367   2.962   4.225
 1666SOL    HW1 5330   0.360   3.045   4.169
 1666SOL    HW2 5331   0.371   2.882   4.165
 1667SOL     OW 5332   0.566   2.399   4.589
 1667SOL    HW1 5333   0.578   2.465   4.515
 1667SOL    HW2 5334   0.612   2.433   4.672
 1668SOL     OW 5335   1.252   3.210   4.112
 1668SOL    HW1 5336   1.302   3.287   4.152
 1668SOL    HW2 5337   1.157   3.212   4.144
 1669SOL     OW 5338   1.272   3.307   4.866
 1669SOL    HW1 5339   1.319   3.320   4.953
 1669SOL    HW2 5340   1.206   3.233   4.875
 1670SOL     OW 5341   1.582   2.501   4.196
 1670SOL    HW1 5342   1.551   2.562   4.269
 1670SOL    HW2 5343   1.632   2.553   4.127
 1671SOL     OW 5344   0.354   3.372   5.053
 1671SOL    HW1 5345   0.333   3.328   4.966
 1671SOL    HW2 5346   0.451   3.398   5.056
 1672SOL     OW 5347   0.402   2.613   5.322
 1672SOL    HW1 5348   0.470   2.668   5.275
 1672SOL    HW2 5349   0.442   2.525   5.349
 1673SOL     OW 5350   1.587   2.641   5.394
 1673SOL    HW1 5351   1.495   2.679   5.389
 1673SOL    HW2 5352   1.647   2.688   5.329
 1674SOL     OW 5353   1.013   1.967   5.494
 1674SOL    HW1 5354   1.019   2.052   5.442
 1674SOL    HW2 5355   1.045   1.891   5.437
 1675SOL     OW 5356   0.504   1.912   5.464
 1675SOL    HW1 5357   0.462   1.855   5.394
 1675SOL    HW2 5358   0.438   1.981   5.496
 1676SOL     OW 5359   0.573   2.732   4.753
 1676SOL    HW1 5360   0.617   2.821   4.744
 1676SOL    HW2 5361   0.510   2.732   4.830
 1677SOL     OW 5362   1.360   2.724   4.769
 1677SOL    HW1 5363   1.285   2.724   4.703
 1677SOL    HW2 5364   1.397   2.632   4.778
 1678SOL     OW 5365   1.209   2.387   3.999
 1678SOL    HW1 5366   1.222   2.303   4.053
 1678SOL    HW2 5367   1.180   2.461   4.059
 1679SOL     OW 5368   0.307   2.075   4.955
 1679SOL    HW1 5369   0.284   2.112   5.045
 1679SOL    HW2 5370   0.277   1.980   4.949
 1680SOL     OW 5371   0.037   3.172   5.006
 1680SOL    HW1 5372   0.090   3.123   5.074
 1680SOL    HW2 5373   0.059   3.270   5.011
 1681SOL     OW 5374   0.732   2.496   4.788
 1681SOL    HW1 5375   0.791   2.470   4.712
 1681SOL    HW2 5376   0.704   2.592   4.777
 1682SOL     OW 5377   1.728   2.797   5.578
 1682SOL    HW1 5378   1.682   2.790   5.489
 1682SOL    HW2 5379   1.666   2.841   5.644
 1683SOL     OW 5380   0.307   1.925   4.342
 1683SOL    HW1 5381   0.296   2.019   4.375
 1683SOL    HW2 5382   0.302   1.862   4.419
 1684SOL     OW 5383   1.622   2.229   4.098
 1684SOL    HW1 5384   1.624   2.153   4.162
 1684SOL    HW2 5385   1.574   2.306   4.138
 1685SOL     OW 5386   1.023   2.628   4.690
 1685SOL    HW1 5387   1.038   2.649   4.786
 1685SOL    HW2 5388   0.993   2.533   4.681
 1686SOL     OW 5389   0.980   3.435   5.424
 1686SOL    HW1 5390   0.960   3.479   5.336
 1686SOL    HW2 5391   1.019   3.344   5.408
 1687SOL     OW 5392   1.859   3.380   5.329
 1687SOL    HW1 5393   1.873   3.407   5.234
 1687SOL    HW2 5394   1.942   3.402   5.382
 1688SOL     OW 5395   0.350   2.760   5.528
 1688SOL    HW1 5396   0.426   2.804   5.576
 1688SOL    HW2 5397   0.385   2.713   5.446
 1689SOL     OW 5398   1.540   2.136   3.849
 1689SOL    HW1 5399   1.479   2.061   3.872
 1689SOL    HW2 5400   1.562   2.188   3.932
 1690SOL     OW 5401   1.303   2.700   3.766
 1690SOL    HW1 5402   1.337   2.607   3.781
 1690SOL    HW2 5403   1.321   2.727   3.671
 1691SOL     OW 5404   1.068   3.195   4.573
 1691SOL    HW1 5405   1.075   3.111   4.518
 1691SOL    HW2 5406   1.130   3.264   4.537
 1692SOL     OW 5407   0.319   2.672   4.673
 1692SOL    HW1 5408   0.412   2.708   4.678
 1692SOL    HW2 5409   0.313   2.587   4.725
 1693SOL     OW 5410   0.339   2.371   4.730
 1693SOL    HW1 5411   0.287   2.288   4.713
 1693SOL    HW2 5412   0.416   2.376   4.666
 1694SOL     OW 5413   1.138   2.242   5.402
 1694SOL    HW1 5414   1.093   2.305   5.466
 1694SOL    HW2 5415   1.231   2.273   5.385
 1695SOL     OW 5416   1.160   2.069   5.201
 1695SOL    HW1 5417   1.160   2.133   5.278
 1695SOL    HW2 5418   1.188   2.117   5.118
 1696SOL     OW 5419   0.008   3.188   3.924
 1696SOL    HW1 5420  -0.085   3.209   3.893
 1696SOL    HW2 5421   0.018   3.089   3.937
 1697SOL     OW 5422   0.088   3.663   4.651
 1697SOL    HW1 5423   0.046   3.577   4.624
 1697SOL    HW2 5424   0.182   3.666   4.617
 1698SOL     OW 5425   0.504   3.430   4.634
 1698SOL    HW1 5426   0.570   3.504   4.643
 1698SOL    HW2 5427   0.548   3.351   4.592
 1699SOL     OW 5428   1.002   2.658   4.962
 1699SOL    HW1 5429   1.043   2.626   5.048
 1699SOL    HW2 5430   0.906   2.631   4.959
 1700SOL     OW 5431   0.040   2.406   4.838
 1700SOL    HW1 5432   0.125   2.373   4.797
 1700SOL    HW2 5433   0.053   2.421   4.936
 1701SOL     OW 5434   0.189   2.382   5.446
 1701SOL    HW1 5435   0.248   2.342   5.376
 1701SOL    HW2 5436   0.131   2.453   5.405
 1702SOL     OW 5437   1.369   2.812   5.384
 1702SOL    HW1 5438   1.408   2.901   5.404
 1702SOL    HW2 5439   1.379   2.792   5.287
 1703SOL     OW 5440   0.815   2.434   4.049
 1703SOL    HW1 5441   0.822   2.345   4.003
 1703SOL    HW2 5442   0.721   2.468   4.041
 1704SOL     OW 5443   0.252   3.426   5.468
 1704SOL    HW1 5444   0.222   3.483   5.544
 1704SOL    HW2 5445   0.245   3.329   5.494
 1705SOL     OW 5446   0.671   2.326   4.993
 1705SOL    HW1 5447   0.637   2.237   4.963
 1705SOL    HW2 5448   0.697   2.380   4.913
 1706SOL     OW 5449   0.930   3.540   5.189
 1706SOL    HW1 5450   0.906   3.522   5.094
 1706SOL    HW2 5451   0.960   3.634   5.199
 1707SOL     OW 5452   0.473   2.362   3.915
 1707SOL    HW1 5453   0.534   2.442   3.919
 1707SOL    HW2 5454   0.378   2.393   3.922
 1708SOL     OW 5455   0.159   2.999   5.190
 1708SOL    HW1 5456   0.181   2.938   5.266
 1708SOL    HW2 5457   0.169   2.950   5.104
 1709SOL     OW 5458   1.347   2.921   4.958
 1709SOL    HW1 5459   1.371   2.858   4.884
 1709SOL    HW2 5460   1.257   2.961   4.940
 1710SOL     OW 5461   1.302   2.717   4.033
 1710SOL    HW1 5462   1.216   2.686   4.075
 1710SOL    HW2 5463   1.298   2.703   3.934
 1711SOL     OW 5464   1.759   3.609   4.878
 1711SOL    HW1 5465   1.820   3.639   4.805
 1711SOL    HW2 5466   1.721   3.520   4.856
 1712SOL     OW 5467   1.252   3.593   4.852
 1712SOL    HW1 5468   1.336   3.598   4.798
 1712SOL    HW2 5469   1.229   3.497   4.870
 1713SOL     OW 5470   0.083   3.120   4.746
 1713SOL    HW1 5471   0.078   3.119   4.846
 1713SOL    HW2 5472   0.000   3.079   4.708
 1714SOL     OW 5473   0.688   3.524   5.440
 1714SOL    HW1 5474   0.632   3.605   5.449
 1714SOL    HW2 5475   0.740   3.528   5.354
 1715SOL     OW 5476   1.726   1.997   4.247
 1715SOL    HW1 5477   1.799   1.980   4.180
 1715SOL    HW2 5478   1.695   1.910   4.285
 1716SOL     OW 5479   1.388   3.435   4.201
 1716SOL    HW1 5480   1.455   3.447   4.127
 1716SOL    HW2 5481   1.348   3.524   4.224
 1717SOL     OW 5482   0.130   3.656   5.575
 1717SOL    HW1 5483   0.089   3.582   5.628
 1717SOL    HW2 5484   0.194   3.707   5.633
 1718SOL     OW 5485   1.280   2.789   4.396
 1718SOL    HW1 5486   1.340   2.708   4.398
 1718SOL    HW2 5487   1.320   2.858   4.336
 1719SOL     OW 5488   0.830   3.135   5.146
 1719SOL    HW1 5489   0.825   3.168   5.241
 1719SOL    HW2 5490   0.744   3.154   5.100
 1720SOL     OW 5491   0.672   3.478   3.878
 1720SOL    HW1 5492   0.681   3.488   3.779
 1720SOL    HW2 5493   0.632   3.389   3.899
 1721SOL     OW 5494   1.650   3.582   5.118
 1721SOL    HW1 5495   1.703   3.592   5.034
 1721SOL    HW2 5496   1.623   3.672   5.152
 1722SOL     OW 5497   0.263   2.188   4.444
 1722SOL    HW1 5498   0.184   2.239   4.410
 1722SOL    HW2 5499   0.254   2.173   4.542
 1723SOL     OW 5500   1.194   3.474   3.755
 1723SOL    HW1 5501   1.200   3.381   3.792
 1723SOL    HW2 5502   1.135   3.474   3.675
 1724SOL     OW 5503   0.822   2.864   5.096
 1724SOL    HW1 5504   0.862   2.863   5.004
 1724SOL    HW2 5505   0.832   2.956   5.136
 1725SOL     OW 5506   0.916   2.772   4.015
 1725SOL    HW1 5507   0.979   2.810   3.947
 1725SOL    HW2 5508   0.956   2.689   4.054
 1726SOL     OW 5509   1.504   3.469   3.768
 1726SOL    HW1 5510   1.412   3.506   3.775
 1726SOL    HW2 5511   1.542   3.489   3.678
 1727SOL     OW 5512   0.372   3.150   5.214
 1727SOL    HW1 5513   0.359   3.243   5.180
 1727SOL    HW2 5514   0.288   3.098   5.201
 1728SOL     OW 5515   1.614   3.154   5.013
 1728SOL    HW1 5516   1.674   3.157   5.093
 1728SOL    HW2 5517   1.539   3.218   5.026
 1729SOL     OW 5518   1.039   2.960   4.420
 1729SOL    HW1 5519   0.969   2.913   4.474
 1729SOL    HW2 5520   1.098   2.892   4.377
 1730SOL     OW 5521   1.014   2.098   4.695
 1730SOL    HW1 5522   1.006   2.062   4.602
 1730SOL    HW2 5523   1.012   2.022   4.760
 1731SOL     OW 5524   0.590   3.349   4.215
 1731SOL    HW1 5525   0.632   3.291   4.145
 1731SOL    HW2 5526   0.546   3.428   4.171
 1732SOL     OW 5527   0.255   3.210   4.014
 1732SOL    HW1 5528   0.159   3.211   3.987
 1732SOL    HW2 5529   0.267   3.263   4.098
 1733SOL     OW 5530   0.105   2.875   5.450
 1733SOL    HW1 5531   0.028   2.842   5.504
 1733SOL    HW2 5532   0.190   2.845   5.492
 1734SOL     OW 5533   0.672   2.065   5.213
 1734SOL    HW1 5534   0.762   2.049   5.173
 1734SOL    HW2 5535   0.680   2.070   5.312
 1735SOL     OW 5536   0.075   2.207   3.757
 1735SOL    HW1 5537  -0.017   2.179   3.728
 1735SOL    HW2 5538   0.106   2.284   3.701
 1736SOL     OW 5539   1.440   2.718   5.122
 1736SOL    HW1 5540   1.383   2.770   5.059
 1736SOL    HW2 5541   1.536   2.730   5.098
 1737SOL     OW 5542   0.072   2.028   4.042
 1737SOL    HW1 5543   0.055   2.111   3.988
 1737SOL    HW2 5544   0.162   1.991   4.020
 1738SOL     OW 5545   1.183   3.197   3.843
 1738SOL    HW1 5546   1.084   3.186   3.845
 1738SOL    HW2 5547   1.217   3.212   3.936
 1739SOL     OW 5548   0.613   2.704   5.155
 1739SOL    HW1 5549   0.669   2.785   5.138
 1739SOL    HW2 5550   0.672   2.624   5.158
 1740SOL     OW 5551   1.493   3.629   4.683
 1740SOL    HW1 5552   1.526   3.693   4.614
 1740SOL    HW2 5553   1.559   3.623   4.758
 1741SOL     OW 5554   0.716   2.427   5.432
 1741SOL    HW1 5555   0.735   2.492   5.506
 1741SOL    HW2 5556   0.776   2.347   5.441
 1742SOL     OW 5557   1.450   3.082   5.357
 1742SOL    HW1 5558   1.441   3.072   5.456
 1742SOL    HW2 5559   1.546   3.075   5.331
 1743SOL     OW 5560   0.390   3.603   5.284
 1743SOL    HW1 5561   0.299   3.644   5.282
 1743SOL    HW2 5562   0.383   3.509   5.316
 1744SOL     OW 5563   1.674   2.745   4.978
 1744SOL    HW1 5564   1.647   2.656   4.941
 1744SOL    HW2 5565   1.675   2.813   4.905
 1745SOL     OW 5566   1.225   2.187   4.173
 1745SOL    HW1 5567   1.290   2.113   4.162
 1745SOL    HW2 5568   1.245   2.237   4.257
 1746SOL     OW 5569   0.594   2.607   4.376
 1746SOL    HW1 5570   0.644   2.692   4.357
 1746SOL    HW2 5571   0.506   2.609   4.328
 1747SOL     OW 5572   0.859   3.236   3.740
 1747SOL    HW1 5573   0.813   3.251   3.828
 1747SOL    HW2 5574   0.903   3.321   3.710
 1748SOL     OW 5575   0.661   3.652   4.677
 1748SOL    HW1 5576   0.615   3.740   4.664
 1748SOL    HW2 5577   0.760   3.664   4.670
 1749SOL     OW 5578   0.859   2.818   4.585
 1749SOL    HW1 5579   0.913   2.749   4.633
 1749SOL    HW2 5580   0.827   2.887   4.651
 1750SOL     OW 5581   1.083   2.846   3.811
 1750SOL    HW1 5582   1.060   2.899   3.729
 1750SOL    HW2 5583   1.164   2.790   3.792
 1751SOL     OW 5584   1.861   3.431   4.575
 1751SOL    HW1 5585   1.790   3.419   4.505
 1751SOL    HW2 5586   1.862   3.352   4.635
 1752SOL     OW 5587   0.221   3.176   5.568
 1752SOL    HW1 5588   0.156   3.103   5.547
 1752SOL    HW2 5589   0.225   3.190   5.666
 1753SOL     OW 5590   0.079   3.102   4.377
 1753SOL    HW1 5591   0.078   3.055   4.465
 1753SOL    HW2 5592   0.161   3.074   4.326
 1754SOL     OW 5593   0.672   3.253   5.348
 1754SOL    HW1 5594   0.594   3.203   5.386
 1754SOL    HW2 5595   0.669   3.348   5.379
 1755SOL     OW 5596   0.428   2.286   4.244
 1755SOL    HW1 5597   0.458   2.214   4.182
 1755SOL    HW2 5598   0.389   2.246   4.327
 1756SOL     OW 5599   1.705   3.349   4.828
 1756SOL    HW1 5600   1.612   3.324   4.801
 1756SOL    HW2 5601   1.731   3.299   4.910
 1757SOL     OW 5602   0.317   2.409   5.004
 1757SOL    HW1 5603   0.355   2.350   5.076
 1757SOL    HW2 5604   0.357   2.383   4.916
 1758SOL     OW 5605   0.812   3.448   4.411
 1758SOL    HW1 5606   0.844   3.458   4.317
 1758SOL    HW2 5607   0.733   3.386   4.413
 1759SOL     OW 5608   1.424   2.076   4.836
 1759SOL    HW1 5609   1.476   2.011   4.891
 1759SOL    HW2 5610   1.375   2.139   4.897
 1760SOL     OW 5611   1.001   1.896   4.878
 1760SOL    HW1 5612   0.938   1.824   4.847
 1760SOL    HW2 5613   1.094   1.860   4.878
 1761SOL     OW 5614   0.770   3.192   4.025
 1761SOL    HW1 5615   0.724   3.105   4.042
 1761SOL    HW2 5616   0.861   3.189   4.066
 1762SOL     OW 5617   0.618   3.429   5.008
 1762SOL    HW1 5618   0.613   3.511   5.065
 1762SOL    HW2 5619   0.707   3.426   4.963
 1763SOL     OW 5620   1.352   1.914   3.892
 1763SOL    HW1 5621   1.387   1.873   3.808
 1763SOL    HW2 5622   1.262   1.876   3.912
 1764SOL     OW 5623   1.300   2.315   4.415
 1764SOL    HW1 5624   1.241   2.395   4.419
 1764SOL    HW2 5625   1.315   2.280   4.508
 1765SOL     OW 5626   1.593   2.083   4.606
 1765SOL    HW1 5627   1.509   2.082   4.660
 1765SOL    HW2 5628   1.595   2.166   4.550
 1766SOL     OW 5629   0.039   2.939   4.024
 1766SOL    HW1 5630   0.138   2.928   4.015
 1766SOL    HW2 5631  -0.001   2.853   4.056
 1767SOL     OW 5632   0.875   3.508   4.061
 1767SOL    HW1 5633   0.798   3.473   4.007
 1767SOL    HW2 5634   0.843   3.579   4.123
 1768SOL     OW 5635   0.230   2.490   5.699
 1768SOL    HW1 5636   0.137   2.488   5.736
 1768SOL    HW2 5637   0.231   2.451   5.607
 1769SOL     OW 5638   0.225   2.137   6.582
 1769SOL    HW1 5639   0.260   2.120   6.674
 1769SOL    HW2 5640   0.137   2.092   6.570
 1770SOL     OW 5641   0.019   2.230   6.233
 1770SOL    HW1 5642  -0.063   2.273   6.272
 1770SOL    HW2 5643  -0.009   2.157   6.170
 1771SOL     OW 5644   0.569   3.137   6.751
 1771SOL    HW1 5645   0.476   3.130   6.714
 1771SOL    HW2 5646   0.580   3.226   6.795
 1772SOL     OW 5647   1.555   3.373   6.289
 1772SOL    HW1 5648   1.498   3.357   6.370
 1772SOL    HW2 5649   1.496   3.383   6.209
 1773SOL     OW 5650   1.135   2.565   6.303
 1773SOL    HW1 5651   1.192   2.643   6.278
 1773SOL    HW2 5652   1.075   2.591   6.379
 1774SOL     OW 5653   1.755   2.469   5.817
 1774SOL    HW1 5654   1.743   2.456   5.718
 1774SOL    HW2 5655   1.725   2.388   5.866
 1775SOL     OW 5656   0.768   3.006   6.609
 1775SOL    HW1 5657   0.690   3.023   6.669
 1775SOL    HW2 5658   0.802   3.093   6.573
 1776SOL     OW 5659   0.850   2.660   7.409
 1776SOL    HW1 5660   0.846   2.736   7.474
 1776SOL    HW2 5661   0.872   2.696   7.318
 1777SOL     OW 5662   0.685   2.874   6.251
 1777SOL    HW1 5663   0.754   2.858   6.321
 1777SOL    HW2 5664   0.612   2.931   6.289
 1778SOL     OW 5665   0.686   3.023   7.389
 1778SOL    HW1 5666   0.746   3.102   7.403
 1778SOL    HW2 5667   0.600   3.054   7.348
 1779SOL     OW 5668   0.335   3.297   6.647
 1779SOL    HW1 5669   0.257   3.266   6.594
 1779SOL    HW2 5670   0.393   3.355   6.590
 1780SOL     OW 5671   1.460   3.367   6.925
 1780SOL    HW1 5672   1.484   3.461   6.951
 1780SOL    HW2 5673   1.444   3.313   7.007
 1781SOL     OW 5674   0.438   2.254   7.085
 1781SOL    HW1 5675   0.520   2.198   7.094
 1781SOL    HW2 5676   0.357   2.196   7.089
 1782SOL     OW 5677   1.603   2.309   6.323
 1782SOL    HW1 5678   1.529   2.355   6.273
 1782SOL    HW2 5679   1.654   2.377   6.376
 1783SOL     OW 5680   0.231   3.575   6.069
 1783SOL    HW1 5681   0.265   3.652   6.123
 1783SOL    HW2 5682   0.275   3.575   5.979
 1784SOL     OW 5683   1.127   3.203   7.276
 1784SOL    HW1 5684   1.174   3.203   7.364
 1784SOL    HW2 5685   1.079   3.116   7.265
 1785SOL     OW 5686   0.230   3.296   6.124
 1785SOL    HW1 5687   0.204   3.392   6.124
 1785SOL    HW2 5688   0.159   3.242   6.169
 1786SOL     OW 5689   0.240   2.953   6.472
 1786SOL    HW1 5690   0.254   2.869   6.524
 1786SOL    HW2 5691   0.185   3.017   6.527
 1787SOL     OW 5692   0.620   3.648   7.025
 1787SOL    HW1 5693   0.528   3.631   7.060
 1787SOL    HW2 5694   0.648   3.740   7.051
 1788SOL     OW 5695   0.606   2.826   5.709
 1788SOL    HW1 5696   0.613   2.910   5.655
 1788SOL    HW2 5697   0.652   2.839   5.797
 1789SOL     OW 5698   1.594   1.976   7.066
 1789SOL    HW1 5699   1.576   2.043   6.994
 1789SOL    HW2 5700   1.591   2.022   7.155
 1790SOL     OW 5701   0.122   2.505   6.149
 1790SOL    HW1 5702   0.077   2.417   6.166
 1790SOL    HW2 5703   0.121   2.559   6.233
 1791SOL     OW 5704   1.842   3.629   5.945
 1791SOL    HW1 5705   1.896   3.600   6.025
 1791SOL    HW2 5706   1.872   3.719   5.916
 1792SOL     OW 5707   0.027   3.458   5.703
 1792SOL    HW1 5708   0.008   3.362   5.724
 1792SOL    HW2 5709  -0.006   3.516   5.778
 1793SOL     OW 5710   1.689   2.784   6.198
 1793SOL    HW1 5711   1.784   2.755   6.206
 1793SOL    HW2 5712   1.681   2.849   6.123
 1794SOL     OW 5713   1.641   2.970   6.018
 1794SOL    HW1 5714   1.727   2.972   5.966
 1794SOL    HW2 5715   1.655   3.017   6.106
 1795SOL     OW 5716   0.113   2.599   7.183
 1795SOL    HW1 5717   0.201   2.586   7.228
 1795SOL    HW2 5718   0.100   2.696   7.161
 1796SOL     OW 5719   0.613   3.227   6.312
 1796SOL    HW1 5720   0.564   3.140   6.321
 1796SOL    HW2 5721   0.590   3.270   6.225
 1797SOL     OW 5722   1.293   3.090   7.009
 1797SOL    HW1 5723   1.330   3.017   6.951
 1797SOL    HW2 5724   1.345   3.095   7.094
 1798SOL     OW 5725   0.809   1.866   6.088
 1798SOL    HW1 5726   0.849   1.957   6.079
 1798SOL    HW2 5727   0.709   1.874   6.094
 1799SOL     OW 5728   0.197   2.838   6.850
 1799SOL    HW1 5729   0.286   2.793   6.836
 1799SOL    HW2 5730   0.124   2.773   6.831
 1800SOL     OW 5731   1.525   2.861   5.776
 1800SOL    HW1 5732   1.462   2.785   5.789
 1800SOL    HW2 5733   1.573   2.879   5.862
 1801SOL     OW 5734   1.187   3.654   7.202
 1801SOL    HW1 5735   1.211   3.714   7.126
 1801SOL    HW2 5736   1.194   3.559   7.172
 1802SOL     OW 5737   0.317   2.113   7.387
 1802SOL    HW1 5738   0.388   2.184   7.393
 1802SOL    HW2 5739   0.229   2.152   7.415
 1803SOL     OW 5740   1.466   3.279   6.539
 1803SOL    HW1 5741   1.407   3.285   6.619
 1803SOL    HW2 5742   1.451   3.191   6.493
 1804SOL     OW 5743   1.667   3.576   6.158
 1804SOL    HW1 5744   1.626   3.553   6.070
 1804SOL    HW2 5745   1.649   3.502   6.223
 1805SOL     OW 5746   0.598   2.591   5.856
 1805SOL    HW1 5747   0.622   2.660   5.788
 1805SOL    HW2 5748   0.520   2.624   5.910
 1806SOL     OW 5749   1.281   2.207   6.530
 1806SOL    HW1 5750   1.195   2.157   6.517
 1806SOL    HW2 5751   1.343   2.153   6.586
 1807SOL     OW 5752   1.576   3.524   5.893
 1807SOL    HW1 5753   1.665   3.570   5.896
 1807SOL    HW2 5754   1.555   3.500   5.798
 1808SOL     OW 5755   0.807   2.467   7.051
 1808SOL    HW1 5756   0.760   2.464   7.140
 1808SOL    HW2 5757   0.756   2.412   6.985
 1809SOL     OW 5758   1.394   2.331   7.260
 1809SOL    HW1 5759   1.374   2.374   7.348
 1809SOL    HW2 5760   1.472   2.269   7.269
 1810SOL     OW 5761   0.973   2.752   7.158
 1810SOL    HW1 5762   1.019   2.668   7.129
 1810SOL    HW2 5763   0.917   2.786   7.083
 1811SOL     OW 5764   0.991   2.272   6.828
 1811SOL    HW1 5765   0.914   2.306   6.882
 1811SOL    HW2 5766   0.957   2.221   6.749
 1812SOL     OW 5767   1.041   2.563   6.015
 1812SOL    HW1 5768   1.067   2.559   6.111
 1812SOL    HW2 5769   0.956   2.512   6.001
 1813SOL     OW 5770   0.076   2.673   6.375
 1813SOL    HW1 5771   0.175   2.661   6.384
 1813SOL    HW2 5772   0.052   2.768   6.396
 1814SOL     OW 5773   0.130   3.683   7.157
 1814SOL    HW1 5774   0.120   3.668   7.256
 1814SOL    HW2 5775   0.044   3.719   7.121
 1815SOL     OW 5776   0.865   2.210   5.781
 1815SOL    HW1 5777   0.924   2.273   5.732
 1815SOL    HW2 5778   0.884   2.116   5.752
 1816SOL     OW 5779   1.719   2.447   7.417
 1816SOL    HW1 5780   1.693   2.536   7.381
 1816SOL    HW2 5781   1.717   2.379   7.344
 1817SOL     OW 5782   1.362   3.006   6.131
 1817SOL    HW1 5783   1.445   2.977   6.083
 1817SOL    HW2 5784   1.313   3.073   6.075
 1818SOL     OW 5785   0.550   2.058   6.471
 1818SOL    HW1 5786   0.545   2.053   6.571
 1818SOL    HW2 5787   0.552   2.154   6.442
 1819SOL     OW 5788   1.008   3.318   6.063
 1819SOL    HW1 5789   0.962   3.390   6.011
 1819SOL    HW2 5790   1.004   3.338   6.161
 1820SOL     OW 5791   0.351   3.663   6.439
 1820SOL    HW1 5792   0.401   3.577   6.445
 1820SOL    HW2 5793   0.416   3.740   6.436
 1821SOL     OW 5794   1.795   2.928   6.459
 1821SOL    HW1 5795   1.733   2.913   6.383
 1821SOL    HW2 5796   1.743   2.939   6.544
 1822SOL     OW 5797   1.227   3.412   7.092
 1822SOL    HW1 5798   1.233   3.335   7.156
 1822SOL    HW2 5799   1.175   3.386   7.012
 1823SOL     OW 5800   0.321   2.805   5.828
 1823SOL    HW1 5801   0.403   2.844   5.786
 1823SOL    HW2 5802   0.294   2.723   5.779
 1824SOL     OW 5803   1.458   2.597   6.314
 1824SOL    HW1 5804   1.453   2.532   6.389
 1824SOL    HW2 5805   1.538   2.656   6.327
 1825SOL     OW 5806   0.461   3.128   7.313
 1825SOL    HW1 5807   0.411   3.129   7.227
 1825SOL    HW2 5808   0.398   3.110   7.389
 1826SOL     OW 5809   1.111   3.638   5.823
 1826SOL    HW1 5810   1.051   3.576   5.873
 1826SOL    HW2 5811   1.142   3.594   5.738
 1827SOL     OW 5812   0.202   2.147   7.084
 1827SOL    HW1 5813   0.122   2.207   7.071
 1827SOL    HW2 5814   0.192   2.098   7.170
 1828SOL     OW 5815   1.632   3.239   5.667
 1828SOL    HW1 5816   1.600   3.333   5.657
 1828SOL    HW2 5817   1.556   3.176   5.655
 1829SOL     OW 5818   0.464   3.605   5.909
 1829SOL    HW1 5819   0.497   3.644   5.995
 1829SOL    HW2 5820   0.540   3.598   5.844
 1830SOL     OW 5821   1.400   1.969   6.012
 1830SOL    HW1 5822   1.376   1.932   5.922
 1830SOL    HW2 5823   1.499   1.985   6.016
 1831SOL     OW 5824   0.249   3.647   6.827
 1831SOL    HW1 5825   0.306   3.582   6.877
 1831SOL    HW2 5826   0.233   3.614   6.734
 1832SOL     OW 5827   0.940   3.560   6.490
 1832SOL    HW1 5828   1.020   3.503   6.511
 1832SOL    HW2 5829   0.891   3.520   6.413
 1833SOL     OW 5830   0.382   2.562   6.066
 1833SOL    HW1 5831   0.427   2.472   6.063
 1833SOL    HW2 5832   0.288   2.551   6.099
 1834SOL     OW 5833   1.547   2.084   7.315
 1834SOL    HW1 5834   1.542   2.121   7.407
 1834SOL    HW2 5835   1.475   2.015   7.303
 1835SOL     OW 5836   0.614   1.984   5.703
 1835SOL    HW1 5837   0.712   1.962   5.710
 1835SOL    HW2 5838   0.583   1.967   5.610
 1836SOL     OW 5839   0.781   2.126   7.335
 1836SOL    HW1 5840   0.848   2.065   7.378
 1836SOL    HW2 5841   0.708   2.145   7.400
 1837SOL     OW 5842   0.888   3.376   6.781
 1837SOL    HW1 5843   0.865   3.351   6.687
 1837SOL    HW2 5844   0.949   3.307   6.820
 1838SOL     OW 5845   1.351   2.452   7.019
 1838SOL    HW1 5846   1.379   2.409   7.104
 1838SOL    HW2 5847   1.376   2.548   7.020
 1839SOL     OW 5848   0.803   3.264   6.510
 1839SOL    HW1 5849   0.893   3.278   6.468
 1839SOL    HW2 5850   0.732   3.266   6.439
 1840SOL     OW 5851   0.922   2.365   6.485
 1840SOL    HW1 5852   0.897   2.356   6.389
 1840SOL    HW2 5853   0.970   2.283   6.516
 1841SOL     OW 5854   0.539   1.926   6.098
 1841SOL    HW1 5855   0.458   1.927   6.156
 1841SOL    HW2 5856   0.542   2.009   6.043
 1842SOL     OW 5857   1.434   3.050   5.627
 1842SOL    HW1 5858   1.466   2.974   5.684
 1842SOL    HW2 5859   1.342   3.077   5.657
 1843SOL     OW 5860   0.297   1.897   5.757
 1843SOL    HW1 5861   0.346   1.981   5.736
 1843SOL    HW2 5862   0.359   1.832   5.802
 1844SOL     OW 5863   0.935   2.098   6.066
 1844SOL    HW1 5864   0.887   2.139   5.988
 1844SOL    HW2 5865   1.034   2.096   6.047
 1845SOL     OW 5866   1.076   2.545   7.050
 1845SOL    HW1 5867   0.996   2.484   7.053
 1845SOL    HW2 5868   1.157   2.492   7.026
 1846SOL     OW 5869   1.227   3.432   6.379
 1846SOL    HW1 5870   1.248   3.506   6.314
 1846SOL    HW2 5871   1.295   3.432   6.452
 1847SOL     OW 5872   0.459   3.014   6.327
 1847SOL    HW1 5873   0.388   2.987   6.392
 1847SOL    HW2 5874   0.433   2.986   6.234
 1848SOL     OW 5875   1.271   3.659   6.177
 1848SOL    HW1 5876   1.315   3.723   6.113
 1848SOL    HW2 5877   1.221   3.711   6.247
 1849SOL     OW 5878   1.032   2.411   5.602
 1849SOL    HW1 5879   0.991   2.493   5.563
 1849SOL    HW2 5880   1.096   2.437   5.675
 1850SOL     OW 5881   0.078   2.418   6.972
 1850SOL    HW1 5882   0.170   2.417   6.931
 1850SOL    HW2 5883   0.072   2.492   7.039
 1851SOL     OW 5884   0.561   2.084   6.733
 1851SOL    HW1 5885   0.599   2.000   6.770
 1851SOL    HW2 5886   0.473   2.103   6.777
 1852SOL     OW 5887   0.866   2.316   6.228
 1852SOL    HW1 5888   0.834   2.388   6.166
 1852SOL    HW2 5889   0.890   2.235   6.175
 1853SOL     OW 5890   1.017   1.901   6.339
 1853SOL    HW1 5891   0.945   1.906   6.270
 1853SOL    HW2 5892   0.993   1.832   6.408
 1854SOL     OW 5893   1.429   3.035   6.453
 1854SOL    HW1 5894   1.374   2.951   6.446
 1854SOL    HW2 5895   1.455   3.064   6.361
 1855SOL     OW 5896   1.466   2.452   6.578
 1855SOL    HW1 5897   1.436   2.357   6.585
 1855SOL    HW2 5898   1.539   2.468   6.644
 1856SOL     OW 5899   1.857   2.695   5.963
 1856SOL    HW1 5900   1.899   2.631   6.027
 1856SOL    HW2 5901   1.819   2.644   5.885
 1857SOL     OW 5902   0.488   3.247   5.760
 1857SOL    HW1 5903   0.401   3.232   5.807
 1857SOL    HW2 5904   0.471   3.273   5.665
 1858SOL     OW 5905   1.664   3.142   6.243
 1858SOL    HW1 5906   1.763   3.150   6.257
 1858SOL    HW2 5907   1.619   3.226   6.274
 1859SOL     OW 5908   1.390   2.437   5.664
 1859SOL    HW1 5909   1.336   2.416   5.745
 1859SOL    HW2 5910   1.481   2.396   5.673
 1860SOL     OW 5911   0.527   2.118   5.914
 1860SOL    HW1 5912   0.554   2.059   5.839
 1860SOL    HW2 5913   0.527   2.213   5.883
 1861SOL     OW 5914   1.754   3.085   7.174
 1861SOL    HW1 5915   1.845   3.046   7.161
 1861SOL    HW2 5916   1.762   3.181   7.198
 1862SOL     OW 5917   1.064   3.209   6.926
 1862SOL    HW1 5918   0.984   3.186   6.981
 1862SOL    HW2 5919   1.147   3.183   6.975
 1863SOL     OW 5920   1.592   3.491   7.211
 1863SOL    HW1 5921   1.619   3.525   7.121
 1863SOL    HW2 5922   1.671   3.453   7.257
 1864SOL     OW 5923   1.111   3.057   6.686
 1864SOL    HW1 5924   1.071   3.101   6.767
 1864SOL    HW2 5925   1.070   3.094   6.603
 1865SOL     OW 5926   1.638   2.961   6.665
 1865SOL    HW1 5927   1.643   3.042   6.724
 1865SOL    HW2 5928   1.552   2.963   6.614
 1866SOL     OW 5929   0.915   1.951   6.988
 1866SOL    HW1 5930   0.940   1.931   6.893
 1866SOL    HW2 5931   0.987   2.007   7.030
 1867SOL     OW 5932   0.980   2.978   7.305
 1867SOL    HW1 5933   0.881   2.984   7.315
 1867SOL    HW2 5934   1.003   2.898   7.249
 1868SOL     OW 5935   0.705   2.912   5.954
 1868SOL    HW1 5936   0.691   2.919   6.053
 1868SOL    HW2 5937   0.789   2.861   5.936
 1869SOL     OW 5938   0.410   2.675   6.837
 1869SOL    HW1 5939   0.496   2.687   6.887
 1869SOL    HW2 5940   0.368   2.588   6.864
 1870SOL     OW 5941   1.274   2.248   6.848
 1870SOL    HW1 5942   1.295   2.322   6.912
 1870SOL    HW2 5943   1.185   2.265   6.805
 1871SOL     OW 5944   0.064   3.426   6.917
 1871SOL    HW1 5945   0.018   3.508   6.883
 1871SOL    HW2 5946   0.162   3.445   6.926
 1872SOL     OW 5947   0.367   2.962   6.087
 1872SOL    HW1 5948   0.360   3.045   6.031
 1872SOL    HW2 5949   0.371   2.882   6.027
 1873SOL     OW 5950   0.566   2.399   6.451
 1873SOL    HW1 5951   0.578   2.465   6.377
 1873SOL    HW2 5952   0.612   2.433   6.534
 1874SOL     OW 5953   1.252   3.210   5.974
 1874SOL    HW1 5954   1.302   3.287   6.014
 1874SOL    HW2 5955   1.157   3.212   6.006
 1875SOL     OW 5956   1.272   3.307   6.728
 1875SOL    HW1 5957   1.319   3.320   6.815
 1875SOL    HW2 5958   1.206   3.233   6.737
 1876SOL     OW 5959   1.582   2.501   6.058
 1876SOL    HW1 5960   1.551   2.562   6.131
 1876SOL    HW2 5961   1.632   2.553   5.989
 1877SOL     OW 5962   0.354   3.372   6.915
 1877SOL    HW1 5963   0.333   3.328   6.828
 1877SOL    HW2 5964   0.451   3.398   6.918
 1878SOL     OW 5965   0.402   2.613   7.184
 1878SOL    HW1 5966   0.470   2.668   7.137
 1878SOL    HW2 5967   0.442   2.525   7.211
 1879SOL     OW 5968   1.587   2.641   7.256
 1879SOL    HW1 5969   1.495   2.679   7.251
 1879SOL    HW2 5970   1.647   2.688   7.191
 1880SOL     OW 5971   1.013   1.967   7.356
 1880SOL    HW1 5972   1.019   2.052   7.304
 1880SOL    HW2 5973   1.045   1.891   7.299
 1881SOL     OW 5974   0.504   1.912   7.326
 1881SOL    HW1 5975   0.462   1.855   7.256
 1881SOL    HW2 5976   0.438   1.981   7.358
 1882SOL     OW 5977   0.573   2.732   6.615
 1882SOL    HW1 5978   0.617   2.821   6.606
 1882SOL    HW2 5979   0.510   2.732   6.692
 1883SOL     OW 5980   1.360   2.724   6.631
 1883SOL    HW1 5981   1.285   2.724   6.565
 1883SOL    HW2 5982   1.397   2.632   6.640
 1884SOL     OW 5983   1.209   2.387   5.861
 1884SOL    HW1 5984   1.222   2.303   5.915
 1884SOL    HW2 5985   1.180   2.461   5.921
 1885SOL     OW 5986   0.307   2.075   6.817
 1885SOL    HW1 5987   0.284   2.112   6.907
 1885SOL    HW2 5988   0.277   1.980   6.811
 1886SOL     OW 5989   0.037   3.172   6.868
 1886SOL    HW1 5990   0.090   3.123   6.936
 1886SOL    HW2 5991   0.059   3.270   6.873
 1887SOL     OW 5992   0.732   2.496   6.650
 1887SOL    HW1 5993   0.791   2.470   6.574
 1887SOL    HW2 5994   0.704   2.592   6.639
 1888SOL     OW 5995   1.728   2.797   7.440
 1888SOL    HW1 5996   1.682   2.790   7.351
 1888SOL    HW2 5997   1.666   2.841   7.506
 1889SOL     OW 5998   0.307   1.925   6.204
 1889SOL    HW1 5999   0.296   2.019   6.237
 1889SOL    HW2 6000   0.302   1.862   6.281
 1890SOL     OW 6001   1.622   2.229   5.960
 1890SOL    HW1 6002   1.624   2.153   6.024
 1890SOL    HW2 6003   1.574   2.306   6.000
 1891SOL     OW 6004   1.023   2.628   6.552
 1891SOL    HW1 6005   1.038   2.649   6.648
 1891SOL    HW2 6006   0.993   2.533   6.543
 1892SOL     OW 6007   0.980   3.435   7.286
 1892SOL    HW1 6008   0.960   3.479   7.198
 1892SOL    HW2 6009   1.019   3.344   7.270
 1893SOL     OW 6010   1.859   3.380   7.191
 1893SOL    HW1 6011   1.873   3.407   7.096
 1893SOL    HW2 6012   1.942   3.402   7.244
 1894SOL     OW 6013   0.350   2.760   7.390
 1894SOL    HW1 6014   0.426   2.804   7.438
 1894SOL    HW2 6015   0.385   2.713   7.308
 1895SOL     OW 6016   1.540   2.136   5.711
 1895SOL    HW1 6017   1.479   2.061   5.734
 1895SOL    HW2 6018   1.562   2.188   5.794
 1896SOL     OW 6019   1.303   2.700   5.628
 1896SOL    HW1 6020   1.337   2.607   5.643
 1896SOL    HW2 6021   1.321   2.727   5.533
 1897SOL     OW 6022   1.068   3.195   6.435
 1897SOL    HW1 6023   1.075   3.111   6.380
 1897SOL    HW2 6024   1.130   3.264   6.399
 1898SOL     OW 6025   0.319   2.672   6.535
 1898SOL    HW1 6026   0.412   2.708   6.540
 1898SOL    HW2 6027   0.313   2.587   6.587
 1899SOL     OW 6028   0.339   2.371   6.592
 1899SOL    HW1 6029   0.287   2.288   6.575
 1899SOL    HW2 6030   0.416   2.376   6.528
 1900SOL     OW 6031   1.138   2.242   7.264
 1900SOL    HW1 6032   1.093   2.305   7.328
 1900SOL    HW2 6033   1.231   2.273   7.247
 1901SOL     OW 6034   1.160   2.069   7.063
 1901SOL    HW1 6035   1.160   2.133   7.140
 1901SOL    HW2 6036   1.188   2.117   6.980
 1902SOL     OW 6037   0.008   3.188   5.786
 1902SOL    HW1 6038  -0.085   3.209   5.755
 1902SOL    HW2 6039   0.018   3.089   5.799
 1903SOL     OW 6040   0.088   3.663   6.513
 1903SOL    HW1 6041   0.046   3.577   6.486
 1903SOL    HW2 6042   0.182   3.666   6.479
 1904SOL     OW 6043   0.504   3.430   6.496
 1904SOL    HW1 6044   0.570   3.504   6.505
 1904SOL    HW2 6045   0.548   3.351   6.454
 1905SOL     OW 6046   1.002   2.658   6.824
 1905SOL    HW1 6047   1.043   2.626   6.910
 1905SOL    HW2 6048   0.906   2.631   6.821
 1906SOL     OW 6049   0.040   2.406   6.700
 1906SOL    HW1 6050   0.125   2.373   6.659
 1906SOL    HW2 6051   0.053   2.421   6.798
 1907SOL     OW 6052   0.189   2.382   7.308
 1907SOL    HW1 6053   0.248   2.342   7.238
 1907SOL    HW2 6054   0.131   2.453   7.267
 1908SOL     OW 6055   1.369   2.812   7.246
 1908SOL    HW1 6056   1.408   2.901   7.266
 1908SOL    HW2 6057   1.379   2.792   7.149
 1909SOL     OW 6058   0.815   2.434   5.911
 1909SOL    HW1 6059   0.822   2.345   5.865
 1909SOL    HW2 6060   0.721   2.468   5.903
 1910SOL     OW 6061   1.657   2.466   6.792
 1910SOL    HW1 6062   1.619   2.397   6.854
 1910SOL    HW2 6063   1.739   2.430   6.748
 1911SOL     OW 6064   0.252   3.426   7.330
 1911SOL    HW1 6065   0.222   3.483   7.406
 1911SOL    HW2 6066   0.245   3.329   7.356
 1912SOL     OW 6067   0.671   2.326   6.855
 1912SOL    HW1 6068   0.637   2.237   6.825
 1912SOL    HW2 6069   0.697   2.380   6.775
 1913SOL     OW 6070   0.930   3.540   7.051
 1913SOL    HW1 6071   0.906   3.522   6.956
 1913SOL    HW2 6072   0.960   3.634   7.061
 1914SOL     OW 6073   0.473   2.362   5.777
 1914SOL    HW1 6074   0.534   2.442   5.781
 1914SOL    HW2 6075   0.378   2.393   5.784
 1915SOL     OW 6076   0.159   2.999   7.052
 1915SOL    HW1 6077   0.181   2.938   7.128
 1915SOL    HW2 6078   0.169   2.950   6.966
 1916SOL     OW 6079   1.347   2.921   6.820
 1916SOL    HW1 6080   1.371   2.858   6.746
 1916SOL    HW2 6081   1.257   2.961   6.802
 1917SOL     OW 6082   1.302   2.717   5.895
 1917SOL    HW1 6083   1.216   2.686   5.937
 1917SOL    HW2 6084   1.298   2.703   5.796
 1918SOL     OW 6085   1.759   3.609   6.740
 1918SOL    HW1 6086   1.820   3.639   6.667
 1918SOL    HW2 6087   1.721   3.520   6.718
 1919SOL     OW 6088   1.252   3.593   6.714
 1919SOL    HW1 6089   1.336   3.598   6.660
 1919SOL    HW2 6090   1.229   3.497   6.732
 1920SOL     OW 6091   0.083   3.120   6.608
 1920SOL    HW1 6092   0.078   3.119   6.708
 1920SOL    HW2 6093   0.000   3.079   6.570
 1921SOL     OW 6094   0.688   3.524   7.302
 1921SOL    HW1 6095   0.632   3.605   7.311
 1921SOL    HW2 6096   0.740   3.528   7.216
 1922SOL     OW 6097   1.726   1.997   6.109
 1922SOL    HW1 6098   1.799   1.980   6.042
 1922SOL    HW2 6099   1.695   1.910   6.147
 1923SOL     OW 6100   1.388   3.435   6.063
 1923SOL    HW1 6101   1.455   3.447   5.989
 1923SOL    HW2 6102   1.348   3.524   6.086
 1924SOL     OW 6103   0.130   3.656   7.437
 1924SOL    HW1 6104   0.089   3.582   7.490
 1924SOL    HW2 6105   0.194   3.707   7.495
 1925SOL     OW 6106   1.280   2.789   6.258
 1925SOL    HW1 6107   1.340   2.708   6.260
 1925SOL    HW2 6108   1.320   2.858   6.198
 1926SOL     OW 6109   0.830   3.135   7.008
 1926SOL    HW1 6110   0.825   3.168   7.103
 1926SOL    HW2 6111   0.744   3.154   6.962
 1927SOL     OW 6112   0.672   3.478   5.740
 1927SOL    HW1 6113   0.681   3.488   5.641
 1927SOL    HW2 6114   0.632   3.389   5.761
 1928SOL     OW 6115   1.650   3.582   6.980
 1928SOL    HW1 6116   1.703   3.592   6.896
 1928SOL    HW2 6117   1.623   3.672   7.014
 1929SOL     OW 6118   1.841   2.037   6.549
 1929SOL    HW1 6119   1.880   1.952   6.513
 1929SOL    HW2 6120   1.743   2.039   6.530
 1930SOL     OW 6121   0.263   2.188   6.306
 1930SOL    HW1 6122   0.184   2.239   6.272
 1930SOL    HW2 6123   0.254   2.173   6.404
 1931SOL     OW 6124   1.194   3.474   5.617
 1931SOL    HW1 6125   1.200   3.381   5.654
 1931SOL    HW2 6126   1.135   3.474   5.537
 1932SOL     OW 6127   0.822   2.864   6.958
 1932SOL    HW1 6128   0.862   2.863   6.866
 1932SOL    HW2 6129   0.832   2.956   6.998
 1933SOL     OW 6130   0.916   2.772   5.877
 1933SOL    HW1 6131   0.979   2.810   5.809
 1933SOL    HW2 6132   0.956   2.689   5.916
 1934SOL     OW 6133   1.504   3.469   5.630
 1934SOL    HW1 6134   1.412   3.506   5.637
 1934SOL    HW2 6135   1.542   3.489   5.540
 1935SOL     OW 6136   0.372   3.150   7.076
 1935SOL    HW1 6137   0.359   3.243   7.042
 1935SOL    HW2 6138   0.288   3.098   7.063
 1936SOL     OW 6139   1.614   3.154   6.875
 1936SOL    HW1 6140   1.674   3.157   6.955
 1936SOL    HW2 6141   1.539   3.218   6.888
 1937SOL     OW 6142   1.039   2.960   6.282
 1937SOL    HW1 6143   0.969   2.913   6.336
 1937SOL    HW2 6144   1.098   2.892   6.239
 1938SOL     OW 6145   1.014   2.098   6.557
 1938SOL    HW1 6146   1.006   2.062   6.464
 1938SOL    HW2 6147   1.012   2.022   6.622
 1939SOL     OW 6148   0.590   3.349   6.077
 1939SOL    HW1 6149   0.632   3.291   6.007
 1939SOL    HW2 6150   0.546   3.428   6.033
 1940SOL     OW 6151   1.709   2.247   6.967
 1940SOL    HW1 6152   1.782   2.316   6.971
 1940SOL    HW2 6153   1.737   2.172   6.908
 1941SOL     OW 6154   0.255   3.210   5.876
 1941SOL    HW1 6155   0.159   3.211   5.849
 1941SOL    HW2 6156   0.267   3.263   5.960
 1942SOL     OW 6157   0.105   2.875   7.312
 1942SOL    HW1 6158   0.028   2.842   7.366
 1942SOL    HW2 6159   0.190   2.845   7.354
 1943SOL     OW 6160   0.672   2.065   7.075
 1943SOL    HW1 6161   0.762   2.049   7.035
 1943SOL    HW2 6162   0.680   2.070   7.174
 1944SOL     OW 6163   0.075   2.207   5.619
 1944SOL    HW1 6164  -0.017   2.179   5.590
 1944SOL    HW2 6165   0.106   2.284   5.563
 1945SOL     OW 6166   1.440   2.718   6.984
 1945SOL    HW1 6167   1.383   2.770   6.921
 1945SOL    HW2 6168   1.536   2.730   6.960
 1946SOL     OW 6169   0.072   2.028   5.904
 1946SOL    HW1 6170   0.055   2.111   5.850
 1946SOL    HW2 6171   0.162   1.991   5.882
 1947SOL     OW 6172   1.183   3.197   5.705
 1947SOL    HW1 6173   1.084   3.186   5.707
 1947SOL    HW2 6174   1.217   3.212   5.798
 1948SOL     OW 6175   0.613   2.704   7.017
 1948SOL    HW1 6176   0.669   2.785   7.000
 1948SOL    HW2 6177   0.672   2.624   7.020
 1949SOL     OW 6178   1.493   3.629   6.545
 1949SOL    HW1 6179   1.526   3.693   6.476
 1949SOL    HW2 6180   1.559   3.623   6.620
 1950SOL     OW 6181   0.716   2.427   7.294
 1950SOL    HW1 6182   0.735   2.492   7.368
 1950SOL    HW2 6183   0.776   2.347   7.303
 1951SOL     OW 6184   1.450   3.082   7.219
 1951SOL    HW1 6185   1.441   3.072   7.318
 1951SOL    HW2 6186   1.546   3.075   7.193
 1952SOL     OW 6187   0.390   3.603   7.146
 1952SOL    HW1 6188   0.299   3.644   7.144
 1952SOL    HW2 6189   0.383   3.509   7.178
 1953SOL     OW 6190   1.674   2.745   6.840
 1953SOL    HW1 6191   1.647   2.656   6.803
 1953SOL    HW2 6192   1.675   2.813   6.767
 1954SOL     OW 6193   1.225   2.187   6.035
 1954SOL    HW1 6194   1.290   2.113   6.024
 1954SOL    HW2 6195   1.245   2.237   6.119
 1955SOL     OW 6196   0.594   2.607   6.238
 1955SOL    HW1 6197   0.644   2.692   6.219
 1955SOL    HW2 6198   0.506   2.609   6.190
 1956SOL     OW 6199   1.777   2.204   7.228
 1956SOL    HW1 6200   1.760   2.235   7.134
 1956SOL    HW2 6201   1.693   2.167   7.266
 1957SOL     OW 6202   1.730   2.796   7.103
 1957SOL    HW1 6203   1.768   2.887   7.118
 1957SOL    HW2 6204   1.722   2.779   7.004
 1958SOL     OW 6205   0.859   3.236   5.602
 1958SOL    HW1 6206   0.813   3.251   5.690
 1958SOL    HW2 6207   0.903   3.321   5.572
 1959SOL     OW 6208   0.661   3.652   6.539
 1959SOL    HW1 6209   0.615   3.740   6.526
 1959SOL    HW2 6210   0.760   3.664   6.532
 1960SOL     OW 6211   0.859   2.818   6.447
 1960SOL    HW1 6212   0.913   2.749   6.495
 1960SOL    HW2 6213   0.827   2.887   6.513
 1961SOL     OW 6214   1.083   2.846   5.673
 1961SOL    HW1 6215   1.060   2.899   5.591
 1961SOL    HW2 6216   1.164   2.790   5.654
 1962SOL     OW 6217   1.861   3.431   6.437
 1962SOL    HW1 6218   1.790   3.419   6.367
 1962SOL    HW2 6219   1.862   3.352   6.497
 1963SOL     OW 6220   0.221   3.176   7.430
 1963SOL    HW1 6221   0.156   3.103   7.409
 1963SOL    HW2 6222   0.225   3.190   7.528
 1964SOL     OW 6223   0.079   3.102   6.239
 1964SOL    HW1 6224   0.078   3.055   6.327
 1964SOL    HW2 6225   0.161   3.074   6.188
 1965SOL     OW 6226   0.672   3.253   7.210
 1965SOL    HW1 6227   0.594   3.203   7.248
 1965SOL    HW2 6228   0.669   3.348   7.241
 1966SOL     OW 6229   1.824   2.054   6.813
 1966SOL    HW1 6230   1.820   1.964   6.857
 1966SOL    HW2 6231   1.827   2.043   6.714
 1967SOL     OW 6232   0.428   2.286   6.106
 1967SOL    HW1 6233   0.458   2.214   6.044
 1967SOL    HW2 6234   0.389   2.246   6.189
 1968SOL     OW 6235   1.705   3.349   6.690
 1968SOL    HW1 6236   1.612   3.324   6.663
 1968SOL    HW2 6237   1.731   3.299   6.772
 1969SOL     OW 6238   0.317   2.409   6.866
 1969SOL    HW1 6239   0.355   2.350   6.938
 1969SOL    HW2 6240   0.357   2.383   6.778
 1970SOL     OW 6241   0.812   3.448   6.273
 1970SOL    HW1 6242   0.844   3.458   6.179
 1970SOL    HW2 6243   0.733   3.386   6.275
 1971SOL     OW 6244   1.424   2.076   6.698
 1971SOL    HW1 6245   1.476   2.011   6.753
 1971SOL    HW2 6246   1.375   2.139   6.759
 1972SOL     OW 6247   1.001   1.896   6.740
 1972SOL    HW1 6248   0.938   1.824   6.709
 1972SOL    HW2 6249   1.094   1.860   6.740
 1973SOL     OW 6250   0.770   3.192   5.887
 1973SOL    HW1 6251   0.724   3.105   5.904
 1973SOL    HW2 6252   0.861   3.189   5.928
 1974SOL     OW 6253   0.618   3.429   6.870
 1974SOL    HW1 6254   0.613   3.511   6.927
 1974SOL    HW2 6255   0.707   3.426   6.825
 1975SOL     OW 6256   1.352   1.914   5.754
 1975SOL    HW1 6257   1.387   1.873   5.670
 1975SOL    HW2 6258   1.262   1.876   5.774
 1976SOL     OW 6259   1.300   2.315   6.277
 1976SOL    HW1 6260   1.241   2.395   6.281
 1976SOL    HW2 6261   1.315   2.280   6.370
 1977SOL     OW 6262   1.593   2.083   6.468
 1977SOL    HW1 6263   1.509   2.082   6.522
 1977SOL    HW2 6264   1.595   2.166   6.412
 1978SOL     OW 6265   0.039   2.939   5.886
 1978SOL    HW1 6266   0.138   2.928   5.877
 1978SOL    HW2 6267  -0.001   2.853   5.918
 1979SOL     OW 6268   0.875   3.508   5.923
 1979SOL    HW1 6269   0.798   3.473   5.869
 1979SOL    HW2 6270   0.843   3.579   5.985
 1980SOL     OW 6271   0.230   2.490   7.561
 1980SOL    HW1 6272   0.137   2.488   7.598
 1980SOL    HW2 6273   0.231   2.451   7.469
 1981SOL     OW 6274   0.225   2.137   8.444
 1981SOL    HW1 6275   0.260   2.120   8.536
 1981SOL    HW2 6276   0.137   2.092   8.432
 1982SOL     OW 6277   0.019   2.230   8.095
 1982SOL    HW1 6278  -0.063   2.273   8.134
 1982SOL    HW2 6279  -0.009   2.157   8.032
 1983SOL     OW 6280   0.569   3.137   8.613
 1983SOL    HW1 6281   0.476   3.130   8.576
 1983SOL    HW2 6282   0.580   3.226   8.657
 1984SOL     OW 6283   1.555   3.373   8.151
 1984SOL    HW1 6284   1.498   3.357   8.232
 1984SOL    HW2 6285   1.496   3.383   8.071
 1985SOL     OW 6286   1.135   2.565   8.165
 1985SOL    HW1 6287   1.192   2.643   8.140
 1985SOL    HW2 6288   1.075   2.591   8.241
 1986SOL     OW 6289   1.755   2.469   7.679
 1986SOL    HW1 6290   1.743   2.456   7.580
 1986SOL    HW2 6291   1.725   2.388   7.728
 1987SOL     OW 6292   0.768   3.006   8.471
 1987SOL    HW1 6293   0.690   3.023   8.531
 1987SOL    HW2 6294   0.802   3.093   8.435
 1988SOL     OW 6295   0.850   2.660   9.271
 1988SOL    HW1 6296   0.846   2.736   9.336
 1988SOL    HW2 6297   0.872   2.696   9.180
 1989SOL     OW 6298   0.685   2.874   8.113
 1989SOL    HW1 6299   0.754   2.858   8.183
 1989SOL    HW2 6300   0.612   2.931   8.151
 1990SOL     OW 6301   0.686   3.023   9.251
 1990SOL    HW1 6302   0.746   3.102   9.265
 1990SOL    HW2 6303   0.600   3.054   9.210
 1991SOL     OW 6304   0.335   3.297   8.509
 1991SOL    HW1 6305   0.257   3.266   8.456
 1991SOL    HW2 6306   0.393   3.355   8.452
 1992SOL     OW 6307   1.460   3.367   8.787
 1992SOL    HW1 6308   1.484   3.461   8.813
 1992SOL    HW2 6309   1.444   3.313   8.869
 1993SOL     OW 6310   0.438   2.254   8.947
 1993SOL    HW1 6311   0.520   2.198   8.956
 1993SOL    HW2 6312   0.357   2.196   8.951
 1994SOL     OW 6313   1.603   2.309   8.185
 1994SOL    HW1 6314   1.529   2.355   8.135
 1994SOL    HW2 6315   1.654   2.377   8.238
 1995SOL     OW 6316   0.231   3.575   7.931
 1995SOL    HW1 6317   0.265   3.652   7.985
 1995SOL    HW2 6318   0.275   3.575   7.841
 1996SOL     OW 6319   1.127   3.203   9.138
 1996SOL    HW1 6320   1.174   3.203   9.226
 1996SOL    HW2 6321   1.079   3.116   9.127
 1997SOL     OW 6322   0.230   3.296   7.986
 1997SOL    HW1 6323   0.204   3.392   7.986
 1997SOL    HW2 6324   0.159   3.242   8.031
 1998SOL     OW 6325   0.240   2.953   8.334
 1998SOL    HW1 6326   0.254   2.869   8.386
 1998SOL    HW2 6327   0.185   3.017   8.389
 1999SOL     OW 6328   0.620   3.648   8.887
 1999SOL    HW1 6329   0.528   3.631   8.922
 1999SOL    HW2 6330   0.648   3.740   8.913
 2000SOL     OW 6331   0.606   2.826   7.571
 2000SOL    HW1 6332   0.613   2.910   7.517
 2000SOL    HW2 6333   0.652   2.839   7.659
 2001SOL     OW 6334   1.594   1.976   8.928
 2001SOL    HW1 6335   1.576   2.043   8.856
 2001SOL    HW2 6336   1.591   2.022   9.017
 2002SOL     OW 6337   0.122   2.505   8.011
 2002SOL    HW1 6338   0.077   2.417   8.028
 2002SOL    HW2 6339   0.121   2.559   8.095
 2003SOL     OW 6340   1.842   3.629   7.807
 2003SOL    HW1 6341   1.896   3.600   7.887
 2003SOL    HW2 6342   1.872   3.719   7.778
 2004SOL     OW 6343   0.027   3.458   7.565
 2004SOL    HW1 6344   0.008   3.362   7.586
 2004SOL    HW2 6345  -0.006   3.516   7.640
 2005SOL     OW 6346   1.689   2.784   8.060
 2005SOL    HW1 6347   1.784   2.755   8.068
 2005SOL    HW2 6348   1.681   2.849   7.985
 2006SOL     OW 6349   1.641   2.970   7.880
 2006SOL    HW1 6350   1.727   2.972   7.828
 2006SOL    HW2 6351   1.655   3.017   7.968
 2007SOL     OW 6352   0.113   2.599   9.045
 2007SOL    HW1 6353   0.201   2.586   9.090
 2007SOL    HW2 6354   0.100   2.696   9.023
 2008SOL     OW 6355   0.613   3.227   8.174
 2008SOL    HW1 6356   0.564   3.140   8.183
 2008SOL    HW2 6357   0.590   3.270   8.087
 2009SOL     OW 6358   1.293   3.090   8.871
 2009SOL    HW1 6359   1.330   3.017   8.813
 2009SOL    HW2 6360   1.345   3.095   8.956
 2010SOL     OW 6361   0.809   1.866   7.950
 2010SOL    HW1 6362   0.849   1.957   7.941
 2010SOL    HW2 6363   0.709   1.874   7.956
 2011SOL     OW 6364   0.197   2.838   8.712
 2011SOL    HW1 6365   0.286   2.793   8.698
 2011SOL    HW2 6366   0.124   2.773   8.693
 2012SOL     OW 6367   1.525   2.861   7.638
 2012SOL    HW1 6368   1.462   2.785   7.651
 2012SOL    HW2 6369   1.573   2.879   7.724
 2013SOL     OW 6370   1.187   3.654   9.064
 2013SOL    HW1 6371   1.211   3.714   8.988
 2013SOL    HW2 6372   1.194   3.559   9.034
 2014SOL     OW 6373   0.317   2.113   9.249
 2014SOL    HW1 6374   0.388   2.184   9.255
 2014SOL    HW2 6375   0.229   2.152   9.277
 2015SOL     OW 6376   1.466   3.279   8.401
 2015SOL    HW1 6377   1.407   3.285   8.481
 2015SOL    HW2 6378   1.451   3.191   8.355
 2016SOL     OW 6379   1.667   3.576   8.020
 2016SOL    HW1 6380   1.626   3.553   7.932
 2016SOL    HW2 6381   1.649   3.502   8.085
 2017SOL     OW 6382   0.598   2.591   7.718
 2017SOL    HW1 6383   0.622   2.660   7.650
 2017SOL    HW2 6384   0.520   2.624   7.772
 2018SOL     OW 6385   1.281   2.207   8.392
 2018SOL    HW1 6386   1.195   2.157   8.379
 2018SOL    HW2 6387   1.343   2.153   8.448
 2019SOL     OW 6388   1.576   3.524   7.755
 2019SOL    HW1 6389   1.665   3.570   7.758
 2019SOL    HW2 6390   1.555   3.500   7.660
 2020SOL     OW 6391   0.807   2.467   8.913
 2020SOL    HW1 6392   0.760   2.464   9.002
 2020SOL    HW2 6393   0.756   2.412   8.847
 2021SOL     OW 6394   1.394   2.331   9.122
 2021SOL    HW1 6395   1.374   2.374   9.210
 2021SOL    HW2 6396   1.472   2.269   9.131
 2022SOL     OW 6397   0.973   2.752   9.020
 2022SOL    HW1 6398   1.019   2.668   8.991
 2022SOL    HW2 6399   0.917   2.786   8.945
 2023SOL     OW 6400   0.991   2.272   8.690
 2023SOL    HW1 6401   0.914   2.306   8.744
 2023SOL    HW2 6402   0.957   2.221   8.611
 2024SOL     OW 6403   1.041   2.563   7.877
 2024SOL    HW1 6404   1.067   2.559   7.973
 2024SOL    HW2 6405   0.956   2.512   7.863
 2025SOL     OW 6406   0.076   2.673   8.237
 2025SOL    HW1 6407   0.175   2.661   8.246
 2025SOL    HW2 6408   0.052   2.768   8.258
 2026SOL     OW 6409   0.130   3.683   9.019
 2026SOL    HW1 6410   0.120   3.668   9.118
 2026SOL    HW2 6411   0.044   3.719   8.983
 2027SOL     OW 6412   0.865   2.210   7.643
 2027SOL    HW1 6413   0.924   2.273   7.594
 2027SOL    HW2 6414   0.884   2.116   7.614
 2028SOL     OW 6415   1.719   2.447   9.279
 2028SOL    HW1 6416   1.693   2.536   9.243
 2028SOL    HW2 6417   1.717   2.379   9.206
 2029SOL     OW 6418   1.362   3.006   7.993
 2029SOL    HW1 6419   1.445   2.977   7.945
 2029SOL    HW2 6420   1.313   3.073   7.937
 2030SOL     OW 6421   0.550   2.058   8.333
 2030SOL    HW1 6422   0.545   2.053   8.433
 2030SOL    HW2 6423   0.552   2.154   8.304
 2031SOL     OW 6424   1.008   3.318   7.925
 2031SOL    HW1 6425   0.962   3.390   7.873
 2031SOL    HW2 6426   1.004   3.338   8.023
 2032SOL     OW 6427   0.351   3.663   8.301
 2032SOL    HW1 6428   0.401   3.577   8.307
 2032SOL    HW2 6429   0.416   3.740   8.298
 2033SOL     OW 6430   1.795   2.928   8.321
 2033SOL    HW1 6431   1.733   2.913   8.245
 2033SOL    HW2 6432   1.743   2.939   8.406
 2034SOL     OW 6433   1.227   3.412   8.954
 2034SOL    HW1 6434   1.233   3.335   9.018
 2034SOL    HW2 6435   1.175   3.386   8.874
 2035SOL     OW 6436   0.321   2.805   7.690
 2035SOL    HW1 6437   0.403   2.844   7.648
 2035SOL    HW2 6438   0.294   2.723   7.641
 2036SOL     OW 6439   1.458   2.597   8.176
 2036SOL    HW1 6440   1.453   2.532   8.251
 2036SOL    HW2 6441   1.538   2.656   8.189
 2037SOL     OW 6442   0.461   3.128   9.175
 2037SOL    HW1 6443   0.411   3.129   9.089
 2037SOL    HW2 6444   0.398   3.110   9.251
 2038SOL     OW 6445   1.111   3.638   7.685
 2038SOL    HW1 6446   1.051   3.576   7.735
 2038SOL    HW2 6447   1.142   3.594   7.600
 2039SOL     OW 6448   0.202   2.147   8.946
 2039SOL    HW1 6449   0.122   2.207   8.933
 2039SOL    HW2 6450   0.192   2.098   9.032
 2040SOL     OW 6451   1.632   3.239   7.529
 2040SOL    HW1 6452   1.600   3.333   7.519
 2040SOL    HW2 6453   1.556   3.176   7.517
 2041SOL     OW 6454   0.464   3.605   7.771
 2041SOL    HW1 6455   0.497   3.644   7.857
 2041SOL    HW2 6456   0.540   3.598   7.706
 2042SOL     OW 6457   1.400   1.969   7.874
 2042SOL    HW1 6458   1.376   1.932   7.784
 2042SOL    HW2 6459   1.499   1.985   7.878
 2043SOL     OW 6460   0.249   3.647   8.689
 2043SOL    HW1 6461   0.306   3.582   8.739
 2043SOL    HW2 6462   0.233   3.614   8.596
 2044SOL     OW 6463   0.940   3.560   8.352
 2044SOL    HW1 6464   1.020   3.503   8.373
 2044SOL    HW2 6465   0.891   3.520   8.275
 2045SOL     OW 6466   0.382   2.562   7.928
 2045SOL    HW1 6467   0.427   2.472   7.925
 2045SOL    HW2 6468   0.288   2.551   7.961
 2046SOL     OW 6469   1.547   2.084   9.177
 2046SOL    HW1 6470   1.542   2.121   9.269
 2046SOL    HW2 6471   1.475   2.015   9.165
 2047SOL     OW 6472   0.614   1.984   7.565
 2047SOL    HW1 6473   0.712   1.962   7.572
 2047SOL    HW2 6474   0.583   1.967   7.472
 2048SOL     OW 6475   0.781   2.126   9.197
 2048SOL    HW1 6476   0.848   2.065   9.240
 2048SOL    HW2 6477   0.708   2.145   9.262
 2049SOL     OW 6478   0.888   3.376   8.643
 2049SOL    HW1 6479   0.865   3.351   8.549
 2049SOL    HW2 6480   0.949   3.307   8.682
 2050SOL     OW 6481   1.351   2.452   8.881
 2050SOL    HW1 6482   1.379   2.409   8.966
 2050SOL    HW2 6483   1.376   2.548   8.882
 2051SOL     OW 6484   0.803   3.264   8.372
 2051SOL    HW1 6485   0.893   3.278   8.330
 2051SOL    HW2 6486   0.732   3.266   8.301
 2052SOL     OW 6487   0.922   2.365   8.347
 2052SOL    HW1 6488   0.897   2.356   8.251
 2052SOL    HW2 6489   0.970   2.283   8.378
 2053SOL     OW 6490   0.539   1.926   7.960
 2053SOL    HW1 6491   0.458   1.927   8.018
 2053SOL    HW2 6492   0.542   2.009   7.905
 2054SOL     OW 6493   1.434   3.050   7.489
 2054SOL    HW1 6494   1.466   2.974   7.546
 2054SOL    HW2 6495   1.342   3.077   7.519
 2055SOL     OW 6496   0.297   1.897   7.619
 2055SOL    HW1 6497   0.346   1.981   7.598
 2055SOL    HW2 6498   0.359   1.832   7.664
 2056SOL     OW 6499   0.935   2.098   7.928
 2056SOL    HW1 6500   0.887   2.139   7.850
 2056SOL    HW2 6501   1.034   2.096   7.909
 2057SOL     OW 6502   1.076   2.545   8.912
 2057SOL    HW1 6503   0.996   2.484   8.915
 2057SOL    HW2 6504   1.157   2.492   8.888
 2058SOL     OW 6505   1.227   3.432   8.241
 2058SOL    HW1 6506   1.248   3.506   8.176
 2058SOL    HW2 6507   1.295   3.432   8.314
 2059SOL     OW 6508   0.459   3.014   8.189
 2059SOL    HW1 6509   0.388   2.987   8.254
 2059SOL    HW2 6510   0.433   2.986   8.096
 2060SOL     OW 6511   1.271   3.659   8.039
 2060SOL    HW1 6512   1.315   3.723   7.975
 2060SOL    HW2 6513   1.221   3.711   8.109
 2061SOL     OW 6514   1.032   2.411   7.464
 2061SOL    HW1 6515   0.991   2.493   7.425
 2061SOL    HW2 6516   1.096   2.437   7.537
 2062SOL     OW 6517   0.078   2.418   8.834
 2062SOL    HW1 6518   0.170   2.417   8.793
 2062SOL    HW2 6519   0.072   2.492   8.901
 2063SOL     OW 6520   0.561   2.084   8.595
 2063SOL    HW1 6521   0.599   2.000   8.632
 2063SOL    HW2 6522   0.473   2.103   8.639
 2064SOL     OW 6523   0.866   2.316   8.090
 2064SOL    HW1 6524   0.834   2.388   8.028
 2064SOL    HW2 6525   0.890   2.235   8.037
 2065SOL     OW 6526   1.017   1.901   8.201
 2065SOL    HW1 6527   0.945   1.906   8.132
 2065SOL    HW2 6528   0.993   1.832   8.270
 2066SOL     OW 6529   1.429   3.035   8.315
 2066SOL    HW1 6530   1.374   2.951   8.308
 2066SOL    HW2 6531   1.455   3.064   8.223
 2067SOL     OW 6532   1.466   2.452   8.440
 2067SOL    HW1 6533   1.436   2.357   8.447
 2067SOL    HW2 6534   1.539   2.468   8.506
 2068SOL     OW 6535   1.857   2.695   7.825
 2068SOL    HW1 6536   1.899   2.631   7.889
 2068SOL    HW2 6537   1.819   2.644   7.747
 2069SOL     OW 6538   0.488   3.247   7.622
 2069SOL    HW1 6539   0.401   3.232   7.669
 2069SOL    HW2 6540   0.471   3.273   7.527
 2070SOL     OW 6541   1.664   3.142   8.105
 2070SOL    HW1 6542   1.763   3.150   8.119
 2070SOL    HW2 6543   1.619   3.226   8.136
 2071SOL     OW 6544   1.390   2.437   7.526
 2071SOL    HW1 6545   1.336   2.416   7.607
 2071SOL    HW2 6546   1.481   2.396   7.535
 2072SOL     OW 6547   0.527   2.118   7.776
 2072SOL    HW1 6548   0.554   2.059   7.701
 2072SOL    HW2 6549   0.527   2.213   7.745
 2073SOL     OW 6550   1.754   3.085   9.036
 2073SOL    HW1 6551   1.845   3.046   9.023
 2073SOL    HW2 6552   1.762   3.181   9.060
 2074SOL     OW 6553   1.064   3.209   8.788
 2074SOL    HW1 6554   0.984   3.186   8.843
 2074SOL    HW2 6555   1.147   3.183   8.837
 2075SOL     OW 6556   1.592   3.491   9.073
 2075SOL    HW1 6557   1.619   3.525   8.983
 2075SOL    HW2 6558   1.671   3.453   9.119
 2076SOL     OW 6559   1.111   3.057   8.548
 2076SOL    HW1 6560   1.071   3.101   8.629
 2076SOL    HW2 6561   1.070   3.094   8.465
 2077SOL     OW 6562   1.638   2.961   8.527
 2077SOL    HW1 6563   1.643   3.042   8.586
 2077SOL    HW2 6564   1.552   2.963   8.476
 2078SOL     OW 6565   0.915   1.951   8.850
 2078SOL    HW1 6566   0.940   1.931   8.755
 2078SOL    HW2 6567   0.987   2.007   8.892
 2079SOL     OW 6568   0.980   2.978   9.167
 2079SOL    HW1 6569   0.881   2.984   9.177
 2079SOL    HW2 6570   1.003   2.898   9.111
 2080SOL     OW 6571   0.705   2.912   7.816
 2080SOL    HW1 6572   0.691   2.919   7.915
 2080SOL    HW2 6573   0.789   2.861   7.798
 2081SOL     OW 6574   0.410   2.675   8.699
 2081SOL    HW1 6575   0.496   2.687   8.749
 2081SOL    HW2 6576   0.368   2.588   8.726
 2082SOL     OW 6577   1.274   2.248   8.710
 2082SOL    HW1 6578   1.295   2.322   8.774
 2082SOL    HW2 6579   1.185   2.265   8.667
 2083SOL     OW 6580   0.064   3.426   8.779
 2083SOL    HW1 6581   0.018   3.508   8.745
 2083SOL    HW2 6582   0.162   3.445   8.788
 2084SOL     OW 6583   0.367   2.962   7.949
 2084SOL    HW1 6584   0.360   3.045   7.893
 2084SOL    HW2 6585   0.371   2.882   7.889
 2085SOL     OW 6586   0.566   2.399   8.313
 2085SOL    HW1 6587   0.578   2.465   8.239
 2085SOL    HW2 6588   0.612   2.433   8.396
 2086SOL     OW 6589   1.252   3.210   7.836
 2086SOL    HW1 6590   1.302   3.287   7.876
 2086SOL    HW2 6591   1.157   3.212   7.868
 2087SOL     OW 6592   1.272   3.307   8.590
 2087SOL    HW1 6593   1.319   3.320   8.677
 2087SOL    HW2 6594   1.206   3.233   8.599
 2088SOL     OW 6595   1.582   2.501   7.920
 2088SOL    HW1 6596   1.551   2.562   7.993
 2088SOL    HW2 6597   1.632   2.553   7.851
 2089SOL     OW 6598   0.354   3.372   8.777
 2089SOL    HW1 6599   0.333   3.328   8.690
 2089SOL    HW2 6600   0.451   3.398   8.780
 2090SOL     OW 6601   0.402   2.613   9.046
 2090SOL    HW1 6602   0.470   2.668   8.999
 2090SOL    HW2 6603   0.442   2.525   9.073
 2091SOL     OW 6604   1.587   2.641   9.118
 2091SOL    HW1 6605   1.495   2.679   9.113
 2091SOL    HW2 6606   1.647   2.688   9.053
 2092SOL     OW 6607   1.013   1.967   9.218
 2092SOL    HW1 6608   1.019   2.052   9.166
 2092SOL    HW2 6609   1.045   1.891   9.161
 2093SOL     OW 6610   0.504   1.912   9.188
 2093SOL    HW1 6611   0.462   1.855   9.118
 2093SOL    HW2 6612   0.438   1.981   9.220
 2094SOL     OW 6613   0.573   2.732   8.477
 2094SOL    HW1 6614   0.617   2.821   8.468
 2094SOL    HW2 6615   0.510   2.732   8.554
 2095SOL     OW 6616   1.360   2.724   8.493
 2095SOL    HW1 6617   1.285   2.724   8.427
 2095SOL    HW2 6618   1.397   2.632   8.502
 2096SOL     OW 6619   1.209   2.387   7.723
 2096SOL    HW1 6620   1.222   2.303   7.777
 2096SOL    HW2 6621   1.180   2.461   7.783
 2097SOL     OW 6622   0.307   2.075   8.679
 2097SOL    HW1 6623   0.284   2.112   8.769
 2097SOL    HW2 6624   0.277   1.980   8.673
 2098SOL     OW 6625   0.037   3.172   8.730
 2098SOL    HW1 6626   0.090   3.123   8.798
 2098SOL    HW2 6627   0.059   3.270   8.735
 2099SOL     OW 6628   0.732   2.496   8.512
 2099SOL    HW1 6629   0.791   2.470   8.436
 2099SOL    HW2 6630   0.704   2.592   8.501
 2100SOL     OW 6631   1.728   2.797   9.302
 2100SOL    HW1 6632   1.682   2.790   9.213
 2100SOL    HW2 6633   1.666   2.841   9.368
 2101SOL     OW 6634   0.307   1.925   8.066
 2101SOL    HW1 6635   0.296   2.019   8.099
 2101SOL    HW2 6636   0.302   1.862   8.143
 2102SOL     OW 6637   1.622   2.229   7.822
 2102SOL    HW1 6638   1.624   2.153   7.886
 2102SOL    HW2 6639   1.574   2.306   7.862
 2103SOL     OW 6640   1.023   2.628   8.414
 2103SOL    HW1 6641   1.038   2.649   8.510
 2103SOL    HW2 6642   0.993   2.533   8.405
 2104SOL     OW 6643   0.980   3.435   9.148
 2104SOL    HW1 6644   0.960   3.479   9.060
 2104SOL    HW2 6645   1.019   3.344   9.132
 2105SOL     OW 6646   1.859   3.380   9.053
 2105SOL    HW1 6647   1.873   3.407   8.958
 2105SOL    HW2 6648   1.942   3.402   9.106
 2106SOL     OW 6649   0.350   2.760   9.252
 2106SOL    HW1 6650   0.426   2.804   9.300
 2106SOL    HW2 6651   0.385   2.713   9.170
 2107SOL     OW 6652   1.540   2.136   7.573
 2107SOL    HW1 6653   1.479   2.061   7.596
 2107SOL    HW2 6654   1.562   2.188   7.656
 2108SOL     OW 6655   1.303   2.700   7.490
 2108SOL    HW1 6656   1.337   2.607   7.505
 2108SOL    HW2 6657   1.321   2.727   7.395
 2109SOL     OW 6658   1.068   3.195   8.297
 2109SOL    HW1 6659   1.075   3.111   8.242
 2109SOL    HW2 6660   1.130   3.264   8.261
 2110SOL     OW 6661   0.319   2.672   8.397
 2110SOL    HW1 6662   0.412   2.708   8.402
 2110SOL    HW2 6663   0.313   2.587   8.449
 2111SOL     OW 6664   0.339   2.371   8.454
 2111SOL    HW1 6665   0.287   2.288   8.437
 2111SOL    HW2 6666   0.416   2.376   8.390
 2112SOL     OW 6667   1.138   2.242   9.126
 2112SOL    HW1 6668   1.093   2.305   9.190
 2112SOL    HW2 6669   1.231   2.273   9.109
 2113SOL     OW 6670   1.160   2.069   8.925
 2113SOL    HW1 6671   1.160   2.133   9.002
 2113SOL    HW2 6672   1.188   2.117   8.842
 2114SOL     OW 6673   0.008   3.188   7.648
 2114SOL    HW1 6674  -0.085   3.209   7.617
 2114SOL    HW2 6675   0.018   3.089   7.661
 2115SOL     OW 6676   0.088   3.663   8.375
 2115SOL    HW1 6677   0.046   3.577   8.348
 2115SOL    HW2 6678   0.182   3.666   8.341
 2116SOL     OW 6679   0.504   3.430   8.358
 2116SOL    HW1 6680   0.570   3.504   8.367
 2116SOL    HW2 6681   0.548   3.351   8.316
 2117SOL     OW 6682   1.002   2.658   8.686
 2117SOL    HW1 6683   1.043   2.626   8.772
 2117SOL    HW2 6684   0.906   2.631   8.683
 2118SOL     OW 6685   0.040   2.406   8.562
 2118SOL    HW1 6686   0.125   2.373   8.521
 2118SOL    HW2 6687   0.053   2.421   8.660
 2119SOL     OW 6688   0.189   2.382   9.170
 2119SOL    HW1 6689   0.248   2.342   9.100
 2119SOL    HW2 6690   0.131   2.453   9.129
 2120SOL     OW 6691   1.369   2.812   9.108
 2120SOL    HW1 6692   1.408   2.901   9.128
 2120SOL    HW2 6693   1.379   2.792   9.011
 2121SOL     OW 6694   0.815   2.434   7.773
 2121SOL    HW1 6695   0.822   2.345   7.727
 2121SOL    HW2 6696   0.721   2.468   7.765
 2122SOL     OW 6697   1.657   2.466   8.654
 2122SOL    HW1 6698   1.619   2.397   8.716
 2122SOL    HW2 6699   1.739   2.430   8.610
 2123SOL     OW 6700   0.252   3.426   9.192
 2123SOL    HW1 6701   0.222   3.483   9.268
 2123SOL    HW2 6702   0.245   3.329   9.218
 2124SOL     OW 6703   0.671   2.326   8.717
 2124SOL    HW1 6704   0.637   2.237   8.687
 2124SOL    HW2 6705   0.697   2.380   8.637
 2125SOL     OW 6706   0.930   3.540   8.913
 2125SOL    HW1 6707   0.906   3.522   8.818
 2125SOL    HW2 6708   0.960   3.634   8.923
 2126SOL     OW 6709   0.473   2.362   7.639
 2126SOL    HW1 6710   0.534   2.442   7.643
 2126SOL    HW2 6711   0.378   2.393   7.646
 2127SOL     OW 6712   0.159   2.999   8.914
 2127SOL    HW1 6713   0.181   2.938   8.990
 2127SOL    HW2 6714   0.169   2.950   8.828
 2128SOL     OW 6715   1.347   2.921   8.682
 2128SOL    HW1 6716   1.371   2.858   8.608
 2128SOL    HW2 6717   1.257   2.961   8.664
 2129SOL     OW 6718   1.302   2.717   7.757
 2129SOL    HW1 6719   1.216   2.686   7.799
 2129SOL    HW2 6720   1.298   2.703   7.658
 2130SOL     OW 6721   1.759   3.609   8.602
 2130SOL    HW1 6722   1.820   3.639   8.529
 2130SOL    HW2 6723   1.721   3.520   8.580
 2131SOL     OW 6724   1.252   3.593   8.576
 2131SOL    HW1 6725   1.336   3.598   8.522
 2131SOL    HW2 6726   1.229   3.497   8.594
 2132SOL     OW 6727   0.083   3.120   8.470
 2132SOL    HW1 6728   0.078   3.119   8.570
 2132SOL    HW2 6729   0.000   3.079   8.432
 2133SOL     OW 6730   0.688   3.524   9.164
 2133SOL    HW1 6731   0.632   3.605   9.173
 2133SOL    HW2 6732   0.740   3.528   9.078
 2134SOL     OW 6733   1.726   1.997   7.971
 2134SOL    HW1 6734   1.799   1.980   7.904
 2134SOL    HW2 6735   1.695   1.910   8.009
 2135SOL     OW 6736   1.388   3.435   7.925
 2135SOL    HW1 6737   1.455   3.447   7.851
 2135SOL    HW2 6738   1.348   3.524   7.948
 2136SOL     OW 6739   0.130   3.656   9.299
 2136SOL    HW1 6740   0.089   3.582   9.352
 2136SOL    HW2 6741   0.194   3.707   9.357
 2137SOL     OW 6742   1.280   2.789   8.120
 2137SOL    HW1 6743   1.340   2.708   8.122
 2137SOL    HW2 6744   1.320   2.858   8.060
 2138SOL     OW 6745   0.830   3.135   8.870
 2138SOL    HW1 6746   0.825   3.168   8.965
 2138SOL    HW2 6747   0.744   3.154   8.824
 2139SOL     OW 6748   0.672   3.478   7.602
 2139SOL    HW1 6749   0.681   3.488   7.503
 2139SOL    HW2 6750   0.632   3.389   7.623
 2140SOL     OW 6751   1.650   3.582   8.842
 2140SOL    HW1 6752   1.703   3.592   8.758
 2140SOL    HW2 6753   1.623   3.672   8.876
 2141SOL     OW 6754   1.841   2.037   8.411
 2141SOL    HW1 6755   1.880   1.952   8.375
 2141SOL    HW2 6756   1.743   2.039   8.392
 2142SOL     OW 6757   0.263   2.188   8.168
 2142SOL    HW1 6758   0.184   2.239   8.134
 2142SOL    HW2 6759   0.254   2.173   8.266
 2143SOL     OW 6760   1.194   3.474   7.479
 2143SOL    HW1 6761   1.200   3.381   7.516
 2143SOL    HW2 6762   1.135   3.474   7.399
 2144SOL     OW 6763   0.822   2.864   8.820
 2144SOL    HW1 6764   0.862   2.863   8.728
 2144SOL    HW2 6765   0.832   2.956   8.860
 2145SOL     OW 6766   0.916   2.772   7.739
 2145SOL    HW1 6767   0.979   2.810   7.671
 2145SOL    HW2 6768   0.956   2.689   7.778
 2146SOL     OW 6769   1.504   3.469   7.492
 2146SOL    HW1 6770   1.412   3.506   7.499
 2146SOL    HW2 6771   1.542   3.489   7.402
 2147SOL     OW 6772   0.372   3.150   8.938
 2147SOL    HW1 6773   0.359   3.243   8.904
 2147SOL    HW2 6774   0.288   3.098   8.925
 2148SOL     OW 6775   1.614   3.154   8.737
 2148SOL    HW1 6776   1.674   3.157   8.817
 2148SOL    HW2 6777   1.539   3.218   8.750
 2149SOL     OW 6778   1.039   2.960   8.144
 2149SOL    HW1 6779   0.969   2.913   8.198
 2149SOL    HW2 6780   1.098   2.892   8.101
 2150SOL     OW 6781   1.014   2.098   8.419
 2150SOL    HW1 6782   1.006   2.062   8.326
 2150SOL    HW2 6783   1.012   2.022   8.484
 2151SOL     OW 6784   0.590   3.349   7.939
 2151SOL    HW1 6785   0.632   3.291   7.869
 2151SOL    HW2 6786   0.546   3.428   7.895
 2152SOL     OW 6787   1.709   2.247   8.829
 2152SOL    HW1 6788   1.782   2.316   8.833
 2152SOL    HW2 6789   1.737   2.172   8.770
 2153SOL     OW 6790   0.255   3.210   7.738
 2153SOL    HW1 6791   0.159   3.211   7.711
 2153SOL    HW2 6792   0.267   3.263   7.822
 2154SOL     OW 6793   0.105   2.875   9.174
 2154SOL    HW1 6794   0.028   2.842   9.228
 2154SOL    HW2 6795   0.190   2.845   9.216
 2155SOL     OW 6796   0.672   2.065   8.937
 2155SOL    HW1 6797   0.762   2.049   8.897
 2155SOL    HW2 6798   0.680   2.070   9.036
 2156SOL     OW 6799   0.075   2.207   7.481
 2156SOL    HW1 6800  -0.017   2.179   7.452
 2156SOL    HW2 6801   0.106   2.284   7.425
 2157SOL     OW 6802   1.440   2.718   8.846
 2157SOL    HW1 6803   1.383   2.770   8.783
 2157SOL    HW2 6804   1.536   2.730   8.822
 2158SOL     OW 6805   0.072   2.028   7.766
 2158SOL    HW1 6806   0.055   2.111   7.712
 2158SOL    HW2 6807   0.162   1.991   7.744
 2159SOL     OW 6808   1.183   3.197   7.567
 2159SOL    HW1 6809   1.084   3.186   7.569
 2159SOL    HW2 6810   1.217   3.212   7.660
 2160SOL     OW 6811   0.613   2.704   8.879
 2160SOL    HW1 6812   0.669   2.785   8.862
 2160SOL    HW2 6813   0.672   2.624   8.882
 2161SOL     OW 6814   1.493   3.629   8.407
 2161SOL    HW1 6815   1.526   3.693   8.338
 2161SOL    HW2 6816   1.559   3.623   8.482
 2162SOL     OW 6817   0.716   2.427   9.156
 2162SOL    HW1 6818   0.735   2.492   9.230
 2162SOL    HW2 6819   0.776   2.347   9.165
 2163SOL     OW 6820   1.450   3.082   9.081
 2163SOL    HW1 6821   1.441   3.072   9.180
 2163SOL    HW2 6822   1.546   3.075   9.055
 2164SOL     OW 6823   0.390   3.603   9.008
 2164SOL    HW1 6824   0.299   3.644   9.006
 2164SOL    HW2 6825   0.383   3.509   9.040
 2165SOL     OW 6826   1.674   2.745   8.702
 2165SOL    HW1 6827   1.647   2.656   8.665
 2165SOL    HW2 6828   1.675   2.813   8.629
 2166SOL     OW 6829   1.225   2.187   7.897
 2166SOL    HW1 6830   1.290   2.113   7.886
 2166SOL    HW2 6831   1.245   2.237   7.981
 2167SOL     OW 6832   0.594   2.607   8.100
 2167SOL    HW1 6833   0.644   2.692   8.081
 2167SOL    HW2 6834   0.506   2.609   8.052
 2168SOL     OW 6835   1.777   2.204   9.090
 2168SOL    HW1 6836   1.760   2.235   8.996
 2168SOL    HW2 6837   1.693   2.167   9.128
 2169SOL     OW 6838   1.730   2.796   8.965
 2169SOL    HW1 6839   1.768   2.887   8.980
 2169SOL    HW2 6840   1.722   2.779   8.866
 2170SOL     OW 6841   0.859   3.236   7.464
 2170SOL    HW1 6842   0.813   3.251   7.552
 2170SOL    HW2 6843   0.903   3.321   7.434
 2171SOL     OW 6844   0.661   3.652   8.401
 2171SOL    HW1 6845   0.615   3.740   8.388
 2171SOL    HW2 6846   0.760   3.664   8.394
 2172SOL     OW 6847   0.859   2.818   8.309
 2172SOL    HW1 6848   0.913   2.749   8.357
 2172SOL    HW2 6849   0.827   2.887   8.375
 2173SOL     OW 6850   1.083   2.846   7.535
 2173SOL    HW1 6851   1.060   2.899   7.453
 2173SOL    HW2 6852   1.164   2.790   7.516
 2174SOL     OW 6853   1.861   3.431   8.299
 2174SOL    HW1 6854   1.790   3.419   8.229
 2174SOL    HW2 6855   1.862   3.352   8.359
 2175SOL     OW 6856   0.221   3.176   9.292
 2175SOL    HW1 6857   0.156   3.103   9.271
 2175SOL    HW2 6858   0.225   3.190   9.390
 2176SOL     OW 6859   0.079   3.102   8.101
 2176SOL    HW1 6860   0.078   3.055   8.189
 2176SOL    HW2 6861   0.161   3.074   8.050
 2177SOL     OW 6862   0.672   3.253   9.072
 2177SOL    HW1 6863   0.594   3.203   9.110
 2177SOL    HW2 6864   0.669   3.348   9.103
 2178SOL     OW 6865   1.824   2.054   8.675
 2178SOL    HW1 6866   1.820   1.964   8.719
 2178SOL    HW2 6867   1.827   2.043   8.576
 2179SOL     OW 6868   0.428   2.286   7.968
 2179SOL    HW1 6869   0.458   2.214   7.906
 2179SOL    HW2 6870   0.389   2.246   8.051
 2180SOL     OW 6871   1.705   3.349   8.552
 2180SOL    HW1 6872   1.612   3.324   8.525
 2180SOL    HW2 6873   1.731   3.299   8.634
 2181SOL     OW 6874   0.317   2.409   8.728
 2181SOL    HW1 6875   0.355   2.350   8.800
 2181SOL    HW2 6876   0.357   2.383   8.640
 2182SOL     OW 6877   0.812   3.448   8.135
 2182SOL    HW1 6878   0.844   3.458   8.041
 2182SOL    HW2 6879   0.733   3.386   8.137
 2183SOL     OW 6880   1.424   2.076   8.560
 2183SOL    HW1 6881   1.476   2.011   8.615
 2183SOL    HW2 6882   1.375   2.139   8.621
 2184SOL     OW 6883   1.001   1.896   8.602
 2184SOL    HW1 6884   0.938   1.824   8.571
 2184SOL    HW2 6885   1.094   1.860   8.602
 2185SOL     OW 6886   0.770   3.192   7.749
 2185SOL    HW1 6887   0.724   3.105   7.766
 2185SOL    HW2 6888   0.861   3.189   7.790
 2186SOL     OW 6889   0.618   3.429   8.732
 2186SOL    HW1 6890   0.613   3.511   8.789
 2186SOL    HW2 6891   0.707   3.426   8.687
 2187SOL     OW 6892   1.352   1.914   7.616
 2187SOL    HW1 6893   1.387   1.873   7.532
 2187SOL    HW2 6894   1.262   1.876   7.636
 2188SOL     OW 6895   1.300   2.315   8.139
 2188SOL    HW1 6896   1.241   2.395   8.143
 2188SOL    HW2 6897   1.315   2.280   8.232
 2189SOL     OW 6898   1.593   2.083   8.330
 2189SOL    HW1 6899   1.509   2.082   8.384
 2189SOL    HW2 6900   1.595   2.166   8.274
 2190SOL     OW 6901   0.039   2.939   7.748
 2190SOL    HW1 6902   0.138   2.928   7.739
 2190SOL    HW2 6903  -0.001   2.853   7.780
 2191SOL     OW 6904   0.875   3.508   7.785
 2191SOL    HW1 6905   0.798   3.473   7.731
 2191SOL    HW2 6906   0.843   3.579   7.847
 2192SOL     OW 6907   0.230   2.490   9.423
 2192SOL    HW1 6908   0.137   2.488   9.460
 2192SOL    HW2 6909   0.231   2.451   9.331
 2193SOL     OW 6910   1.755   2.469   9.541
 2193SOL    HW1 6911   1.743   2.456   9.442
 2193SOL    HW2 6912   1.725   2.388   9.590
 2194SOL     OW 6913   0.231   3.575   9.793
 2194SOL    HW1 6914   0.265   3.652   9.847
 2194SOL    HW2 6915   0.275   3.575   9.703
 2195SOL     OW 6916   0.230   3.296   9.848
 2195SOL    HW1 6917   0.204   3.392   9.848
 2195SOL    HW2 6918   0.159   3.242   9.893
 2196SOL     OW 6919   0.606   2.826   9.433
 2196SOL    HW1 6920   0.613   2.910   9.379
 2196SOL    HW2 6921   0.652   2.839   9.521
 2197SOL     OW 6922   0.122   2.505   9.873
 2197SOL    HW1 6923   0.077   2.417   9.890
 2197SOL    HW2 6924   0.121   2.559   9.957
 2198SOL     OW 6925   1.842   3.629   9.669
 2198SOL    HW1 6926   1.896   3.600   9.749
 2198SOL    HW2 6927   1.872   3.719   9.640
 2199SOL     OW 6928   0.027   3.458   9.427
 2199SOL    HW1 6929   0.008   3.362   9.448
 2199SOL    HW2 6930  -0.006   3.516   9.502
 2200SOL     OW 6931   1.689   2.784   9.922
 2200SOL    HW1 6932   1.784   2.755   9.930
 2200SOL    HW2 6933   1.681   2.849   9.847
 2201SOL     OW 6934   1.641   2.970   9.742
 2201SOL    HW1 6935   1.727   2.972   9.690
 2201SOL    HW2 6936   1.655   3.017   9.830
 2202SOL     OW 6937   0.613   3.227  10.036
 2202SOL    HW1 6938   0.564   3.140  10.045
 2202SOL    HW2 6939   0.590   3.270   9.949
 2203SOL     OW 6940   0.809   1.866   9.812
 2203SOL    HW1 6941   0.849   1.957   9.803
 2203SOL    HW2 6942   0.709   1.874   9.818
 2204SOL     OW 6943   1.525   2.861   9.500
 2204SOL    HW1 6944   1.462   2.785   9.513
 2204SOL    HW2 6945   1.573   2.879   9.586
 2205SOL     OW 6946   0.598   2.591   9.580
 2205SOL    HW1 6947   0.622   2.660   9.512
 2205SOL    HW2 6948   0.520   2.624   9.634
 2206SOL     OW 6949   1.576   3.524   9.617
 2206SOL    HW1 6950   1.665   3.570   9.620
 2206SOL    HW2 6951   1.555   3.500   9.522
 2207SOL     OW 6952   1.041   2.563   9.739
 2207SOL    HW1 6953   1.067   2.559   9.835
 2207SOL    HW2 6954   0.956   2.512   9.725
 2208SOL     OW 6955   0.076   2.673  10.099
 2208SOL    HW1 6956   0.175   2.661  10.108
 2208SOL    HW2 6957   0.052   2.768  10.120
 2209SOL     OW 6958   0.865   2.210   9.505
 2209SOL    HW1 6959   0.924   2.273   9.456
 2209SOL    HW2 6960   0.884   2.116   9.476
 2210SOL     OW 6961   1.362   3.006   9.855
 2210SOL    HW1 6962   1.445   2.977   9.807
 2210SOL    HW2 6963   1.313   3.073   9.799
 2211SOL     OW 6964   1.008   3.318   9.787
 2211SOL    HW1 6965   0.962   3.390   9.735
 2211SOL    HW2 6966   1.004   3.338   9.885
 2212SOL     OW 6967   0.351   3.663  10.163
 2212SOL    HW1 6968   0.401   3.577  10.169
 2212SOL    HW2 6969   0.416   3.740  10.160
 2213SOL     OW 6970   0.321   2.805   9.552
 2213SOL    HW1 6971   0.403   2.844   9.510
 2213SOL    HW2 6972   0.294   2.723   9.503
 2214SOL     OW 6973   1.111   3.638   9.547
 2214SOL    HW1 6974   1.051   3.576   9.597
 2214SOL    HW2 6975   1.142   3.594   9.462
 2215SOL     OW 6976   1.632   3.239   9.391
 2215SOL    HW1 6977   1.600   3.333   9.381
 2215SOL    HW2 6978   1.556   3.176   9.379
 2216SOL     OW 6979   0.464   3.605   9.633
 2216SOL    HW1 6980   0.497   3.644   9.719
 2216SOL    HW2 6981   0.540   3.598   9.568
 2217SOL     OW 6982   1.400   1.969   9.736
 2217SOL    HW1 6983   1.376   1.932   9.646
 2217SOL    HW2 6984   1.499   1.985   9.740
 2218SOL     OW 6985   0.382   2.562   9.790
 2218SOL    HW1 6986   0.427   2.472   9.787
 2218SOL    HW2 6987   0.288   2.551   9.823
 2219SOL     OW 6988   0.614   1.984   9.427
 2219SOL    HW1 6989   0.712   1.962   9.434
 2219SOL    HW2 6990   0.583   1.967   9.334
 2220SOL     OW 6991   0.539   1.926   9.822
 2220SOL    HW1 6992   0.458   1.927   9.880
 2220SOL    HW2 6993   0.542   2.009   9.767
 2221SOL     OW 6994   1.434   3.050   9.351
 2221SOL    HW1 6995   1.466   2.974   9.408
 2221SOL    HW2 6996   1.342   3.077   9.381
 2222SOL     OW 6997   0.297   1.897   9.481
 2222SOL    HW1 6998   0.346   1.981   9.460
 2222SOL    HW2 6999   0.359   1.832   9.526
 2223SOL     OW 7000   0.935   2.098   9.790
 2223SOL    HW1 7001   0.887   2.139   9.712
 2223SOL    HW2 7002   1.034   2.096   9.771
 2224SOL     OW 7003   0.459   3.014  10.051
 2224SOL    HW1 7004   0.388   2.987  10.116
 2224SOL    HW2 7005   0.433   2.986   9.958
 2225SOL     OW 7006   1.271   3.659   9.901
 2225SOL    HW1 7007   1.315   3.723   9.837
 2225SOL    HW2 7008   1.221   3.711   9.971
 2226SOL     OW 7009   1.032   2.411   9.326
 2226SOL    HW1 7010   0.991   2.493   9.287
 2226SOL    HW2 7011   1.096   2.437   9.399
 2227SOL     OW 7012   0.866   2.316   9.952
 2227SOL    HW1 7013   0.834   2.388   9.890
 2227SOL    HW2 7014   0.890   2.235   9.899
 2228SOL     OW 7015   1.857   2.695   9.687
 2228SOL    HW1 7016   1.899   2.631   9.751
 2228SOL    HW2 7017   1.819   2.644   9.609
 2229SOL     OW 7018   0.488   3.247   9.484
 2229SOL    HW1 7019   0.401   3.232   9.531
 2229SOL    HW2 7020   0.471   3.273   9.389
 2230SOL     OW 7021   1.390   2.437   9.388
 2230SOL    HW1 7022   1.336   2.416   9.469
 2230SOL    HW2 7023   1.481   2.396   9.397
 2231SOL     OW 7024   0.527   2.118   9.638
 2231SOL    HW1 7025   0.554   2.059   9.563
 2231SOL    HW2 7026   0.527   2.213   9.607
 2232SOL     OW 7027   0.705   2.912   9.678
 2232SOL    HW1 7028   0.691   2.919   9.777
 2232SOL    HW2 7029   0.789   2.861   9.660
 2233SOL     OW 7030   0.367   2.962   9.811
 2233SOL    HW1 7031   0.360   3.045   9.755
 2233SOL    HW2 7032   0.371   2.882   9.751
 2234SOL     OW 7033   1.252   3.210   9.698
 2234SOL    HW1 7034   1.302   3.287   9.738
 2234SOL    HW2 7035   1.157   3.212   9.730
 2235SOL     OW 7036   1.582   2.501   9.782
 2235SOL    HW1 7037   1.551   2.562   9.855
 2235SOL    HW2 7038   1.632   2.553   9.713
 2236SOL     OW 7039   1.209   2.387   9.585
 2236SOL    HW1 7040   1.222   2.303   9.639
 2236SOL    HW2 7041   1.180   2.461   9.645
 2237SOL     OW 7042   0.307   1.925   9.928
 2237SOL    HW1 7043   0.296   2.019   9.961
 2237SOL    HW2 7044   0.302   1.862  10.005
 2238SOL     OW 7045   1.622   2.229   9.684
 2238SOL    HW1 7046   1.624   2.153   9.748
 2238SOL    HW2 7047   1.574   2.306   9.724
 2239SOL     OW 7048   1.540   2.136   9.435
 2239SOL    HW1 7049   1.479   2.061   9.458
 2239SOL    HW2 7050   1.562   2.188   9.518
 2240SOL     OW 7051   1.303   2.700   9.352
 2240SOL    HW1 7052   1.337   2.607   9.367
 2240SOL    HW2 7053   1.321   2.727   9.257
 2241SOL     OW 7054   0.008   3.188   9.510
 2241SOL    HW1 7055  -0.085   3.209   9.479
 2241SOL    HW2 7056   0.018   3.089   9.523
 2242SOL     OW 7057   0.815   2.434   9.635
 2242SOL    HW1 7058   0.822   2.345   9.589
 2242SOL    HW2 7059   0.721   2.468   9.627
 2243SOL     OW 7060   0.473   2.362   9.501
 2243SOL    HW1 7061   0.534   2.442   9.505
 2243SOL    HW2 7062   0.378   2.393   9.508
 2244SOL     OW 7063   1.302   2.717   9.619
 2244SOL    HW1 7064   1.216   2.686   9.661
 2244SOL    HW2 7065   1.298   2.703   9.520
 2245SOL     OW 7066   1.726   1.997   9.833
 2245SOL    HW1 7067   1.799   1.980   9.766
 2245SOL    HW2 7068   1.695   1.910   9.871
 2246SOL     OW 7069   1.388   3.435   9.787
 2246SOL    HW1 7070   1.455   3.447   9.713
 2246SOL    HW2 7071   1.348   3.524   9.810
 2247SOL     OW 7072   0.672   3.478   9.464
 2247SOL    HW1 7073   0.681   3.488   9.365
 2247SOL    HW2 7074   0.632   3.389   9.485
 2248SOL     OW 7075   1.194   3.474   9.341
 2248SOL    HW1 7076   1.200   3.381   9.378
 2248SOL    HW2 7077   1.135   3.474   9.261
 2249SOL     OW 7078   0.916   2.772   9.601
 2249SOL    HW1 7079   0.979   2.810   9.533
 2249SOL    HW2 7080   0.956   2.689   9.640
 2250SOL     OW 7081   1.504   3.469   9.354
 2250SOL    HW1 7082   1.412   3.506   9.361
 2250SOL    HW2 7083   1.542   3.489   9.264
 2251SOL     OW 7084   0.590   3.349   9.801
 2251SOL    HW1 7085   0.632   3.291   9.731
 2251SOL    HW2 7086   0.546   3.428   9.757
 2252SOL     OW 7087   0.255   3.210   9.600
 2252SOL    HW1 7088   0.159   3.211   9.573
 2252SOL    HW2 7089   0.267   3.263   9.684
 2253SOL     OW 7090   0.075   2.207   9.343
 2253SOL    HW1 7091  -0.017   2.179   9.314
 2253SOL    HW2 7092   0.106   2.284   9.287
 2254SOL     OW 7093   0.072   2.028   9.628
 2254SOL    HW1 7094   0.055   2.111   9.574
 2254SOL    HW2 7095   0.162   1.991   9.606
 2255SOL     OW 7096   1.183   3.197   9.429
 2255SOL    HW1 7097   1.084   3.186   9.431
 2255SOL    HW2 7098   1.217   3.212   9.522
 2256SOL     OW 7099   1.225   2.187   9.759
 2256SOL    HW1 7100   1.290   2.113   9.748
 2256SOL    HW2 7101   1.245   2.237   9.843
 2257SOL     OW 7102   0.594   2.607   9.962
 2257SOL    HW1 7103   0.644   2.692   9.943
 2257SOL    HW2 7104   0.506   2.609   9.914
 2258SOL     OW 7105   0.859   3.236   9.326
 2258SOL    HW1 7106   0.813   3.251   9.414
 2258SOL    HW2 7107   0.903   3.321   9.296
 2259SOL     OW 7108   1.083   2.846   9.397
 2259SOL    HW1 7109   1.060   2.899   9.315
 2259SOL    HW2 7110   1.164   2.790   9.378
 2260SOL     OW 7111   0.079   3.102   9.963
 2260SOL    HW1 7112   0.078   3.055  10.051
 2260SOL    HW2 7113   0.161   3.074   9.912
 2261SOL     OW 7114   0.428   2.286   9.830
 2261SOL    HW1 7115   0.458   2.214   9.768
 2261SOL    HW2 7116   0.389   2.246   9.913
 2262SOL     OW 7117   0.770   3.192   9.611
 2262SOL    HW1 7118   0.724   3.105   9.628
 2262SOL    HW2 7119   0.861   3.189   9.652
 2263SOL     OW 7120   1.352   1.914   9.478
 2263SOL    HW1 7121   1.387   1.873   9.394
 2263SOL    HW2 7122   1.262   1.876   9.498
 2264SOL     OW 7123   0.039   2.939   9.610
 2264SOL    HW1 7124   0.138   2.928   9.601
 2264SOL    HW2 7125  -0.001   2.853   9.642
 2265SOL     OW 7126   0.875   3.508   9.647
 2265SOL    HW1 7127   0.798   3.473   9.593
 2265SOL    HW2 7128   0.843   3.579   9.709
 2266SOL     OW 7129   0.230   4.352   0.113
 2266SOL    HW1 7130   0.137   4.350   0.150
 2266SOL    HW2 7131   0.231   4.313   0.021
 2267SOL     OW 7132   0.225   3.999   0.996
 2267SOL    HW1 7133   0.260   3.982   1.088
 2267SOL    HW2 7134   0.137   3.954   0.984
 2268SOL     OW 7135   0.019   4.092   0.647
 2268SOL    HW1 7136  -0.063   4.135   0.686
 2268SOL    HW2 7137  -0.009   4.019   0.584
 2269SOL     OW 7138   1.135   4.427   0.717
 2269SOL    HW1 7139   1.192   4.505   0.692
 2269SOL    HW2 7140   1.075   4.453   0.793
 2270SOL     OW 7141   1.755   4.331   0.231
 2270SOL    HW1 7142   1.743   4.318   0.132
 2270SOL    HW2 7143   1.725   4.250   0.280
 2271SOL     OW 7144   0.850   4.522   1.823
 2271SOL    HW1 7145   0.846   4.598   1.888
 2271SOL    HW2 7146   0.872   4.558   1.732
 2272SOL     OW 7147   0.685   4.736   0.665
 2272SOL    HW1 7148   0.754   4.720   0.735
 2272SOL    HW2 7149   0.612   4.793   0.703
 2273SOL     OW 7150   0.438   4.116   1.499
 2273SOL    HW1 7151   0.520   4.060   1.508
 2273SOL    HW2 7152   0.357   4.058   1.503
 2274SOL     OW 7153   1.603   4.171   0.737
 2274SOL    HW1 7154   1.529   4.217   0.687
 2274SOL    HW2 7155   1.654   4.239   0.790
 2275SOL     OW 7156   1.594   3.838   1.480
 2275SOL    HW1 7157   1.576   3.905   1.408
 2275SOL    HW2 7158   1.591   3.884   1.569
 2276SOL     OW 7159   0.122   4.367   0.563
 2276SOL    HW1 7160   0.077   4.279   0.580
 2276SOL    HW2 7161   0.121   4.421   0.647
 2277SOL     OW 7162   0.113   4.461   1.597
 2277SOL    HW1 7163   0.201   4.448   1.642
 2277SOL    HW2 7164   0.100   4.558   1.575
 2278SOL     OW 7165   0.809   3.728   0.502
 2278SOL    HW1 7166   0.849   3.819   0.493
 2278SOL    HW2 7167   0.709   3.736   0.508
 2279SOL     OW 7168   0.197   4.700   1.264
 2279SOL    HW1 7169   0.286   4.655   1.250
 2279SOL    HW2 7170   0.124   4.635   1.245
 2280SOL     OW 7171   1.525   4.723   0.190
 2280SOL    HW1 7172   1.462   4.647   0.203
 2280SOL    HW2 7173   1.573   4.741   0.276
 2281SOL     OW 7174   0.317   3.975   1.801
 2281SOL    HW1 7175   0.388   4.046   1.807
 2281SOL    HW2 7176   0.229   4.014   1.829
 2282SOL     OW 7177   0.598   4.453   0.270
 2282SOL    HW1 7178   0.622   4.522   0.202
 2282SOL    HW2 7179   0.520   4.486   0.324
 2283SOL     OW 7180   1.281   4.069   0.944
 2283SOL    HW1 7181   1.195   4.019   0.931
 2283SOL    HW2 7182   1.343   4.015   1.000
 2284SOL     OW 7183   0.807   4.329   1.465
 2284SOL    HW1 7184   0.760   4.326   1.554
 2284SOL    HW2 7185   0.756   4.274   1.399
 2285SOL     OW 7186   1.394   4.193   1.674
 2285SOL    HW1 7187   1.374   4.236   1.762
 2285SOL    HW2 7188   1.472   4.131   1.683
 2286SOL     OW 7189   0.973   4.614   1.572
 2286SOL    HW1 7190   1.019   4.530   1.543
 2286SOL    HW2 7191   0.917   4.648   1.497
 2287SOL     OW 7192   0.991   4.134   1.242
 2287SOL    HW1 7193   0.914   4.168   1.296
 2287SOL    HW2 7194   0.957   4.083   1.163
 2288SOL     OW 7195   1.041   4.425   0.429
 2288SOL    HW1 7196   1.067   4.421   0.525
 2288SOL    HW2 7197   0.956   4.374   0.415
 2289SOL     OW 7198   0.076   4.535   0.789
 2289SOL    HW1 7199   0.175   4.523   0.798
 2289SOL    HW2 7200   0.052   4.630   0.810
 2290SOL     OW 7201   0.865   4.072   0.195
 2290SOL    HW1 7202   0.924   4.135   0.146
 2290SOL    HW2 7203   0.884   3.978   0.166
 2291SOL     OW 7204   1.719   4.309   1.831
 2291SOL    HW1 7205   1.693   4.398   1.795
 2291SOL    HW2 7206   1.717   4.241   1.758
 2292SOL     OW 7207   0.550   3.920   0.885
 2292SOL    HW1 7208   0.545   3.915   0.985
 2292SOL    HW2 7209   0.552   4.016   0.856
 2293SOL     OW 7210   1.458   4.459   0.728
 2293SOL    HW1 7211   1.453   4.394   0.803
 2293SOL    HW2 7212   1.538   4.518   0.741
 2294SOL     OW 7213   0.202   4.009   1.498
 2294SOL    HW1 7214   0.122   4.069   1.485
 2294SOL    HW2 7215   0.192   3.960   1.584
 2295SOL     OW 7216   1.400   3.831   0.426
 2295SOL    HW1 7217   1.376   3.794   0.336
 2295SOL    HW2 7218   1.499   3.847   0.430
 2296SOL     OW 7219   0.382   4.424   0.480
 2296SOL    HW1 7220   0.427   4.334   0.477
 2296SOL    HW2 7221   0.288   4.413   0.513
 2297SOL     OW 7222   1.547   3.946   1.729
 2297SOL    HW1 7223   1.542   3.983   1.821
 2297SOL    HW2 7224   1.475   3.877   1.717
 2298SOL     OW 7225   0.614   3.846   0.117
 2298SOL    HW1 7226   0.712   3.824   0.124
 2298SOL    HW2 7227   0.583   3.829   0.024
 2299SOL     OW 7228   0.781   3.988   1.749
 2299SOL    HW1 7229   0.848   3.927   1.792
 2299SOL    HW2 7230   0.708   4.007   1.814
 2300SOL     OW 7231   1.351   4.314   1.433
 2300SOL    HW1 7232   1.379   4.271   1.518
 2300SOL    HW2 7233   1.376   4.410   1.434
 2301SOL     OW 7234   0.922   4.227   0.899
 2301SOL    HW1 7235   0.897   4.218   0.803
 2301SOL    HW2 7236   0.970   4.145   0.930
 2302SOL     OW 7237   0.539   3.788   0.512
 2302SOL    HW1 7238   0.458   3.789   0.570
 2302SOL    HW2 7239   0.542   3.871   0.457
 2303SOL     OW 7240   0.935   3.960   0.480
 2303SOL    HW1 7241   0.887   4.001   0.402
 2303SOL    HW2 7242   1.034   3.958   0.461
 2304SOL     OW 7243   1.076   4.407   1.464
 2304SOL    HW1 7244   0.996   4.346   1.467
 2304SOL    HW2 7245   1.157   4.354   1.440
 2305SOL     OW 7246   1.032   4.273   0.016
 2305SOL    HW1 7247   0.991   4.355  -0.023
 2305SOL    HW2 7248   1.096   4.299   0.089
 2306SOL     OW 7249   0.078   4.280   1.386
 2306SOL    HW1 7250   0.170   4.279   1.345
 2306SOL    HW2 7251   0.072   4.354   1.453
 2307SOL     OW 7252   0.561   3.946   1.147
 2307SOL    HW1 7253   0.599   3.862   1.184
 2307SOL    HW2 7254   0.473   3.965   1.191
 2308SOL     OW 7255   0.866   4.178   0.642
 2308SOL    HW1 7256   0.834   4.250   0.580
 2308SOL    HW2 7257   0.890   4.097   0.589
 2309SOL     OW 7258   1.017   3.763   0.753
 2309SOL    HW1 7259   0.945   3.768   0.684
 2309SOL    HW2 7260   0.993   3.694   0.822
 2310SOL     OW 7261   1.466   4.314   0.992
 2310SOL    HW1 7262   1.436   4.219   0.999
 2310SOL    HW2 7263   1.539   4.330   1.058
 2311SOL     OW 7264   1.857   4.557   0.377
 2311SOL    HW1 7265   1.899   4.493   0.441
 2311SOL    HW2 7266   1.819   4.506   0.299
 2312SOL     OW 7267   1.390   4.299   0.078
 2312SOL    HW1 7268   1.336   4.278   0.159
 2312SOL    HW2 7269   1.481   4.258   0.087
 2313SOL     OW 7270   0.527   3.980   0.328
 2313SOL    HW1 7271   0.554   3.921   0.253
 2313SOL    HW2 7272   0.527   4.075   0.297
 2314SOL     OW 7273   1.638   4.823   1.079
 2314SOL    HW1 7274   1.643   4.904   1.138
 2314SOL    HW2 7275   1.552   4.825   1.028
 2315SOL     OW 7276   0.915   3.813   1.402
 2315SOL    HW1 7277   0.940   3.793   1.307
 2315SOL    HW2 7278   0.987   3.869   1.444
 2316SOL     OW 7279   0.410   4.537   1.251
 2316SOL    HW1 7280   0.496   4.549   1.301
 2316SOL    HW2 7281   0.368   4.450   1.278
 2317SOL     OW 7282   1.274   4.110   1.262
 2317SOL    HW1 7283   1.295   4.184   1.326
 2317SOL    HW2 7284   1.185   4.127   1.219
 2318SOL     OW 7285   0.566   4.261   0.865
 2318SOL    HW1 7286   0.578   4.327   0.791
 2318SOL    HW2 7287   0.612   4.295   0.948
 2319SOL     OW 7288   1.582   4.363   0.472
 2319SOL    HW1 7289   1.551   4.424   0.545
 2319SOL    HW2 7290   1.632   4.415   0.403
 2320SOL     OW 7291   0.402   4.475   1.598
 2320SOL    HW1 7292   0.470   4.530   1.551
 2320SOL    HW2 7293   0.442   4.387   1.625
 2321SOL     OW 7294   1.587   4.503   1.670
 2321SOL    HW1 7295   1.495   4.541   1.665
 2321SOL    HW2 7296   1.647   4.550   1.605
 2322SOL     OW 7297   1.013   3.829   1.770
 2322SOL    HW1 7298   1.019   3.914   1.718
 2322SOL    HW2 7299   1.045   3.753   1.713
 2323SOL     OW 7300   0.504   3.774   1.740
 2323SOL    HW1 7301   0.462   3.717   1.670
 2323SOL    HW2 7302   0.438   3.843   1.772
 2324SOL     OW 7303   0.573   4.594   1.029
 2324SOL    HW1 7304   0.617   4.683   1.020
 2324SOL    HW2 7305   0.510   4.594   1.106
 2325SOL     OW 7306   1.360   4.586   1.045
 2325SOL    HW1 7307   1.285   4.586   0.979
 2325SOL    HW2 7308   1.397   4.494   1.054
 2326SOL     OW 7309   1.209   4.249   0.275
 2326SOL    HW1 7310   1.222   4.165   0.329
 2326SOL    HW2 7311   1.180   4.323   0.335
 2327SOL     OW 7312   0.307   3.937   1.231
 2327SOL    HW1 7313   0.284   3.974   1.321
 2327SOL    HW2 7314   0.277   3.842   1.225
 2328SOL     OW 7315   0.037   5.034   1.282
 2328SOL    HW1 7316   0.090   4.985   1.350
 2328SOL    HW2 7317   0.059   5.132   1.287
 2329SOL     OW 7318   0.732   4.358   1.064
 2329SOL    HW1 7319   0.791   4.332   0.988
 2329SOL    HW2 7320   0.704   4.454   1.053
 2330SOL     OW 7321   1.728   4.659   1.854
 2330SOL    HW1 7322   1.682   4.652   1.765
 2330SOL    HW2 7323   1.666   4.703   1.920
 2331SOL     OW 7324   0.307   3.787   0.618
 2331SOL    HW1 7325   0.296   3.881   0.651
 2331SOL    HW2 7326   0.302   3.724   0.695
 2332SOL     OW 7327   1.622   4.091   0.374
 2332SOL    HW1 7328   1.624   4.015   0.438
 2332SOL    HW2 7329   1.574   4.168   0.414
 2333SOL     OW 7330   1.023   4.490   0.966
 2333SOL    HW1 7331   1.038   4.511   1.062
 2333SOL    HW2 7332   0.993   4.395   0.957
 2334SOL     OW 7333   0.350   4.622   1.804
 2334SOL    HW1 7334   0.426   4.666   1.852
 2334SOL    HW2 7335   0.385   4.575   1.722
 2335SOL     OW 7336   1.540   3.998   0.125
 2335SOL    HW1 7337   1.479   3.923   0.148
 2335SOL    HW2 7338   1.562   4.050   0.208
 2336SOL     OW 7339   1.303   4.562   0.042
 2336SOL    HW1 7340   1.337   4.469   0.057
 2336SOL    HW2 7341   1.321   4.589  -0.053
 2337SOL     OW 7342   0.319   4.534   0.949
 2337SOL    HW1 7343   0.412   4.570   0.954
 2337SOL    HW2 7344   0.313   4.449   1.001
 2338SOL     OW 7345   0.339   4.233   1.006
 2338SOL    HW1 7346   0.287   4.150   0.989
 2338SOL    HW2 7347   0.416   4.238   0.942
 2339SOL     OW 7348   1.138   4.104   1.678
 2339SOL    HW1 7349   1.093   4.167   1.742
 2339SOL    HW2 7350   1.231   4.135   1.661
 2340SOL     OW 7351   1.160   3.931   1.477
 2340SOL    HW1 7352   1.160   3.995   1.554
 2340SOL    HW2 7353   1.188   3.979   1.394
 2341SOL     OW 7354   1.002   4.520   1.238
 2341SOL    HW1 7355   1.043   4.488   1.324
 2341SOL    HW2 7356   0.906   4.493   1.235
 2342SOL     OW 7357   0.040   4.268   1.114
 2342SOL    HW1 7358   0.125   4.235   1.073
 2342SOL    HW2 7359   0.053   4.283   1.212
 2343SOL     OW 7360   0.189   4.244   1.722
 2343SOL    HW1 7361   0.248   4.204   1.652
 2343SOL    HW2 7362   0.131   4.315   1.681
 2344SOL     OW 7363   1.369   4.674   1.660
 2344SOL    HW1 7364   1.408   4.763   1.680
 2344SOL    HW2 7365   1.379   4.654   1.563
 2345SOL     OW 7366   0.815   4.296   0.325
 2345SOL    HW1 7367   0.822   4.207   0.279
 2345SOL    HW2 7368   0.721   4.330   0.317
 2346SOL     OW 7369   1.657   4.328   1.206
 2346SOL    HW1 7370   1.619   4.259   1.268
 2346SOL    HW2 7371   1.739   4.292   1.162
 2347SOL     OW 7372   0.671   4.188   1.269
 2347SOL    HW1 7373   0.637   4.099   1.239
 2347SOL    HW2 7374   0.697   4.242   1.189
 2348SOL     OW 7375   0.473   4.224   0.191
 2348SOL    HW1 7376   0.534   4.304   0.195
 2348SOL    HW2 7377   0.378   4.255   0.198
 2349SOL     OW 7378   1.347   4.783   1.234
 2349SOL    HW1 7379   1.371   4.720   1.160
 2349SOL    HW2 7380   1.257   4.823   1.216
 2350SOL     OW 7381   1.302   4.579   0.309
 2350SOL    HW1 7382   1.216   4.548   0.351
 2350SOL    HW2 7383   1.298   4.565   0.210
 2351SOL     OW 7384   0.903   3.810   0.133
 2351SOL    HW1 7385   0.954   3.811   0.047
 2351SOL    HW2 7386   0.959   3.768   0.204
 2352SOL     OW 7387   1.726   3.859   0.523
 2352SOL    HW1 7388   1.799   3.842   0.456
 2352SOL    HW2 7389   1.695   3.772   0.561
 2353SOL     OW 7390   1.280   4.651   0.672
 2353SOL    HW1 7391   1.340   4.570   0.674
 2353SOL    HW2 7392   1.320   4.720   0.612
 2354SOL     OW 7393   1.841   3.899   0.963
 2354SOL    HW1 7394   1.880   3.814   0.927
 2354SOL    HW2 7395   1.743   3.901   0.944
 2355SOL     OW 7396   0.263   4.050   0.720
 2355SOL    HW1 7397   0.184   4.101   0.686
 2355SOL    HW2 7398   0.254   4.035   0.818
 2356SOL     OW 7399   1.014   3.960   0.971
 2356SOL    HW1 7400   1.006   3.924   0.878
 2356SOL    HW2 7401   1.012   3.884   1.036
 2357SOL     OW 7402   1.709   4.109   1.381
 2357SOL    HW1 7403   1.782   4.178   1.385
 2357SOL    HW2 7404   1.737   4.034   1.322
 2358SOL     OW 7405   0.105   4.737   1.726
 2358SOL    HW1 7406   0.028   4.704   1.780
 2358SOL    HW2 7407   0.190   4.707   1.768
 2359SOL     OW 7408   0.672   3.927   1.489
 2359SOL    HW1 7409   0.762   3.911   1.449
 2359SOL    HW2 7410   0.680   3.932   1.588
 2360SOL     OW 7411   0.075   4.069   0.033
 2360SOL    HW1 7412  -0.017   4.041   0.004
 2360SOL    HW2 7413   0.106   4.146  -0.023
 2361SOL     OW 7414   1.440   4.580   1.398
 2361SOL    HW1 7415   1.383   4.632   1.335
 2361SOL    HW2 7416   1.536   4.592   1.374
 2362SOL     OW 7417   0.072   3.890   0.318
 2362SOL    HW1 7418   0.055   3.973   0.264
 2362SOL    HW2 7419   0.162   3.853   0.296
 2363SOL     OW 7420   0.613   4.566   1.431
 2363SOL    HW1 7421   0.669   4.647   1.414
 2363SOL    HW2 7422   0.672   4.486   1.434
 2364SOL     OW 7423   0.716   4.289   1.708
 2364SOL    HW1 7424   0.735   4.354   1.782
 2364SOL    HW2 7425   0.776   4.209   1.717
 2365SOL     OW 7426   1.674   4.607   1.254
 2365SOL    HW1 7427   1.647   4.518   1.217
 2365SOL    HW2 7428   1.675   4.675   1.181
 2366SOL     OW 7429   1.225   4.049   0.449
 2366SOL    HW1 7430   1.290   3.975   0.438
 2366SOL    HW2 7431   1.245   4.099   0.533
 2367SOL     OW 7432   0.594   4.469   0.652
 2367SOL    HW1 7433   0.644   4.554   0.633
 2367SOL    HW2 7434   0.506   4.471   0.604
 2368SOL     OW 7435   1.777   4.066   1.642
 2368SOL    HW1 7436   1.760   4.097   1.548
 2368SOL    HW2 7437   1.693   4.029   1.680
 2369SOL     OW 7438   1.730   4.658   1.517
 2369SOL    HW1 7439   1.768   4.749   1.532
 2369SOL    HW2 7440   1.722   4.641   1.418
 2370SOL     OW 7441   1.824   3.916   1.227
 2370SOL    HW1 7442   1.820   3.826   1.271
 2370SOL    HW2 7443   1.827   3.905   1.128
 2371SOL     OW 7444   0.428   4.148   0.520
 2371SOL    HW1 7445   0.458   4.076   0.458
 2371SOL    HW2 7446   0.389   4.108   0.603
 2372SOL     OW 7447   0.317   4.271   1.280
 2372SOL    HW1 7448   0.355   4.212   1.352
 2372SOL    HW2 7449   0.357   4.245   1.192
 2373SOL     OW 7450   1.424   3.938   1.112
 2373SOL    HW1 7451   1.476   3.873   1.167
 2373SOL    HW2 7452   1.375   4.001   1.173
 2374SOL     OW 7453   1.001   3.758   1.154
 2374SOL    HW1 7454   0.938   3.686   1.123
 2374SOL    HW2 7455   1.094   3.722   1.154
 2375SOL     OW 7456   1.352   3.776   0.168
 2375SOL    HW1 7457   1.387   3.735   0.084
 2375SOL    HW2 7458   1.262   3.738   0.188
 2376SOL     OW 7459   1.300   4.177   0.691
 2376SOL    HW1 7460   1.241   4.257   0.695
 2376SOL    HW2 7461   1.315   4.142   0.784
 2377SOL     OW 7462   1.593   3.945   0.882
 2377SOL    HW1 7463   1.509   3.944   0.936
 2377SOL    HW2 7464   1.595   4.028   0.826
 2378SOL     OW 7465   0.230   4.352   1.975
 2378SOL    HW1 7466   0.137   4.350   2.012
 2378SOL    HW2 7467   0.231   4.313   1.883
 2379SOL     OW 7468   0.225   3.999   2.858
 2379SOL    HW1 7469   0.260   3.982   2.950
 2379SOL    HW2 7470   0.137   3.954   2.846
 2380SOL     OW 7471   0.019   4.092   2.509
 2380SOL    HW1 7472  -0.063   4.135   2.548
 2380SOL    HW2 7473  -0.009   4.019   2.446
 2381SOL     OW 7474   1.135   4.427   2.579
 2381SOL    HW1 7475   1.192   4.505   2.554
 2381SOL    HW2 7476   1.075   4.453   2.655
 2382SOL     OW 7477   1.755   4.331   2.093
 2382SOL    HW1 7478   1.743   4.318   1.994
 2382SOL    HW2 7479   1.725   4.250   2.142
 2383SOL     OW 7480   0.850   4.522   3.685
 2383SOL    HW1 7481   0.846   4.598   3.750
 2383SOL    HW2 7482   0.872   4.558   3.594
 2384SOL     OW 7483   0.685   4.736   2.527
 2384SOL    HW1 7484   0.754   4.720   2.597
 2384SOL    HW2 7485   0.612   4.793   2.565
 2385SOL     OW 7486   0.438   4.116   3.361
 2385SOL    HW1 7487   0.520   4.060   3.370
 2385SOL    HW2 7488   0.357   4.058   3.365
 2386SOL     OW 7489   1.603   4.171   2.599
 2386SOL    HW1 7490   1.529   4.217   2.549
 2386SOL    HW2 7491   1.654   4.239   2.652
 2387SOL     OW 7492   1.594   3.838   3.342
 2387SOL    HW1 7493   1.576   3.905   3.270
 2387SOL    HW2 7494   1.591   3.884   3.431
 2388SOL     OW 7495   0.122   4.367   2.425
 2388SOL    HW1 7496   0.077   4.279   2.442
 2388SOL    HW2 7497   0.121   4.421   2.509
 2389SOL     OW 7498   0.113   4.461   3.459
 2389SOL    HW1 7499   0.201   4.448   3.504
 2389SOL    HW2 7500   0.100   4.558   3.437
 2390SOL     OW 7501   0.809   3.728   2.364
 2390SOL    HW1 7502   0.849   3.819   2.355
 2390SOL    HW2 7503   0.709   3.736   2.370
 2391SOL     OW 7504   0.197   4.700   3.126
 2391SOL    HW1 7505   0.286   4.655   3.112
 2391SOL    HW2 7506   0.124   4.635   3.107
 2392SOL     OW 7507   1.525   4.723   2.052
 2392SOL    HW1 7508   1.462   4.647   2.065
 2392SOL    HW2 7509   1.573   4.741   2.138
 2393SOL     OW 7510   0.317   3.975   3.663
 2393SOL    HW1 7511   0.388   4.046   3.669
 2393SOL    HW2 7512   0.229   4.014   3.691
 2394SOL     OW 7513   0.598   4.453   2.132
 2394SOL    HW1 7514   0.622   4.522   2.064
 2394SOL    HW2 7515   0.520   4.486   2.186
 2395SOL     OW 7516   1.281   4.069   2.806
 2395SOL    HW1 7517   1.195   4.019   2.793
 2395SOL    HW2 7518   1.343   4.015   2.862
 2396SOL     OW 7519   0.807   4.329   3.327
 2396SOL    HW1 7520   0.760   4.326   3.416
 2396SOL    HW2 7521   0.756   4.274   3.261
 2397SOL     OW 7522   1.394   4.193   3.536
 2397SOL    HW1 7523   1.374   4.236   3.624
 2397SOL    HW2 7524   1.472   4.131   3.545
 2398SOL     OW 7525   0.973   4.614   3.434
 2398SOL    HW1 7526   1.019   4.530   3.405
 2398SOL    HW2 7527   0.917   4.648   3.359
 2399SOL     OW 7528   0.991   4.134   3.104
 2399SOL    HW1 7529   0.914   4.168   3.158
 2399SOL    HW2 7530   0.957   4.083   3.025
 2400SOL     OW 7531   1.041   4.425   2.291
 2400SOL    HW1 7532   1.067   4.421   2.387
 2400SOL    HW2 7533   0.956   4.374   2.277
 2401SOL     OW 7534   0.076   4.535   2.651
 2401SOL    HW1 7535   0.175   4.523   2.660
 2401SOL    HW2 7536   0.052   4.630   2.672
 2402SOL     OW 7537   0.865   4.072   2.057
 2402SOL    HW1 7538   0.924   4.135   2.008
 2402SOL    HW2 7539   0.884   3.978   2.028
 2403SOL     OW 7540   1.719   4.309   3.693
 2403SOL    HW1 7541   1.693   4.398   3.657
 2403SOL    HW2 7542   1.717   4.241   3.620
 2404SOL     OW 7543   0.550   3.920   2.747
 2404SOL    HW1 7544   0.545   3.915   2.847
 2404SOL    HW2 7545   0.552   4.016   2.718
 2405SOL     OW 7546   1.458   4.459   2.590
 2405SOL    HW1 7547   1.453   4.394   2.665
 2405SOL    HW2 7548   1.538   4.518   2.603
 2406SOL     OW 7549   0.202   4.009   3.360
 2406SOL    HW1 7550   0.122   4.069   3.347
 2406SOL    HW2 7551   0.192   3.960   3.446
 2407SOL     OW 7552   1.400   3.831   2.288
 2407SOL    HW1 7553   1.376   3.794   2.198
 2407SOL    HW2 7554   1.499   3.847   2.292
 2408SOL     OW 7555   0.382   4.424   2.342
 2408SOL    HW1 7556   0.427   4.334   2.339
 2408SOL    HW2 7557   0.288   4.413   2.375
 2409SOL     OW 7558   1.547   3.946   3.591
 2409SOL    HW1 7559   1.542   3.983   3.683
 2409SOL    HW2 7560   1.475   3.877   3.579
 2410SOL     OW 7561   0.614   3.846   1.979
 2410SOL    HW1 7562   0.712   3.824   1.986
 2410SOL    HW2 7563   0.583   3.829   1.886
 2411SOL     OW 7564   0.781   3.988   3.611
 2411SOL    HW1 7565   0.848   3.927   3.654
 2411SOL    HW2 7566   0.708   4.007   3.676
 2412SOL     OW 7567   1.351   4.314   3.295
 2412SOL    HW1 7568   1.379   4.271   3.380
 2412SOL    HW2 7569   1.376   4.410   3.296
 2413SOL     OW 7570   0.922   4.227   2.761
 2413SOL    HW1 7571   0.897   4.218   2.665
 2413SOL    HW2 7572   0.970   4.145   2.792
 2414SOL     OW 7573   0.539   3.788   2.374
 2414SOL    HW1 7574   0.458   3.789   2.432
 2414SOL    HW2 7575   0.542   3.871   2.319
 2415SOL     OW 7576   0.297   3.759   2.033
 2415SOL    HW1 7577   0.346   3.843   2.012
 2415SOL    HW2 7578   0.359   3.694   2.078
 2416SOL     OW 7579   0.935   3.960   2.342
 2416SOL    HW1 7580   0.887   4.001   2.264
 2416SOL    HW2 7581   1.034   3.958   2.323
 2417SOL     OW 7582   1.076   4.407   3.326
 2417SOL    HW1 7583   0.996   4.346   3.329
 2417SOL    HW2 7584   1.157   4.354   3.302
 2418SOL     OW 7585   1.032   4.273   1.878
 2418SOL    HW1 7586   0.991   4.355   1.839
 2418SOL    HW2 7587   1.096   4.299   1.951
 2419SOL     OW 7588   0.078   4.280   3.248
 2419SOL    HW1 7589   0.170   4.279   3.207
 2419SOL    HW2 7590   0.072   4.354   3.315
 2420SOL     OW 7591   0.561   3.946   3.009
 2420SOL    HW1 7592   0.599   3.862   3.046
 2420SOL    HW2 7593   0.473   3.965   3.053
 2421SOL     OW 7594   0.866   4.178   2.504
 2421SOL    HW1 7595   0.834   4.250   2.442
 2421SOL    HW2 7596   0.890   4.097   2.451
 2422SOL     OW 7597   1.017   3.763   2.615
 2422SOL    HW1 7598   0.945   3.768   2.546
 2422SOL    HW2 7599   0.993   3.694   2.684
 2423SOL     OW 7600   1.466   4.314   2.854
 2423SOL    HW1 7601   1.436   4.219   2.861
 2423SOL    HW2 7602   1.539   4.330   2.920
 2424SOL     OW 7603   1.857   4.557   2.239
 2424SOL    HW1 7604   1.899   4.493   2.303
 2424SOL    HW2 7605   1.819   4.506   2.161
 2425SOL     OW 7606   1.390   4.299   1.940
 2425SOL    HW1 7607   1.336   4.278   2.021
 2425SOL    HW2 7608   1.481   4.258   1.949
 2426SOL     OW 7609   0.527   3.980   2.190
 2426SOL    HW1 7610   0.554   3.921   2.115
 2426SOL    HW2 7611   0.527   4.075   2.159
 2427SOL     OW 7612   1.638   4.823   2.941
 2427SOL    HW1 7613   1.643   4.904   3.000
 2427SOL    HW2 7614   1.552   4.825   2.890
 2428SOL     OW 7615   0.915   3.813   3.264
 2428SOL    HW1 7616   0.940   3.793   3.169
 2428SOL    HW2 7617   0.987   3.869   3.306
 2429SOL     OW 7618   0.410   4.537   3.113
 2429SOL    HW1 7619   0.496   4.549   3.163
 2429SOL    HW2 7620   0.368   4.450   3.140
 2430SOL     OW 7621   1.274   4.110   3.124
 2430SOL    HW1 7622   1.295   4.184   3.188
 2430SOL    HW2 7623   1.185   4.127   3.081
 2431SOL     OW 7624   0.566   4.261   2.727
 2431SOL    HW1 7625   0.578   4.327   2.653
 2431SOL    HW2 7626   0.612   4.295   2.810
 2432SOL     OW 7627   1.582   4.363   2.334
 2432SOL    HW1 7628   1.551   4.424   2.407
 2432SOL    HW2 7629   1.632   4.415   2.265
 2433SOL     OW 7630   0.402   4.475   3.460
 2433SOL    HW1 7631   0.470   4.530   3.413
 2433SOL    HW2 7632   0.442   4.387   3.487
 2434SOL     OW 7633   1.587   4.503   3.532
 2434SOL    HW1 7634   1.495   4.541   3.527
 2434SOL    HW2 7635   1.647   4.550   3.467
 2435SOL     OW 7636   1.013   3.829   3.632
 2435SOL    HW1 7637   1.019   3.914   3.580
 2435SOL    HW2 7638   1.045   3.753   3.575
 2436SOL     OW 7639   0.504   3.774   3.602
 2436SOL    HW1 7640   0.462   3.717   3.532
 2436SOL    HW2 7641   0.438   3.843   3.634
 2437SOL     OW 7642   0.573   4.594   2.891
 2437SOL    HW1 7643   0.617   4.683   2.882
 2437SOL    HW2 7644   0.510   4.594   2.968
 2438SOL     OW 7645   1.360   4.586   2.907
 2438SOL    HW1 7646   1.285   4.586   2.841
 2438SOL    HW2 7647   1.397   4.494   2.916
 2439SOL     OW 7648   1.209   4.249   2.137
 2439SOL    HW1 7649   1.222   4.165   2.191
 2439SOL    HW2 7650   1.180   4.323   2.197
 2440SOL     OW 7651   0.307   3.937   3.093
 2440SOL    HW1 7652   0.284   3.974   3.183
 2440SOL    HW2 7653   0.277   3.842   3.087
 2441SOL     OW 7654   0.037   5.034   3.144
 2441SOL    HW1 7655   0.090   4.985   3.212
 2441SOL    HW2 7656   0.059   5.132   3.149
 2442SOL     OW 7657   0.732   4.358   2.926
 2442SOL    HW1 7658   0.791   4.332   2.850
 2442SOL    HW2 7659   0.704   4.454   2.915
 2443SOL     OW 7660   1.728   4.659   3.716
 2443SOL    HW1 7661   1.682   4.652   3.627
 2443SOL    HW2 7662   1.666   4.703   3.782
 2444SOL     OW 7663   0.307   3.787   2.480
 2444SOL    HW1 7664   0.296   3.881   2.513
 2444SOL    HW2 7665   0.302   3.724   2.557
 2445SOL     OW 7666   1.622   4.091   2.236
 2445SOL    HW1 7667   1.624   4.015   2.300
 2445SOL    HW2 7668   1.574   4.168   2.276
 2446SOL     OW 7669   1.023   4.490   2.828
 2446SOL    HW1 7670   1.038   4.511   2.924
 2446SOL    HW2 7671   0.993   4.395   2.819
 2447SOL     OW 7672   0.350   4.622   3.666
 2447SOL    HW1 7673   0.426   4.666   3.714
 2447SOL    HW2 7674   0.385   4.575   3.584
 2448SOL     OW 7675   1.540   3.998   1.987
 2448SOL    HW1 7676   1.479   3.923   2.010
 2448SOL    HW2 7677   1.562   4.050   2.070
 2449SOL     OW 7678   1.303   4.562   1.904
 2449SOL    HW1 7679   1.337   4.469   1.919
 2449SOL    HW2 7680   1.321   4.589   1.809
 2450SOL     OW 7681   0.319   4.534   2.811
 2450SOL    HW1 7682   0.412   4.570   2.816
 2450SOL    HW2 7683   0.313   4.449   2.863
 2451SOL     OW 7684   0.339   4.233   2.868
 2451SOL    HW1 7685   0.287   4.150   2.851
 2451SOL    HW2 7686   0.416   4.238   2.804
 2452SOL     OW 7687   1.138   4.104   3.540
 2452SOL    HW1 7688   1.093   4.167   3.604
 2452SOL    HW2 7689   1.231   4.135   3.523
 2453SOL     OW 7690   1.160   3.931   3.339
 2453SOL    HW1 7691   1.160   3.995   3.416
 2453SOL    HW2 7692   1.188   3.979   3.256
 2454SOL     OW 7693   1.002   4.520   3.100
 2454SOL    HW1 7694   1.043   4.488   3.186
 2454SOL    HW2 7695   0.906   4.493   3.097
 2455SOL     OW 7696   0.040   4.268   2.976
 2455SOL    HW1 7697   0.125   4.235   2.935
 2455SOL    HW2 7698   0.053   4.283   3.074
 2456SOL     OW 7699   0.189   4.244   3.584
 2456SOL    HW1 7700   0.248   4.204   3.514
 2456SOL    HW2 7701   0.131   4.315   3.543
 2457SOL     OW 7702   1.369   4.674   3.522
 2457SOL    HW1 7703   1.408   4.763   3.542
 2457SOL    HW2 7704   1.379   4.654   3.425
 2458SOL     OW 7705   0.815   4.296   2.187
 2458SOL    HW1 7706   0.822   4.207   2.141
 2458SOL    HW2 7707   0.721   4.330   2.179
 2459SOL     OW 7708   1.657   4.328   3.068
 2459SOL    HW1 7709   1.619   4.259   3.130
 2459SOL    HW2 7710   1.739   4.292   3.024
 2460SOL     OW 7711   0.671   4.188   3.131
 2460SOL    HW1 7712   0.637   4.099   3.101
 2460SOL    HW2 7713   0.697   4.242   3.051
 2461SOL     OW 7714   0.473   4.224   2.053
 2461SOL    HW1 7715   0.534   4.304   2.057
 2461SOL    HW2 7716   0.378   4.255   2.060
 2462SOL     OW 7717   1.347   4.783   3.096
 2462SOL    HW1 7718   1.371   4.720   3.022
 2462SOL    HW2 7719   1.257   4.823   3.078
 2463SOL     OW 7720   1.302   4.579   2.171
 2463SOL    HW1 7721   1.216   4.548   2.213
 2463SOL    HW2 7722   1.298   4.565   2.072
 2464SOL     OW 7723   1.726   3.859   2.385
 2464SOL    HW1 7724   1.799   3.842   2.318
 2464SOL    HW2 7725   1.695   3.772   2.423
 2465SOL     OW 7726   1.280   4.651   2.534
 2465SOL    HW1 7727   1.340   4.570   2.536
 2465SOL    HW2 7728   1.320   4.720   2.474
 2466SOL     OW 7729   1.841   3.899   2.825
 2466SOL    HW1 7730   1.880   3.814   2.789
 2466SOL    HW2 7731   1.743   3.901   2.806
 2467SOL     OW 7732   0.263   4.050   2.582
 2467SOL    HW1 7733   0.184   4.101   2.548
 2467SOL    HW2 7734   0.254   4.035   2.680
 2468SOL     OW 7735   0.916   4.634   2.153
 2468SOL    HW1 7736   0.979   4.672   2.085
 2468SOL    HW2 7737   0.956   4.551   2.192
 2469SOL     OW 7738   1.014   3.960   2.833
 2469SOL    HW1 7739   1.006   3.924   2.740
 2469SOL    HW2 7740   1.012   3.884   2.898
 2470SOL     OW 7741   1.709   4.109   3.243
 2470SOL    HW1 7742   1.782   4.178   3.247
 2470SOL    HW2 7743   1.737   4.034   3.184
 2471SOL     OW 7744   0.105   4.737   3.588
 2471SOL    HW1 7745   0.028   4.704   3.642
 2471SOL    HW2 7746   0.190   4.707   3.630
 2472SOL     OW 7747   0.672   3.927   3.351
 2472SOL    HW1 7748   0.762   3.911   3.311
 2472SOL    HW2 7749   0.680   3.932   3.450
 2473SOL     OW 7750   0.075   4.069   1.895
 2473SOL    HW1 7751  -0.017   4.041   1.866
 2473SOL    HW2 7752   0.106   4.146   1.839
 2474SOL     OW 7753   1.440   4.580   3.260
 2474SOL    HW1 7754   1.383   4.632   3.197
 2474SOL    HW2 7755   1.536   4.592   3.236
 2475SOL     OW 7756   0.072   3.890   2.180
 2475SOL    HW1 7757   0.055   3.973   2.126
 2475SOL    HW2 7758   0.162   3.853   2.158
 2476SOL     OW 7759   0.613   4.566   3.293
 2476SOL    HW1 7760   0.669   4.647   3.276
 2476SOL    HW2 7761   0.672   4.486   3.296
 2477SOL     OW 7762   0.716   4.289   3.570
 2477SOL    HW1 7763   0.735   4.354   3.644
 2477SOL    HW2 7764   0.776   4.209   3.579
 2478SOL     OW 7765   1.674   4.607   3.116
 2478SOL    HW1 7766   1.647   4.518   3.079
 2478SOL    HW2 7767   1.675   4.675   3.043
 2479SOL     OW 7768   1.225   4.049   2.311
 2479SOL    HW1 7769   1.290   3.975   2.300
 2479SOL    HW2 7770   1.245   4.099   2.395
 2480SOL     OW 7771   0.594   4.469   2.514
 2480SOL    HW1 7772   0.644   4.554   2.495
 2480SOL    HW2 7773   0.506   4.471   2.466
 2481SOL     OW 7774   1.777   4.066   3.504
 2481SOL    HW1 7775   1.760   4.097   3.410
 2481SOL    HW2 7776   1.693   4.029   3.542
 2482SOL     OW 7777   1.730   4.658   3.379
 2482SOL    HW1 7778   1.768   4.749   3.394
 2482SOL    HW2 7779   1.722   4.641   3.280
 2483SOL     OW 7780   1.824   3.916   3.089
 2483SOL    HW1 7781   1.820   3.826   3.133
 2483SOL    HW2 7782   1.827   3.905   2.990
 2484SOL     OW 7783   0.428   4.148   2.382
 2484SOL    HW1 7784   0.458   4.076   2.320
 2484SOL    HW2 7785   0.389   4.108   2.465
 2485SOL     OW 7786   0.317   4.271   3.142
 2485SOL    HW1 7787   0.355   4.212   3.214
 2485SOL    HW2 7788   0.357   4.245   3.054
 2486SOL     OW 7789   1.424   3.938   2.974
 2486SOL    HW1 7790   1.476   3.873   3.029
 2486SOL    HW2 7791   1.375   4.001   3.035
 2487SOL     OW 7792   1.001   3.758   3.016
 2487SOL    HW1 7793   0.938   3.686   2.985
 2487SOL    HW2 7794   1.094   3.722   3.016
 2488SOL     OW 7795   1.352   3.776   2.030
 2488SOL    HW1 7796   1.387   3.735   1.946
 2488SOL    HW2 7797   1.262   3.738   2.050
 2489SOL     OW 7798   1.300   4.177   2.553
 2489SOL    HW1 7799   1.241   4.257   2.557
 2489SOL    HW2 7800   1.315   4.142   2.646
 2490SOL     OW 7801   1.593   3.945   2.744
 2490SOL    HW1 7802   1.509   3.944   2.798
 2490SOL    HW2 7803   1.595   4.028   2.688
 2491SOL     OW 7804   0.230   4.352   3.837
 2491SOL    HW1 7805   0.137   4.350   3.874
 2491SOL    HW2 7806   0.231   4.313   3.745
 2492SOL     OW 7807   0.225   3.999   4.720
 2492SOL    HW1 7808   0.260   3.982   4.812
 2492SOL    HW2 7809   0.137   3.954   4.708
 2493SOL     OW 7810   0.019   4.092   4.371
 2493SOL    HW1 7811  -0.063   4.135   4.410
 2493SOL    HW2 7812  -0.009   4.019   4.308
 2494SOL     OW 7813   1.135   4.427   4.441
 2494SOL    HW1 7814   1.192   4.505   4.416
 2494SOL    HW2 7815   1.075   4.453   4.517
 2495SOL     OW 7816   1.755   4.331   3.955
 2495SOL    HW1 7817   1.743   4.318   3.856
 2495SOL    HW2 7818   1.725   4.250   4.004
 2496SOL     OW 7819   0.850   4.522   5.547
 2496SOL    HW1 7820   0.846   4.598   5.612
 2496SOL    HW2 7821   0.872   4.558   5.456
 2497SOL     OW 7822   0.685   4.736   4.389
 2497SOL    HW1 7823   0.754   4.720   4.459
 2497SOL    HW2 7824   0.612   4.793   4.427
 2498SOL     OW 7825   0.438   4.116   5.223
 2498SOL    HW1 7826   0.520   4.060   5.232
 2498SOL    HW2 7827   0.357   4.058   5.227
 2499SOL     OW 7828   1.603   4.171   4.461
 2499SOL    HW1 7829   1.529   4.217   4.411
 2499SOL    HW2 7830   1.654   4.239   4.514
 2500SOL     OW 7831   1.594   3.838   5.204
 2500SOL    HW1 7832   1.576   3.905   5.132
 2500SOL    HW2 7833   1.591   3.884   5.293
 2501SOL     OW 7834   0.122   4.367   4.287
 2501SOL    HW1 7835   0.077   4.279   4.304
 2501SOL    HW2 7836   0.121   4.421   4.371
 2502SOL     OW 7837   0.113   4.461   5.321
 2502SOL    HW1 7838   0.201   4.448   5.366
 2502SOL    HW2 7839   0.100   4.558   5.299
 2503SOL     OW 7840   0.809   3.728   4.226
 2503SOL    HW1 7841   0.849   3.819   4.217
 2503SOL    HW2 7842   0.709   3.736   4.232
 2504SOL     OW 7843   0.197   4.700   4.988
 2504SOL    HW1 7844   0.286   4.655   4.974
 2504SOL    HW2 7845   0.124   4.635   4.969
 2505SOL     OW 7846   1.525   4.723   3.914
 2505SOL    HW1 7847   1.462   4.647   3.927
 2505SOL    HW2 7848   1.573   4.741   4.000
 2506SOL     OW 7849   0.317   3.975   5.525
 2506SOL    HW1 7850   0.388   4.046   5.531
 2506SOL    HW2 7851   0.229   4.014   5.553
 2507SOL     OW 7852   0.598   4.453   3.994
 2507SOL    HW1 7853   0.622   4.522   3.926
 2507SOL    HW2 7854   0.520   4.486   4.048
 2508SOL     OW 7855   1.281   4.069   4.668
 2508SOL    HW1 7856   1.195   4.019   4.655
 2508SOL    HW2 7857   1.343   4.015   4.724
 2509SOL     OW 7858   0.807   4.329   5.189
 2509SOL    HW1 7859   0.760   4.326   5.278
 2509SOL    HW2 7860   0.756   4.274   5.123
 2510SOL     OW 7861   1.394   4.193   5.398
 2510SOL    HW1 7862   1.374   4.236   5.486
 2510SOL    HW2 7863   1.472   4.131   5.407
 2511SOL     OW 7864   0.973   4.614   5.296
 2511SOL    HW1 7865   1.019   4.530   5.267
 2511SOL    HW2 7866   0.917   4.648   5.221
 2512SOL     OW 7867   0.991   4.134   4.966
 2512SOL    HW1 7868   0.914   4.168   5.020
 2512SOL    HW2 7869   0.957   4.083   4.887
 2513SOL     OW 7870   1.041   4.425   4.153
 2513SOL    HW1 7871   1.067   4.421   4.249
 2513SOL    HW2 7872   0.956   4.374   4.139
 2514SOL     OW 7873   0.076   4.535   4.513
 2514SOL    HW1 7874   0.175   4.523   4.522
 2514SOL    HW2 7875   0.052   4.630   4.534
 2515SOL     OW 7876   0.865   4.072   3.919
 2515SOL    HW1 7877   0.924   4.135   3.870
 2515SOL    HW2 7878   0.884   3.978   3.890
 2516SOL     OW 7879   1.719   4.309   5.555
 2516SOL    HW1 7880   1.693   4.398   5.519
 2516SOL    HW2 7881   1.717   4.241   5.482
 2517SOL     OW 7882   0.550   3.920   4.609
 2517SOL    HW1 7883   0.545   3.915   4.709
 2517SOL    HW2 7884   0.552   4.016   4.580
 2518SOL     OW 7885   1.458   4.459   4.452
 2518SOL    HW1 7886   1.453   4.394   4.527
 2518SOL    HW2 7887   1.538   4.518   4.465
 2519SOL     OW 7888   0.202   4.009   5.222
 2519SOL    HW1 7889   0.122   4.069   5.209
 2519SOL    HW2 7890   0.192   3.960   5.308
 2520SOL     OW 7891   1.400   3.831   4.150
 2520SOL    HW1 7892   1.376   3.794   4.060
 2520SOL    HW2 7893   1.499   3.847   4.154
 2521SOL     OW 7894   0.382   4.424   4.204
 2521SOL    HW1 7895   0.427   4.334   4.201
 2521SOL    HW2 7896   0.288   4.413   4.237
 2522SOL     OW 7897   1.547   3.946   5.453
 2522SOL    HW1 7898   1.542   3.983   5.545
 2522SOL    HW2 7899   1.475   3.877   5.441
 2523SOL     OW 7900   0.614   3.846   3.841
 2523SOL    HW1 7901   0.712   3.824   3.848
 2523SOL    HW2 7902   0.583   3.829   3.748
 2524SOL     OW 7903   0.781   3.988   5.473
 2524SOL    HW1 7904   0.848   3.927   5.516
 2524SOL    HW2 7905   0.708   4.007   5.538
 2525SOL     OW 7906   1.351   4.314   5.157
 2525SOL    HW1 7907   1.379   4.271   5.242
 2525SOL    HW2 7908   1.376   4.410   5.158
 2526SOL     OW 7909   0.922   4.227   4.623
 2526SOL    HW1 7910   0.897   4.218   4.527
 2526SOL    HW2 7911   0.970   4.145   4.654
 2527SOL     OW 7912   0.539   3.788   4.236
 2527SOL    HW1 7913   0.458   3.789   4.294
 2527SOL    HW2 7914   0.542   3.871   4.181
 2528SOL     OW 7915   0.297   3.759   3.895
 2528SOL    HW1 7916   0.346   3.843   3.874
 2528SOL    HW2 7917   0.359   3.694   3.940
 2529SOL     OW 7918   0.935   3.960   4.204
 2529SOL    HW1 7919   0.887   4.001   4.126
 2529SOL    HW2 7920   1.034   3.958   4.185
 2530SOL     OW 7921   1.076   4.407   5.188
 2530SOL    HW1 7922   0.996   4.346   5.191
 2530SOL    HW2 7923   1.157   4.354   5.164
 2531SOL     OW 7924   1.032   4.273   3.740
 2531SOL    HW1 7925   0.991   4.355   3.701
 2531SOL    HW2 7926   1.096   4.299   3.813
 2532SOL     OW 7927   0.078   4.280   5.110
 2532SOL    HW1 7928   0.170   4.279   5.069
 2532SOL    HW2 7929   0.072   4.354   5.177
 2533SOL     OW 7930   0.561   3.946   4.871
 2533SOL    HW1 7931   0.599   3.862   4.908
 2533SOL    HW2 7932   0.473   3.965   4.915
 2534SOL     OW 7933   0.866   4.178   4.366
 2534SOL    HW1 7934   0.834   4.250   4.304
 2534SOL    HW2 7935   0.890   4.097   4.313
 2535SOL     OW 7936   1.017   3.763   4.477
 2535SOL    HW1 7937   0.945   3.768   4.408
 2535SOL    HW2 7938   0.993   3.694   4.546
 2536SOL     OW 7939   1.466   4.314   4.716
 2536SOL    HW1 7940   1.436   4.219   4.723
 2536SOL    HW2 7941   1.539   4.330   4.782
 2537SOL     OW 7942   1.857   4.557   4.101
 2537SOL    HW1 7943   1.899   4.493   4.165
 2537SOL    HW2 7944   1.819   4.506   4.023
 2538SOL     OW 7945   1.390   4.299   3.802
 2538SOL    HW1 7946   1.336   4.278   3.883
 2538SOL    HW2 7947   1.481   4.258   3.811
 2539SOL     OW 7948   0.527   3.980   4.052
 2539SOL    HW1 7949   0.554   3.921   3.977
 2539SOL    HW2 7950   0.527   4.075   4.021
 2540SOL     OW 7951   1.638   4.823   4.803
 2540SOL    HW1 7952   1.643   4.904   4.862
 2540SOL    HW2 7953   1.552   4.825   4.752
 2541SOL     OW 7954   0.915   3.813   5.126
 2541SOL    HW1 7955   0.940   3.793   5.031
 2541SOL    HW2 7956   0.987   3.869   5.168
 2542SOL     OW 7957   0.410   4.537   4.975
 2542SOL    HW1 7958   0.496   4.549   5.025
 2542SOL    HW2 7959   0.368   4.450   5.002
 2543SOL     OW 7960   1.274   4.110   4.986
 2543SOL    HW1 7961   1.295   4.184   5.050
 2543SOL    HW2 7962   1.185   4.127   4.943
 2544SOL     OW 7963   0.566   4.261   4.589
 2544SOL    HW1 7964   0.578   4.327   4.515
 2544SOL    HW2 7965   0.612   4.295   4.672
 2545SOL     OW 7966   1.582   4.363   4.196
 2545SOL    HW1 7967   1.551   4.424   4.269
 2545SOL    HW2 7968   1.632   4.415   4.127
 2546SOL     OW 7969   0.402   4.475   5.322
 2546SOL    HW1 7970   0.470   4.530   5.275
 2546SOL    HW2 7971   0.442   4.387   5.349
 2547SOL     OW 7972   1.587   4.503   5.394
 2547SOL    HW1 7973   1.495   4.541   5.389
 2547SOL    HW2 7974   1.647   4.550   5.329
 2548SOL     OW 7975   1.013   3.829   5.494
 2548SOL    HW1 7976   1.019   3.914   5.442
 2548SOL    HW2 7977   1.045   3.753   5.437
 2549SOL     OW 7978   0.504   3.774   5.464
 2549SOL    HW1 7979   0.462   3.717   5.394
 2549SOL    HW2 7980   0.438   3.843   5.496
 2550SOL     OW 7981   0.573   4.594   4.753
 2550SOL    HW1 7982   0.617   4.683   4.744
 2550SOL    HW2 7983   0.510   4.594   4.830
 2551SOL     OW 7984   1.360   4.586   4.769
 2551SOL    HW1 7985   1.285   4.586   4.703
 2551SOL    HW2 7986   1.397   4.494   4.778
 2552SOL     OW 7987   1.209   4.249   3.999
 2552SOL    HW1 7988   1.222   4.165   4.053
 2552SOL    HW2 7989   1.180   4.323   4.059
 2553SOL     OW 7990   0.307   3.937   4.955
 2553SOL    HW1 7991   0.284   3.974   5.045
 2553SOL    HW2 7992   0.277   3.842   4.949
 2554SOL     OW 7993   0.037   5.034   5.006
 2554SOL    HW1 7994   0.090   4.985   5.074
 2554SOL    HW2 7995   0.059   5.132   5.011
 2555SOL     OW 7996   0.732   4.358   4.788
 2555SOL    HW1 7997   0.791   4.332   4.712
 2555SOL    HW2 7998   0.704   4.454   4.777
 2556SOL     OW 7999   1.728   4.659   5.578
 2556SOL    HW1 8000   1.682   4.652   5.489
 2556SOL    HW2 8001   1.666   4.703   5.644
 2557SOL     OW 8002   0.307   3.787   4.342
 2557SOL    HW1 8003   0.296   3.881   4.375
 2557SOL    HW2 8004   0.302   3.724   4.419
 2558SOL     OW 8005   1.622   4.091   4.098
 2558SOL    HW1 8006   1.624   4.015   4.162
 2558SOL    HW2 8007   1.574   4.168   4.138
 2559SOL     OW 8008   1.023   4.490   4.690
 2559SOL    HW1 8009   1.038   4.511   4.786
 2559SOL    HW2 8010   0.993   4.395   4.681
 2560SOL     OW 8011   0.350   4.622   5.528
 2560SOL    HW1 8012   0.426   4.666   5.576
 2560SOL    HW2 8013   0.385   4.575   5.446
 2561SOL     OW 8014   1.540   3.998   3.849
 2561SOL    HW1 8015   1.479   3.923   3.872
 2561SOL    HW2 8016   1.562   4.050   3.932
 2562SOL     OW 8017   1.303   4.562   3.766
 2562SOL    HW1 8018   1.337   4.469   3.781
 2562SOL    HW2 8019   1.321   4.589   3.671
 2563SOL     OW 8020   0.319   4.534   4.673
 2563SOL    HW1 8021   0.412   4.570   4.678
 2563SOL    HW2 8022   0.313   4.449   4.725
 2564SOL     OW 8023   0.339   4.233   4.730
 2564SOL    HW1 8024   0.287   4.150   4.713
 2564SOL    HW2 8025   0.416   4.238   4.666
 2565SOL     OW 8026   1.138   4.104   5.402
 2565SOL    HW1 8027   1.093   4.167   5.466
 2565SOL    HW2 8028   1.231   4.135   5.385
 2566SOL     OW 8029   1.160   3.931   5.201
 2566SOL    HW1 8030   1.160   3.995   5.278
 2566SOL    HW2 8031   1.188   3.979   5.118
 2567SOL     OW 8032   1.002   4.520   4.962
 2567SOL    HW1 8033   1.043   4.488   5.048
 2567SOL    HW2 8034   0.906   4.493   4.959
 2568SOL     OW 8035   0.040   4.268   4.838
 2568SOL    HW1 8036   0.125   4.235   4.797
 2568SOL    HW2 8037   0.053   4.283   4.936
 2569SOL     OW 8038   0.189   4.244   5.446
 2569SOL    HW1 8039   0.248   4.204   5.376
 2569SOL    HW2 8040   0.131   4.315   5.405
 2570SOL     OW 8041   1.369   4.674   5.384
 2570SOL    HW1 8042   1.408   4.763   5.404
 2570SOL    HW2 8043   1.379   4.654   5.287
 2571SOL     OW 8044   0.815   4.296   4.049
 2571SOL    HW1 8045   0.822   4.207   4.003
 2571SOL    HW2 8046   0.721   4.330   4.041
 2572SOL     OW 8047   1.657   4.328   4.930
 2572SOL    HW1 8048   1.619   4.259   4.992
 2572SOL    HW2 8049   1.739   4.292   4.886
 2573SOL     OW 8050   0.671   4.188   4.993
 2573SOL    HW1 8051   0.637   4.099   4.963
 2573SOL    HW2 8052   0.697   4.242   4.913
 2574SOL     OW 8053   0.473   4.224   3.915
 2574SOL    HW1 8054   0.534   4.304   3.919
 2574SOL    HW2 8055   0.378   4.255   3.922
 2575SOL     OW 8056   1.347   4.783   4.958
 2575SOL    HW1 8057   1.371   4.720   4.884
 2575SOL    HW2 8058   1.257   4.823   4.940
 2576SOL     OW 8059   1.302   4.579   4.033
 2576SOL    HW1 8060   1.216   4.548   4.075
 2576SOL    HW2 8061   1.298   4.565   3.934
 2577SOL     OW 8062   1.726   3.859   4.247
 2577SOL    HW1 8063   1.799   3.842   4.180
 2577SOL    HW2 8064   1.695   3.772   4.285
 2578SOL     OW 8065   1.280   4.651   4.396
 2578SOL    HW1 8066   1.340   4.570   4.398
 2578SOL    HW2 8067   1.320   4.720   4.336
 2579SOL     OW 8068   1.841   3.899   4.687
 2579SOL    HW1 8069   1.880   3.814   4.651
 2579SOL    HW2 8070   1.743   3.901   4.668
 2580SOL     OW 8071   0.263   4.050   4.444
 2580SOL    HW1 8072   0.184   4.101   4.410
 2580SOL    HW2 8073   0.254   4.035   4.542
 2581SOL     OW 8074   0.916   4.634   4.015
 2581SOL    HW1 8075   0.979   4.672   3.947
 2581SOL    HW2 8076   0.956   4.551   4.054
 2582SOL     OW 8077   1.014   3.960   4.695
 2582SOL    HW1 8078   1.006   3.924   4.602
 2582SOL    HW2 8079   1.012   3.884   4.760
 2583SOL     OW 8080   1.709   4.109   5.105
 2583SOL    HW1 8081   1.782   4.178   5.109
 2583SOL    HW2 8082   1.737   4.034   5.046
 2584SOL     OW 8083   0.105   4.737   5.450
 2584SOL    HW1 8084   0.028   4.704   5.504
 2584SOL    HW2 8085   0.190   4.707   5.492
 2585SOL     OW 8086   0.672   3.927   5.213
 2585SOL    HW1 8087   0.762   3.911   5.173
 2585SOL    HW2 8088   0.680   3.932   5.312
 2586SOL     OW 8089   0.075   4.069   3.757
 2586SOL    HW1 8090  -0.017   4.041   3.728
 2586SOL    HW2 8091   0.106   4.146   3.701
 2587SOL     OW 8092   1.440   4.580   5.122
 2587SOL    HW1 8093   1.383   4.632   5.059
 2587SOL    HW2 8094   1.536   4.592   5.098
 2588SOL     OW 8095   0.072   3.890   4.042
 2588SOL    HW1 8096   0.055   3.973   3.988
 2588SOL    HW2 8097   0.162   3.853   4.020
 2589SOL     OW 8098   0.613   4.566   5.155
 2589SOL    HW1 8099   0.669   4.647   5.138
 2589SOL    HW2 8100   0.672   4.486   5.158
 2590SOL     OW 8101   0.716   4.289   5.432
 2590SOL    HW1 8102   0.735   4.354   5.506
 2590SOL    HW2 8103   0.776   4.209   5.441
 2591SOL     OW 8104   1.674   4.607   4.978
 2591SOL    HW1 8105   1.647   4.518   4.941
 2591SOL    HW2 8106   1.675   4.675   4.905
 2592SOL     OW 8107   1.225   4.049   4.173
 2592SOL    HW1 8108   1.290   3.975   4.162
 2592SOL    HW2 8109   1.245   4.099   4.257
 2593SOL     OW 8110   0.594   4.469   4.376
 2593SOL    HW1 8111   0.644   4.554   4.357
 2593SOL    HW2 8112   0.506   4.471   4.328
 2594SOL     OW 8113   1.777   4.066   5.366
 2594SOL    HW1 8114   1.760   4.097   5.272
 2594SOL    HW2 8115   1.693   4.029   5.404
 2595SOL     OW 8116   1.730   4.658   5.241
 2595SOL    HW1 8117   1.768   4.749   5.256
 2595SOL    HW2 8118   1.722   4.641   5.142
 2596SOL     OW 8119   1.824   3.916   4.951
 2596SOL    HW1 8120   1.820   3.826   4.995
 2596SOL    HW2 8121   1.827   3.905   4.852
 2597SOL     OW 8122   0.428   4.148   4.244
 2597SOL    HW1 8123   0.458   4.076   4.182
 2597SOL    HW2 8124   0.389   4.108   4.327
 2598SOL     OW 8125   0.317   4.271   5.004
 2598SOL    HW1 8126   0.355   4.212   5.076
 2598SOL    HW2 8127   0.357   4.245   4.916
 2599SOL     OW 8128   1.424   3.938   4.836
 2599SOL    HW1 8129   1.476   3.873   4.891
 2599SOL    HW2 8130   1.375   4.001   4.897
 2600SOL     OW 8131   1.001   3.758   4.878
 2600SOL    HW1 8132   0.938   3.686   4.847
 2600SOL    HW2 8133   1.094   3.722   4.878
 2601SOL     OW 8134   1.352   3.776   3.892
 2601SOL    HW1 8135   1.387   3.735   3.808
 2601SOL    HW2 8136   1.262   3.738   3.912
 2602SOL     OW 8137   1.300   4.177   4.415
 2602SOL    HW1 8138   1.241   4.257   4.419
 2602SOL    HW2 8139   1.315   4.142   4.508
 2603SOL     OW 8140   1.593   3.945   4.606
 2603SOL    HW1 8141   1.509   3.944   4.660
 2603SOL    HW2 8142   1.595   4.028   4.550
 2604SOL     OW 8143   0.230   4.352   5.699
 2604SOL    HW1 8144   0.137   4.350   5.736
 2604SOL    HW2 8145   0.231   4.313   5.607
 2605SOL     OW 8146   0.225   3.999   6.582
 2605SOL    HW1 8147   0.260   3.982   6.674
 2605SOL    HW2 8148   0.137   3.954   6.570
 2606SOL     OW 8149   0.019   4.092   6.233
 2606SOL    HW1 8150  -0.063   4.135   6.272
 2606SOL    HW2 8151  -0.009   4.019   6.170
 2607SOL     OW 8152   1.135   4.427   6.303
 2607SOL    HW1 8153   1.192   4.505   6.278
 2607SOL    HW2 8154   1.075   4.453   6.379
 2608SOL     OW 8155   1.755   4.331   5.817
 2608SOL    HW1 8156   1.743   4.318   5.718
 2608SOL    HW2 8157   1.725   4.250   5.866
 2609SOL     OW 8158   0.850   4.522   7.409
 2609SOL    HW1 8159   0.846   4.598   7.474
 2609SOL    HW2 8160   0.872   4.558   7.318
 2610SOL     OW 8161   0.685   4.736   6.251
 2610SOL    HW1 8162   0.754   4.720   6.321
 2610SOL    HW2 8163   0.612   4.793   6.289
 2611SOL     OW 8164   0.438   4.116   7.085
 2611SOL    HW1 8165   0.520   4.060   7.094
 2611SOL    HW2 8166   0.357   4.058   7.089
 2612SOL     OW 8167   1.603   4.171   6.323
 2612SOL    HW1 8168   1.529   4.217   6.273
 2612SOL    HW2 8169   1.654   4.239   6.376
 2613SOL     OW 8170   1.594   3.838   7.066
 2613SOL    HW1 8171   1.576   3.905   6.994
 2613SOL    HW2 8172   1.591   3.884   7.155
 2614SOL     OW 8173   0.122   4.367   6.149
 2614SOL    HW1 8174   0.077   4.279   6.166
 2614SOL    HW2 8175   0.121   4.421   6.233
 2615SOL     OW 8176   0.113   4.461   7.183
 2615SOL    HW1 8177   0.201   4.448   7.228
 2615SOL    HW2 8178   0.100   4.558   7.161
 2616SOL     OW 8179   0.809   3.728   6.088
 2616SOL    HW1 8180   0.849   3.819   6.079
 2616SOL    HW2 8181   0.709   3.736   6.094
 2617SOL     OW 8182   0.197   4.700   6.850
 2617SOL    HW1 8183   0.286   4.655   6.836
 2617SOL    HW2 8184   0.124   4.635   6.831
 2618SOL     OW 8185   1.525   4.723   5.776
 2618SOL    HW1 8186   1.462   4.647   5.789
 2618SOL    HW2 8187   1.573   4.741   5.862
 2619SOL     OW 8188   0.317   3.975   7.387
 2619SOL    HW1 8189   0.388   4.046   7.393
 2619SOL    HW2 8190   0.229   4.014   7.415
 2620SOL     OW 8191   0.598   4.453   5.856
 2620SOL    HW1 8192   0.622   4.522   5.788
 2620SOL    HW2 8193   0.520   4.486   5.910
 2621SOL     OW 8194   1.281   4.069   6.530
 2621SOL    HW1 8195   1.195   4.019   6.517
 2621SOL    HW2 8196   1.343   4.015   6.586
 2622SOL     OW 8197   0.807   4.329   7.051
 2622SOL    HW1 8198   0.760   4.326   7.140
 2622SOL    HW2 8199   0.756   4.274   6.985
 2623SOL     OW 8200   1.394   4.193   7.260
 2623SOL    HW1 8201   1.374   4.236   7.348
 2623SOL    HW2 8202   1.472   4.131   7.269
 2624SOL     OW 8203   0.973   4.614   7.158
 2624SOL    HW1 8204   1.019   4.530   7.129
 2624SOL    HW2 8205   0.917   4.648   7.083
 2625SOL     OW 8206   0.991   4.134   6.828
 2625SOL    HW1 8207   0.914   4.168   6.882
 2625SOL    HW2 8208   0.957   4.083   6.749
 2626SOL     OW 8209   1.041   4.425   6.015
 2626SOL    HW1 8210   1.067   4.421   6.111
 2626SOL    HW2 8211   0.956   4.374   6.001
 2627SOL     OW 8212   0.076   4.535   6.375
 2627SOL    HW1 8213   0.175   4.523   6.384
 2627SOL    HW2 8214   0.052   4.630   6.396
 2628SOL     OW 8215   0.865   4.072   5.781
 2628SOL    HW1 8216   0.924   4.135   5.732
 2628SOL    HW2 8217   0.884   3.978   5.752
 2629SOL     OW 8218   1.719   4.309   7.417
 2629SOL    HW1 8219   1.693   4.398   7.381
 2629SOL    HW2 8220   1.717   4.241   7.344
 2630SOL     OW 8221   0.550   3.920   6.471
 2630SOL    HW1 8222   0.545   3.915   6.571
 2630SOL    HW2 8223   0.552   4.016   6.442
 2631SOL     OW 8224   1.458   4.459   6.314
 2631SOL    HW1 8225   1.453   4.394   6.389
 2631SOL    HW2 8226   1.538   4.518   6.327
 2632SOL     OW 8227   0.202   4.009   7.084
 2632SOL    HW1 8228   0.122   4.069   7.071
 2632SOL    HW2 8229   0.192   3.960   7.170
 2633SOL     OW 8230   1.400   3.831   6.012
 2633SOL    HW1 8231   1.376   3.794   5.922
 2633SOL    HW2 8232   1.499   3.847   6.016
 2634SOL     OW 8233   0.382   4.424   6.066
 2634SOL    HW1 8234   0.427   4.334   6.063
 2634SOL    HW2 8235   0.288   4.413   6.099
 2635SOL     OW 8236   1.547   3.946   7.315
 2635SOL    HW1 8237   1.542   3.983   7.407
 2635SOL    HW2 8238   1.475   3.877   7.303
 2636SOL     OW 8239   0.614   3.846   5.703
 2636SOL    HW1 8240   0.712   3.824   5.710
 2636SOL    HW2 8241   0.583   3.829   5.610
 2637SOL     OW 8242   0.781   3.988   7.335
 2637SOL    HW1 8243   0.848   3.927   7.378
 2637SOL    HW2 8244   0.708   4.007   7.400
 2638SOL     OW 8245   1.351   4.314   7.019
 2638SOL    HW1 8246   1.379   4.271   7.104
 2638SOL    HW2 8247   1.376   4.410   7.020
 2639SOL     OW 8248   0.922   4.227   6.485
 2639SOL    HW1 8249   0.897   4.218   6.389
 2639SOL    HW2 8250   0.970   4.145   6.516
 2640SOL     OW 8251   0.539   3.788   6.098
 2640SOL    HW1 8252   0.458   3.789   6.156
 2640SOL    HW2 8253   0.542   3.871   6.043
 2641SOL     OW 8254   0.297   3.759   5.757
 2641SOL    HW1 8255   0.346   3.843   5.736
 2641SOL    HW2 8256   0.359   3.694   5.802
 2642SOL     OW 8257   0.935   3.960   6.066
 2642SOL    HW1 8258   0.887   4.001   5.988
 2642SOL    HW2 8259   1.034   3.958   6.047
 2643SOL     OW 8260   1.076   4.407   7.050
 2643SOL    HW1 8261   0.996   4.346   7.053
 2643SOL    HW2 8262   1.157   4.354   7.026
 2644SOL     OW 8263   1.032   4.273   5.602
 2644SOL    HW1 8264   0.991   4.355   5.563
 2644SOL    HW2 8265   1.096   4.299   5.675
 2645SOL     OW 8266   0.078   4.280   6.972
 2645SOL    HW1 8267   0.170   4.279   6.931
 2645SOL    HW2 8268   0.072   4.354   7.039
 2646SOL     OW 8269   0.561   3.946   6.733
 2646SOL    HW1 8270   0.599   3.862   6.770
 2646SOL    HW2 8271   0.473   3.965   6.777
 2647SOL     OW 8272   0.866   4.178   6.228
 2647SOL    HW1 8273   0.834   4.250   6.166
 2647SOL    HW2 8274   0.890   4.097   6.175
 2648SOL     OW 8275   1.017   3.763   6.339
 2648SOL    HW1 8276   0.945   3.768   6.270
 2648SOL    HW2 8277   0.993   3.694   6.408
 2649SOL     OW 8278   1.466   4.314   6.578
 2649SOL    HW1 8279   1.436   4.219   6.585
 2649SOL    HW2 8280   1.539   4.330   6.644
 2650SOL     OW 8281   1.857   4.557   5.963
 2650SOL    HW1 8282   1.899   4.493   6.027
 2650SOL    HW2 8283   1.819   4.506   5.885
 2651SOL     OW 8284   1.390   4.299   5.664
 2651SOL    HW1 8285   1.336   4.278   5.745
 2651SOL    HW2 8286   1.481   4.258   5.673
 2652SOL     OW 8287   0.527   3.980   5.914
 2652SOL    HW1 8288   0.554   3.921   5.839
 2652SOL    HW2 8289   0.527   4.075   5.883
 2653SOL     OW 8290   1.638   4.823   6.665
 2653SOL    HW1 8291   1.643   4.904   6.724
 2653SOL    HW2 8292   1.552   4.825   6.614
 2654SOL     OW 8293   0.915   3.813   6.988
 2654SOL    HW1 8294   0.940   3.793   6.893
 2654SOL    HW2 8295   0.987   3.869   7.030
 2655SOL     OW 8296   0.410   4.537   6.837
 2655SOL    HW1 8297   0.496   4.549   6.887
 2655SOL    HW2 8298   0.368   4.450   6.864
 2656SOL     OW 8299   1.274   4.110   6.848
 2656SOL    HW1 8300   1.295   4.184   6.912
 2656SOL    HW2 8301   1.185   4.127   6.805
 2657SOL     OW 8302   0.566   4.261   6.451
 2657SOL    HW1 8303   0.578   4.327   6.377
 2657SOL    HW2 8304   0.612   4.295   6.534
 2658SOL     OW 8305   1.582   4.363   6.058
 2658SOL    HW1 8306   1.551   4.424   6.131
 2658SOL    HW2 8307   1.632   4.415   5.989
 2659SOL     OW 8308   0.402   4.475   7.184
 2659SOL    HW1 8309   0.470   4.530   7.137
 2659SOL    HW2 8310   0.442   4.387   7.211
 2660SOL     OW 8311   1.587   4.503   7.256
 2660SOL    HW1 8312   1.495   4.541   7.251
 2660SOL    HW2 8313   1.647   4.550   7.191
 2661SOL     OW 8314   1.013   3.829   7.356
 2661SOL    HW1 8315   1.019   3.914   7.304
 2661SOL    HW2 8316   1.045   3.753   7.299
 2662SOL     OW 8317   0.504   3.774   7.326
 2662SOL    HW1 8318   0.462   3.717   7.256
 2662SOL    HW2 8319   0.438   3.843   7.358
 2663SOL     OW 8320   0.573   4.594   6.615
 2663SOL    HW1 8321   0.617   4.683   6.606
 2663SOL    HW2 8322   0.510   4.594   6.692
 2664SOL     OW 8323   1.360   4.586   6.631
 2664SOL    HW1 8324   1.285   4.586   6.565
 2664SOL    HW2 8325   1.397   4.494   6.640
 2665SOL     OW 8326   1.209   4.249   5.861
 2665SOL    HW1 8327   1.222   4.165   5.915
 2665SOL    HW2 8328   1.180   4.323   5.921
 2666SOL     OW 8329   0.307   3.937   6.817
 2666SOL    HW1 8330   0.284   3.974   6.907
 2666SOL    HW2 8331   0.277   3.842   6.811
 2667SOL     OW 8332   0.037   5.034   6.868
 2667SOL    HW1 8333   0.090   4.985   6.936
 2667SOL    HW2 8334   0.059   5.132   6.873
 2668SOL     OW 8335   0.732   4.358   6.650
 2668SOL    HW1 8336   0.791   4.332   6.574
 2668SOL    HW2 8337   0.704   4.454   6.639
 2669SOL     OW 8338   1.728   4.659   7.440
 2669SOL    HW1 8339   1.682   4.652   7.351
 2669SOL    HW2 8340   1.666   4.703   7.506
 2670SOL     OW 8341   0.307   3.787   6.204
 2670SOL    HW1 8342   0.296   3.881   6.237
 2670SOL    HW2 8343   0.302   3.724   6.281
 2671SOL     OW 8344   1.622   4.091   5.960
 2671SOL    HW1 8345   1.624   4.015   6.024
 2671SOL    HW2 8346   1.574   4.168   6.000
 2672SOL     OW 8347   1.023   4.490   6.552
 2672SOL    HW1 8348   1.038   4.511   6.648
 2672SOL    HW2 8349   0.993   4.395   6.543
 2673SOL     OW 8350   0.350   4.622   7.390
 2673SOL    HW1 8351   0.426   4.666   7.438
 2673SOL    HW2 8352   0.385   4.575   7.308
 2674SOL     OW 8353   1.540   3.998   5.711
 2674SOL    HW1 8354   1.479   3.923   5.734
 2674SOL    HW2 8355   1.562   4.050   5.794
 2675SOL     OW 8356   1.303   4.562   5.628
 2675SOL    HW1 8357   1.337   4.469   5.643
 2675SOL    HW2 8358   1.321   4.589   5.533
 2676SOL     OW 8359   0.319   4.534   6.535
 2676SOL    HW1 8360   0.412   4.570   6.540
 2676SOL    HW2 8361   0.313   4.449   6.587
 2677SOL     OW 8362   0.339   4.233   6.592
 2677SOL    HW1 8363   0.287   4.150   6.575
 2677SOL    HW2 8364   0.416   4.238   6.528
 2678SOL     OW 8365   1.138   4.104   7.264
 2678SOL    HW1 8366   1.093   4.167   7.328
 2678SOL    HW2 8367   1.231   4.135   7.247
 2679SOL     OW 8368   1.160   3.931   7.063
 2679SOL    HW1 8369   1.160   3.995   7.140
 2679SOL    HW2 8370   1.188   3.979   6.980
 2680SOL     OW 8371   1.002   4.520   6.824
 2680SOL    HW1 8372   1.043   4.488   6.910
 2680SOL    HW2 8373   0.906   4.493   6.821
 2681SOL     OW 8374   0.040   4.268   6.700
 2681SOL    HW1 8375   0.125   4.235   6.659
 2681SOL    HW2 8376   0.053   4.283   6.798
 2682SOL     OW 8377   0.189   4.244   7.308
 2682SOL    HW1 8378   0.248   4.204   7.238
 2682SOL    HW2 8379   0.131   4.315   7.267
 2683SOL     OW 8380   1.369   4.674   7.246
 2683SOL    HW1 8381   1.408   4.763   7.266
 2683SOL    HW2 8382   1.379   4.654   7.149
 2684SOL     OW 8383   0.815   4.296   5.911
 2684SOL    HW1 8384   0.822   4.207   5.865
 2684SOL    HW2 8385   0.721   4.330   5.903
 2685SOL     OW 8386   1.657   4.328   6.792
 2685SOL    HW1 8387   1.619   4.259   6.854
 2685SOL    HW2 8388   1.739   4.292   6.748
 2686SOL     OW 8389   0.671   4.188   6.855
 2686SOL    HW1 8390   0.637   4.099   6.825
 2686SOL    HW2 8391   0.697   4.242   6.775
 2687SOL     OW 8392   0.473   4.224   5.777
 2687SOL    HW1 8393   0.534   4.304   5.781
 2687SOL    HW2 8394   0.378   4.255   5.784
 2688SOL     OW 8395   1.347   4.783   6.820
 2688SOL    HW1 8396   1.371   4.720   6.746
 2688SOL    HW2 8397   1.257   4.823   6.802
 2689SOL     OW 8398   1.302   4.579   5.895
 2689SOL    HW1 8399   1.216   4.548   5.937
 2689SOL    HW2 8400   1.298   4.565   5.796
 2690SOL     OW 8401   1.726   3.859   6.109
 2690SOL    HW1 8402   1.799   3.842   6.042
 2690SOL    HW2 8403   1.695   3.772   6.147
 2691SOL     OW 8404   1.280   4.651   6.258
 2691SOL    HW1 8405   1.340   4.570   6.260
 2691SOL    HW2 8406   1.320   4.720   6.198
 2692SOL     OW 8407   1.841   3.899   6.549
 2692SOL    HW1 8408   1.880   3.814   6.513
 2692SOL    HW2 8409   1.743   3.901   6.530
 2693SOL     OW 8410   0.263   4.050   6.306
 2693SOL    HW1 8411   0.184   4.101   6.272
 2693SOL    HW2 8412   0.254   4.035   6.404
 2694SOL     OW 8413   0.916   4.634   5.877
 2694SOL    HW1 8414   0.979   4.672   5.809
 2694SOL    HW2 8415   0.956   4.551   5.916
 2695SOL     OW 8416   1.014   3.960   6.557
 2695SOL    HW1 8417   1.006   3.924   6.464
 2695SOL    HW2 8418   1.012   3.884   6.622
 2696SOL     OW 8419   1.709   4.109   6.967
 2696SOL    HW1 8420   1.782   4.178   6.971
 2696SOL    HW2 8421   1.737   4.034   6.908
 2697SOL     OW 8422   0.105   4.737   7.312
 2697SOL    HW1 8423   0.028   4.704   7.366
 2697SOL    HW2 8424   0.190   4.707   7.354
 2698SOL     OW 8425   0.672   3.927   7.075
 2698SOL    HW1 8426   0.762   3.911   7.035
 2698SOL    HW2 8427   0.680   3.932   7.174
 2699SOL     OW 8428   0.075   4.069   5.619
 2699SOL    HW1 8429  -0.017   4.041   5.590
 2699SOL    HW2 8430   0.106   4.146   5.563
 2700SOL     OW 8431   1.440   4.580   6.984
 2700SOL    HW1 8432   1.383   4.632   6.921
 2700SOL    HW2 8433   1.536   4.592   6.960
 2701SOL     OW 8434   0.072   3.890   5.904
 2701SOL    HW1 8435   0.055   3.973   5.850
 2701SOL    HW2 8436   0.162   3.853   5.882
 2702SOL     OW 8437   0.613   4.566   7.017
 2702SOL    HW1 8438   0.669   4.647   7.000
 2702SOL    HW2 8439   0.672   4.486   7.020
 2703SOL     OW 8440   0.716   4.289   7.294
 2703SOL    HW1 8441   0.735   4.354   7.368
 2703SOL    HW2 8442   0.776   4.209   7.303
 2704SOL     OW 8443   1.674   4.607   6.840
 2704SOL    HW1 8444   1.647   4.518   6.803
 2704SOL    HW2 8445   1.675   4.675   6.767
 2705SOL     OW 8446   1.225   4.049   6.035
 2705SOL    HW1 8447   1.290   3.975   6.024
 2705SOL    HW2 8448   1.245   4.099   6.119
 2706SOL     OW 8449   0.594   4.469   6.238
 2706SOL    HW1 8450   0.644   4.554   6.219
 2706SOL    HW2 8451   0.506   4.471   6.190
 2707SOL     OW 8452   1.777   4.066   7.228
 2707SOL    HW1 8453   1.760   4.097   7.134
 2707SOL    HW2 8454   1.693   4.029   7.266
 2708SOL     OW 8455   1.730   4.658   7.103
 2708SOL    HW1 8456   1.768   4.749   7.118
 2708SOL    HW2 8457   1.722   4.641   7.004
 2709SOL     OW 8458   1.824   3.916   6.813
 2709SOL    HW1 8459   1.820   3.826   6.857
 2709SOL    HW2 8460   1.827   3.905   6.714
 2710SOL     OW 8461   0.428   4.148   6.106
 2710SOL    HW1 8462   0.458   4.076   6.044
 2710SOL    HW2 8463   0.389   4.108   6.189
 2711SOL     OW 8464   0.317   4.271   6.866
 2711SOL    HW1 8465   0.355   4.212   6.938
 2711SOL    HW2 8466   0.357   4.245   6.778
 2712SOL     OW 8467   1.424   3.938   6.698
 2712SOL    HW1 8468   1.476   3.873   6.753
 2712SOL    HW2 8469   1.375   4.001   6.759
 2713SOL     OW 8470   1.001   3.758   6.740
 2713SOL    HW1 8471   0.938   3.686   6.709
 2713SOL    HW2 8472   1.094   3.722   6.740
 2714SOL     OW 8473   1.352   3.776   5.754
 2714SOL    HW1 8474   1.387   3.735   5.670
 2714SOL    HW2 8475   1.262   3.738   5.774
 2715SOL     OW 8476   1.300   4.177   6.277
 2715SOL    HW1 8477   1.241   4.257   6.281
 2715SOL    HW2 8478   1.315   4.142   6.370
 2716SOL     OW 8479   1.593   3.945   6.468
 2716SOL    HW1 8480   1.509   3.944   6.522
 2716SOL    HW2 8481   1.595   4.028   6.412
 2717SOL     OW 8482   0.230   4.352   7.561
 2717SOL    HW1 8483   0.137   4.350   7.598
 2717SOL    HW2 8484   0.231   4.313   7.469
 2718SOL     OW 8485   0.225   3.999   8.444
 2718SOL    HW1 8486   0.260   3.982   8.536
 2718SOL    HW2 8487   0.137   3.954   8.432
 2719SOL     OW 8488   0.019   4.092   8.095
 2719SOL    HW1 8489  -0.063   4.135   8.134
 2719SOL    HW2 8490  -0.009   4.019   8.032
 2720SOL     OW 8491   1.135   4.427   8.165
 2720SOL    HW1 8492   1.192   4.505   8.140
 2720SOL    HW2 8493   1.075   4.453   8.241
 2721SOL     OW 8494   1.755   4.331   7.679
 2721SOL    HW1 8495   1.743   4.318   7.580
 2721SOL    HW2 8496   1.725   4.250   7.728
 2722SOL     OW 8497   0.850   4.522   9.271
 2722SOL    HW1 8498   0.846   4.598   9.336
 2722SOL    HW2 8499   0.872   4.558   9.180
 2723SOL     OW 8500   0.685   4.736   8.113
 2723SOL    HW1 8501   0.754   4.720   8.183
 2723SOL    HW2 8502   0.612   4.793   8.151
 2724SOL     OW 8503   0.438   4.116   8.947
 2724SOL    HW1 8504   0.520   4.060   8.956
 2724SOL    HW2 8505   0.357   4.058   8.951
 2725SOL     OW 8506   1.603   4.171   8.185
 2725SOL    HW1 8507   1.529   4.217   8.135
 2725SOL    HW2 8508   1.654   4.239   8.238
 2726SOL     OW 8509   1.594   3.838   8.928
 2726SOL    HW1 8510   1.576   3.905   8.856
 2726SOL    HW2 8511   1.591   3.884   9.017
 2727SOL     OW 8512   0.122   4.367   8.011
 2727SOL    HW1 8513   0.077   4.279   8.028
 2727SOL    HW2 8514   0.121   4.421   8.095
 2728SOL     OW 8515   0.113   4.461   9.045
 2728SOL    HW1 8516   0.201   4.448   9.090
 2728SOL    HW2 8517   0.100   4.558   9.023
 2729SOL     OW 8518   0.809   3.728   7.950
 2729SOL    HW1 8519   0.849   3.819   7.941
 2729SOL    HW2 8520   0.709   3.736   7.956
 2730SOL     OW 8521   0.197   4.700   8.712
 2730SOL    HW1 8522   0.286   4.655   8.698
 2730SOL    HW2 8523   0.124   4.635   8.693
 2731SOL     OW 8524   1.525   4.723   7.638
 2731SOL    HW1 8525   1.462   4.647   7.651
 2731SOL    HW2 8526   1.573   4.741   7.724
 2732SOL     OW 8527   0.317   3.975   9.249
 2732SOL    HW1 8528   0.388   4.046   9.255
 2732SOL    HW2 8529   0.229   4.014   9.277
 2733SOL     OW 8530   0.598   4.453   7.718
 2733SOL    HW1 8531   0.622   4.522   7.650
 2733SOL    HW2 8532   0.520   4.486   7.772
 2734SOL     OW 8533   1.281   4.069   8.392
 2734SOL    HW1 8534   1.195   4.019   8.379
 2734SOL    HW2 8535   1.343   4.015   8.448
 2735SOL     OW 8536   0.807   4.329   8.913
 2735SOL    HW1 8537   0.760   4.326   9.002
 2735SOL    HW2 8538   0.756   4.274   8.847
 2736SOL     OW 8539   1.394   4.193   9.122
 2736SOL    HW1 8540   1.374   4.236   9.210
 2736SOL    HW2 8541   1.472   4.131   9.131
 2737SOL     OW 8542   0.973   4.614   9.020
 2737SOL    HW1 8543   1.019   4.530   8.991
 2737SOL    HW2 8544   0.917   4.648   8.945
 2738SOL     OW 8545   0.991   4.134   8.690
 2738SOL    HW1 8546   0.914   4.168   8.744
 2738SOL    HW2 8547   0.957   4.083   8.611
 2739SOL     OW 8548   1.041   4.425   7.877
 2739SOL    HW1 8549   1.067   4.421   7.973
 2739SOL    HW2 8550   0.956   4.374   7.863
 2740SOL     OW 8551   0.076   4.535   8.237
 2740SOL    HW1 8552   0.175   4.523   8.246
 2740SOL    HW2 8553   0.052   4.630   8.258
 2741SOL     OW 8554   0.865   4.072   7.643
 2741SOL    HW1 8555   0.924   4.135   7.594
 2741SOL    HW2 8556   0.884   3.978   7.614
 2742SOL     OW 8557   1.719   4.309   9.279
 2742SOL    HW1 8558   1.693   4.398   9.243
 2742SOL    HW2 8559   1.717   4.241   9.206
 2743SOL     OW 8560   0.550   3.920   8.333
 2743SOL    HW1 8561   0.545   3.915   8.433
 2743SOL    HW2 8562   0.552   4.016   8.304
 2744SOL     OW 8563   1.458   4.459   8.176
 2744SOL    HW1 8564   1.453   4.394   8.251
 2744SOL    HW2 8565   1.538   4.518   8.189
 2745SOL     OW 8566   0.202   4.009   8.946
 2745SOL    HW1 8567   0.122   4.069   8.933
 2745SOL    HW2 8568   0.192   3.960   9.032
 2746SOL     OW 8569   1.400   3.831   7.874
 2746SOL    HW1 8570   1.376   3.794   7.784
 2746SOL    HW2 8571   1.499   3.847   7.878
 2747SOL     OW 8572   0.382   4.424   7.928
 2747SOL    HW1 8573   0.427   4.334   7.925
 2747SOL    HW2 8574   0.288   4.413   7.961
 2748SOL     OW 8575   1.547   3.946   9.177
 2748SOL    HW1 8576   1.542   3.983   9.269
 2748SOL    HW2 8577   1.475   3.877   9.165
 2749SOL     OW 8578   0.614   3.846   7.565
 2749SOL    HW1 8579   0.712   3.824   7.572
 2749SOL    HW2 8580   0.583   3.829   7.472
 2750SOL     OW 8581   0.781   3.988   9.197
 2750SOL    HW1 8582   0.848   3.927   9.240
 2750SOL    HW2 8583   0.708   4.007   9.262
 2751SOL     OW 8584   1.351   4.314   8.881
 2751SOL    HW1 8585   1.379   4.271   8.966
 2751SOL    HW2 8586   1.376   4.410   8.882
 2752SOL     OW 8587   0.922   4.227   8.347
 2752SOL    HW1 8588   0.897   4.218   8.251
 2752SOL    HW2 8589   0.970   4.145   8.378
 2753SOL     OW 8590   0.539   3.788   7.960
 2753SOL    HW1 8591   0.458   3.789   8.018
 2753SOL    HW2 8592   0.542   3.871   7.905
 2754SOL     OW 8593   0.297   3.759   7.619
 2754SOL    HW1 8594   0.346   3.843   7.598
 2754SOL    HW2 8595   0.359   3.694   7.664
 2755SOL     OW 8596   0.935   3.960   7.928
 2755SOL    HW1 8597   0.887   4.001   7.850
 2755SOL    HW2 8598   1.034   3.958   7.909
 2756SOL     OW 8599   1.076   4.407   8.912
 2756SOL    HW1 8600   0.996   4.346   8.915
 2756SOL    HW2 8601   1.157   4.354   8.888
 2757SOL     OW 8602   1.032   4.273   7.464
 2757SOL    HW1 8603   0.991   4.355   7.425
 2757SOL    HW2 8604   1.096   4.299   7.537
 2758SOL     OW 8605   0.078   4.280   8.834
 2758SOL    HW1 8606   0.170   4.279   8.793
 2758SOL    HW2 8607   0.072   4.354   8.901
 2759SOL     OW 8608   0.561   3.946   8.595
 2759SOL    HW1 8609   0.599   3.862   8.632
 2759SOL    HW2 8610   0.473   3.965   8.639
 2760SOL     OW 8611   0.866   4.178   8.090
 2760SOL    HW1 8612   0.834   4.250   8.028
 2760SOL    HW2 8613   0.890   4.097   8.037
 2761SOL     OW 8614   1.017   3.763   8.201
 2761SOL    HW1 8615   0.945   3.768   8.132
 2761SOL    HW2 8616   0.993   3.694   8.270
 2762SOL     OW 8617   1.466   4.314   8.440
 2762SOL    HW1 8618   1.436   4.219   8.447
 2762SOL    HW2 8619   1.539   4.330   8.506
 2763SOL     OW 8620   1.857   4.557   7.825
 2763SOL    HW1 8621   1.899   4.493   7.889
 2763SOL    HW2 8622   1.819   4.506   7.747
 2764SOL     OW 8623   1.390   4.299   7.526
 2764SOL    HW1 8624   1.336   4.278   7.607
 2764SOL    HW2 8625   1.481   4.258   7.535
 2765SOL     OW 8626   0.527   3.980   7.776
 2765SOL    HW1 8627   0.554   3.921   7.701
 2765SOL    HW2 8628   0.527   4.075   7.745
 2766SOL     OW 8629   1.638   4.823   8.527
 2766SOL    HW1 8630   1.643   4.904   8.586
 2766SOL    HW2 8631   1.552   4.825   8.476
 2767SOL     OW 8632   0.915   3.813   8.850
 2767SOL    HW1 8633   0.940   3.793   8.755
 2767SOL    HW2 8634   0.987   3.869   8.892
 2768SOL     OW 8635   0.410   4.537   8.699
 2768SOL    HW1 8636   0.496   4.549   8.749
 2768SOL    HW2 8637   0.368   4.450   8.726
 2769SOL     OW 8638   1.274   4.110   8.710
 2769SOL    HW1 8639   1.295   4.184   8.774
 2769SOL    HW2 8640   1.185   4.127   8.667
 2770SOL     OW 8641   0.566   4.261   8.313
 2770SOL    HW1 8642   0.578   4.327   8.239
 2770SOL    HW2 8643   0.612   4.295   8.396
 2771SOL     OW 8644   1.582   4.363   7.920
 2771SOL    HW1 8645   1.551   4.424   7.993
 2771SOL    HW2 8646   1.632   4.415   7.851
 2772SOL     OW 8647   0.402   4.475   9.046
 2772SOL    HW1 8648   0.470   4.530   8.999
 2772SOL    HW2 8649   0.442   4.387   9.073
 2773SOL     OW 8650   1.587   4.503   9.118
 2773SOL    HW1 8651   1.495   4.541   9.113
 2773SOL    HW2 8652   1.647   4.550   9.053
 2774SOL     OW 8653   1.013   3.829   9.218
 2774SOL    HW1 8654   1.019   3.914   9.166
 2774SOL    HW2 8655   1.045   3.753   9.161
 2775SOL     OW 8656   0.504   3.774   9.188
 2775SOL    HW1 8657   0.462   3.717   9.118
 2775SOL    HW2 8658   0.438   3.843   9.220
 2776SOL     OW 8659   0.573   4.594   8.477
 2776SOL    HW1 8660   0.617   4.683   8.468
 2776SOL    HW2 8661   0.510   4.594   8.554
 2777SOL     OW 8662   1.360   4.586   8.493
 2777SOL    HW1 8663   1.285   4.586   8.427
 2777SOL    HW2 8664   1.397   4.494   8.502
 2778SOL     OW 8665   1.209   4.249   7.723
 2778SOL    HW1 8666   1.222   4.165   7.777
 2778SOL    HW2 8667   1.180   4.323   7.783
 2779SOL     OW 8668   0.307   3.937   8.679
 2779SOL    HW1 8669   0.284   3.974   8.769
 2779SOL    HW2 8670   0.277   3.842   8.673
 2780SOL     OW 8671   0.037   5.034   8.730
 2780SOL    HW1 8672   0.090   4.985   8.798
 2780SOL    HW2 8673   0.059   5.132   8.735
 2781SOL     OW 8674   0.732   4.358   8.512
 2781SOL    HW1 8675   0.791   4.332   8.436
 2781SOL    HW2 8676   0.704   4.454   8.501
 2782SOL     OW 8677   1.728   4.659   9.302
 2782SOL    HW1 8678   1.682   4.652   9.213
 2782SOL    HW2 8679   1.666   4.703   9.368
 2783SOL     OW 8680   0.307   3.787   8.066
 2783SOL    HW1 8681   0.296   3.881   8.099
 2783SOL    HW2 8682   0.302   3.724   8.143
 2784SOL     OW 8683   1.622   4.091   7.822
 2784SOL    HW1 8684   1.624   4.015   7.886
 2784SOL    HW2 8685   1.574   4.168   7.862
 2785SOL     OW 8686   1.023   4.490   8.414
 2785SOL    HW1 8687   1.038   4.511   8.510
 2785SOL    HW2 8688   0.993   4.395   8.405
 2786SOL     OW 8689   0.350   4.622   9.252
 2786SOL    HW1 8690   0.426   4.666   9.300
 2786SOL    HW2 8691   0.385   4.575   9.170
 2787SOL     OW 8692   1.540   3.998   7.573
 2787SOL    HW1 8693   1.479   3.923   7.596
 2787SOL    HW2 8694   1.562   4.050   7.656
 2788SOL     OW 8695   1.303   4.562   7.490
 2788SOL    HW1 8696   1.337   4.469   7.505
 2788SOL    HW2 8697   1.321   4.589   7.395
 2789SOL     OW 8698   0.319   4.534   8.397
 2789SOL    HW1 8699   0.412   4.570   8.402
 2789SOL    HW2 8700   0.313   4.449   8.449
 2790SOL     OW 8701   0.339   4.233   8.454
 2790SOL    HW1 8702   0.287   4.150   8.437
 2790SOL    HW2 8703   0.416   4.238   8.390
 2791SOL     OW 8704   1.138   4.104   9.126
 2791SOL    HW1 8705   1.093   4.167   9.190
 2791SOL    HW2 8706   1.231   4.135   9.109
 2792SOL     OW 8707   1.160   3.931   8.925
 2792SOL    HW1 8708   1.160   3.995   9.002
 2792SOL    HW2 8709   1.188   3.979   8.842
 2793SOL     OW 8710   1.002   4.520   8.686
 2793SOL    HW1 8711   1.043   4.488   8.772
 2793SOL    HW2 8712   0.906   4.493   8.683
 2794SOL     OW 8713   0.040   4.268   8.562
 2794SOL    HW1 8714   0.125   4.235   8.521
 2794SOL    HW2 8715   0.053   4.283   8.660
 2795SOL     OW 8716   0.189   4.244   9.170
 2795SOL    HW1 8717   0.248   4.204   9.100
 2795SOL    HW2 8718   0.131   4.315   9.129
 2796SOL     OW 8719   1.369   4.674   9.108
 2796SOL    HW1 8720   1.408   4.763   9.128
 2796SOL    HW2 8721   1.379   4.654   9.011
 2797SOL     OW 8722   0.815   4.296   7.773
 2797SOL    HW1 8723   0.822   4.207   7.727
 2797SOL    HW2 8724   0.721   4.330   7.765
 2798SOL     OW 8725   1.657   4.328   8.654
 2798SOL    HW1 8726   1.619   4.259   8.716
 2798SOL    HW2 8727   1.739   4.292   8.610
 2799SOL     OW 8728   0.671   4.188   8.717
 2799SOL    HW1 8729   0.637   4.099   8.687
 2799SOL    HW2 8730   0.697   4.242   8.637
 2800SOL     OW 8731   0.473   4.224   7.639
 2800SOL    HW1 8732   0.534   4.304   7.643
 2800SOL    HW2 8733   0.378   4.255   7.646
 2801SOL     OW 8734   1.347   4.783   8.682
 2801SOL    HW1 8735   1.371   4.720   8.608
 2801SOL    HW2 8736   1.257   4.823   8.664
 2802SOL     OW 8737   1.302   4.579   7.757
 2802SOL    HW1 8738   1.216   4.548   7.799
 2802SOL    HW2 8739   1.298   4.565   7.658
 2803SOL     OW 8740   1.726   3.859   7.971
 2803SOL    HW1 8741   1.799   3.842   7.904
 2803SOL    HW2 8742   1.695   3.772   8.009
 2804SOL     OW 8743   1.280   4.651   8.120
 2804SOL    HW1 8744   1.340   4.570   8.122
 2804SOL    HW2 8745   1.320   4.720   8.060
 2805SOL     OW 8746   1.841   3.899   8.411
 2805SOL    HW1 8747   1.880   3.814   8.375
 2805SOL    HW2 8748   1.743   3.901   8.392
 2806SOL     OW 8749   0.263   4.050   8.168
 2806SOL    HW1 8750   0.184   4.101   8.134
 2806SOL    HW2 8751   0.254   4.035   8.266
 2807SOL     OW 8752   0.916   4.634   7.739
 2807SOL    HW1 8753   0.979   4.672   7.671
 2807SOL    HW2 8754   0.956   4.551   7.778
 2808SOL     OW 8755   1.014   3.960   8.419
 2808SOL    HW1 8756   1.006   3.924   8.326
 2808SOL    HW2 8757   1.012   3.884   8.484
 2809SOL     OW 8758   1.709   4.109   8.829
 2809SOL    HW1 8759   1.782   4.178   8.833
 2809SOL    HW2 8760   1.737   4.034   8.770
 2810SOL     OW 8761   0.105   4.737   9.174
 2810SOL    HW1 8762   0.028   4.704   9.228
 2810SOL    HW2 8763   0.190   4.707   9.216
 2811SOL     OW 8764   0.672   3.927   8.937
 2811SOL    HW1 8765   0.762   3.911   8.897
 2811SOL    HW2 8766   0.680   3.932   9.036
 2812SOL     OW 8767   0.075   4.069   7.481
 2812SOL    HW1 8768  -0.017   4.041   7.452
 2812SOL    HW2 8769   0.106   4.146   7.425
 2813SOL     OW 8770   1.440   4.580   8.846
 2813SOL    HW1 8771   1.383   4.632   8.783
 2813SOL    HW2 8772   1.536   4.592   8.822
 2814SOL     OW 8773   0.072   3.890   7.766
 2814SOL    HW1 8774   0.055   3.973   7.712
 2814SOL    HW2 8775   0.162   3.853   7.744
 2815SOL     OW 8776   0.613   4.566   8.879
 2815SOL    HW1 8777   0.669   4.647   8.862
 2815SOL    HW2 8778   0.672   4.486   8.882
 2816SOL     OW 8779   0.716   4.289   9.156
 2816SOL    HW1 8780   0.735   4.354   9.230
 2816SOL    HW2 8781   0.776   4.209   9.165
 2817SOL     OW 8782   1.674   4.607   8.702
 2817SOL    HW1 8783   1.647   4.518   8.665
 2817SOL    HW2 8784   1.675   4.675   8.629
 2818SOL     OW 8785   1.225   4.049   7.897
 2818SOL    HW1 8786   1.290   3.975   7.886
 2818SOL    HW2 8787   1.245   4.099   7.981
 2819SOL     OW 8788   0.594   4.469   8.100
 2819SOL    HW1 8789   0.644   4.554   8.081
 2819SOL    HW2 8790   0.506   4.471   8.052
 2820SOL     OW 8791   1.777   4.066   9.090
 2820SOL    HW1 8792   1.760   4.097   8.996
 2820SOL    HW2 8793   1.693   4.029   9.128
 2821SOL     OW 8794   1.730   4.658   8.965
 2821SOL    HW1 8795   1.768   4.749   8.980
 2821SOL    HW2 8796   1.722   4.641   8.866
 2822SOL     OW 8797   1.824   3.916   8.675
 2822SOL    HW1 8798   1.820   3.826   8.719
 2822SOL    HW2 8799   1.827   3.905   8.576
 2823SOL     OW 8800   0.428   4.148   7.968
 2823SOL    HW1 8801   0.458   4.076   7.906
 2823SOL    HW2 8802   0.389   4.108   8.051
 2824SOL     OW 8803   0.317   4.271   8.728
 2824SOL    HW1 8804   0.355   4.212   8.800
 2824SOL    HW2 8805   0.357   4.245   8.640
 2825SOL     OW 8806   1.424   3.938   8.560
 2825SOL    HW1 8807   1.476   3.873   8.615
 2825SOL    HW2 8808   1.375   4.001   8.621
 2826SOL     OW 8809   1.001   3.758   8.602
 2826SOL    HW1 8810   0.938   3.686   8.571
 2826SOL    HW2 8811   1.094   3.722   8.602
 2827SOL     OW 8812   1.352   3.776   7.616
 2827SOL    HW1 8813   1.387   3.735   7.532
 2827SOL    HW2 8814   1.262   3.738   7.636
 2828SOL     OW 8815   1.300   4.177   8.139
 2828SOL    HW1 8816   1.241   4.257   8.143
 2828SOL    HW2 8817   1.315   4.142   8.232
 2829SOL     OW 8818   1.593   3.945   8.330
 2829SOL    HW1 8819   1.509   3.944   8.384
 2829SOL    HW2 8820   1.595   4.028   8.274
 2830SOL     OW 8821   0.230   4.352   9.423
 2830SOL    HW1 8822   0.137   4.350   9.460
 2830SOL    HW2 8823   0.231   4.313   9.331
 2831SOL     OW 8824   1.755   4.331   9.541
 2831SOL    HW1 8825   1.743   4.318   9.442
 2831SOL    HW2 8826   1.725   4.250   9.590
 2832SOL     OW 8827   0.122   4.367   9.873
 2832SOL    HW1 8828   0.077   4.279   9.890
 2832SOL    HW2 8829   0.121   4.421   9.957
 2833SOL     OW 8830   0.809   3.728   9.812
 2833SOL    HW1 8831   0.849   3.819   9.803
 2833SOL    HW2 8832   0.709   3.736   9.818
 2834SOL     OW 8833   1.525   4.723   9.500
 2834SOL    HW1 8834   1.462   4.647   9.513
 2834SOL    HW2 8835   1.573   4.741   9.586
 2835SOL     OW 8836   0.598   4.453   9.580
 2835SOL    HW1 8837   0.622   4.522   9.512
 2835SOL    HW2 8838   0.520   4.486   9.634
 2836SOL     OW 8839   1.041   4.425   9.739
 2836SOL    HW1 8840   1.067   4.421   9.835
 2836SOL    HW2 8841   0.956   4.374   9.725
 2837SOL     OW 8842   0.076   4.535  10.099
 2837SOL    HW1 8843   0.175   4.523  10.108
 2837SOL    HW2 8844   0.052   4.630  10.120
 2838SOL     OW 8845   0.865   4.072   9.505
 2838SOL    HW1 8846   0.924   4.135   9.456
 2838SOL    HW2 8847   0.884   3.978   9.476
 2839SOL     OW 8848   1.400   3.831   9.736
 2839SOL    HW1 8849   1.376   3.794   9.646
 2839SOL    HW2 8850   1.499   3.847   9.740
 2840SOL     OW 8851   0.382   4.424   9.790
 2840SOL    HW1 8852   0.427   4.334   9.787
 2840SOL    HW2 8853   0.288   4.413   9.823
 2841SOL     OW 8854   0.614   3.846   9.427
 2841SOL    HW1 8855   0.712   3.824   9.434
 2841SOL    HW2 8856   0.583   3.829   9.334
 2842SOL     OW 8857   0.539   3.788   9.822
 2842SOL    HW1 8858   0.458   3.789   9.880
 2842SOL    HW2 8859   0.542   3.871   9.767
 2843SOL     OW 8860   0.297   3.759   9.481
 2843SOL    HW1 8861   0.346   3.843   9.460
 2843SOL    HW2 8862   0.359   3.694   9.526
 2844SOL     OW 8863   0.935   3.960   9.790
 2844SOL    HW1 8864   0.887   4.001   9.712
 2844SOL    HW2 8865   1.034   3.958   9.771
 2845SOL     OW 8866   1.032   4.273   9.326
 2845SOL    HW1 8867   0.991   4.355   9.287
 2845SOL    HW2 8868   1.096   4.299   9.399
 2846SOL     OW 8869   0.866   4.178   9.952
 2846SOL    HW1 8870   0.834   4.250   9.890
 2846SOL    HW2 8871   0.890   4.097   9.899
 2847SOL     OW 8872   1.857   4.557   9.687
 2847SOL    HW1 8873   1.899   4.493   9.751
 2847SOL    HW2 8874   1.819   4.506   9.609
 2848SOL     OW 8875   1.390   4.299   9.388
 2848SOL    HW1 8876   1.336   4.278   9.469
 2848SOL    HW2 8877   1.481   4.258   9.397
 2849SOL     OW 8878   0.527   3.980   9.638
 2849SOL    HW1 8879   0.554   3.921   9.563
 2849SOL    HW2 8880   0.527   4.075   9.607
 2850SOL     OW 8881   1.582   4.363   9.782
 2850SOL    HW1 8882   1.551   4.424   9.855
 2850SOL    HW2 8883   1.632   4.415   9.713
 2851SOL     OW 8884   1.209   4.249   9.585
 2851SOL    HW1 8885   1.222   4.165   9.639
 2851SOL    HW2 8886   1.180   4.323   9.645
 2852SOL     OW 8887   0.307   3.787   9.928
 2852SOL    HW1 8888   0.296   3.881   9.961
 2852SOL    HW2 8889   0.302   3.724  10.005
 2853SOL     OW 8890   1.622   4.091   9.684
 2853SOL    HW1 8891   1.624   4.015   9.748
 2853SOL    HW2 8892   1.574   4.168   9.724
 2854SOL     OW 8893   1.540   3.998   9.435
 2854SOL    HW1 8894   1.479   3.923   9.458
 2854SOL    HW2 8895   1.562   4.050   9.518
 2855SOL     OW 8896   1.303   4.562   9.352
 2855SOL    HW1 8897   1.337   4.469   9.367
 2855SOL    HW2 8898   1.321   4.589   9.257
 2856SOL     OW 8899   1.068   5.057  10.159
 2856SOL    HW1 8900   1.075   4.973  10.104
 2856SOL    HW2 8901   1.130   5.126  10.123
 2857SOL     OW 8902   0.319   4.534  10.259
 2857SOL    HW1 8903   0.412   4.570  10.264
 2857SOL    HW2 8904   0.313   4.449  10.311
 2858SOL     OW 8905   0.815   4.296   9.635
 2858SOL    HW1 8906   0.822   4.207   9.589
 2858SOL    HW2 8907   0.721   4.330   9.627
 2859SOL     OW 8908   0.473   4.224   9.501
 2859SOL    HW1 8909   0.534   4.304   9.505
 2859SOL    HW2 8910   0.378   4.255   9.508
 2860SOL     OW 8911   1.302   4.579   9.619
 2860SOL    HW1 8912   1.216   4.548   9.661
 2860SOL    HW2 8913   1.298   4.565   9.520
 2861SOL     OW 8914   1.726   3.859   9.833
 2861SOL    HW1 8915   1.799   3.842   9.766
 2861SOL    HW2 8916   1.695   3.772   9.871
 2862SOL     OW 8917   0.916   4.634   9.601
 2862SOL    HW1 8918   0.979   4.672   9.533
 2862SOL    HW2 8919   0.956   4.551   9.640
 2863SOL     OW 8920   0.075   4.069   9.343
 2863SOL    HW1 8921  -0.017   4.041   9.314
 2863SOL    HW2 8922   0.106   4.146   9.287
 2864SOL     OW 8923   0.072   3.890   9.628
 2864SOL    HW1 8924   0.055   3.973   9.574
 2864SOL    HW2 8925   0.162   3.853   9.606
 2865SOL     OW 8926   1.225   4.049   9.759
 2865SOL    HW1 8927   1.290   3.975   9.748
 2865SOL    HW2 8928   1.245   4.099   9.843
 2866SOL     OW 8929   0.594   4.469   9.962
 2866SOL    HW1 8930   0.644   4.554   9.943
 2866SOL    HW2 8931   0.506   4.471   9.914
 2867SOL     OW 8932   0.428   4.148   9.830
 2867SOL    HW1 8933   0.458   4.076   9.768
 2867SOL    HW2 8934   0.389   4.108   9.913
 2868SOL     OW 8935   1.352   3.776   9.478
 2868SOL    HW1 8936   1.387   3.735   9.394
 2868SOL    HW2 8937   1.262   3.738   9.498
 2869SOL     OW 8938   2.092   0.628   0.113
 2869SOL    HW1 8939   1.999   0.626   0.150
 2869SOL    HW2 8940   2.093   0.589   0.021
 2870SOL     OW 8941   2.087   0.275   0.996
 2870SOL    HW1 8942   2.122   0.258   1.088
 2870SOL    HW2 8943   1.999   0.230   0.984
 2871SOL     OW 8944   1.881   0.368   0.647
 2871SOL    HW1 8945   1.799   0.411   0.686
 2871SOL    HW2 8946   1.853   0.295   0.584
 2872SOL     OW 8947   2.431   1.275   1.165
 2872SOL    HW1 8948   2.338   1.268   1.128
 2872SOL    HW2 8949   2.442   1.364   1.209
 2873SOL     OW 8950   3.417   1.511   0.703
 2873SOL    HW1 8951   3.360   1.495   0.784
 2873SOL    HW2 8952   3.358   1.521   0.623
 2874SOL     OW 8953   2.997   0.703   0.717
 2874SOL    HW1 8954   3.054   0.781   0.692
 2874SOL    HW2 8955   2.937   0.729   0.793
 2875SOL     OW 8956   3.617   0.607   0.231
 2875SOL    HW1 8957   3.605   0.594   0.132
 2875SOL    HW2 8958   3.587   0.526   0.280
 2876SOL     OW 8959   2.630   1.144   1.023
 2876SOL    HW1 8960   2.552   1.161   1.083
 2876SOL    HW2 8961   2.664   1.231   0.987
 2877SOL     OW 8962   2.712   0.798   1.823
 2877SOL    HW1 8963   2.708   0.874   1.888
 2877SOL    HW2 8964   2.734   0.834   1.732
 2878SOL     OW 8965   2.547   1.012   0.665
 2878SOL    HW1 8966   2.616   0.996   0.735
 2878SOL    HW2 8967   2.474   1.069   0.703
 2879SOL     OW 8968   2.548   1.161   1.803
 2879SOL    HW1 8969   2.608   1.240   1.817
 2879SOL    HW2 8970   2.462   1.192   1.762
 2880SOL     OW 8971   2.197   1.435   1.061
 2880SOL    HW1 8972   2.119   1.404   1.008
 2880SOL    HW2 8973   2.255   1.493   1.004
 2881SOL     OW 8974   3.322   1.505   1.339
 2881SOL    HW1 8975   3.346   1.599   1.365
 2881SOL    HW2 8976   3.306   1.451   1.421
 2882SOL     OW 8977   2.300   0.392   1.499
 2882SOL    HW1 8978   2.382   0.336   1.508
 2882SOL    HW2 8979   2.219   0.334   1.503
 2883SOL     OW 8980   3.465   0.447   0.737
 2883SOL    HW1 8981   3.391   0.493   0.687
 2883SOL    HW2 8982   3.516   0.515   0.790
 2884SOL     OW 8983   2.093   1.713   0.483
 2884SOL    HW1 8984   2.127   1.790   0.537
 2884SOL    HW2 8985   2.137   1.713   0.393
 2885SOL     OW 8986   2.989   1.341   1.690
 2885SOL    HW1 8987   3.036   1.341   1.778
 2885SOL    HW2 8988   2.941   1.254   1.679
 2886SOL     OW 8989   2.092   1.434   0.538
 2886SOL    HW1 8990   2.066   1.530   0.538
 2886SOL    HW2 8991   2.021   1.380   0.583
 2887SOL     OW 8992   2.102   1.091   0.886
 2887SOL    HW1 8993   2.116   1.007   0.938
 2887SOL    HW2 8994   2.047   1.155   0.941
 2888SOL     OW 8995   2.482   1.786   1.439
 2888SOL    HW1 8996   2.390   1.769   1.474
 2888SOL    HW2 8997   2.510   1.878   1.465
 2889SOL     OW 8998   2.468   0.964   0.123
 2889SOL    HW1 8999   2.475   1.048   0.069
 2889SOL    HW2 9000   2.514   0.977   0.211
 2890SOL     OW 9001   3.456   0.114   1.480
 2890SOL    HW1 9002   3.438   0.181   1.408
 2890SOL    HW2 9003   3.453   0.160   1.569
 2891SOL     OW 9004   1.984   0.643   0.563
 2891SOL    HW1 9005   1.939   0.555   0.580
 2891SOL    HW2 9006   1.983   0.697   0.647
 2892SOL     OW 9007   3.704   1.767   0.359
 2892SOL    HW1 9008   3.758   1.738   0.439
 2892SOL    HW2 9009   3.734   1.857   0.330
 2893SOL     OW 9010   1.889   1.596   0.117
 2893SOL    HW1 9011   1.870   1.500   0.138
 2893SOL    HW2 9012   1.856   1.654   0.192
 2894SOL     OW 9013   3.551   0.922   0.612
 2894SOL    HW1 9014   3.646   0.893   0.620
 2894SOL    HW2 9015   3.543   0.987   0.537
 2895SOL     OW 9016   3.503   1.108   0.432
 2895SOL    HW1 9017   3.589   1.110   0.380
 2895SOL    HW2 9018   3.517   1.155   0.520
 2896SOL     OW 9019   1.975   0.737   1.597
 2896SOL    HW1 9020   2.063   0.724   1.642
 2896SOL    HW2 9021   1.962   0.834   1.575
 2897SOL     OW 9022   2.475   1.365   0.726
 2897SOL    HW1 9023   2.426   1.278   0.735
 2897SOL    HW2 9024   2.452   1.408   0.639
 2898SOL     OW 9025   3.155   1.228   1.423
 2898SOL    HW1 9026   3.192   1.155   1.365
 2898SOL    HW2 9027   3.207   1.233   1.508
 2899SOL     OW 9028   2.671   0.004   0.502
 2899SOL    HW1 9029   2.711   0.095   0.493
 2899SOL    HW2 9030   2.571   0.012   0.508
 2900SOL     OW 9031   2.059   0.976   1.264
 2900SOL    HW1 9032   2.148   0.931   1.250
 2900SOL    HW2 9033   1.986   0.911   1.245
 2901SOL     OW 9034   3.387   0.999   0.190
 2901SOL    HW1 9035   3.324   0.923   0.203
 2901SOL    HW2 9036   3.435   1.017   0.276
 2902SOL     OW 9037   3.049   1.792   1.616
 2902SOL    HW1 9038   3.073   1.852   1.540
 2902SOL    HW2 9039   3.056   1.697   1.586
 2903SOL     OW 9040   2.179   0.251   1.801
 2903SOL    HW1 9041   2.250   0.322   1.807
 2903SOL    HW2 9042   2.091   0.290   1.829
 2904SOL     OW 9043   3.328   1.417   0.953
 2904SOL    HW1 9044   3.269   1.423   1.033
 2904SOL    HW2 9045   3.313   1.329   0.907
 2905SOL     OW 9046   3.529   1.714   0.572
 2905SOL    HW1 9047   3.488   1.691   0.484
 2905SOL    HW2 9048   3.511   1.640   0.637
 2906SOL     OW 9049   2.460   0.729   0.270
 2906SOL    HW1 9050   2.484   0.798   0.202
 2906SOL    HW2 9051   2.382   0.762   0.324
 2907SOL     OW 9052   3.143   0.345   0.944
 2907SOL    HW1 9053   3.057   0.295   0.931
 2907SOL    HW2 9054   3.205   0.291   1.000
 2908SOL     OW 9055   3.438   1.662   0.307
 2908SOL    HW1 9056   3.527   1.708   0.310
 2908SOL    HW2 9057   3.417   1.638   0.212
 2909SOL     OW 9058   2.669   0.605   1.465
 2909SOL    HW1 9059   2.622   0.602   1.554
 2909SOL    HW2 9060   2.618   0.550   1.399
 2910SOL     OW 9061   3.256   0.469   1.674
 2910SOL    HW1 9062   3.236   0.512   1.762
 2910SOL    HW2 9063   3.334   0.407   1.683
 2911SOL     OW 9064   2.835   0.890   1.572
 2911SOL    HW1 9065   2.881   0.806   1.543
 2911SOL    HW2 9066   2.779   0.924   1.497
 2912SOL     OW 9067   2.853   0.410   1.242
 2912SOL    HW1 9068   2.776   0.444   1.296
 2912SOL    HW2 9069   2.819   0.359   1.163
 2913SOL     OW 9070   2.903   0.701   0.429
 2913SOL    HW1 9071   2.929   0.697   0.525
 2913SOL    HW2 9072   2.818   0.650   0.415
 2914SOL     OW 9073   1.938   0.811   0.789
 2914SOL    HW1 9074   2.037   0.799   0.798
 2914SOL    HW2 9075   1.914   0.906   0.810
 2915SOL     OW 9076   1.992   1.821   1.571
 2915SOL    HW1 9077   1.982   1.806   1.670
 2915SOL    HW2 9078   1.906   1.857   1.535
 2916SOL     OW 9079   2.727   0.348   0.195
 2916SOL    HW1 9080   2.786   0.411   0.146
 2916SOL    HW2 9081   2.746   0.254   0.166
 2917SOL     OW 9082   3.581   0.585   1.831
 2917SOL    HW1 9083   3.555   0.674   1.795
 2917SOL    HW2 9084   3.579   0.517   1.758
 2918SOL     OW 9085   3.224   1.144   0.545
 2918SOL    HW1 9086   3.307   1.115   0.497
 2918SOL    HW2 9087   3.175   1.211   0.489
 2919SOL     OW 9088   2.412   0.196   0.885
 2919SOL    HW1 9089   2.407   0.191   0.985
 2919SOL    HW2 9090   2.414   0.292   0.856
 2920SOL     OW 9091   2.870   1.456   0.477
 2920SOL    HW1 9092   2.824   1.528   0.425
 2920SOL    HW2 9093   2.866   1.476   0.575
 2921SOL     OW 9094   2.213   1.801   0.853
 2921SOL    HW1 9095   2.263   1.715   0.859
 2921SOL    HW2 9096   2.278   1.878   0.850
 2922SOL     OW 9097   3.657   1.066   0.873
 2922SOL    HW1 9098   3.595   1.051   0.797
 2922SOL    HW2 9099   3.605   1.077   0.958
 2923SOL     OW 9100   3.089   1.550   1.506
 2923SOL    HW1 9101   3.095   1.473   1.570
 2923SOL    HW2 9102   3.037   1.524   1.426
 2924SOL     OW 9103   2.183   0.943   0.242
 2924SOL    HW1 9104   2.265   0.982   0.200
 2924SOL    HW2 9105   2.156   0.861   0.193
 2925SOL     OW 9106   3.320   0.735   0.728
 2925SOL    HW1 9107   3.315   0.670   0.803
 2925SOL    HW2 9108   3.400   0.794   0.741
 2926SOL     OW 9109   2.323   1.266   1.727
 2926SOL    HW1 9110   2.273   1.267   1.641
 2926SOL    HW2 9111   2.260   1.248   1.803
 2927SOL     OW 9112   2.973   1.776   0.237
 2927SOL    HW1 9113   2.913   1.714   0.287
 2927SOL    HW2 9114   3.004   1.732   0.152
 2928SOL     OW 9115   2.064   0.285   1.498
 2928SOL    HW1 9116   1.984   0.345   1.485
 2928SOL    HW2 9117   2.054   0.236   1.584
 2929SOL     OW 9118   3.494   1.377   0.081
 2929SOL    HW1 9119   3.462   1.471   0.071
 2929SOL    HW2 9120   3.418   1.314   0.069
 2930SOL     OW 9121   2.326   1.743   0.323
 2930SOL    HW1 9122   2.359   1.782   0.409
 2930SOL    HW2 9123   2.402   1.736   0.258
 2931SOL     OW 9124   3.262   0.107   0.426
 2931SOL    HW1 9125   3.238   0.070   0.336
 2931SOL    HW2 9126   3.361   0.123   0.430
 2932SOL     OW 9127   2.111   1.785   1.241
 2932SOL    HW1 9128   2.168   1.720   1.291
 2932SOL    HW2 9129   2.095   1.752   1.148
 2933SOL     OW 9130   2.802   1.698   0.904
 2933SOL    HW1 9131   2.882   1.641   0.925
 2933SOL    HW2 9132   2.753   1.658   0.827
 2934SOL     OW 9133   2.244   0.700   0.480
 2934SOL    HW1 9134   2.289   0.610   0.477
 2934SOL    HW2 9135   2.150   0.689   0.513
 2935SOL     OW 9136   3.409   0.222   1.729
 2935SOL    HW1 9137   3.404   0.259   1.821
 2935SOL    HW2 9138   3.337   0.153   1.717
 2936SOL     OW 9139   2.476   0.122   0.117
 2936SOL    HW1 9140   2.574   0.100   0.124
 2936SOL    HW2 9141   2.445   0.105   0.024
 2937SOL     OW 9142   2.643   0.264   1.749
 2937SOL    HW1 9143   2.710   0.203   1.792
 2937SOL    HW2 9144   2.570   0.283   1.814
 2938SOL     OW 9145   2.750   1.514   1.195
 2938SOL    HW1 9146   2.727   1.489   1.101
 2938SOL    HW2 9147   2.811   1.445   1.234
 2939SOL     OW 9148   3.213   0.590   1.433
 2939SOL    HW1 9149   3.241   0.547   1.518
 2939SOL    HW2 9150   3.238   0.686   1.434
 2940SOL     OW 9151   2.665   1.402   0.924
 2940SOL    HW1 9152   2.755   1.416   0.882
 2940SOL    HW2 9153   2.594   1.404   0.853
 2941SOL     OW 9154   2.784   0.503   0.899
 2941SOL    HW1 9155   2.759   0.494   0.803
 2941SOL    HW2 9156   2.832   0.421   0.930
 2942SOL     OW 9157   2.401   0.064   0.512
 2942SOL    HW1 9158   2.320   0.065   0.570
 2942SOL    HW2 9159   2.404   0.147   0.457
 2943SOL     OW 9160   3.296   1.188   0.041
 2943SOL    HW1 9161   3.328   1.112   0.098
 2943SOL    HW2 9162   3.204   1.215   0.071
 2944SOL     OW 9163   2.159   0.035   0.171
 2944SOL    HW1 9164   2.208   0.119   0.150
 2944SOL    HW2 9165   2.221  -0.030   0.216
 2945SOL     OW 9166   2.797   0.236   0.480
 2945SOL    HW1 9167   2.749   0.277   0.402
 2945SOL    HW2 9168   2.896   0.234   0.461
 2946SOL     OW 9169   2.938   0.683   1.464
 2946SOL    HW1 9170   2.858   0.622   1.467
 2946SOL    HW2 9171   3.019   0.630   1.440
 2947SOL     OW 9172   3.089   1.570   0.793
 2947SOL    HW1 9173   3.110   1.644   0.728
 2947SOL    HW2 9174   3.157   1.570   0.866
 2948SOL     OW 9175   2.321   1.152   0.741
 2948SOL    HW1 9176   2.250   1.125   0.806
 2948SOL    HW2 9177   2.295   1.124   0.648
 2949SOL     OW 9178   3.133   1.797   0.591
 2949SOL    HW1 9179   3.177   1.861   0.527
 2949SOL    HW2 9180   3.083   1.849   0.661
 2950SOL     OW 9181   2.894   0.549   0.016
 2950SOL    HW1 9182   2.853   0.631  -0.023
 2950SOL    HW2 9183   2.958   0.575   0.089
 2951SOL     OW 9184   1.940   0.556   1.386
 2951SOL    HW1 9185   2.032   0.555   1.345
 2951SOL    HW2 9186   1.934   0.630   1.453
 2952SOL     OW 9187   2.423   0.222   1.147
 2952SOL    HW1 9188   2.461   0.138   1.184
 2952SOL    HW2 9189   2.335   0.241   1.191
 2953SOL     OW 9190   2.728   0.454   0.642
 2953SOL    HW1 9191   2.696   0.526   0.580
 2953SOL    HW2 9192   2.752   0.373   0.589
 2954SOL     OW 9193   2.879   0.039   0.753
 2954SOL    HW1 9194   2.807   0.044   0.684
 2954SOL    HW2 9195   2.855  -0.030   0.822
 2955SOL     OW 9196   3.291   1.173   0.867
 2955SOL    HW1 9197   3.236   1.089   0.860
 2955SOL    HW2 9198   3.317   1.202   0.775
 2956SOL     OW 9199   3.328   0.590   0.992
 2956SOL    HW1 9200   3.298   0.495   0.999
 2956SOL    HW2 9201   3.401   0.606   1.058
 2957SOL     OW 9202   3.719   0.833   0.377
 2957SOL    HW1 9203   3.761   0.769   0.441
 2957SOL    HW2 9204   3.681   0.782   0.299
 2958SOL     OW 9205   2.350   1.385   0.174
 2958SOL    HW1 9206   2.263   1.370   0.221
 2958SOL    HW2 9207   2.333   1.411   0.079
 2959SOL     OW 9208   3.526   1.280   0.657
 2959SOL    HW1 9209   3.625   1.288   0.671
 2959SOL    HW2 9210   3.481   1.364   0.688
 2960SOL     OW 9211   3.252   0.575   0.078
 2960SOL    HW1 9212   3.198   0.554   0.159
 2960SOL    HW2 9213   3.343   0.534   0.087
 2961SOL     OW 9214   2.389   0.256   0.328
 2961SOL    HW1 9215   2.416   0.197   0.253
 2961SOL    HW2 9216   2.389   0.351   0.297
 2962SOL     OW 9217   3.616   1.223   1.588
 2962SOL    HW1 9218   3.707   1.184   1.575
 2962SOL    HW2 9219   3.624   1.319   1.612
 2963SOL     OW 9220   2.926   1.347   1.340
 2963SOL    HW1 9221   2.846   1.324   1.395
 2963SOL    HW2 9222   3.009   1.321   1.389
 2964SOL     OW 9223   3.454   1.629   1.625
 2964SOL    HW1 9224   3.481   1.663   1.535
 2964SOL    HW2 9225   3.533   1.591   1.671
 2965SOL     OW 9226   2.973   1.195   1.100
 2965SOL    HW1 9227   2.933   1.239   1.181
 2965SOL    HW2 9228   2.932   1.232   1.017
 2966SOL     OW 9229   3.500   1.099   1.079
 2966SOL    HW1 9230   3.505   1.180   1.138
 2966SOL    HW2 9231   3.414   1.101   1.028
 2967SOL     OW 9232   2.777   0.089   1.402
 2967SOL    HW1 9233   2.802   0.069   1.307
 2967SOL    HW2 9234   2.849   0.145   1.444
 2968SOL     OW 9235   2.842   1.116   1.719
 2968SOL    HW1 9236   2.743   1.122   1.729
 2968SOL    HW2 9237   2.865   1.036   1.663
 2969SOL     OW 9238   2.567   1.050   0.368
 2969SOL    HW1 9239   2.553   1.057   0.467
 2969SOL    HW2 9240   2.651   0.999   0.350
 2970SOL     OW 9241   2.272   0.813   1.251
 2970SOL    HW1 9242   2.358   0.825   1.301
 2970SOL    HW2 9243   2.230   0.726   1.278
 2971SOL     OW 9244   3.136   0.386   1.262
 2971SOL    HW1 9245   3.157   0.460   1.326
 2971SOL    HW2 9246   3.047   0.403   1.219
 2972SOL     OW 9247   1.926   1.564   1.331
 2972SOL    HW1 9248   1.880   1.646   1.297
 2972SOL    HW2 9249   2.024   1.583   1.340
 2973SOL     OW 9250   2.229   1.100   0.501
 2973SOL    HW1 9251   2.222   1.183   0.445
 2973SOL    HW2 9252   2.233   1.020   0.441
 2974SOL     OW 9253   2.428   0.537   0.865
 2974SOL    HW1 9254   2.440   0.603   0.791
 2974SOL    HW2 9255   2.474   0.571   0.948
 2975SOL     OW 9256   3.114   1.348   0.388
 2975SOL    HW1 9257   3.164   1.425   0.428
 2975SOL    HW2 9258   3.019   1.350   0.420
 2976SOL     OW 9259   3.134   1.445   1.142
 2976SOL    HW1 9260   3.181   1.458   1.229
 2976SOL    HW2 9261   3.068   1.371   1.151
 2977SOL     OW 9262   3.444   0.639   0.472
 2977SOL    HW1 9263   3.413   0.700   0.545
 2977SOL    HW2 9264   3.494   0.691   0.403
 2978SOL     OW 9265   2.216   1.510   1.329
 2978SOL    HW1 9266   2.195   1.466   1.242
 2978SOL    HW2 9267   2.313   1.536   1.332
 2979SOL     OW 9268   2.264   0.751   1.598
 2979SOL    HW1 9269   2.332   0.806   1.551
 2979SOL    HW2 9270   2.304   0.663   1.625
 2980SOL     OW 9271   3.449   0.779   1.670
 2980SOL    HW1 9272   3.357   0.817   1.665
 2980SOL    HW2 9273   3.509   0.826   1.605
 2981SOL     OW 9274   2.875   0.105   1.770
 2981SOL    HW1 9275   2.881   0.190   1.718
 2981SOL    HW2 9276   2.907   0.029   1.713
 2982SOL     OW 9277   2.366   0.050   1.740
 2982SOL    HW1 9278   2.324  -0.007   1.670
 2982SOL    HW2 9279   2.300   0.119   1.772
 2983SOL     OW 9280   2.435   0.870   1.029
 2983SOL    HW1 9281   2.479   0.959   1.020
 2983SOL    HW2 9282   2.372   0.870   1.106
 2984SOL     OW 9283   3.222   0.862   1.045
 2984SOL    HW1 9284   3.147   0.862   0.979
 2984SOL    HW2 9285   3.259   0.770   1.054
 2985SOL     OW 9286   3.071   0.525   0.275
 2985SOL    HW1 9287   3.084   0.441   0.329
 2985SOL    HW2 9288   3.042   0.599   0.335
 2986SOL     OW 9289   2.169   0.213   1.231
 2986SOL    HW1 9290   2.146   0.250   1.321
 2986SOL    HW2 9291   2.139   0.118   1.225
 2987SOL     OW 9292   1.899   1.310   1.282
 2987SOL    HW1 9293   1.952   1.261   1.350
 2987SOL    HW2 9294   1.921   1.408   1.287
 2988SOL     OW 9295   2.594   0.634   1.064
 2988SOL    HW1 9296   2.653   0.608   0.988
 2988SOL    HW2 9297   2.566   0.730   1.053
 2989SOL     OW 9298   3.590   0.935   1.854
 2989SOL    HW1 9299   3.544   0.928   1.765
 2989SOL    HW2 9300   3.528   0.979   1.920
 2990SOL     OW 9301   2.169   0.063   0.618
 2990SOL    HW1 9302   2.158   0.157   0.651
 2990SOL    HW2 9303   2.164   0.000   0.695
 2991SOL     OW 9304   3.484   0.367   0.374
 2991SOL    HW1 9305   3.486   0.291   0.438
 2991SOL    HW2 9306   3.436   0.444   0.414
 2992SOL     OW 9307   2.885   0.766   0.966
 2992SOL    HW1 9308   2.900   0.787   1.062
 2992SOL    HW2 9309   2.855   0.671   0.957
 2993SOL     OW 9310   2.842   1.573   1.700
 2993SOL    HW1 9311   2.822   1.617   1.612
 2993SOL    HW2 9312   2.881   1.482   1.684
 2994SOL     OW 9313   3.721   1.518   1.605
 2994SOL    HW1 9314   3.735   1.545   1.510
 2994SOL    HW2 9315   3.804   1.540   1.658
 2995SOL     OW 9316   2.212   0.898   1.804
 2995SOL    HW1 9317   2.288   0.942   1.852
 2995SOL    HW2 9318   2.247   0.851   1.722
 2996SOL     OW 9319   3.402   0.274   0.125
 2996SOL    HW1 9320   3.341   0.199   0.148
 2996SOL    HW2 9321   3.424   0.326   0.208
 2997SOL     OW 9322   3.165   0.838   0.042
 2997SOL    HW1 9323   3.199   0.745   0.057
 2997SOL    HW2 9324   3.183   0.865  -0.053
 2998SOL     OW 9325   2.930   1.333   0.849
 2998SOL    HW1 9326   2.937   1.249   0.794
 2998SOL    HW2 9327   2.992   1.402   0.813
 2999SOL     OW 9328   2.181   0.810   0.949
 2999SOL    HW1 9329   2.274   0.846   0.954
 2999SOL    HW2 9330   2.175   0.725   1.001
 3000SOL     OW 9331   2.201   0.509   1.006
 3000SOL    HW1 9332   2.149   0.426   0.989
 3000SOL    HW2 9333   2.278   0.514   0.942
 3001SOL     OW 9334   3.000   0.380   1.678
 3001SOL    HW1 9335   2.955   0.443   1.742
 3001SOL    HW2 9336   3.093   0.411   1.661
 3002SOL     OW 9337   3.022   0.207   1.477
 3002SOL    HW1 9338   3.022   0.271   1.554
 3002SOL    HW2 9339   3.050   0.255   1.394
 3003SOL     OW 9340   1.870   1.326   0.200
 3003SOL    HW1 9341   1.777   1.347   0.169
 3003SOL    HW2 9342   1.880   1.227   0.213
 3004SOL     OW 9343   1.950   1.801   0.927
 3004SOL    HW1 9344   1.908   1.715   0.900
 3004SOL    HW2 9345   2.044   1.804   0.893
 3005SOL     OW 9346   2.366   1.568   0.910
 3005SOL    HW1 9347   2.432   1.642   0.919
 3005SOL    HW2 9348   2.410   1.489   0.868
 3006SOL     OW 9349   2.864   0.796   1.238
 3006SOL    HW1 9350   2.905   0.764   1.324
 3006SOL    HW2 9351   2.768   0.769   1.235
 3007SOL     OW 9352   1.902   0.544   1.114
 3007SOL    HW1 9353   1.987   0.511   1.073
 3007SOL    HW2 9354   1.915   0.559   1.212
 3008SOL     OW 9355   2.051   0.520   1.722
 3008SOL    HW1 9356   2.110   0.480   1.652
 3008SOL    HW2 9357   1.993   0.591   1.681
 3009SOL     OW 9358   3.231   0.950   1.660
 3009SOL    HW1 9359   3.270   1.039   1.680
 3009SOL    HW2 9360   3.241   0.930   1.563
 3010SOL     OW 9361   2.677   0.572   0.325
 3010SOL    HW1 9362   2.684   0.483   0.279
 3010SOL    HW2 9363   2.583   0.606   0.317
 3011SOL     OW 9364   3.519   0.604   1.206
 3011SOL    HW1 9365   3.481   0.535   1.268
 3011SOL    HW2 9366   3.601   0.568   1.162
 3012SOL     OW 9367   2.114   1.564   1.744
 3012SOL    HW1 9368   2.084   1.621   1.820
 3012SOL    HW2 9369   2.107   1.467   1.770
 3013SOL     OW 9370   2.533   0.464   1.269
 3013SOL    HW1 9371   2.499   0.375   1.239
 3013SOL    HW2 9372   2.559   0.518   1.189
 3014SOL     OW 9373   2.792   1.678   1.465
 3014SOL    HW1 9374   2.768   1.660   1.370
 3014SOL    HW2 9375   2.822   1.772   1.475
 3015SOL     OW 9376   2.335   0.500   0.191
 3015SOL    HW1 9377   2.396   0.580   0.195
 3015SOL    HW2 9378   2.240   0.531   0.198
 3016SOL     OW 9379   2.021   1.137   1.466
 3016SOL    HW1 9380   2.043   1.076   1.542
 3016SOL    HW2 9381   2.031   1.088   1.380
 3017SOL     OW 9382   3.209   1.059   1.234
 3017SOL    HW1 9383   3.233   0.996   1.160
 3017SOL    HW2 9384   3.119   1.099   1.216
 3018SOL     OW 9385   3.164   0.855   0.309
 3018SOL    HW1 9386   3.078   0.824   0.351
 3018SOL    HW2 9387   3.160   0.841   0.210
 3019SOL     OW 9388   3.621   1.747   1.154
 3019SOL    HW1 9389   3.682   1.777   1.081
 3019SOL    HW2 9390   3.583   1.658   1.132
 3020SOL     OW 9391   3.114   1.731   1.128
 3020SOL    HW1 9392   3.198   1.736   1.074
 3020SOL    HW2 9393   3.091   1.635   1.146
 3021SOL     OW 9394   1.945   1.258   1.022
 3021SOL    HW1 9395   1.940   1.257   1.122
 3021SOL    HW2 9396   1.862   1.217   0.984
 3022SOL     OW 9397   2.550   1.662   1.716
 3022SOL    HW1 9398   2.494   1.743   1.725
 3022SOL    HW2 9399   2.602   1.666   1.630
 3023SOL     OW 9400   2.765   0.086   0.133
 3023SOL    HW1 9401   2.816   0.087   0.047
 3023SOL    HW2 9402   2.821   0.044   0.204
 3024SOL     OW 9403   3.588   0.135   0.523
 3024SOL    HW1 9404   3.661   0.118   0.456
 3024SOL    HW2 9405   3.557   0.048   0.561
 3025SOL     OW 9406   3.250   1.573   0.477
 3025SOL    HW1 9407   3.317   1.585   0.403
 3025SOL    HW2 9408   3.210   1.662   0.500
 3026SOL     OW 9409   1.992   1.794   1.851
 3026SOL    HW1 9410   1.951   1.720   1.904
 3026SOL    HW2 9411   2.056   1.845   1.909
 3027SOL     OW 9412   3.142   0.927   0.672
 3027SOL    HW1 9413   3.202   0.846   0.674
 3027SOL    HW2 9414   3.182   0.996   0.612
 3028SOL     OW 9415   2.692   1.273   1.422
 3028SOL    HW1 9416   2.687   1.306   1.517
 3028SOL    HW2 9417   2.606   1.292   1.376
 3029SOL     OW 9418   2.534   1.616   0.154
 3029SOL    HW1 9419   2.543   1.626   0.055
 3029SOL    HW2 9420   2.494   1.527   0.175
 3030SOL     OW 9421   3.512   1.720   1.394
 3030SOL    HW1 9422   3.565   1.730   1.310
 3030SOL    HW2 9423   3.485   1.810   1.428
 3031SOL     OW 9424   3.703   0.175   0.963
 3031SOL    HW1 9425   3.742   0.090   0.927
 3031SOL    HW2 9426   3.605   0.177   0.944
 3032SOL     OW 9427   2.125   0.326   0.720
 3032SOL    HW1 9428   2.046   0.377   0.686
 3032SOL    HW2 9429   2.116   0.311   0.818
 3033SOL     OW 9430   3.056   1.612   0.031
 3033SOL    HW1 9431   3.062   1.519   0.068
 3033SOL    HW2 9432   2.997   1.612  -0.049
 3034SOL     OW 9433   2.684   1.002   1.372
 3034SOL    HW1 9434   2.724   1.001   1.280
 3034SOL    HW2 9435   2.694   1.094   1.412
 3035SOL     OW 9436   2.778   0.910   0.291
 3035SOL    HW1 9437   2.841   0.948   0.223
 3035SOL    HW2 9438   2.818   0.827   0.330
 3036SOL     OW 9439   3.366   1.607   0.044
 3036SOL    HW1 9440   3.274   1.644   0.051
 3036SOL    HW2 9441   3.404   1.627  -0.046
 3037SOL     OW 9442   2.234   1.288   1.490
 3037SOL    HW1 9443   2.221   1.381   1.456
 3037SOL    HW2 9444   2.150   1.236   1.477
 3038SOL     OW 9445   3.476   1.292   1.289
 3038SOL    HW1 9446   3.536   1.295   1.369
 3038SOL    HW2 9447   3.401   1.356   1.302
 3039SOL     OW 9448   2.901   1.098   0.696
 3039SOL    HW1 9449   2.831   1.051   0.750
 3039SOL    HW2 9450   2.960   1.030   0.653
 3040SOL     OW 9451   2.876   0.236   0.971
 3040SOL    HW1 9452   2.868   0.200   0.878
 3040SOL    HW2 9453   2.874   0.160   1.036
 3041SOL     OW 9454   2.452   1.487   0.491
 3041SOL    HW1 9455   2.494   1.429   0.421
 3041SOL    HW2 9456   2.408   1.566   0.447
 3042SOL     OW 9457   3.571   0.385   1.381
 3042SOL    HW1 9458   3.644   0.454   1.385
 3042SOL    HW2 9459   3.599   0.310   1.322
 3043SOL     OW 9460   2.117   1.348   0.290
 3043SOL    HW1 9461   2.021   1.349   0.263
 3043SOL    HW2 9462   2.129   1.401   0.374
 3044SOL     OW 9463   1.967   1.013   1.726
 3044SOL    HW1 9464   1.890   0.980   1.780
 3044SOL    HW2 9465   2.052   0.983   1.768
 3045SOL     OW 9466   2.534   0.203   1.489
 3045SOL    HW1 9467   2.624   0.187   1.449
 3045SOL    HW2 9468   2.542   0.208   1.588
 3046SOL     OW 9469   1.937   0.345   0.033
 3046SOL    HW1 9470   1.845   0.317   0.004
 3046SOL    HW2 9471   1.968   0.422  -0.023
 3047SOL     OW 9472   3.302   0.856   1.398
 3047SOL    HW1 9473   3.245   0.908   1.335
 3047SOL    HW2 9474   3.398   0.868   1.374
 3048SOL     OW 9475   3.045   1.335   0.119
 3048SOL    HW1 9476   2.946   1.324   0.121
 3048SOL    HW2 9477   3.079   1.350   0.212
 3049SOL     OW 9478   2.475   0.842   1.431
 3049SOL    HW1 9479   2.531   0.923   1.414
 3049SOL    HW2 9480   2.534   0.762   1.434
 3050SOL     OW 9481   3.355   1.767   0.959
 3050SOL    HW1 9482   3.388   1.831   0.890
 3050SOL    HW2 9483   3.421   1.761   1.034
 3051SOL     OW 9484   2.578   0.565   1.708
 3051SOL    HW1 9485   2.597   0.630   1.782
 3051SOL    HW2 9486   2.638   0.485   1.717
 3052SOL     OW 9487   3.312   1.220   1.633
 3052SOL    HW1 9488   3.303   1.210   1.732
 3052SOL    HW2 9489   3.408   1.213   1.607
 3053SOL     OW 9490   2.252   1.741   1.560
 3053SOL    HW1 9491   2.161   1.782   1.558
 3053SOL    HW2 9492   2.245   1.647   1.592
 3054SOL     OW 9493   3.536   0.883   1.254
 3054SOL    HW1 9494   3.509   0.794   1.217
 3054SOL    HW2 9495   3.537   0.951   1.181
 3055SOL     OW 9496   3.087   0.325   0.449
 3055SOL    HW1 9497   3.152   0.251   0.438
 3055SOL    HW2 9498   3.107   0.375   0.533
 3056SOL     OW 9499   2.456   0.745   0.652
 3056SOL    HW1 9500   2.506   0.830   0.633
 3056SOL    HW2 9501   2.368   0.747   0.604
 3057SOL     OW 9502   3.639   0.342   1.642
 3057SOL    HW1 9503   3.622   0.373   1.548
 3057SOL    HW2 9504   3.555   0.305   1.680
 3058SOL     OW 9505   3.592   0.934   1.517
 3058SOL    HW1 9506   3.630   1.025   1.532
 3058SOL    HW2 9507   3.584   0.917   1.418
 3059SOL     OW 9508   2.721   1.374   0.016
 3059SOL    HW1 9509   2.675   1.389   0.104
 3059SOL    HW2 9510   2.765   1.459  -0.014
 3060SOL     OW 9511   2.523   1.790   0.953
 3060SOL    HW1 9512   2.477   1.878   0.940
 3060SOL    HW2 9513   2.622   1.802   0.946
 3061SOL     OW 9514   2.721   0.956   0.861
 3061SOL    HW1 9515   2.775   0.887   0.909
 3061SOL    HW2 9516   2.689   1.025   0.927
 3062SOL     OW 9517   2.945   0.984   0.087
 3062SOL    HW1 9518   2.922   1.037   0.005
 3062SOL    HW2 9519   3.026   0.928   0.068
 3063SOL     OW 9520   3.723   1.569   0.851
 3063SOL    HW1 9521   3.652   1.557   0.781
 3063SOL    HW2 9522   3.724   1.490   0.911
 3064SOL     OW 9523   2.083   1.314   1.844
 3064SOL    HW1 9524   2.018   1.241   1.823
 3064SOL    HW2 9525   2.087   1.328   1.942
 3065SOL     OW 9526   1.941   1.240   0.653
 3065SOL    HW1 9527   1.940   1.193   0.741
 3065SOL    HW2 9528   2.023   1.212   0.602
 3066SOL     OW 9529   2.534   1.391   1.624
 3066SOL    HW1 9530   2.456   1.341   1.662
 3066SOL    HW2 9531   2.531   1.486   1.655
 3067SOL     OW 9532   3.686   0.192   1.227
 3067SOL    HW1 9533   3.682   0.102   1.271
 3067SOL    HW2 9534   3.689   0.181   1.128
 3068SOL     OW 9535   2.290   0.424   0.520
 3068SOL    HW1 9536   2.320   0.352   0.458
 3068SOL    HW2 9537   2.251   0.384   0.603
 3069SOL     OW 9538   3.567   1.487   1.104
 3069SOL    HW1 9539   3.474   1.462   1.077
 3069SOL    HW2 9540   3.593   1.437   1.186
 3070SOL     OW 9541   2.179   0.547   1.280
 3070SOL    HW1 9542   2.217   0.488   1.352
 3070SOL    HW2 9543   2.219   0.521   1.192
 3071SOL     OW 9544   2.674   1.586   0.687
 3071SOL    HW1 9545   2.706   1.596   0.593
 3071SOL    HW2 9546   2.595   1.524   0.689
 3072SOL     OW 9547   3.286   0.214   1.112
 3072SOL    HW1 9548   3.338   0.149   1.167
 3072SOL    HW2 9549   3.237   0.277   1.173
 3073SOL     OW 9550   2.863   0.034   1.154
 3073SOL    HW1 9551   2.800  -0.038   1.123
 3073SOL    HW2 9552   2.956  -0.002   1.154
 3074SOL     OW 9553   2.632   1.330   0.301
 3074SOL    HW1 9554   2.586   1.243   0.318
 3074SOL    HW2 9555   2.723   1.327   0.342
 3075SOL     OW 9556   2.480   1.567   1.284
 3075SOL    HW1 9557   2.475   1.649   1.341
 3075SOL    HW2 9558   2.569   1.564   1.239
 3076SOL     OW 9559   3.214   0.052   0.168
 3076SOL    HW1 9560   3.249   0.011   0.084
 3076SOL    HW2 9561   3.124   0.014   0.188
 3077SOL     OW 9562   3.162   0.453   0.691
 3077SOL    HW1 9563   3.103   0.533   0.695
 3077SOL    HW2 9564   3.177   0.418   0.784
 3078SOL     OW 9565   3.455   0.221   0.882
 3078SOL    HW1 9566   3.371   0.220   0.936
 3078SOL    HW2 9567   3.457   0.304   0.826
 3079SOL     OW 9568   1.901   1.077   0.300
 3079SOL    HW1 9569   2.000   1.066   0.291
 3079SOL    HW2 9570   1.861   0.991   0.332
 3080SOL     OW 9571   2.737   1.646   0.337
 3080SOL    HW1 9572   2.660   1.611   0.283
 3080SOL    HW2 9573   2.705   1.717   0.399
 3081SOL     OW 9574   2.092   0.628   1.975
 3081SOL    HW1 9575   1.999   0.626   2.012
 3081SOL    HW2 9576   2.093   0.589   1.883
 3082SOL     OW 9577   2.087   0.275   2.858
 3082SOL    HW1 9578   2.122   0.258   2.950
 3082SOL    HW2 9579   1.999   0.230   2.846
 3083SOL     OW 9580   1.881   0.368   2.509
 3083SOL    HW1 9581   1.799   0.411   2.548
 3083SOL    HW2 9582   1.853   0.295   2.446
 3084SOL     OW 9583   2.431   1.275   3.027
 3084SOL    HW1 9584   2.338   1.268   2.990
 3084SOL    HW2 9585   2.442   1.364   3.071
 3085SOL     OW 9586   3.417   1.511   2.565
 3085SOL    HW1 9587   3.360   1.495   2.646
 3085SOL    HW2 9588   3.358   1.521   2.485
 3086SOL     OW 9589   2.997   0.703   2.579
 3086SOL    HW1 9590   3.054   0.781   2.554
 3086SOL    HW2 9591   2.937   0.729   2.655
 3087SOL     OW 9592   3.617   0.607   2.093
 3087SOL    HW1 9593   3.605   0.594   1.994
 3087SOL    HW2 9594   3.587   0.526   2.142
 3088SOL     OW 9595   2.630   1.144   2.885
 3088SOL    HW1 9596   2.552   1.161   2.945
 3088SOL    HW2 9597   2.664   1.231   2.849
 3089SOL     OW 9598   2.712   0.798   3.685
 3089SOL    HW1 9599   2.708   0.874   3.750
 3089SOL    HW2 9600   2.734   0.834   3.594
 3090SOL     OW 9601   2.547   1.012   2.527
 3090SOL    HW1 9602   2.616   0.996   2.597
 3090SOL    HW2 9603   2.474   1.069   2.565
 3091SOL     OW 9604   2.548   1.161   3.665
 3091SOL    HW1 9605   2.608   1.240   3.679
 3091SOL    HW2 9606   2.462   1.192   3.624
 3092SOL     OW 9607   2.197   1.435   2.923
 3092SOL    HW1 9608   2.119   1.404   2.870
 3092SOL    HW2 9609   2.255   1.493   2.866
 3093SOL     OW 9610   3.322   1.505   3.201
 3093SOL    HW1 9611   3.346   1.599   3.227
 3093SOL    HW2 9612   3.306   1.451   3.283
 3094SOL     OW 9613   2.300   0.392   3.361
 3094SOL    HW1 9614   2.382   0.336   3.370
 3094SOL    HW2 9615   2.219   0.334   3.365
 3095SOL     OW 9616   3.465   0.447   2.599
 3095SOL    HW1 9617   3.391   0.493   2.549
 3095SOL    HW2 9618   3.516   0.515   2.652
 3096SOL     OW 9619   2.093   1.713   2.345
 3096SOL    HW1 9620   2.127   1.790   2.399
 3096SOL    HW2 9621   2.137   1.713   2.255
 3097SOL     OW 9622   2.989   1.341   3.552
 3097SOL    HW1 9623   3.036   1.341   3.640
 3097SOL    HW2 9624   2.941   1.254   3.541
 3098SOL     OW 9625   2.092   1.434   2.400
 3098SOL    HW1 9626   2.066   1.530   2.400
 3098SOL    HW2 9627   2.021   1.380   2.445
 3099SOL     OW 9628   2.102   1.091   2.748
 3099SOL    HW1 9629   2.116   1.007   2.800
 3099SOL    HW2 9630   2.047   1.155   2.803
 3100SOL     OW 9631   2.482   1.786   3.301
 3100SOL    HW1 9632   2.390   1.769   3.336
 3100SOL    HW2 9633   2.510   1.878   3.327
 3101SOL     OW 9634   2.468   0.964   1.985
 3101SOL    HW1 9635   2.475   1.048   1.931
 3101SOL    HW2 9636   2.514   0.977   2.073
 3102SOL     OW 9637   3.456   0.114   3.342
 3102SOL    HW1 9638   3.438   0.181   3.270
 3102SOL    HW2 9639   3.453   0.160   3.431
 3103SOL     OW 9640   1.984   0.643   2.425
 3103SOL    HW1 9641   1.939   0.555   2.442
 3103SOL    HW2 9642   1.983   0.697   2.509
 3104SOL     OW 9643   3.704   1.767   2.221
 3104SOL    HW1 9644   3.758   1.738   2.301
 3104SOL    HW2 9645   3.734   1.857   2.192
 3105SOL     OW 9646   1.889   1.596   1.979
 3105SOL    HW1 9647   1.870   1.500   2.000
 3105SOL    HW2 9648   1.856   1.654   2.054
 3106SOL     OW 9649   3.551   0.922   2.474
 3106SOL    HW1 9650   3.646   0.893   2.482
 3106SOL    HW2 9651   3.543   0.987   2.399
 3107SOL     OW 9652   3.503   1.108   2.294
 3107SOL    HW1 9653   3.589   1.110   2.242
 3107SOL    HW2 9654   3.517   1.155   2.382
 3108SOL     OW 9655   1.975   0.737   3.459
 3108SOL    HW1 9656   2.063   0.724   3.504
 3108SOL    HW2 9657   1.962   0.834   3.437
 3109SOL     OW 9658   2.475   1.365   2.588
 3109SOL    HW1 9659   2.426   1.278   2.597
 3109SOL    HW2 9660   2.452   1.408   2.501
 3110SOL     OW 9661   3.155   1.228   3.285
 3110SOL    HW1 9662   3.192   1.155   3.227
 3110SOL    HW2 9663   3.207   1.233   3.370
 3111SOL     OW 9664   2.671   0.004   2.364
 3111SOL    HW1 9665   2.711   0.095   2.355
 3111SOL    HW2 9666   2.571   0.012   2.370
 3112SOL     OW 9667   2.059   0.976   3.126
 3112SOL    HW1 9668   2.148   0.931   3.112
 3112SOL    HW2 9669   1.986   0.911   3.107
 3113SOL     OW 9670   3.387   0.999   2.052
 3113SOL    HW1 9671   3.324   0.923   2.065
 3113SOL    HW2 9672   3.435   1.017   2.138
 3114SOL     OW 9673   3.049   1.792   3.478
 3114SOL    HW1 9674   3.073   1.852   3.402
 3114SOL    HW2 9675   3.056   1.697   3.448
 3115SOL     OW 9676   2.179   0.251   3.663
 3115SOL    HW1 9677   2.250   0.322   3.669
 3115SOL    HW2 9678   2.091   0.290   3.691
 3116SOL     OW 9679   3.328   1.417   2.815
 3116SOL    HW1 9680   3.269   1.423   2.895
 3116SOL    HW2 9681   3.313   1.329   2.769
 3117SOL     OW 9682   3.529   1.714   2.434
 3117SOL    HW1 9683   3.488   1.691   2.346
 3117SOL    HW2 9684   3.511   1.640   2.499
 3118SOL     OW 9685   2.460   0.729   2.132
 3118SOL    HW1 9686   2.484   0.798   2.064
 3118SOL    HW2 9687   2.382   0.762   2.186
 3119SOL     OW 9688   3.143   0.345   2.806
 3119SOL    HW1 9689   3.057   0.295   2.793
 3119SOL    HW2 9690   3.205   0.291   2.862
 3120SOL     OW 9691   3.438   1.662   2.169
 3120SOL    HW1 9692   3.527   1.708   2.172
 3120SOL    HW2 9693   3.417   1.638   2.074
 3121SOL     OW 9694   2.669   0.605   3.327
 3121SOL    HW1 9695   2.622   0.602   3.416
 3121SOL    HW2 9696   2.618   0.550   3.261
 3122SOL     OW 9697   3.256   0.469   3.536
 3122SOL    HW1 9698   3.236   0.512   3.624
 3122SOL    HW2 9699   3.334   0.407   3.545
 3123SOL     OW 9700   2.835   0.890   3.434
 3123SOL    HW1 9701   2.881   0.806   3.405
 3123SOL    HW2 9702   2.779   0.924   3.359
 3124SOL     OW 9703   2.853   0.410   3.104
 3124SOL    HW1 9704   2.776   0.444   3.158
 3124SOL    HW2 9705   2.819   0.359   3.025
 3125SOL     OW 9706   2.903   0.701   2.291
 3125SOL    HW1 9707   2.929   0.697   2.387
 3125SOL    HW2 9708   2.818   0.650   2.277
 3126SOL     OW 9709   1.938   0.811   2.651
 3126SOL    HW1 9710   2.037   0.799   2.660
 3126SOL    HW2 9711   1.914   0.906   2.672
 3127SOL     OW 9712   1.992   1.821   3.433
 3127SOL    HW1 9713   1.982   1.806   3.532
 3127SOL    HW2 9714   1.906   1.857   3.397
 3128SOL     OW 9715   2.727   0.348   2.057
 3128SOL    HW1 9716   2.786   0.411   2.008
 3128SOL    HW2 9717   2.746   0.254   2.028
 3129SOL     OW 9718   3.581   0.585   3.693
 3129SOL    HW1 9719   3.555   0.674   3.657
 3129SOL    HW2 9720   3.579   0.517   3.620
 3130SOL     OW 9721   3.224   1.144   2.407
 3130SOL    HW1 9722   3.307   1.115   2.359
 3130SOL    HW2 9723   3.175   1.211   2.351
 3131SOL     OW 9724   2.412   0.196   2.747
 3131SOL    HW1 9725   2.407   0.191   2.847
 3131SOL    HW2 9726   2.414   0.292   2.718
 3132SOL     OW 9727   2.870   1.456   2.339
 3132SOL    HW1 9728   2.824   1.528   2.287
 3132SOL    HW2 9729   2.866   1.476   2.437
 3133SOL     OW 9730   2.213   1.801   2.715
 3133SOL    HW1 9731   2.263   1.715   2.721
 3133SOL    HW2 9732   2.278   1.878   2.712
 3134SOL     OW 9733   3.657   1.066   2.735
 3134SOL    HW1 9734   3.595   1.051   2.659
 3134SOL    HW2 9735   3.605   1.077   2.820
 3135SOL     OW 9736   3.089   1.550   3.368
 3135SOL    HW1 9737   3.095   1.473   3.432
 3135SOL    HW2 9738   3.037   1.524   3.288
 3136SOL     OW 9739   2.183   0.943   2.104
 3136SOL    HW1 9740   2.265   0.982   2.062
 3136SOL    HW2 9741   2.156   0.861   2.055
 3137SOL     OW 9742   3.320   0.735   2.590
 3137SOL    HW1 9743   3.315   0.670   2.665
 3137SOL    HW2 9744   3.400   0.794   2.603
 3138SOL     OW 9745   2.323   1.266   3.589
 3138SOL    HW1 9746   2.273   1.267   3.503
 3138SOL    HW2 9747   2.260   1.248   3.665
 3139SOL     OW 9748   2.973   1.776   2.099
 3139SOL    HW1 9749   2.913   1.714   2.149
 3139SOL    HW2 9750   3.004   1.732   2.014
 3140SOL     OW 9751   2.064   0.285   3.360
 3140SOL    HW1 9752   1.984   0.345   3.347
 3140SOL    HW2 9753   2.054   0.236   3.446
 3141SOL     OW 9754   3.494   1.377   1.943
 3141SOL    HW1 9755   3.462   1.471   1.933
 3141SOL    HW2 9756   3.418   1.314   1.931
 3142SOL     OW 9757   2.326   1.743   2.185
 3142SOL    HW1 9758   2.359   1.782   2.271
 3142SOL    HW2 9759   2.402   1.736   2.120
 3143SOL     OW 9760   3.262   0.107   2.288
 3143SOL    HW1 9761   3.238   0.070   2.198
 3143SOL    HW2 9762   3.361   0.123   2.292
 3144SOL     OW 9763   2.111   1.785   3.103
 3144SOL    HW1 9764   2.168   1.720   3.153
 3144SOL    HW2 9765   2.095   1.752   3.010
 3145SOL     OW 9766   2.802   1.698   2.766
 3145SOL    HW1 9767   2.882   1.641   2.787
 3145SOL    HW2 9768   2.753   1.658   2.689
 3146SOL     OW 9769   2.244   0.700   2.342
 3146SOL    HW1 9770   2.289   0.610   2.339
 3146SOL    HW2 9771   2.150   0.689   2.375
 3147SOL     OW 9772   3.409   0.222   3.591
 3147SOL    HW1 9773   3.404   0.259   3.683
 3147SOL    HW2 9774   3.337   0.153   3.579
 3148SOL     OW 9775   2.476   0.122   1.979
 3148SOL    HW1 9776   2.574   0.100   1.986
 3148SOL    HW2 9777   2.445   0.105   1.886
 3149SOL     OW 9778   2.643   0.264   3.611
 3149SOL    HW1 9779   2.710   0.203   3.654
 3149SOL    HW2 9780   2.570   0.283   3.676
 3150SOL     OW 9781   2.750   1.514   3.057
 3150SOL    HW1 9782   2.727   1.489   2.963
 3150SOL    HW2 9783   2.811   1.445   3.096
 3151SOL     OW 9784   3.213   0.590   3.295
 3151SOL    HW1 9785   3.241   0.547   3.380
 3151SOL    HW2 9786   3.238   0.686   3.296
 3152SOL     OW 9787   2.665   1.402   2.786
 3152SOL    HW1 9788   2.755   1.416   2.744
 3152SOL    HW2 9789   2.594   1.404   2.715
 3153SOL     OW 9790   2.784   0.503   2.761
 3153SOL    HW1 9791   2.759   0.494   2.665
 3153SOL    HW2 9792   2.832   0.421   2.792
 3154SOL     OW 9793   2.401   0.064   2.374
 3154SOL    HW1 9794   2.320   0.065   2.432
 3154SOL    HW2 9795   2.404   0.147   2.319
 3155SOL     OW 9796   3.296   1.188   1.903
 3155SOL    HW1 9797   3.328   1.112   1.960
 3155SOL    HW2 9798   3.204   1.215   1.933
 3156SOL     OW 9799   2.159   0.035   2.033
 3156SOL    HW1 9800   2.208   0.119   2.012
 3156SOL    HW2 9801   2.221  -0.030   2.078
 3157SOL     OW 9802   2.797   0.236   2.342
 3157SOL    HW1 9803   2.749   0.277   2.264
 3157SOL    HW2 9804   2.896   0.234   2.323
 3158SOL     OW 9805   2.938   0.683   3.326
 3158SOL    HW1 9806   2.858   0.622   3.329
 3158SOL    HW2 9807   3.019   0.630   3.302
 3159SOL     OW 9808   3.089   1.570   2.655
 3159SOL    HW1 9809   3.110   1.644   2.590
 3159SOL    HW2 9810   3.157   1.570   2.728
 3160SOL     OW 9811   2.321   1.152   2.603
 3160SOL    HW1 9812   2.250   1.125   2.668
 3160SOL    HW2 9813   2.295   1.124   2.510
 3161SOL     OW 9814   3.133   1.797   2.453
 3161SOL    HW1 9815   3.177   1.861   2.389
 3161SOL    HW2 9816   3.083   1.849   2.523
 3162SOL     OW 9817   2.894   0.549   1.878
 3162SOL    HW1 9818   2.853   0.631   1.839
 3162SOL    HW2 9819   2.958   0.575   1.951
 3163SOL     OW 9820   1.940   0.556   3.248
 3163SOL    HW1 9821   2.032   0.555   3.207
 3163SOL    HW2 9822   1.934   0.630   3.315
 3164SOL     OW 9823   2.423   0.222   3.009
 3164SOL    HW1 9824   2.461   0.138   3.046
 3164SOL    HW2 9825   2.335   0.241   3.053
 3165SOL     OW 9826   2.728   0.454   2.504
 3165SOL    HW1 9827   2.696   0.526   2.442
 3165SOL    HW2 9828   2.752   0.373   2.451
 3166SOL     OW 9829   2.879   0.039   2.615
 3166SOL    HW1 9830   2.807   0.044   2.546
 3166SOL    HW2 9831   2.855  -0.030   2.684
 3167SOL     OW 9832   3.291   1.173   2.729
 3167SOL    HW1 9833   3.236   1.089   2.722
 3167SOL    HW2 9834   3.317   1.202   2.637
 3168SOL     OW 9835   3.328   0.590   2.854
 3168SOL    HW1 9836   3.298   0.495   2.861
 3168SOL    HW2 9837   3.401   0.606   2.920
 3169SOL     OW 9838   3.719   0.833   2.239
 3169SOL    HW1 9839   3.761   0.769   2.303
 3169SOL    HW2 9840   3.681   0.782   2.161
 3170SOL     OW 9841   2.350   1.385   2.036
 3170SOL    HW1 9842   2.263   1.370   2.083
 3170SOL    HW2 9843   2.333   1.411   1.941
 3171SOL     OW 9844   3.526   1.280   2.519
 3171SOL    HW1 9845   3.625   1.288   2.533
 3171SOL    HW2 9846   3.481   1.364   2.550
 3172SOL     OW 9847   3.252   0.575   1.940
 3172SOL    HW1 9848   3.198   0.554   2.021
 3172SOL    HW2 9849   3.343   0.534   1.949
 3173SOL     OW 9850   2.389   0.256   2.190
 3173SOL    HW1 9851   2.416   0.197   2.115
 3173SOL    HW2 9852   2.389   0.351   2.159
 3174SOL     OW 9853   3.616   1.223   3.450
 3174SOL    HW1 9854   3.707   1.184   3.437
 3174SOL    HW2 9855   3.624   1.319   3.474
 3175SOL     OW 9856   2.926   1.347   3.202
 3175SOL    HW1 9857   2.846   1.324   3.257
 3175SOL    HW2 9858   3.009   1.321   3.251
 3176SOL     OW 9859   3.454   1.629   3.487
 3176SOL    HW1 9860   3.481   1.663   3.397
 3176SOL    HW2 9861   3.533   1.591   3.533
 3177SOL     OW 9862   2.973   1.195   2.962
 3177SOL    HW1 9863   2.933   1.239   3.043
 3177SOL    HW2 9864   2.932   1.232   2.879
 3178SOL     OW 9865   3.500   1.099   2.941
 3178SOL    HW1 9866   3.505   1.180   3.000
 3178SOL    HW2 9867   3.414   1.101   2.890
 3179SOL     OW 9868   2.777   0.089   3.264
 3179SOL    HW1 9869   2.802   0.069   3.169
 3179SOL    HW2 9870   2.849   0.145   3.306
 3180SOL     OW 9871   2.842   1.116   3.581
 3180SOL    HW1 9872   2.743   1.122   3.591
 3180SOL    HW2 9873   2.865   1.036   3.525
 3181SOL     OW 9874   2.567   1.050   2.230
 3181SOL    HW1 9875   2.553   1.057   2.329
 3181SOL    HW2 9876   2.651   0.999   2.212
 3182SOL     OW 9877   2.272   0.813   3.113
 3182SOL    HW1 9878   2.358   0.825   3.163
 3182SOL    HW2 9879   2.230   0.726   3.140
 3183SOL     OW 9880   3.136   0.386   3.124
 3183SOL    HW1 9881   3.157   0.460   3.188
 3183SOL    HW2 9882   3.047   0.403   3.081
 3184SOL     OW 9883   1.926   1.564   3.193
 3184SOL    HW1 9884   1.880   1.646   3.159
 3184SOL    HW2 9885   2.024   1.583   3.202
 3185SOL     OW 9886   2.229   1.100   2.363
 3185SOL    HW1 9887   2.222   1.183   2.307
 3185SOL    HW2 9888   2.233   1.020   2.303
 3186SOL     OW 9889   2.428   0.537   2.727
 3186SOL    HW1 9890   2.440   0.603   2.653
 3186SOL    HW2 9891   2.474   0.571   2.810
 3187SOL     OW 9892   3.114   1.348   2.250
 3187SOL    HW1 9893   3.164   1.425   2.290
 3187SOL    HW2 9894   3.019   1.350   2.282
 3188SOL     OW 9895   3.134   1.445   3.004
 3188SOL    HW1 9896   3.181   1.458   3.091
 3188SOL    HW2 9897   3.068   1.371   3.013
 3189SOL     OW 9898   3.444   0.639   2.334
 3189SOL    HW1 9899   3.413   0.700   2.407
 3189SOL    HW2 9900   3.494   0.691   2.265
 3190SOL     OW 9901   2.216   1.510   3.191
 3190SOL    HW1 9902   2.195   1.466   3.104
 3190SOL    HW2 9903   2.313   1.536   3.194
 3191SOL     OW 9904   2.264   0.751   3.460
 3191SOL    HW1 9905   2.332   0.806   3.413
 3191SOL    HW2 9906   2.304   0.663   3.487
 3192SOL     OW 9907   3.449   0.779   3.532
 3192SOL    HW1 9908   3.357   0.817   3.527
 3192SOL    HW2 9909   3.509   0.826   3.467
 3193SOL     OW 9910   2.875   0.105   3.632
 3193SOL    HW1 9911   2.881   0.190   3.580
 3193SOL    HW2 9912   2.907   0.029   3.575
 3194SOL     OW 9913   2.366   0.050   3.602
 3194SOL    HW1 9914   2.324  -0.007   3.532
 3194SOL    HW2 9915   2.300   0.119   3.634
 3195SOL     OW 9916   2.435   0.870   2.891
 3195SOL    HW1 9917   2.479   0.959   2.882
 3195SOL    HW2 9918   2.372   0.870   2.968
 3196SOL     OW 9919   3.222   0.862   2.907
 3196SOL    HW1 9920   3.147   0.862   2.841
 3196SOL    HW2 9921   3.259   0.770   2.916
 3197SOL     OW 9922   3.071   0.525   2.137
 3197SOL    HW1 9923   3.084   0.441   2.191
 3197SOL    HW2 9924   3.042   0.599   2.197
 3198SOL     OW 9925   2.169   0.213   3.093
 3198SOL    HW1 9926   2.146   0.250   3.183
 3198SOL    HW2 9927   2.139   0.118   3.087
 3199SOL     OW 9928   1.899   1.310   3.144
 3199SOL    HW1 9929   1.952   1.261   3.212
 3199SOL    HW2 9930   1.921   1.408   3.149
 3200SOL     OW 9931   2.594   0.634   2.926
 3200SOL    HW1 9932   2.653   0.608   2.850
 3200SOL    HW2 9933   2.566   0.730   2.915
 3201SOL     OW 9934   3.590   0.935   3.716
 3201SOL    HW1 9935   3.544   0.928   3.627
 3201SOL    HW2 9936   3.528   0.979   3.782
 3202SOL     OW 9937   2.169   0.063   2.480
 3202SOL    HW1 9938   2.158   0.157   2.513
 3202SOL    HW2 9939   2.164   0.000   2.557
 3203SOL     OW 9940   3.484   0.367   2.236
 3203SOL    HW1 9941   3.486   0.291   2.300
 3203SOL    HW2 9942   3.436   0.444   2.276
 3204SOL     OW 9943   2.885   0.766   2.828
 3204SOL    HW1 9944   2.900   0.787   2.924
 3204SOL    HW2 9945   2.855   0.671   2.819
 3205SOL     OW 9946   2.842   1.573   3.562
 3205SOL    HW1 9947   2.822   1.617   3.474
 3205SOL    HW2 9948   2.881   1.482   3.546
 3206SOL     OW 9949   3.721   1.518   3.467
 3206SOL    HW1 9950   3.735   1.545   3.372
 3206SOL    HW2 9951   3.804   1.540   3.520
 3207SOL     OW 9952   2.212   0.898   3.666
 3207SOL    HW1 9953   2.288   0.942   3.714
 3207SOL    HW2 9954   2.247   0.851   3.584
 3208SOL     OW 9955   3.402   0.274   1.987
 3208SOL    HW1 9956   3.341   0.199   2.010
 3208SOL    HW2 9957   3.424   0.326   2.070
 3209SOL     OW 9958   3.165   0.838   1.904
 3209SOL    HW1 9959   3.199   0.745   1.919
 3209SOL    HW2 9960   3.183   0.865   1.809
 3210SOL     OW 9961   2.930   1.333   2.711
 3210SOL    HW1 9962   2.937   1.249   2.656
 3210SOL    HW2 9963   2.992   1.402   2.675
 3211SOL     OW 9964   2.181   0.810   2.811
 3211SOL    HW1 9965   2.274   0.846   2.816
 3211SOL    HW2 9966   2.175   0.725   2.863
 3212SOL     OW 9967   2.201   0.509   2.868
 3212SOL    HW1 9968   2.149   0.426   2.851
 3212SOL    HW2 9969   2.278   0.514   2.804
 3213SOL     OW 9970   3.000   0.380   3.540
 3213SOL    HW1 9971   2.955   0.443   3.604
 3213SOL    HW2 9972   3.093   0.411   3.523
 3214SOL     OW 9973   3.022   0.207   3.339
 3214SOL    HW1 9974   3.022   0.271   3.416
 3214SOL    HW2 9975   3.050   0.255   3.256
 3215SOL     OW 9976   1.870   1.326   2.062
 3215SOL    HW1 9977   1.777   1.347   2.031
 3215SOL    HW2 9978   1.880   1.227   2.075
 3216SOL     OW 9979   1.950   1.801   2.789
 3216SOL    HW1 9980   1.908   1.715   2.762
 3216SOL    HW2 9981   2.044   1.804   2.755
 3217SOL     OW 9982   2.366   1.568   2.772
 3217SOL    HW1 9983   2.432   1.642   2.781
 3217SOL    HW2 9984   2.410   1.489   2.730
 3218SOL     OW 9985   2.864   0.796   3.100
 3218SOL    HW1 9986   2.905   0.764   3.186
 3218SOL    HW2 9987   2.768   0.769   3.097
 3219SOL     OW 9988   1.902   0.544   2.976
 3219SOL    HW1 9989   1.987   0.511   2.935
 3219SOL    HW2 9990   1.915   0.559   3.074
 3220SOL     OW 9991   2.051   0.520   3.584
 3220SOL    HW1 9992   2.110   0.480   3.514
 3220SOL    HW2 9993   1.993   0.591   3.543
 3221SOL     OW 9994   3.231   0.950   3.522
 3221SOL    HW1 9995   3.270   1.039   3.542
 3221SOL    HW2 9996   3.241   0.930   3.425
 3222SOL     OW 9997   2.677   0.572   2.187
 3222SOL    HW1 9998   2.684   0.483   2.141
 3222SOL    HW2 9999   2.583   0.606   2.179
 3223SOL     OW10000   3.519   0.604   3.068
 3223SOL    HW110001   3.481   0.535   3.130
 3223SOL    HW210002   3.601   0.568   3.024
 3224SOL     OW10003   2.114   1.564   3.606
 3224SOL    HW110004   2.084   1.621   3.682
 3224SOL    HW210005   2.107   1.467   3.632
 3225SOL     OW10006   2.533   0.464   3.131
 3225SOL    HW110007   2.499   0.375   3.101
 3225SOL    HW210008   2.559   0.518   3.051
 3226SOL     OW10009   2.792   1.678   3.327
 3226SOL    HW110010   2.768   1.660   3.232
 3226SOL    HW210011   2.822   1.772   3.337
 3227SOL     OW10012   2.335   0.500   2.053
 3227SOL    HW110013   2.396   0.580   2.057
 3227SOL    HW210014   2.240   0.531   2.060
 3228SOL     OW10015   2.021   1.137   3.328
 3228SOL    HW110016   2.043   1.076   3.404
 3228SOL    HW210017   2.031   1.088   3.242
 3229SOL     OW10018   3.209   1.059   3.096
 3229SOL    HW110019   3.233   0.996   3.022
 3229SOL    HW210020   3.119   1.099   3.078
 3230SOL     OW10021   3.164   0.855   2.171
 3230SOL    HW110022   3.078   0.824   2.213
 3230SOL    HW210023   3.160   0.841   2.072
 3231SOL     OW10024   3.621   1.747   3.016
 3231SOL    HW110025   3.682   1.777   2.943
 3231SOL    HW210026   3.583   1.658   2.994
 3232SOL     OW10027   3.114   1.731   2.990
 3232SOL    HW110028   3.198   1.736   2.936
 3232SOL    HW210029   3.091   1.635   3.008
 3233SOL     OW10030   1.945   1.258   2.884
 3233SOL    HW110031   1.940   1.257   2.984
 3233SOL    HW210032   1.862   1.217   2.846
 3234SOL     OW10033   2.550   1.662   3.578
 3234SOL    HW110034   2.494   1.743   3.587
 3234SOL    HW210035   2.602   1.666   3.492
 3235SOL     OW10036   3.588   0.135   2.385
 3235SOL    HW110037   3.661   0.118   2.318
 3235SOL    HW210038   3.557   0.048   2.423
 3236SOL     OW10039   3.250   1.573   2.339
 3236SOL    HW110040   3.317   1.585   2.265
 3236SOL    HW210041   3.210   1.662   2.362
 3237SOL     OW10042   1.992   1.794   3.713
 3237SOL    HW110043   1.951   1.720   3.766
 3237SOL    HW210044   2.056   1.845   3.771
 3238SOL     OW10045   3.142   0.927   2.534
 3238SOL    HW110046   3.202   0.846   2.536
 3238SOL    HW210047   3.182   0.996   2.474
 3239SOL     OW10048   2.692   1.273   3.284
 3239SOL    HW110049   2.687   1.306   3.379
 3239SOL    HW210050   2.606   1.292   3.238
 3240SOL     OW10051   2.534   1.616   2.016
 3240SOL    HW110052   2.543   1.626   1.917
 3240SOL    HW210053   2.494   1.527   2.037
 3241SOL     OW10054   3.512   1.720   3.256
 3241SOL    HW110055   3.565   1.730   3.172
 3241SOL    HW210056   3.485   1.810   3.290
 3242SOL     OW10057   3.703   0.175   2.825
 3242SOL    HW110058   3.742   0.090   2.789
 3242SOL    HW210059   3.605   0.177   2.806
 3243SOL     OW10060   2.125   0.326   2.582
 3243SOL    HW110061   2.046   0.377   2.548
 3243SOL    HW210062   2.116   0.311   2.680
 3244SOL     OW10063   3.056   1.612   1.893
 3244SOL    HW110064   3.062   1.519   1.930
 3244SOL    HW210065   2.997   1.612   1.813
 3245SOL     OW10066   2.684   1.002   3.234
 3245SOL    HW110067   2.724   1.001   3.142
 3245SOL    HW210068   2.694   1.094   3.274
 3246SOL     OW10069   2.778   0.910   2.153
 3246SOL    HW110070   2.841   0.948   2.085
 3246SOL    HW210071   2.818   0.827   2.192
 3247SOL     OW10072   3.366   1.607   1.906
 3247SOL    HW110073   3.274   1.644   1.913
 3247SOL    HW210074   3.404   1.627   1.816
 3248SOL     OW10075   2.234   1.288   3.352
 3248SOL    HW110076   2.221   1.381   3.318
 3248SOL    HW210077   2.150   1.236   3.339
 3249SOL     OW10078   3.476   1.292   3.151
 3249SOL    HW110079   3.536   1.295   3.231
 3249SOL    HW210080   3.401   1.356   3.164
 3250SOL     OW10081   2.901   1.098   2.558
 3250SOL    HW110082   2.831   1.051   2.612
 3250SOL    HW210083   2.960   1.030   2.515
 3251SOL     OW10084   2.876   0.236   2.833
 3251SOL    HW110085   2.868   0.200   2.740
 3251SOL    HW210086   2.874   0.160   2.898
 3252SOL     OW10087   2.452   1.487   2.353
 3252SOL    HW110088   2.494   1.429   2.283
 3252SOL    HW210089   2.408   1.566   2.309
 3253SOL     OW10090   3.571   0.385   3.243
 3253SOL    HW110091   3.644   0.454   3.247
 3253SOL    HW210092   3.599   0.310   3.184
 3254SOL     OW10093   2.117   1.348   2.152
 3254SOL    HW110094   2.021   1.349   2.125
 3254SOL    HW210095   2.129   1.401   2.236
 3255SOL     OW10096   1.967   1.013   3.588
 3255SOL    HW110097   1.890   0.980   3.642
 3255SOL    HW210098   2.052   0.983   3.630
 3256SOL     OW10099   2.534   0.203   3.351
 3256SOL    HW110100   2.624   0.187   3.311
 3256SOL    HW210101   2.542   0.208   3.450
 3257SOL     OW10102   1.937   0.345   1.895
 3257SOL    HW110103   1.845   0.317   1.866
 3257SOL    HW210104   1.968   0.422   1.839
 3258SOL     OW10105   3.302   0.856   3.260
 3258SOL    HW110106   3.245   0.908   3.197
 3258SOL    HW210107   3.398   0.868   3.236
 3259SOL     OW10108   1.934   0.166   2.180
 3259SOL    HW110109   1.917   0.249   2.126
 3259SOL    HW210110   2.024   0.129   2.158
 3260SOL     OW10111   3.045   1.335   1.981
 3260SOL    HW110112   2.946   1.324   1.983
 3260SOL    HW210113   3.079   1.350   2.074
 3261SOL     OW10114   2.475   0.842   3.293
 3261SOL    HW110115   2.531   0.923   3.276
 3261SOL    HW210116   2.534   0.762   3.296
 3262SOL     OW10117   3.355   1.767   2.821
 3262SOL    HW110118   3.388   1.831   2.752
 3262SOL    HW210119   3.421   1.761   2.896
 3263SOL     OW10120   2.578   0.565   3.570
 3263SOL    HW110121   2.597   0.630   3.644
 3263SOL    HW210122   2.638   0.485   3.579
 3264SOL     OW10123   3.312   1.220   3.495
 3264SOL    HW110124   3.303   1.210   3.594
 3264SOL    HW210125   3.408   1.213   3.469
 3265SOL     OW10126   2.252   1.741   3.422
 3265SOL    HW110127   2.161   1.782   3.420
 3265SOL    HW210128   2.245   1.647   3.454
 3266SOL     OW10129   3.536   0.883   3.116
 3266SOL    HW110130   3.509   0.794   3.079
 3266SOL    HW210131   3.537   0.951   3.043
 3267SOL     OW10132   3.087   0.325   2.311
 3267SOL    HW110133   3.152   0.251   2.300
 3267SOL    HW210134   3.107   0.375   2.395
 3268SOL     OW10135   2.456   0.745   2.514
 3268SOL    HW110136   2.506   0.830   2.495
 3268SOL    HW210137   2.368   0.747   2.466
 3269SOL     OW10138   3.639   0.342   3.504
 3269SOL    HW110139   3.622   0.373   3.410
 3269SOL    HW210140   3.555   0.305   3.542
 3270SOL     OW10141   3.592   0.934   3.379
 3270SOL    HW110142   3.630   1.025   3.394
 3270SOL    HW210143   3.584   0.917   3.280
 3271SOL     OW10144   2.721   1.374   1.878
 3271SOL    HW110145   2.675   1.389   1.966
 3271SOL    HW210146   2.765   1.459   1.848
 3272SOL     OW10147   2.523   1.790   2.815
 3272SOL    HW110148   2.477   1.878   2.802
 3272SOL    HW210149   2.622   1.802   2.808
 3273SOL     OW10150   2.721   0.956   2.723
 3273SOL    HW110151   2.775   0.887   2.771
 3273SOL    HW210152   2.689   1.025   2.789
 3274SOL     OW10153   2.945   0.984   1.949
 3274SOL    HW110154   2.922   1.037   1.867
 3274SOL    HW210155   3.026   0.928   1.930
 3275SOL     OW10156   3.723   1.569   2.713
 3275SOL    HW110157   3.652   1.557   2.643
 3275SOL    HW210158   3.724   1.490   2.773
 3276SOL     OW10159   2.083   1.314   3.706
 3276SOL    HW110160   2.018   1.241   3.685
 3276SOL    HW210161   2.087   1.328   3.804
 3277SOL     OW10162   1.941   1.240   2.515
 3277SOL    HW110163   1.940   1.193   2.603
 3277SOL    HW210164   2.023   1.212   2.464
 3278SOL     OW10165   2.534   1.391   3.486
 3278SOL    HW110166   2.456   1.341   3.524
 3278SOL    HW210167   2.531   1.486   3.517
 3279SOL     OW10168   3.686   0.192   3.089
 3279SOL    HW110169   3.682   0.102   3.133
 3279SOL    HW210170   3.689   0.181   2.990
 3280SOL     OW10171   2.290   0.424   2.382
 3280SOL    HW110172   2.320   0.352   2.320
 3280SOL    HW210173   2.251   0.384   2.465
 3281SOL     OW10174   3.567   1.487   2.966
 3281SOL    HW110175   3.474   1.462   2.939
 3281SOL    HW210176   3.593   1.437   3.048
 3282SOL     OW10177   2.179   0.547   3.142
 3282SOL    HW110178   2.217   0.488   3.214
 3282SOL    HW210179   2.219   0.521   3.054
 3283SOL     OW10180   2.674   1.586   2.549
 3283SOL    HW110181   2.706   1.596   2.455
 3283SOL    HW210182   2.595   1.524   2.551
 3284SOL     OW10183   3.286   0.214   2.974
 3284SOL    HW110184   3.338   0.149   3.029
 3284SOL    HW210185   3.237   0.277   3.035
 3285SOL     OW10186   2.863   0.034   3.016
 3285SOL    HW110187   2.800  -0.038   2.985
 3285SOL    HW210188   2.956  -0.002   3.016
 3286SOL     OW10189   2.632   1.330   2.163
 3286SOL    HW110190   2.586   1.243   2.180
 3286SOL    HW210191   2.723   1.327   2.204
 3287SOL     OW10192   2.480   1.567   3.146
 3287SOL    HW110193   2.475   1.649   3.203
 3287SOL    HW210194   2.569   1.564   3.101
 3288SOL     OW10195   3.214   0.052   2.030
 3288SOL    HW110196   3.249   0.011   1.946
 3288SOL    HW210197   3.124   0.014   2.050
 3289SOL     OW10198   3.162   0.453   2.553
 3289SOL    HW110199   3.103   0.533   2.557
 3289SOL    HW210200   3.177   0.418   2.646
 3290SOL     OW10201   3.455   0.221   2.744
 3290SOL    HW110202   3.371   0.220   2.798
 3290SOL    HW210203   3.457   0.304   2.688
 3291SOL     OW10204   1.901   1.077   2.162
 3291SOL    HW110205   2.000   1.066   2.153
 3291SOL    HW210206   1.861   0.991   2.194
 3292SOL     OW10207   2.737   1.646   2.199
 3292SOL    HW110208   2.660   1.611   2.145
 3292SOL    HW210209   2.705   1.717   2.261
 3293SOL     OW10210   2.092   0.628   3.837
 3293SOL    HW110211   1.999   0.626   3.874
 3293SOL    HW210212   2.093   0.589   3.745
 3294SOL     OW10213   2.087   0.275   4.720
 3294SOL    HW110214   2.122   0.258   4.812
 3294SOL    HW210215   1.999   0.230   4.708
 3295SOL     OW10216   1.881   0.368   4.371
 3295SOL    HW110217   1.799   0.411   4.410
 3295SOL    HW210218   1.853   0.295   4.308
 3296SOL     OW10219   2.431   1.275   4.889
 3296SOL    HW110220   2.338   1.268   4.852
 3296SOL    HW210221   2.442   1.364   4.933
 3297SOL     OW10222   3.417   1.511   4.427
 3297SOL    HW110223   3.360   1.495   4.508
 3297SOL    HW210224   3.358   1.521   4.347
 3298SOL     OW10225   2.997   0.703   4.441
 3298SOL    HW110226   3.054   0.781   4.416
 3298SOL    HW210227   2.937   0.729   4.517
 3299SOL     OW10228   3.617   0.607   3.955
 3299SOL    HW110229   3.605   0.594   3.856
 3299SOL    HW210230   3.587   0.526   4.004
 3300SOL     OW10231   2.630   1.144   4.747
 3300SOL    HW110232   2.552   1.161   4.807
 3300SOL    HW210233   2.664   1.231   4.711
 3301SOL     OW10234   2.712   0.798   5.547
 3301SOL    HW110235   2.708   0.874   5.612
 3301SOL    HW210236   2.734   0.834   5.456
 3302SOL     OW10237   2.547   1.012   4.389
 3302SOL    HW110238   2.616   0.996   4.459
 3302SOL    HW210239   2.474   1.069   4.427
 3303SOL     OW10240   2.548   1.161   5.527
 3303SOL    HW110241   2.608   1.240   5.541
 3303SOL    HW210242   2.462   1.192   5.486
 3304SOL     OW10243   2.197   1.435   4.785
 3304SOL    HW110244   2.119   1.404   4.732
 3304SOL    HW210245   2.255   1.493   4.728
 3305SOL     OW10246   3.322   1.505   5.063
 3305SOL    HW110247   3.346   1.599   5.089
 3305SOL    HW210248   3.306   1.451   5.145
 3306SOL     OW10249   2.300   0.392   5.223
 3306SOL    HW110250   2.382   0.336   5.232
 3306SOL    HW210251   2.219   0.334   5.227
 3307SOL     OW10252   3.465   0.447   4.461
 3307SOL    HW110253   3.391   0.493   4.411
 3307SOL    HW210254   3.516   0.515   4.514
 3308SOL     OW10255   2.093   1.713   4.207
 3308SOL    HW110256   2.127   1.790   4.261
 3308SOL    HW210257   2.137   1.713   4.117
 3309SOL     OW10258   2.989   1.341   5.414
 3309SOL    HW110259   3.036   1.341   5.502
 3309SOL    HW210260   2.941   1.254   5.403
 3310SOL     OW10261   2.092   1.434   4.262
 3310SOL    HW110262   2.066   1.530   4.262
 3310SOL    HW210263   2.021   1.380   4.307
 3311SOL     OW10264   2.102   1.091   4.610
 3311SOL    HW110265   2.116   1.007   4.662
 3311SOL    HW210266   2.047   1.155   4.665
 3312SOL     OW10267   2.468   0.964   3.847
 3312SOL    HW110268   2.475   1.048   3.793
 3312SOL    HW210269   2.514   0.977   3.935
 3313SOL     OW10270   3.456   0.114   5.204
 3313SOL    HW110271   3.438   0.181   5.132
 3313SOL    HW210272   3.453   0.160   5.293
 3314SOL     OW10273   1.984   0.643   4.287
 3314SOL    HW110274   1.939   0.555   4.304
 3314SOL    HW210275   1.983   0.697   4.371
 3315SOL     OW10276   3.704   1.767   4.083
 3315SOL    HW110277   3.758   1.738   4.163
 3315SOL    HW210278   3.734   1.857   4.054
 3316SOL     OW10279   1.889   1.596   3.841
 3316SOL    HW110280   1.870   1.500   3.862
 3316SOL    HW210281   1.856   1.654   3.916
 3317SOL     OW10282   3.551   0.922   4.336
 3317SOL    HW110283   3.646   0.893   4.344
 3317SOL    HW210284   3.543   0.987   4.261
 3318SOL     OW10285   3.503   1.108   4.156
 3318SOL    HW110286   3.589   1.110   4.104
 3318SOL    HW210287   3.517   1.155   4.244
 3319SOL     OW10288   1.975   0.737   5.321
 3319SOL    HW110289   2.063   0.724   5.366
 3319SOL    HW210290   1.962   0.834   5.299
 3320SOL     OW10291   2.475   1.365   4.450
 3320SOL    HW110292   2.426   1.278   4.459
 3320SOL    HW210293   2.452   1.408   4.363
 3321SOL     OW10294   3.155   1.228   5.147
 3321SOL    HW110295   3.192   1.155   5.089
 3321SOL    HW210296   3.207   1.233   5.232
 3322SOL     OW10297   2.671   0.004   4.226
 3322SOL    HW110298   2.711   0.095   4.217
 3322SOL    HW210299   2.571   0.012   4.232
 3323SOL     OW10300   2.059   0.976   4.988
 3323SOL    HW110301   2.148   0.931   4.974
 3323SOL    HW210302   1.986   0.911   4.969
 3324SOL     OW10303   3.387   0.999   3.914
 3324SOL    HW110304   3.324   0.923   3.927
 3324SOL    HW210305   3.435   1.017   4.000
 3325SOL     OW10306   3.049   1.792   5.340
 3325SOL    HW110307   3.073   1.852   5.264
 3325SOL    HW210308   3.056   1.697   5.310
 3326SOL     OW10309   2.179   0.251   5.525
 3326SOL    HW110310   2.250   0.322   5.531
 3326SOL    HW210311   2.091   0.290   5.553
 3327SOL     OW10312   3.328   1.417   4.677
 3327SOL    HW110313   3.269   1.423   4.757
 3327SOL    HW210314   3.313   1.329   4.631
 3328SOL     OW10315   3.529   1.714   4.296
 3328SOL    HW110316   3.488   1.691   4.208
 3328SOL    HW210317   3.511   1.640   4.361
 3329SOL     OW10318   2.460   0.729   3.994
 3329SOL    HW110319   2.484   0.798   3.926
 3329SOL    HW210320   2.382   0.762   4.048
 3330SOL     OW10321   3.143   0.345   4.668
 3330SOL    HW110322   3.057   0.295   4.655
 3330SOL    HW210323   3.205   0.291   4.724
 3331SOL     OW10324   3.438   1.662   4.031
 3331SOL    HW110325   3.527   1.708   4.034
 3331SOL    HW210326   3.417   1.638   3.936
 3332SOL     OW10327   2.669   0.605   5.189
 3332SOL    HW110328   2.622   0.602   5.278
 3332SOL    HW210329   2.618   0.550   5.123
 3333SOL     OW10330   3.256   0.469   5.398
 3333SOL    HW110331   3.236   0.512   5.486
 3333SOL    HW210332   3.334   0.407   5.407
 3334SOL     OW10333   2.835   0.890   5.296
 3334SOL    HW110334   2.881   0.806   5.267
 3334SOL    HW210335   2.779   0.924   5.221
 3335SOL     OW10336   2.853   0.410   4.966
 3335SOL    HW110337   2.776   0.444   5.020
 3335SOL    HW210338   2.819   0.359   4.887
 3336SOL     OW10339   2.903   0.701   4.153
 3336SOL    HW110340   2.929   0.697   4.249
 3336SOL    HW210341   2.818   0.650   4.139
 3337SOL     OW10342   1.938   0.811   4.513
 3337SOL    HW110343   2.037   0.799   4.522
 3337SOL    HW210344   1.914   0.906   4.534
 3338SOL     OW10345   1.992   1.821   5.295
 3338SOL    HW110346   1.982   1.806   5.394
 3338SOL    HW210347   1.906   1.857   5.259
 3339SOL     OW10348   2.727   0.348   3.919
 3339SOL    HW110349   2.786   0.411   3.870
 3339SOL    HW210350   2.746   0.254   3.890
 3340SOL     OW10351   3.581   0.585   5.555
 3340SOL    HW110352   3.555   0.674   5.519
 3340SOL    HW210353   3.579   0.517   5.482
 3341SOL     OW10354   3.224   1.144   4.269
 3341SOL    HW110355   3.307   1.115   4.221
 3341SOL    HW210356   3.175   1.211   4.213
 3342SOL     OW10357   2.412   0.196   4.609
 3342SOL    HW110358   2.407   0.191   4.709
 3342SOL    HW210359   2.414   0.292   4.580
 3343SOL     OW10360   2.870   1.456   4.201
 3343SOL    HW110361   2.824   1.528   4.149
 3343SOL    HW210362   2.866   1.476   4.299
 3344SOL     OW10363   2.213   1.801   4.577
 3344SOL    HW110364   2.263   1.715   4.583
 3344SOL    HW210365   2.278   1.878   4.574
 3345SOL     OW10366   3.657   1.066   4.597
 3345SOL    HW110367   3.595   1.051   4.521
 3345SOL    HW210368   3.605   1.077   4.682
 3346SOL     OW10369   3.089   1.550   5.230
 3346SOL    HW110370   3.095   1.473   5.294
 3346SOL    HW210371   3.037   1.524   5.150
 3347SOL     OW10372   2.183   0.943   3.966
 3347SOL    HW110373   2.265   0.982   3.924
 3347SOL    HW210374   2.156   0.861   3.917
 3348SOL     OW10375   3.320   0.735   4.452
 3348SOL    HW110376   3.315   0.670   4.527
 3348SOL    HW210377   3.400   0.794   4.465
 3349SOL     OW10378   2.323   1.266   5.451
 3349SOL    HW110379   2.273   1.267   5.365
 3349SOL    HW210380   2.260   1.248   5.527
 3350SOL     OW10381   2.973   1.776   3.961
 3350SOL    HW110382   2.913   1.714   4.011
 3350SOL    HW210383   3.004   1.732   3.876
 3351SOL     OW10384   2.064   0.285   5.222
 3351SOL    HW110385   1.984   0.345   5.209
 3351SOL    HW210386   2.054   0.236   5.308
 3352SOL     OW10387   3.494   1.377   3.805
 3352SOL    HW110388   3.462   1.471   3.795
 3352SOL    HW210389   3.418   1.314   3.793
 3353SOL     OW10390   2.326   1.743   4.047
 3353SOL    HW110391   2.359   1.782   4.133
 3353SOL    HW210392   2.402   1.736   3.982
 3354SOL     OW10393   3.262   0.107   4.150
 3354SOL    HW110394   3.238   0.070   4.060
 3354SOL    HW210395   3.361   0.123   4.154
 3355SOL     OW10396   2.802   1.698   4.628
 3355SOL    HW110397   2.882   1.641   4.649
 3355SOL    HW210398   2.753   1.658   4.551
 3356SOL     OW10399   2.244   0.700   4.204
 3356SOL    HW110400   2.289   0.610   4.201
 3356SOL    HW210401   2.150   0.689   4.237
 3357SOL     OW10402   3.409   0.222   5.453
 3357SOL    HW110403   3.404   0.259   5.545
 3357SOL    HW210404   3.337   0.153   5.441
 3358SOL     OW10405   2.476   0.122   3.841
 3358SOL    HW110406   2.574   0.100   3.848
 3358SOL    HW210407   2.445   0.105   3.748
 3359SOL     OW10408   2.643   0.264   5.473
 3359SOL    HW110409   2.710   0.203   5.516
 3359SOL    HW210410   2.570   0.283   5.538
 3360SOL     OW10411   2.750   1.514   4.919
 3360SOL    HW110412   2.727   1.489   4.825
 3360SOL    HW210413   2.811   1.445   4.958
 3361SOL     OW10414   3.213   0.590   5.157
 3361SOL    HW110415   3.241   0.547   5.242
 3361SOL    HW210416   3.238   0.686   5.158
 3362SOL     OW10417   2.665   1.402   4.648
 3362SOL    HW110418   2.755   1.416   4.606
 3362SOL    HW210419   2.594   1.404   4.577
 3363SOL     OW10420   2.784   0.503   4.623
 3363SOL    HW110421   2.759   0.494   4.527
 3363SOL    HW210422   2.832   0.421   4.654
 3364SOL     OW10423   2.401   0.064   4.236
 3364SOL    HW110424   2.320   0.065   4.294
 3364SOL    HW210425   2.404   0.147   4.181
 3365SOL     OW10426   3.296   1.188   3.765
 3365SOL    HW110427   3.328   1.112   3.822
 3365SOL    HW210428   3.204   1.215   3.795
 3366SOL     OW10429   2.159   0.035   3.895
 3366SOL    HW110430   2.208   0.119   3.874
 3366SOL    HW210431   2.221  -0.030   3.940
 3367SOL     OW10432   2.797   0.236   4.204
 3367SOL    HW110433   2.749   0.277   4.126
 3367SOL    HW210434   2.896   0.234   4.185
 3368SOL     OW10435   2.938   0.683   5.188
 3368SOL    HW110436   2.858   0.622   5.191
 3368SOL    HW210437   3.019   0.630   5.164
 3369SOL     OW10438   3.089   1.570   4.517
 3369SOL    HW110439   3.110   1.644   4.452
 3369SOL    HW210440   3.157   1.570   4.590
 3370SOL     OW10441   2.321   1.152   4.465
 3370SOL    HW110442   2.250   1.125   4.530
 3370SOL    HW210443   2.295   1.124   4.372
 3371SOL     OW10444   3.133   1.797   4.315
 3371SOL    HW110445   3.177   1.861   4.251
 3371SOL    HW210446   3.083   1.849   4.385
 3372SOL     OW10447   2.894   0.549   3.740
 3372SOL    HW110448   2.853   0.631   3.701
 3372SOL    HW210449   2.958   0.575   3.813
 3373SOL     OW10450   1.940   0.556   5.110
 3373SOL    HW110451   2.032   0.555   5.069
 3373SOL    HW210452   1.934   0.630   5.177
 3374SOL     OW10453   2.423   0.222   4.871
 3374SOL    HW110454   2.461   0.138   4.908
 3374SOL    HW210455   2.335   0.241   4.915
 3375SOL     OW10456   2.728   0.454   4.366
 3375SOL    HW110457   2.696   0.526   4.304
 3375SOL    HW210458   2.752   0.373   4.313
 3376SOL     OW10459   2.879   0.039   4.477
 3376SOL    HW110460   2.807   0.044   4.408
 3376SOL    HW210461   2.855  -0.030   4.546
 3377SOL     OW10462   3.291   1.173   4.591
 3377SOL    HW110463   3.236   1.089   4.584
 3377SOL    HW210464   3.317   1.202   4.499
 3378SOL     OW10465   3.328   0.590   4.716
 3378SOL    HW110466   3.298   0.495   4.723
 3378SOL    HW210467   3.401   0.606   4.782
 3379SOL     OW10468   3.719   0.833   4.101
 3379SOL    HW110469   3.761   0.769   4.165
 3379SOL    HW210470   3.681   0.782   4.023
 3380SOL     OW10471   2.350   1.385   3.898
 3380SOL    HW110472   2.263   1.370   3.945
 3380SOL    HW210473   2.333   1.411   3.803
 3381SOL     OW10474   3.526   1.280   4.381
 3381SOL    HW110475   3.625   1.288   4.395
 3381SOL    HW210476   3.481   1.364   4.412
 3382SOL     OW10477   3.252   0.575   3.802
 3382SOL    HW110478   3.198   0.554   3.883
 3382SOL    HW210479   3.343   0.534   3.811
 3383SOL     OW10480   2.389   0.256   4.052
 3383SOL    HW110481   2.416   0.197   3.977
 3383SOL    HW210482   2.389   0.351   4.021
 3384SOL     OW10483   3.616   1.223   5.312
 3384SOL    HW110484   3.707   1.184   5.299
 3384SOL    HW210485   3.624   1.319   5.336
 3385SOL     OW10486   2.926   1.347   5.064
 3385SOL    HW110487   2.846   1.324   5.119
 3385SOL    HW210488   3.009   1.321   5.113
 3386SOL     OW10489   3.454   1.629   5.349
 3386SOL    HW110490   3.481   1.663   5.259
 3386SOL    HW210491   3.533   1.591   5.395
 3387SOL     OW10492   2.973   1.195   4.824
 3387SOL    HW110493   2.933   1.239   4.905
 3387SOL    HW210494   2.932   1.232   4.741
 3388SOL     OW10495   3.500   1.099   4.803
 3388SOL    HW110496   3.505   1.180   4.862
 3388SOL    HW210497   3.414   1.101   4.752
 3389SOL     OW10498   2.777   0.089   5.126
 3389SOL    HW110499   2.802   0.069   5.031
 3389SOL    HW210500   2.849   0.145   5.168
 3390SOL     OW10501   2.842   1.116   5.443
 3390SOL    HW110502   2.743   1.122   5.453
 3390SOL    HW210503   2.865   1.036   5.387
 3391SOL     OW10504   2.567   1.050   4.092
 3391SOL    HW110505   2.553   1.057   4.191
 3391SOL    HW210506   2.651   0.999   4.074
 3392SOL     OW10507   2.272   0.813   4.975
 3392SOL    HW110508   2.358   0.825   5.025
 3392SOL    HW210509   2.230   0.726   5.002
 3393SOL     OW10510   3.136   0.386   4.986
 3393SOL    HW110511   3.157   0.460   5.050
 3393SOL    HW210512   3.047   0.403   4.943
 3394SOL     OW10513   1.926   1.564   5.055
 3394SOL    HW110514   1.880   1.646   5.021
 3394SOL    HW210515   2.024   1.583   5.064
 3395SOL     OW10516   2.229   1.100   4.225
 3395SOL    HW110517   2.222   1.183   4.169
 3395SOL    HW210518   2.233   1.020   4.165
 3396SOL     OW10519   2.428   0.537   4.589
 3396SOL    HW110520   2.440   0.603   4.515
 3396SOL    HW210521   2.474   0.571   4.672
 3397SOL     OW10522   3.114   1.348   4.112
 3397SOL    HW110523   3.164   1.425   4.152
 3397SOL    HW210524   3.019   1.350   4.144
 3398SOL     OW10525   3.134   1.445   4.866
 3398SOL    HW110526   3.181   1.458   4.953
 3398SOL    HW210527   3.068   1.371   4.875
 3399SOL     OW10528   3.444   0.639   4.196
 3399SOL    HW110529   3.413   0.700   4.269
 3399SOL    HW210530   3.494   0.691   4.127
 3400SOL     OW10531   2.216   1.510   5.053
 3400SOL    HW110532   2.195   1.466   4.966
 3400SOL    HW210533   2.313   1.536   5.056
 3401SOL     OW10534   2.264   0.751   5.322
 3401SOL    HW110535   2.332   0.806   5.275
 3401SOL    HW210536   2.304   0.663   5.349
 3402SOL     OW10537   3.449   0.779   5.394
 3402SOL    HW110538   3.357   0.817   5.389
 3402SOL    HW210539   3.509   0.826   5.329
 3403SOL     OW10540   2.875   0.105   5.494
 3403SOL    HW110541   2.881   0.190   5.442
 3403SOL    HW210542   2.907   0.029   5.437
 3404SOL     OW10543   2.366   0.050   5.464
 3404SOL    HW110544   2.324  -0.007   5.394
 3404SOL    HW210545   2.300   0.119   5.496
 3405SOL     OW10546   2.435   0.870   4.753
 3405SOL    HW110547   2.479   0.959   4.744
 3405SOL    HW210548   2.372   0.870   4.830
 3406SOL     OW10549   3.222   0.862   4.769
 3406SOL    HW110550   3.147   0.862   4.703
 3406SOL    HW210551   3.259   0.770   4.778
 3407SOL     OW10552   3.071   0.525   3.999
 3407SOL    HW110553   3.084   0.441   4.053
 3407SOL    HW210554   3.042   0.599   4.059
 3408SOL     OW10555   2.169   0.213   4.955
 3408SOL    HW110556   2.146   0.250   5.045
 3408SOL    HW210557   2.139   0.118   4.949
 3409SOL     OW10558   1.899   1.310   5.006
 3409SOL    HW110559   1.952   1.261   5.074
 3409SOL    HW210560   1.921   1.408   5.011
 3410SOL     OW10561   2.594   0.634   4.788
 3410SOL    HW110562   2.653   0.608   4.712
 3410SOL    HW210563   2.566   0.730   4.777
 3411SOL     OW10564   3.590   0.935   5.578
 3411SOL    HW110565   3.544   0.928   5.489
 3411SOL    HW210566   3.528   0.979   5.644
 3412SOL     OW10567   2.169   0.063   4.342
 3412SOL    HW110568   2.158   0.157   4.375
 3412SOL    HW210569   2.164   0.000   4.419
 3413SOL     OW10570   3.484   0.367   4.098
 3413SOL    HW110571   3.486   0.291   4.162
 3413SOL    HW210572   3.436   0.444   4.138
 3414SOL     OW10573   2.885   0.766   4.690
 3414SOL    HW110574   2.900   0.787   4.786
 3414SOL    HW210575   2.855   0.671   4.681
 3415SOL     OW10576   2.842   1.573   5.424
 3415SOL    HW110577   2.822   1.617   5.336
 3415SOL    HW210578   2.881   1.482   5.408
 3416SOL     OW10579   3.721   1.518   5.329
 3416SOL    HW110580   3.735   1.545   5.234
 3416SOL    HW210581   3.804   1.540   5.382
 3417SOL     OW10582   2.212   0.898   5.528
 3417SOL    HW110583   2.288   0.942   5.576
 3417SOL    HW210584   2.247   0.851   5.446
 3418SOL     OW10585   3.402   0.274   3.849
 3418SOL    HW110586   3.341   0.199   3.872
 3418SOL    HW210587   3.424   0.326   3.932
 3419SOL     OW10588   3.165   0.838   3.766
 3419SOL    HW110589   3.199   0.745   3.781
 3419SOL    HW210590   3.183   0.865   3.671
 3420SOL     OW10591   2.930   1.333   4.573
 3420SOL    HW110592   2.937   1.249   4.518
 3420SOL    HW210593   2.992   1.402   4.537
 3421SOL     OW10594   2.181   0.810   4.673
 3421SOL    HW110595   2.274   0.846   4.678
 3421SOL    HW210596   2.175   0.725   4.725
 3422SOL     OW10597   2.201   0.509   4.730
 3422SOL    HW110598   2.149   0.426   4.713
 3422SOL    HW210599   2.278   0.514   4.666
 3423SOL     OW10600   3.000   0.380   5.402
 3423SOL    HW110601   2.955   0.443   5.466
 3423SOL    HW210602   3.093   0.411   5.385
 3424SOL     OW10603   3.022   0.207   5.201
 3424SOL    HW110604   3.022   0.271   5.278
 3424SOL    HW210605   3.050   0.255   5.118
 3425SOL     OW10606   1.870   1.326   3.924
 3425SOL    HW110607   1.777   1.347   3.893
 3425SOL    HW210608   1.880   1.227   3.937
 3426SOL     OW10609   1.950   1.801   4.651
 3426SOL    HW110610   1.908   1.715   4.624
 3426SOL    HW210611   2.044   1.804   4.617
 3427SOL     OW10612   2.366   1.568   4.634
 3427SOL    HW110613   2.432   1.642   4.643
 3427SOL    HW210614   2.410   1.489   4.592
 3428SOL     OW10615   2.864   0.796   4.962
 3428SOL    HW110616   2.905   0.764   5.048
 3428SOL    HW210617   2.768   0.769   4.959
 3429SOL     OW10618   1.902   0.544   4.838
 3429SOL    HW110619   1.987   0.511   4.797
 3429SOL    HW210620   1.915   0.559   4.936
 3430SOL     OW10621   2.051   0.520   5.446
 3430SOL    HW110622   2.110   0.480   5.376
 3430SOL    HW210623   1.993   0.591   5.405
 3431SOL     OW10624   3.231   0.950   5.384
 3431SOL    HW110625   3.270   1.039   5.404
 3431SOL    HW210626   3.241   0.930   5.287
 3432SOL     OW10627   2.677   0.572   4.049
 3432SOL    HW110628   2.684   0.483   4.003
 3432SOL    HW210629   2.583   0.606   4.041
 3433SOL     OW10630   3.519   0.604   4.930
 3433SOL    HW110631   3.481   0.535   4.992
 3433SOL    HW210632   3.601   0.568   4.886
 3434SOL     OW10633   2.114   1.564   5.468
 3434SOL    HW110634   2.084   1.621   5.544
 3434SOL    HW210635   2.107   1.467   5.494
 3435SOL     OW10636   2.533   0.464   4.993
 3435SOL    HW110637   2.499   0.375   4.963
 3435SOL    HW210638   2.559   0.518   4.913
 3436SOL     OW10639   2.792   1.678   5.189
 3436SOL    HW110640   2.768   1.660   5.094
 3436SOL    HW210641   2.822   1.772   5.199
 3437SOL     OW10642   2.335   0.500   3.915
 3437SOL    HW110643   2.396   0.580   3.919
 3437SOL    HW210644   2.240   0.531   3.922
 3438SOL     OW10645   2.021   1.137   5.190
 3438SOL    HW110646   2.043   1.076   5.266
 3438SOL    HW210647   2.031   1.088   5.104
 3439SOL     OW10648   3.209   1.059   4.958
 3439SOL    HW110649   3.233   0.996   4.884
 3439SOL    HW210650   3.119   1.099   4.940
 3440SOL     OW10651   3.164   0.855   4.033
 3440SOL    HW110652   3.078   0.824   4.075
 3440SOL    HW210653   3.160   0.841   3.934
 3441SOL     OW10654   3.621   1.747   4.878
 3441SOL    HW110655   3.682   1.777   4.805
 3441SOL    HW210656   3.583   1.658   4.856
 3442SOL     OW10657   3.114   1.731   4.852
 3442SOL    HW110658   3.198   1.736   4.798
 3442SOL    HW210659   3.091   1.635   4.870
 3443SOL     OW10660   1.945   1.258   4.746
 3443SOL    HW110661   1.940   1.257   4.846
 3443SOL    HW210662   1.862   1.217   4.708
 3444SOL     OW10663   2.550   1.662   5.440
 3444SOL    HW110664   2.494   1.743   5.449
 3444SOL    HW210665   2.602   1.666   5.354
 3445SOL     OW10666   3.588   0.135   4.247
 3445SOL    HW110667   3.661   0.118   4.180
 3445SOL    HW210668   3.557   0.048   4.285
 3446SOL     OW10669   3.250   1.573   4.201
 3446SOL    HW110670   3.317   1.585   4.127
 3446SOL    HW210671   3.210   1.662   4.224
 3447SOL     OW10672   1.992   1.794   5.575
 3447SOL    HW110673   1.951   1.720   5.628
 3447SOL    HW210674   2.056   1.845   5.633
 3448SOL     OW10675   3.142   0.927   4.396
 3448SOL    HW110676   3.202   0.846   4.398
 3448SOL    HW210677   3.182   0.996   4.336
 3449SOL     OW10678   2.692   1.273   5.146
 3449SOL    HW110679   2.687   1.306   5.241
 3449SOL    HW210680   2.606   1.292   5.100
 3450SOL     OW10681   2.534   1.616   3.878
 3450SOL    HW110682   2.543   1.626   3.779
 3450SOL    HW210683   2.494   1.527   3.899
 3451SOL     OW10684   3.512   1.720   5.118
 3451SOL    HW110685   3.565   1.730   5.034
 3451SOL    HW210686   3.485   1.810   5.152
 3452SOL     OW10687   3.703   0.175   4.687
 3452SOL    HW110688   3.742   0.090   4.651
 3452SOL    HW210689   3.605   0.177   4.668
 3453SOL     OW10690   2.125   0.326   4.444
 3453SOL    HW110691   2.046   0.377   4.410
 3453SOL    HW210692   2.116   0.311   4.542
 3454SOL     OW10693   3.056   1.612   3.755
 3454SOL    HW110694   3.062   1.519   3.792
 3454SOL    HW210695   2.997   1.612   3.675
 3455SOL     OW10696   2.684   1.002   5.096
 3455SOL    HW110697   2.724   1.001   5.004
 3455SOL    HW210698   2.694   1.094   5.136
 3456SOL     OW10699   2.778   0.910   4.015
 3456SOL    HW110700   2.841   0.948   3.947
 3456SOL    HW210701   2.818   0.827   4.054
 3457SOL     OW10702   3.366   1.607   3.768
 3457SOL    HW110703   3.274   1.644   3.775
 3457SOL    HW210704   3.404   1.627   3.678
 3458SOL     OW10705   2.234   1.288   5.214
 3458SOL    HW110706   2.221   1.381   5.180
 3458SOL    HW210707   2.150   1.236   5.201
 3459SOL     OW10708   3.476   1.292   5.013
 3459SOL    HW110709   3.536   1.295   5.093
 3459SOL    HW210710   3.401   1.356   5.026
 3460SOL     OW10711   2.901   1.098   4.420
 3460SOL    HW110712   2.831   1.051   4.474
 3460SOL    HW210713   2.960   1.030   4.377
 3461SOL     OW10714   2.876   0.236   4.695
 3461SOL    HW110715   2.868   0.200   4.602
 3461SOL    HW210716   2.874   0.160   4.760
 3462SOL     OW10717   2.452   1.487   4.215
 3462SOL    HW110718   2.494   1.429   4.145
 3462SOL    HW210719   2.408   1.566   4.171
 3463SOL     OW10720   3.571   0.385   5.105
 3463SOL    HW110721   3.644   0.454   5.109
 3463SOL    HW210722   3.599   0.310   5.046
 3464SOL     OW10723   2.117   1.348   4.014
 3464SOL    HW110724   2.021   1.349   3.987
 3464SOL    HW210725   2.129   1.401   4.098
 3465SOL     OW10726   1.967   1.013   5.450
 3465SOL    HW110727   1.890   0.980   5.504
 3465SOL    HW210728   2.052   0.983   5.492
 3466SOL     OW10729   2.534   0.203   5.213
 3466SOL    HW110730   2.624   0.187   5.173
 3466SOL    HW210731   2.542   0.208   5.312
 3467SOL     OW10732   1.937   0.345   3.757
 3467SOL    HW110733   1.845   0.317   3.728
 3467SOL    HW210734   1.968   0.422   3.701
 3468SOL     OW10735   3.302   0.856   5.122
 3468SOL    HW110736   3.245   0.908   5.059
 3468SOL    HW210737   3.398   0.868   5.098
 3469SOL     OW10738   1.934   0.166   4.042
 3469SOL    HW110739   1.917   0.249   3.988
 3469SOL    HW210740   2.024   0.129   4.020
 3470SOL     OW10741   3.045   1.335   3.843
 3470SOL    HW110742   2.946   1.324   3.845
 3470SOL    HW210743   3.079   1.350   3.936
 3471SOL     OW10744   2.475   0.842   5.155
 3471SOL    HW110745   2.531   0.923   5.138
 3471SOL    HW210746   2.534   0.762   5.158
 3472SOL     OW10747   3.355   1.767   4.683
 3472SOL    HW110748   3.388   1.831   4.614
 3472SOL    HW210749   3.421   1.761   4.758
 3473SOL     OW10750   2.578   0.565   5.432
 3473SOL    HW110751   2.597   0.630   5.506
 3473SOL    HW210752   2.638   0.485   5.441
 3474SOL     OW10753   3.312   1.220   5.357
 3474SOL    HW110754   3.303   1.210   5.456
 3474SOL    HW210755   3.408   1.213   5.331
 3475SOL     OW10756   2.252   1.741   5.284
 3475SOL    HW110757   2.161   1.782   5.282
 3475SOL    HW210758   2.245   1.647   5.316
 3476SOL     OW10759   3.536   0.883   4.978
 3476SOL    HW110760   3.509   0.794   4.941
 3476SOL    HW210761   3.537   0.951   4.905
 3477SOL     OW10762   3.087   0.325   4.173
 3477SOL    HW110763   3.152   0.251   4.162
 3477SOL    HW210764   3.107   0.375   4.257
 3478SOL     OW10765   2.456   0.745   4.376
 3478SOL    HW110766   2.506   0.830   4.357
 3478SOL    HW210767   2.368   0.747   4.328
 3479SOL     OW10768   3.639   0.342   5.366
 3479SOL    HW110769   3.622   0.373   5.272
 3479SOL    HW210770   3.555   0.305   5.404
 3480SOL     OW10771   3.592   0.934   5.241
 3480SOL    HW110772   3.630   1.025   5.256
 3480SOL    HW210773   3.584   0.917   5.142
 3481SOL     OW10774   2.721   1.374   3.740
 3481SOL    HW110775   2.675   1.389   3.828
 3481SOL    HW210776   2.765   1.459   3.710
 3482SOL     OW10777   2.721   0.956   4.585
 3482SOL    HW110778   2.775   0.887   4.633
 3482SOL    HW210779   2.689   1.025   4.651
 3483SOL     OW10780   2.945   0.984   3.811
 3483SOL    HW110781   2.922   1.037   3.729
 3483SOL    HW210782   3.026   0.928   3.792
 3484SOL     OW10783   3.723   1.569   4.575
 3484SOL    HW110784   3.652   1.557   4.505
 3484SOL    HW210785   3.724   1.490   4.635
 3485SOL     OW10786   2.083   1.314   5.568
 3485SOL    HW110787   2.018   1.241   5.547
 3485SOL    HW210788   2.087   1.328   5.666
 3486SOL     OW10789   1.941   1.240   4.377
 3486SOL    HW110790   1.940   1.193   4.465
 3486SOL    HW210791   2.023   1.212   4.326
 3487SOL     OW10792   2.534   1.391   5.348
 3487SOL    HW110793   2.456   1.341   5.386
 3487SOL    HW210794   2.531   1.486   5.379
 3488SOL     OW10795   3.686   0.192   4.951
 3488SOL    HW110796   3.682   0.102   4.995
 3488SOL    HW210797   3.689   0.181   4.852
 3489SOL     OW10798   2.290   0.424   4.244
 3489SOL    HW110799   2.320   0.352   4.182
 3489SOL    HW210800   2.251   0.384   4.327
 3490SOL     OW10801   3.567   1.487   4.828
 3490SOL    HW110802   3.474   1.462   4.801
 3490SOL    HW210803   3.593   1.437   4.910
 3491SOL     OW10804   2.179   0.547   5.004
 3491SOL    HW110805   2.217   0.488   5.076
 3491SOL    HW210806   2.219   0.521   4.916
 3492SOL     OW10807   2.674   1.586   4.411
 3492SOL    HW110808   2.706   1.596   4.317
 3492SOL    HW210809   2.595   1.524   4.413
 3493SOL     OW10810   3.286   0.214   4.836
 3493SOL    HW110811   3.338   0.149   4.891
 3493SOL    HW210812   3.237   0.277   4.897
 3494SOL     OW10813   2.863   0.034   4.878
 3494SOL    HW110814   2.800  -0.038   4.847
 3494SOL    HW210815   2.956  -0.002   4.878
 3495SOL     OW10816   2.632   1.330   4.025
 3495SOL    HW110817   2.586   1.243   4.042
 3495SOL    HW210818   2.723   1.327   4.066
 3496SOL     OW10819   2.480   1.567   5.008
 3496SOL    HW110820   2.475   1.649   5.065
 3496SOL    HW210821   2.569   1.564   4.963
 3497SOL     OW10822   3.214   0.052   3.892
 3497SOL    HW110823   3.249   0.011   3.808
 3497SOL    HW210824   3.124   0.014   3.912
 3498SOL     OW10825   3.162   0.453   4.415
 3498SOL    HW110826   3.103   0.533   4.419
 3498SOL    HW210827   3.177   0.418   4.508
 3499SOL     OW10828   3.455   0.221   4.606
 3499SOL    HW110829   3.371   0.220   4.660
 3499SOL    HW210830   3.457   0.304   4.550
 3500SOL     OW10831   1.901   1.077   4.024
 3500SOL    HW110832   2.000   1.066   4.015
 3500SOL    HW210833   1.861   0.991   4.056
 3501SOL     OW10834   2.737   1.646   4.061
 3501SOL    HW110835   2.660   1.611   4.007
 3501SOL    HW210836   2.705   1.717   4.123
 3502SOL     OW10837   2.092   0.628   5.699
 3502SOL    HW110838   1.999   0.626   5.736
 3502SOL    HW210839   2.093   0.589   5.607
 3503SOL     OW10840   2.087   0.275   6.582
 3503SOL    HW110841   2.122   0.258   6.674
 3503SOL    HW210842   1.999   0.230   6.570
 3504SOL     OW10843   1.881   0.368   6.233
 3504SOL    HW110844   1.799   0.411   6.272
 3504SOL    HW210845   1.853   0.295   6.170
 3505SOL     OW10846   2.431   1.275   6.751
 3505SOL    HW110847   2.338   1.268   6.714
 3505SOL    HW210848   2.442   1.364   6.795
 3506SOL     OW10849   3.417   1.511   6.289
 3506SOL    HW110850   3.360   1.495   6.370
 3506SOL    HW210851   3.358   1.521   6.209
 3507SOL     OW10852   2.997   0.703   6.303
 3507SOL    HW110853   3.054   0.781   6.278
 3507SOL    HW210854   2.937   0.729   6.379
 3508SOL     OW10855   3.617   0.607   5.817
 3508SOL    HW110856   3.605   0.594   5.718
 3508SOL    HW210857   3.587   0.526   5.866
 3509SOL     OW10858   2.630   1.144   6.609
 3509SOL    HW110859   2.552   1.161   6.669
 3509SOL    HW210860   2.664   1.231   6.573
 3510SOL     OW10861   2.712   0.798   7.409
 3510SOL    HW110862   2.708   0.874   7.474
 3510SOL    HW210863   2.734   0.834   7.318
 3511SOL     OW10864   2.547   1.012   6.251
 3511SOL    HW110865   2.616   0.996   6.321
 3511SOL    HW210866   2.474   1.069   6.289
 3512SOL     OW10867   2.548   1.161   7.389
 3512SOL    HW110868   2.608   1.240   7.403
 3512SOL    HW210869   2.462   1.192   7.348
 3513SOL     OW10870   2.197   1.435   6.647
 3513SOL    HW110871   2.119   1.404   6.594
 3513SOL    HW210872   2.255   1.493   6.590
 3514SOL     OW10873   3.322   1.505   6.925
 3514SOL    HW110874   3.346   1.599   6.951
 3514SOL    HW210875   3.306   1.451   7.007
 3515SOL     OW10876   2.300   0.392   7.085
 3515SOL    HW110877   2.382   0.336   7.094
 3515SOL    HW210878   2.219   0.334   7.089
 3516SOL     OW10879   3.465   0.447   6.323
 3516SOL    HW110880   3.391   0.493   6.273
 3516SOL    HW210881   3.516   0.515   6.376
 3517SOL     OW10882   2.093   1.713   6.069
 3517SOL    HW110883   2.127   1.790   6.123
 3517SOL    HW210884   2.137   1.713   5.979
 3518SOL     OW10885   2.989   1.341   7.276
 3518SOL    HW110886   3.036   1.341   7.364
 3518SOL    HW210887   2.941   1.254   7.265
 3519SOL     OW10888   2.092   1.434   6.124
 3519SOL    HW110889   2.066   1.530   6.124
 3519SOL    HW210890   2.021   1.380   6.169
 3520SOL     OW10891   2.102   1.091   6.472
 3520SOL    HW110892   2.116   1.007   6.524
 3520SOL    HW210893   2.047   1.155   6.527
 3521SOL     OW10894   2.482   1.786   7.025
 3521SOL    HW110895   2.390   1.769   7.060
 3521SOL    HW210896   2.510   1.878   7.051
 3522SOL     OW10897   2.468   0.964   5.709
 3522SOL    HW110898   2.475   1.048   5.655
 3522SOL    HW210899   2.514   0.977   5.797
 3523SOL     OW10900   3.456   0.114   7.066
 3523SOL    HW110901   3.438   0.181   6.994
 3523SOL    HW210902   3.453   0.160   7.155
 3524SOL     OW10903   1.984   0.643   6.149
 3524SOL    HW110904   1.939   0.555   6.166
 3524SOL    HW210905   1.983   0.697   6.233
 3525SOL     OW10906   3.704   1.767   5.945
 3525SOL    HW110907   3.758   1.738   6.025
 3525SOL    HW210908   3.734   1.857   5.916
 3526SOL     OW10909   1.889   1.596   5.703
 3526SOL    HW110910   1.870   1.500   5.724
 3526SOL    HW210911   1.856   1.654   5.778
 3527SOL     OW10912   3.551   0.922   6.198
 3527SOL    HW110913   3.646   0.893   6.206
 3527SOL    HW210914   3.543   0.987   6.123
 3528SOL     OW10915   3.503   1.108   6.018
 3528SOL    HW110916   3.589   1.110   5.966
 3528SOL    HW210917   3.517   1.155   6.106
 3529SOL     OW10918   1.975   0.737   7.183
 3529SOL    HW110919   2.063   0.724   7.228
 3529SOL    HW210920   1.962   0.834   7.161
 3530SOL     OW10921   2.475   1.365   6.312
 3530SOL    HW110922   2.426   1.278   6.321
 3530SOL    HW210923   2.452   1.408   6.225
 3531SOL     OW10924   3.155   1.228   7.009
 3531SOL    HW110925   3.192   1.155   6.951
 3531SOL    HW210926   3.207   1.233   7.094
 3532SOL     OW10927   2.671   0.004   6.088
 3532SOL    HW110928   2.711   0.095   6.079
 3532SOL    HW210929   2.571   0.012   6.094
 3533SOL     OW10930   2.059   0.976   6.850
 3533SOL    HW110931   2.148   0.931   6.836
 3533SOL    HW210932   1.986   0.911   6.831
 3534SOL     OW10933   3.387   0.999   5.776
 3534SOL    HW110934   3.324   0.923   5.789
 3534SOL    HW210935   3.435   1.017   5.862
 3535SOL     OW10936   3.049   1.792   7.202
 3535SOL    HW110937   3.073   1.852   7.126
 3535SOL    HW210938   3.056   1.697   7.172
 3536SOL     OW10939   2.179   0.251   7.387
 3536SOL    HW110940   2.250   0.322   7.393
 3536SOL    HW210941   2.091   0.290   7.415
 3537SOL     OW10942   3.328   1.417   6.539
 3537SOL    HW110943   3.269   1.423   6.619
 3537SOL    HW210944   3.313   1.329   6.493
 3538SOL     OW10945   3.529   1.714   6.158
 3538SOL    HW110946   3.488   1.691   6.070
 3538SOL    HW210947   3.511   1.640   6.223
 3539SOL     OW10948   2.460   0.729   5.856
 3539SOL    HW110949   2.484   0.798   5.788
 3539SOL    HW210950   2.382   0.762   5.910
 3540SOL     OW10951   3.143   0.345   6.530
 3540SOL    HW110952   3.057   0.295   6.517
 3540SOL    HW210953   3.205   0.291   6.586
 3541SOL     OW10954   3.438   1.662   5.893
 3541SOL    HW110955   3.527   1.708   5.896
 3541SOL    HW210956   3.417   1.638   5.798
 3542SOL     OW10957   2.669   0.605   7.051
 3542SOL    HW110958   2.622   0.602   7.140
 3542SOL    HW210959   2.618   0.550   6.985
 3543SOL     OW10960   3.256   0.469   7.260
 3543SOL    HW110961   3.236   0.512   7.348
 3543SOL    HW210962   3.334   0.407   7.269
 3544SOL     OW10963   2.835   0.890   7.158
 3544SOL    HW110964   2.881   0.806   7.129
 3544SOL    HW210965   2.779   0.924   7.083
 3545SOL     OW10966   2.853   0.410   6.828
 3545SOL    HW110967   2.776   0.444   6.882
 3545SOL    HW210968   2.819   0.359   6.749
 3546SOL     OW10969   2.903   0.701   6.015
 3546SOL    HW110970   2.929   0.697   6.111
 3546SOL    HW210971   2.818   0.650   6.001
 3547SOL     OW10972   1.938   0.811   6.375
 3547SOL    HW110973   2.037   0.799   6.384
 3547SOL    HW210974   1.914   0.906   6.396
 3548SOL     OW10975   1.992   1.821   7.157
 3548SOL    HW110976   1.982   1.806   7.256
 3548SOL    HW210977   1.906   1.857   7.121
 3549SOL     OW10978   2.727   0.348   5.781
 3549SOL    HW110979   2.786   0.411   5.732
 3549SOL    HW210980   2.746   0.254   5.752
 3550SOL     OW10981   3.581   0.585   7.417
 3550SOL    HW110982   3.555   0.674   7.381
 3550SOL    HW210983   3.579   0.517   7.344
 3551SOL     OW10984   3.224   1.144   6.131
 3551SOL    HW110985   3.307   1.115   6.083
 3551SOL    HW210986   3.175   1.211   6.075
 3552SOL     OW10987   2.412   0.196   6.471
 3552SOL    HW110988   2.407   0.191   6.571
 3552SOL    HW210989   2.414   0.292   6.442
 3553SOL     OW10990   2.870   1.456   6.063
 3553SOL    HW110991   2.824   1.528   6.011
 3553SOL    HW210992   2.866   1.476   6.161
 3554SOL     OW10993   2.213   1.801   6.439
 3554SOL    HW110994   2.263   1.715   6.445
 3554SOL    HW210995   2.278   1.878   6.436
 3555SOL     OW10996   3.657   1.066   6.459
 3555SOL    HW110997   3.595   1.051   6.383
 3555SOL    HW210998   3.605   1.077   6.544
 3556SOL     OW10999   3.089   1.550   7.092
 3556SOL    HW111000   3.095   1.473   7.156
 3556SOL    HW211001   3.037   1.524   7.012
 3557SOL     OW11002   2.183   0.943   5.828
 3557SOL    HW111003   2.265   0.982   5.786
 3557SOL    HW211004   2.156   0.861   5.779
 3558SOL     OW11005   3.320   0.735   6.314
 3558SOL    HW111006   3.315   0.670   6.389
 3558SOL    HW211007   3.400   0.794   6.327
 3559SOL     OW11008   2.323   1.266   7.313
 3559SOL    HW111009   2.273   1.267   7.227
 3559SOL    HW211010   2.260   1.248   7.389
 3560SOL     OW11011   2.973   1.776   5.823
 3560SOL    HW111012   2.913   1.714   5.873
 3560SOL    HW211013   3.004   1.732   5.738
 3561SOL     OW11014   2.064   0.285   7.084
 3561SOL    HW111015   1.984   0.345   7.071
 3561SOL    HW211016   2.054   0.236   7.170
 3562SOL     OW11017   3.494   1.377   5.667
 3562SOL    HW111018   3.462   1.471   5.657
 3562SOL    HW211019   3.418   1.314   5.655
 3563SOL     OW11020   2.326   1.743   5.909
 3563SOL    HW111021   2.359   1.782   5.995
 3563SOL    HW211022   2.402   1.736   5.844
 3564SOL     OW11023   3.262   0.107   6.012
 3564SOL    HW111024   3.238   0.070   5.922
 3564SOL    HW211025   3.361   0.123   6.016
 3565SOL     OW11026   2.111   1.785   6.827
 3565SOL    HW111027   2.168   1.720   6.877
 3565SOL    HW211028   2.095   1.752   6.734
 3566SOL     OW11029   2.802   1.698   6.490
 3566SOL    HW111030   2.882   1.641   6.511
 3566SOL    HW211031   2.753   1.658   6.413
 3567SOL     OW11032   2.244   0.700   6.066
 3567SOL    HW111033   2.289   0.610   6.063
 3567SOL    HW211034   2.150   0.689   6.099
 3568SOL     OW11035   3.409   0.222   7.315
 3568SOL    HW111036   3.404   0.259   7.407
 3568SOL    HW211037   3.337   0.153   7.303
 3569SOL     OW11038   2.476   0.122   5.703
 3569SOL    HW111039   2.574   0.100   5.710
 3569SOL    HW211040   2.445   0.105   5.610
 3570SOL     OW11041   2.643   0.264   7.335
 3570SOL    HW111042   2.710   0.203   7.378
 3570SOL    HW211043   2.570   0.283   7.400
 3571SOL     OW11044   2.750   1.514   6.781
 3571SOL    HW111045   2.727   1.489   6.687
 3571SOL    HW211046   2.811   1.445   6.820
 3572SOL     OW11047   3.213   0.590   7.019
 3572SOL    HW111048   3.241   0.547   7.104
 3572SOL    HW211049   3.238   0.686   7.020
 3573SOL     OW11050   2.665   1.402   6.510
 3573SOL    HW111051   2.755   1.416   6.468
 3573SOL    HW211052   2.594   1.404   6.439
 3574SOL     OW11053   2.784   0.503   6.485
 3574SOL    HW111054   2.759   0.494   6.389
 3574SOL    HW211055   2.832   0.421   6.516
 3575SOL     OW11056   2.401   0.064   6.098
 3575SOL    HW111057   2.320   0.065   6.156
 3575SOL    HW211058   2.404   0.147   6.043
 3576SOL     OW11059   3.296   1.188   5.627
 3576SOL    HW111060   3.328   1.112   5.684
 3576SOL    HW211061   3.204   1.215   5.657
 3577SOL     OW11062   2.159   0.035   5.757
 3577SOL    HW111063   2.208   0.119   5.736
 3577SOL    HW211064   2.221  -0.030   5.802
 3578SOL     OW11065   2.797   0.236   6.066
 3578SOL    HW111066   2.749   0.277   5.988
 3578SOL    HW211067   2.896   0.234   6.047
 3579SOL     OW11068   2.938   0.683   7.050
 3579SOL    HW111069   2.858   0.622   7.053
 3579SOL    HW211070   3.019   0.630   7.026
 3580SOL     OW11071   3.089   1.570   6.379
 3580SOL    HW111072   3.110   1.644   6.314
 3580SOL    HW211073   3.157   1.570   6.452
 3581SOL     OW11074   2.321   1.152   6.327
 3581SOL    HW111075   2.250   1.125   6.392
 3581SOL    HW211076   2.295   1.124   6.234
 3582SOL     OW11077   3.133   1.797   6.177
 3582SOL    HW111078   3.177   1.861   6.113
 3582SOL    HW211079   3.083   1.849   6.247
 3583SOL     OW11080   2.894   0.549   5.602
 3583SOL    HW111081   2.853   0.631   5.563
 3583SOL    HW211082   2.958   0.575   5.675
 3584SOL     OW11083   1.940   0.556   6.972
 3584SOL    HW111084   2.032   0.555   6.931
 3584SOL    HW211085   1.934   0.630   7.039
 3585SOL     OW11086   2.423   0.222   6.733
 3585SOL    HW111087   2.461   0.138   6.770
 3585SOL    HW211088   2.335   0.241   6.777
 3586SOL     OW11089   2.728   0.454   6.228
 3586SOL    HW111090   2.696   0.526   6.166
 3586SOL    HW211091   2.752   0.373   6.175
 3587SOL     OW11092   2.879   0.039   6.339
 3587SOL    HW111093   2.807   0.044   6.270
 3587SOL    HW211094   2.855  -0.030   6.408
 3588SOL     OW11095   3.291   1.173   6.453
 3588SOL    HW111096   3.236   1.089   6.446
 3588SOL    HW211097   3.317   1.202   6.361
 3589SOL     OW11098   3.328   0.590   6.578
 3589SOL    HW111099   3.298   0.495   6.585
 3589SOL    HW211100   3.401   0.606   6.644
 3590SOL     OW11101   3.719   0.833   5.963
 3590SOL    HW111102   3.761   0.769   6.027
 3590SOL    HW211103   3.681   0.782   5.885
 3591SOL     OW11104   2.350   1.385   5.760
 3591SOL    HW111105   2.263   1.370   5.807
 3591SOL    HW211106   2.333   1.411   5.665
 3592SOL     OW11107   3.526   1.280   6.243
 3592SOL    HW111108   3.625   1.288   6.257
 3592SOL    HW211109   3.481   1.364   6.274
 3593SOL     OW11110   3.252   0.575   5.664
 3593SOL    HW111111   3.198   0.554   5.745
 3593SOL    HW211112   3.343   0.534   5.673
 3594SOL     OW11113   2.389   0.256   5.914
 3594SOL    HW111114   2.416   0.197   5.839
 3594SOL    HW211115   2.389   0.351   5.883
 3595SOL     OW11116   3.616   1.223   7.174
 3595SOL    HW111117   3.707   1.184   7.161
 3595SOL    HW211118   3.624   1.319   7.198
 3596SOL     OW11119   2.926   1.347   6.926
 3596SOL    HW111120   2.846   1.324   6.981
 3596SOL    HW211121   3.009   1.321   6.975
 3597SOL     OW11122   3.454   1.629   7.211
 3597SOL    HW111123   3.481   1.663   7.121
 3597SOL    HW211124   3.533   1.591   7.257
 3598SOL     OW11125   2.973   1.195   6.686
 3598SOL    HW111126   2.933   1.239   6.767
 3598SOL    HW211127   2.932   1.232   6.603
 3599SOL     OW11128   3.500   1.099   6.665
 3599SOL    HW111129   3.505   1.180   6.724
 3599SOL    HW211130   3.414   1.101   6.614
 3600SOL     OW11131   2.777   0.089   6.988
 3600SOL    HW111132   2.802   0.069   6.893
 3600SOL    HW211133   2.849   0.145   7.030
 3601SOL     OW11134   2.842   1.116   7.305
 3601SOL    HW111135   2.743   1.122   7.315
 3601SOL    HW211136   2.865   1.036   7.249
 3602SOL     OW11137   2.567   1.050   5.954
 3602SOL    HW111138   2.553   1.057   6.053
 3602SOL    HW211139   2.651   0.999   5.936
 3603SOL     OW11140   2.272   0.813   6.837
 3603SOL    HW111141   2.358   0.825   6.887
 3603SOL    HW211142   2.230   0.726   6.864
 3604SOL     OW11143   3.136   0.386   6.848
 3604SOL    HW111144   3.157   0.460   6.912
 3604SOL    HW211145   3.047   0.403   6.805
 3605SOL     OW11146   1.926   1.564   6.917
 3605SOL    HW111147   1.880   1.646   6.883
 3605SOL    HW211148   2.024   1.583   6.926
 3606SOL     OW11149   2.229   1.100   6.087
 3606SOL    HW111150   2.222   1.183   6.031
 3606SOL    HW211151   2.233   1.020   6.027
 3607SOL     OW11152   2.428   0.537   6.451
 3607SOL    HW111153   2.440   0.603   6.377
 3607SOL    HW211154   2.474   0.571   6.534
 3608SOL     OW11155   3.114   1.348   5.974
 3608SOL    HW111156   3.164   1.425   6.014
 3608SOL    HW211157   3.019   1.350   6.006
 3609SOL     OW11158   3.134   1.445   6.728
 3609SOL    HW111159   3.181   1.458   6.815
 3609SOL    HW211160   3.068   1.371   6.737
 3610SOL     OW11161   3.444   0.639   6.058
 3610SOL    HW111162   3.413   0.700   6.131
 3610SOL    HW211163   3.494   0.691   5.989
 3611SOL     OW11164   2.216   1.510   6.915
 3611SOL    HW111165   2.195   1.466   6.828
 3611SOL    HW211166   2.313   1.536   6.918
 3612SOL     OW11167   2.264   0.751   7.184
 3612SOL    HW111168   2.332   0.806   7.137
 3612SOL    HW211169   2.304   0.663   7.211
 3613SOL     OW11170   3.449   0.779   7.256
 3613SOL    HW111171   3.357   0.817   7.251
 3613SOL    HW211172   3.509   0.826   7.191
 3614SOL     OW11173   2.875   0.105   7.356
 3614SOL    HW111174   2.881   0.190   7.304
 3614SOL    HW211175   2.907   0.029   7.299
 3615SOL     OW11176   2.366   0.050   7.326
 3615SOL    HW111177   2.324  -0.007   7.256
 3615SOL    HW211178   2.300   0.119   7.358
 3616SOL     OW11179   2.435   0.870   6.615
 3616SOL    HW111180   2.479   0.959   6.606
 3616SOL    HW211181   2.372   0.870   6.692
 3617SOL     OW11182   3.222   0.862   6.631
 3617SOL    HW111183   3.147   0.862   6.565
 3617SOL    HW211184   3.259   0.770   6.640
 3618SOL     OW11185   3.071   0.525   5.861
 3618SOL    HW111186   3.084   0.441   5.915
 3618SOL    HW211187   3.042   0.599   5.921
 3619SOL     OW11188   2.169   0.213   6.817
 3619SOL    HW111189   2.146   0.250   6.907
 3619SOL    HW211190   2.139   0.118   6.811
 3620SOL     OW11191   1.899   1.310   6.868
 3620SOL    HW111192   1.952   1.261   6.936
 3620SOL    HW211193   1.921   1.408   6.873
 3621SOL     OW11194   2.594   0.634   6.650
 3621SOL    HW111195   2.653   0.608   6.574
 3621SOL    HW211196   2.566   0.730   6.639
 3622SOL     OW11197   3.590   0.935   7.440
 3622SOL    HW111198   3.544   0.928   7.351
 3622SOL    HW211199   3.528   0.979   7.506
 3623SOL     OW11200   2.169   0.063   6.204
 3623SOL    HW111201   2.158   0.157   6.237
 3623SOL    HW211202   2.164   0.000   6.281
 3624SOL     OW11203   3.484   0.367   5.960
 3624SOL    HW111204   3.486   0.291   6.024
 3624SOL    HW211205   3.436   0.444   6.000
 3625SOL     OW11206   2.885   0.766   6.552
 3625SOL    HW111207   2.900   0.787   6.648
 3625SOL    HW211208   2.855   0.671   6.543
 3626SOL     OW11209   2.842   1.573   7.286
 3626SOL    HW111210   2.822   1.617   7.198
 3626SOL    HW211211   2.881   1.482   7.270
 3627SOL     OW11212   3.721   1.518   7.191
 3627SOL    HW111213   3.735   1.545   7.096
 3627SOL    HW211214   3.804   1.540   7.244
 3628SOL     OW11215   2.212   0.898   7.390
 3628SOL    HW111216   2.288   0.942   7.438
 3628SOL    HW211217   2.247   0.851   7.308
 3629SOL     OW11218   3.402   0.274   5.711
 3629SOL    HW111219   3.341   0.199   5.734
 3629SOL    HW211220   3.424   0.326   5.794
 3630SOL     OW11221   3.165   0.838   5.628
 3630SOL    HW111222   3.199   0.745   5.643
 3630SOL    HW211223   3.183   0.865   5.533
 3631SOL     OW11224   2.930   1.333   6.435
 3631SOL    HW111225   2.937   1.249   6.380
 3631SOL    HW211226   2.992   1.402   6.399
 3632SOL     OW11227   2.181   0.810   6.535
 3632SOL    HW111228   2.274   0.846   6.540
 3632SOL    HW211229   2.175   0.725   6.587
 3633SOL     OW11230   2.201   0.509   6.592
 3633SOL    HW111231   2.149   0.426   6.575
 3633SOL    HW211232   2.278   0.514   6.528
 3634SOL     OW11233   3.000   0.380   7.264
 3634SOL    HW111234   2.955   0.443   7.328
 3634SOL    HW211235   3.093   0.411   7.247
 3635SOL     OW11236   3.022   0.207   7.063
 3635SOL    HW111237   3.022   0.271   7.140
 3635SOL    HW211238   3.050   0.255   6.980
 3636SOL     OW11239   1.870   1.326   5.786
 3636SOL    HW111240   1.777   1.347   5.755
 3636SOL    HW211241   1.880   1.227   5.799
 3637SOL     OW11242   1.950   1.801   6.513
 3637SOL    HW111243   1.908   1.715   6.486
 3637SOL    HW211244   2.044   1.804   6.479
 3638SOL     OW11245   2.366   1.568   6.496
 3638SOL    HW111246   2.432   1.642   6.505
 3638SOL    HW211247   2.410   1.489   6.454
 3639SOL     OW11248   2.864   0.796   6.824
 3639SOL    HW111249   2.905   0.764   6.910
 3639SOL    HW211250   2.768   0.769   6.821
 3640SOL     OW11251   1.902   0.544   6.700
 3640SOL    HW111252   1.987   0.511   6.659
 3640SOL    HW211253   1.915   0.559   6.798
 3641SOL     OW11254   2.051   0.520   7.308
 3641SOL    HW111255   2.110   0.480   7.238
 3641SOL    HW211256   1.993   0.591   7.267
 3642SOL     OW11257   3.231   0.950   7.246
 3642SOL    HW111258   3.270   1.039   7.266
 3642SOL    HW211259   3.241   0.930   7.149
 3643SOL     OW11260   2.677   0.572   5.911
 3643SOL    HW111261   2.684   0.483   5.865
 3643SOL    HW211262   2.583   0.606   5.903
 3644SOL     OW11263   3.519   0.604   6.792
 3644SOL    HW111264   3.481   0.535   6.854
 3644SOL    HW211265   3.601   0.568   6.748
 3645SOL     OW11266   2.114   1.564   7.330
 3645SOL    HW111267   2.084   1.621   7.406
 3645SOL    HW211268   2.107   1.467   7.356
 3646SOL     OW11269   2.533   0.464   6.855
 3646SOL    HW111270   2.499   0.375   6.825
 3646SOL    HW211271   2.559   0.518   6.775
 3647SOL     OW11272   2.792   1.678   7.051
 3647SOL    HW111273   2.768   1.660   6.956
 3647SOL    HW211274   2.822   1.772   7.061
 3648SOL     OW11275   2.335   0.500   5.777
 3648SOL    HW111276   2.396   0.580   5.781
 3648SOL    HW211277   2.240   0.531   5.784
 3649SOL     OW11278   2.021   1.137   7.052
 3649SOL    HW111279   2.043   1.076   7.128
 3649SOL    HW211280   2.031   1.088   6.966
 3650SOL     OW11281   3.209   1.059   6.820
 3650SOL    HW111282   3.233   0.996   6.746
 3650SOL    HW211283   3.119   1.099   6.802
 3651SOL     OW11284   3.164   0.855   5.895
 3651SOL    HW111285   3.078   0.824   5.937
 3651SOL    HW211286   3.160   0.841   5.796
 3652SOL     OW11287   3.621   1.747   6.740
 3652SOL    HW111288   3.682   1.777   6.667
 3652SOL    HW211289   3.583   1.658   6.718
 3653SOL     OW11290   3.114   1.731   6.714
 3653SOL    HW111291   3.198   1.736   6.660
 3653SOL    HW211292   3.091   1.635   6.732
 3654SOL     OW11293   1.945   1.258   6.608
 3654SOL    HW111294   1.940   1.257   6.708
 3654SOL    HW211295   1.862   1.217   6.570
 3655SOL     OW11296   2.550   1.662   7.302
 3655SOL    HW111297   2.494   1.743   7.311
 3655SOL    HW211298   2.602   1.666   7.216
 3656SOL     OW11299   3.588   0.135   6.109
 3656SOL    HW111300   3.661   0.118   6.042
 3656SOL    HW211301   3.557   0.048   6.147
 3657SOL     OW11302   3.250   1.573   6.063
 3657SOL    HW111303   3.317   1.585   5.989
 3657SOL    HW211304   3.210   1.662   6.086
 3658SOL     OW11305   1.992   1.794   7.437
 3658SOL    HW111306   1.951   1.720   7.490
 3658SOL    HW211307   2.056   1.845   7.495
 3659SOL     OW11308   3.142   0.927   6.258
 3659SOL    HW111309   3.202   0.846   6.260
 3659SOL    HW211310   3.182   0.996   6.198
 3660SOL     OW11311   2.692   1.273   7.008
 3660SOL    HW111312   2.687   1.306   7.103
 3660SOL    HW211313   2.606   1.292   6.962
 3661SOL     OW11314   2.534   1.616   5.740
 3661SOL    HW111315   2.543   1.626   5.641
 3661SOL    HW211316   2.494   1.527   5.761
 3662SOL     OW11317   3.512   1.720   6.980
 3662SOL    HW111318   3.565   1.730   6.896
 3662SOL    HW211319   3.485   1.810   7.014
 3663SOL     OW11320   3.703   0.175   6.549
 3663SOL    HW111321   3.742   0.090   6.513
 3663SOL    HW211322   3.605   0.177   6.530
 3664SOL     OW11323   2.125   0.326   6.306
 3664SOL    HW111324   2.046   0.377   6.272
 3664SOL    HW211325   2.116   0.311   6.404
 3665SOL     OW11326   3.056   1.612   5.617
 3665SOL    HW111327   3.062   1.519   5.654
 3665SOL    HW211328   2.997   1.612   5.537
 3666SOL     OW11329   2.684   1.002   6.958
 3666SOL    HW111330   2.724   1.001   6.866
 3666SOL    HW211331   2.694   1.094   6.998
 3667SOL     OW11332   2.778   0.910   5.877
 3667SOL    HW111333   2.841   0.948   5.809
 3667SOL    HW211334   2.818   0.827   5.916
 3668SOL     OW11335   3.366   1.607   5.630
 3668SOL    HW111336   3.274   1.644   5.637
 3668SOL    HW211337   3.404   1.627   5.540
 3669SOL     OW11338   2.234   1.288   7.076
 3669SOL    HW111339   2.221   1.381   7.042
 3669SOL    HW211340   2.150   1.236   7.063
 3670SOL     OW11341   3.476   1.292   6.875
 3670SOL    HW111342   3.536   1.295   6.955
 3670SOL    HW211343   3.401   1.356   6.888
 3671SOL     OW11344   2.901   1.098   6.282
 3671SOL    HW111345   2.831   1.051   6.336
 3671SOL    HW211346   2.960   1.030   6.239
 3672SOL     OW11347   2.876   0.236   6.557
 3672SOL    HW111348   2.868   0.200   6.464
 3672SOL    HW211349   2.874   0.160   6.622
 3673SOL     OW11350   2.452   1.487   6.077
 3673SOL    HW111351   2.494   1.429   6.007
 3673SOL    HW211352   2.408   1.566   6.033
 3674SOL     OW11353   3.571   0.385   6.967
 3674SOL    HW111354   3.644   0.454   6.971
 3674SOL    HW211355   3.599   0.310   6.908
 3675SOL     OW11356   2.117   1.348   5.876
 3675SOL    HW111357   2.021   1.349   5.849
 3675SOL    HW211358   2.129   1.401   5.960
 3676SOL     OW11359   1.967   1.013   7.312
 3676SOL    HW111360   1.890   0.980   7.366
 3676SOL    HW211361   2.052   0.983   7.354
 3677SOL     OW11362   2.534   0.203   7.075
 3677SOL    HW111363   2.624   0.187   7.035
 3677SOL    HW211364   2.542   0.208   7.174
 3678SOL     OW11365   1.937   0.345   5.619
 3678SOL    HW111366   1.845   0.317   5.590
 3678SOL    HW211367   1.968   0.422   5.563
 3679SOL     OW11368   3.302   0.856   6.984
 3679SOL    HW111369   3.245   0.908   6.921
 3679SOL    HW211370   3.398   0.868   6.960
 3680SOL     OW11371   1.934   0.166   5.904
 3680SOL    HW111372   1.917   0.249   5.850
 3680SOL    HW211373   2.024   0.129   5.882
 3681SOL     OW11374   3.045   1.335   5.705
 3681SOL    HW111375   2.946   1.324   5.707
 3681SOL    HW211376   3.079   1.350   5.798
 3682SOL     OW11377   2.475   0.842   7.017
 3682SOL    HW111378   2.531   0.923   7.000
 3682SOL    HW211379   2.534   0.762   7.020
 3683SOL     OW11380   3.355   1.767   6.545
 3683SOL    HW111381   3.388   1.831   6.476
 3683SOL    HW211382   3.421   1.761   6.620
 3684SOL     OW11383   2.578   0.565   7.294
 3684SOL    HW111384   2.597   0.630   7.368
 3684SOL    HW211385   2.638   0.485   7.303
 3685SOL     OW11386   3.312   1.220   7.219
 3685SOL    HW111387   3.303   1.210   7.318
 3685SOL    HW211388   3.408   1.213   7.193
 3686SOL     OW11389   2.252   1.741   7.146
 3686SOL    HW111390   2.161   1.782   7.144
 3686SOL    HW211391   2.245   1.647   7.178
 3687SOL     OW11392   3.536   0.883   6.840
 3687SOL    HW111393   3.509   0.794   6.803
 3687SOL    HW211394   3.537   0.951   6.767
 3688SOL     OW11395   3.087   0.325   6.035
 3688SOL    HW111396   3.152   0.251   6.024
 3688SOL    HW211397   3.107   0.375   6.119
 3689SOL     OW11398   2.456   0.745   6.238
 3689SOL    HW111399   2.506   0.830   6.219
 3689SOL    HW211400   2.368   0.747   6.190
 3690SOL     OW11401   3.639   0.342   7.228
 3690SOL    HW111402   3.622   0.373   7.134
 3690SOL    HW211403   3.555   0.305   7.266
 3691SOL     OW11404   3.592   0.934   7.103
 3691SOL    HW111405   3.630   1.025   7.118
 3691SOL    HW211406   3.584   0.917   7.004
 3692SOL     OW11407   2.721   1.374   5.602
 3692SOL    HW111408   2.675   1.389   5.690
 3692SOL    HW211409   2.765   1.459   5.572
 3693SOL     OW11410   2.523   1.790   6.539
 3693SOL    HW111411   2.477   1.878   6.526
 3693SOL    HW211412   2.622   1.802   6.532
 3694SOL     OW11413   2.721   0.956   6.447
 3694SOL    HW111414   2.775   0.887   6.495
 3694SOL    HW211415   2.689   1.025   6.513
 3695SOL     OW11416   2.945   0.984   5.673
 3695SOL    HW111417   2.922   1.037   5.591
 3695SOL    HW211418   3.026   0.928   5.654
 3696SOL     OW11419   3.723   1.569   6.437
 3696SOL    HW111420   3.652   1.557   6.367
 3696SOL    HW211421   3.724   1.490   6.497
 3697SOL     OW11422   2.083   1.314   7.430
 3697SOL    HW111423   2.018   1.241   7.409
 3697SOL    HW211424   2.087   1.328   7.528
 3698SOL     OW11425   1.941   1.240   6.239
 3698SOL    HW111426   1.940   1.193   6.327
 3698SOL    HW211427   2.023   1.212   6.188
 3699SOL     OW11428   2.534   1.391   7.210
 3699SOL    HW111429   2.456   1.341   7.248
 3699SOL    HW211430   2.531   1.486   7.241
 3700SOL     OW11431   3.686   0.192   6.813
 3700SOL    HW111432   3.682   0.102   6.857
 3700SOL    HW211433   3.689   0.181   6.714
 3701SOL     OW11434   2.290   0.424   6.106
 3701SOL    HW111435   2.320   0.352   6.044
 3701SOL    HW211436   2.251   0.384   6.189
 3702SOL     OW11437   3.567   1.487   6.690
 3702SOL    HW111438   3.474   1.462   6.663
 3702SOL    HW211439   3.593   1.437   6.772
 3703SOL     OW11440   2.179   0.547   6.866
 3703SOL    HW111441   2.217   0.488   6.938
 3703SOL    HW211442   2.219   0.521   6.778
 3704SOL     OW11443   2.674   1.586   6.273
 3704SOL    HW111444   2.706   1.596   6.179
 3704SOL    HW211445   2.595   1.524   6.275
 3705SOL     OW11446   3.286   0.214   6.698
 3705SOL    HW111447   3.338   0.149   6.753
 3705SOL    HW211448   3.237   0.277   6.759
 3706SOL     OW11449   2.863   0.034   6.740
 3706SOL    HW111450   2.800  -0.038   6.709
 3706SOL    HW211451   2.956  -0.002   6.740
 3707SOL     OW11452   2.632   1.330   5.887
 3707SOL    HW111453   2.586   1.243   5.904
 3707SOL    HW211454   2.723   1.327   5.928
 3708SOL     OW11455   2.480   1.567   6.870
 3708SOL    HW111456   2.475   1.649   6.927
 3708SOL    HW211457   2.569   1.564   6.825
 3709SOL     OW11458   3.214   0.052   5.754
 3709SOL    HW111459   3.249   0.011   5.670
 3709SOL    HW211460   3.124   0.014   5.774
 3710SOL     OW11461   3.162   0.453   6.277
 3710SOL    HW111462   3.103   0.533   6.281
 3710SOL    HW211463   3.177   0.418   6.370
 3711SOL     OW11464   3.455   0.221   6.468
 3711SOL    HW111465   3.371   0.220   6.522
 3711SOL    HW211466   3.457   0.304   6.412
 3712SOL     OW11467   1.901   1.077   5.886
 3712SOL    HW111468   2.000   1.066   5.877
 3712SOL    HW211469   1.861   0.991   5.918
 3713SOL     OW11470   2.737   1.646   5.923
 3713SOL    HW111471   2.660   1.611   5.869
 3713SOL    HW211472   2.705   1.717   5.985
 3714SOL     OW11473   2.092   0.628   7.561
 3714SOL    HW111474   1.999   0.626   7.598
 3714SOL    HW211475   2.093   0.589   7.469
 3715SOL     OW11476   2.087   0.275   8.444
 3715SOL    HW111477   2.122   0.258   8.536
 3715SOL    HW211478   1.999   0.230   8.432
 3716SOL     OW11479   1.881   0.368   8.095
 3716SOL    HW111480   1.799   0.411   8.134
 3716SOL    HW211481   1.853   0.295   8.032
 3717SOL     OW11482   2.431   1.275   8.613
 3717SOL    HW111483   2.338   1.268   8.576
 3717SOL    HW211484   2.442   1.364   8.657
 3718SOL     OW11485   3.417   1.511   8.151
 3718SOL    HW111486   3.360   1.495   8.232
 3718SOL    HW211487   3.358   1.521   8.071
 3719SOL     OW11488   2.997   0.703   8.165
 3719SOL    HW111489   3.054   0.781   8.140
 3719SOL    HW211490   2.937   0.729   8.241
 3720SOL     OW11491   3.617   0.607   7.679
 3720SOL    HW111492   3.605   0.594   7.580
 3720SOL    HW211493   3.587   0.526   7.728
 3721SOL     OW11494   2.630   1.144   8.471
 3721SOL    HW111495   2.552   1.161   8.531
 3721SOL    HW211496   2.664   1.231   8.435
 3722SOL     OW11497   2.712   0.798   9.271
 3722SOL    HW111498   2.708   0.874   9.336
 3722SOL    HW211499   2.734   0.834   9.180
 3723SOL     OW11500   2.547   1.012   8.113
 3723SOL    HW111501   2.616   0.996   8.183
 3723SOL    HW211502   2.474   1.069   8.151
 3724SOL     OW11503   2.548   1.161   9.251
 3724SOL    HW111504   2.608   1.240   9.265
 3724SOL    HW211505   2.462   1.192   9.210
 3725SOL     OW11506   2.197   1.435   8.509
 3725SOL    HW111507   2.119   1.404   8.456
 3725SOL    HW211508   2.255   1.493   8.452
 3726SOL     OW11509   3.322   1.505   8.787
 3726SOL    HW111510   3.346   1.599   8.813
 3726SOL    HW211511   3.306   1.451   8.869
 3727SOL     OW11512   2.300   0.392   8.947
 3727SOL    HW111513   2.382   0.336   8.956
 3727SOL    HW211514   2.219   0.334   8.951
 3728SOL     OW11515   3.465   0.447   8.185
 3728SOL    HW111516   3.391   0.493   8.135
 3728SOL    HW211517   3.516   0.515   8.238
 3729SOL     OW11518   2.093   1.713   7.931
 3729SOL    HW111519   2.127   1.790   7.985
 3729SOL    HW211520   2.137   1.713   7.841
 3730SOL     OW11521   2.989   1.341   9.138
 3730SOL    HW111522   3.036   1.341   9.226
 3730SOL    HW211523   2.941   1.254   9.127
 3731SOL     OW11524   2.092   1.434   7.986
 3731SOL    HW111525   2.066   1.530   7.986
 3731SOL    HW211526   2.021   1.380   8.031
 3732SOL     OW11527   2.102   1.091   8.334
 3732SOL    HW111528   2.116   1.007   8.386
 3732SOL    HW211529   2.047   1.155   8.389
 3733SOL     OW11530   2.482   1.786   8.887
 3733SOL    HW111531   2.390   1.769   8.922
 3733SOL    HW211532   2.510   1.878   8.913
 3734SOL     OW11533   2.468   0.964   7.571
 3734SOL    HW111534   2.475   1.048   7.517
 3734SOL    HW211535   2.514   0.977   7.659
 3735SOL     OW11536   3.456   0.114   8.928
 3735SOL    HW111537   3.438   0.181   8.856
 3735SOL    HW211538   3.453   0.160   9.017
 3736SOL     OW11539   1.984   0.643   8.011
 3736SOL    HW111540   1.939   0.555   8.028
 3736SOL    HW211541   1.983   0.697   8.095
 3737SOL     OW11542   3.704   1.767   7.807
 3737SOL    HW111543   3.758   1.738   7.887
 3737SOL    HW211544   3.734   1.857   7.778
 3738SOL     OW11545   1.889   1.596   7.565
 3738SOL    HW111546   1.870   1.500   7.586
 3738SOL    HW211547   1.856   1.654   7.640
 3739SOL     OW11548   3.551   0.922   8.060
 3739SOL    HW111549   3.646   0.893   8.068
 3739SOL    HW211550   3.543   0.987   7.985
 3740SOL     OW11551   3.503   1.108   7.880
 3740SOL    HW111552   3.589   1.110   7.828
 3740SOL    HW211553   3.517   1.155   7.968
 3741SOL     OW11554   1.975   0.737   9.045
 3741SOL    HW111555   2.063   0.724   9.090
 3741SOL    HW211556   1.962   0.834   9.023
 3742SOL     OW11557   2.475   1.365   8.174
 3742SOL    HW111558   2.426   1.278   8.183
 3742SOL    HW211559   2.452   1.408   8.087
 3743SOL     OW11560   3.155   1.228   8.871
 3743SOL    HW111561   3.192   1.155   8.813
 3743SOL    HW211562   3.207   1.233   8.956
 3744SOL     OW11563   2.671   0.004   7.950
 3744SOL    HW111564   2.711   0.095   7.941
 3744SOL    HW211565   2.571   0.012   7.956
 3745SOL     OW11566   2.059   0.976   8.712
 3745SOL    HW111567   2.148   0.931   8.698
 3745SOL    HW211568   1.986   0.911   8.693
 3746SOL     OW11569   3.387   0.999   7.638
 3746SOL    HW111570   3.324   0.923   7.651
 3746SOL    HW211571   3.435   1.017   7.724
 3747SOL     OW11572   3.049   1.792   9.064
 3747SOL    HW111573   3.073   1.852   8.988
 3747SOL    HW211574   3.056   1.697   9.034
 3748SOL     OW11575   2.179   0.251   9.249
 3748SOL    HW111576   2.250   0.322   9.255
 3748SOL    HW211577   2.091   0.290   9.277
 3749SOL     OW11578   3.328   1.417   8.401
 3749SOL    HW111579   3.269   1.423   8.481
 3749SOL    HW211580   3.313   1.329   8.355
 3750SOL     OW11581   3.529   1.714   8.020
 3750SOL    HW111582   3.488   1.691   7.932
 3750SOL    HW211583   3.511   1.640   8.085
 3751SOL     OW11584   2.460   0.729   7.718
 3751SOL    HW111585   2.484   0.798   7.650
 3751SOL    HW211586   2.382   0.762   7.772
 3752SOL     OW11587   3.143   0.345   8.392
 3752SOL    HW111588   3.057   0.295   8.379
 3752SOL    HW211589   3.205   0.291   8.448
 3753SOL     OW11590   3.438   1.662   7.755
 3753SOL    HW111591   3.527   1.708   7.758
 3753SOL    HW211592   3.417   1.638   7.660
 3754SOL     OW11593   2.669   0.605   8.913
 3754SOL    HW111594   2.622   0.602   9.002
 3754SOL    HW211595   2.618   0.550   8.847
 3755SOL     OW11596   3.256   0.469   9.122
 3755SOL    HW111597   3.236   0.512   9.210
 3755SOL    HW211598   3.334   0.407   9.131
 3756SOL     OW11599   2.835   0.890   9.020
 3756SOL    HW111600   2.881   0.806   8.991
 3756SOL    HW211601   2.779   0.924   8.945
 3757SOL     OW11602   2.853   0.410   8.690
 3757SOL    HW111603   2.776   0.444   8.744
 3757SOL    HW211604   2.819   0.359   8.611
 3758SOL     OW11605   2.903   0.701   7.877
 3758SOL    HW111606   2.929   0.697   7.973
 3758SOL    HW211607   2.818   0.650   7.863
 3759SOL     OW11608   1.938   0.811   8.237
 3759SOL    HW111609   2.037   0.799   8.246
 3759SOL    HW211610   1.914   0.906   8.258
 3760SOL     OW11611   1.992   1.821   9.019
 3760SOL    HW111612   1.982   1.806   9.118
 3760SOL    HW211613   1.906   1.857   8.983
 3761SOL     OW11614   2.727   0.348   7.643
 3761SOL    HW111615   2.786   0.411   7.594
 3761SOL    HW211616   2.746   0.254   7.614
 3762SOL     OW11617   3.581   0.585   9.279
 3762SOL    HW111618   3.555   0.674   9.243
 3762SOL    HW211619   3.579   0.517   9.206
 3763SOL     OW11620   3.224   1.144   7.993
 3763SOL    HW111621   3.307   1.115   7.945
 3763SOL    HW211622   3.175   1.211   7.937
 3764SOL     OW11623   2.412   0.196   8.333
 3764SOL    HW111624   2.407   0.191   8.433
 3764SOL    HW211625   2.414   0.292   8.304
 3765SOL     OW11626   2.870   1.456   7.925
 3765SOL    HW111627   2.824   1.528   7.873
 3765SOL    HW211628   2.866   1.476   8.023
 3766SOL     OW11629   2.213   1.801   8.301
 3766SOL    HW111630   2.263   1.715   8.307
 3766SOL    HW211631   2.278   1.878   8.298
 3767SOL     OW11632   3.657   1.066   8.321
 3767SOL    HW111633   3.595   1.051   8.245
 3767SOL    HW211634   3.605   1.077   8.406
 3768SOL     OW11635   3.089   1.550   8.954
 3768SOL    HW111636   3.095   1.473   9.018
 3768SOL    HW211637   3.037   1.524   8.874
 3769SOL     OW11638   2.183   0.943   7.690
 3769SOL    HW111639   2.265   0.982   7.648
 3769SOL    HW211640   2.156   0.861   7.641
 3770SOL     OW11641   3.320   0.735   8.176
 3770SOL    HW111642   3.315   0.670   8.251
 3770SOL    HW211643   3.400   0.794   8.189
 3771SOL     OW11644   2.323   1.266   9.175
 3771SOL    HW111645   2.273   1.267   9.089
 3771SOL    HW211646   2.260   1.248   9.251
 3772SOL     OW11647   2.973   1.776   7.685
 3772SOL    HW111648   2.913   1.714   7.735
 3772SOL    HW211649   3.004   1.732   7.600
 3773SOL     OW11650   2.064   0.285   8.946
 3773SOL    HW111651   1.984   0.345   8.933
 3773SOL    HW211652   2.054   0.236   9.032
 3774SOL     OW11653   3.494   1.377   7.529
 3774SOL    HW111654   3.462   1.471   7.519
 3774SOL    HW211655   3.418   1.314   7.517
 3775SOL     OW11656   2.326   1.743   7.771
 3775SOL    HW111657   2.359   1.782   7.857
 3775SOL    HW211658   2.402   1.736   7.706
 3776SOL     OW11659   3.262   0.107   7.874
 3776SOL    HW111660   3.238   0.070   7.784
 3776SOL    HW211661   3.361   0.123   7.878
 3777SOL     OW11662   2.111   1.785   8.689
 3777SOL    HW111663   2.168   1.720   8.739
 3777SOL    HW211664   2.095   1.752   8.596
 3778SOL     OW11665   2.802   1.698   8.352
 3778SOL    HW111666   2.882   1.641   8.373
 3778SOL    HW211667   2.753   1.658   8.275
 3779SOL     OW11668   2.244   0.700   7.928
 3779SOL    HW111669   2.289   0.610   7.925
 3779SOL    HW211670   2.150   0.689   7.961
 3780SOL     OW11671   3.409   0.222   9.177
 3780SOL    HW111672   3.404   0.259   9.269
 3780SOL    HW211673   3.337   0.153   9.165
 3781SOL     OW11674   2.476   0.122   7.565
 3781SOL    HW111675   2.574   0.100   7.572
 3781SOL    HW211676   2.445   0.105   7.472
 3782SOL     OW11677   2.643   0.264   9.197
 3782SOL    HW111678   2.710   0.203   9.240
 3782SOL    HW211679   2.570   0.283   9.262
 3783SOL     OW11680   2.750   1.514   8.643
 3783SOL    HW111681   2.727   1.489   8.549
 3783SOL    HW211682   2.811   1.445   8.682
 3784SOL     OW11683   3.213   0.590   8.881
 3784SOL    HW111684   3.241   0.547   8.966
 3784SOL    HW211685   3.238   0.686   8.882
 3785SOL     OW11686   2.665   1.402   8.372
 3785SOL    HW111687   2.755   1.416   8.330
 3785SOL    HW211688   2.594   1.404   8.301
 3786SOL     OW11689   2.784   0.503   8.347
 3786SOL    HW111690   2.759   0.494   8.251
 3786SOL    HW211691   2.832   0.421   8.378
 3787SOL     OW11692   2.401   0.064   7.960
 3787SOL    HW111693   2.320   0.065   8.018
 3787SOL    HW211694   2.404   0.147   7.905
 3788SOL     OW11695   3.296   1.188   7.489
 3788SOL    HW111696   3.328   1.112   7.546
 3788SOL    HW211697   3.204   1.215   7.519
 3789SOL     OW11698   2.159   0.035   7.619
 3789SOL    HW111699   2.208   0.119   7.598
 3789SOL    HW211700   2.221  -0.030   7.664
 3790SOL     OW11701   2.797   0.236   7.928
 3790SOL    HW111702   2.749   0.277   7.850
 3790SOL    HW211703   2.896   0.234   7.909
 3791SOL     OW11704   2.938   0.683   8.912
 3791SOL    HW111705   2.858   0.622   8.915
 3791SOL    HW211706   3.019   0.630   8.888
 3792SOL     OW11707   3.089   1.570   8.241
 3792SOL    HW111708   3.110   1.644   8.176
 3792SOL    HW211709   3.157   1.570   8.314
 3793SOL     OW11710   2.321   1.152   8.189
 3793SOL    HW111711   2.250   1.125   8.254
 3793SOL    HW211712   2.295   1.124   8.096
 3794SOL     OW11713   3.133   1.797   8.039
 3794SOL    HW111714   3.177   1.861   7.975
 3794SOL    HW211715   3.083   1.849   8.109
 3795SOL     OW11716   2.894   0.549   7.464
 3795SOL    HW111717   2.853   0.631   7.425
 3795SOL    HW211718   2.958   0.575   7.537
 3796SOL     OW11719   1.940   0.556   8.834
 3796SOL    HW111720   2.032   0.555   8.793
 3796SOL    HW211721   1.934   0.630   8.901
 3797SOL     OW11722   2.423   0.222   8.595
 3797SOL    HW111723   2.461   0.138   8.632
 3797SOL    HW211724   2.335   0.241   8.639
 3798SOL     OW11725   2.728   0.454   8.090
 3798SOL    HW111726   2.696   0.526   8.028
 3798SOL    HW211727   2.752   0.373   8.037
 3799SOL     OW11728   2.879   0.039   8.201
 3799SOL    HW111729   2.807   0.044   8.132
 3799SOL    HW211730   2.855  -0.030   8.270
 3800SOL     OW11731   3.291   1.173   8.315
 3800SOL    HW111732   3.236   1.089   8.308
 3800SOL    HW211733   3.317   1.202   8.223
 3801SOL     OW11734   3.328   0.590   8.440
 3801SOL    HW111735   3.298   0.495   8.447
 3801SOL    HW211736   3.401   0.606   8.506
 3802SOL     OW11737   3.719   0.833   7.825
 3802SOL    HW111738   3.761   0.769   7.889
 3802SOL    HW211739   3.681   0.782   7.747
 3803SOL     OW11740   2.350   1.385   7.622
 3803SOL    HW111741   2.263   1.370   7.669
 3803SOL    HW211742   2.333   1.411   7.527
 3804SOL     OW11743   3.526   1.280   8.105
 3804SOL    HW111744   3.625   1.288   8.119
 3804SOL    HW211745   3.481   1.364   8.136
 3805SOL     OW11746   3.252   0.575   7.526
 3805SOL    HW111747   3.198   0.554   7.607
 3805SOL    HW211748   3.343   0.534   7.535
 3806SOL     OW11749   2.389   0.256   7.776
 3806SOL    HW111750   2.416   0.197   7.701
 3806SOL    HW211751   2.389   0.351   7.745
 3807SOL     OW11752   3.616   1.223   9.036
 3807SOL    HW111753   3.707   1.184   9.023
 3807SOL    HW211754   3.624   1.319   9.060
 3808SOL     OW11755   2.926   1.347   8.788
 3808SOL    HW111756   2.846   1.324   8.843
 3808SOL    HW211757   3.009   1.321   8.837
 3809SOL     OW11758   3.454   1.629   9.073
 3809SOL    HW111759   3.481   1.663   8.983
 3809SOL    HW211760   3.533   1.591   9.119
 3810SOL     OW11761   2.973   1.195   8.548
 3810SOL    HW111762   2.933   1.239   8.629
 3810SOL    HW211763   2.932   1.232   8.465
 3811SOL     OW11764   3.500   1.099   8.527
 3811SOL    HW111765   3.505   1.180   8.586
 3811SOL    HW211766   3.414   1.101   8.476
 3812SOL     OW11767   2.777   0.089   8.850
 3812SOL    HW111768   2.802   0.069   8.755
 3812SOL    HW211769   2.849   0.145   8.892
 3813SOL     OW11770   2.842   1.116   9.167
 3813SOL    HW111771   2.743   1.122   9.177
 3813SOL    HW211772   2.865   1.036   9.111
 3814SOL     OW11773   2.567   1.050   7.816
 3814SOL    HW111774   2.553   1.057   7.915
 3814SOL    HW211775   2.651   0.999   7.798
 3815SOL     OW11776   2.272   0.813   8.699
 3815SOL    HW111777   2.358   0.825   8.749
 3815SOL    HW211778   2.230   0.726   8.726
 3816SOL     OW11779   3.136   0.386   8.710
 3816SOL    HW111780   3.157   0.460   8.774
 3816SOL    HW211781   3.047   0.403   8.667
 3817SOL     OW11782   1.926   1.564   8.779
 3817SOL    HW111783   1.880   1.646   8.745
 3817SOL    HW211784   2.024   1.583   8.788
 3818SOL     OW11785   2.229   1.100   7.949
 3818SOL    HW111786   2.222   1.183   7.893
 3818SOL    HW211787   2.233   1.020   7.889
 3819SOL     OW11788   2.428   0.537   8.313
 3819SOL    HW111789   2.440   0.603   8.239
 3819SOL    HW211790   2.474   0.571   8.396
 3820SOL     OW11791   3.114   1.348   7.836
 3820SOL    HW111792   3.164   1.425   7.876
 3820SOL    HW211793   3.019   1.350   7.868
 3821SOL     OW11794   3.134   1.445   8.590
 3821SOL    HW111795   3.181   1.458   8.677
 3821SOL    HW211796   3.068   1.371   8.599
 3822SOL     OW11797   3.444   0.639   7.920
 3822SOL    HW111798   3.413   0.700   7.993
 3822SOL    HW211799   3.494   0.691   7.851
 3823SOL     OW11800   2.216   1.510   8.777
 3823SOL    HW111801   2.195   1.466   8.690
 3823SOL    HW211802   2.313   1.536   8.780
 3824SOL     OW11803   2.264   0.751   9.046
 3824SOL    HW111804   2.332   0.806   8.999
 3824SOL    HW211805   2.304   0.663   9.073
 3825SOL     OW11806   3.449   0.779   9.118
 3825SOL    HW111807   3.357   0.817   9.113
 3825SOL    HW211808   3.509   0.826   9.053
 3826SOL     OW11809   2.875   0.105   9.218
 3826SOL    HW111810   2.881   0.190   9.166
 3826SOL    HW211811   2.907   0.029   9.161
 3827SOL     OW11812   2.366   0.050   9.188
 3827SOL    HW111813   2.324  -0.007   9.118
 3827SOL    HW211814   2.300   0.119   9.220
 3828SOL     OW11815   2.435   0.870   8.477
 3828SOL    HW111816   2.479   0.959   8.468
 3828SOL    HW211817   2.372   0.870   8.554
 3829SOL     OW11818   3.222   0.862   8.493
 3829SOL    HW111819   3.147   0.862   8.427
 3829SOL    HW211820   3.259   0.770   8.502
 3830SOL     OW11821   3.071   0.525   7.723
 3830SOL    HW111822   3.084   0.441   7.777
 3830SOL    HW211823   3.042   0.599   7.783
 3831SOL     OW11824   2.169   0.213   8.679
 3831SOL    HW111825   2.146   0.250   8.769
 3831SOL    HW211826   2.139   0.118   8.673
 3832SOL     OW11827   1.899   1.310   8.730
 3832SOL    HW111828   1.952   1.261   8.798
 3832SOL    HW211829   1.921   1.408   8.735
 3833SOL     OW11830   2.594   0.634   8.512
 3833SOL    HW111831   2.653   0.608   8.436
 3833SOL    HW211832   2.566   0.730   8.501
 3834SOL     OW11833   3.590   0.935   9.302
 3834SOL    HW111834   3.544   0.928   9.213
 3834SOL    HW211835   3.528   0.979   9.368
 3835SOL     OW11836   2.169   0.063   8.066
 3835SOL    HW111837   2.158   0.157   8.099
 3835SOL    HW211838   2.164   0.000   8.143
 3836SOL     OW11839   3.484   0.367   7.822
 3836SOL    HW111840   3.486   0.291   7.886
 3836SOL    HW211841   3.436   0.444   7.862
 3837SOL     OW11842   2.885   0.766   8.414
 3837SOL    HW111843   2.900   0.787   8.510
 3837SOL    HW211844   2.855   0.671   8.405
 3838SOL     OW11845   2.842   1.573   9.148
 3838SOL    HW111846   2.822   1.617   9.060
 3838SOL    HW211847   2.881   1.482   9.132
 3839SOL     OW11848   3.721   1.518   9.053
 3839SOL    HW111849   3.735   1.545   8.958
 3839SOL    HW211850   3.804   1.540   9.106
 3840SOL     OW11851   2.212   0.898   9.252
 3840SOL    HW111852   2.288   0.942   9.300
 3840SOL    HW211853   2.247   0.851   9.170
 3841SOL     OW11854   3.402   0.274   7.573
 3841SOL    HW111855   3.341   0.199   7.596
 3841SOL    HW211856   3.424   0.326   7.656
 3842SOL     OW11857   3.165   0.838   7.490
 3842SOL    HW111858   3.199   0.745   7.505
 3842SOL    HW211859   3.183   0.865   7.395
 3843SOL     OW11860   2.930   1.333   8.297
 3843SOL    HW111861   2.937   1.249   8.242
 3843SOL    HW211862   2.992   1.402   8.261
 3844SOL     OW11863   2.181   0.810   8.397
 3844SOL    HW111864   2.274   0.846   8.402
 3844SOL    HW211865   2.175   0.725   8.449
 3845SOL     OW11866   2.201   0.509   8.454
 3845SOL    HW111867   2.149   0.426   8.437
 3845SOL    HW211868   2.278   0.514   8.390
 3846SOL     OW11869   3.000   0.380   9.126
 3846SOL    HW111870   2.955   0.443   9.190
 3846SOL    HW211871   3.093   0.411   9.109
 3847SOL     OW11872   3.022   0.207   8.925
 3847SOL    HW111873   3.022   0.271   9.002
 3847SOL    HW211874   3.050   0.255   8.842
 3848SOL     OW11875   1.870   1.326   7.648
 3848SOL    HW111876   1.777   1.347   7.617
 3848SOL    HW211877   1.880   1.227   7.661
 3849SOL     OW11878   1.950   1.801   8.375
 3849SOL    HW111879   1.908   1.715   8.348
 3849SOL    HW211880   2.044   1.804   8.341
 3850SOL     OW11881   2.366   1.568   8.358
 3850SOL    HW111882   2.432   1.642   8.367
 3850SOL    HW211883   2.410   1.489   8.316
 3851SOL     OW11884   2.864   0.796   8.686
 3851SOL    HW111885   2.905   0.764   8.772
 3851SOL    HW211886   2.768   0.769   8.683
 3852SOL     OW11887   1.902   0.544   8.562
 3852SOL    HW111888   1.987   0.511   8.521
 3852SOL    HW211889   1.915   0.559   8.660
 3853SOL     OW11890   2.051   0.520   9.170
 3853SOL    HW111891   2.110   0.480   9.100
 3853SOL    HW211892   1.993   0.591   9.129
 3854SOL     OW11893   3.231   0.950   9.108
 3854SOL    HW111894   3.270   1.039   9.128
 3854SOL    HW211895   3.241   0.930   9.011
 3855SOL     OW11896   2.677   0.572   7.773
 3855SOL    HW111897   2.684   0.483   7.727
 3855SOL    HW211898   2.583   0.606   7.765
 3856SOL     OW11899   3.519   0.604   8.654
 3856SOL    HW111900   3.481   0.535   8.716
 3856SOL    HW211901   3.601   0.568   8.610
 3857SOL     OW11902   2.114   1.564   9.192
 3857SOL    HW111903   2.084   1.621   9.268
 3857SOL    HW211904   2.107   1.467   9.218
 3858SOL     OW11905   2.533   0.464   8.717
 3858SOL    HW111906   2.499   0.375   8.687
 3858SOL    HW211907   2.559   0.518   8.637
 3859SOL     OW11908   2.792   1.678   8.913
 3859SOL    HW111909   2.768   1.660   8.818
 3859SOL    HW211910   2.822   1.772   8.923
 3860SOL     OW11911   2.335   0.500   7.639
 3860SOL    HW111912   2.396   0.580   7.643
 3860SOL    HW211913   2.240   0.531   7.646
 3861SOL     OW11914   2.021   1.137   8.914
 3861SOL    HW111915   2.043   1.076   8.990
 3861SOL    HW211916   2.031   1.088   8.828
 3862SOL     OW11917   3.209   1.059   8.682
 3862SOL    HW111918   3.233   0.996   8.608
 3862SOL    HW211919   3.119   1.099   8.664
 3863SOL     OW11920   3.164   0.855   7.757
 3863SOL    HW111921   3.078   0.824   7.799
 3863SOL    HW211922   3.160   0.841   7.658
 3864SOL     OW11923   3.621   1.747   8.602
 3864SOL    HW111924   3.682   1.777   8.529
 3864SOL    HW211925   3.583   1.658   8.580
 3865SOL     OW11926   3.114   1.731   8.576
 3865SOL    HW111927   3.198   1.736   8.522
 3865SOL    HW211928   3.091   1.635   8.594
 3866SOL     OW11929   1.945   1.258   8.470
 3866SOL    HW111930   1.940   1.257   8.570
 3866SOL    HW211931   1.862   1.217   8.432
 3867SOL     OW11932   2.550   1.662   9.164
 3867SOL    HW111933   2.494   1.743   9.173
 3867SOL    HW211934   2.602   1.666   9.078
 3868SOL     OW11935   3.588   0.135   7.971
 3868SOL    HW111936   3.661   0.118   7.904
 3868SOL    HW211937   3.557   0.048   8.009
 3869SOL     OW11938   3.250   1.573   7.925
 3869SOL    HW111939   3.317   1.585   7.851
 3869SOL    HW211940   3.210   1.662   7.948
 3870SOL     OW11941   1.992   1.794   9.299
 3870SOL    HW111942   1.951   1.720   9.352
 3870SOL    HW211943   2.056   1.845   9.357
 3871SOL     OW11944   3.142   0.927   8.120
 3871SOL    HW111945   3.202   0.846   8.122
 3871SOL    HW211946   3.182   0.996   8.060
 3872SOL     OW11947   2.692   1.273   8.870
 3872SOL    HW111948   2.687   1.306   8.965
 3872SOL    HW211949   2.606   1.292   8.824
 3873SOL     OW11950   2.534   1.616   7.602
 3873SOL    HW111951   2.543   1.626   7.503
 3873SOL    HW211952   2.494   1.527   7.623
 3874SOL     OW11953   3.512   1.720   8.842
 3874SOL    HW111954   3.565   1.730   8.758
 3874SOL    HW211955   3.485   1.810   8.876
 3875SOL     OW11956   3.703   0.175   8.411
 3875SOL    HW111957   3.742   0.090   8.375
 3875SOL    HW211958   3.605   0.177   8.392
 3876SOL     OW11959   2.125   0.326   8.168
 3876SOL    HW111960   2.046   0.377   8.134
 3876SOL    HW211961   2.116   0.311   8.266
 3877SOL     OW11962   3.056   1.612   7.479
 3877SOL    HW111963   3.062   1.519   7.516
 3877SOL    HW211964   2.997   1.612   7.399
 3878SOL     OW11965   2.684   1.002   8.820
 3878SOL    HW111966   2.724   1.001   8.728
 3878SOL    HW211967   2.694   1.094   8.860
 3879SOL     OW11968   2.778   0.910   7.739
 3879SOL    HW111969   2.841   0.948   7.671
 3879SOL    HW211970   2.818   0.827   7.778
 3880SOL     OW11971   3.366   1.607   7.492
 3880SOL    HW111972   3.274   1.644   7.499
 3880SOL    HW211973   3.404   1.627   7.402
 3881SOL     OW11974   2.234   1.288   8.938
 3881SOL    HW111975   2.221   1.381   8.904
 3881SOL    HW211976   2.150   1.236   8.925
 3882SOL     OW11977   3.476   1.292   8.737
 3882SOL    HW111978   3.536   1.295   8.817
 3882SOL    HW211979   3.401   1.356   8.750
 3883SOL     OW11980   2.901   1.098   8.144
 3883SOL    HW111981   2.831   1.051   8.198
 3883SOL    HW211982   2.960   1.030   8.101
 3884SOL     OW11983   2.876   0.236   8.419
 3884SOL    HW111984   2.868   0.200   8.326
 3884SOL    HW211985   2.874   0.160   8.484
 3885SOL     OW11986   2.452   1.487   7.939
 3885SOL    HW111987   2.494   1.429   7.869
 3885SOL    HW211988   2.408   1.566   7.895
 3886SOL     OW11989   3.571   0.385   8.829
 3886SOL    HW111990   3.644   0.454   8.833
 3886SOL    HW211991   3.599   0.310   8.770
 3887SOL     OW11992   2.117   1.348   7.738
 3887SOL    HW111993   2.021   1.349   7.711
 3887SOL    HW211994   2.129   1.401   7.822
 3888SOL     OW11995   1.967   1.013   9.174
 3888SOL    HW111996   1.890   0.980   9.228
 3888SOL    HW211997   2.052   0.983   9.216
 3889SOL     OW11998   2.534   0.203   8.937
 3889SOL    HW111999   2.624   0.187   8.897
 3889SOL    HW212000   2.542   0.208   9.036
 3890SOL     OW12001   1.937   0.345   7.481
 3890SOL    HW112002   1.845   0.317   7.452
 3890SOL    HW212003   1.968   0.422   7.425
 3891SOL     OW12004   3.302   0.856   8.846
 3891SOL    HW112005   3.245   0.908   8.783
 3891SOL    HW212006   3.398   0.868   8.822
 3892SOL     OW12007   1.934   0.166   7.766
 3892SOL    HW112008   1.917   0.249   7.712
 3892SOL    HW212009   2.024   0.129   7.744
 3893SOL     OW12010   3.045   1.335   7.567
 3893SOL    HW112011   2.946   1.324   7.569
 3893SOL    HW212012   3.079   1.350   7.660
 3894SOL     OW12013   2.475   0.842   8.879
 3894SOL    HW112014   2.531   0.923   8.862
 3894SOL    HW212015   2.534   0.762   8.882
 3895SOL     OW12016   3.355   1.767   8.407
 3895SOL    HW112017   3.388   1.831   8.338
 3895SOL    HW212018   3.421   1.761   8.482
 3896SOL     OW12019   2.578   0.565   9.156
 3896SOL    HW112020   2.597   0.630   9.230
 3896SOL    HW212021   2.638   0.485   9.165
 3897SOL     OW12022   3.312   1.220   9.081
 3897SOL    HW112023   3.303   1.210   9.180
 3897SOL    HW212024   3.408   1.213   9.055
 3898SOL     OW12025   2.252   1.741   9.008
 3898SOL    HW112026   2.161   1.782   9.006
 3898SOL    HW212027   2.245   1.647   9.040
 3899SOL     OW12028   3.536   0.883   8.702
 3899SOL    HW112029   3.509   0.794   8.665
 3899SOL    HW212030   3.537   0.951   8.629
 3900SOL     OW12031   3.087   0.325   7.897
 3900SOL    HW112032   3.152   0.251   7.886
 3900SOL    HW212033   3.107   0.375   7.981
 3901SOL     OW12034   2.456   0.745   8.100
 3901SOL    HW112035   2.506   0.830   8.081
 3901SOL    HW212036   2.368   0.747   8.052
 3902SOL     OW12037   3.639   0.342   9.090
 3902SOL    HW112038   3.622   0.373   8.996
 3902SOL    HW212039   3.555   0.305   9.128
 3903SOL     OW12040   3.592   0.934   8.965
 3903SOL    HW112041   3.630   1.025   8.980
 3903SOL    HW212042   3.584   0.917   8.866
 3904SOL     OW12043   2.721   1.374   7.464
 3904SOL    HW112044   2.675   1.389   7.552
 3904SOL    HW212045   2.765   1.459   7.434
 3905SOL     OW12046   2.523   1.790   8.401
 3905SOL    HW112047   2.477   1.878   8.388
 3905SOL    HW212048   2.622   1.802   8.394
 3906SOL     OW12049   2.721   0.956   8.309
 3906SOL    HW112050   2.775   0.887   8.357
 3906SOL    HW212051   2.689   1.025   8.375
 3907SOL     OW12052   2.945   0.984   7.535
 3907SOL    HW112053   2.922   1.037   7.453
 3907SOL    HW212054   3.026   0.928   7.516
 3908SOL     OW12055   3.723   1.569   8.299
 3908SOL    HW112056   3.652   1.557   8.229
 3908SOL    HW212057   3.724   1.490   8.359
 3909SOL     OW12058   2.083   1.314   9.292
 3909SOL    HW112059   2.018   1.241   9.271
 3909SOL    HW212060   2.087   1.328   9.390
 3910SOL     OW12061   1.941   1.240   8.101
 3910SOL    HW112062   1.940   1.193   8.189
 3910SOL    HW212063   2.023   1.212   8.050
 3911SOL     OW12064   2.534   1.391   9.072
 3911SOL    HW112065   2.456   1.341   9.110
 3911SOL    HW212066   2.531   1.486   9.103
 3912SOL     OW12067   3.686   0.192   8.675
 3912SOL    HW112068   3.682   0.102   8.719
 3912SOL    HW212069   3.689   0.181   8.576
 3913SOL     OW12070   2.290   0.424   7.968
 3913SOL    HW112071   2.320   0.352   7.906
 3913SOL    HW212072   2.251   0.384   8.051
 3914SOL     OW12073   3.567   1.487   8.552
 3914SOL    HW112074   3.474   1.462   8.525
 3914SOL    HW212075   3.593   1.437   8.634
 3915SOL     OW12076   2.179   0.547   8.728
 3915SOL    HW112077   2.217   0.488   8.800
 3915SOL    HW212078   2.219   0.521   8.640
 3916SOL     OW12079   2.674   1.586   8.135
 3916SOL    HW112080   2.706   1.596   8.041
 3916SOL    HW212081   2.595   1.524   8.137
 3917SOL     OW12082   3.286   0.214   8.560
 3917SOL    HW112083   3.338   0.149   8.615
 3917SOL    HW212084   3.237   0.277   8.621
 3918SOL     OW12085   2.863   0.034   8.602
 3918SOL    HW112086   2.800  -0.038   8.571
 3918SOL    HW212087   2.956  -0.002   8.602
 3919SOL     OW12088   2.632   1.330   7.749
 3919SOL    HW112089   2.586   1.243   7.766
 3919SOL    HW212090   2.723   1.327   7.790
 3920SOL     OW12091   2.480   1.567   8.732
 3920SOL    HW112092   2.475   1.649   8.789
 3920SOL    HW212093   2.569   1.564   8.687
 3921SOL     OW12094   3.214   0.052   7.616
 3921SOL    HW112095   3.249   0.011   7.532
 3921SOL    HW212096   3.124   0.014   7.636
 3922SOL     OW12097   3.162   0.453   8.139
 3922SOL    HW112098   3.103   0.533   8.143
 3922SOL    HW212099   3.177   0.418   8.232
 3923SOL     OW12100   3.455   0.221   8.330
 3923SOL    HW112101   3.371   0.220   8.384
 3923SOL    HW212102   3.457   0.304   8.274
 3924SOL     OW12103   1.901   1.077   7.748
 3924SOL    HW112104   2.000   1.066   7.739
 3924SOL    HW212105   1.861   0.991   7.780
 3925SOL     OW12106   2.737   1.646   7.785
 3925SOL    HW112107   2.660   1.611   7.731
 3925SOL    HW212108   2.705   1.717   7.847
 3926SOL     OW12109   2.092   0.628   9.423
 3926SOL    HW112110   1.999   0.626   9.460
 3926SOL    HW212111   2.093   0.589   9.331
 3927SOL     OW12112   3.617   0.607   9.541
 3927SOL    HW112113   3.605   0.594   9.442
 3927SOL    HW212114   3.587   0.526   9.590
 3928SOL     OW12115   2.093   1.713   9.793
 3928SOL    HW112116   2.127   1.790   9.847
 3928SOL    HW212117   2.137   1.713   9.703
 3929SOL     OW12118   2.092   1.434   9.848
 3929SOL    HW112119   2.066   1.530   9.848
 3929SOL    HW212120   2.021   1.380   9.893
 3930SOL     OW12121   2.468   0.964   9.433
 3930SOL    HW112122   2.475   1.048   9.379
 3930SOL    HW212123   2.514   0.977   9.521
 3931SOL     OW12124   1.984   0.643   9.873
 3931SOL    HW112125   1.939   0.555   9.890
 3931SOL    HW212126   1.983   0.697   9.957
 3932SOL     OW12127   3.704   1.767   9.669
 3932SOL    HW112128   3.758   1.738   9.749
 3932SOL    HW212129   3.734   1.857   9.640
 3933SOL     OW12130   1.889   1.596   9.427
 3933SOL    HW112131   1.870   1.500   9.448
 3933SOL    HW212132   1.856   1.654   9.502
 3934SOL     OW12133   3.551   0.922   9.922
 3934SOL    HW112134   3.646   0.893   9.930
 3934SOL    HW212135   3.543   0.987   9.847
 3935SOL     OW12136   3.503   1.108   9.742
 3935SOL    HW112137   3.589   1.110   9.690
 3935SOL    HW212138   3.517   1.155   9.830
 3936SOL     OW12139   2.475   1.365  10.036
 3936SOL    HW112140   2.426   1.278  10.045
 3936SOL    HW212141   2.452   1.408   9.949
 3937SOL     OW12142   2.671   0.004   9.812
 3937SOL    HW112143   2.711   0.095   9.803
 3937SOL    HW212144   2.571   0.012   9.818
 3938SOL     OW12145   3.387   0.999   9.500
 3938SOL    HW112146   3.324   0.923   9.513
 3938SOL    HW212147   3.435   1.017   9.586
 3939SOL     OW12148   2.460   0.729   9.580
 3939SOL    HW112149   2.484   0.798   9.512
 3939SOL    HW212150   2.382   0.762   9.634
 3940SOL     OW12151   3.438   1.662   9.617
 3940SOL    HW112152   3.527   1.708   9.620
 3940SOL    HW212153   3.417   1.638   9.522
 3941SOL     OW12154   2.903   0.701   9.739
 3941SOL    HW112155   2.929   0.697   9.835
 3941SOL    HW212156   2.818   0.650   9.725
 3942SOL     OW12157   1.938   0.811  10.099
 3942SOL    HW112158   2.037   0.799  10.108
 3942SOL    HW212159   1.914   0.906  10.120
 3943SOL     OW12160   2.727   0.348   9.505
 3943SOL    HW112161   2.786   0.411   9.456
 3943SOL    HW212162   2.746   0.254   9.476
 3944SOL     OW12163   3.224   1.144   9.855
 3944SOL    HW112164   3.307   1.115   9.807
 3944SOL    HW212165   3.175   1.211   9.799
 3945SOL     OW12166   2.870   1.456   9.787
 3945SOL    HW112167   2.824   1.528   9.735
 3945SOL    HW212168   2.866   1.476   9.885
 3946SOL     OW12169   2.183   0.943   9.552
 3946SOL    HW112170   2.265   0.982   9.510
 3946SOL    HW212171   2.156   0.861   9.503
 3947SOL     OW12172   2.973   1.776   9.547
 3947SOL    HW112173   2.913   1.714   9.597
 3947SOL    HW212174   3.004   1.732   9.462
 3948SOL     OW12175   3.494   1.377   9.391
 3948SOL    HW112176   3.462   1.471   9.381
 3948SOL    HW212177   3.418   1.314   9.379
 3949SOL     OW12178   2.326   1.743   9.633
 3949SOL    HW112179   2.359   1.782   9.719
 3949SOL    HW212180   2.402   1.736   9.568
 3950SOL     OW12181   3.262   0.107   9.736
 3950SOL    HW112182   3.238   0.070   9.646
 3950SOL    HW212183   3.361   0.123   9.740
 3951SOL     OW12184   2.244   0.700   9.790
 3951SOL    HW112185   2.289   0.610   9.787
 3951SOL    HW212186   2.150   0.689   9.823
 3952SOL     OW12187   2.476   0.122   9.427
 3952SOL    HW112188   2.574   0.100   9.434
 3952SOL    HW212189   2.445   0.105   9.334
 3953SOL     OW12190   2.401   0.064   9.822
 3953SOL    HW112191   2.320   0.065   9.880
 3953SOL    HW212192   2.404   0.147   9.767
 3954SOL     OW12193   3.296   1.188   9.351
 3954SOL    HW112194   3.328   1.112   9.408
 3954SOL    HW212195   3.204   1.215   9.381
 3955SOL     OW12196   2.159   0.035   9.481
 3955SOL    HW112197   2.208   0.119   9.460
 3955SOL    HW212198   2.221  -0.030   9.526
 3956SOL     OW12199   2.797   0.236   9.790
 3956SOL    HW112200   2.749   0.277   9.712
 3956SOL    HW212201   2.896   0.234   9.771
 3957SOL     OW12202   2.321   1.152  10.051
 3957SOL    HW112203   2.250   1.125  10.116
 3957SOL    HW212204   2.295   1.124   9.958
 3958SOL     OW12205   3.133   1.797   9.901
 3958SOL    HW112206   3.177   1.861   9.837
 3958SOL    HW212207   3.083   1.849   9.971
 3959SOL     OW12208   2.894   0.549   9.326
 3959SOL    HW112209   2.853   0.631   9.287
 3959SOL    HW212210   2.958   0.575   9.399
 3960SOL     OW12211   2.728   0.454   9.952
 3960SOL    HW112212   2.696   0.526   9.890
 3960SOL    HW212213   2.752   0.373   9.899
 3961SOL     OW12214   3.719   0.833   9.687
 3961SOL    HW112215   3.761   0.769   9.751
 3961SOL    HW212216   3.681   0.782   9.609
 3962SOL     OW12217   2.350   1.385   9.484
 3962SOL    HW112218   2.263   1.370   9.531
 3962SOL    HW212219   2.333   1.411   9.389
 3963SOL     OW12220   3.252   0.575   9.388
 3963SOL    HW112221   3.198   0.554   9.469
 3963SOL    HW212222   3.343   0.534   9.397
 3964SOL     OW12223   2.389   0.256   9.638
 3964SOL    HW112224   2.416   0.197   9.563
 3964SOL    HW212225   2.389   0.351   9.607
 3965SOL     OW12226   2.567   1.050   9.678
 3965SOL    HW112227   2.553   1.057   9.777
 3965SOL    HW212228   2.651   0.999   9.660
 3966SOL     OW12229   2.229   1.100   9.811
 3966SOL    HW112230   2.222   1.183   9.755
 3966SOL    HW212231   2.233   1.020   9.751
 3967SOL     OW12232   3.114   1.348   9.698
 3967SOL    HW112233   3.164   1.425   9.738
 3967SOL    HW212234   3.019   1.350   9.730
 3968SOL     OW12235   3.444   0.639   9.782
 3968SOL    HW112236   3.413   0.700   9.855
 3968SOL    HW212237   3.494   0.691   9.713
 3969SOL     OW12238   3.071   0.525   9.585
 3969SOL    HW112239   3.084   0.441   9.639
 3969SOL    HW212240   3.042   0.599   9.645
 3970SOL     OW12241   2.169   0.063   9.928
 3970SOL    HW112242   2.158   0.157   9.961
 3970SOL    HW212243   2.164   0.000  10.005
 3971SOL     OW12244   3.484   0.367   9.684
 3971SOL    HW112245   3.486   0.291   9.748
 3971SOL    HW212246   3.436   0.444   9.724
 3972SOL     OW12247   3.402   0.274   9.435
 3972SOL    HW112248   3.341   0.199   9.458
 3972SOL    HW212249   3.424   0.326   9.518
 3973SOL     OW12250   3.165   0.838   9.352
 3973SOL    HW112251   3.199   0.745   9.367
 3973SOL    HW212252   3.183   0.865   9.257
 3974SOL     OW12253   1.870   1.326   9.510
 3974SOL    HW112254   1.777   1.347   9.479
 3974SOL    HW212255   1.880   1.227   9.523
 3975SOL     OW12256   2.677   0.572   9.635
 3975SOL    HW112257   2.684   0.483   9.589
 3975SOL    HW212258   2.583   0.606   9.627
 3976SOL     OW12259   2.335   0.500   9.501
 3976SOL    HW112260   2.396   0.580   9.505
 3976SOL    HW212261   2.240   0.531   9.508
 3977SOL     OW12262   3.164   0.855   9.619
 3977SOL    HW112263   3.078   0.824   9.661
 3977SOL    HW212264   3.160   0.841   9.520
 3978SOL     OW12265   3.588   0.135   9.833
 3978SOL    HW112266   3.661   0.118   9.766
 3978SOL    HW212267   3.557   0.048   9.871
 3979SOL     OW12268   3.250   1.573   9.787
 3979SOL    HW112269   3.317   1.585   9.713
 3979SOL    HW212270   3.210   1.662   9.810
 3980SOL     OW12271   2.534   1.616   9.464
 3980SOL    HW112272   2.543   1.626   9.365
 3980SOL    HW212273   2.494   1.527   9.485
 3981SOL     OW12274   3.056   1.612   9.341
 3981SOL    HW112275   3.062   1.519   9.378
 3981SOL    HW212276   2.997   1.612   9.261
 3982SOL     OW12277   2.778   0.910   9.601
 3982SOL    HW112278   2.841   0.948   9.533
 3982SOL    HW212279   2.818   0.827   9.640
 3983SOL     OW12280   3.366   1.607   9.354
 3983SOL    HW112281   3.274   1.644   9.361
 3983SOL    HW212282   3.404   1.627   9.264
 3984SOL     OW12283   2.452   1.487   9.801
 3984SOL    HW112284   2.494   1.429   9.731
 3984SOL    HW212285   2.408   1.566   9.757
 3985SOL     OW12286   2.117   1.348   9.600
 3985SOL    HW112287   2.021   1.349   9.573
 3985SOL    HW212288   2.129   1.401   9.684
 3986SOL     OW12289   1.937   0.345   9.343
 3986SOL    HW112290   1.845   0.317   9.314
 3986SOL    HW212291   1.968   0.422   9.287
 3987SOL     OW12292   1.934   0.166   9.628
 3987SOL    HW112293   1.917   0.249   9.574
 3987SOL    HW212294   2.024   0.129   9.606
 3988SOL     OW12295   3.045   1.335   9.429
 3988SOL    HW112296   2.946   1.324   9.431
 3988SOL    HW212297   3.079   1.350   9.522
 3989SOL     OW12298   3.087   0.325   9.759
 3989SOL    HW112299   3.152   0.251   9.748
 3989SOL    HW212300   3.107   0.375   9.843
 3990SOL     OW12301   2.456   0.745   9.962
 3990SOL    HW112302   2.506   0.830   9.943
 3990SOL    HW212303   2.368   0.747   9.914
 3991SOL     OW12304   2.721   1.374   9.326
 3991SOL    HW112305   2.675   1.389   9.414
 3991SOL    HW212306   2.765   1.459   9.296
 3992SOL     OW12307   2.945   0.984   9.397
 3992SOL    HW112308   2.922   1.037   9.315
 3992SOL    HW212309   3.026   0.928   9.378
 3993SOL     OW12310   1.941   1.240   9.963
 3993SOL    HW112311   1.940   1.193  10.051
 3993SOL    HW212312   2.023   1.212   9.912
 3994SOL     OW12313   2.290   0.424   9.830
 3994SOL    HW112314   2.320   0.352   9.768
 3994SOL    HW212315   2.251   0.384   9.913
 3995SOL     OW12316   2.632   1.330   9.611
 3995SOL    HW112317   2.586   1.243   9.628
 3995SOL    HW212318   2.723   1.327   9.652
 3996SOL     OW12319   3.214   0.052   9.478
 3996SOL    HW112320   3.249   0.011   9.394
 3996SOL    HW212321   3.124   0.014   9.498
 3997SOL     OW12322   1.901   1.077   9.610
 3997SOL    HW112323   2.000   1.066   9.601
 3997SOL    HW212324   1.861   0.991   9.642
 3998SOL     OW12325   2.737   1.646   9.647
 3998SOL    HW112326   2.660   1.611   9.593
 3998SOL    HW212327   2.705   1.717   9.709
 3999SOL     OW12328   2.092   2.490   0.113
 3999SOL    HW112329   1.999   2.488   0.150
 3999SOL    HW212330   2.093   2.451   0.021
 4000SOL     OW12331   2.087   2.137   0.996
 4000SOL    HW112332   2.122   2.120   1.088
 4000SOL    HW212333   1.999   2.092   0.984
 4001SOL     OW12334   1.881   2.230   0.647
 4001SOL    HW112335   1.799   2.273   0.686
 4001SOL    HW212336   1.853   2.157   0.584
 4002SOL     OW12337   2.431   3.137   1.165
 4002SOL    HW112338   2.338   3.130   1.128
 4002SOL    HW212339   2.442   3.226   1.209
 4003SOL     OW12340   3.417   3.373   0.703
 4003SOL    HW112341   3.360   3.357   0.784
 4003SOL    HW212342   3.358   3.383   0.623
 4004SOL     OW12343   2.997   2.565   0.717
 4004SOL    HW112344   3.054   2.643   0.692
 4004SOL    HW212345   2.937   2.591   0.793
 4005SOL     OW12346   3.617   2.469   0.231
 4005SOL    HW112347   3.605   2.456   0.132
 4005SOL    HW212348   3.587   2.388   0.280
 4006SOL     OW12349   2.630   3.006   1.023
 4006SOL    HW112350   2.552   3.023   1.083
 4006SOL    HW212351   2.664   3.093   0.987
 4007SOL     OW12352   2.712   2.660   1.823
 4007SOL    HW112353   2.708   2.736   1.888
 4007SOL    HW212354   2.734   2.696   1.732
 4008SOL     OW12355   2.547   2.874   0.665
 4008SOL    HW112356   2.616   2.858   0.735
 4008SOL    HW212357   2.474   2.931   0.703
 4009SOL     OW12358   2.548   3.023   1.803
 4009SOL    HW112359   2.608   3.102   1.817
 4009SOL    HW212360   2.462   3.054   1.762
 4010SOL     OW12361   2.197   3.297   1.061
 4010SOL    HW112362   2.119   3.266   1.008
 4010SOL    HW212363   2.255   3.355   1.004
 4011SOL     OW12364   3.322   3.367   1.339
 4011SOL    HW112365   3.346   3.461   1.365
 4011SOL    HW212366   3.306   3.313   1.421
 4012SOL     OW12367   3.465   2.309   0.737
 4012SOL    HW112368   3.391   2.355   0.687
 4012SOL    HW212369   3.516   2.377   0.790
 4013SOL     OW12370   2.093   3.575   0.483
 4013SOL    HW112371   2.127   3.652   0.537
 4013SOL    HW212372   2.137   3.575   0.393
 4014SOL     OW12373   2.989   3.203   1.690
 4014SOL    HW112374   3.036   3.203   1.778
 4014SOL    HW212375   2.941   3.116   1.679
 4015SOL     OW12376   2.092   3.296   0.538
 4015SOL    HW112377   2.066   3.392   0.538
 4015SOL    HW212378   2.021   3.242   0.583
 4016SOL     OW12379   2.102   2.953   0.886
 4016SOL    HW112380   2.116   2.869   0.938
 4016SOL    HW212381   2.047   3.017   0.941
 4017SOL     OW12382   2.482   3.648   1.439
 4017SOL    HW112383   2.390   3.631   1.474
 4017SOL    HW212384   2.510   3.740   1.465
 4018SOL     OW12385   2.468   2.826   0.123
 4018SOL    HW112386   2.475   2.910   0.069
 4018SOL    HW212387   2.514   2.839   0.211
 4019SOL     OW12388   3.456   1.976   1.480
 4019SOL    HW112389   3.438   2.043   1.408
 4019SOL    HW212390   3.453   2.022   1.569
 4020SOL     OW12391   1.984   2.505   0.563
 4020SOL    HW112392   1.939   2.417   0.580
 4020SOL    HW212393   1.983   2.559   0.647
 4021SOL     OW12394   3.704   3.629   0.359
 4021SOL    HW112395   3.758   3.600   0.439
 4021SOL    HW212396   3.734   3.719   0.330
 4022SOL     OW12397   1.889   3.458   0.117
 4022SOL    HW112398   1.870   3.362   0.138
 4022SOL    HW212399   1.856   3.516   0.192
 4023SOL     OW12400   3.551   2.784   0.612
 4023SOL    HW112401   3.646   2.755   0.620
 4023SOL    HW212402   3.543   2.849   0.537
 4024SOL     OW12403   3.503   2.970   0.432
 4024SOL    HW112404   3.589   2.972   0.380
 4024SOL    HW212405   3.517   3.017   0.520
 4025SOL     OW12406   1.975   2.599   1.597
 4025SOL    HW112407   2.063   2.586   1.642
 4025SOL    HW212408   1.962   2.696   1.575
 4026SOL     OW12409   2.475   3.227   0.726
 4026SOL    HW112410   2.426   3.140   0.735
 4026SOL    HW212411   2.452   3.270   0.639
 4027SOL     OW12412   3.155   3.090   1.423
 4027SOL    HW112413   3.192   3.017   1.365
 4027SOL    HW212414   3.207   3.095   1.508
 4028SOL     OW12415   2.671   1.866   0.502
 4028SOL    HW112416   2.711   1.957   0.493
 4028SOL    HW212417   2.571   1.874   0.508
 4029SOL     OW12418   2.059   2.838   1.264
 4029SOL    HW112419   2.148   2.793   1.250
 4029SOL    HW212420   1.986   2.773   1.245
 4030SOL     OW12421   3.387   2.861   0.190
 4030SOL    HW112422   3.324   2.785   0.203
 4030SOL    HW212423   3.435   2.879   0.276
 4031SOL     OW12424   3.049   3.654   1.616
 4031SOL    HW112425   3.073   3.714   1.540
 4031SOL    HW212426   3.056   3.559   1.586
 4032SOL     OW12427   3.328   3.279   0.953
 4032SOL    HW112428   3.269   3.285   1.033
 4032SOL    HW212429   3.313   3.191   0.907
 4033SOL     OW12430   3.529   3.576   0.572
 4033SOL    HW112431   3.488   3.553   0.484
 4033SOL    HW212432   3.511   3.502   0.637
 4034SOL     OW12433   2.460   2.591   0.270
 4034SOL    HW112434   2.484   2.660   0.202
 4034SOL    HW212435   2.382   2.624   0.324
 4035SOL     OW12436   3.143   2.207   0.944
 4035SOL    HW112437   3.057   2.157   0.931
 4035SOL    HW212438   3.205   2.153   1.000
 4036SOL     OW12439   3.438   3.524   0.307
 4036SOL    HW112440   3.527   3.570   0.310
 4036SOL    HW212441   3.417   3.500   0.212
 4037SOL     OW12442   3.256   2.331   1.674
 4037SOL    HW112443   3.236   2.374   1.762
 4037SOL    HW212444   3.334   2.269   1.683
 4038SOL     OW12445   2.835   2.752   1.572
 4038SOL    HW112446   2.881   2.668   1.543
 4038SOL    HW212447   2.779   2.786   1.497
 4039SOL     OW12448   2.853   2.272   1.242
 4039SOL    HW112449   2.776   2.306   1.296
 4039SOL    HW212450   2.819   2.221   1.163
 4040SOL     OW12451   2.903   2.563   0.429
 4040SOL    HW112452   2.929   2.559   0.525
 4040SOL    HW212453   2.818   2.512   0.415
 4041SOL     OW12454   1.938   2.673   0.789
 4041SOL    HW112455   2.037   2.661   0.798
 4041SOL    HW212456   1.914   2.768   0.810
 4042SOL     OW12457   1.992   3.683   1.571
 4042SOL    HW112458   1.982   3.668   1.670
 4042SOL    HW212459   1.906   3.719   1.535
 4043SOL     OW12460   2.727   2.210   0.195
 4043SOL    HW112461   2.786   2.273   0.146
 4043SOL    HW212462   2.746   2.116   0.166
 4044SOL     OW12463   3.581   2.447   1.831
 4044SOL    HW112464   3.555   2.536   1.795
 4044SOL    HW212465   3.579   2.379   1.758
 4045SOL     OW12466   3.224   3.006   0.545
 4045SOL    HW112467   3.307   2.977   0.497
 4045SOL    HW212468   3.175   3.073   0.489
 4046SOL     OW12469   2.870   3.318   0.477
 4046SOL    HW112470   2.824   3.390   0.425
 4046SOL    HW212471   2.866   3.338   0.575
 4047SOL     OW12472   2.213   3.663   0.853
 4047SOL    HW112473   2.263   3.577   0.859
 4047SOL    HW212474   2.278   3.740   0.850
 4048SOL     OW12475   3.657   2.928   0.873
 4048SOL    HW112476   3.595   2.913   0.797
 4048SOL    HW212477   3.605   2.939   0.958
 4049SOL     OW12478   3.089   3.412   1.506
 4049SOL    HW112479   3.095   3.335   1.570
 4049SOL    HW212480   3.037   3.386   1.426
 4050SOL     OW12481   2.183   2.805   0.242
 4050SOL    HW112482   2.265   2.844   0.200
 4050SOL    HW212483   2.156   2.723   0.193
 4051SOL     OW12484   3.320   2.597   0.728
 4051SOL    HW112485   3.315   2.532   0.803
 4051SOL    HW212486   3.400   2.656   0.741
 4052SOL     OW12487   2.323   3.128   1.727
 4052SOL    HW112488   2.273   3.129   1.641
 4052SOL    HW212489   2.260   3.110   1.803
 4053SOL     OW12490   2.973   3.638   0.237
 4053SOL    HW112491   2.913   3.576   0.287
 4053SOL    HW212492   3.004   3.594   0.152
 4054SOL     OW12493   2.064   2.147   1.498
 4054SOL    HW112494   1.984   2.207   1.485
 4054SOL    HW212495   2.054   2.098   1.584
 4055SOL     OW12496   3.494   3.239   0.081
 4055SOL    HW112497   3.462   3.333   0.071
 4055SOL    HW212498   3.418   3.176   0.069
 4056SOL     OW12499   2.326   3.605   0.323
 4056SOL    HW112500   2.359   3.644   0.409
 4056SOL    HW212501   2.402   3.598   0.258
 4057SOL     OW12502   3.262   1.969   0.426
 4057SOL    HW112503   3.238   1.932   0.336
 4057SOL    HW212504   3.361   1.985   0.430
 4058SOL     OW12505   2.111   3.647   1.241
 4058SOL    HW112506   2.168   3.582   1.291
 4058SOL    HW212507   2.095   3.614   1.148
 4059SOL     OW12508   2.802   3.560   0.904
 4059SOL    HW112509   2.882   3.503   0.925
 4059SOL    HW212510   2.753   3.520   0.827
 4060SOL     OW12511   3.409   2.084   1.729
 4060SOL    HW112512   3.404   2.121   1.821
 4060SOL    HW212513   3.337   2.015   1.717
 4061SOL     OW12514   2.476   1.984   0.117
 4061SOL    HW112515   2.574   1.962   0.124
 4061SOL    HW212516   2.445   1.967   0.024
 4062SOL     OW12517   2.643   2.126   1.749
 4062SOL    HW112518   2.710   2.065   1.792
 4062SOL    HW212519   2.570   2.145   1.814
 4063SOL     OW12520   2.750   3.376   1.195
 4063SOL    HW112521   2.727   3.351   1.101
 4063SOL    HW212522   2.811   3.307   1.234
 4064SOL     OW12523   3.213   2.452   1.433
 4064SOL    HW112524   3.241   2.409   1.518
 4064SOL    HW212525   3.238   2.548   1.434
 4065SOL     OW12526   2.665   3.264   0.924
 4065SOL    HW112527   2.755   3.278   0.882
 4065SOL    HW212528   2.594   3.266   0.853
 4066SOL     OW12529   2.784   2.365   0.899
 4066SOL    HW112530   2.759   2.356   0.803
 4066SOL    HW212531   2.832   2.283   0.930
 4067SOL     OW12532   2.401   1.926   0.512
 4067SOL    HW112533   2.320   1.927   0.570
 4067SOL    HW212534   2.404   2.009   0.457
 4068SOL     OW12535   3.296   3.050   0.041
 4068SOL    HW112536   3.328   2.974   0.098
 4068SOL    HW212537   3.204   3.077   0.071
 4069SOL     OW12538   2.159   1.897   0.171
 4069SOL    HW112539   2.208   1.981   0.150
 4069SOL    HW212540   2.221   1.832   0.216
 4070SOL     OW12541   2.797   2.098   0.480
 4070SOL    HW112542   2.749   2.139   0.402
 4070SOL    HW212543   2.896   2.096   0.461
 4071SOL     OW12544   2.938   2.545   1.464
 4071SOL    HW112545   2.858   2.484   1.467
 4071SOL    HW212546   3.019   2.492   1.440
 4072SOL     OW12547   3.089   3.432   0.793
 4072SOL    HW112548   3.110   3.506   0.728
 4072SOL    HW212549   3.157   3.432   0.866
 4073SOL     OW12550   2.321   3.014   0.741
 4073SOL    HW112551   2.250   2.987   0.806
 4073SOL    HW212552   2.295   2.986   0.648
 4074SOL     OW12553   3.133   3.659   0.591
 4074SOL    HW112554   3.177   3.723   0.527
 4074SOL    HW212555   3.083   3.711   0.661
 4075SOL     OW12556   2.894   2.411   0.016
 4075SOL    HW112557   2.853   2.493  -0.023
 4075SOL    HW212558   2.958   2.437   0.089
 4076SOL     OW12559   1.940   2.418   1.386
 4076SOL    HW112560   2.032   2.417   1.345
 4076SOL    HW212561   1.934   2.492   1.453
 4077SOL     OW12562   2.423   2.084   1.147
 4077SOL    HW112563   2.461   2.000   1.184
 4077SOL    HW212564   2.335   2.103   1.191
 4078SOL     OW12565   2.728   2.316   0.642
 4078SOL    HW112566   2.696   2.388   0.580
 4078SOL    HW212567   2.752   2.235   0.589
 4079SOL     OW12568   2.879   1.901   0.753
 4079SOL    HW112569   2.807   1.906   0.684
 4079SOL    HW212570   2.855   1.832   0.822
 4080SOL     OW12571   3.291   3.035   0.867
 4080SOL    HW112572   3.236   2.951   0.860
 4080SOL    HW212573   3.317   3.064   0.775
 4081SOL     OW12574   3.328   2.452   0.992
 4081SOL    HW112575   3.298   2.357   0.999
 4081SOL    HW212576   3.401   2.468   1.058
 4082SOL     OW12577   3.719   2.695   0.377
 4082SOL    HW112578   3.761   2.631   0.441
 4082SOL    HW212579   3.681   2.644   0.299
 4083SOL     OW12580   2.350   3.247   0.174
 4083SOL    HW112581   2.263   3.232   0.221
 4083SOL    HW212582   2.333   3.273   0.079
 4084SOL     OW12583   3.526   3.142   0.657
 4084SOL    HW112584   3.625   3.150   0.671
 4084SOL    HW212585   3.481   3.226   0.688
 4085SOL     OW12586   3.252   2.437   0.078
 4085SOL    HW112587   3.198   2.416   0.159
 4085SOL    HW212588   3.343   2.396   0.087
 4086SOL     OW12589   3.616   3.085   1.588
 4086SOL    HW112590   3.707   3.046   1.575
 4086SOL    HW212591   3.624   3.181   1.612
 4087SOL     OW12592   2.926   3.209   1.340
 4087SOL    HW112593   2.846   3.186   1.395
 4087SOL    HW212594   3.009   3.183   1.389
 4088SOL     OW12595   3.454   3.491   1.625
 4088SOL    HW112596   3.481   3.525   1.535
 4088SOL    HW212597   3.533   3.453   1.671
 4089SOL     OW12598   2.973   3.057   1.100
 4089SOL    HW112599   2.933   3.101   1.181
 4089SOL    HW212600   2.932   3.094   1.017
 4090SOL     OW12601   3.500   2.961   1.079
 4090SOL    HW112602   3.505   3.042   1.138
 4090SOL    HW212603   3.414   2.963   1.028
 4091SOL     OW12604   2.777   1.951   1.402
 4091SOL    HW112605   2.802   1.931   1.307
 4091SOL    HW212606   2.849   2.007   1.444
 4092SOL     OW12607   2.842   2.978   1.719
 4092SOL    HW112608   2.743   2.984   1.729
 4092SOL    HW212609   2.865   2.898   1.663
 4093SOL     OW12610   2.567   2.912   0.368
 4093SOL    HW112611   2.553   2.919   0.467
 4093SOL    HW212612   2.651   2.861   0.350
 4094SOL     OW12613   2.272   2.675   1.251
 4094SOL    HW112614   2.358   2.687   1.301
 4094SOL    HW212615   2.230   2.588   1.278
 4095SOL     OW12616   3.136   2.248   1.262
 4095SOL    HW112617   3.157   2.322   1.326
 4095SOL    HW212618   3.047   2.265   1.219
 4096SOL     OW12619   1.926   3.426   1.331
 4096SOL    HW112620   1.880   3.508   1.297
 4096SOL    HW212621   2.024   3.445   1.340
 4097SOL     OW12622   2.229   2.962   0.501
 4097SOL    HW112623   2.222   3.045   0.445
 4097SOL    HW212624   2.233   2.882   0.441
 4098SOL     OW12625   3.114   3.210   0.388
 4098SOL    HW112626   3.164   3.287   0.428
 4098SOL    HW212627   3.019   3.212   0.420
 4099SOL     OW12628   3.134   3.307   1.142
 4099SOL    HW112629   3.181   3.320   1.229
 4099SOL    HW212630   3.068   3.233   1.151
 4100SOL     OW12631   3.444   2.501   0.472
 4100SOL    HW112632   3.413   2.562   0.545
 4100SOL    HW212633   3.494   2.553   0.403
 4101SOL     OW12634   2.216   3.372   1.329
 4101SOL    HW112635   2.195   3.328   1.242
 4101SOL    HW212636   2.313   3.398   1.332
 4102SOL     OW12637   2.264   2.613   1.598
 4102SOL    HW112638   2.332   2.668   1.551
 4102SOL    HW212639   2.304   2.525   1.625
 4103SOL     OW12640   3.449   2.641   1.670
 4103SOL    HW112641   3.357   2.679   1.665
 4103SOL    HW212642   3.509   2.688   1.605
 4104SOL     OW12643   2.875   1.967   1.770
 4104SOL    HW112644   2.881   2.052   1.718
 4104SOL    HW212645   2.907   1.891   1.713
 4105SOL     OW12646   2.366   1.912   1.740
 4105SOL    HW112647   2.324   1.855   1.670
 4105SOL    HW212648   2.300   1.981   1.772
 4106SOL     OW12649   2.435   2.732   1.029
 4106SOL    HW112650   2.479   2.821   1.020
 4106SOL    HW212651   2.372   2.732   1.106
 4107SOL     OW12652   3.222   2.724   1.045
 4107SOL    HW112653   3.147   2.724   0.979
 4107SOL    HW212654   3.259   2.632   1.054
 4108SOL     OW12655   3.071   2.387   0.275
 4108SOL    HW112656   3.084   2.303   0.329
 4108SOL    HW212657   3.042   2.461   0.335
 4109SOL     OW12658   2.169   2.075   1.231
 4109SOL    HW112659   2.146   2.112   1.321
 4109SOL    HW212660   2.139   1.980   1.225
 4110SOL     OW12661   1.899   3.172   1.282
 4110SOL    HW112662   1.952   3.123   1.350
 4110SOL    HW212663   1.921   3.270   1.287
 4111SOL     OW12664   2.594   2.496   1.064
 4111SOL    HW112665   2.653   2.470   0.988
 4111SOL    HW212666   2.566   2.592   1.053
 4112SOL     OW12667   3.590   2.797   1.854
 4112SOL    HW112668   3.544   2.790   1.765
 4112SOL    HW212669   3.528   2.841   1.920
 4113SOL     OW12670   2.169   1.925   0.618
 4113SOL    HW112671   2.158   2.019   0.651
 4113SOL    HW212672   2.164   1.862   0.695
 4114SOL     OW12673   3.484   2.229   0.374
 4114SOL    HW112674   3.486   2.153   0.438
 4114SOL    HW212675   3.436   2.306   0.414
 4115SOL     OW12676   2.885   2.628   0.966
 4115SOL    HW112677   2.900   2.649   1.062
 4115SOL    HW212678   2.855   2.533   0.957
 4116SOL     OW12679   2.842   3.435   1.700
 4116SOL    HW112680   2.822   3.479   1.612
 4116SOL    HW212681   2.881   3.344   1.684
 4117SOL     OW12682   3.721   3.380   1.605
 4117SOL    HW112683   3.735   3.407   1.510
 4117SOL    HW212684   3.804   3.402   1.658
 4118SOL     OW12685   2.212   2.760   1.804
 4118SOL    HW112686   2.288   2.804   1.852
 4118SOL    HW212687   2.247   2.713   1.722
 4119SOL     OW12688   3.402   2.136   0.125
 4119SOL    HW112689   3.341   2.061   0.148
 4119SOL    HW212690   3.424   2.188   0.208
 4120SOL     OW12691   3.165   2.700   0.042
 4120SOL    HW112692   3.199   2.607   0.057
 4120SOL    HW212693   3.183   2.727  -0.053
 4121SOL     OW12694   2.930   3.195   0.849
 4121SOL    HW112695   2.937   3.111   0.794
 4121SOL    HW212696   2.992   3.264   0.813
 4122SOL     OW12697   2.181   2.672   0.949
 4122SOL    HW112698   2.274   2.708   0.954
 4122SOL    HW212699   2.175   2.587   1.001
 4123SOL     OW12700   3.000   2.242   1.678
 4123SOL    HW112701   2.955   2.305   1.742
 4123SOL    HW212702   3.093   2.273   1.661
 4124SOL     OW12703   3.022   2.069   1.477
 4124SOL    HW112704   3.022   2.133   1.554
 4124SOL    HW212705   3.050   2.117   1.394
 4125SOL     OW12706   1.870   3.188   0.200
 4125SOL    HW112707   1.777   3.209   0.169
 4125SOL    HW212708   1.880   3.089   0.213
 4126SOL     OW12709   1.950   3.663   0.927
 4126SOL    HW112710   1.908   3.577   0.900
 4126SOL    HW212711   2.044   3.666   0.893
 4127SOL     OW12712   2.366   3.430   0.910
 4127SOL    HW112713   2.432   3.504   0.919
 4127SOL    HW212714   2.410   3.351   0.868
 4128SOL     OW12715   2.864   2.658   1.238
 4128SOL    HW112716   2.905   2.626   1.324
 4128SOL    HW212717   2.768   2.631   1.235
 4129SOL     OW12718   1.902   2.406   1.114
 4129SOL    HW112719   1.987   2.373   1.073
 4129SOL    HW212720   1.915   2.421   1.212
 4130SOL     OW12721   2.051   2.382   1.722
 4130SOL    HW112722   2.110   2.342   1.652
 4130SOL    HW212723   1.993   2.453   1.681
 4131SOL     OW12724   3.231   2.812   1.660
 4131SOL    HW112725   3.270   2.901   1.680
 4131SOL    HW212726   3.241   2.792   1.563
 4132SOL     OW12727   2.677   2.434   0.325
 4132SOL    HW112728   2.684   2.345   0.279
 4132SOL    HW212729   2.583   2.468   0.317
 4133SOL     OW12730   3.519   2.466   1.206
 4133SOL    HW112731   3.481   2.397   1.268
 4133SOL    HW212732   3.601   2.430   1.162
 4134SOL     OW12733   2.114   3.426   1.744
 4134SOL    HW112734   2.084   3.483   1.820
 4134SOL    HW212735   2.107   3.329   1.770
 4135SOL     OW12736   2.792   3.540   1.465
 4135SOL    HW112737   2.768   3.522   1.370
 4135SOL    HW212738   2.822   3.634   1.475
 4136SOL     OW12739   2.021   2.999   1.466
 4136SOL    HW112740   2.043   2.938   1.542
 4136SOL    HW212741   2.031   2.950   1.380
 4137SOL     OW12742   3.209   2.921   1.234
 4137SOL    HW112743   3.233   2.858   1.160
 4137SOL    HW212744   3.119   2.961   1.216
 4138SOL     OW12745   3.164   2.717   0.309
 4138SOL    HW112746   3.078   2.686   0.351
 4138SOL    HW212747   3.160   2.703   0.210
 4139SOL     OW12748   3.621   3.609   1.154
 4139SOL    HW112749   3.682   3.639   1.081
 4139SOL    HW212750   3.583   3.520   1.132
 4140SOL     OW12751   3.114   3.593   1.128
 4140SOL    HW112752   3.198   3.598   1.074
 4140SOL    HW212753   3.091   3.497   1.146
 4141SOL     OW12754   1.945   3.120   1.022
 4141SOL    HW112755   1.940   3.119   1.122
 4141SOL    HW212756   1.862   3.079   0.984
 4142SOL     OW12757   2.550   3.524   1.716
 4142SOL    HW112758   2.494   3.605   1.725
 4142SOL    HW212759   2.602   3.528   1.630
 4143SOL     OW12760   2.765   1.948   0.133
 4143SOL    HW112761   2.816   1.949   0.047
 4143SOL    HW212762   2.821   1.906   0.204
 4144SOL     OW12763   3.588   1.997   0.523
 4144SOL    HW112764   3.661   1.980   0.456
 4144SOL    HW212765   3.557   1.910   0.561
 4145SOL     OW12766   3.250   3.435   0.477
 4145SOL    HW112767   3.317   3.447   0.403
 4145SOL    HW212768   3.210   3.524   0.500
 4146SOL     OW12769   1.992   3.656   1.851
 4146SOL    HW112770   1.951   3.582   1.904
 4146SOL    HW212771   2.056   3.707   1.909
 4147SOL     OW12772   3.142   2.789   0.672
 4147SOL    HW112773   3.202   2.708   0.674
 4147SOL    HW212774   3.182   2.858   0.612
 4148SOL     OW12775   2.692   3.135   1.422
 4148SOL    HW112776   2.687   3.168   1.517
 4148SOL    HW212777   2.606   3.154   1.376
 4149SOL     OW12778   2.534   3.478   0.154
 4149SOL    HW112779   2.543   3.488   0.055
 4149SOL    HW212780   2.494   3.389   0.175
 4150SOL     OW12781   3.512   3.582   1.394
 4150SOL    HW112782   3.565   3.592   1.310
 4150SOL    HW212783   3.485   3.672   1.428
 4151SOL     OW12784   3.703   2.037   0.963
 4151SOL    HW112785   3.742   1.952   0.927
 4151SOL    HW212786   3.605   2.039   0.944
 4152SOL     OW12787   2.125   2.188   0.720
 4152SOL    HW112788   2.046   2.239   0.686
 4152SOL    HW212789   2.116   2.173   0.818
 4153SOL     OW12790   3.056   3.474   0.031
 4153SOL    HW112791   3.062   3.381   0.068
 4153SOL    HW212792   2.997   3.474  -0.049
 4154SOL     OW12793   2.684   2.864   1.372
 4154SOL    HW112794   2.724   2.863   1.280
 4154SOL    HW212795   2.694   2.956   1.412
 4155SOL     OW12796   2.778   2.772   0.291
 4155SOL    HW112797   2.841   2.810   0.223
 4155SOL    HW212798   2.818   2.689   0.330
 4156SOL     OW12799   3.366   3.469   0.044
 4156SOL    HW112800   3.274   3.506   0.051
 4156SOL    HW212801   3.404   3.489  -0.046
 4157SOL     OW12802   2.234   3.150   1.490
 4157SOL    HW112803   2.221   3.243   1.456
 4157SOL    HW212804   2.150   3.098   1.477
 4158SOL     OW12805   3.476   3.154   1.289
 4158SOL    HW112806   3.536   3.157   1.369
 4158SOL    HW212807   3.401   3.218   1.302
 4159SOL     OW12808   2.901   2.960   0.696
 4159SOL    HW112809   2.831   2.913   0.750
 4159SOL    HW212810   2.960   2.892   0.653
 4160SOL     OW12811   2.876   2.098   0.971
 4160SOL    HW112812   2.868   2.062   0.878
 4160SOL    HW212813   2.874   2.022   1.036
 4161SOL     OW12814   2.452   3.349   0.491
 4161SOL    HW112815   2.494   3.291   0.421
 4161SOL    HW212816   2.408   3.428   0.447
 4162SOL     OW12817   3.571   2.247   1.381
 4162SOL    HW112818   3.644   2.316   1.385
 4162SOL    HW212819   3.599   2.172   1.322
 4163SOL     OW12820   2.117   3.210   0.290
 4163SOL    HW112821   2.021   3.211   0.263
 4163SOL    HW212822   2.129   3.263   0.374
 4164SOL     OW12823   1.967   2.875   1.726
 4164SOL    HW112824   1.890   2.842   1.780
 4164SOL    HW212825   2.052   2.845   1.768
 4165SOL     OW12826   2.534   2.065   1.489
 4165SOL    HW112827   2.624   2.049   1.449
 4165SOL    HW212828   2.542   2.070   1.588
 4166SOL     OW12829   1.937   2.207   0.033
 4166SOL    HW112830   1.845   2.179   0.004
 4166SOL    HW212831   1.968   2.284  -0.023
 4167SOL     OW12832   3.302   2.718   1.398
 4167SOL    HW112833   3.245   2.770   1.335
 4167SOL    HW212834   3.398   2.730   1.374
 4168SOL     OW12835   1.934   2.028   0.318
 4168SOL    HW112836   1.917   2.111   0.264
 4168SOL    HW212837   2.024   1.991   0.296
 4169SOL     OW12838   3.045   3.197   0.119
 4169SOL    HW112839   2.946   3.186   0.121
 4169SOL    HW212840   3.079   3.212   0.212
 4170SOL     OW12841   2.475   2.704   1.431
 4170SOL    HW112842   2.531   2.785   1.414
 4170SOL    HW212843   2.534   2.624   1.434
 4171SOL     OW12844   3.355   3.629   0.959
 4171SOL    HW112845   3.388   3.693   0.890
 4171SOL    HW212846   3.421   3.623   1.034
 4172SOL     OW12847   2.578   2.427   1.708
 4172SOL    HW112848   2.597   2.492   1.782
 4172SOL    HW212849   2.638   2.347   1.717
 4173SOL     OW12850   3.312   3.082   1.633
 4173SOL    HW112851   3.303   3.072   1.732
 4173SOL    HW212852   3.408   3.075   1.607
 4174SOL     OW12853   2.252   3.603   1.560
 4174SOL    HW112854   2.161   3.644   1.558
 4174SOL    HW212855   2.245   3.509   1.592
 4175SOL     OW12856   3.536   2.745   1.254
 4175SOL    HW112857   3.509   2.656   1.217
 4175SOL    HW212858   3.537   2.813   1.181
 4176SOL     OW12859   3.087   2.187   0.449
 4176SOL    HW112860   3.152   2.113   0.438
 4176SOL    HW212861   3.107   2.237   0.533
 4177SOL     OW12862   3.639   2.204   1.642
 4177SOL    HW112863   3.622   2.235   1.548
 4177SOL    HW212864   3.555   2.167   1.680
 4178SOL     OW12865   3.592   2.796   1.517
 4178SOL    HW112866   3.630   2.887   1.532
 4178SOL    HW212867   3.584   2.779   1.418
 4179SOL     OW12868   2.721   3.236   0.016
 4179SOL    HW112869   2.675   3.251   0.104
 4179SOL    HW212870   2.765   3.321  -0.014
 4180SOL     OW12871   2.523   3.652   0.953
 4180SOL    HW112872   2.477   3.740   0.940
 4180SOL    HW212873   2.622   3.664   0.946
 4181SOL     OW12874   2.721   2.818   0.861
 4181SOL    HW112875   2.775   2.749   0.909
 4181SOL    HW212876   2.689   2.887   0.927
 4182SOL     OW12877   2.945   2.846   0.087
 4182SOL    HW112878   2.922   2.899   0.005
 4182SOL    HW212879   3.026   2.790   0.068
 4183SOL     OW12880   3.723   3.431   0.851
 4183SOL    HW112881   3.652   3.419   0.781
 4183SOL    HW212882   3.724   3.352   0.911
 4184SOL     OW12883   2.083   3.176   1.844
 4184SOL    HW112884   2.018   3.103   1.823
 4184SOL    HW212885   2.087   3.190   1.942
 4185SOL     OW12886   1.941   3.102   0.653
 4185SOL    HW112887   1.940   3.055   0.741
 4185SOL    HW212888   2.023   3.074   0.602
 4186SOL     OW12889   2.534   3.253   1.624
 4186SOL    HW112890   2.456   3.203   1.662
 4186SOL    HW212891   2.531   3.348   1.655
 4187SOL     OW12892   3.686   2.054   1.227
 4187SOL    HW112893   3.682   1.964   1.271
 4187SOL    HW212894   3.689   2.043   1.128
 4188SOL     OW12895   3.567   3.349   1.104
 4188SOL    HW112896   3.474   3.324   1.077
 4188SOL    HW212897   3.593   3.299   1.186
 4189SOL     OW12898   2.674   3.448   0.687
 4189SOL    HW112899   2.706   3.458   0.593
 4189SOL    HW212900   2.595   3.386   0.689
 4190SOL     OW12901   3.286   2.076   1.112
 4190SOL    HW112902   3.338   2.011   1.167
 4190SOL    HW212903   3.237   2.139   1.173
 4191SOL     OW12904   2.863   1.896   1.154
 4191SOL    HW112905   2.800   1.824   1.123
 4191SOL    HW212906   2.956   1.860   1.154
 4192SOL     OW12907   2.632   3.192   0.301
 4192SOL    HW112908   2.586   3.105   0.318
 4192SOL    HW212909   2.723   3.189   0.342
 4193SOL     OW12910   2.480   3.429   1.284
 4193SOL    HW112911   2.475   3.511   1.341
 4193SOL    HW212912   2.569   3.426   1.239
 4194SOL     OW12913   3.214   1.914   0.168
 4194SOL    HW112914   3.249   1.873   0.084
 4194SOL    HW212915   3.124   1.876   0.188
 4195SOL     OW12916   3.162   2.315   0.691
 4195SOL    HW112917   3.103   2.395   0.695
 4195SOL    HW212918   3.177   2.280   0.784
 4196SOL     OW12919   3.455   2.083   0.882
 4196SOL    HW112920   3.371   2.082   0.936
 4196SOL    HW212921   3.457   2.166   0.826
 4197SOL     OW12922   1.901   2.939   0.300
 4197SOL    HW112923   2.000   2.928   0.291
 4197SOL    HW212924   1.861   2.853   0.332
 4198SOL     OW12925   2.737   3.508   0.337
 4198SOL    HW112926   2.660   3.473   0.283
 4198SOL    HW212927   2.705   3.579   0.399
 4199SOL     OW12928   2.092   2.490   1.975
 4199SOL    HW112929   1.999   2.488   2.012
 4199SOL    HW212930   2.093   2.451   1.883
 4200SOL     OW12931   2.087   2.137   2.858
 4200SOL    HW112932   2.122   2.120   2.950
 4200SOL    HW212933   1.999   2.092   2.846
 4201SOL     OW12934   1.881   2.230   2.509
 4201SOL    HW112935   1.799   2.273   2.548
 4201SOL    HW212936   1.853   2.157   2.446
 4202SOL     OW12937   2.431   3.137   3.027
 4202SOL    HW112938   2.338   3.130   2.990
 4202SOL    HW212939   2.442   3.226   3.071
 4203SOL     OW12940   3.417   3.373   2.565
 4203SOL    HW112941   3.360   3.357   2.646
 4203SOL    HW212942   3.358   3.383   2.485
 4204SOL     OW12943   2.997   2.565   2.579
 4204SOL    HW112944   3.054   2.643   2.554
 4204SOL    HW212945   2.937   2.591   2.655
 4205SOL     OW12946   3.617   2.469   2.093
 4205SOL    HW112947   3.605   2.456   1.994
 4205SOL    HW212948   3.587   2.388   2.142
 4206SOL     OW12949   2.630   3.006   2.885
 4206SOL    HW112950   2.552   3.023   2.945
 4206SOL    HW212951   2.664   3.093   2.849
 4207SOL     OW12952   2.712   2.660   3.685
 4207SOL    HW112953   2.708   2.736   3.750
 4207SOL    HW212954   2.734   2.696   3.594
 4208SOL     OW12955   2.547   2.874   2.527
 4208SOL    HW112956   2.616   2.858   2.597
 4208SOL    HW212957   2.474   2.931   2.565
 4209SOL     OW12958   2.548   3.023   3.665
 4209SOL    HW112959   2.608   3.102   3.679
 4209SOL    HW212960   2.462   3.054   3.624
 4210SOL     OW12961   2.197   3.297   2.923
 4210SOL    HW112962   2.119   3.266   2.870
 4210SOL    HW212963   2.255   3.355   2.866
 4211SOL     OW12964   3.322   3.367   3.201
 4211SOL    HW112965   3.346   3.461   3.227
 4211SOL    HW212966   3.306   3.313   3.283
 4212SOL     OW12967   3.465   2.309   2.599
 4212SOL    HW112968   3.391   2.355   2.549
 4212SOL    HW212969   3.516   2.377   2.652
 4213SOL     OW12970   2.093   3.575   2.345
 4213SOL    HW112971   2.127   3.652   2.399
 4213SOL    HW212972   2.137   3.575   2.255
 4214SOL     OW12973   2.989   3.203   3.552
 4214SOL    HW112974   3.036   3.203   3.640
 4214SOL    HW212975   2.941   3.116   3.541
 4215SOL     OW12976   2.092   3.296   2.400
 4215SOL    HW112977   2.066   3.392   2.400
 4215SOL    HW212978   2.021   3.242   2.445
 4216SOL     OW12979   2.102   2.953   2.748
 4216SOL    HW112980   2.116   2.869   2.800
 4216SOL    HW212981   2.047   3.017   2.803
 4217SOL     OW12982   2.482   3.648   3.301
 4217SOL    HW112983   2.390   3.631   3.336
 4217SOL    HW212984   2.510   3.740   3.327
 4218SOL     OW12985   2.468   2.826   1.985
 4218SOL    HW112986   2.475   2.910   1.931
 4218SOL    HW212987   2.514   2.839   2.073
 4219SOL     OW12988   3.456   1.976   3.342
 4219SOL    HW112989   3.438   2.043   3.270
 4219SOL    HW212990   3.453   2.022   3.431
 4220SOL     OW12991   1.984   2.505   2.425
 4220SOL    HW112992   1.939   2.417   2.442
 4220SOL    HW212993   1.983   2.559   2.509
 4221SOL     OW12994   3.704   3.629   2.221
 4221SOL    HW112995   3.758   3.600   2.301
 4221SOL    HW212996   3.734   3.719   2.192
 4222SOL     OW12997   1.889   3.458   1.979
 4222SOL    HW112998   1.870   3.362   2.000
 4222SOL    HW212999   1.856   3.516   2.054
 4223SOL     OW13000   3.551   2.784   2.474
 4223SOL    HW113001   3.646   2.755   2.482
 4223SOL    HW213002   3.543   2.849   2.399
 4224SOL     OW13003   3.503   2.970   2.294
 4224SOL    HW113004   3.589   2.972   2.242
 4224SOL    HW213005   3.517   3.017   2.382
 4225SOL     OW13006   1.975   2.599   3.459
 4225SOL    HW113007   2.063   2.586   3.504
 4225SOL    HW213008   1.962   2.696   3.437
 4226SOL     OW13009   2.475   3.227   2.588
 4226SOL    HW113010   2.426   3.140   2.597
 4226SOL    HW213011   2.452   3.270   2.501
 4227SOL     OW13012   3.155   3.090   3.285
 4227SOL    HW113013   3.192   3.017   3.227
 4227SOL    HW213014   3.207   3.095   3.370
 4228SOL     OW13015   2.671   1.866   2.364
 4228SOL    HW113016   2.711   1.957   2.355
 4228SOL    HW213017   2.571   1.874   2.370
 4229SOL     OW13018   2.059   2.838   3.126
 4229SOL    HW113019   2.148   2.793   3.112
 4229SOL    HW213020   1.986   2.773   3.107
 4230SOL     OW13021   3.387   2.861   2.052
 4230SOL    HW113022   3.324   2.785   2.065
 4230SOL    HW213023   3.435   2.879   2.138
 4231SOL     OW13024   3.049   3.654   3.478
 4231SOL    HW113025   3.073   3.714   3.402
 4231SOL    HW213026   3.056   3.559   3.448
 4232SOL     OW13027   3.328   3.279   2.815
 4232SOL    HW113028   3.269   3.285   2.895
 4232SOL    HW213029   3.313   3.191   2.769
 4233SOL     OW13030   3.529   3.576   2.434
 4233SOL    HW113031   3.488   3.553   2.346
 4233SOL    HW213032   3.511   3.502   2.499
 4234SOL     OW13033   3.143   2.207   2.806
 4234SOL    HW113034   3.057   2.157   2.793
 4234SOL    HW213035   3.205   2.153   2.862
 4235SOL     OW13036   3.438   3.524   2.169
 4235SOL    HW113037   3.527   3.570   2.172
 4235SOL    HW213038   3.417   3.500   2.074
 4236SOL     OW13039   3.256   2.331   3.536
 4236SOL    HW113040   3.236   2.374   3.624
 4236SOL    HW213041   3.334   2.269   3.545
 4237SOL     OW13042   2.835   2.752   3.434
 4237SOL    HW113043   2.881   2.668   3.405
 4237SOL    HW213044   2.779   2.786   3.359
 4238SOL     OW13045   2.853   2.272   3.104
 4238SOL    HW113046   2.776   2.306   3.158
 4238SOL    HW213047   2.819   2.221   3.025
 4239SOL     OW13048   2.903   2.563   2.291
 4239SOL    HW113049   2.929   2.559   2.387
 4239SOL    HW213050   2.818   2.512   2.277
 4240SOL     OW13051   1.938   2.673   2.651
 4240SOL    HW113052   2.037   2.661   2.660
 4240SOL    HW213053   1.914   2.768   2.672
 4241SOL     OW13054   1.992   3.683   3.433
 4241SOL    HW113055   1.982   3.668   3.532
 4241SOL    HW213056   1.906   3.719   3.397
 4242SOL     OW13057   2.727   2.210   2.057
 4242SOL    HW113058   2.786   2.273   2.008
 4242SOL    HW213059   2.746   2.116   2.028
 4243SOL     OW13060   3.581   2.447   3.693
 4243SOL    HW113061   3.555   2.536   3.657
 4243SOL    HW213062   3.579   2.379   3.620
 4244SOL     OW13063   3.224   3.006   2.407
 4244SOL    HW113064   3.307   2.977   2.359
 4244SOL    HW213065   3.175   3.073   2.351
 4245SOL     OW13066   2.412   2.058   2.747
 4245SOL    HW113067   2.407   2.053   2.847
 4245SOL    HW213068   2.414   2.154   2.718
 4246SOL     OW13069   2.870   3.318   2.339
 4246SOL    HW113070   2.824   3.390   2.287
 4246SOL    HW213071   2.866   3.338   2.437
 4247SOL     OW13072   2.213   3.663   2.715
 4247SOL    HW113073   2.263   3.577   2.721
 4247SOL    HW213074   2.278   3.740   2.712
 4248SOL     OW13075   3.657   2.928   2.735
 4248SOL    HW113076   3.595   2.913   2.659
 4248SOL    HW213077   3.605   2.939   2.820
 4249SOL     OW13078   3.089   3.412   3.368
 4249SOL    HW113079   3.095   3.335   3.432
 4249SOL    HW213080   3.037   3.386   3.288
 4250SOL     OW13081   2.183   2.805   2.104
 4250SOL    HW113082   2.265   2.844   2.062
 4250SOL    HW213083   2.156   2.723   2.055
 4251SOL     OW13084   3.320   2.597   2.590
 4251SOL    HW113085   3.315   2.532   2.665
 4251SOL    HW213086   3.400   2.656   2.603
 4252SOL     OW13087   2.323   3.128   3.589
 4252SOL    HW113088   2.273   3.129   3.503
 4252SOL    HW213089   2.260   3.110   3.665
 4253SOL     OW13090   2.973   3.638   2.099
 4253SOL    HW113091   2.913   3.576   2.149
 4253SOL    HW213092   3.004   3.594   2.014
 4254SOL     OW13093   2.064   2.147   3.360
 4254SOL    HW113094   1.984   2.207   3.347
 4254SOL    HW213095   2.054   2.098   3.446
 4255SOL     OW13096   3.494   3.239   1.943
 4255SOL    HW113097   3.462   3.333   1.933
 4255SOL    HW213098   3.418   3.176   1.931
 4256SOL     OW13099   2.326   3.605   2.185
 4256SOL    HW113100   2.359   3.644   2.271
 4256SOL    HW213101   2.402   3.598   2.120
 4257SOL     OW13102   3.262   1.969   2.288
 4257SOL    HW113103   3.238   1.932   2.198
 4257SOL    HW213104   3.361   1.985   2.292
 4258SOL     OW13105   2.111   3.647   3.103
 4258SOL    HW113106   2.168   3.582   3.153
 4258SOL    HW213107   2.095   3.614   3.010
 4259SOL     OW13108   2.802   3.560   2.766
 4259SOL    HW113109   2.882   3.503   2.787
 4259SOL    HW213110   2.753   3.520   2.689
 4260SOL     OW13111   3.409   2.084   3.591
 4260SOL    HW113112   3.404   2.121   3.683
 4260SOL    HW213113   3.337   2.015   3.579
 4261SOL     OW13114   2.476   1.984   1.979
 4261SOL    HW113115   2.574   1.962   1.986
 4261SOL    HW213116   2.445   1.967   1.886
 4262SOL     OW13117   2.643   2.126   3.611
 4262SOL    HW113118   2.710   2.065   3.654
 4262SOL    HW213119   2.570   2.145   3.676
 4263SOL     OW13120   2.750   3.376   3.057
 4263SOL    HW113121   2.727   3.351   2.963
 4263SOL    HW213122   2.811   3.307   3.096
 4264SOL     OW13123   3.213   2.452   3.295
 4264SOL    HW113124   3.241   2.409   3.380
 4264SOL    HW213125   3.238   2.548   3.296
 4265SOL     OW13126   2.665   3.264   2.786
 4265SOL    HW113127   2.755   3.278   2.744
 4265SOL    HW213128   2.594   3.266   2.715
 4266SOL     OW13129   2.784   2.365   2.761
 4266SOL    HW113130   2.759   2.356   2.665
 4266SOL    HW213131   2.832   2.283   2.792
 4267SOL     OW13132   2.401   1.926   2.374
 4267SOL    HW113133   2.320   1.927   2.432
 4267SOL    HW213134   2.404   2.009   2.319
 4268SOL     OW13135   3.296   3.050   1.903
 4268SOL    HW113136   3.328   2.974   1.960
 4268SOL    HW213137   3.204   3.077   1.933
 4269SOL     OW13138   2.159   1.897   2.033
 4269SOL    HW113139   2.208   1.981   2.012
 4269SOL    HW213140   2.221   1.832   2.078
 4270SOL     OW13141   2.797   2.098   2.342
 4270SOL    HW113142   2.749   2.139   2.264
 4270SOL    HW213143   2.896   2.096   2.323
 4271SOL     OW13144   2.938   2.545   3.326
 4271SOL    HW113145   2.858   2.484   3.329
 4271SOL    HW213146   3.019   2.492   3.302
 4272SOL     OW13147   3.089   3.432   2.655
 4272SOL    HW113148   3.110   3.506   2.590
 4272SOL    HW213149   3.157   3.432   2.728
 4273SOL     OW13150   2.321   3.014   2.603
 4273SOL    HW113151   2.250   2.987   2.668
 4273SOL    HW213152   2.295   2.986   2.510
 4274SOL     OW13153   3.133   3.659   2.453
 4274SOL    HW113154   3.177   3.723   2.389
 4274SOL    HW213155   3.083   3.711   2.523
 4275SOL     OW13156   2.894   2.411   1.878
 4275SOL    HW113157   2.853   2.493   1.839
 4275SOL    HW213158   2.958   2.437   1.951
 4276SOL     OW13159   1.940   2.418   3.248
 4276SOL    HW113160   2.032   2.417   3.207
 4276SOL    HW213161   1.934   2.492   3.315
 4277SOL     OW13162   2.423   2.084   3.009
 4277SOL    HW113163   2.461   2.000   3.046
 4277SOL    HW213164   2.335   2.103   3.053
 4278SOL     OW13165   2.728   2.316   2.504
 4278SOL    HW113166   2.696   2.388   2.442
 4278SOL    HW213167   2.752   2.235   2.451
 4279SOL     OW13168   2.879   1.901   2.615
 4279SOL    HW113169   2.807   1.906   2.546
 4279SOL    HW213170   2.855   1.832   2.684
 4280SOL     OW13171   3.291   3.035   2.729
 4280SOL    HW113172   3.236   2.951   2.722
 4280SOL    HW213173   3.317   3.064   2.637
 4281SOL     OW13174   3.328   2.452   2.854
 4281SOL    HW113175   3.298   2.357   2.861
 4281SOL    HW213176   3.401   2.468   2.920
 4282SOL     OW13177   3.719   2.695   2.239
 4282SOL    HW113178   3.761   2.631   2.303
 4282SOL    HW213179   3.681   2.644   2.161
 4283SOL     OW13180   2.350   3.247   2.036
 4283SOL    HW113181   2.263   3.232   2.083
 4283SOL    HW213182   2.333   3.273   1.941
 4284SOL     OW13183   3.526   3.142   2.519
 4284SOL    HW113184   3.625   3.150   2.533
 4284SOL    HW213185   3.481   3.226   2.550
 4285SOL     OW13186   3.252   2.437   1.940
 4285SOL    HW113187   3.198   2.416   2.021
 4285SOL    HW213188   3.343   2.396   1.949
 4286SOL     OW13189   3.616   3.085   3.450
 4286SOL    HW113190   3.707   3.046   3.437
 4286SOL    HW213191   3.624   3.181   3.474
 4287SOL     OW13192   2.926   3.209   3.202
 4287SOL    HW113193   2.846   3.186   3.257
 4287SOL    HW213194   3.009   3.183   3.251
 4288SOL     OW13195   3.454   3.491   3.487
 4288SOL    HW113196   3.481   3.525   3.397
 4288SOL    HW213197   3.533   3.453   3.533
 4289SOL     OW13198   2.973   3.057   2.962
 4289SOL    HW113199   2.933   3.101   3.043
 4289SOL    HW213200   2.932   3.094   2.879
 4290SOL     OW13201   3.500   2.961   2.941
 4290SOL    HW113202   3.505   3.042   3.000
 4290SOL    HW213203   3.414   2.963   2.890
 4291SOL     OW13204   2.777   1.951   3.264
 4291SOL    HW113205   2.802   1.931   3.169
 4291SOL    HW213206   2.849   2.007   3.306
 4292SOL     OW13207   2.842   2.978   3.581
 4292SOL    HW113208   2.743   2.984   3.591
 4292SOL    HW213209   2.865   2.898   3.525
 4293SOL     OW13210   2.567   2.912   2.230
 4293SOL    HW113211   2.553   2.919   2.329
 4293SOL    HW213212   2.651   2.861   2.212
 4294SOL     OW13213   2.272   2.675   3.113
 4294SOL    HW113214   2.358   2.687   3.163
 4294SOL    HW213215   2.230   2.588   3.140
 4295SOL     OW13216   3.136   2.248   3.124
 4295SOL    HW113217   3.157   2.322   3.188
 4295SOL    HW213218   3.047   2.265   3.081
 4296SOL     OW13219   1.926   3.426   3.193
 4296SOL    HW113220   1.880   3.508   3.159
 4296SOL    HW213221   2.024   3.445   3.202
 4297SOL     OW13222   2.229   2.962   2.363
 4297SOL    HW113223   2.222   3.045   2.307
 4297SOL    HW213224   2.233   2.882   2.303
 4298SOL     OW13225   3.114   3.210   2.250
 4298SOL    HW113226   3.164   3.287   2.290
 4298SOL    HW213227   3.019   3.212   2.282
 4299SOL     OW13228   3.134   3.307   3.004
 4299SOL    HW113229   3.181   3.320   3.091
 4299SOL    HW213230   3.068   3.233   3.013
 4300SOL     OW13231   3.444   2.501   2.334
 4300SOL    HW113232   3.413   2.562   2.407
 4300SOL    HW213233   3.494   2.553   2.265
 4301SOL     OW13234   2.216   3.372   3.191
 4301SOL    HW113235   2.195   3.328   3.104
 4301SOL    HW213236   2.313   3.398   3.194
 4302SOL     OW13237   3.449   2.641   3.532
 4302SOL    HW113238   3.357   2.679   3.527
 4302SOL    HW213239   3.509   2.688   3.467
 4303SOL     OW13240   2.875   1.967   3.632
 4303SOL    HW113241   2.881   2.052   3.580
 4303SOL    HW213242   2.907   1.891   3.575
 4304SOL     OW13243   2.366   1.912   3.602
 4304SOL    HW113244   2.324   1.855   3.532
 4304SOL    HW213245   2.300   1.981   3.634
 4305SOL     OW13246   2.435   2.732   2.891
 4305SOL    HW113247   2.479   2.821   2.882
 4305SOL    HW213248   2.372   2.732   2.968
 4306SOL     OW13249   3.222   2.724   2.907
 4306SOL    HW113250   3.147   2.724   2.841
 4306SOL    HW213251   3.259   2.632   2.916
 4307SOL     OW13252   3.071   2.387   2.137
 4307SOL    HW113253   3.084   2.303   2.191
 4307SOL    HW213254   3.042   2.461   2.197
 4308SOL     OW13255   2.169   2.075   3.093
 4308SOL    HW113256   2.146   2.112   3.183
 4308SOL    HW213257   2.139   1.980   3.087
 4309SOL     OW13258   1.899   3.172   3.144
 4309SOL    HW113259   1.952   3.123   3.212
 4309SOL    HW213260   1.921   3.270   3.149
 4310SOL     OW13261   2.594   2.496   2.926
 4310SOL    HW113262   2.653   2.470   2.850
 4310SOL    HW213263   2.566   2.592   2.915
 4311SOL     OW13264   3.590   2.797   3.716
 4311SOL    HW113265   3.544   2.790   3.627
 4311SOL    HW213266   3.528   2.841   3.782
 4312SOL     OW13267   2.169   1.925   2.480
 4312SOL    HW113268   2.158   2.019   2.513
 4312SOL    HW213269   2.164   1.862   2.557
 4313SOL     OW13270   3.484   2.229   2.236
 4313SOL    HW113271   3.486   2.153   2.300
 4313SOL    HW213272   3.436   2.306   2.276
 4314SOL     OW13273   2.885   2.628   2.828
 4314SOL    HW113274   2.900   2.649   2.924
 4314SOL    HW213275   2.855   2.533   2.819
 4315SOL     OW13276   2.842   3.435   3.562
 4315SOL    HW113277   2.822   3.479   3.474
 4315SOL    HW213278   2.881   3.344   3.546
 4316SOL     OW13279   3.721   3.380   3.467
 4316SOL    HW113280   3.735   3.407   3.372
 4316SOL    HW213281   3.804   3.402   3.520
 4317SOL     OW13282   2.212   2.760   3.666
 4317SOL    HW113283   2.288   2.804   3.714
 4317SOL    HW213284   2.247   2.713   3.584
 4318SOL     OW13285   3.402   2.136   1.987
 4318SOL    HW113286   3.341   2.061   2.010
 4318SOL    HW213287   3.424   2.188   2.070
 4319SOL     OW13288   3.165   2.700   1.904
 4319SOL    HW113289   3.199   2.607   1.919
 4319SOL    HW213290   3.183   2.727   1.809
 4320SOL     OW13291   2.930   3.195   2.711
 4320SOL    HW113292   2.937   3.111   2.656
 4320SOL    HW213293   2.992   3.264   2.675
 4321SOL     OW13294   2.181   2.672   2.811
 4321SOL    HW113295   2.274   2.708   2.816
 4321SOL    HW213296   2.175   2.587   2.863
 4322SOL     OW13297   3.000   2.242   3.540
 4322SOL    HW113298   2.955   2.305   3.604
 4322SOL    HW213299   3.093   2.273   3.523
 4323SOL     OW13300   3.022   2.069   3.339
 4323SOL    HW113301   3.022   2.133   3.416
 4323SOL    HW213302   3.050   2.117   3.256
 4324SOL     OW13303   1.870   3.188   2.062
 4324SOL    HW113304   1.777   3.209   2.031
 4324SOL    HW213305   1.880   3.089   2.075
 4325SOL     OW13306   1.950   3.663   2.789
 4325SOL    HW113307   1.908   3.577   2.762
 4325SOL    HW213308   2.044   3.666   2.755
 4326SOL     OW13309   2.366   3.430   2.772
 4326SOL    HW113310   2.432   3.504   2.781
 4326SOL    HW213311   2.410   3.351   2.730
 4327SOL     OW13312   2.864   2.658   3.100
 4327SOL    HW113313   2.905   2.626   3.186
 4327SOL    HW213314   2.768   2.631   3.097
 4328SOL     OW13315   1.902   2.406   2.976
 4328SOL    HW113316   1.987   2.373   2.935
 4328SOL    HW213317   1.915   2.421   3.074
 4329SOL     OW13318   2.051   2.382   3.584
 4329SOL    HW113319   2.110   2.342   3.514
 4329SOL    HW213320   1.993   2.453   3.543
 4330SOL     OW13321   3.231   2.812   3.522
 4330SOL    HW113322   3.270   2.901   3.542
 4330SOL    HW213323   3.241   2.792   3.425
 4331SOL     OW13324   3.519   2.466   3.068
 4331SOL    HW113325   3.481   2.397   3.130
 4331SOL    HW213326   3.601   2.430   3.024
 4332SOL     OW13327   2.114   3.426   3.606
 4332SOL    HW113328   2.084   3.483   3.682
 4332SOL    HW213329   2.107   3.329   3.632
 4333SOL     OW13330   2.792   3.540   3.327
 4333SOL    HW113331   2.768   3.522   3.232
 4333SOL    HW213332   2.822   3.634   3.337
 4334SOL     OW13333   2.021   2.999   3.328
 4334SOL    HW113334   2.043   2.938   3.404
 4334SOL    HW213335   2.031   2.950   3.242
 4335SOL     OW13336   3.209   2.921   3.096
 4335SOL    HW113337   3.233   2.858   3.022
 4335SOL    HW213338   3.119   2.961   3.078
 4336SOL     OW13339   3.164   2.717   2.171
 4336SOL    HW113340   3.078   2.686   2.213
 4336SOL    HW213341   3.160   2.703   2.072
 4337SOL     OW13342   3.621   3.609   3.016
 4337SOL    HW113343   3.682   3.639   2.943
 4337SOL    HW213344   3.583   3.520   2.994
 4338SOL     OW13345   3.114   3.593   2.990
 4338SOL    HW113346   3.198   3.598   2.936
 4338SOL    HW213347   3.091   3.497   3.008
 4339SOL     OW13348   1.945   3.120   2.884
 4339SOL    HW113349   1.940   3.119   2.984
 4339SOL    HW213350   1.862   3.079   2.846
 4340SOL     OW13351   2.550   3.524   3.578
 4340SOL    HW113352   2.494   3.605   3.587
 4340SOL    HW213353   2.602   3.528   3.492
 4341SOL     OW13354   3.588   1.997   2.385
 4341SOL    HW113355   3.661   1.980   2.318
 4341SOL    HW213356   3.557   1.910   2.423
 4342SOL     OW13357   3.250   3.435   2.339
 4342SOL    HW113358   3.317   3.447   2.265
 4342SOL    HW213359   3.210   3.524   2.362
 4343SOL     OW13360   1.992   3.656   3.713
 4343SOL    HW113361   1.951   3.582   3.766
 4343SOL    HW213362   2.056   3.707   3.771
 4344SOL     OW13363   3.142   2.789   2.534
 4344SOL    HW113364   3.202   2.708   2.536
 4344SOL    HW213365   3.182   2.858   2.474
 4345SOL     OW13366   2.692   3.135   3.284
 4345SOL    HW113367   2.687   3.168   3.379
 4345SOL    HW213368   2.606   3.154   3.238
 4346SOL     OW13369   2.534   3.478   2.016
 4346SOL    HW113370   2.543   3.488   1.917
 4346SOL    HW213371   2.494   3.389   2.037
 4347SOL     OW13372   3.512   3.582   3.256
 4347SOL    HW113373   3.565   3.592   3.172
 4347SOL    HW213374   3.485   3.672   3.290
 4348SOL     OW13375   3.703   2.037   2.825
 4348SOL    HW113376   3.742   1.952   2.789
 4348SOL    HW213377   3.605   2.039   2.806
 4349SOL     OW13378   2.125   2.188   2.582
 4349SOL    HW113379   2.046   2.239   2.548
 4349SOL    HW213380   2.116   2.173   2.680
 4350SOL     OW13381   3.056   3.474   1.893
 4350SOL    HW113382   3.062   3.381   1.930
 4350SOL    HW213383   2.997   3.474   1.813
 4351SOL     OW13384   2.684   2.864   3.234
 4351SOL    HW113385   2.724   2.863   3.142
 4351SOL    HW213386   2.694   2.956   3.274
 4352SOL     OW13387   2.778   2.772   2.153
 4352SOL    HW113388   2.841   2.810   2.085
 4352SOL    HW213389   2.818   2.689   2.192
 4353SOL     OW13390   3.366   3.469   1.906
 4353SOL    HW113391   3.274   3.506   1.913
 4353SOL    HW213392   3.404   3.489   1.816
 4354SOL     OW13393   2.234   3.150   3.352
 4354SOL    HW113394   2.221   3.243   3.318
 4354SOL    HW213395   2.150   3.098   3.339
 4355SOL     OW13396   3.476   3.154   3.151
 4355SOL    HW113397   3.536   3.157   3.231
 4355SOL    HW213398   3.401   3.218   3.164
 4356SOL     OW13399   2.901   2.960   2.558
 4356SOL    HW113400   2.831   2.913   2.612
 4356SOL    HW213401   2.960   2.892   2.515
 4357SOL     OW13402   2.876   2.098   2.833
 4357SOL    HW113403   2.868   2.062   2.740
 4357SOL    HW213404   2.874   2.022   2.898
 4358SOL     OW13405   2.452   3.349   2.353
 4358SOL    HW113406   2.494   3.291   2.283
 4358SOL    HW213407   2.408   3.428   2.309
 4359SOL     OW13408   3.571   2.247   3.243
 4359SOL    HW113409   3.644   2.316   3.247
 4359SOL    HW213410   3.599   2.172   3.184
 4360SOL     OW13411   2.117   3.210   2.152
 4360SOL    HW113412   2.021   3.211   2.125
 4360SOL    HW213413   2.129   3.263   2.236
 4361SOL     OW13414   1.967   2.875   3.588
 4361SOL    HW113415   1.890   2.842   3.642
 4361SOL    HW213416   2.052   2.845   3.630
 4362SOL     OW13417   2.534   2.065   3.351
 4362SOL    HW113418   2.624   2.049   3.311
 4362SOL    HW213419   2.542   2.070   3.450
 4363SOL     OW13420   1.937   2.207   1.895
 4363SOL    HW113421   1.845   2.179   1.866
 4363SOL    HW213422   1.968   2.284   1.839
 4364SOL     OW13423   3.302   2.718   3.260
 4364SOL    HW113424   3.245   2.770   3.197
 4364SOL    HW213425   3.398   2.730   3.236
 4365SOL     OW13426   1.934   2.028   2.180
 4365SOL    HW113427   1.917   2.111   2.126
 4365SOL    HW213428   2.024   1.991   2.158
 4366SOL     OW13429   3.045   3.197   1.981
 4366SOL    HW113430   2.946   3.186   1.983
 4366SOL    HW213431   3.079   3.212   2.074
 4367SOL     OW13432   2.475   2.704   3.293
 4367SOL    HW113433   2.531   2.785   3.276
 4367SOL    HW213434   2.534   2.624   3.296
 4368SOL     OW13435   3.355   3.629   2.821
 4368SOL    HW113436   3.388   3.693   2.752
 4368SOL    HW213437   3.421   3.623   2.896
 4369SOL     OW13438   3.312   3.082   3.495
 4369SOL    HW113439   3.303   3.072   3.594
 4369SOL    HW213440   3.408   3.075   3.469
 4370SOL     OW13441   2.252   3.603   3.422
 4370SOL    HW113442   2.161   3.644   3.420
 4370SOL    HW213443   2.245   3.509   3.454
 4371SOL     OW13444   3.536   2.745   3.116
 4371SOL    HW113445   3.509   2.656   3.079
 4371SOL    HW213446   3.537   2.813   3.043
 4372SOL     OW13447   3.087   2.187   2.311
 4372SOL    HW113448   3.152   2.113   2.300
 4372SOL    HW213449   3.107   2.237   2.395
 4373SOL     OW13450   3.639   2.204   3.504
 4373SOL    HW113451   3.622   2.235   3.410
 4373SOL    HW213452   3.555   2.167   3.542
 4374SOL     OW13453   3.592   2.796   3.379
 4374SOL    HW113454   3.630   2.887   3.394
 4374SOL    HW213455   3.584   2.779   3.280
 4375SOL     OW13456   2.721   3.236   1.878
 4375SOL    HW113457   2.675   3.251   1.966
 4375SOL    HW213458   2.765   3.321   1.848
 4376SOL     OW13459   2.523   3.652   2.815
 4376SOL    HW113460   2.477   3.740   2.802
 4376SOL    HW213461   2.622   3.664   2.808
 4377SOL     OW13462   2.721   2.818   2.723
 4377SOL    HW113463   2.775   2.749   2.771
 4377SOL    HW213464   2.689   2.887   2.789
 4378SOL     OW13465   2.945   2.846   1.949
 4378SOL    HW113466   2.922   2.899   1.867
 4378SOL    HW213467   3.026   2.790   1.930
 4379SOL     OW13468   3.723   3.431   2.713
 4379SOL    HW113469   3.652   3.419   2.643
 4379SOL    HW213470   3.724   3.352   2.773
 4380SOL     OW13471   2.083   3.176   3.706
 4380SOL    HW113472   2.018   3.103   3.685
 4380SOL    HW213473   2.087   3.190   3.804
 4381SOL     OW13474   1.941   3.102   2.515
 4381SOL    HW113475   1.940   3.055   2.603
 4381SOL    HW213476   2.023   3.074   2.464
 4382SOL     OW13477   2.534   3.253   3.486
 4382SOL    HW113478   2.456   3.203   3.524
 4382SOL    HW213479   2.531   3.348   3.517
 4383SOL     OW13480   3.686   2.054   3.089
 4383SOL    HW113481   3.682   1.964   3.133
 4383SOL    HW213482   3.689   2.043   2.990
 4384SOL     OW13483   3.567   3.349   2.966
 4384SOL    HW113484   3.474   3.324   2.939
 4384SOL    HW213485   3.593   3.299   3.048
 4385SOL     OW13486   2.674   3.448   2.549
 4385SOL    HW113487   2.706   3.458   2.455
 4385SOL    HW213488   2.595   3.386   2.551
 4386SOL     OW13489   3.286   2.076   2.974
 4386SOL    HW113490   3.338   2.011   3.029
 4386SOL    HW213491   3.237   2.139   3.035
 4387SOL     OW13492   2.863   1.896   3.016
 4387SOL    HW113493   2.800   1.824   2.985
 4387SOL    HW213494   2.956   1.860   3.016
 4388SOL     OW13495   2.632   3.192   2.163
 4388SOL    HW113496   2.586   3.105   2.180
 4388SOL    HW213497   2.723   3.189   2.204
 4389SOL     OW13498   2.480   3.429   3.146
 4389SOL    HW113499   2.475   3.511   3.203
 4389SOL    HW213500   2.569   3.426   3.101
 4390SOL     OW13501   3.214   1.914   2.030
 4390SOL    HW113502   3.249   1.873   1.946
 4390SOL    HW213503   3.124   1.876   2.050
 4391SOL     OW13504   3.162   2.315   2.553
 4391SOL    HW113505   3.103   2.395   2.557
 4391SOL    HW213506   3.177   2.280   2.646
 4392SOL     OW13507   3.455   2.083   2.744
 4392SOL    HW113508   3.371   2.082   2.798
 4392SOL    HW213509   3.457   2.166   2.688
 4393SOL     OW13510   1.901   2.939   2.162
 4393SOL    HW113511   2.000   2.928   2.153
 4393SOL    HW213512   1.861   2.853   2.194
 4394SOL     OW13513   2.737   3.508   2.199
 4394SOL    HW113514   2.660   3.473   2.145
 4394SOL    HW213515   2.705   3.579   2.261
 4395SOL     OW13516   2.092   2.490   3.837
 4395SOL    HW113517   1.999   2.488   3.874
 4395SOL    HW213518   2.093   2.451   3.745
 4396SOL     OW13519   1.881   2.230   4.371
 4396SOL    HW113520   1.799   2.273   4.410
 4396SOL    HW213521   1.853   2.157   4.308
 4397SOL     OW13522   2.431   3.137   4.889
 4397SOL    HW113523   2.338   3.130   4.852
 4397SOL    HW213524   2.442   3.226   4.933
 4398SOL     OW13525   3.417   3.373   4.427
 4398SOL    HW113526   3.360   3.357   4.508
 4398SOL    HW213527   3.358   3.383   4.347
 4399SOL     OW13528   2.997   2.565   4.441
 4399SOL    HW113529   3.054   2.643   4.416
 4399SOL    HW213530   2.937   2.591   4.517
 4400SOL     OW13531   3.617   2.469   3.955
 4400SOL    HW113532   3.605   2.456   3.856
 4400SOL    HW213533   3.587   2.388   4.004
 4401SOL     OW13534   2.712   2.660   5.547
 4401SOL    HW113535   2.708   2.736   5.612
 4401SOL    HW213536   2.734   2.696   5.456
 4402SOL     OW13537   2.547   2.874   4.389
 4402SOL    HW113538   2.616   2.858   4.459
 4402SOL    HW213539   2.474   2.931   4.427
 4403SOL     OW13540   2.548   3.023   5.527
 4403SOL    HW113541   2.608   3.102   5.541
 4403SOL    HW213542   2.462   3.054   5.486
 4404SOL     OW13543   2.197   3.297   4.785
 4404SOL    HW113544   2.119   3.266   4.732
 4404SOL    HW213545   2.255   3.355   4.728
 4405SOL     OW13546   3.322   3.367   5.063
 4405SOL    HW113547   3.346   3.461   5.089
 4405SOL    HW213548   3.306   3.313   5.145
 4406SOL     OW13549   3.465   2.309   4.461
 4406SOL    HW113550   3.391   2.355   4.411
 4406SOL    HW213551   3.516   2.377   4.514
 4407SOL     OW13552   2.093   3.575   4.207
 4407SOL    HW113553   2.127   3.652   4.261
 4407SOL    HW213554   2.137   3.575   4.117
 4408SOL     OW13555   2.989   3.203   5.414
 4408SOL    HW113556   3.036   3.203   5.502
 4408SOL    HW213557   2.941   3.116   5.403
 4409SOL     OW13558   2.092   3.296   4.262
 4409SOL    HW113559   2.066   3.392   4.262
 4409SOL    HW213560   2.021   3.242   4.307
 4410SOL     OW13561   2.482   3.648   5.163
 4410SOL    HW113562   2.390   3.631   5.198
 4410SOL    HW213563   2.510   3.740   5.189
 4411SOL     OW13564   2.468   2.826   3.847
 4411SOL    HW113565   2.475   2.910   3.793
 4411SOL    HW213566   2.514   2.839   3.935
 4412SOL     OW13567   3.456   1.976   5.204
 4412SOL    HW113568   3.438   2.043   5.132
 4412SOL    HW213569   3.453   2.022   5.293
 4413SOL     OW13570   1.984   2.505   4.287
 4413SOL    HW113571   1.939   2.417   4.304
 4413SOL    HW213572   1.983   2.559   4.371
 4414SOL     OW13573   3.704   3.629   4.083
 4414SOL    HW113574   3.758   3.600   4.163
 4414SOL    HW213575   3.734   3.719   4.054
 4415SOL     OW13576   1.889   3.458   3.841
 4415SOL    HW113577   1.870   3.362   3.862
 4415SOL    HW213578   1.856   3.516   3.916
 4416SOL     OW13579   3.551   2.784   4.336
 4416SOL    HW113580   3.646   2.755   4.344
 4416SOL    HW213581   3.543   2.849   4.261
 4417SOL     OW13582   3.503   2.970   4.156
 4417SOL    HW113583   3.589   2.972   4.104
 4417SOL    HW213584   3.517   3.017   4.244
 4418SOL     OW13585   2.475   3.227   4.450
 4418SOL    HW113586   2.426   3.140   4.459
 4418SOL    HW213587   2.452   3.270   4.363
 4419SOL     OW13588   3.155   3.090   5.147
 4419SOL    HW113589   3.192   3.017   5.089
 4419SOL    HW213590   3.207   3.095   5.232
 4420SOL     OW13591   2.671   1.866   4.226
 4420SOL    HW113592   2.711   1.957   4.217
 4420SOL    HW213593   2.571   1.874   4.232
 4421SOL     OW13594   3.387   2.861   3.914
 4421SOL    HW113595   3.324   2.785   3.927
 4421SOL    HW213596   3.435   2.879   4.000
 4422SOL     OW13597   3.049   3.654   5.340
 4422SOL    HW113598   3.073   3.714   5.264
 4422SOL    HW213599   3.056   3.559   5.310
 4423SOL     OW13600   3.328   3.279   4.677
 4423SOL    HW113601   3.269   3.285   4.757
 4423SOL    HW213602   3.313   3.191   4.631
 4424SOL     OW13603   3.529   3.576   4.296
 4424SOL    HW113604   3.488   3.553   4.208
 4424SOL    HW213605   3.511   3.502   4.361
 4425SOL     OW13606   3.143   2.207   4.668
 4425SOL    HW113607   3.057   2.157   4.655
 4425SOL    HW213608   3.205   2.153   4.724
 4426SOL     OW13609   3.438   3.524   4.031
 4426SOL    HW113610   3.527   3.570   4.034
 4426SOL    HW213611   3.417   3.500   3.936
 4427SOL     OW13612   3.256   2.331   5.398
 4427SOL    HW113613   3.236   2.374   5.486
 4427SOL    HW213614   3.334   2.269   5.407
 4428SOL     OW13615   2.903   2.563   4.153
 4428SOL    HW113616   2.929   2.559   4.249
 4428SOL    HW213617   2.818   2.512   4.139
 4429SOL     OW13618   1.938   2.673   4.513
 4429SOL    HW113619   2.037   2.661   4.522
 4429SOL    HW213620   1.914   2.768   4.534
 4430SOL     OW13621   1.992   3.683   5.295
 4430SOL    HW113622   1.982   3.668   5.394
 4430SOL    HW213623   1.906   3.719   5.259
 4431SOL     OW13624   2.727   2.210   3.919
 4431SOL    HW113625   2.786   2.273   3.870
 4431SOL    HW213626   2.746   2.116   3.890
 4432SOL     OW13627   3.581   2.447   5.555
 4432SOL    HW113628   3.555   2.536   5.519
 4432SOL    HW213629   3.579   2.379   5.482
 4433SOL     OW13630   3.224   3.006   4.269
 4433SOL    HW113631   3.307   2.977   4.221
 4433SOL    HW213632   3.175   3.073   4.213
 4434SOL     OW13633   2.412   2.058   4.609
 4434SOL    HW113634   2.407   2.053   4.709
 4434SOL    HW213635   2.414   2.154   4.580
 4435SOL     OW13636   2.870   3.318   4.201
 4435SOL    HW113637   2.824   3.390   4.149
 4435SOL    HW213638   2.866   3.338   4.299
 4436SOL     OW13639   2.213   3.663   4.577
 4436SOL    HW113640   2.263   3.577   4.583
 4436SOL    HW213641   2.278   3.740   4.574
 4437SOL     OW13642   3.657   2.928   4.597
 4437SOL    HW113643   3.595   2.913   4.521
 4437SOL    HW213644   3.605   2.939   4.682
 4438SOL     OW13645   3.089   3.412   5.230
 4438SOL    HW113646   3.095   3.335   5.294
 4438SOL    HW213647   3.037   3.386   5.150
 4439SOL     OW13648   2.183   2.805   3.966
 4439SOL    HW113649   2.265   2.844   3.924
 4439SOL    HW213650   2.156   2.723   3.917
 4440SOL     OW13651   3.320   2.597   4.452
 4440SOL    HW113652   3.315   2.532   4.527
 4440SOL    HW213653   3.400   2.656   4.465
 4441SOL     OW13654   2.323   3.128   5.451
 4441SOL    HW113655   2.273   3.129   5.365
 4441SOL    HW213656   2.260   3.110   5.527
 4442SOL     OW13657   2.973   3.638   3.961
 4442SOL    HW113658   2.913   3.576   4.011
 4442SOL    HW213659   3.004   3.594   3.876
 4443SOL     OW13660   3.494   3.239   3.805
 4443SOL    HW113661   3.462   3.333   3.795
 4443SOL    HW213662   3.418   3.176   3.793
 4444SOL     OW13663   2.326   3.605   4.047
 4444SOL    HW113664   2.359   3.644   4.133
 4444SOL    HW213665   2.402   3.598   3.982
 4445SOL     OW13666   3.262   1.969   4.150
 4445SOL    HW113667   3.238   1.932   4.060
 4445SOL    HW213668   3.361   1.985   4.154
 4446SOL     OW13669   2.111   3.647   4.965
 4446SOL    HW113670   2.168   3.582   5.015
 4446SOL    HW213671   2.095   3.614   4.872
 4447SOL     OW13672   2.802   3.560   4.628
 4447SOL    HW113673   2.882   3.503   4.649
 4447SOL    HW213674   2.753   3.520   4.551
 4448SOL     OW13675   3.409   2.084   5.453
 4448SOL    HW113676   3.404   2.121   5.545
 4448SOL    HW213677   3.337   2.015   5.441
 4449SOL     OW13678   2.476   1.984   3.841
 4449SOL    HW113679   2.574   1.962   3.848
 4449SOL    HW213680   2.445   1.967   3.748
 4450SOL     OW13681   2.643   2.126   5.473
 4450SOL    HW113682   2.710   2.065   5.516
 4450SOL    HW213683   2.570   2.145   5.538
 4451SOL     OW13684   2.750   3.376   4.919
 4451SOL    HW113685   2.727   3.351   4.825
 4451SOL    HW213686   2.811   3.307   4.958
 4452SOL     OW13687   3.213   2.452   5.157
 4452SOL    HW113688   3.241   2.409   5.242
 4452SOL    HW213689   3.238   2.548   5.158
 4453SOL     OW13690   2.665   3.264   4.648
 4453SOL    HW113691   2.755   3.278   4.606
 4453SOL    HW213692   2.594   3.266   4.577
 4454SOL     OW13693   2.784   2.365   4.623
 4454SOL    HW113694   2.759   2.356   4.527
 4454SOL    HW213695   2.832   2.283   4.654
 4455SOL     OW13696   2.401   1.926   4.236
 4455SOL    HW113697   2.320   1.927   4.294
 4455SOL    HW213698   2.404   2.009   4.181
 4456SOL     OW13699   3.296   3.050   3.765
 4456SOL    HW113700   3.328   2.974   3.822
 4456SOL    HW213701   3.204   3.077   3.795
 4457SOL     OW13702   2.159   1.897   3.895
 4457SOL    HW113703   2.208   1.981   3.874
 4457SOL    HW213704   2.221   1.832   3.940
 4458SOL     OW13705   2.797   2.098   4.204
 4458SOL    HW113706   2.749   2.139   4.126
 4458SOL    HW213707   2.896   2.096   4.185
 4459SOL     OW13708   3.089   3.432   4.517
 4459SOL    HW113709   3.110   3.506   4.452
 4459SOL    HW213710   3.157   3.432   4.590
 4460SOL     OW13711   2.321   3.014   4.465
 4460SOL    HW113712   2.250   2.987   4.530
 4460SOL    HW213713   2.295   2.986   4.372
 4461SOL     OW13714   3.133   3.659   4.315
 4461SOL    HW113715   3.177   3.723   4.251
 4461SOL    HW213716   3.083   3.711   4.385
 4462SOL     OW13717   2.894   2.411   3.740
 4462SOL    HW113718   2.853   2.493   3.701
 4462SOL    HW213719   2.958   2.437   3.813
 4463SOL     OW13720   2.728   2.316   4.366
 4463SOL    HW113721   2.696   2.388   4.304
 4463SOL    HW213722   2.752   2.235   4.313
 4464SOL     OW13723   2.879   1.901   4.477
 4464SOL    HW113724   2.807   1.906   4.408
 4464SOL    HW213725   2.855   1.832   4.546
 4465SOL     OW13726   3.291   3.035   4.591
 4465SOL    HW113727   3.236   2.951   4.584
 4465SOL    HW213728   3.317   3.064   4.499
 4466SOL     OW13729   3.328   2.452   4.716
 4466SOL    HW113730   3.298   2.357   4.723
 4466SOL    HW213731   3.401   2.468   4.782
 4467SOL     OW13732   3.719   2.695   4.101
 4467SOL    HW113733   3.761   2.631   4.165
 4467SOL    HW213734   3.681   2.644   4.023
 4468SOL     OW13735   2.350   3.247   3.898
 4468SOL    HW113736   2.263   3.232   3.945
 4468SOL    HW213737   2.333   3.273   3.803
 4469SOL     OW13738   3.526   3.142   4.381
 4469SOL    HW113739   3.625   3.150   4.395
 4469SOL    HW213740   3.481   3.226   4.412
 4470SOL     OW13741   3.252   2.437   3.802
 4470SOL    HW113742   3.198   2.416   3.883
 4470SOL    HW213743   3.343   2.396   3.811
 4471SOL     OW13744   3.616   3.085   5.312
 4471SOL    HW113745   3.707   3.046   5.299
 4471SOL    HW213746   3.624   3.181   5.336
 4472SOL     OW13747   2.926   3.209   5.064
 4472SOL    HW113748   2.846   3.186   5.119
 4472SOL    HW213749   3.009   3.183   5.113
 4473SOL     OW13750   3.454   3.491   5.349
 4473SOL    HW113751   3.481   3.525   5.259
 4473SOL    HW213752   3.533   3.453   5.395
 4474SOL     OW13753   2.973   3.057   4.824
 4474SOL    HW113754   2.933   3.101   4.905
 4474SOL    HW213755   2.932   3.094   4.741
 4475SOL     OW13756   3.500   2.961   4.803
 4475SOL    HW113757   3.505   3.042   4.862
 4475SOL    HW213758   3.414   2.963   4.752
 4476SOL     OW13759   2.842   2.978   5.443
 4476SOL    HW113760   2.743   2.984   5.453
 4476SOL    HW213761   2.865   2.898   5.387
 4477SOL     OW13762   2.567   2.912   4.092
 4477SOL    HW113763   2.553   2.919   4.191
 4477SOL    HW213764   2.651   2.861   4.074
 4478SOL     OW13765   1.926   3.426   5.055
 4478SOL    HW113766   1.880   3.508   5.021
 4478SOL    HW213767   2.024   3.445   5.064
 4479SOL     OW13768   2.229   2.962   4.225
 4479SOL    HW113769   2.222   3.045   4.169
 4479SOL    HW213770   2.233   2.882   4.165
 4480SOL     OW13771   3.114   3.210   4.112
 4480SOL    HW113772   3.164   3.287   4.152
 4480SOL    HW213773   3.019   3.212   4.144
 4481SOL     OW13774   3.134   3.307   4.866
 4481SOL    HW113775   3.181   3.320   4.953
 4481SOL    HW213776   3.068   3.233   4.875
 4482SOL     OW13777   3.444   2.501   4.196
 4482SOL    HW113778   3.413   2.562   4.269
 4482SOL    HW213779   3.494   2.553   4.127
 4483SOL     OW13780   2.216   3.372   5.053
 4483SOL    HW113781   2.195   3.328   4.966
 4483SOL    HW213782   2.313   3.398   5.056
 4484SOL     OW13783   3.449   2.641   5.394
 4484SOL    HW113784   3.357   2.679   5.389
 4484SOL    HW213785   3.509   2.688   5.329
 4485SOL     OW13786   2.875   1.967   5.494
 4485SOL    HW113787   2.881   2.052   5.442
 4485SOL    HW213788   2.907   1.891   5.437
 4486SOL     OW13789   3.222   2.724   4.769
 4486SOL    HW113790   3.147   2.724   4.703
 4486SOL    HW213791   3.259   2.632   4.778
 4487SOL     OW13792   3.071   2.387   3.999
 4487SOL    HW113793   3.084   2.303   4.053
 4487SOL    HW213794   3.042   2.461   4.059
 4488SOL     OW13795   1.899   3.172   5.006
 4488SOL    HW113796   1.952   3.123   5.074
 4488SOL    HW213797   1.921   3.270   5.011
 4489SOL     OW13798   3.590   2.797   5.578
 4489SOL    HW113799   3.544   2.790   5.489
 4489SOL    HW213800   3.528   2.841   5.644
 4490SOL     OW13801   2.169   1.925   4.342
 4490SOL    HW113802   2.158   2.019   4.375
 4490SOL    HW213803   2.164   1.862   4.419
 4491SOL     OW13804   3.484   2.229   4.098
 4491SOL    HW113805   3.486   2.153   4.162
 4491SOL    HW213806   3.436   2.306   4.138
 4492SOL     OW13807   2.842   3.435   5.424
 4492SOL    HW113808   2.822   3.479   5.336
 4492SOL    HW213809   2.881   3.344   5.408
 4493SOL     OW13810   3.721   3.380   5.329
 4493SOL    HW113811   3.735   3.407   5.234
 4493SOL    HW213812   3.804   3.402   5.382
 4494SOL     OW13813   2.212   2.760   5.528
 4494SOL    HW113814   2.288   2.804   5.576
 4494SOL    HW213815   2.247   2.713   5.446
 4495SOL     OW13816   3.402   2.136   3.849
 4495SOL    HW113817   3.341   2.061   3.872
 4495SOL    HW213818   3.424   2.188   3.932
 4496SOL     OW13819   3.165   2.700   3.766
 4496SOL    HW113820   3.199   2.607   3.781
 4496SOL    HW213821   3.183   2.727   3.671
 4497SOL     OW13822   2.930   3.195   4.573
 4497SOL    HW113823   2.937   3.111   4.518
 4497SOL    HW213824   2.992   3.264   4.537
 4498SOL     OW13825   2.181   2.672   4.673
 4498SOL    HW113826   2.274   2.708   4.678
 4498SOL    HW213827   2.175   2.587   4.725
 4499SOL     OW13828   3.000   2.242   5.402
 4499SOL    HW113829   2.955   2.305   5.466
 4499SOL    HW213830   3.093   2.273   5.385
 4500SOL     OW13831   3.022   2.069   5.201
 4500SOL    HW113832   3.022   2.133   5.278
 4500SOL    HW213833   3.050   2.117   5.118
 4501SOL     OW13834   1.870   3.188   3.924
 4501SOL    HW113835   1.777   3.209   3.893
 4501SOL    HW213836   1.880   3.089   3.937
 4502SOL     OW13837   1.950   3.663   4.651
 4502SOL    HW113838   1.908   3.577   4.624
 4502SOL    HW213839   2.044   3.666   4.617
 4503SOL     OW13840   2.366   3.430   4.634
 4503SOL    HW113841   2.432   3.504   4.643
 4503SOL    HW213842   2.410   3.351   4.592
 4504SOL     OW13843   2.051   2.382   5.446
 4504SOL    HW113844   2.110   2.342   5.376
 4504SOL    HW213845   1.993   2.453   5.405
 4505SOL     OW13846   3.231   2.812   5.384
 4505SOL    HW113847   3.270   2.901   5.404
 4505SOL    HW213848   3.241   2.792   5.287
 4506SOL     OW13849   2.677   2.434   4.049
 4506SOL    HW113850   2.684   2.345   4.003
 4506SOL    HW213851   2.583   2.468   4.041
 4507SOL     OW13852   3.519   2.466   4.930
 4507SOL    HW113853   3.481   2.397   4.992
 4507SOL    HW213854   3.601   2.430   4.886
 4508SOL     OW13855   2.114   3.426   5.468
 4508SOL    HW113856   2.084   3.483   5.544
 4508SOL    HW213857   2.107   3.329   5.494
 4509SOL     OW13858   2.792   3.540   5.189
 4509SOL    HW113859   2.768   3.522   5.094
 4509SOL    HW213860   2.822   3.634   5.199
 4510SOL     OW13861   3.209   2.921   4.958
 4510SOL    HW113862   3.233   2.858   4.884
 4510SOL    HW213863   3.119   2.961   4.940
 4511SOL     OW13864   3.164   2.717   4.033
 4511SOL    HW113865   3.078   2.686   4.075
 4511SOL    HW213866   3.160   2.703   3.934
 4512SOL     OW13867   3.621   3.609   4.878
 4512SOL    HW113868   3.682   3.639   4.805
 4512SOL    HW213869   3.583   3.520   4.856
 4513SOL     OW13870   3.114   3.593   4.852
 4513SOL    HW113871   3.198   3.598   4.798
 4513SOL    HW213872   3.091   3.497   4.870
 4514SOL     OW13873   1.945   3.120   4.746
 4514SOL    HW113874   1.940   3.119   4.846
 4514SOL    HW213875   1.862   3.079   4.708
 4515SOL     OW13876   2.550   3.524   5.440
 4515SOL    HW113877   2.494   3.605   5.449
 4515SOL    HW213878   2.602   3.528   5.354
 4516SOL     OW13879   3.588   1.997   4.247
 4516SOL    HW113880   3.661   1.980   4.180
 4516SOL    HW213881   3.557   1.910   4.285
 4517SOL     OW13882   3.250   3.435   4.201
 4517SOL    HW113883   3.317   3.447   4.127
 4517SOL    HW213884   3.210   3.524   4.224
 4518SOL     OW13885   1.992   3.656   5.575
 4518SOL    HW113886   1.951   3.582   5.628
 4518SOL    HW213887   2.056   3.707   5.633
 4519SOL     OW13888   3.142   2.789   4.396
 4519SOL    HW113889   3.202   2.708   4.398
 4519SOL    HW213890   3.182   2.858   4.336
 4520SOL     OW13891   2.692   3.135   5.146
 4520SOL    HW113892   2.687   3.168   5.241
 4520SOL    HW213893   2.606   3.154   5.100
 4521SOL     OW13894   2.534   3.478   3.878
 4521SOL    HW113895   2.543   3.488   3.779
 4521SOL    HW213896   2.494   3.389   3.899
 4522SOL     OW13897   3.512   3.582   5.118
 4522SOL    HW113898   3.565   3.592   5.034
 4522SOL    HW213899   3.485   3.672   5.152
 4523SOL     OW13900   3.703   2.037   4.687
 4523SOL    HW113901   3.742   1.952   4.651
 4523SOL    HW213902   3.605   2.039   4.668
 4524SOL     OW13903   2.125   2.188   4.444
 4524SOL    HW113904   2.046   2.239   4.410
 4524SOL    HW213905   2.116   2.173   4.542
 4525SOL     OW13906   3.056   3.474   3.755
 4525SOL    HW113907   3.062   3.381   3.792
 4525SOL    HW213908   2.997   3.474   3.675
 4526SOL     OW13909   2.778   2.772   4.015
 4526SOL    HW113910   2.841   2.810   3.947
 4526SOL    HW213911   2.818   2.689   4.054
 4527SOL     OW13912   3.366   3.469   3.768
 4527SOL    HW113913   3.274   3.506   3.775
 4527SOL    HW213914   3.404   3.489   3.678
 4528SOL     OW13915   2.234   3.150   5.214
 4528SOL    HW113916   2.221   3.243   5.180
 4528SOL    HW213917   2.150   3.098   5.201
 4529SOL     OW13918   3.476   3.154   5.013
 4529SOL    HW113919   3.536   3.157   5.093
 4529SOL    HW213920   3.401   3.218   5.026
 4530SOL     OW13921   2.901   2.960   4.420
 4530SOL    HW113922   2.831   2.913   4.474
 4530SOL    HW213923   2.960   2.892   4.377
 4531SOL     OW13924   2.452   3.349   4.215
 4531SOL    HW113925   2.494   3.291   4.145
 4531SOL    HW213926   2.408   3.428   4.171
 4532SOL     OW13927   3.571   2.247   5.105
 4532SOL    HW113928   3.644   2.316   5.109
 4532SOL    HW213929   3.599   2.172   5.046
 4533SOL     OW13930   2.117   3.210   4.014
 4533SOL    HW113931   2.021   3.211   3.987
 4533SOL    HW213932   2.129   3.263   4.098
 4534SOL     OW13933   1.967   2.875   5.450
 4534SOL    HW113934   1.890   2.842   5.504
 4534SOL    HW213935   2.052   2.845   5.492
 4535SOL     OW13936   1.937   2.207   3.757
 4535SOL    HW113937   1.845   2.179   3.728
 4535SOL    HW213938   1.968   2.284   3.701
 4536SOL     OW13939   3.302   2.718   5.122
 4536SOL    HW113940   3.245   2.770   5.059
 4536SOL    HW213941   3.398   2.730   5.098
 4537SOL     OW13942   1.934   2.028   4.042
 4537SOL    HW113943   1.917   2.111   3.988
 4537SOL    HW213944   2.024   1.991   4.020
 4538SOL     OW13945   3.045   3.197   3.843
 4538SOL    HW113946   2.946   3.186   3.845
 4538SOL    HW213947   3.079   3.212   3.936
 4539SOL     OW13948   3.355   3.629   4.683
 4539SOL    HW113949   3.388   3.693   4.614
 4539SOL    HW213950   3.421   3.623   4.758
 4540SOL     OW13951   3.312   3.082   5.357
 4540SOL    HW113952   3.303   3.072   5.456
 4540SOL    HW213953   3.408   3.075   5.331
 4541SOL     OW13954   2.252   3.603   5.284
 4541SOL    HW113955   2.161   3.644   5.282
 4541SOL    HW213956   2.245   3.509   5.316
 4542SOL     OW13957   3.536   2.745   4.978
 4542SOL    HW113958   3.509   2.656   4.941
 4542SOL    HW213959   3.537   2.813   4.905
 4543SOL     OW13960   3.087   2.187   4.173
 4543SOL    HW113961   3.152   2.113   4.162
 4543SOL    HW213962   3.107   2.237   4.257
 4544SOL     OW13963   2.456   2.607   4.376
 4544SOL    HW113964   2.506   2.692   4.357
 4544SOL    HW213965   2.368   2.609   4.328
 4545SOL     OW13966   3.639   2.204   5.366
 4545SOL    HW113967   3.622   2.235   5.272
 4545SOL    HW213968   3.555   2.167   5.404
 4546SOL     OW13969   3.592   2.796   5.241
 4546SOL    HW113970   3.630   2.887   5.256
 4546SOL    HW213971   3.584   2.779   5.142
 4547SOL     OW13972   2.721   3.236   3.740
 4547SOL    HW113973   2.675   3.251   3.828
 4547SOL    HW213974   2.765   3.321   3.710
 4548SOL     OW13975   2.523   3.652   4.677
 4548SOL    HW113976   2.477   3.740   4.664
 4548SOL    HW213977   2.622   3.664   4.670
 4549SOL     OW13978   2.945   2.846   3.811
 4549SOL    HW113979   2.922   2.899   3.729
 4549SOL    HW213980   3.026   2.790   3.792
 4550SOL     OW13981   3.723   3.431   4.575
 4550SOL    HW113982   3.652   3.419   4.505
 4550SOL    HW213983   3.724   3.352   4.635
 4551SOL     OW13984   2.083   3.176   5.568
 4551SOL    HW113985   2.018   3.103   5.547
 4551SOL    HW213986   2.087   3.190   5.666
 4552SOL     OW13987   1.941   3.102   4.377
 4552SOL    HW113988   1.940   3.055   4.465
 4552SOL    HW213989   2.023   3.074   4.326
 4553SOL     OW13990   2.534   3.253   5.348
 4553SOL    HW113991   2.456   3.203   5.386
 4553SOL    HW213992   2.531   3.348   5.379
 4554SOL     OW13993   3.686   2.054   4.951
 4554SOL    HW113994   3.682   1.964   4.995
 4554SOL    HW213995   3.689   2.043   4.852
 4555SOL     OW13996   3.567   3.349   4.828
 4555SOL    HW113997   3.474   3.324   4.801
 4555SOL    HW213998   3.593   3.299   4.910
 4556SOL     OW13999   2.674   3.448   4.411
 4556SOL    HW114000   2.706   3.458   4.317
 4556SOL    HW214001   2.595   3.386   4.413
 4557SOL     OW14002   3.286   2.076   4.836
 4557SOL    HW114003   3.338   2.011   4.891
 4557SOL    HW214004   3.237   2.139   4.897
 4558SOL     OW14005   2.863   1.896   4.878
 4558SOL    HW114006   2.800   1.824   4.847
 4558SOL    HW214007   2.956   1.860   4.878
 4559SOL     OW14008   2.632   3.192   4.025
 4559SOL    HW114009   2.586   3.105   4.042
 4559SOL    HW214010   2.723   3.189   4.066
 4560SOL     OW14011   2.480   3.429   5.008
 4560SOL    HW114012   2.475   3.511   5.065
 4560SOL    HW214013   2.569   3.426   4.963
 4561SOL     OW14014   3.214   1.914   3.892
 4561SOL    HW114015   3.249   1.873   3.808
 4561SOL    HW214016   3.124   1.876   3.912
 4562SOL     OW14017   3.162   2.315   4.415
 4562SOL    HW114018   3.103   2.395   4.419
 4562SOL    HW214019   3.177   2.280   4.508
 4563SOL     OW14020   3.455   2.083   4.606
 4563SOL    HW114021   3.371   2.082   4.660
 4563SOL    HW214022   3.457   2.166   4.550
 4564SOL     OW14023   1.901   2.939   4.024
 4564SOL    HW114024   2.000   2.928   4.015
 4564SOL    HW214025   1.861   2.853   4.056
 4565SOL     OW14026   2.737   3.508   4.061
 4565SOL    HW114027   2.660   3.473   4.007
 4565SOL    HW214028   2.705   3.579   4.123
 4566SOL     OW14029   2.092   2.490   5.699
 4566SOL    HW114030   1.999   2.488   5.736
 4566SOL    HW214031   2.093   2.451   5.607
 4567SOL     OW14032   2.087   2.137   6.582
 4567SOL    HW114033   2.122   2.120   6.674
 4567SOL    HW214034   1.999   2.092   6.570
 4568SOL     OW14035   1.881   2.230   6.233
 4568SOL    HW114036   1.799   2.273   6.272
 4568SOL    HW214037   1.853   2.157   6.170
 4569SOL     OW14038   2.431   3.137   6.751
 4569SOL    HW114039   2.338   3.130   6.714
 4569SOL    HW214040   2.442   3.226   6.795
 4570SOL     OW14041   3.417   3.373   6.289
 4570SOL    HW114042   3.360   3.357   6.370
 4570SOL    HW214043   3.358   3.383   6.209
 4571SOL     OW14044   2.997   2.565   6.303
 4571SOL    HW114045   3.054   2.643   6.278
 4571SOL    HW214046   2.937   2.591   6.379
 4572SOL     OW14047   3.617   2.469   5.817
 4572SOL    HW114048   3.605   2.456   5.718
 4572SOL    HW214049   3.587   2.388   5.866
 4573SOL     OW14050   2.630   3.006   6.609
 4573SOL    HW114051   2.552   3.023   6.669
 4573SOL    HW214052   2.664   3.093   6.573
 4574SOL     OW14053   2.712   2.660   7.409
 4574SOL    HW114054   2.708   2.736   7.474
 4574SOL    HW214055   2.734   2.696   7.318
 4575SOL     OW14056   2.547   2.874   6.251
 4575SOL    HW114057   2.616   2.858   6.321
 4575SOL    HW214058   2.474   2.931   6.289
 4576SOL     OW14059   2.548   3.023   7.389
 4576SOL    HW114060   2.608   3.102   7.403
 4576SOL    HW214061   2.462   3.054   7.348
 4577SOL     OW14062   2.197   3.297   6.647
 4577SOL    HW114063   2.119   3.266   6.594
 4577SOL    HW214064   2.255   3.355   6.590
 4578SOL     OW14065   3.322   3.367   6.925
 4578SOL    HW114066   3.346   3.461   6.951
 4578SOL    HW214067   3.306   3.313   7.007
 4579SOL     OW14068   3.465   2.309   6.323
 4579SOL    HW114069   3.391   2.355   6.273
 4579SOL    HW214070   3.516   2.377   6.376
 4580SOL     OW14071   2.093   3.575   6.069
 4580SOL    HW114072   2.127   3.652   6.123
 4580SOL    HW214073   2.137   3.575   5.979
 4581SOL     OW14074   2.989   3.203   7.276
 4581SOL    HW114075   3.036   3.203   7.364
 4581SOL    HW214076   2.941   3.116   7.265
 4582SOL     OW14077   2.092   3.296   6.124
 4582SOL    HW114078   2.066   3.392   6.124
 4582SOL    HW214079   2.021   3.242   6.169
 4583SOL     OW14080   2.102   2.953   6.472
 4583SOL    HW114081   2.116   2.869   6.524
 4583SOL    HW214082   2.047   3.017   6.527
 4584SOL     OW14083   2.482   3.648   7.025
 4584SOL    HW114084   2.390   3.631   7.060
 4584SOL    HW214085   2.510   3.740   7.051
 4585SOL     OW14086   2.468   2.826   5.709
 4585SOL    HW114087   2.475   2.910   5.655
 4585SOL    HW214088   2.514   2.839   5.797
 4586SOL     OW14089   3.456   1.976   7.066
 4586SOL    HW114090   3.438   2.043   6.994
 4586SOL    HW214091   3.453   2.022   7.155
 4587SOL     OW14092   1.984   2.505   6.149
 4587SOL    HW114093   1.939   2.417   6.166
 4587SOL    HW214094   1.983   2.559   6.233
 4588SOL     OW14095   3.704   3.629   5.945
 4588SOL    HW114096   3.758   3.600   6.025
 4588SOL    HW214097   3.734   3.719   5.916
 4589SOL     OW14098   1.889   3.458   5.703
 4589SOL    HW114099   1.870   3.362   5.724
 4589SOL    HW214100   1.856   3.516   5.778
 4590SOL     OW14101   3.551   2.784   6.198
 4590SOL    HW114102   3.646   2.755   6.206
 4590SOL    HW214103   3.543   2.849   6.123
 4591SOL     OW14104   3.503   2.970   6.018
 4591SOL    HW114105   3.589   2.972   5.966
 4591SOL    HW214106   3.517   3.017   6.106
 4592SOL     OW14107   1.975   2.599   7.183
 4592SOL    HW114108   2.063   2.586   7.228
 4592SOL    HW214109   1.962   2.696   7.161
 4593SOL     OW14110   2.475   3.227   6.312
 4593SOL    HW114111   2.426   3.140   6.321
 4593SOL    HW214112   2.452   3.270   6.225
 4594SOL     OW14113   3.155   3.090   7.009
 4594SOL    HW114114   3.192   3.017   6.951
 4594SOL    HW214115   3.207   3.095   7.094
 4595SOL     OW14116   2.671   1.866   6.088
 4595SOL    HW114117   2.711   1.957   6.079
 4595SOL    HW214118   2.571   1.874   6.094
 4596SOL     OW14119   2.059   2.838   6.850
 4596SOL    HW114120   2.148   2.793   6.836
 4596SOL    HW214121   1.986   2.773   6.831
 4597SOL     OW14122   3.387   2.861   5.776
 4597SOL    HW114123   3.324   2.785   5.789
 4597SOL    HW214124   3.435   2.879   5.862
 4598SOL     OW14125   3.049   3.654   7.202
 4598SOL    HW114126   3.073   3.714   7.126
 4598SOL    HW214127   3.056   3.559   7.172
 4599SOL     OW14128   2.179   2.113   7.387
 4599SOL    HW114129   2.250   2.184   7.393
 4599SOL    HW214130   2.091   2.152   7.415
 4600SOL     OW14131   3.328   3.279   6.539
 4600SOL    HW114132   3.269   3.285   6.619
 4600SOL    HW214133   3.313   3.191   6.493
 4601SOL     OW14134   3.529   3.576   6.158
 4601SOL    HW114135   3.488   3.553   6.070
 4601SOL    HW214136   3.511   3.502   6.223
 4602SOL     OW14137   3.143   2.207   6.530
 4602SOL    HW114138   3.057   2.157   6.517
 4602SOL    HW214139   3.205   2.153   6.586
 4603SOL     OW14140   3.438   3.524   5.893
 4603SOL    HW114141   3.527   3.570   5.896
 4603SOL    HW214142   3.417   3.500   5.798
 4604SOL     OW14143   2.669   2.467   7.051
 4604SOL    HW114144   2.622   2.464   7.140
 4604SOL    HW214145   2.618   2.412   6.985
 4605SOL     OW14146   3.256   2.331   7.260
 4605SOL    HW114147   3.236   2.374   7.348
 4605SOL    HW214148   3.334   2.269   7.269
 4606SOL     OW14149   2.835   2.752   7.158
 4606SOL    HW114150   2.881   2.668   7.129
 4606SOL    HW214151   2.779   2.786   7.083
 4607SOL     OW14152   2.853   2.272   6.828
 4607SOL    HW114153   2.776   2.306   6.882
 4607SOL    HW214154   2.819   2.221   6.749
 4608SOL     OW14155   2.903   2.563   6.015
 4608SOL    HW114156   2.929   2.559   6.111
 4608SOL    HW214157   2.818   2.512   6.001
 4609SOL     OW14158   1.938   2.673   6.375
 4609SOL    HW114159   2.037   2.661   6.384
 4609SOL    HW214160   1.914   2.768   6.396
 4610SOL     OW14161   1.992   3.683   7.157
 4610SOL    HW114162   1.982   3.668   7.256
 4610SOL    HW214163   1.906   3.719   7.121
 4611SOL     OW14164   2.727   2.210   5.781
 4611SOL    HW114165   2.786   2.273   5.732
 4611SOL    HW214166   2.746   2.116   5.752
 4612SOL     OW14167   3.581   2.447   7.417
 4612SOL    HW114168   3.555   2.536   7.381
 4612SOL    HW214169   3.579   2.379   7.344
 4613SOL     OW14170   3.224   3.006   6.131
 4613SOL    HW114171   3.307   2.977   6.083
 4613SOL    HW214172   3.175   3.073   6.075
 4614SOL     OW14173   2.870   3.318   6.063
 4614SOL    HW114174   2.824   3.390   6.011
 4614SOL    HW214175   2.866   3.338   6.161
 4615SOL     OW14176   2.213   3.663   6.439
 4615SOL    HW114177   2.263   3.577   6.445
 4615SOL    HW214178   2.278   3.740   6.436
 4616SOL     OW14179   3.657   2.928   6.459
 4616SOL    HW114180   3.595   2.913   6.383
 4616SOL    HW214181   3.605   2.939   6.544
 4617SOL     OW14182   3.089   3.412   7.092
 4617SOL    HW114183   3.095   3.335   7.156
 4617SOL    HW214184   3.037   3.386   7.012
 4618SOL     OW14185   2.183   2.805   5.828
 4618SOL    HW114186   2.265   2.844   5.786
 4618SOL    HW214187   2.156   2.723   5.779
 4619SOL     OW14188   3.320   2.597   6.314
 4619SOL    HW114189   3.315   2.532   6.389
 4619SOL    HW214190   3.400   2.656   6.327
 4620SOL     OW14191   2.323   3.128   7.313
 4620SOL    HW114192   2.273   3.129   7.227
 4620SOL    HW214193   2.260   3.110   7.389
 4621SOL     OW14194   2.973   3.638   5.823
 4621SOL    HW114195   2.913   3.576   5.873
 4621SOL    HW214196   3.004   3.594   5.738
 4622SOL     OW14197   2.064   2.147   7.084
 4622SOL    HW114198   1.984   2.207   7.071
 4622SOL    HW214199   2.054   2.098   7.170
 4623SOL     OW14200   3.494   3.239   5.667
 4623SOL    HW114201   3.462   3.333   5.657
 4623SOL    HW214202   3.418   3.176   5.655
 4624SOL     OW14203   2.326   3.605   5.909
 4624SOL    HW114204   2.359   3.644   5.995
 4624SOL    HW214205   2.402   3.598   5.844
 4625SOL     OW14206   3.262   1.969   6.012
 4625SOL    HW114207   3.238   1.932   5.922
 4625SOL    HW214208   3.361   1.985   6.016
 4626SOL     OW14209   2.111   3.647   6.827
 4626SOL    HW114210   2.168   3.582   6.877
 4626SOL    HW214211   2.095   3.614   6.734
 4627SOL     OW14212   2.802   3.560   6.490
 4627SOL    HW114213   2.882   3.503   6.511
 4627SOL    HW214214   2.753   3.520   6.413
 4628SOL     OW14215   3.409   2.084   7.315
 4628SOL    HW114216   3.404   2.121   7.407
 4628SOL    HW214217   3.337   2.015   7.303
 4629SOL     OW14218   2.476   1.984   5.703
 4629SOL    HW114219   2.574   1.962   5.710
 4629SOL    HW214220   2.445   1.967   5.610
 4630SOL     OW14221   2.643   2.126   7.335
 4630SOL    HW114222   2.710   2.065   7.378
 4630SOL    HW214223   2.570   2.145   7.400
 4631SOL     OW14224   2.750   3.376   6.781
 4631SOL    HW114225   2.727   3.351   6.687
 4631SOL    HW214226   2.811   3.307   6.820
 4632SOL     OW14227   3.213   2.452   7.019
 4632SOL    HW114228   3.241   2.409   7.104
 4632SOL    HW214229   3.238   2.548   7.020
 4633SOL     OW14230   2.665   3.264   6.510
 4633SOL    HW114231   2.755   3.278   6.468
 4633SOL    HW214232   2.594   3.266   6.439
 4634SOL     OW14233   2.784   2.365   6.485
 4634SOL    HW114234   2.759   2.356   6.389
 4634SOL    HW214235   2.832   2.283   6.516
 4635SOL     OW14236   2.401   1.926   6.098
 4635SOL    HW114237   2.320   1.927   6.156
 4635SOL    HW214238   2.404   2.009   6.043
 4636SOL     OW14239   3.296   3.050   5.627
 4636SOL    HW114240   3.328   2.974   5.684
 4636SOL    HW214241   3.204   3.077   5.657
 4637SOL     OW14242   2.159   1.897   5.757
 4637SOL    HW114243   2.208   1.981   5.736
 4637SOL    HW214244   2.221   1.832   5.802
 4638SOL     OW14245   2.797   2.098   6.066
 4638SOL    HW114246   2.749   2.139   5.988
 4638SOL    HW214247   2.896   2.096   6.047
 4639SOL     OW14248   2.938   2.545   7.050
 4639SOL    HW114249   2.858   2.484   7.053
 4639SOL    HW214250   3.019   2.492   7.026
 4640SOL     OW14251   3.089   3.432   6.379
 4640SOL    HW114252   3.110   3.506   6.314
 4640SOL    HW214253   3.157   3.432   6.452
 4641SOL     OW14254   2.321   3.014   6.327
 4641SOL    HW114255   2.250   2.987   6.392
 4641SOL    HW214256   2.295   2.986   6.234
 4642SOL     OW14257   3.133   3.659   6.177
 4642SOL    HW114258   3.177   3.723   6.113
 4642SOL    HW214259   3.083   3.711   6.247
 4643SOL     OW14260   2.894   2.411   5.602
 4643SOL    HW114261   2.853   2.493   5.563
 4643SOL    HW214262   2.958   2.437   5.675
 4644SOL     OW14263   1.940   2.418   6.972
 4644SOL    HW114264   2.032   2.417   6.931
 4644SOL    HW214265   1.934   2.492   7.039
 4645SOL     OW14266   2.423   2.084   6.733
 4645SOL    HW114267   2.461   2.000   6.770
 4645SOL    HW214268   2.335   2.103   6.777
 4646SOL     OW14269   2.728   2.316   6.228
 4646SOL    HW114270   2.696   2.388   6.166
 4646SOL    HW214271   2.752   2.235   6.175
 4647SOL     OW14272   2.879   1.901   6.339
 4647SOL    HW114273   2.807   1.906   6.270
 4647SOL    HW214274   2.855   1.832   6.408
 4648SOL     OW14275   3.291   3.035   6.453
 4648SOL    HW114276   3.236   2.951   6.446
 4648SOL    HW214277   3.317   3.064   6.361
 4649SOL     OW14278   3.328   2.452   6.578
 4649SOL    HW114279   3.298   2.357   6.585
 4649SOL    HW214280   3.401   2.468   6.644
 4650SOL     OW14281   3.719   2.695   5.963
 4650SOL    HW114282   3.761   2.631   6.027
 4650SOL    HW214283   3.681   2.644   5.885
 4651SOL     OW14284   2.350   3.247   5.760
 4651SOL    HW114285   2.263   3.232   5.807
 4651SOL    HW214286   2.333   3.273   5.665
 4652SOL     OW14287   3.526   3.142   6.243
 4652SOL    HW114288   3.625   3.150   6.257
 4652SOL    HW214289   3.481   3.226   6.274
 4653SOL     OW14290   3.252   2.437   5.664
 4653SOL    HW114291   3.198   2.416   5.745
 4653SOL    HW214292   3.343   2.396   5.673
 4654SOL     OW14293   3.616   3.085   7.174
 4654SOL    HW114294   3.707   3.046   7.161
 4654SOL    HW214295   3.624   3.181   7.198
 4655SOL     OW14296   2.926   3.209   6.926
 4655SOL    HW114297   2.846   3.186   6.981
 4655SOL    HW214298   3.009   3.183   6.975
 4656SOL     OW14299   3.454   3.491   7.211
 4656SOL    HW114300   3.481   3.525   7.121
 4656SOL    HW214301   3.533   3.453   7.257
 4657SOL     OW14302   2.973   3.057   6.686
 4657SOL    HW114303   2.933   3.101   6.767
 4657SOL    HW214304   2.932   3.094   6.603
 4658SOL     OW14305   3.500   2.961   6.665
 4658SOL    HW114306   3.505   3.042   6.724
 4658SOL    HW214307   3.414   2.963   6.614
 4659SOL     OW14308   2.777   1.951   6.988
 4659SOL    HW114309   2.802   1.931   6.893
 4659SOL    HW214310   2.849   2.007   7.030
 4660SOL     OW14311   2.842   2.978   7.305
 4660SOL    HW114312   2.743   2.984   7.315
 4660SOL    HW214313   2.865   2.898   7.249
 4661SOL     OW14314   2.567   2.912   5.954
 4661SOL    HW114315   2.553   2.919   6.053
 4661SOL    HW214316   2.651   2.861   5.936
 4662SOL     OW14317   2.272   2.675   6.837
 4662SOL    HW114318   2.358   2.687   6.887
 4662SOL    HW214319   2.230   2.588   6.864
 4663SOL     OW14320   3.136   2.248   6.848
 4663SOL    HW114321   3.157   2.322   6.912
 4663SOL    HW214322   3.047   2.265   6.805
 4664SOL     OW14323   1.926   3.426   6.917
 4664SOL    HW114324   1.880   3.508   6.883
 4664SOL    HW214325   2.024   3.445   6.926
 4665SOL     OW14326   2.229   2.962   6.087
 4665SOL    HW114327   2.222   3.045   6.031
 4665SOL    HW214328   2.233   2.882   6.027
 4666SOL     OW14329   3.114   3.210   5.974
 4666SOL    HW114330   3.164   3.287   6.014
 4666SOL    HW214331   3.019   3.212   6.006
 4667SOL     OW14332   3.134   3.307   6.728
 4667SOL    HW114333   3.181   3.320   6.815
 4667SOL    HW214334   3.068   3.233   6.737
 4668SOL     OW14335   3.444   2.501   6.058
 4668SOL    HW114336   3.413   2.562   6.131
 4668SOL    HW214337   3.494   2.553   5.989
 4669SOL     OW14338   2.216   3.372   6.915
 4669SOL    HW114339   2.195   3.328   6.828
 4669SOL    HW214340   2.313   3.398   6.918
 4670SOL     OW14341   3.449   2.641   7.256
 4670SOL    HW114342   3.357   2.679   7.251
 4670SOL    HW214343   3.509   2.688   7.191
 4671SOL     OW14344   2.875   1.967   7.356
 4671SOL    HW114345   2.881   2.052   7.304
 4671SOL    HW214346   2.907   1.891   7.299
 4672SOL     OW14347   2.366   1.912   7.326
 4672SOL    HW114348   2.324   1.855   7.256
 4672SOL    HW214349   2.300   1.981   7.358
 4673SOL     OW14350   2.435   2.732   6.615
 4673SOL    HW114351   2.479   2.821   6.606
 4673SOL    HW214352   2.372   2.732   6.692
 4674SOL     OW14353   3.222   2.724   6.631
 4674SOL    HW114354   3.147   2.724   6.565
 4674SOL    HW214355   3.259   2.632   6.640
 4675SOL     OW14356   3.071   2.387   5.861
 4675SOL    HW114357   3.084   2.303   5.915
 4675SOL    HW214358   3.042   2.461   5.921
 4676SOL     OW14359   2.169   2.075   6.817
 4676SOL    HW114360   2.146   2.112   6.907
 4676SOL    HW214361   2.139   1.980   6.811
 4677SOL     OW14362   1.899   3.172   6.868
 4677SOL    HW114363   1.952   3.123   6.936
 4677SOL    HW214364   1.921   3.270   6.873
 4678SOL     OW14365   2.594   2.496   6.650
 4678SOL    HW114366   2.653   2.470   6.574
 4678SOL    HW214367   2.566   2.592   6.639
 4679SOL     OW14368   3.590   2.797   7.440
 4679SOL    HW114369   3.544   2.790   7.351
 4679SOL    HW214370   3.528   2.841   7.506
 4680SOL     OW14371   2.169   1.925   6.204
 4680SOL    HW114372   2.158   2.019   6.237
 4680SOL    HW214373   2.164   1.862   6.281
 4681SOL     OW14374   3.484   2.229   5.960
 4681SOL    HW114375   3.486   2.153   6.024
 4681SOL    HW214376   3.436   2.306   6.000
 4682SOL     OW14377   2.885   2.628   6.552
 4682SOL    HW114378   2.900   2.649   6.648
 4682SOL    HW214379   2.855   2.533   6.543
 4683SOL     OW14380   2.842   3.435   7.286
 4683SOL    HW114381   2.822   3.479   7.198
 4683SOL    HW214382   2.881   3.344   7.270
 4684SOL     OW14383   3.721   3.380   7.191
 4684SOL    HW114384   3.735   3.407   7.096
 4684SOL    HW214385   3.804   3.402   7.244
 4685SOL     OW14386   2.212   2.760   7.390
 4685SOL    HW114387   2.288   2.804   7.438
 4685SOL    HW214388   2.247   2.713   7.308
 4686SOL     OW14389   3.402   2.136   5.711
 4686SOL    HW114390   3.341   2.061   5.734
 4686SOL    HW214391   3.424   2.188   5.794
 4687SOL     OW14392   3.165   2.700   5.628
 4687SOL    HW114393   3.199   2.607   5.643
 4687SOL    HW214394   3.183   2.727   5.533
 4688SOL     OW14395   2.930   3.195   6.435
 4688SOL    HW114396   2.937   3.111   6.380
 4688SOL    HW214397   2.992   3.264   6.399
 4689SOL     OW14398   2.181   2.672   6.535
 4689SOL    HW114399   2.274   2.708   6.540
 4689SOL    HW214400   2.175   2.587   6.587
 4690SOL     OW14401   3.000   2.242   7.264
 4690SOL    HW114402   2.955   2.305   7.328
 4690SOL    HW214403   3.093   2.273   7.247
 4691SOL     OW14404   3.022   2.069   7.063
 4691SOL    HW114405   3.022   2.133   7.140
 4691SOL    HW214406   3.050   2.117   6.980
 4692SOL     OW14407   1.870   3.188   5.786
 4692SOL    HW114408   1.777   3.209   5.755
 4692SOL    HW214409   1.880   3.089   5.799
 4693SOL     OW14410   1.950   3.663   6.513
 4693SOL    HW114411   1.908   3.577   6.486
 4693SOL    HW214412   2.044   3.666   6.479
 4694SOL     OW14413   2.366   3.430   6.496
 4694SOL    HW114414   2.432   3.504   6.505
 4694SOL    HW214415   2.410   3.351   6.454
 4695SOL     OW14416   2.864   2.658   6.824
 4695SOL    HW114417   2.905   2.626   6.910
 4695SOL    HW214418   2.768   2.631   6.821
 4696SOL     OW14419   1.902   2.406   6.700
 4696SOL    HW114420   1.987   2.373   6.659
 4696SOL    HW214421   1.915   2.421   6.798
 4697SOL     OW14422   2.051   2.382   7.308
 4697SOL    HW114423   2.110   2.342   7.238
 4697SOL    HW214424   1.993   2.453   7.267
 4698SOL     OW14425   3.231   2.812   7.246
 4698SOL    HW114426   3.270   2.901   7.266
 4698SOL    HW214427   3.241   2.792   7.149
 4699SOL     OW14428   3.519   2.466   6.792
 4699SOL    HW114429   3.481   2.397   6.854
 4699SOL    HW214430   3.601   2.430   6.748
 4700SOL     OW14431   2.114   3.426   7.330
 4700SOL    HW114432   2.084   3.483   7.406
 4700SOL    HW214433   2.107   3.329   7.356
 4701SOL     OW14434   2.792   3.540   7.051
 4701SOL    HW114435   2.768   3.522   6.956
 4701SOL    HW214436   2.822   3.634   7.061
 4702SOL     OW14437   2.021   2.999   7.052
 4702SOL    HW114438   2.043   2.938   7.128
 4702SOL    HW214439   2.031   2.950   6.966
 4703SOL     OW14440   3.209   2.921   6.820
 4703SOL    HW114441   3.233   2.858   6.746
 4703SOL    HW214442   3.119   2.961   6.802
 4704SOL     OW14443   3.164   2.717   5.895
 4704SOL    HW114444   3.078   2.686   5.937
 4704SOL    HW214445   3.160   2.703   5.796
 4705SOL     OW14446   3.621   3.609   6.740
 4705SOL    HW114447   3.682   3.639   6.667
 4705SOL    HW214448   3.583   3.520   6.718
 4706SOL     OW14449   3.114   3.593   6.714
 4706SOL    HW114450   3.198   3.598   6.660
 4706SOL    HW214451   3.091   3.497   6.732
 4707SOL     OW14452   1.945   3.120   6.608
 4707SOL    HW114453   1.940   3.119   6.708
 4707SOL    HW214454   1.862   3.079   6.570
 4708SOL     OW14455   2.550   3.524   7.302
 4708SOL    HW114456   2.494   3.605   7.311
 4708SOL    HW214457   2.602   3.528   7.216
 4709SOL     OW14458   3.588   1.997   6.109
 4709SOL    HW114459   3.661   1.980   6.042
 4709SOL    HW214460   3.557   1.910   6.147
 4710SOL     OW14461   3.250   3.435   6.063
 4710SOL    HW114462   3.317   3.447   5.989
 4710SOL    HW214463   3.210   3.524   6.086
 4711SOL     OW14464   1.992   3.656   7.437
 4711SOL    HW114465   1.951   3.582   7.490
 4711SOL    HW214466   2.056   3.707   7.495
 4712SOL     OW14467   3.142   2.789   6.258
 4712SOL    HW114468   3.202   2.708   6.260
 4712SOL    HW214469   3.182   2.858   6.198
 4713SOL     OW14470   2.692   3.135   7.008
 4713SOL    HW114471   2.687   3.168   7.103
 4713SOL    HW214472   2.606   3.154   6.962
 4714SOL     OW14473   2.534   3.478   5.740
 4714SOL    HW114474   2.543   3.488   5.641
 4714SOL    HW214475   2.494   3.389   5.761
 4715SOL     OW14476   3.512   3.582   6.980
 4715SOL    HW114477   3.565   3.592   6.896
 4715SOL    HW214478   3.485   3.672   7.014
 4716SOL     OW14479   3.703   2.037   6.549
 4716SOL    HW114480   3.742   1.952   6.513
 4716SOL    HW214481   3.605   2.039   6.530
 4717SOL     OW14482   2.125   2.188   6.306
 4717SOL    HW114483   2.046   2.239   6.272
 4717SOL    HW214484   2.116   2.173   6.404
 4718SOL     OW14485   3.056   3.474   5.617
 4718SOL    HW114486   3.062   3.381   5.654
 4718SOL    HW214487   2.997   3.474   5.537
 4719SOL     OW14488   2.684   2.864   6.958
 4719SOL    HW114489   2.724   2.863   6.866
 4719SOL    HW214490   2.694   2.956   6.998
 4720SOL     OW14491   2.778   2.772   5.877
 4720SOL    HW114492   2.841   2.810   5.809
 4720SOL    HW214493   2.818   2.689   5.916
 4721SOL     OW14494   3.366   3.469   5.630
 4721SOL    HW114495   3.274   3.506   5.637
 4721SOL    HW214496   3.404   3.489   5.540
 4722SOL     OW14497   2.234   3.150   7.076
 4722SOL    HW114498   2.221   3.243   7.042
 4722SOL    HW214499   2.150   3.098   7.063
 4723SOL     OW14500   3.476   3.154   6.875
 4723SOL    HW114501   3.536   3.157   6.955
 4723SOL    HW214502   3.401   3.218   6.888
 4724SOL     OW14503   2.901   2.960   6.282
 4724SOL    HW114504   2.831   2.913   6.336
 4724SOL    HW214505   2.960   2.892   6.239
 4725SOL     OW14506   2.876   2.098   6.557
 4725SOL    HW114507   2.868   2.062   6.464
 4725SOL    HW214508   2.874   2.022   6.622
 4726SOL     OW14509   2.452   3.349   6.077
 4726SOL    HW114510   2.494   3.291   6.007
 4726SOL    HW214511   2.408   3.428   6.033
 4727SOL     OW14512   3.571   2.247   6.967
 4727SOL    HW114513   3.644   2.316   6.971
 4727SOL    HW214514   3.599   2.172   6.908
 4728SOL     OW14515   2.117   3.210   5.876
 4728SOL    HW114516   2.021   3.211   5.849
 4728SOL    HW214517   2.129   3.263   5.960
 4729SOL     OW14518   1.967   2.875   7.312
 4729SOL    HW114519   1.890   2.842   7.366
 4729SOL    HW214520   2.052   2.845   7.354
 4730SOL     OW14521   2.534   2.065   7.075
 4730SOL    HW114522   2.624   2.049   7.035
 4730SOL    HW214523   2.542   2.070   7.174
 4731SOL     OW14524   1.937   2.207   5.619
 4731SOL    HW114525   1.845   2.179   5.590
 4731SOL    HW214526   1.968   2.284   5.563
 4732SOL     OW14527   3.302   2.718   6.984
 4732SOL    HW114528   3.245   2.770   6.921
 4732SOL    HW214529   3.398   2.730   6.960
 4733SOL     OW14530   1.934   2.028   5.904
 4733SOL    HW114531   1.917   2.111   5.850
 4733SOL    HW214532   2.024   1.991   5.882
 4734SOL     OW14533   3.045   3.197   5.705
 4734SOL    HW114534   2.946   3.186   5.707
 4734SOL    HW214535   3.079   3.212   5.798
 4735SOL     OW14536   2.475   2.704   7.017
 4735SOL    HW114537   2.531   2.785   7.000
 4735SOL    HW214538   2.534   2.624   7.020
 4736SOL     OW14539   3.355   3.629   6.545
 4736SOL    HW114540   3.388   3.693   6.476
 4736SOL    HW214541   3.421   3.623   6.620
 4737SOL     OW14542   3.312   3.082   7.219
 4737SOL    HW114543   3.303   3.072   7.318
 4737SOL    HW214544   3.408   3.075   7.193
 4738SOL     OW14545   2.252   3.603   7.146
 4738SOL    HW114546   2.161   3.644   7.144
 4738SOL    HW214547   2.245   3.509   7.178
 4739SOL     OW14548   3.536   2.745   6.840
 4739SOL    HW114549   3.509   2.656   6.803
 4739SOL    HW214550   3.537   2.813   6.767
 4740SOL     OW14551   3.087   2.187   6.035
 4740SOL    HW114552   3.152   2.113   6.024
 4740SOL    HW214553   3.107   2.237   6.119
 4741SOL     OW14554   3.639   2.204   7.228
 4741SOL    HW114555   3.622   2.235   7.134
 4741SOL    HW214556   3.555   2.167   7.266
 4742SOL     OW14557   3.592   2.796   7.103
 4742SOL    HW114558   3.630   2.887   7.118
 4742SOL    HW214559   3.584   2.779   7.004
 4743SOL     OW14560   2.721   3.236   5.602
 4743SOL    HW114561   2.675   3.251   5.690
 4743SOL    HW214562   2.765   3.321   5.572
 4744SOL     OW14563   2.523   3.652   6.539
 4744SOL    HW114564   2.477   3.740   6.526
 4744SOL    HW214565   2.622   3.664   6.532
 4745SOL     OW14566   2.721   2.818   6.447
 4745SOL    HW114567   2.775   2.749   6.495
 4745SOL    HW214568   2.689   2.887   6.513
 4746SOL     OW14569   2.945   2.846   5.673
 4746SOL    HW114570   2.922   2.899   5.591
 4746SOL    HW214571   3.026   2.790   5.654
 4747SOL     OW14572   3.723   3.431   6.437
 4747SOL    HW114573   3.652   3.419   6.367
 4747SOL    HW214574   3.724   3.352   6.497
 4748SOL     OW14575   2.083   3.176   7.430
 4748SOL    HW114576   2.018   3.103   7.409
 4748SOL    HW214577   2.087   3.190   7.528
 4749SOL     OW14578   1.941   3.102   6.239
 4749SOL    HW114579   1.940   3.055   6.327
 4749SOL    HW214580   2.023   3.074   6.188
 4750SOL     OW14581   2.534   3.253   7.210
 4750SOL    HW114582   2.456   3.203   7.248
 4750SOL    HW214583   2.531   3.348   7.241
 4751SOL     OW14584   3.686   2.054   6.813
 4751SOL    HW114585   3.682   1.964   6.857
 4751SOL    HW214586   3.689   2.043   6.714
 4752SOL     OW14587   3.567   3.349   6.690
 4752SOL    HW114588   3.474   3.324   6.663
 4752SOL    HW214589   3.593   3.299   6.772
 4753SOL     OW14590   2.674   3.448   6.273
 4753SOL    HW114591   2.706   3.458   6.179
 4753SOL    HW214592   2.595   3.386   6.275
 4754SOL     OW14593   3.286   2.076   6.698
 4754SOL    HW114594   3.338   2.011   6.753
 4754SOL    HW214595   3.237   2.139   6.759
 4755SOL     OW14596   2.863   1.896   6.740
 4755SOL    HW114597   2.800   1.824   6.709
 4755SOL    HW214598   2.956   1.860   6.740
 4756SOL     OW14599   2.632   3.192   5.887
 4756SOL    HW114600   2.586   3.105   5.904
 4756SOL    HW214601   2.723   3.189   5.928
 4757SOL     OW14602   2.480   3.429   6.870
 4757SOL    HW114603   2.475   3.511   6.927
 4757SOL    HW214604   2.569   3.426   6.825
 4758SOL     OW14605   3.214   1.914   5.754
 4758SOL    HW114606   3.249   1.873   5.670
 4758SOL    HW214607   3.124   1.876   5.774
 4759SOL     OW14608   3.162   2.315   6.277
 4759SOL    HW114609   3.103   2.395   6.281
 4759SOL    HW214610   3.177   2.280   6.370
 4760SOL     OW14611   3.455   2.083   6.468
 4760SOL    HW114612   3.371   2.082   6.522
 4760SOL    HW214613   3.457   2.166   6.412
 4761SOL     OW14614   1.901   2.939   5.886
 4761SOL    HW114615   2.000   2.928   5.877
 4761SOL    HW214616   1.861   2.853   5.918
 4762SOL     OW14617   2.737   3.508   5.923
 4762SOL    HW114618   2.660   3.473   5.869
 4762SOL    HW214619   2.705   3.579   5.985
 4763SOL     OW14620   2.092   2.490   7.561
 4763SOL    HW114621   1.999   2.488   7.598
 4763SOL    HW214622   2.093   2.451   7.469
 4764SOL     OW14623   2.087   2.137   8.444
 4764SOL    HW114624   2.122   2.120   8.536
 4764SOL    HW214625   1.999   2.092   8.432
 4765SOL     OW14626   1.881   2.230   8.095
 4765SOL    HW114627   1.799   2.273   8.134
 4765SOL    HW214628   1.853   2.157   8.032
 4766SOL     OW14629   2.431   3.137   8.613
 4766SOL    HW114630   2.338   3.130   8.576
 4766SOL    HW214631   2.442   3.226   8.657
 4767SOL     OW14632   3.417   3.373   8.151
 4767SOL    HW114633   3.360   3.357   8.232
 4767SOL    HW214634   3.358   3.383   8.071
 4768SOL     OW14635   2.997   2.565   8.165
 4768SOL    HW114636   3.054   2.643   8.140
 4768SOL    HW214637   2.937   2.591   8.241
 4769SOL     OW14638   3.617   2.469   7.679
 4769SOL    HW114639   3.605   2.456   7.580
 4769SOL    HW214640   3.587   2.388   7.728
 4770SOL     OW14641   2.630   3.006   8.471
 4770SOL    HW114642   2.552   3.023   8.531
 4770SOL    HW214643   2.664   3.093   8.435
 4771SOL     OW14644   2.712   2.660   9.271
 4771SOL    HW114645   2.708   2.736   9.336
 4771SOL    HW214646   2.734   2.696   9.180
 4772SOL     OW14647   2.547   2.874   8.113
 4772SOL    HW114648   2.616   2.858   8.183
 4772SOL    HW214649   2.474   2.931   8.151
 4773SOL     OW14650   2.548   3.023   9.251
 4773SOL    HW114651   2.608   3.102   9.265
 4773SOL    HW214652   2.462   3.054   9.210
 4774SOL     OW14653   2.197   3.297   8.509
 4774SOL    HW114654   2.119   3.266   8.456
 4774SOL    HW214655   2.255   3.355   8.452
 4775SOL     OW14656   3.322   3.367   8.787
 4775SOL    HW114657   3.346   3.461   8.813
 4775SOL    HW214658   3.306   3.313   8.869
 4776SOL     OW14659   3.465   2.309   8.185
 4776SOL    HW114660   3.391   2.355   8.135
 4776SOL    HW214661   3.516   2.377   8.238
 4777SOL     OW14662   2.093   3.575   7.931
 4777SOL    HW114663   2.127   3.652   7.985
 4777SOL    HW214664   2.137   3.575   7.841
 4778SOL     OW14665   2.989   3.203   9.138
 4778SOL    HW114666   3.036   3.203   9.226
 4778SOL    HW214667   2.941   3.116   9.127
 4779SOL     OW14668   2.092   3.296   7.986
 4779SOL    HW114669   2.066   3.392   7.986
 4779SOL    HW214670   2.021   3.242   8.031
 4780SOL     OW14671   2.102   2.953   8.334
 4780SOL    HW114672   2.116   2.869   8.386
 4780SOL    HW214673   2.047   3.017   8.389
 4781SOL     OW14674   2.482   3.648   8.887
 4781SOL    HW114675   2.390   3.631   8.922
 4781SOL    HW214676   2.510   3.740   8.913
 4782SOL     OW14677   2.468   2.826   7.571
 4782SOL    HW114678   2.475   2.910   7.517
 4782SOL    HW214679   2.514   2.839   7.659
 4783SOL     OW14680   3.456   1.976   8.928
 4783SOL    HW114681   3.438   2.043   8.856
 4783SOL    HW214682   3.453   2.022   9.017
 4784SOL     OW14683   1.984   2.505   8.011
 4784SOL    HW114684   1.939   2.417   8.028
 4784SOL    HW214685   1.983   2.559   8.095
 4785SOL     OW14686   3.704   3.629   7.807
 4785SOL    HW114687   3.758   3.600   7.887
 4785SOL    HW214688   3.734   3.719   7.778
 4786SOL     OW14689   1.889   3.458   7.565
 4786SOL    HW114690   1.870   3.362   7.586
 4786SOL    HW214691   1.856   3.516   7.640
 4787SOL     OW14692   3.551   2.784   8.060
 4787SOL    HW114693   3.646   2.755   8.068
 4787SOL    HW214694   3.543   2.849   7.985
 4788SOL     OW14695   3.503   2.970   7.880
 4788SOL    HW114696   3.589   2.972   7.828
 4788SOL    HW214697   3.517   3.017   7.968
 4789SOL     OW14698   1.975   2.599   9.045
 4789SOL    HW114699   2.063   2.586   9.090
 4789SOL    HW214700   1.962   2.696   9.023
 4790SOL     OW14701   2.475   3.227   8.174
 4790SOL    HW114702   2.426   3.140   8.183
 4790SOL    HW214703   2.452   3.270   8.087
 4791SOL     OW14704   3.155   3.090   8.871
 4791SOL    HW114705   3.192   3.017   8.813
 4791SOL    HW214706   3.207   3.095   8.956
 4792SOL     OW14707   2.671   1.866   7.950
 4792SOL    HW114708   2.711   1.957   7.941
 4792SOL    HW214709   2.571   1.874   7.956
 4793SOL     OW14710   2.059   2.838   8.712
 4793SOL    HW114711   2.148   2.793   8.698
 4793SOL    HW214712   1.986   2.773   8.693
 4794SOL     OW14713   3.387   2.861   7.638
 4794SOL    HW114714   3.324   2.785   7.651
 4794SOL    HW214715   3.435   2.879   7.724
 4795SOL     OW14716   3.049   3.654   9.064
 4795SOL    HW114717   3.073   3.714   8.988
 4795SOL    HW214718   3.056   3.559   9.034
 4796SOL     OW14719   2.179   2.113   9.249
 4796SOL    HW114720   2.250   2.184   9.255
 4796SOL    HW214721   2.091   2.152   9.277
 4797SOL     OW14722   3.328   3.279   8.401
 4797SOL    HW114723   3.269   3.285   8.481
 4797SOL    HW214724   3.313   3.191   8.355
 4798SOL     OW14725   3.529   3.576   8.020
 4798SOL    HW114726   3.488   3.553   7.932
 4798SOL    HW214727   3.511   3.502   8.085
 4799SOL     OW14728   2.460   2.591   7.718
 4799SOL    HW114729   2.484   2.660   7.650
 4799SOL    HW214730   2.382   2.624   7.772
 4800SOL     OW14731   3.143   2.207   8.392
 4800SOL    HW114732   3.057   2.157   8.379
 4800SOL    HW214733   3.205   2.153   8.448
 4801SOL     OW14734   3.438   3.524   7.755
 4801SOL    HW114735   3.527   3.570   7.758
 4801SOL    HW214736   3.417   3.500   7.660
 4802SOL     OW14737   3.256   2.331   9.122
 4802SOL    HW114738   3.236   2.374   9.210
 4802SOL    HW214739   3.334   2.269   9.131
 4803SOL     OW14740   2.835   2.752   9.020
 4803SOL    HW114741   2.881   2.668   8.991
 4803SOL    HW214742   2.779   2.786   8.945
 4804SOL     OW14743   2.853   2.272   8.690
 4804SOL    HW114744   2.776   2.306   8.744
 4804SOL    HW214745   2.819   2.221   8.611
 4805SOL     OW14746   2.903   2.563   7.877
 4805SOL    HW114747   2.929   2.559   7.973
 4805SOL    HW214748   2.818   2.512   7.863
 4806SOL     OW14749   1.938   2.673   8.237
 4806SOL    HW114750   2.037   2.661   8.246
 4806SOL    HW214751   1.914   2.768   8.258
 4807SOL     OW14752   1.992   3.683   9.019
 4807SOL    HW114753   1.982   3.668   9.118
 4807SOL    HW214754   1.906   3.719   8.983
 4808SOL     OW14755   2.727   2.210   7.643
 4808SOL    HW114756   2.786   2.273   7.594
 4808SOL    HW214757   2.746   2.116   7.614
 4809SOL     OW14758   3.581   2.447   9.279
 4809SOL    HW114759   3.555   2.536   9.243
 4809SOL    HW214760   3.579   2.379   9.206
 4810SOL     OW14761   3.224   3.006   7.993
 4810SOL    HW114762   3.307   2.977   7.945
 4810SOL    HW214763   3.175   3.073   7.937
 4811SOL     OW14764   2.870   3.318   7.925
 4811SOL    HW114765   2.824   3.390   7.873
 4811SOL    HW214766   2.866   3.338   8.023
 4812SOL     OW14767   2.213   3.663   8.301
 4812SOL    HW114768   2.263   3.577   8.307
 4812SOL    HW214769   2.278   3.740   8.298
 4813SOL     OW14770   3.657   2.928   8.321
 4813SOL    HW114771   3.595   2.913   8.245
 4813SOL    HW214772   3.605   2.939   8.406
 4814SOL     OW14773   3.089   3.412   8.954
 4814SOL    HW114774   3.095   3.335   9.018
 4814SOL    HW214775   3.037   3.386   8.874
 4815SOL     OW14776   2.183   2.805   7.690
 4815SOL    HW114777   2.265   2.844   7.648
 4815SOL    HW214778   2.156   2.723   7.641
 4816SOL     OW14779   3.320   2.597   8.176
 4816SOL    HW114780   3.315   2.532   8.251
 4816SOL    HW214781   3.400   2.656   8.189
 4817SOL     OW14782   2.323   3.128   9.175
 4817SOL    HW114783   2.273   3.129   9.089
 4817SOL    HW214784   2.260   3.110   9.251
 4818SOL     OW14785   2.973   3.638   7.685
 4818SOL    HW114786   2.913   3.576   7.735
 4818SOL    HW214787   3.004   3.594   7.600
 4819SOL     OW14788   2.064   2.147   8.946
 4819SOL    HW114789   1.984   2.207   8.933
 4819SOL    HW214790   2.054   2.098   9.032
 4820SOL     OW14791   3.494   3.239   7.529
 4820SOL    HW114792   3.462   3.333   7.519
 4820SOL    HW214793   3.418   3.176   7.517
 4821SOL     OW14794   2.326   3.605   7.771
 4821SOL    HW114795   2.359   3.644   7.857
 4821SOL    HW214796   2.402   3.598   7.706
 4822SOL     OW14797   3.262   1.969   7.874
 4822SOL    HW114798   3.238   1.932   7.784
 4822SOL    HW214799   3.361   1.985   7.878
 4823SOL     OW14800   2.111   3.647   8.689
 4823SOL    HW114801   2.168   3.582   8.739
 4823SOL    HW214802   2.095   3.614   8.596
 4824SOL     OW14803   2.802   3.560   8.352
 4824SOL    HW114804   2.882   3.503   8.373
 4824SOL    HW214805   2.753   3.520   8.275
 4825SOL     OW14806   3.409   2.084   9.177
 4825SOL    HW114807   3.404   2.121   9.269
 4825SOL    HW214808   3.337   2.015   9.165
 4826SOL     OW14809   2.476   1.984   7.565
 4826SOL    HW114810   2.574   1.962   7.572
 4826SOL    HW214811   2.445   1.967   7.472
 4827SOL     OW14812   2.643   2.126   9.197
 4827SOL    HW114813   2.710   2.065   9.240
 4827SOL    HW214814   2.570   2.145   9.262
 4828SOL     OW14815   2.750   3.376   8.643
 4828SOL    HW114816   2.727   3.351   8.549
 4828SOL    HW214817   2.811   3.307   8.682
 4829SOL     OW14818   3.213   2.452   8.881
 4829SOL    HW114819   3.241   2.409   8.966
 4829SOL    HW214820   3.238   2.548   8.882
 4830SOL     OW14821   2.665   3.264   8.372
 4830SOL    HW114822   2.755   3.278   8.330
 4830SOL    HW214823   2.594   3.266   8.301
 4831SOL     OW14824   2.784   2.365   8.347
 4831SOL    HW114825   2.759   2.356   8.251
 4831SOL    HW214826   2.832   2.283   8.378
 4832SOL     OW14827   2.401   1.926   7.960
 4832SOL    HW114828   2.320   1.927   8.018
 4832SOL    HW214829   2.404   2.009   7.905
 4833SOL     OW14830   3.296   3.050   7.489
 4833SOL    HW114831   3.328   2.974   7.546
 4833SOL    HW214832   3.204   3.077   7.519
 4834SOL     OW14833   2.159   1.897   7.619
 4834SOL    HW114834   2.208   1.981   7.598
 4834SOL    HW214835   2.221   1.832   7.664
 4835SOL     OW14836   2.797   2.098   7.928
 4835SOL    HW114837   2.749   2.139   7.850
 4835SOL    HW214838   2.896   2.096   7.909
 4836SOL     OW14839   2.938   2.545   8.912
 4836SOL    HW114840   2.858   2.484   8.915
 4836SOL    HW214841   3.019   2.492   8.888
 4837SOL     OW14842   3.089   3.432   8.241
 4837SOL    HW114843   3.110   3.506   8.176
 4837SOL    HW214844   3.157   3.432   8.314
 4838SOL     OW14845   2.321   3.014   8.189
 4838SOL    HW114846   2.250   2.987   8.254
 4838SOL    HW214847   2.295   2.986   8.096
 4839SOL     OW14848   3.133   3.659   8.039
 4839SOL    HW114849   3.177   3.723   7.975
 4839SOL    HW214850   3.083   3.711   8.109
 4840SOL     OW14851   2.894   2.411   7.464
 4840SOL    HW114852   2.853   2.493   7.425
 4840SOL    HW214853   2.958   2.437   7.537
 4841SOL     OW14854   1.940   2.418   8.834
 4841SOL    HW114855   2.032   2.417   8.793
 4841SOL    HW214856   1.934   2.492   8.901
 4842SOL     OW14857   2.423   2.084   8.595
 4842SOL    HW114858   2.461   2.000   8.632
 4842SOL    HW214859   2.335   2.103   8.639
 4843SOL     OW14860   2.728   2.316   8.090
 4843SOL    HW114861   2.696   2.388   8.028
 4843SOL    HW214862   2.752   2.235   8.037
 4844SOL     OW14863   2.879   1.901   8.201
 4844SOL    HW114864   2.807   1.906   8.132
 4844SOL    HW214865   2.855   1.832   8.270
 4845SOL     OW14866   3.291   3.035   8.315
 4845SOL    HW114867   3.236   2.951   8.308
 4845SOL    HW214868   3.317   3.064   8.223
 4846SOL     OW14869   3.328   2.452   8.440
 4846SOL    HW114870   3.298   2.357   8.447
 4846SOL    HW214871   3.401   2.468   8.506
 4847SOL     OW14872   3.719   2.695   7.825
 4847SOL    HW114873   3.761   2.631   7.889
 4847SOL    HW214874   3.681   2.644   7.747
 4848SOL     OW14875   2.350   3.247   7.622
 4848SOL    HW114876   2.263   3.232   7.669
 4848SOL    HW214877   2.333   3.273   7.527
 4849SOL     OW14878   3.526   3.142   8.105
 4849SOL    HW114879   3.625   3.150   8.119
 4849SOL    HW214880   3.481   3.226   8.136
 4850SOL     OW14881   3.252   2.437   7.526
 4850SOL    HW114882   3.198   2.416   7.607
 4850SOL    HW214883   3.343   2.396   7.535
 4851SOL     OW14884   3.616   3.085   9.036
 4851SOL    HW114885   3.707   3.046   9.023
 4851SOL    HW214886   3.624   3.181   9.060
 4852SOL     OW14887   2.926   3.209   8.788
 4852SOL    HW114888   2.846   3.186   8.843
 4852SOL    HW214889   3.009   3.183   8.837
 4853SOL     OW14890   3.454   3.491   9.073
 4853SOL    HW114891   3.481   3.525   8.983
 4853SOL    HW214892   3.533   3.453   9.119
 4854SOL     OW14893   2.973   3.057   8.548
 4854SOL    HW114894   2.933   3.101   8.629
 4854SOL    HW214895   2.932   3.094   8.465
 4855SOL     OW14896   3.500   2.961   8.527
 4855SOL    HW114897   3.505   3.042   8.586
 4855SOL    HW214898   3.414   2.963   8.476
 4856SOL     OW14899   2.777   1.951   8.850
 4856SOL    HW114900   2.802   1.931   8.755
 4856SOL    HW214901   2.849   2.007   8.892
 4857SOL     OW14902   2.842   2.978   9.167
 4857SOL    HW114903   2.743   2.984   9.177
 4857SOL    HW214904   2.865   2.898   9.111
 4858SOL     OW14905   2.567   2.912   7.816
 4858SOL    HW114906   2.553   2.919   7.915
 4858SOL    HW214907   2.651   2.861   7.798
 4859SOL     OW14908   2.272   2.675   8.699
 4859SOL    HW114909   2.358   2.687   8.749
 4859SOL    HW214910   2.230   2.588   8.726
 4860SOL     OW14911   3.136   2.248   8.710
 4860SOL    HW114912   3.157   2.322   8.774
 4860SOL    HW214913   3.047   2.265   8.667
 4861SOL     OW14914   1.926   3.426   8.779
 4861SOL    HW114915   1.880   3.508   8.745
 4861SOL    HW214916   2.024   3.445   8.788
 4862SOL     OW14917   2.229   2.962   7.949
 4862SOL    HW114918   2.222   3.045   7.893
 4862SOL    HW214919   2.233   2.882   7.889
 4863SOL     OW14920   3.114   3.210   7.836
 4863SOL    HW114921   3.164   3.287   7.876
 4863SOL    HW214922   3.019   3.212   7.868
 4864SOL     OW14923   3.134   3.307   8.590
 4864SOL    HW114924   3.181   3.320   8.677
 4864SOL    HW214925   3.068   3.233   8.599
 4865SOL     OW14926   3.444   2.501   7.920
 4865SOL    HW114927   3.413   2.562   7.993
 4865SOL    HW214928   3.494   2.553   7.851
 4866SOL     OW14929   2.216   3.372   8.777
 4866SOL    HW114930   2.195   3.328   8.690
 4866SOL    HW214931   2.313   3.398   8.780
 4867SOL     OW14932   2.264   2.613   9.046
 4867SOL    HW114933   2.332   2.668   8.999
 4867SOL    HW214934   2.304   2.525   9.073
 4868SOL     OW14935   3.449   2.641   9.118
 4868SOL    HW114936   3.357   2.679   9.113
 4868SOL    HW214937   3.509   2.688   9.053
 4869SOL     OW14938   2.875   1.967   9.218
 4869SOL    HW114939   2.881   2.052   9.166
 4869SOL    HW214940   2.907   1.891   9.161
 4870SOL     OW14941   2.366   1.912   9.188
 4870SOL    HW114942   2.324   1.855   9.118
 4870SOL    HW214943   2.300   1.981   9.220
 4871SOL     OW14944   2.435   2.732   8.477
 4871SOL    HW114945   2.479   2.821   8.468
 4871SOL    HW214946   2.372   2.732   8.554
 4872SOL     OW14947   3.222   2.724   8.493
 4872SOL    HW114948   3.147   2.724   8.427
 4872SOL    HW214949   3.259   2.632   8.502
 4873SOL     OW14950   3.071   2.387   7.723
 4873SOL    HW114951   3.084   2.303   7.777
 4873SOL    HW214952   3.042   2.461   7.783
 4874SOL     OW14953   2.169   2.075   8.679
 4874SOL    HW114954   2.146   2.112   8.769
 4874SOL    HW214955   2.139   1.980   8.673
 4875SOL     OW14956   1.899   3.172   8.730
 4875SOL    HW114957   1.952   3.123   8.798
 4875SOL    HW214958   1.921   3.270   8.735
 4876SOL     OW14959   2.594   2.496   8.512
 4876SOL    HW114960   2.653   2.470   8.436
 4876SOL    HW214961   2.566   2.592   8.501
 4877SOL     OW14962   3.590   2.797   9.302
 4877SOL    HW114963   3.544   2.790   9.213
 4877SOL    HW214964   3.528   2.841   9.368
 4878SOL     OW14965   2.169   1.925   8.066
 4878SOL    HW114966   2.158   2.019   8.099
 4878SOL    HW214967   2.164   1.862   8.143
 4879SOL     OW14968   3.484   2.229   7.822
 4879SOL    HW114969   3.486   2.153   7.886
 4879SOL    HW214970   3.436   2.306   7.862
 4880SOL     OW14971   2.885   2.628   8.414
 4880SOL    HW114972   2.900   2.649   8.510
 4880SOL    HW214973   2.855   2.533   8.405
 4881SOL     OW14974   2.842   3.435   9.148
 4881SOL    HW114975   2.822   3.479   9.060
 4881SOL    HW214976   2.881   3.344   9.132
 4882SOL     OW14977   3.721   3.380   9.053
 4882SOL    HW114978   3.735   3.407   8.958
 4882SOL    HW214979   3.804   3.402   9.106
 4883SOL     OW14980   2.212   2.760   9.252
 4883SOL    HW114981   2.288   2.804   9.300
 4883SOL    HW214982   2.247   2.713   9.170
 4884SOL     OW14983   3.402   2.136   7.573
 4884SOL    HW114984   3.341   2.061   7.596
 4884SOL    HW214985   3.424   2.188   7.656
 4885SOL     OW14986   3.165   2.700   7.490
 4885SOL    HW114987   3.199   2.607   7.505
 4885SOL    HW214988   3.183   2.727   7.395
 4886SOL     OW14989   2.930   3.195   8.297
 4886SOL    HW114990   2.937   3.111   8.242
 4886SOL    HW214991   2.992   3.264   8.261
 4887SOL     OW14992   2.181   2.672   8.397
 4887SOL    HW114993   2.274   2.708   8.402
 4887SOL    HW214994   2.175   2.587   8.449
 4888SOL     OW14995   3.000   2.242   9.126
 4888SOL    HW114996   2.955   2.305   9.190
 4888SOL    HW214997   3.093   2.273   9.109
 4889SOL     OW14998   3.022   2.069   8.925
 4889SOL    HW114999   3.022   2.133   9.002
 4889SOL    HW215000   3.050   2.117   8.842
 4890SOL     OW15001   1.870   3.188   7.648
 4890SOL    HW115002   1.777   3.209   7.617
 4890SOL    HW215003   1.880   3.089   7.661
 4891SOL     OW15004   1.950   3.663   8.375
 4891SOL    HW115005   1.908   3.577   8.348
 4891SOL    HW215006   2.044   3.666   8.341
 4892SOL     OW15007   2.366   3.430   8.358
 4892SOL    HW115008   2.432   3.504   8.367
 4892SOL    HW215009   2.410   3.351   8.316
 4893SOL     OW15010   2.864   2.658   8.686
 4893SOL    HW115011   2.905   2.626   8.772
 4893SOL    HW215012   2.768   2.631   8.683
 4894SOL     OW15013   1.902   2.406   8.562
 4894SOL    HW115014   1.987   2.373   8.521
 4894SOL    HW215015   1.915   2.421   8.660
 4895SOL     OW15016   3.231   2.812   9.108
 4895SOL    HW115017   3.270   2.901   9.128
 4895SOL    HW215018   3.241   2.792   9.011
 4896SOL     OW15019   2.677   2.434   7.773
 4896SOL    HW115020   2.684   2.345   7.727
 4896SOL    HW215021   2.583   2.468   7.765
 4897SOL     OW15022   3.519   2.466   8.654
 4897SOL    HW115023   3.481   2.397   8.716
 4897SOL    HW215024   3.601   2.430   8.610
 4898SOL     OW15025   2.114   3.426   9.192
 4898SOL    HW115026   2.084   3.483   9.268
 4898SOL    HW215027   2.107   3.329   9.218
 4899SOL     OW15028   2.792   3.540   8.913
 4899SOL    HW115029   2.768   3.522   8.818
 4899SOL    HW215030   2.822   3.634   8.923
 4900SOL     OW15031   2.021   2.999   8.914
 4900SOL    HW115032   2.043   2.938   8.990
 4900SOL    HW215033   2.031   2.950   8.828
 4901SOL     OW15034   3.209   2.921   8.682
 4901SOL    HW115035   3.233   2.858   8.608
 4901SOL    HW215036   3.119   2.961   8.664
 4902SOL     OW15037   3.164   2.717   7.757
 4902SOL    HW115038   3.078   2.686   7.799
 4902SOL    HW215039   3.160   2.703   7.658
 4903SOL     OW15040   3.621   3.609   8.602
 4903SOL    HW115041   3.682   3.639   8.529
 4903SOL    HW215042   3.583   3.520   8.580
 4904SOL     OW15043   3.114   3.593   8.576
 4904SOL    HW115044   3.198   3.598   8.522
 4904SOL    HW215045   3.091   3.497   8.594
 4905SOL     OW15046   1.945   3.120   8.470
 4905SOL    HW115047   1.940   3.119   8.570
 4905SOL    HW215048   1.862   3.079   8.432
 4906SOL     OW15049   2.550   3.524   9.164
 4906SOL    HW115050   2.494   3.605   9.173
 4906SOL    HW215051   2.602   3.528   9.078
 4907SOL     OW15052   3.588   1.997   7.971
 4907SOL    HW115053   3.661   1.980   7.904
 4907SOL    HW215054   3.557   1.910   8.009
 4908SOL     OW15055   3.250   3.435   7.925
 4908SOL    HW115056   3.317   3.447   7.851
 4908SOL    HW215057   3.210   3.524   7.948
 4909SOL     OW15058   1.992   3.656   9.299
 4909SOL    HW115059   1.951   3.582   9.352
 4909SOL    HW215060   2.056   3.707   9.357
 4910SOL     OW15061   3.142   2.789   8.120
 4910SOL    HW115062   3.202   2.708   8.122
 4910SOL    HW215063   3.182   2.858   8.060
 4911SOL     OW15064   2.692   3.135   8.870
 4911SOL    HW115065   2.687   3.168   8.965
 4911SOL    HW215066   2.606   3.154   8.824
 4912SOL     OW15067   2.534   3.478   7.602
 4912SOL    HW115068   2.543   3.488   7.503
 4912SOL    HW215069   2.494   3.389   7.623
 4913SOL     OW15070   3.512   3.582   8.842
 4913SOL    HW115071   3.565   3.592   8.758
 4913SOL    HW215072   3.485   3.672   8.876
 4914SOL     OW15073   3.703   2.037   8.411
 4914SOL    HW115074   3.742   1.952   8.375
 4914SOL    HW215075   3.605   2.039   8.392
 4915SOL     OW15076   2.125   2.188   8.168
 4915SOL    HW115077   2.046   2.239   8.134
 4915SOL    HW215078   2.116   2.173   8.266
 4916SOL     OW15079   3.056   3.474   7.479
 4916SOL    HW115080   3.062   3.381   7.516
 4916SOL    HW215081   2.997   3.474   7.399
 4917SOL     OW15082   2.684   2.864   8.820
 4917SOL    HW115083   2.724   2.863   8.728
 4917SOL    HW215084   2.694   2.956   8.860
 4918SOL     OW15085   2.778   2.772   7.739
 4918SOL    HW115086   2.841   2.810   7.671
 4918SOL    HW215087   2.818   2.689   7.778
 4919SOL     OW15088   3.366   3.469   7.492
 4919SOL    HW115089   3.274   3.506   7.499
 4919SOL    HW215090   3.404   3.489   7.402
 4920SOL     OW15091   2.234   3.150   8.938
 4920SOL    HW115092   2.221   3.243   8.904
 4920SOL    HW215093   2.150   3.098   8.925
 4921SOL     OW15094   3.476   3.154   8.737
 4921SOL    HW115095   3.536   3.157   8.817
 4921SOL    HW215096   3.401   3.218   8.750
 4922SOL     OW15097   2.901   2.960   8.144
 4922SOL    HW115098   2.831   2.913   8.198
 4922SOL    HW215099   2.960   2.892   8.101
 4923SOL     OW15100   2.876   2.098   8.419
 4923SOL    HW115101   2.868   2.062   8.326
 4923SOL    HW215102   2.874   2.022   8.484
 4924SOL     OW15103   2.452   3.349   7.939
 4924SOL    HW115104   2.494   3.291   7.869
 4924SOL    HW215105   2.408   3.428   7.895
 4925SOL     OW15106   3.571   2.247   8.829
 4925SOL    HW115107   3.644   2.316   8.833
 4925SOL    HW215108   3.599   2.172   8.770
 4926SOL     OW15109   2.117   3.210   7.738
 4926SOL    HW115110   2.021   3.211   7.711
 4926SOL    HW215111   2.129   3.263   7.822
 4927SOL     OW15112   1.967   2.875   9.174
 4927SOL    HW115113   1.890   2.842   9.228
 4927SOL    HW215114   2.052   2.845   9.216
 4928SOL     OW15115   2.534   2.065   8.937
 4928SOL    HW115116   2.624   2.049   8.897
 4928SOL    HW215117   2.542   2.070   9.036
 4929SOL     OW15118   1.937   2.207   7.481
 4929SOL    HW115119   1.845   2.179   7.452
 4929SOL    HW215120   1.968   2.284   7.425
 4930SOL     OW15121   3.302   2.718   8.846
 4930SOL    HW115122   3.245   2.770   8.783
 4930SOL    HW215123   3.398   2.730   8.822
 4931SOL     OW15124   1.934   2.028   7.766
 4931SOL    HW115125   1.917   2.111   7.712
 4931SOL    HW215126   2.024   1.991   7.744
 4932SOL     OW15127   3.045   3.197   7.567
 4932SOL    HW115128   2.946   3.186   7.569
 4932SOL    HW215129   3.079   3.212   7.660
 4933SOL     OW15130   2.475   2.704   8.879
 4933SOL    HW115131   2.531   2.785   8.862
 4933SOL    HW215132   2.534   2.624   8.882
 4934SOL     OW15133   3.355   3.629   8.407
 4934SOL    HW115134   3.388   3.693   8.338
 4934SOL    HW215135   3.421   3.623   8.482
 4935SOL     OW15136   3.312   3.082   9.081
 4935SOL    HW115137   3.303   3.072   9.180
 4935SOL    HW215138   3.408   3.075   9.055
 4936SOL     OW15139   2.252   3.603   9.008
 4936SOL    HW115140   2.161   3.644   9.006
 4936SOL    HW215141   2.245   3.509   9.040
 4937SOL     OW15142   3.536   2.745   8.702
 4937SOL    HW115143   3.509   2.656   8.665
 4937SOL    HW215144   3.537   2.813   8.629
 4938SOL     OW15145   3.087   2.187   7.897
 4938SOL    HW115146   3.152   2.113   7.886
 4938SOL    HW215147   3.107   2.237   7.981
 4939SOL     OW15148   3.639   2.204   9.090
 4939SOL    HW115149   3.622   2.235   8.996
 4939SOL    HW215150   3.555   2.167   9.128
 4940SOL     OW15151   3.592   2.796   8.965
 4940SOL    HW115152   3.630   2.887   8.980
 4940SOL    HW215153   3.584   2.779   8.866
 4941SOL     OW15154   2.721   3.236   7.464
 4941SOL    HW115155   2.675   3.251   7.552
 4941SOL    HW215156   2.765   3.321   7.434
 4942SOL     OW15157   2.523   3.652   8.401
 4942SOL    HW115158   2.477   3.740   8.388
 4942SOL    HW215159   2.622   3.664   8.394
 4943SOL     OW15160   2.721   2.818   8.309
 4943SOL    HW115161   2.775   2.749   8.357
 4943SOL    HW215162   2.689   2.887   8.375
 4944SOL     OW15163   2.945   2.846   7.535
 4944SOL    HW115164   2.922   2.899   7.453
 4944SOL    HW215165   3.026   2.790   7.516
 4945SOL     OW15166   3.723   3.431   8.299
 4945SOL    HW115167   3.652   3.419   8.229
 4945SOL    HW215168   3.724   3.352   8.359
 4946SOL     OW15169   2.083   3.176   9.292
 4946SOL    HW115170   2.018   3.103   9.271
 4946SOL    HW215171   2.087   3.190   9.390
 4947SOL     OW15172   1.941   3.102   8.101
 4947SOL    HW115173   1.940   3.055   8.189
 4947SOL    HW215174   2.023   3.074   8.050
 4948SOL     OW15175   2.534   3.253   9.072
 4948SOL    HW115176   2.456   3.203   9.110
 4948SOL    HW215177   2.531   3.348   9.103
 4949SOL     OW15178   3.686   2.054   8.675
 4949SOL    HW115179   3.682   1.964   8.719
 4949SOL    HW215180   3.689   2.043   8.576
 4950SOL     OW15181   3.567   3.349   8.552
 4950SOL    HW115182   3.474   3.324   8.525
 4950SOL    HW215183   3.593   3.299   8.634
 4951SOL     OW15184   2.674   3.448   8.135
 4951SOL    HW115185   2.706   3.458   8.041
 4951SOL    HW215186   2.595   3.386   8.137
 4952SOL     OW15187   3.286   2.076   8.560
 4952SOL    HW115188   3.338   2.011   8.615
 4952SOL    HW215189   3.237   2.139   8.621
 4953SOL     OW15190   2.863   1.896   8.602
 4953SOL    HW115191   2.800   1.824   8.571
 4953SOL    HW215192   2.956   1.860   8.602
 4954SOL     OW15193   2.632   3.192   7.749
 4954SOL    HW115194   2.586   3.105   7.766
 4954SOL    HW215195   2.723   3.189   7.790
 4955SOL     OW15196   2.480   3.429   8.732
 4955SOL    HW115197   2.475   3.511   8.789
 4955SOL    HW215198   2.569   3.426   8.687
 4956SOL     OW15199   3.214   1.914   7.616
 4956SOL    HW115200   3.249   1.873   7.532
 4956SOL    HW215201   3.124   1.876   7.636
 4957SOL     OW15202   3.162   2.315   8.139
 4957SOL    HW115203   3.103   2.395   8.143
 4957SOL    HW215204   3.177   2.280   8.232
 4958SOL     OW15205   3.455   2.083   8.330
 4958SOL    HW115206   3.371   2.082   8.384
 4958SOL    HW215207   3.457   2.166   8.274
 4959SOL     OW15208   1.901   2.939   7.748
 4959SOL    HW115209   2.000   2.928   7.739
 4959SOL    HW215210   1.861   2.853   7.780
 4960SOL     OW15211   2.737   3.508   7.785
 4960SOL    HW115212   2.660   3.473   7.731
 4960SOL    HW215213   2.705   3.579   7.847
 4961SOL     OW15214   2.092   2.490   9.423
 4961SOL    HW115215   1.999   2.488   9.460
 4961SOL    HW215216   2.093   2.451   9.331
 4962SOL     OW15217   3.617   2.469   9.541
 4962SOL    HW115218   3.605   2.456   9.442
 4962SOL    HW215219   3.587   2.388   9.590
 4963SOL     OW15220   2.093   3.575   9.793
 4963SOL    HW115221   2.127   3.652   9.847
 4963SOL    HW215222   2.137   3.575   9.703
 4964SOL     OW15223   2.092   3.296   9.848
 4964SOL    HW115224   2.066   3.392   9.848
 4964SOL    HW215225   2.021   3.242   9.893
 4965SOL     OW15226   2.468   2.826   9.433
 4965SOL    HW115227   2.475   2.910   9.379
 4965SOL    HW215228   2.514   2.839   9.521
 4966SOL     OW15229   1.984   2.505   9.873
 4966SOL    HW115230   1.939   2.417   9.890
 4966SOL    HW215231   1.983   2.559   9.957
 4967SOL     OW15232   3.704   3.629   9.669
 4967SOL    HW115233   3.758   3.600   9.749
 4967SOL    HW215234   3.734   3.719   9.640
 4968SOL     OW15235   1.889   3.458   9.427
 4968SOL    HW115236   1.870   3.362   9.448
 4968SOL    HW215237   1.856   3.516   9.502
 4969SOL     OW15238   3.551   2.784   9.922
 4969SOL    HW115239   3.646   2.755   9.930
 4969SOL    HW215240   3.543   2.849   9.847
 4970SOL     OW15241   3.503   2.970   9.742
 4970SOL    HW115242   3.589   2.972   9.690
 4970SOL    HW215243   3.517   3.017   9.830
 4971SOL     OW15244   2.475   3.227  10.036
 4971SOL    HW115245   2.426   3.140  10.045
 4971SOL    HW215246   2.452   3.270   9.949
 4972SOL     OW15247   2.671   1.866   9.812
 4972SOL    HW115248   2.711   1.957   9.803
 4972SOL    HW215249   2.571   1.874   9.818
 4973SOL     OW15250   3.387   2.861   9.500
 4973SOL    HW115251   3.324   2.785   9.513
 4973SOL    HW215252   3.435   2.879   9.586
 4974SOL     OW15253   3.438   3.524   9.617
 4974SOL    HW115254   3.527   3.570   9.620
 4974SOL    HW215255   3.417   3.500   9.522
 4975SOL     OW15256   2.903   2.563   9.739
 4975SOL    HW115257   2.929   2.559   9.835
 4975SOL    HW215258   2.818   2.512   9.725
 4976SOL     OW15259   1.938   2.673  10.099
 4976SOL    HW115260   2.037   2.661  10.108
 4976SOL    HW215261   1.914   2.768  10.120
 4977SOL     OW15262   2.727   2.210   9.505
 4977SOL    HW115263   2.786   2.273   9.456
 4977SOL    HW215264   2.746   2.116   9.476
 4978SOL     OW15265   3.224   3.006   9.855
 4978SOL    HW115266   3.307   2.977   9.807
 4978SOL    HW215267   3.175   3.073   9.799
 4979SOL     OW15268   2.870   3.318   9.787
 4979SOL    HW115269   2.824   3.390   9.735
 4979SOL    HW215270   2.866   3.338   9.885
 4980SOL     OW15271   2.213   3.663  10.163
 4980SOL    HW115272   2.263   3.577  10.169
 4980SOL    HW215273   2.278   3.740  10.160
 4981SOL     OW15274   2.183   2.805   9.552
 4981SOL    HW115275   2.265   2.844   9.510
 4981SOL    HW215276   2.156   2.723   9.503
 4982SOL     OW15277   2.973   3.638   9.547
 4982SOL    HW115278   2.913   3.576   9.597
 4982SOL    HW215279   3.004   3.594   9.462
 4983SOL     OW15280   3.494   3.239   9.391
 4983SOL    HW115281   3.462   3.333   9.381
 4983SOL    HW215282   3.418   3.176   9.379
 4984SOL     OW15283   2.326   3.605   9.633
 4984SOL    HW115284   2.359   3.644   9.719
 4984SOL    HW215285   2.402   3.598   9.568
 4985SOL     OW15286   3.262   1.969   9.736
 4985SOL    HW115287   3.238   1.932   9.646
 4985SOL    HW215288   3.361   1.985   9.740
 4986SOL     OW15289   2.476   1.984   9.427
 4986SOL    HW115290   2.574   1.962   9.434
 4986SOL    HW215291   2.445   1.967   9.334
 4987SOL     OW15292   2.401   1.926   9.822
 4987SOL    HW115293   2.320   1.927   9.880
 4987SOL    HW215294   2.404   2.009   9.767
 4988SOL     OW15295   3.296   3.050   9.351
 4988SOL    HW115296   3.328   2.974   9.408
 4988SOL    HW215297   3.204   3.077   9.381
 4989SOL     OW15298   2.159   1.897   9.481
 4989SOL    HW115299   2.208   1.981   9.460
 4989SOL    HW215300   2.221   1.832   9.526
 4990SOL     OW15301   2.797   2.098   9.790
 4990SOL    HW115302   2.749   2.139   9.712
 4990SOL    HW215303   2.896   2.096   9.771
 4991SOL     OW15304   2.321   3.014  10.051
 4991SOL    HW115305   2.250   2.987  10.116
 4991SOL    HW215306   2.295   2.986   9.958
 4992SOL     OW15307   3.133   3.659   9.901
 4992SOL    HW115308   3.177   3.723   9.837
 4992SOL    HW215309   3.083   3.711   9.971
 4993SOL     OW15310   2.894   2.411   9.326
 4993SOL    HW115311   2.853   2.493   9.287
 4993SOL    HW215312   2.958   2.437   9.399
 4994SOL     OW15313   2.728   2.316   9.952
 4994SOL    HW115314   2.696   2.388   9.890
 4994SOL    HW215315   2.752   2.235   9.899
 4995SOL     OW15316   3.719   2.695   9.687
 4995SOL    HW115317   3.761   2.631   9.751
 4995SOL    HW215318   3.681   2.644   9.609
 4996SOL     OW15319   2.350   3.247   9.484
 4996SOL    HW115320   2.263   3.232   9.531
 4996SOL    HW215321   2.333   3.273   9.389
 4997SOL     OW15322   3.252   2.437   9.388
 4997SOL    HW115323   3.198   2.416   9.469
 4997SOL    HW215324   3.343   2.396   9.397
 4998SOL     OW15325   2.567   2.912   9.678
 4998SOL    HW115326   2.553   2.919   9.777
 4998SOL    HW215327   2.651   2.861   9.660
 4999SOL     OW15328   2.229   2.962   9.811
 4999SOL    HW115329   2.222   3.045   9.755
 4999SOL    HW215330   2.233   2.882   9.751
 5000SOL     OW15331   3.114   3.210   9.698
 5000SOL    HW115332   3.164   3.287   9.738
 5000SOL    HW215333   3.019   3.212   9.730
 5001SOL     OW15334   3.444   2.501   9.782
 5001SOL    HW115335   3.413   2.562   9.855
 5001SOL    HW215336   3.494   2.553   9.713
 5002SOL     OW15337   3.071   2.387   9.585
 5002SOL    HW115338   3.084   2.303   9.639
 5002SOL    HW215339   3.042   2.461   9.645
 5003SOL     OW15340   2.169   1.925   9.928
 5003SOL    HW115341   2.158   2.019   9.961
 5003SOL    HW215342   2.164   1.862  10.005
 5004SOL     OW15343   3.484   2.229   9.684
 5004SOL    HW115344   3.486   2.153   9.748
 5004SOL    HW215345   3.436   2.306   9.724
 5005SOL     OW15346   3.402   2.136   9.435
 5005SOL    HW115347   3.341   2.061   9.458
 5005SOL    HW215348   3.424   2.188   9.518
 5006SOL     OW15349   3.165   2.700   9.352
 5006SOL    HW115350   3.199   2.607   9.367
 5006SOL    HW215351   3.183   2.727   9.257
 5007SOL     OW15352   1.870   3.188   9.510
 5007SOL    HW115353   1.777   3.209   9.479
 5007SOL    HW215354   1.880   3.089   9.523
 5008SOL     OW15355   2.677   2.434   9.635
 5008SOL    HW115356   2.684   2.345   9.589
 5008SOL    HW215357   2.583   2.468   9.627
 5009SOL     OW15358   3.164   2.717   9.619
 5009SOL    HW115359   3.078   2.686   9.661
 5009SOL    HW215360   3.160   2.703   9.520
 5010SOL     OW15361   3.588   1.997   9.833
 5010SOL    HW115362   3.661   1.980   9.766
 5010SOL    HW215363   3.557   1.910   9.871
 5011SOL     OW15364   3.250   3.435   9.787
 5011SOL    HW115365   3.317   3.447   9.713
 5011SOL    HW215366   3.210   3.524   9.810
 5012SOL     OW15367   2.534   3.478   9.464
 5012SOL    HW115368   2.543   3.488   9.365
 5012SOL    HW215369   2.494   3.389   9.485
 5013SOL     OW15370   3.056   3.474   9.341
 5013SOL    HW115371   3.062   3.381   9.378
 5013SOL    HW215372   2.997   3.474   9.261
 5014SOL     OW15373   2.778   2.772   9.601
 5014SOL    HW115374   2.841   2.810   9.533
 5014SOL    HW215375   2.818   2.689   9.640
 5015SOL     OW15376   3.366   3.469   9.354
 5015SOL    HW115377   3.274   3.506   9.361
 5015SOL    HW215378   3.404   3.489   9.264
 5016SOL     OW15379   2.452   3.349   9.801
 5016SOL    HW115380   2.494   3.291   9.731
 5016SOL    HW215381   2.408   3.428   9.757
 5017SOL     OW15382   2.117   3.210   9.600
 5017SOL    HW115383   2.021   3.211   9.573
 5017SOL    HW215384   2.129   3.263   9.684
 5018SOL     OW15385   1.937   2.207   9.343
 5018SOL    HW115386   1.845   2.179   9.314
 5018SOL    HW215387   1.968   2.284   9.287
 5019SOL     OW15388   1.934   2.028   9.628
 5019SOL    HW115389   1.917   2.111   9.574
 5019SOL    HW215390   2.024   1.991   9.606
 5020SOL     OW15391   3.045   3.197   9.429
 5020SOL    HW115392   2.946   3.186   9.431
 5020SOL    HW215393   3.079   3.212   9.522
 5021SOL     OW15394   3.087   2.187   9.759
 5021SOL    HW115395   3.152   2.113   9.748
 5021SOL    HW215396   3.107   2.237   9.843
 5022SOL     OW15397   2.456   2.607   9.962
 5022SOL    HW115398   2.506   2.692   9.943
 5022SOL    HW215399   2.368   2.609   9.914
 5023SOL     OW15400   2.721   3.236   9.326
 5023SOL    HW115401   2.675   3.251   9.414
 5023SOL    HW215402   2.765   3.321   9.296
 5024SOL     OW15403   2.945   2.846   9.397
 5024SOL    HW115404   2.922   2.899   9.315
 5024SOL    HW215405   3.026   2.790   9.378
 5025SOL     OW15406   1.941   3.102   9.963
 5025SOL    HW115407   1.940   3.055  10.051
 5025SOL    HW215408   2.023   3.074   9.912
 5026SOL     OW15409   2.632   3.192   9.611
 5026SOL    HW115410   2.586   3.105   9.628
 5026SOL    HW215411   2.723   3.189   9.652
 5027SOL     OW15412   3.214   1.914   9.478
 5027SOL    HW115413   3.249   1.873   9.394
 5027SOL    HW215414   3.124   1.876   9.498
 5028SOL     OW15415   1.901   2.939   9.610
 5028SOL    HW115416   2.000   2.928   9.601
 5028SOL    HW215417   1.861   2.853   9.642
 5029SOL     OW15418   2.737   3.508   9.647
 5029SOL    HW115419   2.660   3.473   9.593
 5029SOL    HW215420   2.705   3.579   9.709
 5030SOL     OW15421   2.092   4.352   0.113
 5030SOL    HW115422   1.999   4.350   0.150
 5030SOL    HW215423   2.093   4.313   0.021
 5031SOL     OW15424   2.087   3.999   0.996
 5031SOL    HW115425   2.122   3.982   1.088
 5031SOL    HW215426   1.999   3.954   0.984
 5032SOL     OW15427   1.881   4.092   0.647
 5032SOL    HW115428   1.799   4.135   0.686
 5032SOL    HW215429   1.853   4.019   0.584
 5033SOL     OW15430   2.997   4.427   0.717
 5033SOL    HW115431   3.054   4.505   0.692
 5033SOL    HW215432   2.937   4.453   0.793
 5034SOL     OW15433   3.617   4.331   0.231
 5034SOL    HW115434   3.605   4.318   0.132
 5034SOL    HW215435   3.587   4.250   0.280
 5035SOL     OW15436   2.712   4.522   1.823
 5035SOL    HW115437   2.708   4.598   1.888
 5035SOL    HW215438   2.734   4.558   1.732
 5036SOL     OW15439   2.547   4.736   0.665
 5036SOL    HW115440   2.616   4.720   0.735
 5036SOL    HW215441   2.474   4.793   0.703
 5037SOL     OW15442   2.300   4.116   1.499
 5037SOL    HW115443   2.382   4.060   1.508
 5037SOL    HW215444   2.219   4.058   1.503
 5038SOL     OW15445   3.465   4.171   0.737
 5038SOL    HW115446   3.391   4.217   0.687
 5038SOL    HW215447   3.516   4.239   0.790
 5039SOL     OW15448   3.456   3.838   1.480
 5039SOL    HW115449   3.438   3.905   1.408
 5039SOL    HW215450   3.453   3.884   1.569
 5040SOL     OW15451   1.984   4.367   0.563
 5040SOL    HW115452   1.939   4.279   0.580
 5040SOL    HW215453   1.983   4.421   0.647
 5041SOL     OW15454   1.975   4.461   1.597
 5041SOL    HW115455   2.063   4.448   1.642
 5041SOL    HW215456   1.962   4.558   1.575
 5042SOL     OW15457   2.671   3.728   0.502
 5042SOL    HW115458   2.711   3.819   0.493
 5042SOL    HW215459   2.571   3.736   0.508
 5043SOL     OW15460   2.059   4.700   1.264
 5043SOL    HW115461   2.148   4.655   1.250
 5043SOL    HW215462   1.986   4.635   1.245
 5044SOL     OW15463   3.387   4.723   0.190
 5044SOL    HW115464   3.324   4.647   0.203
 5044SOL    HW215465   3.435   4.741   0.276
 5045SOL     OW15466   2.179   3.975   1.801
 5045SOL    HW115467   2.250   4.046   1.807
 5045SOL    HW215468   2.091   4.014   1.829
 5046SOL     OW15469   2.460   4.453   0.270
 5046SOL    HW115470   2.484   4.522   0.202
 5046SOL    HW215471   2.382   4.486   0.324
 5047SOL     OW15472   3.143   4.069   0.944
 5047SOL    HW115473   3.057   4.019   0.931
 5047SOL    HW215474   3.205   4.015   1.000
 5048SOL     OW15475   2.669   4.329   1.465
 5048SOL    HW115476   2.622   4.326   1.554
 5048SOL    HW215477   2.618   4.274   1.399
 5049SOL     OW15478   3.256   4.193   1.674
 5049SOL    HW115479   3.236   4.236   1.762
 5049SOL    HW215480   3.334   4.131   1.683
 5050SOL     OW15481   2.835   4.614   1.572
 5050SOL    HW115482   2.881   4.530   1.543
 5050SOL    HW215483   2.779   4.648   1.497
 5051SOL     OW15484   2.853   4.134   1.242
 5051SOL    HW115485   2.776   4.168   1.296
 5051SOL    HW215486   2.819   4.083   1.163
 5052SOL     OW15487   2.903   4.425   0.429
 5052SOL    HW115488   2.929   4.421   0.525
 5052SOL    HW215489   2.818   4.374   0.415
 5053SOL     OW15490   1.938   4.535   0.789
 5053SOL    HW115491   2.037   4.523   0.798
 5053SOL    HW215492   1.914   4.630   0.810
 5054SOL     OW15493   2.727   4.072   0.195
 5054SOL    HW115494   2.786   4.135   0.146
 5054SOL    HW215495   2.746   3.978   0.166
 5055SOL     OW15496   3.581   4.309   1.831
 5055SOL    HW115497   3.555   4.398   1.795
 5055SOL    HW215498   3.579   4.241   1.758
 5056SOL     OW15499   2.412   3.920   0.885
 5056SOL    HW115500   2.407   3.915   0.985
 5056SOL    HW215501   2.414   4.016   0.856
 5057SOL     OW15502   3.320   4.459   0.728
 5057SOL    HW115503   3.315   4.394   0.803
 5057SOL    HW215504   3.400   4.518   0.741
 5058SOL     OW15505   2.064   4.009   1.498
 5058SOL    HW115506   1.984   4.069   1.485
 5058SOL    HW215507   2.054   3.960   1.584
 5059SOL     OW15508   3.262   3.831   0.426
 5059SOL    HW115509   3.238   3.794   0.336
 5059SOL    HW215510   3.361   3.847   0.430
 5060SOL     OW15511   2.244   4.424   0.480
 5060SOL    HW115512   2.289   4.334   0.477
 5060SOL    HW215513   2.150   4.413   0.513
 5061SOL     OW15514   3.409   3.946   1.729
 5061SOL    HW115515   3.404   3.983   1.821
 5061SOL    HW215516   3.337   3.877   1.717
 5062SOL     OW15517   2.476   3.846   0.117
 5062SOL    HW115518   2.574   3.824   0.124
 5062SOL    HW215519   2.445   3.829   0.024
 5063SOL     OW15520   2.643   3.988   1.749
 5063SOL    HW115521   2.710   3.927   1.792
 5063SOL    HW215522   2.570   4.007   1.814
 5064SOL     OW15523   3.213   4.314   1.433
 5064SOL    HW115524   3.241   4.271   1.518
 5064SOL    HW215525   3.238   4.410   1.434
 5065SOL     OW15526   2.784   4.227   0.899
 5065SOL    HW115527   2.759   4.218   0.803
 5065SOL    HW215528   2.832   4.145   0.930
 5066SOL     OW15529   2.401   3.788   0.512
 5066SOL    HW115530   2.320   3.789   0.570
 5066SOL    HW215531   2.404   3.871   0.457
 5067SOL     OW15532   2.797   3.960   0.480
 5067SOL    HW115533   2.749   4.001   0.402
 5067SOL    HW215534   2.896   3.958   0.461
 5068SOL     OW15535   2.938   4.407   1.464
 5068SOL    HW115536   2.858   4.346   1.467
 5068SOL    HW215537   3.019   4.354   1.440
 5069SOL     OW15538   2.894   4.273   0.016
 5069SOL    HW115539   2.853   4.355  -0.023
 5069SOL    HW215540   2.958   4.299   0.089
 5070SOL     OW15541   1.940   4.280   1.386
 5070SOL    HW115542   2.032   4.279   1.345
 5070SOL    HW215543   1.934   4.354   1.453
 5071SOL     OW15544   2.423   3.946   1.147
 5071SOL    HW115545   2.461   3.862   1.184
 5071SOL    HW215546   2.335   3.965   1.191
 5072SOL     OW15547   2.728   4.178   0.642
 5072SOL    HW115548   2.696   4.250   0.580
 5072SOL    HW215549   2.752   4.097   0.589
 5073SOL     OW15550   2.879   3.763   0.753
 5073SOL    HW115551   2.807   3.768   0.684
 5073SOL    HW215552   2.855   3.694   0.822
 5074SOL     OW15553   3.328   4.314   0.992
 5074SOL    HW115554   3.298   4.219   0.999
 5074SOL    HW215555   3.401   4.330   1.058
 5075SOL     OW15556   3.719   4.557   0.377
 5075SOL    HW115557   3.761   4.493   0.441
 5075SOL    HW215558   3.681   4.506   0.299
 5076SOL     OW15559   3.252   4.299   0.078
 5076SOL    HW115560   3.198   4.278   0.159
 5076SOL    HW215561   3.343   4.258   0.087
 5077SOL     OW15562   2.389   3.980   0.328
 5077SOL    HW115563   2.416   3.921   0.253
 5077SOL    HW215564   2.389   4.075   0.297
 5078SOL     OW15565   3.500   4.823   1.079
 5078SOL    HW115566   3.505   4.904   1.138
 5078SOL    HW215567   3.414   4.825   1.028
 5079SOL     OW15568   2.777   3.813   1.402
 5079SOL    HW115569   2.802   3.793   1.307
 5079SOL    HW215570   2.849   3.869   1.444
 5080SOL     OW15571   2.272   4.537   1.251
 5080SOL    HW115572   2.358   4.549   1.301
 5080SOL    HW215573   2.230   4.450   1.278
 5081SOL     OW15574   3.136   4.110   1.262
 5081SOL    HW115575   3.157   4.184   1.326
 5081SOL    HW215576   3.047   4.127   1.219
 5082SOL     OW15577   2.428   4.261   0.865
 5082SOL    HW115578   2.440   4.327   0.791
 5082SOL    HW215579   2.474   4.295   0.948
 5083SOL     OW15580   3.444   4.363   0.472
 5083SOL    HW115581   3.413   4.424   0.545
 5083SOL    HW215582   3.494   4.415   0.403
 5084SOL     OW15583   2.264   4.475   1.598
 5084SOL    HW115584   2.332   4.530   1.551
 5084SOL    HW215585   2.304   4.387   1.625
 5085SOL     OW15586   3.449   4.503   1.670
 5085SOL    HW115587   3.357   4.541   1.665
 5085SOL    HW215588   3.509   4.550   1.605
 5086SOL     OW15589   2.875   3.829   1.770
 5086SOL    HW115590   2.881   3.914   1.718
 5086SOL    HW215591   2.907   3.753   1.713
 5087SOL     OW15592   2.366   3.774   1.740
 5087SOL    HW115593   2.324   3.717   1.670
 5087SOL    HW215594   2.300   3.843   1.772
 5088SOL     OW15595   2.435   4.594   1.029
 5088SOL    HW115596   2.479   4.683   1.020
 5088SOL    HW215597   2.372   4.594   1.106
 5089SOL     OW15598   3.222   4.586   1.045
 5089SOL    HW115599   3.147   4.586   0.979
 5089SOL    HW215600   3.259   4.494   1.054
 5090SOL     OW15601   3.071   4.249   0.275
 5090SOL    HW115602   3.084   4.165   0.329
 5090SOL    HW215603   3.042   4.323   0.335
 5091SOL     OW15604   2.169   3.937   1.231
 5091SOL    HW115605   2.146   3.974   1.321
 5091SOL    HW215606   2.139   3.842   1.225
 5092SOL     OW15607   2.594   4.358   1.064
 5092SOL    HW115608   2.653   4.332   0.988
 5092SOL    HW215609   2.566   4.454   1.053
 5093SOL     OW15610   3.590   4.659   1.854
 5093SOL    HW115611   3.544   4.652   1.765
 5093SOL    HW215612   3.528   4.703   1.920
 5094SOL     OW15613   2.169   3.787   0.618
 5094SOL    HW115614   2.158   3.881   0.651
 5094SOL    HW215615   2.164   3.724   0.695
 5095SOL     OW15616   3.484   4.091   0.374
 5095SOL    HW115617   3.486   4.015   0.438
 5095SOL    HW215618   3.436   4.168   0.414
 5096SOL     OW15619   2.885   4.490   0.966
 5096SOL    HW115620   2.900   4.511   1.062
 5096SOL    HW215621   2.855   4.395   0.957
 5097SOL     OW15622   2.212   4.622   1.804
 5097SOL    HW115623   2.288   4.666   1.852
 5097SOL    HW215624   2.247   4.575   1.722
 5098SOL     OW15625   3.402   3.998   0.125
 5098SOL    HW115626   3.341   3.923   0.148
 5098SOL    HW215627   3.424   4.050   0.208
 5099SOL     OW15628   3.165   4.562   0.042
 5099SOL    HW115629   3.199   4.469   0.057
 5099SOL    HW215630   3.183   4.589  -0.053
 5100SOL     OW15631   2.181   4.534   0.949
 5100SOL    HW115632   2.274   4.570   0.954
 5100SOL    HW215633   2.175   4.449   1.001
 5101SOL     OW15634   2.201   4.233   1.006
 5101SOL    HW115635   2.149   4.150   0.989
 5101SOL    HW215636   2.278   4.238   0.942
 5102SOL     OW15637   3.000   4.104   1.678
 5102SOL    HW115638   2.955   4.167   1.742
 5102SOL    HW215639   3.093   4.135   1.661
 5103SOL     OW15640   3.022   3.931   1.477
 5103SOL    HW115641   3.022   3.995   1.554
 5103SOL    HW215642   3.050   3.979   1.394
 5104SOL     OW15643   2.864   4.520   1.238
 5104SOL    HW115644   2.905   4.488   1.324
 5104SOL    HW215645   2.768   4.493   1.235
 5105SOL     OW15646   1.902   4.268   1.114
 5105SOL    HW115647   1.987   4.235   1.073
 5105SOL    HW215648   1.915   4.283   1.212
 5106SOL     OW15649   2.051   4.244   1.722
 5106SOL    HW115650   2.110   4.204   1.652
 5106SOL    HW215651   1.993   4.315   1.681
 5107SOL     OW15652   3.231   4.674   1.660
 5107SOL    HW115653   3.270   4.763   1.680
 5107SOL    HW215654   3.241   4.654   1.563
 5108SOL     OW15655   2.677   4.296   0.325
 5108SOL    HW115656   2.684   4.207   0.279
 5108SOL    HW215657   2.583   4.330   0.317
 5109SOL     OW15658   3.519   4.328   1.206
 5109SOL    HW115659   3.481   4.259   1.268
 5109SOL    HW215660   3.601   4.292   1.162
 5110SOL     OW15661   2.533   4.188   1.269
 5110SOL    HW115662   2.499   4.099   1.239
 5110SOL    HW215663   2.559   4.242   1.189
 5111SOL     OW15664   2.335   4.224   0.191
 5111SOL    HW115665   2.396   4.304   0.195
 5111SOL    HW215666   2.240   4.255   0.198
 5112SOL     OW15667   3.209   4.783   1.234
 5112SOL    HW115668   3.233   4.720   1.160
 5112SOL    HW215669   3.119   4.823   1.216
 5113SOL     OW15670   3.164   4.579   0.309
 5113SOL    HW115671   3.078   4.548   0.351
 5113SOL    HW215672   3.160   4.565   0.210
 5114SOL     OW15673   2.765   3.810   0.133
 5114SOL    HW115674   2.816   3.811   0.047
 5114SOL    HW215675   2.821   3.768   0.204
 5115SOL     OW15676   3.588   3.859   0.523
 5115SOL    HW115677   3.661   3.842   0.456
 5115SOL    HW215678   3.557   3.772   0.561
 5116SOL     OW15679   3.142   4.651   0.672
 5116SOL    HW115680   3.202   4.570   0.674
 5116SOL    HW215681   3.182   4.720   0.612
 5117SOL     OW15682   3.703   3.899   0.963
 5117SOL    HW115683   3.742   3.814   0.927
 5117SOL    HW215684   3.605   3.901   0.944
 5118SOL     OW15685   2.125   4.050   0.720
 5118SOL    HW115686   2.046   4.101   0.686
 5118SOL    HW215687   2.116   4.035   0.818
 5119SOL     OW15688   2.876   3.960   0.971
 5119SOL    HW115689   2.868   3.924   0.878
 5119SOL    HW215690   2.874   3.884   1.036
 5120SOL     OW15691   3.571   4.109   1.381
 5120SOL    HW115692   3.644   4.178   1.385
 5120SOL    HW215693   3.599   4.034   1.322
 5121SOL     OW15694   1.967   4.737   1.726
 5121SOL    HW115695   1.890   4.704   1.780
 5121SOL    HW215696   2.052   4.707   1.768
 5122SOL     OW15697   2.534   3.927   1.489
 5122SOL    HW115698   2.624   3.911   1.449
 5122SOL    HW215699   2.542   3.932   1.588
 5123SOL     OW15700   1.937   4.069   0.033
 5123SOL    HW115701   1.845   4.041   0.004
 5123SOL    HW215702   1.968   4.146  -0.023
 5124SOL     OW15703   3.302   4.580   1.398
 5124SOL    HW115704   3.245   4.632   1.335
 5124SOL    HW215705   3.398   4.592   1.374
 5125SOL     OW15706   1.934   3.890   0.318
 5125SOL    HW115707   1.917   3.973   0.264
 5125SOL    HW215708   2.024   3.853   0.296
 5126SOL     OW15709   2.475   4.566   1.431
 5126SOL    HW115710   2.531   4.647   1.414
 5126SOL    HW215711   2.534   4.486   1.434
 5127SOL     OW15712   2.578   4.289   1.708
 5127SOL    HW115713   2.597   4.354   1.782
 5127SOL    HW215714   2.638   4.209   1.717
 5128SOL     OW15715   3.536   4.607   1.254
 5128SOL    HW115716   3.509   4.518   1.217
 5128SOL    HW215717   3.537   4.675   1.181
 5129SOL     OW15718   3.087   4.049   0.449
 5129SOL    HW115719   3.152   3.975   0.438
 5129SOL    HW215720   3.107   4.099   0.533
 5130SOL     OW15721   2.456   4.469   0.652
 5130SOL    HW115722   2.506   4.554   0.633
 5130SOL    HW215723   2.368   4.471   0.604
 5131SOL     OW15724   3.639   4.066   1.642
 5131SOL    HW115725   3.622   4.097   1.548
 5131SOL    HW215726   3.555   4.029   1.680
 5132SOL     OW15727   3.592   4.658   1.517
 5132SOL    HW115728   3.630   4.749   1.532
 5132SOL    HW215729   3.584   4.641   1.418
 5133SOL     OW15730   3.686   3.916   1.227
 5133SOL    HW115731   3.682   3.826   1.271
 5133SOL    HW215732   3.689   3.905   1.128
 5134SOL     OW15733   2.290   4.148   0.520
 5134SOL    HW115734   2.320   4.076   0.458
 5134SOL    HW215735   2.251   4.108   0.603
 5135SOL     OW15736   2.179   4.271   1.280
 5135SOL    HW115737   2.217   4.212   1.352
 5135SOL    HW215738   2.219   4.245   1.192
 5136SOL     OW15739   3.286   3.938   1.112
 5136SOL    HW115740   3.338   3.873   1.167
 5136SOL    HW215741   3.237   4.001   1.173
 5137SOL     OW15742   2.863   3.758   1.154
 5137SOL    HW115743   2.800   3.686   1.123
 5137SOL    HW215744   2.956   3.722   1.154
 5138SOL     OW15745   3.214   3.776   0.168
 5138SOL    HW115746   3.249   3.735   0.084
 5138SOL    HW215747   3.124   3.738   0.188
 5139SOL     OW15748   3.162   4.177   0.691
 5139SOL    HW115749   3.103   4.257   0.695
 5139SOL    HW215750   3.177   4.142   0.784
 5140SOL     OW15751   3.455   3.945   0.882
 5140SOL    HW115752   3.371   3.944   0.936
 5140SOL    HW215753   3.457   4.028   0.826
 5141SOL     OW15754   2.092   4.352   1.975
 5141SOL    HW115755   1.999   4.350   2.012
 5141SOL    HW215756   2.093   4.313   1.883
 5142SOL     OW15757   2.087   3.999   2.858
 5142SOL    HW115758   2.122   3.982   2.950
 5142SOL    HW215759   1.999   3.954   2.846
 5143SOL     OW15760   1.881   4.092   2.509
 5143SOL    HW115761   1.799   4.135   2.548
 5143SOL    HW215762   1.853   4.019   2.446
 5144SOL     OW15763   2.997   4.427   2.579
 5144SOL    HW115764   3.054   4.505   2.554
 5144SOL    HW215765   2.937   4.453   2.655
 5145SOL     OW15766   3.617   4.331   2.093
 5145SOL    HW115767   3.605   4.318   1.994
 5145SOL    HW215768   3.587   4.250   2.142
 5146SOL     OW15769   2.712   4.522   3.685
 5146SOL    HW115770   2.708   4.598   3.750
 5146SOL    HW215771   2.734   4.558   3.594
 5147SOL     OW15772   2.547   4.736   2.527
 5147SOL    HW115773   2.616   4.720   2.597
 5147SOL    HW215774   2.474   4.793   2.565
 5148SOL     OW15775   2.300   4.116   3.361
 5148SOL    HW115776   2.382   4.060   3.370
 5148SOL    HW215777   2.219   4.058   3.365
 5149SOL     OW15778   3.465   4.171   2.599
 5149SOL    HW115779   3.391   4.217   2.549
 5149SOL    HW215780   3.516   4.239   2.652
 5150SOL     OW15781   3.456   3.838   3.342
 5150SOL    HW115782   3.438   3.905   3.270
 5150SOL    HW215783   3.453   3.884   3.431
 5151SOL     OW15784   1.984   4.367   2.425
 5151SOL    HW115785   1.939   4.279   2.442
 5151SOL    HW215786   1.983   4.421   2.509
 5152SOL     OW15787   1.975   4.461   3.459
 5152SOL    HW115788   2.063   4.448   3.504
 5152SOL    HW215789   1.962   4.558   3.437
 5153SOL     OW15790   2.671   3.728   2.364
 5153SOL    HW115791   2.711   3.819   2.355
 5153SOL    HW215792   2.571   3.736   2.370
 5154SOL     OW15793   2.059   4.700   3.126
 5154SOL    HW115794   2.148   4.655   3.112
 5154SOL    HW215795   1.986   4.635   3.107
 5155SOL     OW15796   3.387   4.723   2.052
 5155SOL    HW115797   3.324   4.647   2.065
 5155SOL    HW215798   3.435   4.741   2.138
 5156SOL     OW15799   2.179   3.975   3.663
 5156SOL    HW115800   2.250   4.046   3.669
 5156SOL    HW215801   2.091   4.014   3.691
 5157SOL     OW15802   2.460   4.453   2.132
 5157SOL    HW115803   2.484   4.522   2.064
 5157SOL    HW215804   2.382   4.486   2.186
 5158SOL     OW15805   3.143   4.069   2.806
 5158SOL    HW115806   3.057   4.019   2.793
 5158SOL    HW215807   3.205   4.015   2.862
 5159SOL     OW15808   2.669   4.329   3.327
 5159SOL    HW115809   2.622   4.326   3.416
 5159SOL    HW215810   2.618   4.274   3.261
 5160SOL     OW15811   3.256   4.193   3.536
 5160SOL    HW115812   3.236   4.236   3.624
 5160SOL    HW215813   3.334   4.131   3.545
 5161SOL     OW15814   2.835   4.614   3.434
 5161SOL    HW115815   2.881   4.530   3.405
 5161SOL    HW215816   2.779   4.648   3.359
 5162SOL     OW15817   2.853   4.134   3.104
 5162SOL    HW115818   2.776   4.168   3.158
 5162SOL    HW215819   2.819   4.083   3.025
 5163SOL     OW15820   2.903   4.425   2.291
 5163SOL    HW115821   2.929   4.421   2.387
 5163SOL    HW215822   2.818   4.374   2.277
 5164SOL     OW15823   1.938   4.535   2.651
 5164SOL    HW115824   2.037   4.523   2.660
 5164SOL    HW215825   1.914   4.630   2.672
 5165SOL     OW15826   2.727   4.072   2.057
 5165SOL    HW115827   2.786   4.135   2.008
 5165SOL    HW215828   2.746   3.978   2.028
 5166SOL     OW15829   3.581   4.309   3.693
 5166SOL    HW115830   3.555   4.398   3.657
 5166SOL    HW215831   3.579   4.241   3.620
 5167SOL     OW15832   2.412   3.920   2.747
 5167SOL    HW115833   2.407   3.915   2.847
 5167SOL    HW215834   2.414   4.016   2.718
 5168SOL     OW15835   3.320   4.459   2.590
 5168SOL    HW115836   3.315   4.394   2.665
 5168SOL    HW215837   3.400   4.518   2.603
 5169SOL     OW15838   2.064   4.009   3.360
 5169SOL    HW115839   1.984   4.069   3.347
 5169SOL    HW215840   2.054   3.960   3.446
 5170SOL     OW15841   3.262   3.831   2.288
 5170SOL    HW115842   3.238   3.794   2.198
 5170SOL    HW215843   3.361   3.847   2.292
 5171SOL     OW15844   2.244   4.424   2.342
 5171SOL    HW115845   2.289   4.334   2.339
 5171SOL    HW215846   2.150   4.413   2.375
 5172SOL     OW15847   3.409   3.946   3.591
 5172SOL    HW115848   3.404   3.983   3.683
 5172SOL    HW215849   3.337   3.877   3.579
 5173SOL     OW15850   2.476   3.846   1.979
 5173SOL    HW115851   2.574   3.824   1.986
 5173SOL    HW215852   2.445   3.829   1.886
 5174SOL     OW15853   2.643   3.988   3.611
 5174SOL    HW115854   2.710   3.927   3.654
 5174SOL    HW215855   2.570   4.007   3.676
 5175SOL     OW15856   3.213   4.314   3.295
 5175SOL    HW115857   3.241   4.271   3.380
 5175SOL    HW215858   3.238   4.410   3.296
 5176SOL     OW15859   2.784   4.227   2.761
 5176SOL    HW115860   2.759   4.218   2.665
 5176SOL    HW215861   2.832   4.145   2.792
 5177SOL     OW15862   2.401   3.788   2.374
 5177SOL    HW115863   2.320   3.789   2.432
 5177SOL    HW215864   2.404   3.871   2.319
 5178SOL     OW15865   2.159   3.759   2.033
 5178SOL    HW115866   2.208   3.843   2.012
 5178SOL    HW215867   2.221   3.694   2.078
 5179SOL     OW15868   2.797   3.960   2.342
 5179SOL    HW115869   2.749   4.001   2.264
 5179SOL    HW215870   2.896   3.958   2.323
 5180SOL     OW15871   2.938   4.407   3.326
 5180SOL    HW115872   2.858   4.346   3.329
 5180SOL    HW215873   3.019   4.354   3.302
 5181SOL     OW15874   2.894   4.273   1.878
 5181SOL    HW115875   2.853   4.355   1.839
 5181SOL    HW215876   2.958   4.299   1.951
 5182SOL     OW15877   1.940   4.280   3.248
 5182SOL    HW115878   2.032   4.279   3.207
 5182SOL    HW215879   1.934   4.354   3.315
 5183SOL     OW15880   2.423   3.946   3.009
 5183SOL    HW115881   2.461   3.862   3.046
 5183SOL    HW215882   2.335   3.965   3.053
 5184SOL     OW15883   2.728   4.178   2.504
 5184SOL    HW115884   2.696   4.250   2.442
 5184SOL    HW215885   2.752   4.097   2.451
 5185SOL     OW15886   2.879   3.763   2.615
 5185SOL    HW115887   2.807   3.768   2.546
 5185SOL    HW215888   2.855   3.694   2.684
 5186SOL     OW15889   3.328   4.314   2.854
 5186SOL    HW115890   3.298   4.219   2.861
 5186SOL    HW215891   3.401   4.330   2.920
 5187SOL     OW15892   3.719   4.557   2.239
 5187SOL    HW115893   3.761   4.493   2.303
 5187SOL    HW215894   3.681   4.506   2.161
 5188SOL     OW15895   3.252   4.299   1.940
 5188SOL    HW115896   3.198   4.278   2.021
 5188SOL    HW215897   3.343   4.258   1.949
 5189SOL     OW15898   2.389   3.980   2.190
 5189SOL    HW115899   2.416   3.921   2.115
 5189SOL    HW215900   2.389   4.075   2.159
 5190SOL     OW15901   3.500   4.823   2.941
 5190SOL    HW115902   3.505   4.904   3.000
 5190SOL    HW215903   3.414   4.825   2.890
 5191SOL     OW15904   2.777   3.813   3.264
 5191SOL    HW115905   2.802   3.793   3.169
 5191SOL    HW215906   2.849   3.869   3.306
 5192SOL     OW15907   2.272   4.537   3.113
 5192SOL    HW115908   2.358   4.549   3.163
 5192SOL    HW215909   2.230   4.450   3.140
 5193SOL     OW15910   3.136   4.110   3.124
 5193SOL    HW115911   3.157   4.184   3.188
 5193SOL    HW215912   3.047   4.127   3.081
 5194SOL     OW15913   2.428   4.261   2.727
 5194SOL    HW115914   2.440   4.327   2.653
 5194SOL    HW215915   2.474   4.295   2.810
 5195SOL     OW15916   3.444   4.363   2.334
 5195SOL    HW115917   3.413   4.424   2.407
 5195SOL    HW215918   3.494   4.415   2.265
 5196SOL     OW15919   2.264   4.475   3.460
 5196SOL    HW115920   2.332   4.530   3.413
 5196SOL    HW215921   2.304   4.387   3.487
 5197SOL     OW15922   3.449   4.503   3.532
 5197SOL    HW115923   3.357   4.541   3.527
 5197SOL    HW215924   3.509   4.550   3.467
 5198SOL     OW15925   2.875   3.829   3.632
 5198SOL    HW115926   2.881   3.914   3.580
 5198SOL    HW215927   2.907   3.753   3.575
 5199SOL     OW15928   2.366   3.774   3.602
 5199SOL    HW115929   2.324   3.717   3.532
 5199SOL    HW215930   2.300   3.843   3.634
 5200SOL     OW15931   2.435   4.594   2.891
 5200SOL    HW115932   2.479   4.683   2.882
 5200SOL    HW215933   2.372   4.594   2.968
 5201SOL     OW15934   3.222   4.586   2.907
 5201SOL    HW115935   3.147   4.586   2.841
 5201SOL    HW215936   3.259   4.494   2.916
 5202SOL     OW15937   3.071   4.249   2.137
 5202SOL    HW115938   3.084   4.165   2.191
 5202SOL    HW215939   3.042   4.323   2.197
 5203SOL     OW15940   2.169   3.937   3.093
 5203SOL    HW115941   2.146   3.974   3.183
 5203SOL    HW215942   2.139   3.842   3.087
 5204SOL     OW15943   2.594   4.358   2.926
 5204SOL    HW115944   2.653   4.332   2.850
 5204SOL    HW215945   2.566   4.454   2.915
 5205SOL     OW15946   3.590   4.659   3.716
 5205SOL    HW115947   3.544   4.652   3.627
 5205SOL    HW215948   3.528   4.703   3.782
 5206SOL     OW15949   2.169   3.787   2.480
 5206SOL    HW115950   2.158   3.881   2.513
 5206SOL    HW215951   2.164   3.724   2.557
 5207SOL     OW15952   3.484   4.091   2.236
 5207SOL    HW115953   3.486   4.015   2.300
 5207SOL    HW215954   3.436   4.168   2.276
 5208SOL     OW15955   2.885   4.490   2.828
 5208SOL    HW115956   2.900   4.511   2.924
 5208SOL    HW215957   2.855   4.395   2.819
 5209SOL     OW15958   2.212   4.622   3.666
 5209SOL    HW115959   2.288   4.666   3.714
 5209SOL    HW215960   2.247   4.575   3.584
 5210SOL     OW15961   3.402   3.998   1.987
 5210SOL    HW115962   3.341   3.923   2.010
 5210SOL    HW215963   3.424   4.050   2.070
 5211SOL     OW15964   3.165   4.562   1.904
 5211SOL    HW115965   3.199   4.469   1.919
 5211SOL    HW215966   3.183   4.589   1.809
 5212SOL     OW15967   2.181   4.534   2.811
 5212SOL    HW115968   2.274   4.570   2.816
 5212SOL    HW215969   2.175   4.449   2.863
 5213SOL     OW15970   2.201   4.233   2.868
 5213SOL    HW115971   2.149   4.150   2.851
 5213SOL    HW215972   2.278   4.238   2.804
 5214SOL     OW15973   3.000   4.104   3.540
 5214SOL    HW115974   2.955   4.167   3.604
 5214SOL    HW215975   3.093   4.135   3.523
 5215SOL     OW15976   3.022   3.931   3.339
 5215SOL    HW115977   3.022   3.995   3.416
 5215SOL    HW215978   3.050   3.979   3.256
 5216SOL     OW15979   2.864   4.520   3.100
 5216SOL    HW115980   2.905   4.488   3.186
 5216SOL    HW215981   2.768   4.493   3.097
 5217SOL     OW15982   1.902   4.268   2.976
 5217SOL    HW115983   1.987   4.235   2.935
 5217SOL    HW215984   1.915   4.283   3.074
 5218SOL     OW15985   2.051   4.244   3.584
 5218SOL    HW115986   2.110   4.204   3.514
 5218SOL    HW215987   1.993   4.315   3.543
 5219SOL     OW15988   3.231   4.674   3.522
 5219SOL    HW115989   3.270   4.763   3.542
 5219SOL    HW215990   3.241   4.654   3.425
 5220SOL     OW15991   2.677   4.296   2.187
 5220SOL    HW115992   2.684   4.207   2.141
 5220SOL    HW215993   2.583   4.330   2.179
 5221SOL     OW15994   3.519   4.328   3.068
 5221SOL    HW115995   3.481   4.259   3.130
 5221SOL    HW215996   3.601   4.292   3.024
 5222SOL     OW15997   2.533   4.188   3.131
 5222SOL    HW115998   2.499   4.099   3.101
 5222SOL    HW215999   2.559   4.242   3.051
 5223SOL     OW16000   2.335   4.224   2.053
 5223SOL    HW116001   2.396   4.304   2.057
 5223SOL    HW216002   2.240   4.255   2.060
 5224SOL     OW16003   3.209   4.783   3.096
 5224SOL    HW116004   3.233   4.720   3.022
 5224SOL    HW216005   3.119   4.823   3.078
 5225SOL     OW16006   3.164   4.579   2.171
 5225SOL    HW116007   3.078   4.548   2.213
 5225SOL    HW216008   3.160   4.565   2.072
 5226SOL     OW16009   3.588   3.859   2.385
 5226SOL    HW116010   3.661   3.842   2.318
 5226SOL    HW216011   3.557   3.772   2.423
 5227SOL     OW16012   3.142   4.651   2.534
 5227SOL    HW116013   3.202   4.570   2.536
 5227SOL    HW216014   3.182   4.720   2.474
 5228SOL     OW16015   3.703   3.899   2.825
 5228SOL    HW116016   3.742   3.814   2.789
 5228SOL    HW216017   3.605   3.901   2.806
 5229SOL     OW16018   2.125   4.050   2.582
 5229SOL    HW116019   2.046   4.101   2.548
 5229SOL    HW216020   2.116   4.035   2.680
 5230SOL     OW16021   2.778   4.634   2.153
 5230SOL    HW116022   2.841   4.672   2.085
 5230SOL    HW216023   2.818   4.551   2.192
 5231SOL     OW16024   2.876   3.960   2.833
 5231SOL    HW116025   2.868   3.924   2.740
 5231SOL    HW216026   2.874   3.884   2.898
 5232SOL     OW16027   3.571   4.109   3.243
 5232SOL    HW116028   3.644   4.178   3.247
 5232SOL    HW216029   3.599   4.034   3.184
 5233SOL     OW16030   1.967   4.737   3.588
 5233SOL    HW116031   1.890   4.704   3.642
 5233SOL    HW216032   2.052   4.707   3.630
 5234SOL     OW16033   2.534   3.927   3.351
 5234SOL    HW116034   2.624   3.911   3.311
 5234SOL    HW216035   2.542   3.932   3.450
 5235SOL     OW16036   1.937   4.069   1.895
 5235SOL    HW116037   1.845   4.041   1.866
 5235SOL    HW216038   1.968   4.146   1.839
 5236SOL     OW16039   3.302   4.580   3.260
 5236SOL    HW116040   3.245   4.632   3.197
 5236SOL    HW216041   3.398   4.592   3.236
 5237SOL     OW16042   1.934   3.890   2.180
 5237SOL    HW116043   1.917   3.973   2.126
 5237SOL    HW216044   2.024   3.853   2.158
 5238SOL     OW16045   2.475   4.566   3.293
 5238SOL    HW116046   2.531   4.647   3.276
 5238SOL    HW216047   2.534   4.486   3.296
 5239SOL     OW16048   2.578   4.289   3.570
 5239SOL    HW116049   2.597   4.354   3.644
 5239SOL    HW216050   2.638   4.209   3.579
 5240SOL     OW16051   3.536   4.607   3.116
 5240SOL    HW116052   3.509   4.518   3.079
 5240SOL    HW216053   3.537   4.675   3.043
 5241SOL     OW16054   3.087   4.049   2.311
 5241SOL    HW116055   3.152   3.975   2.300
 5241SOL    HW216056   3.107   4.099   2.395
 5242SOL     OW16057   2.456   4.469   2.514
 5242SOL    HW116058   2.506   4.554   2.495
 5242SOL    HW216059   2.368   4.471   2.466
 5243SOL     OW16060   3.639   4.066   3.504
 5243SOL    HW116061   3.622   4.097   3.410
 5243SOL    HW216062   3.555   4.029   3.542
 5244SOL     OW16063   3.592   4.658   3.379
 5244SOL    HW116064   3.630   4.749   3.394
 5244SOL    HW216065   3.584   4.641   3.280
 5245SOL     OW16066   3.686   3.916   3.089
 5245SOL    HW116067   3.682   3.826   3.133
 5245SOL    HW216068   3.689   3.905   2.990
 5246SOL     OW16069   2.290   4.148   2.382
 5246SOL    HW116070   2.320   4.076   2.320
 5246SOL    HW216071   2.251   4.108   2.465
 5247SOL     OW16072   2.179   4.271   3.142
 5247SOL    HW116073   2.217   4.212   3.214
 5247SOL    HW216074   2.219   4.245   3.054
 5248SOL     OW16075   3.286   3.938   2.974
 5248SOL    HW116076   3.338   3.873   3.029
 5248SOL    HW216077   3.237   4.001   3.035
 5249SOL     OW16078   2.863   3.758   3.016
 5249SOL    HW116079   2.800   3.686   2.985
 5249SOL    HW216080   2.956   3.722   3.016
 5250SOL     OW16081   3.214   3.776   2.030
 5250SOL    HW116082   3.249   3.735   1.946
 5250SOL    HW216083   3.124   3.738   2.050
 5251SOL     OW16084   3.162   4.177   2.553
 5251SOL    HW116085   3.103   4.257   2.557
 5251SOL    HW216086   3.177   4.142   2.646
 5252SOL     OW16087   3.455   3.945   2.744
 5252SOL    HW116088   3.371   3.944   2.798
 5252SOL    HW216089   3.457   4.028   2.688
 5253SOL     OW16090   2.092   4.352   3.837
 5253SOL    HW116091   1.999   4.350   3.874
 5253SOL    HW216092   2.093   4.313   3.745
 5254SOL     OW16093   2.087   3.999   4.720
 5254SOL    HW116094   2.122   3.982   4.812
 5254SOL    HW216095   1.999   3.954   4.708
 5255SOL     OW16096   1.881   4.092   4.371
 5255SOL    HW116097   1.799   4.135   4.410
 5255SOL    HW216098   1.853   4.019   4.308
 5256SOL     OW16099   2.997   4.427   4.441
 5256SOL    HW116100   3.054   4.505   4.416
 5256SOL    HW216101   2.937   4.453   4.517
 5257SOL     OW16102   3.617   4.331   3.955
 5257SOL    HW116103   3.605   4.318   3.856
 5257SOL    HW216104   3.587   4.250   4.004
 5258SOL     OW16105   2.712   4.522   5.547
 5258SOL    HW116106   2.708   4.598   5.612
 5258SOL    HW216107   2.734   4.558   5.456
 5259SOL     OW16108   2.547   4.736   4.389
 5259SOL    HW116109   2.616   4.720   4.459
 5259SOL    HW216110   2.474   4.793   4.427
 5260SOL     OW16111   2.300   4.116   5.223
 5260SOL    HW116112   2.382   4.060   5.232
 5260SOL    HW216113   2.219   4.058   5.227
 5261SOL     OW16114   3.465   4.171   4.461
 5261SOL    HW116115   3.391   4.217   4.411
 5261SOL    HW216116   3.516   4.239   4.514
 5262SOL     OW16117   3.456   3.838   5.204
 5262SOL    HW116118   3.438   3.905   5.132
 5262SOL    HW216119   3.453   3.884   5.293
 5263SOL     OW16120   1.984   4.367   4.287
 5263SOL    HW116121   1.939   4.279   4.304
 5263SOL    HW216122   1.983   4.421   4.371
 5264SOL     OW16123   1.975   4.461   5.321
 5264SOL    HW116124   2.063   4.448   5.366
 5264SOL    HW216125   1.962   4.558   5.299
 5265SOL     OW16126   2.671   3.728   4.226
 5265SOL    HW116127   2.711   3.819   4.217
 5265SOL    HW216128   2.571   3.736   4.232
 5266SOL     OW16129   2.059   4.700   4.988
 5266SOL    HW116130   2.148   4.655   4.974
 5266SOL    HW216131   1.986   4.635   4.969
 5267SOL     OW16132   3.387   4.723   3.914
 5267SOL    HW116133   3.324   4.647   3.927
 5267SOL    HW216134   3.435   4.741   4.000
 5268SOL     OW16135   2.179   3.975   5.525
 5268SOL    HW116136   2.250   4.046   5.531
 5268SOL    HW216137   2.091   4.014   5.553
 5269SOL     OW16138   2.460   4.453   3.994
 5269SOL    HW116139   2.484   4.522   3.926
 5269SOL    HW216140   2.382   4.486   4.048
 5270SOL     OW16141   3.143   4.069   4.668
 5270SOL    HW116142   3.057   4.019   4.655
 5270SOL    HW216143   3.205   4.015   4.724
 5271SOL     OW16144   2.669   4.329   5.189
 5271SOL    HW116145   2.622   4.326   5.278
 5271SOL    HW216146   2.618   4.274   5.123
 5272SOL     OW16147   3.256   4.193   5.398
 5272SOL    HW116148   3.236   4.236   5.486
 5272SOL    HW216149   3.334   4.131   5.407
 5273SOL     OW16150   2.835   4.614   5.296
 5273SOL    HW116151   2.881   4.530   5.267
 5273SOL    HW216152   2.779   4.648   5.221
 5274SOL     OW16153   2.853   4.134   4.966
 5274SOL    HW116154   2.776   4.168   5.020
 5274SOL    HW216155   2.819   4.083   4.887
 5275SOL     OW16156   2.903   4.425   4.153
 5275SOL    HW116157   2.929   4.421   4.249
 5275SOL    HW216158   2.818   4.374   4.139
 5276SOL     OW16159   1.938   4.535   4.513
 5276SOL    HW116160   2.037   4.523   4.522
 5276SOL    HW216161   1.914   4.630   4.534
 5277SOL     OW16162   2.727   4.072   3.919
 5277SOL    HW116163   2.786   4.135   3.870
 5277SOL    HW216164   2.746   3.978   3.890
 5278SOL     OW16165   3.581   4.309   5.555
 5278SOL    HW116166   3.555   4.398   5.519
 5278SOL    HW216167   3.579   4.241   5.482
 5279SOL     OW16168   2.412   3.920   4.609
 5279SOL    HW116169   2.407   3.915   4.709
 5279SOL    HW216170   2.414   4.016   4.580
 5280SOL     OW16171   3.320   4.459   4.452
 5280SOL    HW116172   3.315   4.394   4.527
 5280SOL    HW216173   3.400   4.518   4.465
 5281SOL     OW16174   2.064   4.009   5.222
 5281SOL    HW116175   1.984   4.069   5.209
 5281SOL    HW216176   2.054   3.960   5.308
 5282SOL     OW16177   3.262   3.831   4.150
 5282SOL    HW116178   3.238   3.794   4.060
 5282SOL    HW216179   3.361   3.847   4.154
 5283SOL     OW16180   2.244   4.424   4.204
 5283SOL    HW116181   2.289   4.334   4.201
 5283SOL    HW216182   2.150   4.413   4.237
 5284SOL     OW16183   3.409   3.946   5.453
 5284SOL    HW116184   3.404   3.983   5.545
 5284SOL    HW216185   3.337   3.877   5.441
 5285SOL     OW16186   2.476   3.846   3.841
 5285SOL    HW116187   2.574   3.824   3.848
 5285SOL    HW216188   2.445   3.829   3.748
 5286SOL     OW16189   2.643   3.988   5.473
 5286SOL    HW116190   2.710   3.927   5.516
 5286SOL    HW216191   2.570   4.007   5.538
 5287SOL     OW16192   3.213   4.314   5.157
 5287SOL    HW116193   3.241   4.271   5.242
 5287SOL    HW216194   3.238   4.410   5.158
 5288SOL     OW16195   2.784   4.227   4.623
 5288SOL    HW116196   2.759   4.218   4.527
 5288SOL    HW216197   2.832   4.145   4.654
 5289SOL     OW16198   2.401   3.788   4.236
 5289SOL    HW116199   2.320   3.789   4.294
 5289SOL    HW216200   2.404   3.871   4.181
 5290SOL     OW16201   2.159   3.759   3.895
 5290SOL    HW116202   2.208   3.843   3.874
 5290SOL    HW216203   2.221   3.694   3.940
 5291SOL     OW16204   2.797   3.960   4.204
 5291SOL    HW116205   2.749   4.001   4.126
 5291SOL    HW216206   2.896   3.958   4.185
 5292SOL     OW16207   2.938   4.407   5.188
 5292SOL    HW116208   2.858   4.346   5.191
 5292SOL    HW216209   3.019   4.354   5.164
 5293SOL     OW16210   2.894   4.273   3.740
 5293SOL    HW116211   2.853   4.355   3.701
 5293SOL    HW216212   2.958   4.299   3.813
 5294SOL     OW16213   1.940   4.280   5.110
 5294SOL    HW116214   2.032   4.279   5.069
 5294SOL    HW216215   1.934   4.354   5.177
 5295SOL     OW16216   2.423   3.946   4.871
 5295SOL    HW116217   2.461   3.862   4.908
 5295SOL    HW216218   2.335   3.965   4.915
 5296SOL     OW16219   2.728   4.178   4.366
 5296SOL    HW116220   2.696   4.250   4.304
 5296SOL    HW216221   2.752   4.097   4.313
 5297SOL     OW16222   2.879   3.763   4.477
 5297SOL    HW116223   2.807   3.768   4.408
 5297SOL    HW216224   2.855   3.694   4.546
 5298SOL     OW16225   3.328   4.314   4.716
 5298SOL    HW116226   3.298   4.219   4.723
 5298SOL    HW216227   3.401   4.330   4.782
 5299SOL     OW16228   3.719   4.557   4.101
 5299SOL    HW116229   3.761   4.493   4.165
 5299SOL    HW216230   3.681   4.506   4.023
 5300SOL     OW16231   3.252   4.299   3.802
 5300SOL    HW116232   3.198   4.278   3.883
 5300SOL    HW216233   3.343   4.258   3.811
 5301SOL     OW16234   2.389   3.980   4.052
 5301SOL    HW116235   2.416   3.921   3.977
 5301SOL    HW216236   2.389   4.075   4.021
 5302SOL     OW16237   3.500   4.823   4.803
 5302SOL    HW116238   3.505   4.904   4.862
 5302SOL    HW216239   3.414   4.825   4.752
 5303SOL     OW16240   2.777   3.813   5.126
 5303SOL    HW116241   2.802   3.793   5.031
 5303SOL    HW216242   2.849   3.869   5.168
 5304SOL     OW16243   2.272   4.537   4.975
 5304SOL    HW116244   2.358   4.549   5.025
 5304SOL    HW216245   2.230   4.450   5.002
 5305SOL     OW16246   3.136   4.110   4.986
 5305SOL    HW116247   3.157   4.184   5.050
 5305SOL    HW216248   3.047   4.127   4.943
 5306SOL     OW16249   2.428   4.261   4.589
 5306SOL    HW116250   2.440   4.327   4.515
 5306SOL    HW216251   2.474   4.295   4.672
 5307SOL     OW16252   3.444   4.363   4.196
 5307SOL    HW116253   3.413   4.424   4.269
 5307SOL    HW216254   3.494   4.415   4.127
 5308SOL     OW16255   2.264   4.475   5.322
 5308SOL    HW116256   2.332   4.530   5.275
 5308SOL    HW216257   2.304   4.387   5.349
 5309SOL     OW16258   3.449   4.503   5.394
 5309SOL    HW116259   3.357   4.541   5.389
 5309SOL    HW216260   3.509   4.550   5.329
 5310SOL     OW16261   2.875   3.829   5.494
 5310SOL    HW116262   2.881   3.914   5.442
 5310SOL    HW216263   2.907   3.753   5.437
 5311SOL     OW16264   2.366   3.774   5.464
 5311SOL    HW116265   2.324   3.717   5.394
 5311SOL    HW216266   2.300   3.843   5.496
 5312SOL     OW16267   2.435   4.594   4.753
 5312SOL    HW116268   2.479   4.683   4.744
 5312SOL    HW216269   2.372   4.594   4.830
 5313SOL     OW16270   3.222   4.586   4.769
 5313SOL    HW116271   3.147   4.586   4.703
 5313SOL    HW216272   3.259   4.494   4.778
 5314SOL     OW16273   3.071   4.249   3.999
 5314SOL    HW116274   3.084   4.165   4.053
 5314SOL    HW216275   3.042   4.323   4.059
 5315SOL     OW16276   2.169   3.937   4.955
 5315SOL    HW116277   2.146   3.974   5.045
 5315SOL    HW216278   2.139   3.842   4.949
 5316SOL     OW16279   2.594   4.358   4.788
 5316SOL    HW116280   2.653   4.332   4.712
 5316SOL    HW216281   2.566   4.454   4.777
 5317SOL     OW16282   3.590   4.659   5.578
 5317SOL    HW116283   3.544   4.652   5.489
 5317SOL    HW216284   3.528   4.703   5.644
 5318SOL     OW16285   2.169   3.787   4.342
 5318SOL    HW116286   2.158   3.881   4.375
 5318SOL    HW216287   2.164   3.724   4.419
 5319SOL     OW16288   3.484   4.091   4.098
 5319SOL    HW116289   3.486   4.015   4.162
 5319SOL    HW216290   3.436   4.168   4.138
 5320SOL     OW16291   2.885   4.490   4.690
 5320SOL    HW116292   2.900   4.511   4.786
 5320SOL    HW216293   2.855   4.395   4.681
 5321SOL     OW16294   2.212   4.622   5.528
 5321SOL    HW116295   2.288   4.666   5.576
 5321SOL    HW216296   2.247   4.575   5.446
 5322SOL     OW16297   3.402   3.998   3.849
 5322SOL    HW116298   3.341   3.923   3.872
 5322SOL    HW216299   3.424   4.050   3.932
 5323SOL     OW16300   3.165   4.562   3.766
 5323SOL    HW116301   3.199   4.469   3.781
 5323SOL    HW216302   3.183   4.589   3.671
 5324SOL     OW16303   2.181   4.534   4.673
 5324SOL    HW116304   2.274   4.570   4.678
 5324SOL    HW216305   2.175   4.449   4.725
 5325SOL     OW16306   2.201   4.233   4.730
 5325SOL    HW116307   2.149   4.150   4.713
 5325SOL    HW216308   2.278   4.238   4.666
 5326SOL     OW16309   3.000   4.104   5.402
 5326SOL    HW116310   2.955   4.167   5.466
 5326SOL    HW216311   3.093   4.135   5.385
 5327SOL     OW16312   3.022   3.931   5.201
 5327SOL    HW116313   3.022   3.995   5.278
 5327SOL    HW216314   3.050   3.979   5.118
 5328SOL     OW16315   2.864   4.520   4.962
 5328SOL    HW116316   2.905   4.488   5.048
 5328SOL    HW216317   2.768   4.493   4.959
 5329SOL     OW16318   1.902   4.268   4.838
 5329SOL    HW116319   1.987   4.235   4.797
 5329SOL    HW216320   1.915   4.283   4.936
 5330SOL     OW16321   2.051   4.244   5.446
 5330SOL    HW116322   2.110   4.204   5.376
 5330SOL    HW216323   1.993   4.315   5.405
 5331SOL     OW16324   3.231   4.674   5.384
 5331SOL    HW116325   3.270   4.763   5.404
 5331SOL    HW216326   3.241   4.654   5.287
 5332SOL     OW16327   2.677   4.296   4.049
 5332SOL    HW116328   2.684   4.207   4.003
 5332SOL    HW216329   2.583   4.330   4.041
 5333SOL     OW16330   3.519   4.328   4.930
 5333SOL    HW116331   3.481   4.259   4.992
 5333SOL    HW216332   3.601   4.292   4.886
 5334SOL     OW16333   2.533   4.188   4.993
 5334SOL    HW116334   2.499   4.099   4.963
 5334SOL    HW216335   2.559   4.242   4.913
 5335SOL     OW16336   2.335   4.224   3.915
 5335SOL    HW116337   2.396   4.304   3.919
 5335SOL    HW216338   2.240   4.255   3.922
 5336SOL     OW16339   3.209   4.783   4.958
 5336SOL    HW116340   3.233   4.720   4.884
 5336SOL    HW216341   3.119   4.823   4.940
 5337SOL     OW16342   3.164   4.579   4.033
 5337SOL    HW116343   3.078   4.548   4.075
 5337SOL    HW216344   3.160   4.565   3.934
 5338SOL     OW16345   3.588   3.859   4.247
 5338SOL    HW116346   3.661   3.842   4.180
 5338SOL    HW216347   3.557   3.772   4.285
 5339SOL     OW16348   3.142   4.651   4.396
 5339SOL    HW116349   3.202   4.570   4.398
 5339SOL    HW216350   3.182   4.720   4.336
 5340SOL     OW16351   3.703   3.899   4.687
 5340SOL    HW116352   3.742   3.814   4.651
 5340SOL    HW216353   3.605   3.901   4.668
 5341SOL     OW16354   2.125   4.050   4.444
 5341SOL    HW116355   2.046   4.101   4.410
 5341SOL    HW216356   2.116   4.035   4.542
 5342SOL     OW16357   2.778   4.634   4.015
 5342SOL    HW116358   2.841   4.672   3.947
 5342SOL    HW216359   2.818   4.551   4.054
 5343SOL     OW16360   2.876   3.960   4.695
 5343SOL    HW116361   2.868   3.924   4.602
 5343SOL    HW216362   2.874   3.884   4.760
 5344SOL     OW16363   3.571   4.109   5.105
 5344SOL    HW116364   3.644   4.178   5.109
 5344SOL    HW216365   3.599   4.034   5.046
 5345SOL     OW16366   1.967   4.737   5.450
 5345SOL    HW116367   1.890   4.704   5.504
 5345SOL    HW216368   2.052   4.707   5.492
 5346SOL     OW16369   2.534   3.927   5.213
 5346SOL    HW116370   2.624   3.911   5.173
 5346SOL    HW216371   2.542   3.932   5.312
 5347SOL     OW16372   1.937   4.069   3.757
 5347SOL    HW116373   1.845   4.041   3.728
 5347SOL    HW216374   1.968   4.146   3.701
 5348SOL     OW16375   3.302   4.580   5.122
 5348SOL    HW116376   3.245   4.632   5.059
 5348SOL    HW216377   3.398   4.592   5.098
 5349SOL     OW16378   1.934   3.890   4.042
 5349SOL    HW116379   1.917   3.973   3.988
 5349SOL    HW216380   2.024   3.853   4.020
 5350SOL     OW16381   2.475   4.566   5.155
 5350SOL    HW116382   2.531   4.647   5.138
 5350SOL    HW216383   2.534   4.486   5.158
 5351SOL     OW16384   2.578   4.289   5.432
 5351SOL    HW116385   2.597   4.354   5.506
 5351SOL    HW216386   2.638   4.209   5.441
 5352SOL     OW16387   3.536   4.607   4.978
 5352SOL    HW116388   3.509   4.518   4.941
 5352SOL    HW216389   3.537   4.675   4.905
 5353SOL     OW16390   3.087   4.049   4.173
 5353SOL    HW116391   3.152   3.975   4.162
 5353SOL    HW216392   3.107   4.099   4.257
 5354SOL     OW16393   2.456   4.469   4.376
 5354SOL    HW116394   2.506   4.554   4.357
 5354SOL    HW216395   2.368   4.471   4.328
 5355SOL     OW16396   3.639   4.066   5.366
 5355SOL    HW116397   3.622   4.097   5.272
 5355SOL    HW216398   3.555   4.029   5.404
 5356SOL     OW16399   3.592   4.658   5.241
 5356SOL    HW116400   3.630   4.749   5.256
 5356SOL    HW216401   3.584   4.641   5.142
 5357SOL     OW16402   3.686   3.916   4.951
 5357SOL    HW116403   3.682   3.826   4.995
 5357SOL    HW216404   3.689   3.905   4.852
 5358SOL     OW16405   2.290   4.148   4.244
 5358SOL    HW116406   2.320   4.076   4.182
 5358SOL    HW216407   2.251   4.108   4.327
 5359SOL     OW16408   2.179   4.271   5.004
 5359SOL    HW116409   2.217   4.212   5.076
 5359SOL    HW216410   2.219   4.245   4.916
 5360SOL     OW16411   3.286   3.938   4.836
 5360SOL    HW116412   3.338   3.873   4.891
 5360SOL    HW216413   3.237   4.001   4.897
 5361SOL     OW16414   2.863   3.758   4.878
 5361SOL    HW116415   2.800   3.686   4.847
 5361SOL    HW216416   2.956   3.722   4.878
 5362SOL     OW16417   3.214   3.776   3.892
 5362SOL    HW116418   3.249   3.735   3.808
 5362SOL    HW216419   3.124   3.738   3.912
 5363SOL     OW16420   3.162   4.177   4.415
 5363SOL    HW116421   3.103   4.257   4.419
 5363SOL    HW216422   3.177   4.142   4.508
 5364SOL     OW16423   3.455   3.945   4.606
 5364SOL    HW116424   3.371   3.944   4.660
 5364SOL    HW216425   3.457   4.028   4.550
 5365SOL     OW16426   2.092   4.352   5.699
 5365SOL    HW116427   1.999   4.350   5.736
 5365SOL    HW216428   2.093   4.313   5.607
 5366SOL     OW16429   2.087   3.999   6.582
 5366SOL    HW116430   2.122   3.982   6.674
 5366SOL    HW216431   1.999   3.954   6.570
 5367SOL     OW16432   1.881   4.092   6.233
 5367SOL    HW116433   1.799   4.135   6.272
 5367SOL    HW216434   1.853   4.019   6.170
 5368SOL     OW16435   2.997   4.427   6.303
 5368SOL    HW116436   3.054   4.505   6.278
 5368SOL    HW216437   2.937   4.453   6.379
 5369SOL     OW16438   3.617   4.331   5.817
 5369SOL    HW116439   3.605   4.318   5.718
 5369SOL    HW216440   3.587   4.250   5.866
 5370SOL     OW16441   2.712   4.522   7.409
 5370SOL    HW116442   2.708   4.598   7.474
 5370SOL    HW216443   2.734   4.558   7.318
 5371SOL     OW16444   2.547   4.736   6.251
 5371SOL    HW116445   2.616   4.720   6.321
 5371SOL    HW216446   2.474   4.793   6.289
 5372SOL     OW16447   2.300   4.116   7.085
 5372SOL    HW116448   2.382   4.060   7.094
 5372SOL    HW216449   2.219   4.058   7.089
 5373SOL     OW16450   3.465   4.171   6.323
 5373SOL    HW116451   3.391   4.217   6.273
 5373SOL    HW216452   3.516   4.239   6.376
 5374SOL     OW16453   3.456   3.838   7.066
 5374SOL    HW116454   3.438   3.905   6.994
 5374SOL    HW216455   3.453   3.884   7.155
 5375SOL     OW16456   1.984   4.367   6.149
 5375SOL    HW116457   1.939   4.279   6.166
 5375SOL    HW216458   1.983   4.421   6.233
 5376SOL     OW16459   1.975   4.461   7.183
 5376SOL    HW116460   2.063   4.448   7.228
 5376SOL    HW216461   1.962   4.558   7.161
 5377SOL     OW16462   2.671   3.728   6.088
 5377SOL    HW116463   2.711   3.819   6.079
 5377SOL    HW216464   2.571   3.736   6.094
 5378SOL     OW16465   2.059   4.700   6.850
 5378SOL    HW116466   2.148   4.655   6.836
 5378SOL    HW216467   1.986   4.635   6.831
 5379SOL     OW16468   3.387   4.723   5.776
 5379SOL    HW116469   3.324   4.647   5.789
 5379SOL    HW216470   3.435   4.741   5.862
 5380SOL     OW16471   2.179   3.975   7.387
 5380SOL    HW116472   2.250   4.046   7.393
 5380SOL    HW216473   2.091   4.014   7.415
 5381SOL     OW16474   2.460   4.453   5.856
 5381SOL    HW116475   2.484   4.522   5.788
 5381SOL    HW216476   2.382   4.486   5.910
 5382SOL     OW16477   3.143   4.069   6.530
 5382SOL    HW116478   3.057   4.019   6.517
 5382SOL    HW216479   3.205   4.015   6.586
 5383SOL     OW16480   2.669   4.329   7.051
 5383SOL    HW116481   2.622   4.326   7.140
 5383SOL    HW216482   2.618   4.274   6.985
 5384SOL     OW16483   3.256   4.193   7.260
 5384SOL    HW116484   3.236   4.236   7.348
 5384SOL    HW216485   3.334   4.131   7.269
 5385SOL     OW16486   2.835   4.614   7.158
 5385SOL    HW116487   2.881   4.530   7.129
 5385SOL    HW216488   2.779   4.648   7.083
 5386SOL     OW16489   2.853   4.134   6.828
 5386SOL    HW116490   2.776   4.168   6.882
 5386SOL    HW216491   2.819   4.083   6.749
 5387SOL     OW16492   2.903   4.425   6.015
 5387SOL    HW116493   2.929   4.421   6.111
 5387SOL    HW216494   2.818   4.374   6.001
 5388SOL     OW16495   1.938   4.535   6.375
 5388SOL    HW116496   2.037   4.523   6.384
 5388SOL    HW216497   1.914   4.630   6.396
 5389SOL     OW16498   2.727   4.072   5.781
 5389SOL    HW116499   2.786   4.135   5.732
 5389SOL    HW216500   2.746   3.978   5.752
 5390SOL     OW16501   3.581   4.309   7.417
 5390SOL    HW116502   3.555   4.398   7.381
 5390SOL    HW216503   3.579   4.241   7.344
 5391SOL     OW16504   2.412   3.920   6.471
 5391SOL    HW116505   2.407   3.915   6.571
 5391SOL    HW216506   2.414   4.016   6.442
 5392SOL     OW16507   3.320   4.459   6.314
 5392SOL    HW116508   3.315   4.394   6.389
 5392SOL    HW216509   3.400   4.518   6.327
 5393SOL     OW16510   2.064   4.009   7.084
 5393SOL    HW116511   1.984   4.069   7.071
 5393SOL    HW216512   2.054   3.960   7.170
 5394SOL     OW16513   3.262   3.831   6.012
 5394SOL    HW116514   3.238   3.794   5.922
 5394SOL    HW216515   3.361   3.847   6.016
 5395SOL     OW16516   2.244   4.424   6.066
 5395SOL    HW116517   2.289   4.334   6.063
 5395SOL    HW216518   2.150   4.413   6.099
 5396SOL     OW16519   3.409   3.946   7.315
 5396SOL    HW116520   3.404   3.983   7.407
 5396SOL    HW216521   3.337   3.877   7.303
 5397SOL     OW16522   2.476   3.846   5.703
 5397SOL    HW116523   2.574   3.824   5.710
 5397SOL    HW216524   2.445   3.829   5.610
 5398SOL     OW16525   2.643   3.988   7.335
 5398SOL    HW116526   2.710   3.927   7.378
 5398SOL    HW216527   2.570   4.007   7.400
 5399SOL     OW16528   3.213   4.314   7.019
 5399SOL    HW116529   3.241   4.271   7.104
 5399SOL    HW216530   3.238   4.410   7.020
 5400SOL     OW16531   2.784   4.227   6.485
 5400SOL    HW116532   2.759   4.218   6.389
 5400SOL    HW216533   2.832   4.145   6.516
 5401SOL     OW16534   2.401   3.788   6.098
 5401SOL    HW116535   2.320   3.789   6.156
 5401SOL    HW216536   2.404   3.871   6.043
 5402SOL     OW16537   2.159   3.759   5.757
 5402SOL    HW116538   2.208   3.843   5.736
 5402SOL    HW216539   2.221   3.694   5.802
 5403SOL     OW16540   2.797   3.960   6.066
 5403SOL    HW116541   2.749   4.001   5.988
 5403SOL    HW216542   2.896   3.958   6.047
 5404SOL     OW16543   2.938   4.407   7.050
 5404SOL    HW116544   2.858   4.346   7.053
 5404SOL    HW216545   3.019   4.354   7.026
 5405SOL     OW16546   2.894   4.273   5.602
 5405SOL    HW116547   2.853   4.355   5.563
 5405SOL    HW216548   2.958   4.299   5.675
 5406SOL     OW16549   1.940   4.280   6.972
 5406SOL    HW116550   2.032   4.279   6.931
 5406SOL    HW216551   1.934   4.354   7.039
 5407SOL     OW16552   2.423   3.946   6.733
 5407SOL    HW116553   2.461   3.862   6.770
 5407SOL    HW216554   2.335   3.965   6.777
 5408SOL     OW16555   2.728   4.178   6.228
 5408SOL    HW116556   2.696   4.250   6.166
 5408SOL    HW216557   2.752   4.097   6.175
 5409SOL     OW16558   2.879   3.763   6.339
 5409SOL    HW116559   2.807   3.768   6.270
 5409SOL    HW216560   2.855   3.694   6.408
 5410SOL     OW16561   3.328   4.314   6.578
 5410SOL    HW116562   3.298   4.219   6.585
 5410SOL    HW216563   3.401   4.330   6.644
 5411SOL     OW16564   3.719   4.557   5.963
 5411SOL    HW116565   3.761   4.493   6.027
 5411SOL    HW216566   3.681   4.506   5.885
 5412SOL     OW16567   3.252   4.299   5.664
 5412SOL    HW116568   3.198   4.278   5.745
 5412SOL    HW216569   3.343   4.258   5.673
 5413SOL     OW16570   2.389   3.980   5.914
 5413SOL    HW116571   2.416   3.921   5.839
 5413SOL    HW216572   2.389   4.075   5.883
 5414SOL     OW16573   3.500   4.823   6.665
 5414SOL    HW116574   3.505   4.904   6.724
 5414SOL    HW216575   3.414   4.825   6.614
 5415SOL     OW16576   2.777   3.813   6.988
 5415SOL    HW116577   2.802   3.793   6.893
 5415SOL    HW216578   2.849   3.869   7.030
 5416SOL     OW16579   2.272   4.537   6.837
 5416SOL    HW116580   2.358   4.549   6.887
 5416SOL    HW216581   2.230   4.450   6.864
 5417SOL     OW16582   3.136   4.110   6.848
 5417SOL    HW116583   3.157   4.184   6.912
 5417SOL    HW216584   3.047   4.127   6.805
 5418SOL     OW16585   2.428   4.261   6.451
 5418SOL    HW116586   2.440   4.327   6.377
 5418SOL    HW216587   2.474   4.295   6.534
 5419SOL     OW16588   3.444   4.363   6.058
 5419SOL    HW116589   3.413   4.424   6.131
 5419SOL    HW216590   3.494   4.415   5.989
 5420SOL     OW16591   2.264   4.475   7.184
 5420SOL    HW116592   2.332   4.530   7.137
 5420SOL    HW216593   2.304   4.387   7.211
 5421SOL     OW16594   3.449   4.503   7.256
 5421SOL    HW116595   3.357   4.541   7.251
 5421SOL    HW216596   3.509   4.550   7.191
 5422SOL     OW16597   2.875   3.829   7.356
 5422SOL    HW116598   2.881   3.914   7.304
 5422SOL    HW216599   2.907   3.753   7.299
 5423SOL     OW16600   2.366   3.774   7.326
 5423SOL    HW116601   2.324   3.717   7.256
 5423SOL    HW216602   2.300   3.843   7.358
 5424SOL     OW16603   2.435   4.594   6.615
 5424SOL    HW116604   2.479   4.683   6.606
 5424SOL    HW216605   2.372   4.594   6.692
 5425SOL     OW16606   3.222   4.586   6.631
 5425SOL    HW116607   3.147   4.586   6.565
 5425SOL    HW216608   3.259   4.494   6.640
 5426SOL     OW16609   3.071   4.249   5.861
 5426SOL    HW116610   3.084   4.165   5.915
 5426SOL    HW216611   3.042   4.323   5.921
 5427SOL     OW16612   2.169   3.937   6.817
 5427SOL    HW116613   2.146   3.974   6.907
 5427SOL    HW216614   2.139   3.842   6.811
 5428SOL     OW16615   2.594   4.358   6.650
 5428SOL    HW116616   2.653   4.332   6.574
 5428SOL    HW216617   2.566   4.454   6.639
 5429SOL     OW16618   3.590   4.659   7.440
 5429SOL    HW116619   3.544   4.652   7.351
 5429SOL    HW216620   3.528   4.703   7.506
 5430SOL     OW16621   2.169   3.787   6.204
 5430SOL    HW116622   2.158   3.881   6.237
 5430SOL    HW216623   2.164   3.724   6.281
 5431SOL     OW16624   3.484   4.091   5.960
 5431SOL    HW116625   3.486   4.015   6.024
 5431SOL    HW216626   3.436   4.168   6.000
 5432SOL     OW16627   2.885   4.490   6.552
 5432SOL    HW116628   2.900   4.511   6.648
 5432SOL    HW216629   2.855   4.395   6.543
 5433SOL     OW16630   2.212   4.622   7.390
 5433SOL    HW116631   2.288   4.666   7.438
 5433SOL    HW216632   2.247   4.575   7.308
 5434SOL     OW16633   3.402   3.998   5.711
 5434SOL    HW116634   3.341   3.923   5.734
 5434SOL    HW216635   3.424   4.050   5.794
 5435SOL     OW16636   3.165   4.562   5.628
 5435SOL    HW116637   3.199   4.469   5.643
 5435SOL    HW216638   3.183   4.589   5.533
 5436SOL     OW16639   2.181   4.534   6.535
 5436SOL    HW116640   2.274   4.570   6.540
 5436SOL    HW216641   2.175   4.449   6.587
 5437SOL     OW16642   2.201   4.233   6.592
 5437SOL    HW116643   2.149   4.150   6.575
 5437SOL    HW216644   2.278   4.238   6.528
 5438SOL     OW16645   3.000   4.104   7.264
 5438SOL    HW116646   2.955   4.167   7.328
 5438SOL    HW216647   3.093   4.135   7.247
 5439SOL     OW16648   3.022   3.931   7.063
 5439SOL    HW116649   3.022   3.995   7.140
 5439SOL    HW216650   3.050   3.979   6.980
 5440SOL     OW16651   2.864   4.520   6.824
 5440SOL    HW116652   2.905   4.488   6.910
 5440SOL    HW216653   2.768   4.493   6.821
 5441SOL     OW16654   1.902   4.268   6.700
 5441SOL    HW116655   1.987   4.235   6.659
 5441SOL    HW216656   1.915   4.283   6.798
 5442SOL     OW16657   2.051   4.244   7.308
 5442SOL    HW116658   2.110   4.204   7.238
 5442SOL    HW216659   1.993   4.315   7.267
 5443SOL     OW16660   3.231   4.674   7.246
 5443SOL    HW116661   3.270   4.763   7.266
 5443SOL    HW216662   3.241   4.654   7.149
 5444SOL     OW16663   2.677   4.296   5.911
 5444SOL    HW116664   2.684   4.207   5.865
 5444SOL    HW216665   2.583   4.330   5.903
 5445SOL     OW16666   3.519   4.328   6.792
 5445SOL    HW116667   3.481   4.259   6.854
 5445SOL    HW216668   3.601   4.292   6.748
 5446SOL     OW16669   2.533   4.188   6.855
 5446SOL    HW116670   2.499   4.099   6.825
 5446SOL    HW216671   2.559   4.242   6.775
 5447SOL     OW16672   2.335   4.224   5.777
 5447SOL    HW116673   2.396   4.304   5.781
 5447SOL    HW216674   2.240   4.255   5.784
 5448SOL     OW16675   3.209   4.783   6.820
 5448SOL    HW116676   3.233   4.720   6.746
 5448SOL    HW216677   3.119   4.823   6.802
 5449SOL     OW16678   3.164   4.579   5.895
 5449SOL    HW116679   3.078   4.548   5.937
 5449SOL    HW216680   3.160   4.565   5.796
 5450SOL     OW16681   3.588   3.859   6.109
 5450SOL    HW116682   3.661   3.842   6.042
 5450SOL    HW216683   3.557   3.772   6.147
 5451SOL     OW16684   3.142   4.651   6.258
 5451SOL    HW116685   3.202   4.570   6.260
 5451SOL    HW216686   3.182   4.720   6.198
 5452SOL     OW16687   3.703   3.899   6.549
 5452SOL    HW116688   3.742   3.814   6.513
 5452SOL    HW216689   3.605   3.901   6.530
 5453SOL     OW16690   2.125   4.050   6.306
 5453SOL    HW116691   2.046   4.101   6.272
 5453SOL    HW216692   2.116   4.035   6.404
 5454SOL     OW16693   2.778   4.634   5.877
 5454SOL    HW116694   2.841   4.672   5.809
 5454SOL    HW216695   2.818   4.551   5.916
 5455SOL     OW16696   2.876   3.960   6.557
 5455SOL    HW116697   2.868   3.924   6.464
 5455SOL    HW216698   2.874   3.884   6.622
 5456SOL     OW16699   3.571   4.109   6.967
 5456SOL    HW116700   3.644   4.178   6.971
 5456SOL    HW216701   3.599   4.034   6.908
 5457SOL     OW16702   1.967   4.737   7.312
 5457SOL    HW116703   1.890   4.704   7.366
 5457SOL    HW216704   2.052   4.707   7.354
 5458SOL     OW16705   2.534   3.927   7.075
 5458SOL    HW116706   2.624   3.911   7.035
 5458SOL    HW216707   2.542   3.932   7.174
 5459SOL     OW16708   1.937   4.069   5.619
 5459SOL    HW116709   1.845   4.041   5.590
 5459SOL    HW216710   1.968   4.146   5.563
 5460SOL     OW16711   3.302   4.580   6.984
 5460SOL    HW116712   3.245   4.632   6.921
 5460SOL    HW216713   3.398   4.592   6.960
 5461SOL     OW16714   1.934   3.890   5.904
 5461SOL    HW116715   1.917   3.973   5.850
 5461SOL    HW216716   2.024   3.853   5.882
 5462SOL     OW16717   2.475   4.566   7.017
 5462SOL    HW116718   2.531   4.647   7.000
 5462SOL    HW216719   2.534   4.486   7.020
 5463SOL     OW16720   2.578   4.289   7.294
 5463SOL    HW116721   2.597   4.354   7.368
 5463SOL    HW216722   2.638   4.209   7.303
 5464SOL     OW16723   3.536   4.607   6.840
 5464SOL    HW116724   3.509   4.518   6.803
 5464SOL    HW216725   3.537   4.675   6.767
 5465SOL     OW16726   3.087   4.049   6.035
 5465SOL    HW116727   3.152   3.975   6.024
 5465SOL    HW216728   3.107   4.099   6.119
 5466SOL     OW16729   2.456   4.469   6.238
 5466SOL    HW116730   2.506   4.554   6.219
 5466SOL    HW216731   2.368   4.471   6.190
 5467SOL     OW16732   3.639   4.066   7.228
 5467SOL    HW116733   3.622   4.097   7.134
 5467SOL    HW216734   3.555   4.029   7.266
 5468SOL     OW16735   3.592   4.658   7.103
 5468SOL    HW116736   3.630   4.749   7.118
 5468SOL    HW216737   3.584   4.641   7.004
 5469SOL     OW16738   3.686   3.916   6.813
 5469SOL    HW116739   3.682   3.826   6.857
 5469SOL    HW216740   3.689   3.905   6.714
 5470SOL     OW16741   2.290   4.148   6.106
 5470SOL    HW116742   2.320   4.076   6.044
 5470SOL    HW216743   2.251   4.108   6.189
 5471SOL     OW16744   2.179   4.271   6.866
 5471SOL    HW116745   2.217   4.212   6.938
 5471SOL    HW216746   2.219   4.245   6.778
 5472SOL     OW16747   3.286   3.938   6.698
 5472SOL    HW116748   3.338   3.873   6.753
 5472SOL    HW216749   3.237   4.001   6.759
 5473SOL     OW16750   2.863   3.758   6.740
 5473SOL    HW116751   2.800   3.686   6.709
 5473SOL    HW216752   2.956   3.722   6.740
 5474SOL     OW16753   3.214   3.776   5.754
 5474SOL    HW116754   3.249   3.735   5.670
 5474SOL    HW216755   3.124   3.738   5.774
 5475SOL     OW16756   3.162   4.177   6.277
 5475SOL    HW116757   3.103   4.257   6.281
 5475SOL    HW216758   3.177   4.142   6.370
 5476SOL     OW16759   3.455   3.945   6.468
 5476SOL    HW116760   3.371   3.944   6.522
 5476SOL    HW216761   3.457   4.028   6.412
 5477SOL     OW16762   2.092   4.352   7.561
 5477SOL    HW116763   1.999   4.350   7.598
 5477SOL    HW216764   2.093   4.313   7.469
 5478SOL     OW16765   2.087   3.999   8.444
 5478SOL    HW116766   2.122   3.982   8.536
 5478SOL    HW216767   1.999   3.954   8.432
 5479SOL     OW16768   1.881   4.092   8.095
 5479SOL    HW116769   1.799   4.135   8.134
 5479SOL    HW216770   1.853   4.019   8.032
 5480SOL     OW16771   2.997   4.427   8.165
 5480SOL    HW116772   3.054   4.505   8.140
 5480SOL    HW216773   2.937   4.453   8.241
 5481SOL     OW16774   3.617   4.331   7.679
 5481SOL    HW116775   3.605   4.318   7.580
 5481SOL    HW216776   3.587   4.250   7.728
 5482SOL     OW16777   2.712   4.522   9.271
 5482SOL    HW116778   2.708   4.598   9.336
 5482SOL    HW216779   2.734   4.558   9.180
 5483SOL     OW16780   2.547   4.736   8.113
 5483SOL    HW116781   2.616   4.720   8.183
 5483SOL    HW216782   2.474   4.793   8.151
 5484SOL     OW16783   2.300   4.116   8.947
 5484SOL    HW116784   2.382   4.060   8.956
 5484SOL    HW216785   2.219   4.058   8.951
 5485SOL     OW16786   3.465   4.171   8.185
 5485SOL    HW116787   3.391   4.217   8.135
 5485SOL    HW216788   3.516   4.239   8.238
 5486SOL     OW16789   3.456   3.838   8.928
 5486SOL    HW116790   3.438   3.905   8.856
 5486SOL    HW216791   3.453   3.884   9.017
 5487SOL     OW16792   1.984   4.367   8.011
 5487SOL    HW116793   1.939   4.279   8.028
 5487SOL    HW216794   1.983   4.421   8.095
 5488SOL     OW16795   1.975   4.461   9.045
 5488SOL    HW116796   2.063   4.448   9.090
 5488SOL    HW216797   1.962   4.558   9.023
 5489SOL     OW16798   2.671   3.728   7.950
 5489SOL    HW116799   2.711   3.819   7.941
 5489SOL    HW216800   2.571   3.736   7.956
 5490SOL     OW16801   2.059   4.700   8.712
 5490SOL    HW116802   2.148   4.655   8.698
 5490SOL    HW216803   1.986   4.635   8.693
 5491SOL     OW16804   3.387   4.723   7.638
 5491SOL    HW116805   3.324   4.647   7.651
 5491SOL    HW216806   3.435   4.741   7.724
 5492SOL     OW16807   2.179   3.975   9.249
 5492SOL    HW116808   2.250   4.046   9.255
 5492SOL    HW216809   2.091   4.014   9.277
 5493SOL     OW16810   2.460   4.453   7.718
 5493SOL    HW116811   2.484   4.522   7.650
 5493SOL    HW216812   2.382   4.486   7.772
 5494SOL     OW16813   3.143   4.069   8.392
 5494SOL    HW116814   3.057   4.019   8.379
 5494SOL    HW216815   3.205   4.015   8.448
 5495SOL     OW16816   2.669   4.329   8.913
 5495SOL    HW116817   2.622   4.326   9.002
 5495SOL    HW216818   2.618   4.274   8.847
 5496SOL     OW16819   3.256   4.193   9.122
 5496SOL    HW116820   3.236   4.236   9.210
 5496SOL    HW216821   3.334   4.131   9.131
 5497SOL     OW16822   2.835   4.614   9.020
 5497SOL    HW116823   2.881   4.530   8.991
 5497SOL    HW216824   2.779   4.648   8.945
 5498SOL     OW16825   2.853   4.134   8.690
 5498SOL    HW116826   2.776   4.168   8.744
 5498SOL    HW216827   2.819   4.083   8.611
 5499SOL     OW16828   2.903   4.425   7.877
 5499SOL    HW116829   2.929   4.421   7.973
 5499SOL    HW216830   2.818   4.374   7.863
 5500SOL     OW16831   1.938   4.535   8.237
 5500SOL    HW116832   2.037   4.523   8.246
 5500SOL    HW216833   1.914   4.630   8.258
 5501SOL     OW16834   2.727   4.072   7.643
 5501SOL    HW116835   2.786   4.135   7.594
 5501SOL    HW216836   2.746   3.978   7.614
 5502SOL     OW16837   3.581   4.309   9.279
 5502SOL    HW116838   3.555   4.398   9.243
 5502SOL    HW216839   3.579   4.241   9.206
 5503SOL     OW16840   2.412   3.920   8.333
 5503SOL    HW116841   2.407   3.915   8.433
 5503SOL    HW216842   2.414   4.016   8.304
 5504SOL     OW16843   3.320   4.459   8.176
 5504SOL    HW116844   3.315   4.394   8.251
 5504SOL    HW216845   3.400   4.518   8.189
 5505SOL     OW16846   2.064   4.009   8.946
 5505SOL    HW116847   1.984   4.069   8.933
 5505SOL    HW216848   2.054   3.960   9.032
 5506SOL     OW16849   3.262   3.831   7.874
 5506SOL    HW116850   3.238   3.794   7.784
 5506SOL    HW216851   3.361   3.847   7.878
 5507SOL     OW16852   2.244   4.424   7.928
 5507SOL    HW116853   2.289   4.334   7.925
 5507SOL    HW216854   2.150   4.413   7.961
 5508SOL     OW16855   3.409   3.946   9.177
 5508SOL    HW116856   3.404   3.983   9.269
 5508SOL    HW216857   3.337   3.877   9.165
 5509SOL     OW16858   2.476   3.846   7.565
 5509SOL    HW116859   2.574   3.824   7.572
 5509SOL    HW216860   2.445   3.829   7.472
 5510SOL     OW16861   2.643   3.988   9.197
 5510SOL    HW116862   2.710   3.927   9.240
 5510SOL    HW216863   2.570   4.007   9.262
 5511SOL     OW16864   3.213   4.314   8.881
 5511SOL    HW116865   3.241   4.271   8.966
 5511SOL    HW216866   3.238   4.410   8.882
 5512SOL     OW16867   2.784   4.227   8.347
 5512SOL    HW116868   2.759   4.218   8.251
 5512SOL    HW216869   2.832   4.145   8.378
 5513SOL     OW16870   2.401   3.788   7.960
 5513SOL    HW116871   2.320   3.789   8.018
 5513SOL    HW216872   2.404   3.871   7.905
 5514SOL     OW16873   2.159   3.759   7.619
 5514SOL    HW116874   2.208   3.843   7.598
 5514SOL    HW216875   2.221   3.694   7.664
 5515SOL     OW16876   2.797   3.960   7.928
 5515SOL    HW116877   2.749   4.001   7.850
 5515SOL    HW216878   2.896   3.958   7.909
 5516SOL     OW16879   2.938   4.407   8.912
 5516SOL    HW116880   2.858   4.346   8.915
 5516SOL    HW216881   3.019   4.354   8.888
 5517SOL     OW16882   2.894   4.273   7.464
 5517SOL    HW116883   2.853   4.355   7.425
 5517SOL    HW216884   2.958   4.299   7.537
 5518SOL     OW16885   1.940   4.280   8.834
 5518SOL    HW116886   2.032   4.279   8.793
 5518SOL    HW216887   1.934   4.354   8.901
 5519SOL     OW16888   2.423   3.946   8.595
 5519SOL    HW116889   2.461   3.862   8.632
 5519SOL    HW216890   2.335   3.965   8.639
 5520SOL     OW16891   2.728   4.178   8.090
 5520SOL    HW116892   2.696   4.250   8.028
 5520SOL    HW216893   2.752   4.097   8.037
 5521SOL     OW16894   2.879   3.763   8.201
 5521SOL    HW116895   2.807   3.768   8.132
 5521SOL    HW216896   2.855   3.694   8.270
 5522SOL     OW16897   3.328   4.314   8.440
 5522SOL    HW116898   3.298   4.219   8.447
 5522SOL    HW216899   3.401   4.330   8.506
 5523SOL     OW16900   3.719   4.557   7.825
 5523SOL    HW116901   3.761   4.493   7.889
 5523SOL    HW216902   3.681   4.506   7.747
 5524SOL     OW16903   3.252   4.299   7.526
 5524SOL    HW116904   3.198   4.278   7.607
 5524SOL    HW216905   3.343   4.258   7.535
 5525SOL     OW16906   2.389   3.980   7.776
 5525SOL    HW116907   2.416   3.921   7.701
 5525SOL    HW216908   2.389   4.075   7.745
 5526SOL     OW16909   3.500   4.823   8.527
 5526SOL    HW116910   3.505   4.904   8.586
 5526SOL    HW216911   3.414   4.825   8.476
 5527SOL     OW16912   2.777   3.813   8.850
 5527SOL    HW116913   2.802   3.793   8.755
 5527SOL    HW216914   2.849   3.869   8.892
 5528SOL     OW16915   2.272   4.537   8.699
 5528SOL    HW116916   2.358   4.549   8.749
 5528SOL    HW216917   2.230   4.450   8.726
 5529SOL     OW16918   3.136   4.110   8.710
 5529SOL    HW116919   3.157   4.184   8.774
 5529SOL    HW216920   3.047   4.127   8.667
 5530SOL     OW16921   2.428   4.261   8.313
 5530SOL    HW116922   2.440   4.327   8.239
 5530SOL    HW216923   2.474   4.295   8.396
 5531SOL     OW16924   3.444   4.363   7.920
 5531SOL    HW116925   3.413   4.424   7.993
 5531SOL    HW216926   3.494   4.415   7.851
 5532SOL     OW16927   2.264   4.475   9.046
 5532SOL    HW116928   2.332   4.530   8.999
 5532SOL    HW216929   2.304   4.387   9.073
 5533SOL     OW16930   3.449   4.503   9.118
 5533SOL    HW116931   3.357   4.541   9.113
 5533SOL    HW216932   3.509   4.550   9.053
 5534SOL     OW16933   2.875   3.829   9.218
 5534SOL    HW116934   2.881   3.914   9.166
 5534SOL    HW216935   2.907   3.753   9.161
 5535SOL     OW16936   2.366   3.774   9.188
 5535SOL    HW116937   2.324   3.717   9.118
 5535SOL    HW216938   2.300   3.843   9.220
 5536SOL     OW16939   2.435   4.594   8.477
 5536SOL    HW116940   2.479   4.683   8.468
 5536SOL    HW216941   2.372   4.594   8.554
 5537SOL     OW16942   3.222   4.586   8.493
 5537SOL    HW116943   3.147   4.586   8.427
 5537SOL    HW216944   3.259   4.494   8.502
 5538SOL     OW16945   3.071   4.249   7.723
 5538SOL    HW116946   3.084   4.165   7.777
 5538SOL    HW216947   3.042   4.323   7.783
 5539SOL     OW16948   2.169   3.937   8.679
 5539SOL    HW116949   2.146   3.974   8.769
 5539SOL    HW216950   2.139   3.842   8.673
 5540SOL     OW16951   2.594   4.358   8.512
 5540SOL    HW116952   2.653   4.332   8.436
 5540SOL    HW216953   2.566   4.454   8.501
 5541SOL     OW16954   3.590   4.659   9.302
 5541SOL    HW116955   3.544   4.652   9.213
 5541SOL    HW216956   3.528   4.703   9.368
 5542SOL     OW16957   2.169   3.787   8.066
 5542SOL    HW116958   2.158   3.881   8.099
 5542SOL    HW216959   2.164   3.724   8.143
 5543SOL     OW16960   3.484   4.091   7.822
 5543SOL    HW116961   3.486   4.015   7.886
 5543SOL    HW216962   3.436   4.168   7.862
 5544SOL     OW16963   2.885   4.490   8.414
 5544SOL    HW116964   2.900   4.511   8.510
 5544SOL    HW216965   2.855   4.395   8.405
 5545SOL     OW16966   2.212   4.622   9.252
 5545SOL    HW116967   2.288   4.666   9.300
 5545SOL    HW216968   2.247   4.575   9.170
 5546SOL     OW16969   3.402   3.998   7.573
 5546SOL    HW116970   3.341   3.923   7.596
 5546SOL    HW216971   3.424   4.050   7.656
 5547SOL     OW16972   3.165   4.562   7.490
 5547SOL    HW116973   3.199   4.469   7.505
 5547SOL    HW216974   3.183   4.589   7.395
 5548SOL     OW16975   2.181   4.534   8.397
 5548SOL    HW116976   2.274   4.570   8.402
 5548SOL    HW216977   2.175   4.449   8.449
 5549SOL     OW16978   2.201   4.233   8.454
 5549SOL    HW116979   2.149   4.150   8.437
 5549SOL    HW216980   2.278   4.238   8.390
 5550SOL     OW16981   3.000   4.104   9.126
 5550SOL    HW116982   2.955   4.167   9.190
 5550SOL    HW216983   3.093   4.135   9.109
 5551SOL     OW16984   3.022   3.931   8.925
 5551SOL    HW116985   3.022   3.995   9.002
 5551SOL    HW216986   3.050   3.979   8.842
 5552SOL     OW16987   2.864   4.520   8.686
 5552SOL    HW116988   2.905   4.488   8.772
 5552SOL    HW216989   2.768   4.493   8.683
 5553SOL     OW16990   1.902   4.268   8.562
 5553SOL    HW116991   1.987   4.235   8.521
 5553SOL    HW216992   1.915   4.283   8.660
 5554SOL     OW16993   2.051   4.244   9.170
 5554SOL    HW116994   2.110   4.204   9.100
 5554SOL    HW216995   1.993   4.315   9.129
 5555SOL     OW16996   3.231   4.674   9.108
 5555SOL    HW116997   3.270   4.763   9.128
 5555SOL    HW216998   3.241   4.654   9.011
 5556SOL     OW16999   2.677   4.296   7.773
 5556SOL    HW117000   2.684   4.207   7.727
 5556SOL    HW217001   2.583   4.330   7.765
 5557SOL     OW17002   3.519   4.328   8.654
 5557SOL    HW117003   3.481   4.259   8.716
 5557SOL    HW217004   3.601   4.292   8.610
 5558SOL     OW17005   2.533   4.188   8.717
 5558SOL    HW117006   2.499   4.099   8.687
 5558SOL    HW217007   2.559   4.242   8.637
 5559SOL     OW17008   2.335   4.224   7.639
 5559SOL    HW117009   2.396   4.304   7.643
 5559SOL    HW217010   2.240   4.255   7.646
 5560SOL     OW17011   3.209   4.783   8.682
 5560SOL    HW117012   3.233   4.720   8.608
 5560SOL    HW217013   3.119   4.823   8.664
 5561SOL     OW17014   3.164   4.579   7.757
 5561SOL    HW117015   3.078   4.548   7.799
 5561SOL    HW217016   3.160   4.565   7.658
 5562SOL     OW17017   3.588   3.859   7.971
 5562SOL    HW117018   3.661   3.842   7.904
 5562SOL    HW217019   3.557   3.772   8.009
 5563SOL     OW17020   3.142   4.651   8.120
 5563SOL    HW117021   3.202   4.570   8.122
 5563SOL    HW217022   3.182   4.720   8.060
 5564SOL     OW17023   3.703   3.899   8.411
 5564SOL    HW117024   3.742   3.814   8.375
 5564SOL    HW217025   3.605   3.901   8.392
 5565SOL     OW17026   2.125   4.050   8.168
 5565SOL    HW117027   2.046   4.101   8.134
 5565SOL    HW217028   2.116   4.035   8.266
 5566SOL     OW17029   2.778   4.634   7.739
 5566SOL    HW117030   2.841   4.672   7.671
 5566SOL    HW217031   2.818   4.551   7.778
 5567SOL     OW17032   2.876   3.960   8.419
 5567SOL    HW117033   2.868   3.924   8.326
 5567SOL    HW217034   2.874   3.884   8.484
 5568SOL     OW17035   3.571   4.109   8.829
 5568SOL    HW117036   3.644   4.178   8.833
 5568SOL    HW217037   3.599   4.034   8.770
 5569SOL     OW17038   1.967   4.737   9.174
 5569SOL    HW117039   1.890   4.704   9.228
 5569SOL    HW217040   2.052   4.707   9.216
 5570SOL     OW17041   2.534   3.927   8.937
 5570SOL    HW117042   2.624   3.911   8.897
 5570SOL    HW217043   2.542   3.932   9.036
 5571SOL     OW17044   1.937   4.069   7.481
 5571SOL    HW117045   1.845   4.041   7.452
 5571SOL    HW217046   1.968   4.146   7.425
 5572SOL     OW17047   3.302   4.580   8.846
 5572SOL    HW117048   3.245   4.632   8.783
 5572SOL    HW217049   3.398   4.592   8.822
 5573SOL     OW17050   1.934   3.890   7.766
 5573SOL    HW117051   1.917   3.973   7.712
 5573SOL    HW217052   2.024   3.853   7.744
 5574SOL     OW17053   2.475   4.566   8.879
 5574SOL    HW117054   2.531   4.647   8.862
 5574SOL    HW217055   2.534   4.486   8.882
 5575SOL     OW17056   2.578   4.289   9.156
 5575SOL    HW117057   2.597   4.354   9.230
 5575SOL    HW217058   2.638   4.209   9.165
 5576SOL     OW17059   3.536   4.607   8.702
 5576SOL    HW117060   3.509   4.518   8.665
 5576SOL    HW217061   3.537   4.675   8.629
 5577SOL     OW17062   3.087   4.049   7.897
 5577SOL    HW117063   3.152   3.975   7.886
 5577SOL    HW217064   3.107   4.099   7.981
 5578SOL     OW17065   2.456   4.469   8.100
 5578SOL    HW117066   2.506   4.554   8.081
 5578SOL    HW217067   2.368   4.471   8.052
 5579SOL     OW17068   3.639   4.066   9.090
 5579SOL    HW117069   3.622   4.097   8.996
 5579SOL    HW217070   3.555   4.029   9.128
 5580SOL     OW17071   3.592   4.658   8.965
 5580SOL    HW117072   3.630   4.749   8.980
 5580SOL    HW217073   3.584   4.641   8.866
 5581SOL     OW17074   3.686   3.916   8.675
 5581SOL    HW117075   3.682   3.826   8.719
 5581SOL    HW217076   3.689   3.905   8.576
 5582SOL     OW17077   2.290   4.148   7.968
 5582SOL    HW117078   2.320   4.076   7.906
 5582SOL    HW217079   2.251   4.108   8.051
 5583SOL     OW17080   2.179   4.271   8.728
 5583SOL    HW117081   2.217   4.212   8.800
 5583SOL    HW217082   2.219   4.245   8.640
 5584SOL     OW17083   3.286   3.938   8.560
 5584SOL    HW117084   3.338   3.873   8.615
 5584SOL    HW217085   3.237   4.001   8.621
 5585SOL     OW17086   2.863   3.758   8.602
 5585SOL    HW117087   2.800   3.686   8.571
 5585SOL    HW217088   2.956   3.722   8.602
 5586SOL     OW17089   3.214   3.776   7.616
 5586SOL    HW117090   3.249   3.735   7.532
 5586SOL    HW217091   3.124   3.738   7.636
 5587SOL     OW17092   3.162   4.177   8.139
 5587SOL    HW117093   3.103   4.257   8.143
 5587SOL    HW217094   3.177   4.142   8.232
 5588SOL     OW17095   3.455   3.945   8.330
 5588SOL    HW117096   3.371   3.944   8.384
 5588SOL    HW217097   3.457   4.028   8.274
 5589SOL     OW17098   2.092   4.352   9.423
 5589SOL    HW117099   1.999   4.350   9.460
 5589SOL    HW217100   2.093   4.313   9.331
 5590SOL     OW17101   3.617   4.331   9.541
 5590SOL    HW117102   3.605   4.318   9.442
 5590SOL    HW217103   3.587   4.250   9.590
 5591SOL     OW17104   1.984   4.367   9.873
 5591SOL    HW117105   1.939   4.279   9.890
 5591SOL    HW217106   1.983   4.421   9.957
 5592SOL     OW17107   2.671   3.728   9.812
 5592SOL    HW117108   2.711   3.819   9.803
 5592SOL    HW217109   2.571   3.736   9.818
 5593SOL     OW17110   3.387   4.723   9.500
 5593SOL    HW117111   3.324   4.647   9.513
 5593SOL    HW217112   3.435   4.741   9.586
 5594SOL     OW17113   2.460   4.453   9.580
 5594SOL    HW117114   2.484   4.522   9.512
 5594SOL    HW217115   2.382   4.486   9.634
 5595SOL     OW17116   2.903   4.425   9.739
 5595SOL    HW117117   2.929   4.421   9.835
 5595SOL    HW217118   2.818   4.374   9.725
 5596SOL     OW17119   1.938   4.535  10.099
 5596SOL    HW117120   2.037   4.523  10.108
 5596SOL    HW217121   1.914   4.630  10.120
 5597SOL     OW17122   2.727   4.072   9.505
 5597SOL    HW117123   2.786   4.135   9.456
 5597SOL    HW217124   2.746   3.978   9.476
 5598SOL     OW17125   3.262   3.831   9.736
 5598SOL    HW117126   3.238   3.794   9.646
 5598SOL    HW217127   3.361   3.847   9.740
 5599SOL     OW17128   2.244   4.424   9.790
 5599SOL    HW117129   2.289   4.334   9.787
 5599SOL    HW217130   2.150   4.413   9.823
 5600SOL     OW17131   2.476   3.846   9.427
 5600SOL    HW117132   2.574   3.824   9.434
 5600SOL    HW217133   2.445   3.829   9.334
 5601SOL     OW17134   2.401   3.788   9.822
 5601SOL    HW117135   2.320   3.789   9.880
 5601SOL    HW217136   2.404   3.871   9.767
 5602SOL     OW17137   2.159   3.759   9.481
 5602SOL    HW117138   2.208   3.843   9.460
 5602SOL    HW217139   2.221   3.694   9.526
 5603SOL     OW17140   2.797   3.960   9.790
 5603SOL    HW117141   2.749   4.001   9.712
 5603SOL    HW217142   2.896   3.958   9.771
 5604SOL     OW17143   2.894   4.273   9.326
 5604SOL    HW117144   2.853   4.355   9.287
 5604SOL    HW217145   2.958   4.299   9.399
 5605SOL     OW17146   2.728   4.178   9.952
 5605SOL    HW117147   2.696   4.250   9.890
 5605SOL    HW217148   2.752   4.097   9.899
 5606SOL     OW17149   3.719   4.557   9.687
 5606SOL    HW117150   3.761   4.493   9.751
 5606SOL    HW217151   3.681   4.506   9.609
 5607SOL     OW17152   3.252   4.299   9.388
 5607SOL    HW117153   3.198   4.278   9.469
 5607SOL    HW217154   3.343   4.258   9.397
 5608SOL     OW17155   2.389   3.980   9.638
 5608SOL    HW117156   2.416   3.921   9.563
 5608SOL    HW217157   2.389   4.075   9.607
 5609SOL     OW17158   3.444   4.363   9.782
 5609SOL    HW117159   3.413   4.424   9.855
 5609SOL    HW217160   3.494   4.415   9.713
 5610SOL     OW17161   3.071   4.249   9.585
 5610SOL    HW117162   3.084   4.165   9.639
 5610SOL    HW217163   3.042   4.323   9.645
 5611SOL     OW17164   2.169   3.787   9.928
 5611SOL    HW117165   2.158   3.881   9.961
 5611SOL    HW217166   2.164   3.724  10.005
 5612SOL     OW17167   3.484   4.091   9.684
 5612SOL    HW117168   3.486   4.015   9.748
 5612SOL    HW217169   3.436   4.168   9.724
 5613SOL     OW17170   3.402   3.998   9.435
 5613SOL    HW117171   3.341   3.923   9.458
 5613SOL    HW217172   3.424   4.050   9.518
 5614SOL     OW17173   3.165   4.562   9.352
 5614SOL    HW117174   3.199   4.469   9.367
 5614SOL    HW217175   3.183   4.589   9.257
 5615SOL     OW17176   2.930   5.057  10.159
 5615SOL    HW117177   2.937   4.973  10.104
 5615SOL    HW217178   2.992   5.126  10.123
 5616SOL     OW17179   2.181   4.534  10.259
 5616SOL    HW117180   2.274   4.570  10.264
 5616SOL    HW217181   2.175   4.449  10.311
 5617SOL     OW17182   2.677   4.296   9.635
 5617SOL    HW117183   2.684   4.207   9.589
 5617SOL    HW217184   2.583   4.330   9.627
 5618SOL     OW17185   2.335   4.224   9.501
 5618SOL    HW117186   2.396   4.304   9.505
 5618SOL    HW217187   2.240   4.255   9.508
 5619SOL     OW17188   3.164   4.579   9.619
 5619SOL    HW117189   3.078   4.548   9.661
 5619SOL    HW217190   3.160   4.565   9.520
 5620SOL     OW17191   3.588   3.859   9.833
 5620SOL    HW117192   3.661   3.842   9.766
 5620SOL    HW217193   3.557   3.772   9.871
 5621SOL     OW17194   2.778   4.634   9.601
 5621SOL    HW117195   2.841   4.672   9.533
 5621SOL    HW217196   2.818   4.551   9.640
 5622SOL     OW17197   1.937   4.069   9.343
 5622SOL    HW117198   1.845   4.041   9.314
 5622SOL    HW217199   1.968   4.146   9.287
 5623SOL     OW17200   1.934   3.890   9.628
 5623SOL    HW117201   1.917   3.973   9.574
 5623SOL    HW217202   2.024   3.853   9.606
 5624SOL     OW17203   3.087   4.049   9.759
 5624SOL    HW117204   3.152   3.975   9.748
 5624SOL    HW217205   3.107   4.099   9.843
 5625SOL     OW17206   2.456   4.469   9.962
 5625SOL    HW117207   2.506   4.554   9.943
 5625SOL    HW217208   2.368   4.471   9.914
 5626SOL     OW17209   2.290   4.148   9.830
 5626SOL    HW117210   2.320   4.076   9.768
 5626SOL    HW217211   2.251   4.108   9.913
 5627SOL     OW17212   3.214   3.776   9.478
 5627SOL    HW117213   3.249   3.735   9.394
 5627SOL    HW217214   3.124   3.738   9.498
 5628SOL     OW17215   3.954   0.628   0.113
 5628SOL    HW117216   3.861   0.626   0.150
 5628SOL    HW217217   3.955   0.589   0.021
 5629SOL     OW17218   3.949   0.275   0.996
 5629SOL    HW117219   3.984   0.258   1.088
 5629SOL    HW217220   3.861   0.230   0.984
 5630SOL     OW17221   3.743   0.368   0.647
 5630SOL    HW117222   3.661   0.411   0.686
 5630SOL    HW217223   3.715   0.295   0.584
 5631SOL     OW17224   4.293   1.275   1.165
 5631SOL    HW117225   4.200   1.268   1.128
 5631SOL    HW217226   4.304   1.364   1.209
 5632SOL     OW17227   4.492   1.144   1.023
 5632SOL    HW117228   4.414   1.161   1.083
 5632SOL    HW217229   4.526   1.231   0.987
 5633SOL     OW17230   4.574   0.798   1.823
 5633SOL    HW117231   4.570   0.874   1.888
 5633SOL    HW217232   4.596   0.834   1.732
 5634SOL     OW17233   4.409   1.012   0.665
 5634SOL    HW117234   4.478   0.996   0.735
 5634SOL    HW217235   4.336   1.069   0.703
 5635SOL     OW17236   4.410   1.161   1.803
 5635SOL    HW117237   4.470   1.240   1.817
 5635SOL    HW217238   4.324   1.192   1.762
 5636SOL     OW17239   4.059   1.435   1.061
 5636SOL    HW117240   3.981   1.404   1.008
 5636SOL    HW217241   4.117   1.493   1.004
 5637SOL     OW17242   4.162   0.392   1.499
 5637SOL    HW117243   4.244   0.336   1.508
 5637SOL    HW217244   4.081   0.334   1.503
 5638SOL     OW17245   3.955   1.713   0.483
 5638SOL    HW117246   3.989   1.790   0.537
 5638SOL    HW217247   3.999   1.713   0.393
 5639SOL     OW17248   3.954   1.434   0.538
 5639SOL    HW117249   3.928   1.530   0.538
 5639SOL    HW217250   3.883   1.380   0.583
 5640SOL     OW17251   3.964   1.091   0.886
 5640SOL    HW117252   3.978   1.007   0.938
 5640SOL    HW217253   3.909   1.155   0.941
 5641SOL     OW17254   4.344   1.786   1.439
 5641SOL    HW117255   4.252   1.769   1.474
 5641SOL    HW217256   4.372   1.878   1.465
 5642SOL     OW17257   4.330   0.964   0.123
 5642SOL    HW117258   4.337   1.048   0.069
 5642SOL    HW217259   4.376   0.977   0.211
 5643SOL     OW17260   3.846   0.643   0.563
 5643SOL    HW117261   3.801   0.555   0.580
 5643SOL    HW217262   3.845   0.697   0.647
 5644SOL     OW17263   3.751   1.596   0.117
 5644SOL    HW117264   3.732   1.500   0.138
 5644SOL    HW217265   3.718   1.654   0.192
 5645SOL     OW17266   3.837   0.737   1.597
 5645SOL    HW117267   3.925   0.724   1.642
 5645SOL    HW217268   3.824   0.834   1.575
 5646SOL     OW17269   4.337   1.365   0.726
 5646SOL    HW117270   4.288   1.278   0.735
 5646SOL    HW217271   4.314   1.408   0.639
 5647SOL     OW17272   4.533   0.004   0.502
 5647SOL    HW117273   4.573   0.095   0.493
 5647SOL    HW217274   4.433   0.012   0.508
 5648SOL     OW17275   3.921   0.976   1.264
 5648SOL    HW117276   4.010   0.931   1.250
 5648SOL    HW217277   3.848   0.911   1.245
 5649SOL     OW17278   4.041   0.251   1.801
 5649SOL    HW117279   4.112   0.322   1.807
 5649SOL    HW217280   3.953   0.290   1.829
 5650SOL     OW17281   4.322   0.729   0.270
 5650SOL    HW117282   4.346   0.798   0.202
 5650SOL    HW217283   4.244   0.762   0.324
 5651SOL     OW17284   4.531   0.605   1.465
 5651SOL    HW117285   4.484   0.602   1.554
 5651SOL    HW217286   4.480   0.550   1.399
 5652SOL     OW17287   3.800   0.811   0.789
 5652SOL    HW117288   3.899   0.799   0.798
 5652SOL    HW217289   3.776   0.906   0.810
 5653SOL     OW17290   3.854   1.821   1.571
 5653SOL    HW117291   3.844   1.806   1.670
 5653SOL    HW217292   3.768   1.857   1.535
 5654SOL     OW17293   4.589   0.348   0.195
 5654SOL    HW117294   4.648   0.411   0.146
 5654SOL    HW217295   4.608   0.254   0.166
 5655SOL     OW17296   4.274   0.196   0.885
 5655SOL    HW117297   4.269   0.191   0.985
 5655SOL    HW217298   4.276   0.292   0.856
 5656SOL     OW17299   4.732   1.456   0.477
 5656SOL    HW117300   4.686   1.528   0.425
 5656SOL    HW217301   4.728   1.476   0.575
 5657SOL     OW17302   4.075   1.801   0.853
 5657SOL    HW117303   4.125   1.715   0.859
 5657SOL    HW217304   4.140   1.878   0.850
 5658SOL     OW17305   4.045   0.943   0.242
 5658SOL    HW117306   4.127   0.982   0.200
 5658SOL    HW217307   4.018   0.861   0.193
 5659SOL     OW17308   4.185   1.266   1.727
 5659SOL    HW117309   4.135   1.267   1.641
 5659SOL    HW217310   4.122   1.248   1.803
 5660SOL     OW17311   3.926   0.285   1.498
 5660SOL    HW117312   3.846   0.345   1.485
 5660SOL    HW217313   3.916   0.236   1.584
 5661SOL     OW17314   4.188   1.743   0.323
 5661SOL    HW117315   4.221   1.782   0.409
 5661SOL    HW217316   4.264   1.736   0.258
 5662SOL     OW17317   3.973   1.785   1.241
 5662SOL    HW117318   4.030   1.720   1.291
 5662SOL    HW217319   3.957   1.752   1.148
 5663SOL     OW17320   4.106   0.700   0.480
 5663SOL    HW117321   4.151   0.610   0.477
 5663SOL    HW217322   4.012   0.689   0.513
 5664SOL     OW17323   4.338   0.122   0.117
 5664SOL    HW117324   4.436   0.100   0.124
 5664SOL    HW217325   4.307   0.105   0.024
 5665SOL     OW17326   4.505   0.264   1.749
 5665SOL    HW117327   4.572   0.203   1.792
 5665SOL    HW217328   4.432   0.283   1.814
 5666SOL     OW17329   4.612   1.514   1.195
 5666SOL    HW117330   4.589   1.489   1.101
 5666SOL    HW217331   4.673   1.445   1.234
 5667SOL     OW17332   4.527   1.402   0.924
 5667SOL    HW117333   4.617   1.416   0.882
 5667SOL    HW217334   4.456   1.404   0.853
 5668SOL     OW17335   4.646   0.503   0.899
 5668SOL    HW117336   4.621   0.494   0.803
 5668SOL    HW217337   4.694   0.421   0.930
 5669SOL     OW17338   4.263   0.064   0.512
 5669SOL    HW117339   4.182   0.065   0.570
 5669SOL    HW217340   4.266   0.147   0.457
 5670SOL     OW17341   4.021   0.035   0.171
 5670SOL    HW117342   4.070   0.119   0.150
 5670SOL    HW217343   4.083  -0.030   0.216
 5671SOL     OW17344   4.951   1.570   0.793
 5671SOL    HW117345   4.972   1.644   0.728
 5671SOL    HW217346   5.019   1.570   0.866
 5672SOL     OW17347   4.183   1.152   0.741
 5672SOL    HW117348   4.112   1.125   0.806
 5672SOL    HW217349   4.157   1.124   0.648
 5673SOL     OW17350   3.802   0.556   1.386
 5673SOL    HW117351   3.894   0.555   1.345
 5673SOL    HW217352   3.796   0.630   1.453
 5674SOL     OW17353   4.285   0.222   1.147
 5674SOL    HW117354   4.323   0.138   1.184
 5674SOL    HW217355   4.197   0.241   1.191
 5675SOL     OW17356   4.212   1.385   0.174
 5675SOL    HW117357   4.125   1.370   0.221
 5675SOL    HW217358   4.195   1.411   0.079
 5676SOL     OW17359   4.251   0.256   0.328
 5676SOL    HW117360   4.278   0.197   0.253
 5676SOL    HW217361   4.251   0.351   0.297
 5677SOL     OW17362   4.639   0.089   1.402
 5677SOL    HW117363   4.664   0.069   1.307
 5677SOL    HW217364   4.711   0.145   1.444
 5678SOL     OW17365   4.429   1.050   0.368
 5678SOL    HW117366   4.415   1.057   0.467
 5678SOL    HW217367   4.513   0.999   0.350
 5679SOL     OW17368   4.134   0.813   1.251
 5679SOL    HW117369   4.220   0.825   1.301
 5679SOL    HW217370   4.092   0.726   1.278
 5680SOL     OW17371   3.788   1.564   1.331
 5680SOL    HW117372   3.742   1.646   1.297
 5680SOL    HW217373   3.886   1.583   1.340
 5681SOL     OW17374   4.091   1.100   0.501
 5681SOL    HW117375   4.084   1.183   0.445
 5681SOL    HW217376   4.095   1.020   0.441
 5682SOL     OW17377   4.290   0.537   0.865
 5682SOL    HW117378   4.302   0.603   0.791
 5682SOL    HW217379   4.336   0.571   0.948
 5683SOL     OW17380   4.078   1.510   1.329
 5683SOL    HW117381   4.057   1.466   1.242
 5683SOL    HW217382   4.175   1.536   1.332
 5684SOL     OW17383   4.126   0.751   1.598
 5684SOL    HW117384   4.194   0.806   1.551
 5684SOL    HW217385   4.166   0.663   1.625
 5685SOL     OW17386   4.228   0.050   1.740
 5685SOL    HW117387   4.186  -0.007   1.670
 5685SOL    HW217388   4.162   0.119   1.772
 5686SOL     OW17389   4.297   0.870   1.029
 5686SOL    HW117390   4.341   0.959   1.020
 5686SOL    HW217391   4.234   0.870   1.106
 5687SOL     OW17392   4.933   0.525   0.275
 5687SOL    HW117393   4.946   0.441   0.329
 5687SOL    HW217394   4.904   0.599   0.335
 5688SOL     OW17395   4.031   0.213   1.231
 5688SOL    HW117396   4.008   0.250   1.321
 5688SOL    HW217397   4.001   0.118   1.225
 5689SOL     OW17398   3.761   1.310   1.282
 5689SOL    HW117399   3.814   1.261   1.350
 5689SOL    HW217400   3.783   1.408   1.287
 5690SOL     OW17401   4.456   0.634   1.064
 5690SOL    HW117402   4.515   0.608   0.988
 5690SOL    HW217403   4.428   0.730   1.053
 5691SOL     OW17404   4.031   0.063   0.618
 5691SOL    HW117405   4.020   0.157   0.651
 5691SOL    HW217406   4.026   0.000   0.695
 5692SOL     OW17407   4.747   0.766   0.966
 5692SOL    HW117408   4.762   0.787   1.062
 5692SOL    HW217409   4.717   0.671   0.957
 5693SOL     OW17410   4.704   1.573   1.700
 5693SOL    HW117411   4.684   1.617   1.612
 5693SOL    HW217412   4.743   1.482   1.684
 5694SOL     OW17413   4.074   0.898   1.804
 5694SOL    HW117414   4.150   0.942   1.852
 5694SOL    HW217415   4.109   0.851   1.722
 5695SOL     OW17416   4.043   0.810   0.949
 5695SOL    HW117417   4.136   0.846   0.954
 5695SOL    HW217418   4.037   0.725   1.001
 5696SOL     OW17419   4.063   0.509   1.006
 5696SOL    HW117420   4.011   0.426   0.989
 5696SOL    HW217421   4.140   0.514   0.942
 5697SOL     OW17422   3.732   1.326   0.200
 5697SOL    HW117423   3.639   1.347   0.169
 5697SOL    HW217424   3.742   1.227   0.213
 5698SOL     OW17425   3.812   1.801   0.927
 5698SOL    HW117426   3.770   1.715   0.900
 5698SOL    HW217427   3.906   1.804   0.893
 5699SOL     OW17428   4.228   1.568   0.910
 5699SOL    HW117429   4.294   1.642   0.919
 5699SOL    HW217430   4.272   1.489   0.868
 5700SOL     OW17431   4.726   0.796   1.238
 5700SOL    HW117432   4.767   0.764   1.324
 5700SOL    HW217433   4.630   0.769   1.235
 5701SOL     OW17434   3.764   0.544   1.114
 5701SOL    HW117435   3.849   0.511   1.073
 5701SOL    HW217436   3.777   0.559   1.212
 5702SOL     OW17437   3.913   0.520   1.722
 5702SOL    HW117438   3.972   0.480   1.652
 5702SOL    HW217439   3.855   0.591   1.681
 5703SOL     OW17440   4.539   0.572   0.325
 5703SOL    HW117441   4.546   0.483   0.279
 5703SOL    HW217442   4.445   0.606   0.317
 5704SOL     OW17443   3.976   1.564   1.744
 5704SOL    HW117444   3.946   1.621   1.820
 5704SOL    HW217445   3.969   1.467   1.770
 5705SOL     OW17446   4.395   0.464   1.269
 5705SOL    HW117447   4.361   0.375   1.239
 5705SOL    HW217448   4.421   0.518   1.189
 5706SOL     OW17449   4.654   1.678   1.465
 5706SOL    HW117450   4.630   1.660   1.370
 5706SOL    HW217451   4.684   1.772   1.475
 5707SOL     OW17452   4.197   0.500   0.191
 5707SOL    HW117453   4.258   0.580   0.195
 5707SOL    HW217454   4.102   0.531   0.198
 5708SOL     OW17455   3.883   1.137   1.466
 5708SOL    HW117456   3.905   1.076   1.542
 5708SOL    HW217457   3.893   1.088   1.380
 5709SOL     OW17458   3.807   1.258   1.022
 5709SOL    HW117459   3.802   1.257   1.122
 5709SOL    HW217460   3.724   1.217   0.984
 5710SOL     OW17461   4.412   1.662   1.716
 5710SOL    HW117462   4.356   1.743   1.725
 5710SOL    HW217463   4.464   1.666   1.630
 5711SOL     OW17464   4.627   0.086   0.133
 5711SOL    HW117465   4.678   0.087   0.047
 5711SOL    HW217466   4.683   0.044   0.204
 5712SOL     OW17467   3.854   1.794   1.851
 5712SOL    HW117468   3.813   1.720   1.904
 5712SOL    HW217469   3.918   1.845   1.909
 5713SOL     OW17470   4.554   1.273   1.422
 5713SOL    HW117471   4.549   1.306   1.517
 5713SOL    HW217472   4.468   1.292   1.376
 5714SOL     OW17473   4.396   1.616   0.154
 5714SOL    HW117474   4.405   1.626   0.055
 5714SOL    HW217475   4.356   1.527   0.175
 5715SOL     OW17476   3.987   0.326   0.720
 5715SOL    HW117477   3.908   0.377   0.686
 5715SOL    HW217478   3.978   0.311   0.818
 5716SOL     OW17479   4.918   1.612   0.031
 5716SOL    HW117480   4.924   1.519   0.068
 5716SOL    HW217481   4.859   1.612  -0.049
 5717SOL     OW17482   4.546   1.002   1.372
 5717SOL    HW117483   4.586   1.001   1.280
 5717SOL    HW217484   4.556   1.094   1.412
 5718SOL     OW17485   4.096   1.288   1.490
 5718SOL    HW117486   4.083   1.381   1.456
 5718SOL    HW217487   4.012   1.236   1.477
 5719SOL     OW17488   4.314   1.487   0.491
 5719SOL    HW117489   4.356   1.429   0.421
 5719SOL    HW217490   4.270   1.566   0.447
 5720SOL     OW17491   3.979   1.348   0.290
 5720SOL    HW117492   3.883   1.349   0.263
 5720SOL    HW217493   3.991   1.401   0.374
 5721SOL     OW17494   3.829   1.013   1.726
 5721SOL    HW117495   3.752   0.980   1.780
 5721SOL    HW217496   3.914   0.983   1.768
 5722SOL     OW17497   4.396   0.203   1.489
 5722SOL    HW117498   4.486   0.187   1.449
 5722SOL    HW217499   4.404   0.208   1.588
 5723SOL     OW17500   3.799   0.345   0.033
 5723SOL    HW117501   3.707   0.317   0.004
 5723SOL    HW217502   3.830   0.422  -0.023
 5724SOL     OW17503   3.796   0.166   0.318
 5724SOL    HW117504   3.779   0.249   0.264
 5724SOL    HW217505   3.886   0.129   0.296
 5725SOL     OW17506   4.337   0.842   1.431
 5725SOL    HW117507   4.393   0.923   1.414
 5725SOL    HW217508   4.396   0.762   1.434
 5726SOL     OW17509   4.440   0.565   1.708
 5726SOL    HW117510   4.459   0.630   1.782
 5726SOL    HW217511   4.500   0.485   1.717
 5727SOL     OW17512   4.114   1.741   1.560
 5727SOL    HW117513   4.023   1.782   1.558
 5727SOL    HW217514   4.107   1.647   1.592
 5728SOL     OW17515   4.949   0.325   0.449
 5728SOL    HW117516   5.014   0.251   0.438
 5728SOL    HW217517   4.969   0.375   0.533
 5729SOL     OW17518   4.318   0.745   0.652
 5729SOL    HW117519   4.368   0.830   0.633
 5729SOL    HW217520   4.230   0.747   0.604
 5730SOL     OW17521   4.583   1.374   0.016
 5730SOL    HW117522   4.537   1.389   0.104
 5730SOL    HW217523   4.627   1.459  -0.014
 5731SOL     OW17524   4.385   1.790   0.953
 5731SOL    HW117525   4.339   1.878   0.940
 5731SOL    HW217526   4.484   1.802   0.946
 5732SOL     OW17527   4.583   0.956   0.861
 5732SOL    HW117528   4.637   0.887   0.909
 5732SOL    HW217529   4.551   1.025   0.927
 5733SOL     OW17530   3.945   1.314   1.844
 5733SOL    HW117531   3.880   1.241   1.823
 5733SOL    HW217532   3.949   1.328   1.942
 5734SOL     OW17533   3.803   1.240   0.653
 5734SOL    HW117534   3.802   1.193   0.741
 5734SOL    HW217535   3.885   1.212   0.602
 5735SOL     OW17536   4.396   1.391   1.624
 5735SOL    HW117537   4.318   1.341   1.662
 5735SOL    HW217538   4.393   1.486   1.655
 5736SOL     OW17539   4.152   0.424   0.520
 5736SOL    HW117540   4.182   0.352   0.458
 5736SOL    HW217541   4.113   0.384   0.603
 5737SOL     OW17542   4.041   0.547   1.280
 5737SOL    HW117543   4.079   0.488   1.352
 5737SOL    HW217544   4.081   0.521   1.192
 5738SOL     OW17545   4.536   1.586   0.687
 5738SOL    HW117546   4.568   1.596   0.593
 5738SOL    HW217547   4.457   1.524   0.689
 5739SOL     OW17548   4.725   0.034   1.154
 5739SOL    HW117549   4.662  -0.038   1.123
 5739SOL    HW217550   4.818  -0.002   1.154
 5740SOL     OW17551   4.494   1.330   0.301
 5740SOL    HW117552   4.448   1.243   0.318
 5740SOL    HW217553   4.585   1.327   0.342
 5741SOL     OW17554   4.342   1.567   1.284
 5741SOL    HW117555   4.337   1.649   1.341
 5741SOL    HW217556   4.431   1.564   1.239
 5742SOL     OW17557   3.763   1.077   0.300
 5742SOL    HW117558   3.862   1.066   0.291
 5742SOL    HW217559   3.723   0.991   0.332
 5743SOL     OW17560   4.599   1.646   0.337
 5743SOL    HW117561   4.522   1.611   0.283
 5743SOL    HW217562   4.567   1.717   0.399
 5744SOL     OW17563   3.954   0.628   1.975
 5744SOL    HW117564   3.861   0.626   2.012
 5744SOL    HW217565   3.955   0.589   1.883
 5745SOL     OW17566   3.949   0.275   2.858
 5745SOL    HW117567   3.984   0.258   2.950
 5745SOL    HW217568   3.861   0.230   2.846
 5746SOL     OW17569   3.743   0.368   2.509
 5746SOL    HW117570   3.661   0.411   2.548
 5746SOL    HW217571   3.715   0.295   2.446
 5747SOL     OW17572   4.293   1.275   3.027
 5747SOL    HW117573   4.200   1.268   2.990
 5747SOL    HW217574   4.304   1.364   3.071
 5748SOL     OW17575   4.492   1.144   2.885
 5748SOL    HW117576   4.414   1.161   2.945
 5748SOL    HW217577   4.526   1.231   2.849
 5749SOL     OW17578   4.574   0.798   3.685
 5749SOL    HW117579   4.570   0.874   3.750
 5749SOL    HW217580   4.596   0.834   3.594
 5750SOL     OW17581   4.409   1.012   2.527
 5750SOL    HW117582   4.478   0.996   2.597
 5750SOL    HW217583   4.336   1.069   2.565
 5751SOL     OW17584   4.410   1.161   3.665
 5751SOL    HW117585   4.470   1.240   3.679
 5751SOL    HW217586   4.324   1.192   3.624
 5752SOL     OW17587   4.059   1.435   2.923
 5752SOL    HW117588   3.981   1.404   2.870
 5752SOL    HW217589   4.117   1.493   2.866
 5753SOL     OW17590   4.162   0.392   3.361
 5753SOL    HW117591   4.244   0.336   3.370
 5753SOL    HW217592   4.081   0.334   3.365
 5754SOL     OW17593   3.955   1.713   2.345
 5754SOL    HW117594   3.989   1.790   2.399
 5754SOL    HW217595   3.999   1.713   2.255
 5755SOL     OW17596   3.954   1.434   2.400
 5755SOL    HW117597   3.928   1.530   2.400
 5755SOL    HW217598   3.883   1.380   2.445
 5756SOL     OW17599   3.964   1.091   2.748
 5756SOL    HW117600   3.978   1.007   2.800
 5756SOL    HW217601   3.909   1.155   2.803
 5757SOL     OW17602   4.344   1.786   3.301
 5757SOL    HW117603   4.252   1.769   3.336
 5757SOL    HW217604   4.372   1.878   3.327
 5758SOL     OW17605   4.330   0.964   1.985
 5758SOL    HW117606   4.337   1.048   1.931
 5758SOL    HW217607   4.376   0.977   2.073
 5759SOL     OW17608   3.846   0.643   2.425
 5759SOL    HW117609   3.801   0.555   2.442
 5759SOL    HW217610   3.845   0.697   2.509
 5760SOL     OW17611   3.751   1.596   1.979
 5760SOL    HW117612   3.732   1.500   2.000
 5760SOL    HW217613   3.718   1.654   2.054
 5761SOL     OW17614   3.837   0.737   3.459
 5761SOL    HW117615   3.925   0.724   3.504
 5761SOL    HW217616   3.824   0.834   3.437
 5762SOL     OW17617   4.337   1.365   2.588
 5762SOL    HW117618   4.288   1.278   2.597
 5762SOL    HW217619   4.314   1.408   2.501
 5763SOL     OW17620   4.533   0.004   2.364
 5763SOL    HW117621   4.573   0.095   2.355
 5763SOL    HW217622   4.433   0.012   2.370
 5764SOL     OW17623   3.921   0.976   3.126
 5764SOL    HW117624   4.010   0.931   3.112
 5764SOL    HW217625   3.848   0.911   3.107
 5765SOL     OW17626   4.041   0.251   3.663
 5765SOL    HW117627   4.112   0.322   3.669
 5765SOL    HW217628   3.953   0.290   3.691
 5766SOL     OW17629   4.322   0.729   2.132
 5766SOL    HW117630   4.346   0.798   2.064
 5766SOL    HW217631   4.244   0.762   2.186
 5767SOL     OW17632   4.531   0.605   3.327
 5767SOL    HW117633   4.484   0.602   3.416
 5767SOL    HW217634   4.480   0.550   3.261
 5768SOL     OW17635   3.800   0.811   2.651
 5768SOL    HW117636   3.899   0.799   2.660
 5768SOL    HW217637   3.776   0.906   2.672
 5769SOL     OW17638   3.854   1.821   3.433
 5769SOL    HW117639   3.844   1.806   3.532
 5769SOL    HW217640   3.768   1.857   3.397
 5770SOL     OW17641   4.589   0.348   2.057
 5770SOL    HW117642   4.648   0.411   2.008
 5770SOL    HW217643   4.608   0.254   2.028
 5771SOL     OW17644   4.274   0.196   2.747
 5771SOL    HW117645   4.269   0.191   2.847
 5771SOL    HW217646   4.276   0.292   2.718
 5772SOL     OW17647   4.732   1.456   2.339
 5772SOL    HW117648   4.686   1.528   2.287
 5772SOL    HW217649   4.728   1.476   2.437
 5773SOL     OW17650   4.075   1.801   2.715
 5773SOL    HW117651   4.125   1.715   2.721
 5773SOL    HW217652   4.140   1.878   2.712
 5774SOL     OW17653   4.045   0.943   2.104
 5774SOL    HW117654   4.127   0.982   2.062
 5774SOL    HW217655   4.018   0.861   2.055
 5775SOL     OW17656   4.185   1.266   3.589
 5775SOL    HW117657   4.135   1.267   3.503
 5775SOL    HW217658   4.122   1.248   3.665
 5776SOL     OW17659   3.926   0.285   3.360
 5776SOL    HW117660   3.846   0.345   3.347
 5776SOL    HW217661   3.916   0.236   3.446
 5777SOL     OW17662   4.188   1.743   2.185
 5777SOL    HW117663   4.221   1.782   2.271
 5777SOL    HW217664   4.264   1.736   2.120
 5778SOL     OW17665   3.973   1.785   3.103
 5778SOL    HW117666   4.030   1.720   3.153
 5778SOL    HW217667   3.957   1.752   3.010
 5779SOL     OW17668   4.106   0.700   2.342
 5779SOL    HW117669   4.151   0.610   2.339
 5779SOL    HW217670   4.012   0.689   2.375
 5780SOL     OW17671   4.338   0.122   1.979
 5780SOL    HW117672   4.436   0.100   1.986
 5780SOL    HW217673   4.307   0.105   1.886
 5781SOL     OW17674   4.505   0.264   3.611
 5781SOL    HW117675   4.572   0.203   3.654
 5781SOL    HW217676   4.432   0.283   3.676
 5782SOL     OW17677   4.612   1.514   3.057
 5782SOL    HW117678   4.589   1.489   2.963
 5782SOL    HW217679   4.673   1.445   3.096
 5783SOL     OW17680   4.527   1.402   2.786
 5783SOL    HW117681   4.617   1.416   2.744
 5783SOL    HW217682   4.456   1.404   2.715
 5784SOL     OW17683   4.646   0.503   2.761
 5784SOL    HW117684   4.621   0.494   2.665
 5784SOL    HW217685   4.694   0.421   2.792
 5785SOL     OW17686   4.263   0.064   2.374
 5785SOL    HW117687   4.182   0.065   2.432
 5785SOL    HW217688   4.266   0.147   2.319
 5786SOL     OW17689   4.021   0.035   2.033
 5786SOL    HW117690   4.070   0.119   2.012
 5786SOL    HW217691   4.083  -0.030   2.078
 5787SOL     OW17692   4.951   1.570   2.655
 5787SOL    HW117693   4.972   1.644   2.590
 5787SOL    HW217694   5.019   1.570   2.728
 5788SOL     OW17695   4.183   1.152   2.603
 5788SOL    HW117696   4.112   1.125   2.668
 5788SOL    HW217697   4.157   1.124   2.510
 5789SOL     OW17698   3.802   0.556   3.248
 5789SOL    HW117699   3.894   0.555   3.207
 5789SOL    HW217700   3.796   0.630   3.315
 5790SOL     OW17701   4.285   0.222   3.009
 5790SOL    HW117702   4.323   0.138   3.046
 5790SOL    HW217703   4.197   0.241   3.053
 5791SOL     OW17704   4.212   1.385   2.036
 5791SOL    HW117705   4.125   1.370   2.083
 5791SOL    HW217706   4.195   1.411   1.941
 5792SOL     OW17707   4.251   0.256   2.190
 5792SOL    HW117708   4.278   0.197   2.115
 5792SOL    HW217709   4.251   0.351   2.159
 5793SOL     OW17710   4.639   0.089   3.264
 5793SOL    HW117711   4.664   0.069   3.169
 5793SOL    HW217712   4.711   0.145   3.306
 5794SOL     OW17713   4.429   1.050   2.230
 5794SOL    HW117714   4.415   1.057   2.329
 5794SOL    HW217715   4.513   0.999   2.212
 5795SOL     OW17716   4.134   0.813   3.113
 5795SOL    HW117717   4.220   0.825   3.163
 5795SOL    HW217718   4.092   0.726   3.140
 5796SOL     OW17719   3.788   1.564   3.193
 5796SOL    HW117720   3.742   1.646   3.159
 5796SOL    HW217721   3.886   1.583   3.202
 5797SOL     OW17722   4.091   1.100   2.363
 5797SOL    HW117723   4.084   1.183   2.307
 5797SOL    HW217724   4.095   1.020   2.303
 5798SOL     OW17725   4.290   0.537   2.727
 5798SOL    HW117726   4.302   0.603   2.653
 5798SOL    HW217727   4.336   0.571   2.810
 5799SOL     OW17728   4.078   1.510   3.191
 5799SOL    HW117729   4.057   1.466   3.104
 5799SOL    HW217730   4.175   1.536   3.194
 5800SOL     OW17731   4.126   0.751   3.460
 5800SOL    HW117732   4.194   0.806   3.413
 5800SOL    HW217733   4.166   0.663   3.487
 5801SOL     OW17734   4.228   0.050   3.602
 5801SOL    HW117735   4.186  -0.007   3.532
 5801SOL    HW217736   4.162   0.119   3.634
 5802SOL     OW17737   4.297   0.870   2.891
 5802SOL    HW117738   4.341   0.959   2.882
 5802SOL    HW217739   4.234   0.870   2.968
 5803SOL     OW17740   4.933   0.525   2.137
 5803SOL    HW117741   4.946   0.441   2.191
 5803SOL    HW217742   4.904   0.599   2.197
 5804SOL     OW17743   4.031   0.213   3.093
 5804SOL    HW117744   4.008   0.250   3.183
 5804SOL    HW217745   4.001   0.118   3.087
 5805SOL     OW17746   3.761   1.310   3.144
 5805SOL    HW117747   3.814   1.261   3.212
 5805SOL    HW217748   3.783   1.408   3.149
 5806SOL     OW17749   4.456   0.634   2.926
 5806SOL    HW117750   4.515   0.608   2.850
 5806SOL    HW217751   4.428   0.730   2.915
 5807SOL     OW17752   4.031   0.063   2.480
 5807SOL    HW117753   4.020   0.157   2.513
 5807SOL    HW217754   4.026   0.000   2.557
 5808SOL     OW17755   4.747   0.766   2.828
 5808SOL    HW117756   4.762   0.787   2.924
 5808SOL    HW217757   4.717   0.671   2.819
 5809SOL     OW17758   4.704   1.573   3.562
 5809SOL    HW117759   4.684   1.617   3.474
 5809SOL    HW217760   4.743   1.482   3.546
 5810SOL     OW17761   4.074   0.898   3.666
 5810SOL    HW117762   4.150   0.942   3.714
 5810SOL    HW217763   4.109   0.851   3.584
 5811SOL     OW17764   4.043   0.810   2.811
 5811SOL    HW117765   4.136   0.846   2.816
 5811SOL    HW217766   4.037   0.725   2.863
 5812SOL     OW17767   4.063   0.509   2.868
 5812SOL    HW117768   4.011   0.426   2.851
 5812SOL    HW217769   4.140   0.514   2.804
 5813SOL     OW17770   3.732   1.326   2.062
 5813SOL    HW117771   3.639   1.347   2.031
 5813SOL    HW217772   3.742   1.227   2.075
 5814SOL     OW17773   3.812   1.801   2.789
 5814SOL    HW117774   3.770   1.715   2.762
 5814SOL    HW217775   3.906   1.804   2.755
 5815SOL     OW17776   4.228   1.568   2.772
 5815SOL    HW117777   4.294   1.642   2.781
 5815SOL    HW217778   4.272   1.489   2.730
 5816SOL     OW17779   4.726   0.796   3.100
 5816SOL    HW117780   4.767   0.764   3.186
 5816SOL    HW217781   4.630   0.769   3.097
 5817SOL     OW17782   3.764   0.544   2.976
 5817SOL    HW117783   3.849   0.511   2.935
 5817SOL    HW217784   3.777   0.559   3.074
 5818SOL     OW17785   3.913   0.520   3.584
 5818SOL    HW117786   3.972   0.480   3.514
 5818SOL    HW217787   3.855   0.591   3.543
 5819SOL     OW17788   4.539   0.572   2.187
 5819SOL    HW117789   4.546   0.483   2.141
 5819SOL    HW217790   4.445   0.606   2.179
 5820SOL     OW17791   3.976   1.564   3.606
 5820SOL    HW117792   3.946   1.621   3.682
 5820SOL    HW217793   3.969   1.467   3.632
 5821SOL     OW17794   4.395   0.464   3.131
 5821SOL    HW117795   4.361   0.375   3.101
 5821SOL    HW217796   4.421   0.518   3.051
 5822SOL     OW17797   4.654   1.678   3.327
 5822SOL    HW117798   4.630   1.660   3.232
 5822SOL    HW217799   4.684   1.772   3.337
 5823SOL     OW17800   4.197   0.500   2.053
 5823SOL    HW117801   4.258   0.580   2.057
 5823SOL    HW217802   4.102   0.531   2.060
 5824SOL     OW17803   3.883   1.137   3.328
 5824SOL    HW117804   3.905   1.076   3.404
 5824SOL    HW217805   3.893   1.088   3.242
 5825SOL     OW17806   3.807   1.258   2.884
 5825SOL    HW117807   3.802   1.257   2.984
 5825SOL    HW217808   3.724   1.217   2.846
 5826SOL     OW17809   4.412   1.662   3.578
 5826SOL    HW117810   4.356   1.743   3.587
 5826SOL    HW217811   4.464   1.666   3.492
 5827SOL     OW17812   4.627   0.086   1.995
 5827SOL    HW117813   4.678   0.087   1.909
 5827SOL    HW217814   4.683   0.044   2.066
 5828SOL     OW17815   3.854   1.794   3.713
 5828SOL    HW117816   3.813   1.720   3.766
 5828SOL    HW217817   3.918   1.845   3.771
 5829SOL     OW17818   4.554   1.273   3.284
 5829SOL    HW117819   4.549   1.306   3.379
 5829SOL    HW217820   4.468   1.292   3.238
 5830SOL     OW17821   4.396   1.616   2.016
 5830SOL    HW117822   4.405   1.626   1.917
 5830SOL    HW217823   4.356   1.527   2.037
 5831SOL     OW17824   3.987   0.326   2.582
 5831SOL    HW117825   3.908   0.377   2.548
 5831SOL    HW217826   3.978   0.311   2.680
 5832SOL     OW17827   4.546   1.002   3.234
 5832SOL    HW117828   4.586   1.001   3.142
 5832SOL    HW217829   4.556   1.094   3.274
 5833SOL     OW17830   4.096   1.288   3.352
 5833SOL    HW117831   4.083   1.381   3.318
 5833SOL    HW217832   4.012   1.236   3.339
 5834SOL     OW17833   4.314   1.487   2.353
 5834SOL    HW117834   4.356   1.429   2.283
 5834SOL    HW217835   4.270   1.566   2.309
 5835SOL     OW17836   3.979   1.348   2.152
 5835SOL    HW117837   3.883   1.349   2.125
 5835SOL    HW217838   3.991   1.401   2.236
 5836SOL     OW17839   3.829   1.013   3.588
 5836SOL    HW117840   3.752   0.980   3.642
 5836SOL    HW217841   3.914   0.983   3.630
 5837SOL     OW17842   4.396   0.203   3.351
 5837SOL    HW117843   4.486   0.187   3.311
 5837SOL    HW217844   4.404   0.208   3.450
 5838SOL     OW17845   3.799   0.345   1.895
 5838SOL    HW117846   3.707   0.317   1.866
 5838SOL    HW217847   3.830   0.422   1.839
 5839SOL     OW17848   3.796   0.166   2.180
 5839SOL    HW117849   3.779   0.249   2.126
 5839SOL    HW217850   3.886   0.129   2.158
 5840SOL     OW17851   4.337   0.842   3.293
 5840SOL    HW117852   4.393   0.923   3.276
 5840SOL    HW217853   4.396   0.762   3.296
 5841SOL     OW17854   4.440   0.565   3.570
 5841SOL    HW117855   4.459   0.630   3.644
 5841SOL    HW217856   4.500   0.485   3.579
 5842SOL     OW17857   4.114   1.741   3.422
 5842SOL    HW117858   4.023   1.782   3.420
 5842SOL    HW217859   4.107   1.647   3.454
 5843SOL     OW17860   4.949   0.325   2.311
 5843SOL    HW117861   5.014   0.251   2.300
 5843SOL    HW217862   4.969   0.375   2.395
 5844SOL     OW17863   4.318   0.745   2.514
 5844SOL    HW117864   4.368   0.830   2.495
 5844SOL    HW217865   4.230   0.747   2.466
 5845SOL     OW17866   4.583   1.374   1.878
 5845SOL    HW117867   4.537   1.389   1.966
 5845SOL    HW217868   4.627   1.459   1.848
 5846SOL     OW17869   4.385   1.790   2.815
 5846SOL    HW117870   4.339   1.878   2.802
 5846SOL    HW217871   4.484   1.802   2.808
 5847SOL     OW17872   4.583   0.956   2.723
 5847SOL    HW117873   4.637   0.887   2.771
 5847SOL    HW217874   4.551   1.025   2.789
 5848SOL     OW17875   3.945   1.314   3.706
 5848SOL    HW117876   3.880   1.241   3.685
 5848SOL    HW217877   3.949   1.328   3.804
 5849SOL     OW17878   3.803   1.240   2.515
 5849SOL    HW117879   3.802   1.193   2.603
 5849SOL    HW217880   3.885   1.212   2.464
 5850SOL     OW17881   4.396   1.391   3.486
 5850SOL    HW117882   4.318   1.341   3.524
 5850SOL    HW217883   4.393   1.486   3.517
 5851SOL     OW17884   4.152   0.424   2.382
 5851SOL    HW117885   4.182   0.352   2.320
 5851SOL    HW217886   4.113   0.384   2.465
 5852SOL     OW17887   4.041   0.547   3.142
 5852SOL    HW117888   4.079   0.488   3.214
 5852SOL    HW217889   4.081   0.521   3.054
 5853SOL     OW17890   4.536   1.586   2.549
 5853SOL    HW117891   4.568   1.596   2.455
 5853SOL    HW217892   4.457   1.524   2.551
 5854SOL     OW17893   4.725   0.034   3.016
 5854SOL    HW117894   4.662  -0.038   2.985
 5854SOL    HW217895   4.818  -0.002   3.016
 5855SOL     OW17896   4.494   1.330   2.163
 5855SOL    HW117897   4.448   1.243   2.180
 5855SOL    HW217898   4.585   1.327   2.204
 5856SOL     OW17899   4.342   1.567   3.146
 5856SOL    HW117900   4.337   1.649   3.203
 5856SOL    HW217901   4.431   1.564   3.101
 5857SOL     OW17902   3.763   1.077   2.162
 5857SOL    HW117903   3.862   1.066   2.153
 5857SOL    HW217904   3.723   0.991   2.194
 5858SOL     OW17905   4.599   1.646   2.199
 5858SOL    HW117906   4.522   1.611   2.145
 5858SOL    HW217907   4.567   1.717   2.261
 5859SOL     OW17908   3.954   0.628   3.837
 5859SOL    HW117909   3.861   0.626   3.874
 5859SOL    HW217910   3.955   0.589   3.745
 5860SOL     OW17911   3.949   0.275   4.720
 5860SOL    HW117912   3.984   0.258   4.812
 5860SOL    HW217913   3.861   0.230   4.708
 5861SOL     OW17914   3.743   0.368   4.371
 5861SOL    HW117915   3.661   0.411   4.410
 5861SOL    HW217916   3.715   0.295   4.308
 5862SOL     OW17917   4.293   1.275   4.889
 5862SOL    HW117918   4.200   1.268   4.852
 5862SOL    HW217919   4.304   1.364   4.933
 5863SOL     OW17920   4.492   1.144   4.747
 5863SOL    HW117921   4.414   1.161   4.807
 5863SOL    HW217922   4.526   1.231   4.711
 5864SOL     OW17923   4.574   0.798   5.547
 5864SOL    HW117924   4.570   0.874   5.612
 5864SOL    HW217925   4.596   0.834   5.456
 5865SOL     OW17926   4.409   1.012   4.389
 5865SOL    HW117927   4.478   0.996   4.459
 5865SOL    HW217928   4.336   1.069   4.427
 5866SOL     OW17929   4.410   1.161   5.527
 5866SOL    HW117930   4.470   1.240   5.541
 5866SOL    HW217931   4.324   1.192   5.486
 5867SOL     OW17932   4.059   1.435   4.785
 5867SOL    HW117933   3.981   1.404   4.732
 5867SOL    HW217934   4.117   1.493   4.728
 5868SOL     OW17935   4.162   0.392   5.223
 5868SOL    HW117936   4.244   0.336   5.232
 5868SOL    HW217937   4.081   0.334   5.227
 5869SOL     OW17938   3.955   1.713   4.207
 5869SOL    HW117939   3.989   1.790   4.261
 5869SOL    HW217940   3.999   1.713   4.117
 5870SOL     OW17941   3.954   1.434   4.262
 5870SOL    HW117942   3.928   1.530   4.262
 5870SOL    HW217943   3.883   1.380   4.307
 5871SOL     OW17944   3.964   1.091   4.610
 5871SOL    HW117945   3.978   1.007   4.662
 5871SOL    HW217946   3.909   1.155   4.665
 5872SOL     OW17947   4.344   1.786   5.163
 5872SOL    HW117948   4.252   1.769   5.198
 5872SOL    HW217949   4.372   1.878   5.189
 5873SOL     OW17950   4.330   0.964   3.847
 5873SOL    HW117951   4.337   1.048   3.793
 5873SOL    HW217952   4.376   0.977   3.935
 5874SOL     OW17953   3.846   0.643   4.287
 5874SOL    HW117954   3.801   0.555   4.304
 5874SOL    HW217955   3.845   0.697   4.371
 5875SOL     OW17956   3.751   1.596   3.841
 5875SOL    HW117957   3.732   1.500   3.862
 5875SOL    HW217958   3.718   1.654   3.916
 5876SOL     OW17959   3.837   0.737   5.321
 5876SOL    HW117960   3.925   0.724   5.366
 5876SOL    HW217961   3.824   0.834   5.299
 5877SOL     OW17962   4.337   1.365   4.450
 5877SOL    HW117963   4.288   1.278   4.459
 5877SOL    HW217964   4.314   1.408   4.363
 5878SOL     OW17965   4.533   0.004   4.226
 5878SOL    HW117966   4.573   0.095   4.217
 5878SOL    HW217967   4.433   0.012   4.232
 5879SOL     OW17968   3.921   0.976   4.988
 5879SOL    HW117969   4.010   0.931   4.974
 5879SOL    HW217970   3.848   0.911   4.969
 5880SOL     OW17971   4.041   0.251   5.525
 5880SOL    HW117972   4.112   0.322   5.531
 5880SOL    HW217973   3.953   0.290   5.553
 5881SOL     OW17974   4.322   0.729   3.994
 5881SOL    HW117975   4.346   0.798   3.926
 5881SOL    HW217976   4.244   0.762   4.048
 5882SOL     OW17977   4.531   0.605   5.189
 5882SOL    HW117978   4.484   0.602   5.278
 5882SOL    HW217979   4.480   0.550   5.123
 5883SOL     OW17980   3.800   0.811   4.513
 5883SOL    HW117981   3.899   0.799   4.522
 5883SOL    HW217982   3.776   0.906   4.534
 5884SOL     OW17983   3.854   1.821   5.295
 5884SOL    HW117984   3.844   1.806   5.394
 5884SOL    HW217985   3.768   1.857   5.259
 5885SOL     OW17986   4.589   0.348   3.919
 5885SOL    HW117987   4.648   0.411   3.870
 5885SOL    HW217988   4.608   0.254   3.890
 5886SOL     OW17989   4.274   0.196   4.609
 5886SOL    HW117990   4.269   0.191   4.709
 5886SOL    HW217991   4.276   0.292   4.580
 5887SOL     OW17992   4.732   1.456   4.201
 5887SOL    HW117993   4.686   1.528   4.149
 5887SOL    HW217994   4.728   1.476   4.299
 5888SOL     OW17995   4.075   1.801   4.577
 5888SOL    HW117996   4.125   1.715   4.583
 5888SOL    HW217997   4.140   1.878   4.574
 5889SOL     OW17998   4.045   0.943   3.966
 5889SOL    HW117999   4.127   0.982   3.924
 5889SOL    HW218000   4.018   0.861   3.917
 5890SOL     OW18001   4.185   1.266   5.451
 5890SOL    HW118002   4.135   1.267   5.365
 5890SOL    HW218003   4.122   1.248   5.527
 5891SOL     OW18004   3.926   0.285   5.222
 5891SOL    HW118005   3.846   0.345   5.209
 5891SOL    HW218006   3.916   0.236   5.308
 5892SOL     OW18007   4.188   1.743   4.047
 5892SOL    HW118008   4.221   1.782   4.133
 5892SOL    HW218009   4.264   1.736   3.982
 5893SOL     OW18010   3.973   1.785   4.965
 5893SOL    HW118011   4.030   1.720   5.015
 5893SOL    HW218012   3.957   1.752   4.872
 5894SOL     OW18013   4.106   0.700   4.204
 5894SOL    HW118014   4.151   0.610   4.201
 5894SOL    HW218015   4.012   0.689   4.237
 5895SOL     OW18016   4.338   0.122   3.841
 5895SOL    HW118017   4.436   0.100   3.848
 5895SOL    HW218018   4.307   0.105   3.748
 5896SOL     OW18019   4.505   0.264   5.473
 5896SOL    HW118020   4.572   0.203   5.516
 5896SOL    HW218021   4.432   0.283   5.538
 5897SOL     OW18022   4.612   1.514   4.919
 5897SOL    HW118023   4.589   1.489   4.825
 5897SOL    HW218024   4.673   1.445   4.958
 5898SOL     OW18025   4.527   1.402   4.648
 5898SOL    HW118026   4.617   1.416   4.606
 5898SOL    HW218027   4.456   1.404   4.577
 5899SOL     OW18028   4.646   0.503   4.623
 5899SOL    HW118029   4.621   0.494   4.527
 5899SOL    HW218030   4.694   0.421   4.654
 5900SOL     OW18031   4.263   0.064   4.236
 5900SOL    HW118032   4.182   0.065   4.294
 5900SOL    HW218033   4.266   0.147   4.181
 5901SOL     OW18034   4.021   0.035   3.895
 5901SOL    HW118035   4.070   0.119   3.874
 5901SOL    HW218036   4.083  -0.030   3.940
 5902SOL     OW18037   4.951   1.570   4.517
 5902SOL    HW118038   4.972   1.644   4.452
 5902SOL    HW218039   5.019   1.570   4.590
 5903SOL     OW18040   4.183   1.152   4.465
 5903SOL    HW118041   4.112   1.125   4.530
 5903SOL    HW218042   4.157   1.124   4.372
 5904SOL     OW18043   3.802   0.556   5.110
 5904SOL    HW118044   3.894   0.555   5.069
 5904SOL    HW218045   3.796   0.630   5.177
 5905SOL     OW18046   4.285   0.222   4.871
 5905SOL    HW118047   4.323   0.138   4.908
 5905SOL    HW218048   4.197   0.241   4.915
 5906SOL     OW18049   4.212   1.385   3.898
 5906SOL    HW118050   4.125   1.370   3.945
 5906SOL    HW218051   4.195   1.411   3.803
 5907SOL     OW18052   4.251   0.256   4.052
 5907SOL    HW118053   4.278   0.197   3.977
 5907SOL    HW218054   4.251   0.351   4.021
 5908SOL     OW18055   4.639   0.089   5.126
 5908SOL    HW118056   4.664   0.069   5.031
 5908SOL    HW218057   4.711   0.145   5.168
 5909SOL     OW18058   4.429   1.050   4.092
 5909SOL    HW118059   4.415   1.057   4.191
 5909SOL    HW218060   4.513   0.999   4.074
 5910SOL     OW18061   4.134   0.813   4.975
 5910SOL    HW118062   4.220   0.825   5.025
 5910SOL    HW218063   4.092   0.726   5.002
 5911SOL     OW18064   3.788   1.564   5.055
 5911SOL    HW118065   3.742   1.646   5.021
 5911SOL    HW218066   3.886   1.583   5.064
 5912SOL     OW18067   4.091   1.100   4.225
 5912SOL    HW118068   4.084   1.183   4.169
 5912SOL    HW218069   4.095   1.020   4.165
 5913SOL     OW18070   4.290   0.537   4.589
 5913SOL    HW118071   4.302   0.603   4.515
 5913SOL    HW218072   4.336   0.571   4.672
 5914SOL     OW18073   4.078   1.510   5.053
 5914SOL    HW118074   4.057   1.466   4.966
 5914SOL    HW218075   4.175   1.536   5.056
 5915SOL     OW18076   4.126   0.751   5.322
 5915SOL    HW118077   4.194   0.806   5.275
 5915SOL    HW218078   4.166   0.663   5.349
 5916SOL     OW18079   4.228   0.050   5.464
 5916SOL    HW118080   4.186  -0.007   5.394
 5916SOL    HW218081   4.162   0.119   5.496
 5917SOL     OW18082   4.297   0.870   4.753
 5917SOL    HW118083   4.341   0.959   4.744
 5917SOL    HW218084   4.234   0.870   4.830
 5918SOL     OW18085   4.933   0.525   3.999
 5918SOL    HW118086   4.946   0.441   4.053
 5918SOL    HW218087   4.904   0.599   4.059
 5919SOL     OW18088   4.031   0.213   4.955
 5919SOL    HW118089   4.008   0.250   5.045
 5919SOL    HW218090   4.001   0.118   4.949
 5920SOL     OW18091   3.761   1.310   5.006
 5920SOL    HW118092   3.814   1.261   5.074
 5920SOL    HW218093   3.783   1.408   5.011
 5921SOL     OW18094   4.456   0.634   4.788
 5921SOL    HW118095   4.515   0.608   4.712
 5921SOL    HW218096   4.428   0.730   4.777
 5922SOL     OW18097   4.031   0.063   4.342
 5922SOL    HW118098   4.020   0.157   4.375
 5922SOL    HW218099   4.026   0.000   4.419
 5923SOL     OW18100   4.747   0.766   4.690
 5923SOL    HW118101   4.762   0.787   4.786
 5923SOL    HW218102   4.717   0.671   4.681
 5924SOL     OW18103   4.704   1.573   5.424
 5924SOL    HW118104   4.684   1.617   5.336
 5924SOL    HW218105   4.743   1.482   5.408
 5925SOL     OW18106   4.074   0.898   5.528
 5925SOL    HW118107   4.150   0.942   5.576
 5925SOL    HW218108   4.109   0.851   5.446
 5926SOL     OW18109   4.043   0.810   4.673
 5926SOL    HW118110   4.136   0.846   4.678
 5926SOL    HW218111   4.037   0.725   4.725
 5927SOL     OW18112   4.063   0.509   4.730
 5927SOL    HW118113   4.011   0.426   4.713
 5927SOL    HW218114   4.140   0.514   4.666
 5928SOL     OW18115   3.732   1.326   3.924
 5928SOL    HW118116   3.639   1.347   3.893
 5928SOL    HW218117   3.742   1.227   3.937
 5929SOL     OW18118   3.812   1.801   4.651
 5929SOL    HW118119   3.770   1.715   4.624
 5929SOL    HW218120   3.906   1.804   4.617
 5930SOL     OW18121   4.228   1.568   4.634
 5930SOL    HW118122   4.294   1.642   4.643
 5930SOL    HW218123   4.272   1.489   4.592
 5931SOL     OW18124   4.726   0.796   4.962
 5931SOL    HW118125   4.767   0.764   5.048
 5931SOL    HW218126   4.630   0.769   4.959
 5932SOL     OW18127   3.764   0.544   4.838
 5932SOL    HW118128   3.849   0.511   4.797
 5932SOL    HW218129   3.777   0.559   4.936
 5933SOL     OW18130   3.913   0.520   5.446
 5933SOL    HW118131   3.972   0.480   5.376
 5933SOL    HW218132   3.855   0.591   5.405
 5934SOL     OW18133   4.539   0.572   4.049
 5934SOL    HW118134   4.546   0.483   4.003
 5934SOL    HW218135   4.445   0.606   4.041
 5935SOL     OW18136   3.976   1.564   5.468
 5935SOL    HW118137   3.946   1.621   5.544
 5935SOL    HW218138   3.969   1.467   5.494
 5936SOL     OW18139   4.395   0.464   4.993
 5936SOL    HW118140   4.361   0.375   4.963
 5936SOL    HW218141   4.421   0.518   4.913
 5937SOL     OW18142   4.654   1.678   5.189
 5937SOL    HW118143   4.630   1.660   5.094
 5937SOL    HW218144   4.684   1.772   5.199
 5938SOL     OW18145   4.197   0.500   3.915
 5938SOL    HW118146   4.258   0.580   3.919
 5938SOL    HW218147   4.102   0.531   3.922
 5939SOL     OW18148   3.883   1.137   5.190
 5939SOL    HW118149   3.905   1.076   5.266
 5939SOL    HW218150   3.893   1.088   5.104
 5940SOL     OW18151   3.807   1.258   4.746
 5940SOL    HW118152   3.802   1.257   4.846
 5940SOL    HW218153   3.724   1.217   4.708
 5941SOL     OW18154   4.412   1.662   5.440
 5941SOL    HW118155   4.356   1.743   5.449
 5941SOL    HW218156   4.464   1.666   5.354
 5942SOL     OW18157   4.627   0.086   3.857
 5942SOL    HW118158   4.678   0.087   3.771
 5942SOL    HW218159   4.683   0.044   3.928
 5943SOL     OW18160   3.854   1.794   5.575
 5943SOL    HW118161   3.813   1.720   5.628
 5943SOL    HW218162   3.918   1.845   5.633
 5944SOL     OW18163   4.554   1.273   5.146
 5944SOL    HW118164   4.549   1.306   5.241
 5944SOL    HW218165   4.468   1.292   5.100
 5945SOL     OW18166   4.396   1.616   3.878
 5945SOL    HW118167   4.405   1.626   3.779
 5945SOL    HW218168   4.356   1.527   3.899
 5946SOL     OW18169   3.987   0.326   4.444
 5946SOL    HW118170   3.908   0.377   4.410
 5946SOL    HW218171   3.978   0.311   4.542
 5947SOL     OW18172   4.546   1.002   5.096
 5947SOL    HW118173   4.586   1.001   5.004
 5947SOL    HW218174   4.556   1.094   5.136
 5948SOL     OW18175   4.096   1.288   5.214
 5948SOL    HW118176   4.083   1.381   5.180
 5948SOL    HW218177   4.012   1.236   5.201
 5949SOL     OW18178   4.314   1.487   4.215
 5949SOL    HW118179   4.356   1.429   4.145
 5949SOL    HW218180   4.270   1.566   4.171
 5950SOL     OW18181   3.979   1.348   4.014
 5950SOL    HW118182   3.883   1.349   3.987
 5950SOL    HW218183   3.991   1.401   4.098
 5951SOL     OW18184   3.829   1.013   5.450
 5951SOL    HW118185   3.752   0.980   5.504
 5951SOL    HW218186   3.914   0.983   5.492
 5952SOL     OW18187   4.396   0.203   5.213
 5952SOL    HW118188   4.486   0.187   5.173
 5952SOL    HW218189   4.404   0.208   5.312
 5953SOL     OW18190   3.799   0.345   3.757
 5953SOL    HW118191   3.707   0.317   3.728
 5953SOL    HW218192   3.830   0.422   3.701
 5954SOL     OW18193   3.796   0.166   4.042
 5954SOL    HW118194   3.779   0.249   3.988
 5954SOL    HW218195   3.886   0.129   4.020
 5955SOL     OW18196   4.337   0.842   5.155
 5955SOL    HW118197   4.393   0.923   5.138
 5955SOL    HW218198   4.396   0.762   5.158
 5956SOL     OW18199   4.440   0.565   5.432
 5956SOL    HW118200   4.459   0.630   5.506
 5956SOL    HW218201   4.500   0.485   5.441
 5957SOL     OW18202   4.114   1.741   5.284
 5957SOL    HW118203   4.023   1.782   5.282
 5957SOL    HW218204   4.107   1.647   5.316
 5958SOL     OW18205   4.949   0.325   4.173
 5958SOL    HW118206   5.014   0.251   4.162
 5958SOL    HW218207   4.969   0.375   4.257
 5959SOL     OW18208   4.318   0.745   4.376
 5959SOL    HW118209   4.368   0.830   4.357
 5959SOL    HW218210   4.230   0.747   4.328
 5960SOL     OW18211   4.583   1.374   3.740
 5960SOL    HW118212   4.537   1.389   3.828
 5960SOL    HW218213   4.627   1.459   3.710
 5961SOL     OW18214   4.385   1.790   4.677
 5961SOL    HW118215   4.339   1.878   4.664
 5961SOL    HW218216   4.484   1.802   4.670
 5962SOL     OW18217   4.583   0.956   4.585
 5962SOL    HW118218   4.637   0.887   4.633
 5962SOL    HW218219   4.551   1.025   4.651
 5963SOL     OW18220   3.945   1.314   5.568
 5963SOL    HW118221   3.880   1.241   5.547
 5963SOL    HW218222   3.949   1.328   5.666
 5964SOL     OW18223   3.803   1.240   4.377
 5964SOL    HW118224   3.802   1.193   4.465
 5964SOL    HW218225   3.885   1.212   4.326
 5965SOL     OW18226   4.396   1.391   5.348
 5965SOL    HW118227   4.318   1.341   5.386
 5965SOL    HW218228   4.393   1.486   5.379
 5966SOL     OW18229   4.152   0.424   4.244
 5966SOL    HW118230   4.182   0.352   4.182
 5966SOL    HW218231   4.113   0.384   4.327
 5967SOL     OW18232   4.041   0.547   5.004
 5967SOL    HW118233   4.079   0.488   5.076
 5967SOL    HW218234   4.081   0.521   4.916
 5968SOL     OW18235   4.536   1.586   4.411
 5968SOL    HW118236   4.568   1.596   4.317
 5968SOL    HW218237   4.457   1.524   4.413
 5969SOL     OW18238   4.725   0.034   4.878
 5969SOL    HW118239   4.662  -0.038   4.847
 5969SOL    HW218240   4.818  -0.002   4.878
 5970SOL     OW18241   4.494   1.330   4.025
 5970SOL    HW118242   4.448   1.243   4.042
 5970SOL    HW218243   4.585   1.327   4.066
 5971SOL     OW18244   4.342   1.567   5.008
 5971SOL    HW118245   4.337   1.649   5.065
 5971SOL    HW218246   4.431   1.564   4.963
 5972SOL     OW18247   3.763   1.077   4.024
 5972SOL    HW118248   3.862   1.066   4.015
 5972SOL    HW218249   3.723   0.991   4.056
 5973SOL     OW18250   4.599   1.646   4.061
 5973SOL    HW118251   4.522   1.611   4.007
 5973SOL    HW218252   4.567   1.717   4.123
 5974SOL     OW18253   3.954   0.628   5.699
 5974SOL    HW118254   3.861   0.626   5.736
 5974SOL    HW218255   3.955   0.589   5.607
 5975SOL     OW18256   3.949   0.275   6.582
 5975SOL    HW118257   3.984   0.258   6.674
 5975SOL    HW218258   3.861   0.230   6.570
 5976SOL     OW18259   3.743   0.368   6.233
 5976SOL    HW118260   3.661   0.411   6.272
 5976SOL    HW218261   3.715   0.295   6.170
 5977SOL     OW18262   4.293   1.275   6.751
 5977SOL    HW118263   4.200   1.268   6.714
 5977SOL    HW218264   4.304   1.364   6.795
 5978SOL     OW18265   4.492   1.144   6.609
 5978SOL    HW118266   4.414   1.161   6.669
 5978SOL    HW218267   4.526   1.231   6.573
 5979SOL     OW18268   4.574   0.798   7.409
 5979SOL    HW118269   4.570   0.874   7.474
 5979SOL    HW218270   4.596   0.834   7.318
 5980SOL     OW18271   4.409   1.012   6.251
 5980SOL    HW118272   4.478   0.996   6.321
 5980SOL    HW218273   4.336   1.069   6.289
 5981SOL     OW18274   4.410   1.161   7.389
 5981SOL    HW118275   4.470   1.240   7.403
 5981SOL    HW218276   4.324   1.192   7.348
 5982SOL     OW18277   4.059   1.435   6.647
 5982SOL    HW118278   3.981   1.404   6.594
 5982SOL    HW218279   4.117   1.493   6.590
 5983SOL     OW18280   4.162   0.392   7.085
 5983SOL    HW118281   4.244   0.336   7.094
 5983SOL    HW218282   4.081   0.334   7.089
 5984SOL     OW18283   3.955   1.713   6.069
 5984SOL    HW118284   3.989   1.790   6.123
 5984SOL    HW218285   3.999   1.713   5.979
 5985SOL     OW18286   3.954   1.434   6.124
 5985SOL    HW118287   3.928   1.530   6.124
 5985SOL    HW218288   3.883   1.380   6.169
 5986SOL     OW18289   3.964   1.091   6.472
 5986SOL    HW118290   3.978   1.007   6.524
 5986SOL    HW218291   3.909   1.155   6.527
 5987SOL     OW18292   4.344   1.786   7.025
 5987SOL    HW118293   4.252   1.769   7.060
 5987SOL    HW218294   4.372   1.878   7.051
 5988SOL     OW18295   4.330   0.964   5.709
 5988SOL    HW118296   4.337   1.048   5.655
 5988SOL    HW218297   4.376   0.977   5.797
 5989SOL     OW18298   3.846   0.643   6.149
 5989SOL    HW118299   3.801   0.555   6.166
 5989SOL    HW218300   3.845   0.697   6.233
 5990SOL     OW18301   3.751   1.596   5.703
 5990SOL    HW118302   3.732   1.500   5.724
 5990SOL    HW218303   3.718   1.654   5.778
 5991SOL     OW18304   3.837   0.737   7.183
 5991SOL    HW118305   3.925   0.724   7.228
 5991SOL    HW218306   3.824   0.834   7.161
 5992SOL     OW18307   4.337   1.365   6.312
 5992SOL    HW118308   4.288   1.278   6.321
 5992SOL    HW218309   4.314   1.408   6.225
 5993SOL     OW18310   4.533   0.004   6.088
 5993SOL    HW118311   4.573   0.095   6.079
 5993SOL    HW218312   4.433   0.012   6.094
 5994SOL     OW18313   3.921   0.976   6.850
 5994SOL    HW118314   4.010   0.931   6.836
 5994SOL    HW218315   3.848   0.911   6.831
 5995SOL     OW18316   4.041   0.251   7.387
 5995SOL    HW118317   4.112   0.322   7.393
 5995SOL    HW218318   3.953   0.290   7.415
 5996SOL     OW18319   4.322   0.729   5.856
 5996SOL    HW118320   4.346   0.798   5.788
 5996SOL    HW218321   4.244   0.762   5.910
 5997SOL     OW18322   4.531   0.605   7.051
 5997SOL    HW118323   4.484   0.602   7.140
 5997SOL    HW218324   4.480   0.550   6.985
 5998SOL     OW18325   3.800   0.811   6.375
 5998SOL    HW118326   3.899   0.799   6.384
 5998SOL    HW218327   3.776   0.906   6.396
 5999SOL     OW18328   3.854   1.821   7.157
 5999SOL    HW118329   3.844   1.806   7.256
 5999SOL    HW218330   3.768   1.857   7.121
 6000SOL     OW18331   4.589   0.348   5.781
 6000SOL    HW118332   4.648   0.411   5.732
 6000SOL    HW218333   4.608   0.254   5.752
 6001SOL     OW18334   4.274   0.196   6.471
 6001SOL    HW118335   4.269   0.191   6.571
 6001SOL    HW218336   4.276   0.292   6.442
 6002SOL     OW18337   4.732   1.456   6.063
 6002SOL    HW118338   4.686   1.528   6.011
 6002SOL    HW218339   4.728   1.476   6.161
 6003SOL     OW18340   4.075   1.801   6.439
 6003SOL    HW118341   4.125   1.715   6.445
 6003SOL    HW218342   4.140   1.878   6.436
 6004SOL     OW18343   4.045   0.943   5.828
 6004SOL    HW118344   4.127   0.982   5.786
 6004SOL    HW218345   4.018   0.861   5.779
 6005SOL     OW18346   4.185   1.266   7.313
 6005SOL    HW118347   4.135   1.267   7.227
 6005SOL    HW218348   4.122   1.248   7.389
 6006SOL     OW18349   3.926   0.285   7.084
 6006SOL    HW118350   3.846   0.345   7.071
 6006SOL    HW218351   3.916   0.236   7.170
 6007SOL     OW18352   4.188   1.743   5.909
 6007SOL    HW118353   4.221   1.782   5.995
 6007SOL    HW218354   4.264   1.736   5.844
 6008SOL     OW18355   3.973   1.785   6.827
 6008SOL    HW118356   4.030   1.720   6.877
 6008SOL    HW218357   3.957   1.752   6.734
 6009SOL     OW18358   4.106   0.700   6.066
 6009SOL    HW118359   4.151   0.610   6.063
 6009SOL    HW218360   4.012   0.689   6.099
 6010SOL     OW18361   4.338   0.122   5.703
 6010SOL    HW118362   4.436   0.100   5.710
 6010SOL    HW218363   4.307   0.105   5.610
 6011SOL     OW18364   4.505   0.264   7.335
 6011SOL    HW118365   4.572   0.203   7.378
 6011SOL    HW218366   4.432   0.283   7.400
 6012SOL     OW18367   4.612   1.514   6.781
 6012SOL    HW118368   4.589   1.489   6.687
 6012SOL    HW218369   4.673   1.445   6.820
 6013SOL     OW18370   4.527   1.402   6.510
 6013SOL    HW118371   4.617   1.416   6.468
 6013SOL    HW218372   4.456   1.404   6.439
 6014SOL     OW18373   4.646   0.503   6.485
 6014SOL    HW118374   4.621   0.494   6.389
 6014SOL    HW218375   4.694   0.421   6.516
 6015SOL     OW18376   4.263   0.064   6.098
 6015SOL    HW118377   4.182   0.065   6.156
 6015SOL    HW218378   4.266   0.147   6.043
 6016SOL     OW18379   4.021   0.035   5.757
 6016SOL    HW118380   4.070   0.119   5.736
 6016SOL    HW218381   4.083  -0.030   5.802
 6017SOL     OW18382   4.951   1.570   6.379
 6017SOL    HW118383   4.972   1.644   6.314
 6017SOL    HW218384   5.019   1.570   6.452
 6018SOL     OW18385   4.183   1.152   6.327
 6018SOL    HW118386   4.112   1.125   6.392
 6018SOL    HW218387   4.157   1.124   6.234
 6019SOL     OW18388   3.802   0.556   6.972
 6019SOL    HW118389   3.894   0.555   6.931
 6019SOL    HW218390   3.796   0.630   7.039
 6020SOL     OW18391   4.285   0.222   6.733
 6020SOL    HW118392   4.323   0.138   6.770
 6020SOL    HW218393   4.197   0.241   6.777
 6021SOL     OW18394   4.212   1.385   5.760
 6021SOL    HW118395   4.125   1.370   5.807
 6021SOL    HW218396   4.195   1.411   5.665
 6022SOL     OW18397   4.251   0.256   5.914
 6022SOL    HW118398   4.278   0.197   5.839
 6022SOL    HW218399   4.251   0.351   5.883
 6023SOL     OW18400   4.639   0.089   6.988
 6023SOL    HW118401   4.664   0.069   6.893
 6023SOL    HW218402   4.711   0.145   7.030
 6024SOL     OW18403   4.429   1.050   5.954
 6024SOL    HW118404   4.415   1.057   6.053
 6024SOL    HW218405   4.513   0.999   5.936
 6025SOL     OW18406   4.134   0.813   6.837
 6025SOL    HW118407   4.220   0.825   6.887
 6025SOL    HW218408   4.092   0.726   6.864
 6026SOL     OW18409   3.788   1.564   6.917
 6026SOL    HW118410   3.742   1.646   6.883
 6026SOL    HW218411   3.886   1.583   6.926
 6027SOL     OW18412   4.091   1.100   6.087
 6027SOL    HW118413   4.084   1.183   6.031
 6027SOL    HW218414   4.095   1.020   6.027
 6028SOL     OW18415   4.290   0.537   6.451
 6028SOL    HW118416   4.302   0.603   6.377
 6028SOL    HW218417   4.336   0.571   6.534
 6029SOL     OW18418   4.078   1.510   6.915
 6029SOL    HW118419   4.057   1.466   6.828
 6029SOL    HW218420   4.175   1.536   6.918
 6030SOL     OW18421   4.126   0.751   7.184
 6030SOL    HW118422   4.194   0.806   7.137
 6030SOL    HW218423   4.166   0.663   7.211
 6031SOL     OW18424   4.228   0.050   7.326
 6031SOL    HW118425   4.186  -0.007   7.256
 6031SOL    HW218426   4.162   0.119   7.358
 6032SOL     OW18427   4.297   0.870   6.615
 6032SOL    HW118428   4.341   0.959   6.606
 6032SOL    HW218429   4.234   0.870   6.692
 6033SOL     OW18430   4.933   0.525   5.861
 6033SOL    HW118431   4.946   0.441   5.915
 6033SOL    HW218432   4.904   0.599   5.921
 6034SOL     OW18433   4.031   0.213   6.817
 6034SOL    HW118434   4.008   0.250   6.907
 6034SOL    HW218435   4.001   0.118   6.811
 6035SOL     OW18436   3.761   1.310   6.868
 6035SOL    HW118437   3.814   1.261   6.936
 6035SOL    HW218438   3.783   1.408   6.873
 6036SOL     OW18439   4.456   0.634   6.650
 6036SOL    HW118440   4.515   0.608   6.574
 6036SOL    HW218441   4.428   0.730   6.639
 6037SOL     OW18442   4.031   0.063   6.204
 6037SOL    HW118443   4.020   0.157   6.237
 6037SOL    HW218444   4.026   0.000   6.281
 6038SOL     OW18445   4.747   0.766   6.552
 6038SOL    HW118446   4.762   0.787   6.648
 6038SOL    HW218447   4.717   0.671   6.543
 6039SOL     OW18448   4.704   1.573   7.286
 6039SOL    HW118449   4.684   1.617   7.198
 6039SOL    HW218450   4.743   1.482   7.270
 6040SOL     OW18451   4.074   0.898   7.390
 6040SOL    HW118452   4.150   0.942   7.438
 6040SOL    HW218453   4.109   0.851   7.308
 6041SOL     OW18454   4.043   0.810   6.535
 6041SOL    HW118455   4.136   0.846   6.540
 6041SOL    HW218456   4.037   0.725   6.587
 6042SOL     OW18457   4.063   0.509   6.592
 6042SOL    HW118458   4.011   0.426   6.575
 6042SOL    HW218459   4.140   0.514   6.528
 6043SOL     OW18460   3.732   1.326   5.786
 6043SOL    HW118461   3.639   1.347   5.755
 6043SOL    HW218462   3.742   1.227   5.799
 6044SOL     OW18463   3.812   1.801   6.513
 6044SOL    HW118464   3.770   1.715   6.486
 6044SOL    HW218465   3.906   1.804   6.479
 6045SOL     OW18466   4.228   1.568   6.496
 6045SOL    HW118467   4.294   1.642   6.505
 6045SOL    HW218468   4.272   1.489   6.454
 6046SOL     OW18469   4.726   0.796   6.824
 6046SOL    HW118470   4.767   0.764   6.910
 6046SOL    HW218471   4.630   0.769   6.821
 6047SOL     OW18472   3.764   0.544   6.700
 6047SOL    HW118473   3.849   0.511   6.659
 6047SOL    HW218474   3.777   0.559   6.798
 6048SOL     OW18475   3.913   0.520   7.308
 6048SOL    HW118476   3.972   0.480   7.238
 6048SOL    HW218477   3.855   0.591   7.267
 6049SOL     OW18478   4.539   0.572   5.911
 6049SOL    HW118479   4.546   0.483   5.865
 6049SOL    HW218480   4.445   0.606   5.903
 6050SOL     OW18481   3.976   1.564   7.330
 6050SOL    HW118482   3.946   1.621   7.406
 6050SOL    HW218483   3.969   1.467   7.356
 6051SOL     OW18484   4.395   0.464   6.855
 6051SOL    HW118485   4.361   0.375   6.825
 6051SOL    HW218486   4.421   0.518   6.775
 6052SOL     OW18487   4.654   1.678   7.051
 6052SOL    HW118488   4.630   1.660   6.956
 6052SOL    HW218489   4.684   1.772   7.061
 6053SOL     OW18490   4.197   0.500   5.777
 6053SOL    HW118491   4.258   0.580   5.781
 6053SOL    HW218492   4.102   0.531   5.784
 6054SOL     OW18493   3.883   1.137   7.052
 6054SOL    HW118494   3.905   1.076   7.128
 6054SOL    HW218495   3.893   1.088   6.966
 6055SOL     OW18496   3.807   1.258   6.608
 6055SOL    HW118497   3.802   1.257   6.708
 6055SOL    HW218498   3.724   1.217   6.570
 6056SOL     OW18499   4.412   1.662   7.302
 6056SOL    HW118500   4.356   1.743   7.311
 6056SOL    HW218501   4.464   1.666   7.216
 6057SOL     OW18502   4.627   0.086   5.719
 6057SOL    HW118503   4.678   0.087   5.633
 6057SOL    HW218504   4.683   0.044   5.790
 6058SOL     OW18505   3.854   1.794   7.437
 6058SOL    HW118506   3.813   1.720   7.490
 6058SOL    HW218507   3.918   1.845   7.495
 6059SOL     OW18508   4.554   1.273   7.008
 6059SOL    HW118509   4.549   1.306   7.103
 6059SOL    HW218510   4.468   1.292   6.962
 6060SOL     OW18511   4.396   1.616   5.740
 6060SOL    HW118512   4.405   1.626   5.641
 6060SOL    HW218513   4.356   1.527   5.761
 6061SOL     OW18514   3.987   0.326   6.306
 6061SOL    HW118515   3.908   0.377   6.272
 6061SOL    HW218516   3.978   0.311   6.404
 6062SOL     OW18517   4.546   1.002   6.958
 6062SOL    HW118518   4.586   1.001   6.866
 6062SOL    HW218519   4.556   1.094   6.998
 6063SOL     OW18520   4.096   1.288   7.076
 6063SOL    HW118521   4.083   1.381   7.042
 6063SOL    HW218522   4.012   1.236   7.063
 6064SOL     OW18523   4.314   1.487   6.077
 6064SOL    HW118524   4.356   1.429   6.007
 6064SOL    HW218525   4.270   1.566   6.033
 6065SOL     OW18526   3.979   1.348   5.876
 6065SOL    HW118527   3.883   1.349   5.849
 6065SOL    HW218528   3.991   1.401   5.960
 6066SOL     OW18529   3.829   1.013   7.312
 6066SOL    HW118530   3.752   0.980   7.366
 6066SOL    HW218531   3.914   0.983   7.354
 6067SOL     OW18532   4.396   0.203   7.075
 6067SOL    HW118533   4.486   0.187   7.035
 6067SOL    HW218534   4.404   0.208   7.174
 6068SOL     OW18535   3.799   0.345   5.619
 6068SOL    HW118536   3.707   0.317   5.590
 6068SOL    HW218537   3.830   0.422   5.563
 6069SOL     OW18538   3.796   0.166   5.904
 6069SOL    HW118539   3.779   0.249   5.850
 6069SOL    HW218540   3.886   0.129   5.882
 6070SOL     OW18541   4.337   0.842   7.017
 6070SOL    HW118542   4.393   0.923   7.000
 6070SOL    HW218543   4.396   0.762   7.020
 6071SOL     OW18544   4.440   0.565   7.294
 6071SOL    HW118545   4.459   0.630   7.368
 6071SOL    HW218546   4.500   0.485   7.303
 6072SOL     OW18547   4.114   1.741   7.146
 6072SOL    HW118548   4.023   1.782   7.144
 6072SOL    HW218549   4.107   1.647   7.178
 6073SOL     OW18550   4.949   0.325   6.035
 6073SOL    HW118551   5.014   0.251   6.024
 6073SOL    HW218552   4.969   0.375   6.119
 6074SOL     OW18553   4.318   0.745   6.238
 6074SOL    HW118554   4.368   0.830   6.219
 6074SOL    HW218555   4.230   0.747   6.190
 6075SOL     OW18556   4.583   1.374   5.602
 6075SOL    HW118557   4.537   1.389   5.690
 6075SOL    HW218558   4.627   1.459   5.572
 6076SOL     OW18559   4.385   1.790   6.539
 6076SOL    HW118560   4.339   1.878   6.526
 6076SOL    HW218561   4.484   1.802   6.532
 6077SOL     OW18562   4.583   0.956   6.447
 6077SOL    HW118563   4.637   0.887   6.495
 6077SOL    HW218564   4.551   1.025   6.513
 6078SOL     OW18565   3.945   1.314   7.430
 6078SOL    HW118566   3.880   1.241   7.409
 6078SOL    HW218567   3.949   1.328   7.528
 6079SOL     OW18568   3.803   1.240   6.239
 6079SOL    HW118569   3.802   1.193   6.327
 6079SOL    HW218570   3.885   1.212   6.188
 6080SOL     OW18571   4.396   1.391   7.210
 6080SOL    HW118572   4.318   1.341   7.248
 6080SOL    HW218573   4.393   1.486   7.241
 6081SOL     OW18574   4.152   0.424   6.106
 6081SOL    HW118575   4.182   0.352   6.044
 6081SOL    HW218576   4.113   0.384   6.189
 6082SOL     OW18577   4.041   0.547   6.866
 6082SOL    HW118578   4.079   0.488   6.938
 6082SOL    HW218579   4.081   0.521   6.778
 6083SOL     OW18580   4.536   1.586   6.273
 6083SOL    HW118581   4.568   1.596   6.179
 6083SOL    HW218582   4.457   1.524   6.275
 6084SOL     OW18583   4.725   0.034   6.740
 6084SOL    HW118584   4.662  -0.038   6.709
 6084SOL    HW218585   4.818  -0.002   6.740
 6085SOL     OW18586   4.494   1.330   5.887
 6085SOL    HW118587   4.448   1.243   5.904
 6085SOL    HW218588   4.585   1.327   5.928
 6086SOL     OW18589   4.342   1.567   6.870
 6086SOL    HW118590   4.337   1.649   6.927
 6086SOL    HW218591   4.431   1.564   6.825
 6087SOL     OW18592   3.763   1.077   5.886
 6087SOL    HW118593   3.862   1.066   5.877
 6087SOL    HW218594   3.723   0.991   5.918
 6088SOL     OW18595   4.599   1.646   5.923
 6088SOL    HW118596   4.522   1.611   5.869
 6088SOL    HW218597   4.567   1.717   5.985
 6089SOL     OW18598   3.954   0.628   7.561
 6089SOL    HW118599   3.861   0.626   7.598
 6089SOL    HW218600   3.955   0.589   7.469
 6090SOL     OW18601   3.949   0.275   8.444
 6090SOL    HW118602   3.984   0.258   8.536
 6090SOL    HW218603   3.861   0.230   8.432
 6091SOL     OW18604   3.743   0.368   8.095
 6091SOL    HW118605   3.661   0.411   8.134
 6091SOL    HW218606   3.715   0.295   8.032
 6092SOL     OW18607   4.293   1.275   8.613
 6092SOL    HW118608   4.200   1.268   8.576
 6092SOL    HW218609   4.304   1.364   8.657
 6093SOL     OW18610   4.492   1.144   8.471
 6093SOL    HW118611   4.414   1.161   8.531
 6093SOL    HW218612   4.526   1.231   8.435
 6094SOL     OW18613   4.574   0.798   9.271
 6094SOL    HW118614   4.570   0.874   9.336
 6094SOL    HW218615   4.596   0.834   9.180
 6095SOL     OW18616   4.409   1.012   8.113
 6095SOL    HW118617   4.478   0.996   8.183
 6095SOL    HW218618   4.336   1.069   8.151
 6096SOL     OW18619   4.410   1.161   9.251
 6096SOL    HW118620   4.470   1.240   9.265
 6096SOL    HW218621   4.324   1.192   9.210
 6097SOL     OW18622   4.059   1.435   8.509
 6097SOL    HW118623   3.981   1.404   8.456
 6097SOL    HW218624   4.117   1.493   8.452
 6098SOL     OW18625   4.162   0.392   8.947
 6098SOL    HW118626   4.244   0.336   8.956
 6098SOL    HW218627   4.081   0.334   8.951
 6099SOL     OW18628   3.955   1.713   7.931
 6099SOL    HW118629   3.989   1.790   7.985
 6099SOL    HW218630   3.999   1.713   7.841
 6100SOL     OW18631   3.954   1.434   7.986
 6100SOL    HW118632   3.928   1.530   7.986
 6100SOL    HW218633   3.883   1.380   8.031
 6101SOL     OW18634   3.964   1.091   8.334
 6101SOL    HW118635   3.978   1.007   8.386
 6101SOL    HW218636   3.909   1.155   8.389
 6102SOL     OW18637   4.344   1.786   8.887
 6102SOL    HW118638   4.252   1.769   8.922
 6102SOL    HW218639   4.372   1.878   8.913
 6103SOL     OW18640   4.330   0.964   7.571
 6103SOL    HW118641   4.337   1.048   7.517
 6103SOL    HW218642   4.376   0.977   7.659
 6104SOL     OW18643   3.846   0.643   8.011
 6104SOL    HW118644   3.801   0.555   8.028
 6104SOL    HW218645   3.845   0.697   8.095
 6105SOL     OW18646   3.751   1.596   7.565
 6105SOL    HW118647   3.732   1.500   7.586
 6105SOL    HW218648   3.718   1.654   7.640
 6106SOL     OW18649   3.837   0.737   9.045
 6106SOL    HW118650   3.925   0.724   9.090
 6106SOL    HW218651   3.824   0.834   9.023
 6107SOL     OW18652   4.337   1.365   8.174
 6107SOL    HW118653   4.288   1.278   8.183
 6107SOL    HW218654   4.314   1.408   8.087
 6108SOL     OW18655   4.533   0.004   7.950
 6108SOL    HW118656   4.573   0.095   7.941
 6108SOL    HW218657   4.433   0.012   7.956
 6109SOL     OW18658   3.921   0.976   8.712
 6109SOL    HW118659   4.010   0.931   8.698
 6109SOL    HW218660   3.848   0.911   8.693
 6110SOL     OW18661   4.041   0.251   9.249
 6110SOL    HW118662   4.112   0.322   9.255
 6110SOL    HW218663   3.953   0.290   9.277
 6111SOL     OW18664   4.322   0.729   7.718
 6111SOL    HW118665   4.346   0.798   7.650
 6111SOL    HW218666   4.244   0.762   7.772
 6112SOL     OW18667   4.531   0.605   8.913
 6112SOL    HW118668   4.484   0.602   9.002
 6112SOL    HW218669   4.480   0.550   8.847
 6113SOL     OW18670   3.800   0.811   8.237
 6113SOL    HW118671   3.899   0.799   8.246
 6113SOL    HW218672   3.776   0.906   8.258
 6114SOL     OW18673   3.854   1.821   9.019
 6114SOL    HW118674   3.844   1.806   9.118
 6114SOL    HW218675   3.768   1.857   8.983
 6115SOL     OW18676   4.589   0.348   7.643
 6115SOL    HW118677   4.648   0.411   7.594
 6115SOL    HW218678   4.608   0.254   7.614
 6116SOL     OW18679   4.274   0.196   8.333
 6116SOL    HW118680   4.269   0.191   8.433
 6116SOL    HW218681   4.276   0.292   8.304
 6117SOL     OW18682   4.732   1.456   7.925
 6117SOL    HW118683   4.686   1.528   7.873
 6117SOL    HW218684   4.728   1.476   8.023
 6118SOL     OW18685   4.075   1.801   8.301
 6118SOL    HW118686   4.125   1.715   8.307
 6118SOL    HW218687   4.140   1.878   8.298
 6119SOL     OW18688   4.045   0.943   7.690
 6119SOL    HW118689   4.127   0.982   7.648
 6119SOL    HW218690   4.018   0.861   7.641
 6120SOL     OW18691   4.185   1.266   9.175
 6120SOL    HW118692   4.135   1.267   9.089
 6120SOL    HW218693   4.122   1.248   9.251
 6121SOL     OW18694   3.926   0.285   8.946
 6121SOL    HW118695   3.846   0.345   8.933
 6121SOL    HW218696   3.916   0.236   9.032
 6122SOL     OW18697   4.188   1.743   7.771
 6122SOL    HW118698   4.221   1.782   7.857
 6122SOL    HW218699   4.264   1.736   7.706
 6123SOL     OW18700   3.973   1.785   8.689
 6123SOL    HW118701   4.030   1.720   8.739
 6123SOL    HW218702   3.957   1.752   8.596
 6124SOL     OW18703   4.106   0.700   7.928
 6124SOL    HW118704   4.151   0.610   7.925
 6124SOL    HW218705   4.012   0.689   7.961
 6125SOL     OW18706   4.338   0.122   7.565
 6125SOL    HW118707   4.436   0.100   7.572
 6125SOL    HW218708   4.307   0.105   7.472
 6126SOL     OW18709   4.505   0.264   9.197
 6126SOL    HW118710   4.572   0.203   9.240
 6126SOL    HW218711   4.432   0.283   9.262
 6127SOL     OW18712   4.612   1.514   8.643
 6127SOL    HW118713   4.589   1.489   8.549
 6127SOL    HW218714   4.673   1.445   8.682
 6128SOL     OW18715   4.527   1.402   8.372
 6128SOL    HW118716   4.617   1.416   8.330
 6128SOL    HW218717   4.456   1.404   8.301
 6129SOL     OW18718   4.646   0.503   8.347
 6129SOL    HW118719   4.621   0.494   8.251
 6129SOL    HW218720   4.694   0.421   8.378
 6130SOL     OW18721   4.263   0.064   7.960
 6130SOL    HW118722   4.182   0.065   8.018
 6130SOL    HW218723   4.266   0.147   7.905
 6131SOL     OW18724   4.021   0.035   7.619
 6131SOL    HW118725   4.070   0.119   7.598
 6131SOL    HW218726   4.083  -0.030   7.664
 6132SOL     OW18727   4.951   1.570   8.241
 6132SOL    HW118728   4.972   1.644   8.176
 6132SOL    HW218729   5.019   1.570   8.314
 6133SOL     OW18730   4.183   1.152   8.189
 6133SOL    HW118731   4.112   1.125   8.254
 6133SOL    HW218732   4.157   1.124   8.096
 6134SOL     OW18733   3.802   0.556   8.834
 6134SOL    HW118734   3.894   0.555   8.793
 6134SOL    HW218735   3.796   0.630   8.901
 6135SOL     OW18736   4.285   0.222   8.595
 6135SOL    HW118737   4.323   0.138   8.632
 6135SOL    HW218738   4.197   0.241   8.639
 6136SOL     OW18739   4.212   1.385   7.622
 6136SOL    HW118740   4.125   1.370   7.669
 6136SOL    HW218741   4.195   1.411   7.527
 6137SOL     OW18742   4.251   0.256   7.776
 6137SOL    HW118743   4.278   0.197   7.701
 6137SOL    HW218744   4.251   0.351   7.745
 6138SOL     OW18745   4.639   0.089   8.850
 6138SOL    HW118746   4.664   0.069   8.755
 6138SOL    HW218747   4.711   0.145   8.892
 6139SOL     OW18748   4.429   1.050   7.816
 6139SOL    HW118749   4.415   1.057   7.915
 6139SOL    HW218750   4.513   0.999   7.798
 6140SOL     OW18751   4.134   0.813   8.699
 6140SOL    HW118752   4.220   0.825   8.749
 6140SOL    HW218753   4.092   0.726   8.726
 6141SOL     OW18754   3.788   1.564   8.779
 6141SOL    HW118755   3.742   1.646   8.745
 6141SOL    HW218756   3.886   1.583   8.788
 6142SOL     OW18757   4.091   1.100   7.949
 6142SOL    HW118758   4.084   1.183   7.893
 6142SOL    HW218759   4.095   1.020   7.889
 6143SOL     OW18760   4.290   0.537   8.313
 6143SOL    HW118761   4.302   0.603   8.239
 6143SOL    HW218762   4.336   0.571   8.396
 6144SOL     OW18763   4.078   1.510   8.777
 6144SOL    HW118764   4.057   1.466   8.690
 6144SOL    HW218765   4.175   1.536   8.780
 6145SOL     OW18766   4.126   0.751   9.046
 6145SOL    HW118767   4.194   0.806   8.999
 6145SOL    HW218768   4.166   0.663   9.073
 6146SOL     OW18769   4.228   0.050   9.188
 6146SOL    HW118770   4.186  -0.007   9.118
 6146SOL    HW218771   4.162   0.119   9.220
 6147SOL     OW18772   4.297   0.870   8.477
 6147SOL    HW118773   4.341   0.959   8.468
 6147SOL    HW218774   4.234   0.870   8.554
 6148SOL     OW18775   4.933   0.525   7.723
 6148SOL    HW118776   4.946   0.441   7.777
 6148SOL    HW218777   4.904   0.599   7.783
 6149SOL     OW18778   4.031   0.213   8.679
 6149SOL    HW118779   4.008   0.250   8.769
 6149SOL    HW218780   4.001   0.118   8.673
 6150SOL     OW18781   3.761   1.310   8.730
 6150SOL    HW118782   3.814   1.261   8.798
 6150SOL    HW218783   3.783   1.408   8.735
 6151SOL     OW18784   4.456   0.634   8.512
 6151SOL    HW118785   4.515   0.608   8.436
 6151SOL    HW218786   4.428   0.730   8.501
 6152SOL     OW18787   4.031   0.063   8.066
 6152SOL    HW118788   4.020   0.157   8.099
 6152SOL    HW218789   4.026   0.000   8.143
 6153SOL     OW18790   4.747   0.766   8.414
 6153SOL    HW118791   4.762   0.787   8.510
 6153SOL    HW218792   4.717   0.671   8.405
 6154SOL     OW18793   4.704   1.573   9.148
 6154SOL    HW118794   4.684   1.617   9.060
 6154SOL    HW218795   4.743   1.482   9.132
 6155SOL     OW18796   4.074   0.898   9.252
 6155SOL    HW118797   4.150   0.942   9.300
 6155SOL    HW218798   4.109   0.851   9.170
 6156SOL     OW18799   4.043   0.810   8.397
 6156SOL    HW118800   4.136   0.846   8.402
 6156SOL    HW218801   4.037   0.725   8.449
 6157SOL     OW18802   4.063   0.509   8.454
 6157SOL    HW118803   4.011   0.426   8.437
 6157SOL    HW218804   4.140   0.514   8.390
 6158SOL     OW18805   3.732   1.326   7.648
 6158SOL    HW118806   3.639   1.347   7.617
 6158SOL    HW218807   3.742   1.227   7.661
 6159SOL     OW18808   3.812   1.801   8.375
 6159SOL    HW118809   3.770   1.715   8.348
 6159SOL    HW218810   3.906   1.804   8.341
 6160SOL     OW18811   4.228   1.568   8.358
 6160SOL    HW118812   4.294   1.642   8.367
 6160SOL    HW218813   4.272   1.489   8.316
 6161SOL     OW18814   4.726   0.796   8.686
 6161SOL    HW118815   4.767   0.764   8.772
 6161SOL    HW218816   4.630   0.769   8.683
 6162SOL     OW18817   3.764   0.544   8.562
 6162SOL    HW118818   3.849   0.511   8.521
 6162SOL    HW218819   3.777   0.559   8.660
 6163SOL     OW18820   3.913   0.520   9.170
 6163SOL    HW118821   3.972   0.480   9.100
 6163SOL    HW218822   3.855   0.591   9.129
 6164SOL     OW18823   4.539   0.572   7.773
 6164SOL    HW118824   4.546   0.483   7.727
 6164SOL    HW218825   4.445   0.606   7.765
 6165SOL     OW18826   3.976   1.564   9.192
 6165SOL    HW118827   3.946   1.621   9.268
 6165SOL    HW218828   3.969   1.467   9.218
 6166SOL     OW18829   4.395   0.464   8.717
 6166SOL    HW118830   4.361   0.375   8.687
 6166SOL    HW218831   4.421   0.518   8.637
 6167SOL     OW18832   4.654   1.678   8.913
 6167SOL    HW118833   4.630   1.660   8.818
 6167SOL    HW218834   4.684   1.772   8.923
 6168SOL     OW18835   4.197   0.500   7.639
 6168SOL    HW118836   4.258   0.580   7.643
 6168SOL    HW218837   4.102   0.531   7.646
 6169SOL     OW18838   3.883   1.137   8.914
 6169SOL    HW118839   3.905   1.076   8.990
 6169SOL    HW218840   3.893   1.088   8.828
 6170SOL     OW18841   3.807   1.258   8.470
 6170SOL    HW118842   3.802   1.257   8.570
 6170SOL    HW218843   3.724   1.217   8.432
 6171SOL     OW18844   4.412   1.662   9.164
 6171SOL    HW118845   4.356   1.743   9.173
 6171SOL    HW218846   4.464   1.666   9.078
 6172SOL     OW18847   4.627   0.086   7.581
 6172SOL    HW118848   4.678   0.087   7.495
 6172SOL    HW218849   4.683   0.044   7.652
 6173SOL     OW18850   3.854   1.794   9.299
 6173SOL    HW118851   3.813   1.720   9.352
 6173SOL    HW218852   3.918   1.845   9.357
 6174SOL     OW18853   4.554   1.273   8.870
 6174SOL    HW118854   4.549   1.306   8.965
 6174SOL    HW218855   4.468   1.292   8.824
 6175SOL     OW18856   4.396   1.616   7.602
 6175SOL    HW118857   4.405   1.626   7.503
 6175SOL    HW218858   4.356   1.527   7.623
 6176SOL     OW18859   3.987   0.326   8.168
 6176SOL    HW118860   3.908   0.377   8.134
 6176SOL    HW218861   3.978   0.311   8.266
 6177SOL     OW18862   4.546   1.002   8.820
 6177SOL    HW118863   4.586   1.001   8.728
 6177SOL    HW218864   4.556   1.094   8.860
 6178SOL     OW18865   4.096   1.288   8.938
 6178SOL    HW118866   4.083   1.381   8.904
 6178SOL    HW218867   4.012   1.236   8.925
 6179SOL     OW18868   4.314   1.487   7.939
 6179SOL    HW118869   4.356   1.429   7.869
 6179SOL    HW218870   4.270   1.566   7.895
 6180SOL     OW18871   3.979   1.348   7.738
 6180SOL    HW118872   3.883   1.349   7.711
 6180SOL    HW218873   3.991   1.401   7.822
 6181SOL     OW18874   3.829   1.013   9.174
 6181SOL    HW118875   3.752   0.980   9.228
 6181SOL    HW218876   3.914   0.983   9.216
 6182SOL     OW18877   4.396   0.203   8.937
 6182SOL    HW118878   4.486   0.187   8.897
 6182SOL    HW218879   4.404   0.208   9.036
 6183SOL     OW18880   3.799   0.345   7.481
 6183SOL    HW118881   3.707   0.317   7.452
 6183SOL    HW218882   3.830   0.422   7.425
 6184SOL     OW18883   3.796   0.166   7.766
 6184SOL    HW118884   3.779   0.249   7.712
 6184SOL    HW218885   3.886   0.129   7.744
 6185SOL     OW18886   4.337   0.842   8.879
 6185SOL    HW118887   4.393   0.923   8.862
 6185SOL    HW218888   4.396   0.762   8.882
 6186SOL     OW18889   4.440   0.565   9.156
 6186SOL    HW118890   4.459   0.630   9.230
 6186SOL    HW218891   4.500   0.485   9.165
 6187SOL     OW18892   4.114   1.741   9.008
 6187SOL    HW118893   4.023   1.782   9.006
 6187SOL    HW218894   4.107   1.647   9.040
 6188SOL     OW18895   4.949   0.325   7.897
 6188SOL    HW118896   5.014   0.251   7.886
 6188SOL    HW218897   4.969   0.375   7.981
 6189SOL     OW18898   4.318   0.745   8.100
 6189SOL    HW118899   4.368   0.830   8.081
 6189SOL    HW218900   4.230   0.747   8.052
 6190SOL     OW18901   4.583   1.374   7.464
 6190SOL    HW118902   4.537   1.389   7.552
 6190SOL    HW218903   4.627   1.459   7.434
 6191SOL     OW18904   4.385   1.790   8.401
 6191SOL    HW118905   4.339   1.878   8.388
 6191SOL    HW218906   4.484   1.802   8.394
 6192SOL     OW18907   4.583   0.956   8.309
 6192SOL    HW118908   4.637   0.887   8.357
 6192SOL    HW218909   4.551   1.025   8.375
 6193SOL     OW18910   3.945   1.314   9.292
 6193SOL    HW118911   3.880   1.241   9.271
 6193SOL    HW218912   3.949   1.328   9.390
 6194SOL     OW18913   3.803   1.240   8.101
 6194SOL    HW118914   3.802   1.193   8.189
 6194SOL    HW218915   3.885   1.212   8.050
 6195SOL     OW18916   4.396   1.391   9.072
 6195SOL    HW118917   4.318   1.341   9.110
 6195SOL    HW218918   4.393   1.486   9.103
 6196SOL     OW18919   4.152   0.424   7.968
 6196SOL    HW118920   4.182   0.352   7.906
 6196SOL    HW218921   4.113   0.384   8.051
 6197SOL     OW18922   4.041   0.547   8.728
 6197SOL    HW118923   4.079   0.488   8.800
 6197SOL    HW218924   4.081   0.521   8.640
 6198SOL     OW18925   4.536   1.586   8.135
 6198SOL    HW118926   4.568   1.596   8.041
 6198SOL    HW218927   4.457   1.524   8.137
 6199SOL     OW18928   4.725   0.034   8.602
 6199SOL    HW118929   4.662  -0.038   8.571
 6199SOL    HW218930   4.818  -0.002   8.602
 6200SOL     OW18931   4.494   1.330   7.749
 6200SOL    HW118932   4.448   1.243   7.766
 6200SOL    HW218933   4.585   1.327   7.790
 6201SOL     OW18934   4.342   1.567   8.732
 6201SOL    HW118935   4.337   1.649   8.789
 6201SOL    HW218936   4.431   1.564   8.687
 6202SOL     OW18937   3.763   1.077   7.748
 6202SOL    HW118938   3.862   1.066   7.739
 6202SOL    HW218939   3.723   0.991   7.780
 6203SOL     OW18940   4.599   1.646   7.785
 6203SOL    HW118941   4.522   1.611   7.731
 6203SOL    HW218942   4.567   1.717   7.847
 6204SOL     OW18943   3.954   0.628   9.423
 6204SOL    HW118944   3.861   0.626   9.460
 6204SOL    HW218945   3.955   0.589   9.331
 6205SOL     OW18946   3.955   1.713   9.793
 6205SOL    HW118947   3.989   1.790   9.847
 6205SOL    HW218948   3.999   1.713   9.703
 6206SOL     OW18949   3.954   1.434   9.848
 6206SOL    HW118950   3.928   1.530   9.848
 6206SOL    HW218951   3.883   1.380   9.893
 6207SOL     OW18952   4.330   0.964   9.433
 6207SOL    HW118953   4.337   1.048   9.379
 6207SOL    HW218954   4.376   0.977   9.521
 6208SOL     OW18955   3.846   0.643   9.873
 6208SOL    HW118956   3.801   0.555   9.890
 6208SOL    HW218957   3.845   0.697   9.957
 6209SOL     OW18958   3.751   1.596   9.427
 6209SOL    HW118959   3.732   1.500   9.448
 6209SOL    HW218960   3.718   1.654   9.502
 6210SOL     OW18961   4.337   1.365  10.036
 6210SOL    HW118962   4.288   1.278  10.045
 6210SOL    HW218963   4.314   1.408   9.949
 6211SOL     OW18964   4.533   0.004   9.812
 6211SOL    HW118965   4.573   0.095   9.803
 6211SOL    HW218966   4.433   0.012   9.818
 6212SOL     OW18967   4.322   0.729   9.580
 6212SOL    HW118968   4.346   0.798   9.512
 6212SOL    HW218969   4.244   0.762   9.634
 6213SOL     OW18970   3.800   0.811  10.099
 6213SOL    HW118971   3.899   0.799  10.108
 6213SOL    HW218972   3.776   0.906  10.120
 6214SOL     OW18973   4.589   0.348   9.505
 6214SOL    HW118974   4.648   0.411   9.456
 6214SOL    HW218975   4.608   0.254   9.476
 6215SOL     OW18976   4.732   1.456   9.787
 6215SOL    HW118977   4.686   1.528   9.735
 6215SOL    HW218978   4.728   1.476   9.885
 6216SOL     OW18979   4.045   0.943   9.552
 6216SOL    HW118980   4.127   0.982   9.510
 6216SOL    HW218981   4.018   0.861   9.503
 6217SOL     OW18982   4.188   1.743   9.633
 6217SOL    HW118983   4.221   1.782   9.719
 6217SOL    HW218984   4.264   1.736   9.568
 6218SOL     OW18985   4.106   0.700   9.790
 6218SOL    HW118986   4.151   0.610   9.787
 6218SOL    HW218987   4.012   0.689   9.823
 6219SOL     OW18988   4.338   0.122   9.427
 6219SOL    HW118989   4.436   0.100   9.434
 6219SOL    HW218990   4.307   0.105   9.334
 6220SOL     OW18991   4.263   0.064   9.822
 6220SOL    HW118992   4.182   0.065   9.880
 6220SOL    HW218993   4.266   0.147   9.767
 6221SOL     OW18994   4.021   0.035   9.481
 6221SOL    HW118995   4.070   0.119   9.460
 6221SOL    HW218996   4.083  -0.030   9.526
 6222SOL     OW18997   4.659   0.236   9.790
 6222SOL    HW118998   4.611   0.277   9.712
 6222SOL    HW218999   4.758   0.234   9.771
 6223SOL     OW19000   4.183   1.152  10.051
 6223SOL    HW119001   4.112   1.125  10.116
 6223SOL    HW219002   4.157   1.124   9.958
 6224SOL     OW19003   4.590   0.454   9.952
 6224SOL    HW119004   4.558   0.526   9.890
 6224SOL    HW219005   4.614   0.373   9.899
 6225SOL     OW19006   4.212   1.385   9.484
 6225SOL    HW119007   4.125   1.370   9.531
 6225SOL    HW219008   4.195   1.411   9.389
 6226SOL     OW19009   4.251   0.256   9.638
 6226SOL    HW119010   4.278   0.197   9.563
 6226SOL    HW219011   4.251   0.351   9.607
 6227SOL     OW19012   4.429   1.050   9.678
 6227SOL    HW119013   4.415   1.057   9.777
 6227SOL    HW219014   4.513   0.999   9.660
 6228SOL     OW19015   4.091   1.100   9.811
 6228SOL    HW119016   4.084   1.183   9.755
 6228SOL    HW219017   4.095   1.020   9.751
 6229SOL     OW19018   4.933   0.525   9.585
 6229SOL    HW119019   4.946   0.441   9.639
 6229SOL    HW219020   4.904   0.599   9.645
 6230SOL     OW19021   4.031   0.063   9.928
 6230SOL    HW119022   4.020   0.157   9.961
 6230SOL    HW219023   4.026   0.000  10.005
 6231SOL     OW19024   3.732   1.326   9.510
 6231SOL    HW119025   3.639   1.347   9.479
 6231SOL    HW219026   3.742   1.227   9.523
 6232SOL     OW19027   4.539   0.572   9.635
 6232SOL    HW119028   4.546   0.483   9.589
 6232SOL    HW219029   4.445   0.606   9.627
 6233SOL     OW19030   4.197   0.500   9.501
 6233SOL    HW119031   4.258   0.580   9.505
 6233SOL    HW219032   4.102   0.531   9.508
 6234SOL     OW19033   4.627   0.086   9.443
 6234SOL    HW119034   4.678   0.087   9.357
 6234SOL    HW219035   4.683   0.044   9.514
 6235SOL     OW19036   4.396   1.616   9.464
 6235SOL    HW119037   4.405   1.626   9.365
 6235SOL    HW219038   4.356   1.527   9.485
 6236SOL     OW19039   4.314   1.487   9.801
 6236SOL    HW119040   4.356   1.429   9.731
 6236SOL    HW219041   4.270   1.566   9.757
 6237SOL     OW19042   3.979   1.348   9.600
 6237SOL    HW119043   3.883   1.349   9.573
 6237SOL    HW219044   3.991   1.401   9.684
 6238SOL     OW19045   3.799   0.345   9.343
 6238SOL    HW119046   3.707   0.317   9.314
 6238SOL    HW219047   3.830   0.422   9.287
 6239SOL     OW19048   3.796   0.166   9.628
 6239SOL    HW119049   3.779   0.249   9.574
 6239SOL    HW219050   3.886   0.129   9.606
 6240SOL     OW19051   4.949   0.325   9.759
 6240SOL    HW119052   5.014   0.251   9.748
 6240SOL    HW219053   4.969   0.375   9.843
 6241SOL     OW19054   4.318   0.745   9.962
 6241SOL    HW119055   4.368   0.830   9.943
 6241SOL    HW219056   4.230   0.747   9.914
 6242SOL     OW19057   4.583   1.374   9.326
 6242SOL    HW119058   4.537   1.389   9.414
 6242SOL    HW219059   4.627   1.459   9.296
 6243SOL     OW19060   3.803   1.240   9.963
 6243SOL    HW119061   3.802   1.193  10.051
 6243SOL    HW219062   3.885   1.212   9.912
 6244SOL     OW19063   4.152   0.424   9.830
 6244SOL    HW119064   4.182   0.352   9.768
 6244SOL    HW219065   4.113   0.384   9.913
 6245SOL     OW19066   4.494   1.330   9.611
 6245SOL    HW119067   4.448   1.243   9.628
 6245SOL    HW219068   4.585   1.327   9.652
 6246SOL     OW19069   3.763   1.077   9.610
 6246SOL    HW119070   3.862   1.066   9.601
 6246SOL    HW219071   3.723   0.991   9.642
 6247SOL     OW19072   4.599   1.646   9.647
 6247SOL    HW119073   4.522   1.611   9.593
 6247SOL    HW219074   4.567   1.717   9.709
 6248SOL     OW19075   3.954   2.490   0.113
 6248SOL    HW119076   3.861   2.488   0.150
 6248SOL    HW219077   3.955   2.451   0.021
 6249SOL     OW19078   3.949   2.137   0.996
 6249SOL    HW119079   3.984   2.120   1.088
 6249SOL    HW219080   3.861   2.092   0.984
 6250SOL     OW19081   3.743   2.230   0.647
 6250SOL    HW119082   3.661   2.273   0.686
 6250SOL    HW219083   3.715   2.157   0.584
 6251SOL     OW19084   4.293   3.137   1.165
 6251SOL    HW119085   4.200   3.130   1.128
 6251SOL    HW219086   4.304   3.226   1.209
 6252SOL     OW19087   4.492   3.006   1.023
 6252SOL    HW119088   4.414   3.023   1.083
 6252SOL    HW219089   4.526   3.093   0.987
 6253SOL     OW19090   4.574   2.660   1.823
 6253SOL    HW119091   4.570   2.736   1.888
 6253SOL    HW219092   4.596   2.696   1.732
 6254SOL     OW19093   4.409   2.874   0.665
 6254SOL    HW119094   4.478   2.858   0.735
 6254SOL    HW219095   4.336   2.931   0.703
 6255SOL     OW19096   4.410   3.023   1.803
 6255SOL    HW119097   4.470   3.102   1.817
 6255SOL    HW219098   4.324   3.054   1.762
 6256SOL     OW19099   4.059   3.297   1.061
 6256SOL    HW119100   3.981   3.266   1.008
 6256SOL    HW219101   4.117   3.355   1.004
 6257SOL     OW19102   4.162   2.254   1.499
 6257SOL    HW119103   4.244   2.198   1.508
 6257SOL    HW219104   4.081   2.196   1.503
 6258SOL     OW19105   3.955   3.575   0.483
 6258SOL    HW119106   3.989   3.652   0.537
 6258SOL    HW219107   3.999   3.575   0.393
 6259SOL     OW19108   3.954   3.296   0.538
 6259SOL    HW119109   3.928   3.392   0.538
 6259SOL    HW219110   3.883   3.242   0.583
 6260SOL     OW19111   3.964   2.953   0.886
 6260SOL    HW119112   3.978   2.869   0.938
 6260SOL    HW219113   3.909   3.017   0.941
 6261SOL     OW19114   4.344   3.648   1.439
 6261SOL    HW119115   4.252   3.631   1.474
 6261SOL    HW219116   4.372   3.740   1.465
 6262SOL     OW19117   4.330   2.826   0.123
 6262SOL    HW119118   4.337   2.910   0.069
 6262SOL    HW219119   4.376   2.839   0.211
 6263SOL     OW19120   3.846   2.505   0.563
 6263SOL    HW119121   3.801   2.417   0.580
 6263SOL    HW219122   3.845   2.559   0.647
 6264SOL     OW19123   3.751   3.458   0.117
 6264SOL    HW119124   3.732   3.362   0.138
 6264SOL    HW219125   3.718   3.516   0.192
 6265SOL     OW19126   3.837   2.599   1.597
 6265SOL    HW119127   3.925   2.586   1.642
 6265SOL    HW219128   3.824   2.696   1.575
 6266SOL     OW19129   4.337   3.227   0.726
 6266SOL    HW119130   4.288   3.140   0.735
 6266SOL    HW219131   4.314   3.270   0.639
 6267SOL     OW19132   4.533   1.866   0.502
 6267SOL    HW119133   4.573   1.957   0.493
 6267SOL    HW219134   4.433   1.874   0.508
 6268SOL     OW19135   3.921   2.838   1.264
 6268SOL    HW119136   4.010   2.793   1.250
 6268SOL    HW219137   3.848   2.773   1.245
 6269SOL     OW19138   4.041   2.113   1.801
 6269SOL    HW119139   4.112   2.184   1.807
 6269SOL    HW219140   3.953   2.152   1.829
 6270SOL     OW19141   4.322   2.591   0.270
 6270SOL    HW119142   4.346   2.660   0.202
 6270SOL    HW219143   4.244   2.624   0.324
 6271SOL     OW19144   4.531   2.467   1.465
 6271SOL    HW119145   4.484   2.464   1.554
 6271SOL    HW219146   4.480   2.412   1.399
 6272SOL     OW19147   4.715   2.272   1.242
 6272SOL    HW119148   4.638   2.306   1.296
 6272SOL    HW219149   4.681   2.221   1.163
 6273SOL     OW19150   3.800   2.673   0.789
 6273SOL    HW119151   3.899   2.661   0.798
 6273SOL    HW219152   3.776   2.768   0.810
 6274SOL     OW19153   3.854   3.683   1.571
 6274SOL    HW119154   3.844   3.668   1.670
 6274SOL    HW219155   3.768   3.719   1.535
 6275SOL     OW19156   4.589   2.210   0.195
 6275SOL    HW119157   4.648   2.273   0.146
 6275SOL    HW219158   4.608   2.116   0.166
 6276SOL     OW19159   4.274   2.058   0.885
 6276SOL    HW119160   4.269   2.053   0.985
 6276SOL    HW219161   4.276   2.154   0.856
 6277SOL     OW19162   4.732   3.318   0.477
 6277SOL    HW119163   4.686   3.390   0.425
 6277SOL    HW219164   4.728   3.338   0.575
 6278SOL     OW19165   4.075   3.663   0.853
 6278SOL    HW119166   4.125   3.577   0.859
 6278SOL    HW219167   4.140   3.740   0.850
 6279SOL     OW19168   4.045   2.805   0.242
 6279SOL    HW119169   4.127   2.844   0.200
 6279SOL    HW219170   4.018   2.723   0.193
 6280SOL     OW19171   4.185   3.128   1.727
 6280SOL    HW119172   4.135   3.129   1.641
 6280SOL    HW219173   4.122   3.110   1.803
 6281SOL     OW19174   3.926   2.147   1.498
 6281SOL    HW119175   3.846   2.207   1.485
 6281SOL    HW219176   3.916   2.098   1.584
 6282SOL     OW19177   4.188   3.605   0.323
 6282SOL    HW119178   4.221   3.644   0.409
 6282SOL    HW219179   4.264   3.598   0.258
 6283SOL     OW19180   3.973   3.647   1.241
 6283SOL    HW119181   4.030   3.582   1.291
 6283SOL    HW219182   3.957   3.614   1.148
 6284SOL     OW19183   4.106   2.562   0.480
 6284SOL    HW119184   4.151   2.472   0.477
 6284SOL    HW219185   4.012   2.551   0.513
 6285SOL     OW19186   4.338   1.984   0.117
 6285SOL    HW119187   4.436   1.962   0.124
 6285SOL    HW219188   4.307   1.967   0.024
 6286SOL     OW19189   4.505   2.126   1.749
 6286SOL    HW119190   4.572   2.065   1.792
 6286SOL    HW219191   4.432   2.145   1.814
 6287SOL     OW19192   4.612   3.376   1.195
 6287SOL    HW119193   4.589   3.351   1.101
 6287SOL    HW219194   4.673   3.307   1.234
 6288SOL     OW19195   4.527   3.264   0.924
 6288SOL    HW119196   4.617   3.278   0.882
 6288SOL    HW219197   4.456   3.266   0.853
 6289SOL     OW19198   4.646   2.365   0.899
 6289SOL    HW119199   4.621   2.356   0.803
 6289SOL    HW219200   4.694   2.283   0.930
 6290SOL     OW19201   4.263   1.926   0.512
 6290SOL    HW119202   4.182   1.927   0.570
 6290SOL    HW219203   4.266   2.009   0.457
 6291SOL     OW19204   4.021   1.897   0.171
 6291SOL    HW119205   4.070   1.981   0.150
 6291SOL    HW219206   4.083   1.832   0.216
 6292SOL     OW19207   4.951   3.432   0.793
 6292SOL    HW119208   4.972   3.506   0.728
 6292SOL    HW219209   5.019   3.432   0.866
 6293SOL     OW19210   4.183   3.014   0.741
 6293SOL    HW119211   4.112   2.987   0.806
 6293SOL    HW219212   4.157   2.986   0.648
 6294SOL     OW19213   3.802   2.418   1.386
 6294SOL    HW119214   3.894   2.417   1.345
 6294SOL    HW219215   3.796   2.492   1.453
 6295SOL     OW19216   4.285   2.084   1.147
 6295SOL    HW119217   4.323   2.000   1.184
 6295SOL    HW219218   4.197   2.103   1.191
 6296SOL     OW19219   4.741   1.901   0.753
 6296SOL    HW119220   4.669   1.906   0.684
 6296SOL    HW219221   4.717   1.832   0.822
 6297SOL     OW19222   4.212   3.247   0.174
 6297SOL    HW119223   4.125   3.232   0.221
 6297SOL    HW219224   4.195   3.273   0.079
 6298SOL     OW19225   4.251   2.118   0.328
 6298SOL    HW119226   4.278   2.059   0.253
 6298SOL    HW219227   4.251   2.213   0.297
 6299SOL     OW19228   4.639   1.951   1.402
 6299SOL    HW119229   4.664   1.931   1.307
 6299SOL    HW219230   4.711   2.007   1.444
 6300SOL     OW19231   4.429   2.912   0.368
 6300SOL    HW119232   4.415   2.919   0.467
 6300SOL    HW219233   4.513   2.861   0.350
 6301SOL     OW19234   4.134   2.675   1.251
 6301SOL    HW119235   4.220   2.687   1.301
 6301SOL    HW219236   4.092   2.588   1.278
 6302SOL     OW19237   3.788   3.426   1.331
 6302SOL    HW119238   3.742   3.508   1.297
 6302SOL    HW219239   3.886   3.445   1.340
 6303SOL     OW19240   4.091   2.962   0.501
 6303SOL    HW119241   4.084   3.045   0.445
 6303SOL    HW219242   4.095   2.882   0.441
 6304SOL     OW19243   4.290   2.399   0.865
 6304SOL    HW119244   4.302   2.465   0.791
 6304SOL    HW219245   4.336   2.433   0.948
 6305SOL     OW19246   4.078   3.372   1.329
 6305SOL    HW119247   4.057   3.328   1.242
 6305SOL    HW219248   4.175   3.398   1.332
 6306SOL     OW19249   4.126   2.613   1.598
 6306SOL    HW119250   4.194   2.668   1.551
 6306SOL    HW219251   4.166   2.525   1.625
 6307SOL     OW19252   4.228   1.912   1.740
 6307SOL    HW119253   4.186   1.855   1.670
 6307SOL    HW219254   4.162   1.981   1.772
 6308SOL     OW19255   4.297   2.732   1.029
 6308SOL    HW119256   4.341   2.821   1.020
 6308SOL    HW219257   4.234   2.732   1.106
 6309SOL     OW19258   4.933   2.387   0.275
 6309SOL    HW119259   4.946   2.303   0.329
 6309SOL    HW219260   4.904   2.461   0.335
 6310SOL     OW19261   4.031   2.075   1.231
 6310SOL    HW119262   4.008   2.112   1.321
 6310SOL    HW219263   4.001   1.980   1.225
 6311SOL     OW19264   3.761   3.172   1.282
 6311SOL    HW119265   3.814   3.123   1.350
 6311SOL    HW219266   3.783   3.270   1.287
 6312SOL     OW19267   4.456   2.496   1.064
 6312SOL    HW119268   4.515   2.470   0.988
 6312SOL    HW219269   4.428   2.592   1.053
 6313SOL     OW19270   4.031   1.925   0.618
 6313SOL    HW119271   4.020   2.019   0.651
 6313SOL    HW219272   4.026   1.862   0.695
 6314SOL     OW19273   4.747   2.628   0.966
 6314SOL    HW119274   4.762   2.649   1.062
 6314SOL    HW219275   4.717   2.533   0.957
 6315SOL     OW19276   4.704   3.435   1.700
 6315SOL    HW119277   4.684   3.479   1.612
 6315SOL    HW219278   4.743   3.344   1.684
 6316SOL     OW19279   4.074   2.760   1.804
 6316SOL    HW119280   4.150   2.804   1.852
 6316SOL    HW219281   4.109   2.713   1.722
 6317SOL     OW19282   4.043   2.672   0.949
 6317SOL    HW119283   4.136   2.708   0.954
 6317SOL    HW219284   4.037   2.587   1.001
 6318SOL     OW19285   4.063   2.371   1.006
 6318SOL    HW119286   4.011   2.288   0.989
 6318SOL    HW219287   4.140   2.376   0.942
 6319SOL     OW19288   3.732   3.188   0.200
 6319SOL    HW119289   3.639   3.209   0.169
 6319SOL    HW219290   3.742   3.089   0.213
 6320SOL     OW19291   3.812   3.663   0.927
 6320SOL    HW119292   3.770   3.577   0.900
 6320SOL    HW219293   3.906   3.666   0.893
 6321SOL     OW19294   4.228   3.430   0.910
 6321SOL    HW119295   4.294   3.504   0.919
 6321SOL    HW219296   4.272   3.351   0.868
 6322SOL     OW19297   4.726   2.658   1.238
 6322SOL    HW119298   4.767   2.626   1.324
 6322SOL    HW219299   4.630   2.631   1.235
 6323SOL     OW19300   3.764   2.406   1.114
 6323SOL    HW119301   3.849   2.373   1.073
 6323SOL    HW219302   3.777   2.421   1.212
 6324SOL     OW19303   3.913   2.382   1.722
 6324SOL    HW119304   3.972   2.342   1.652
 6324SOL    HW219305   3.855   2.453   1.681
 6325SOL     OW19306   4.539   2.434   0.325
 6325SOL    HW119307   4.546   2.345   0.279
 6325SOL    HW219308   4.445   2.468   0.317
 6326SOL     OW19309   3.976   3.426   1.744
 6326SOL    HW119310   3.946   3.483   1.820
 6326SOL    HW219311   3.969   3.329   1.770
 6327SOL     OW19312   4.395   2.326   1.269
 6327SOL    HW119313   4.361   2.237   1.239
 6327SOL    HW219314   4.421   2.380   1.189
 6328SOL     OW19315   4.654   3.540   1.465
 6328SOL    HW119316   4.630   3.522   1.370
 6328SOL    HW219317   4.684   3.634   1.475
 6329SOL     OW19318   4.197   2.362   0.191
 6329SOL    HW119319   4.258   2.442   0.195
 6329SOL    HW219320   4.102   2.393   0.198
 6330SOL     OW19321   3.883   2.999   1.466
 6330SOL    HW119322   3.905   2.938   1.542
 6330SOL    HW219323   3.893   2.950   1.380
 6331SOL     OW19324   3.807   3.120   1.022
 6331SOL    HW119325   3.802   3.119   1.122
 6331SOL    HW219326   3.724   3.079   0.984
 6332SOL     OW19327   4.412   3.524   1.716
 6332SOL    HW119328   4.356   3.605   1.725
 6332SOL    HW219329   4.464   3.528   1.630
 6333SOL     OW19330   4.627   1.948   0.133
 6333SOL    HW119331   4.678   1.949   0.047
 6333SOL    HW219332   4.683   1.906   0.204
 6334SOL     OW19333   3.854   3.656   1.851
 6334SOL    HW119334   3.813   3.582   1.904
 6334SOL    HW219335   3.918   3.707   1.909
 6335SOL     OW19336   4.554   3.135   1.422
 6335SOL    HW119337   4.549   3.168   1.517
 6335SOL    HW219338   4.468   3.154   1.376
 6336SOL     OW19339   4.396   3.478   0.154
 6336SOL    HW119340   4.405   3.488   0.055
 6336SOL    HW219341   4.356   3.389   0.175
 6337SOL     OW19342   3.987   2.188   0.720
 6337SOL    HW119343   3.908   2.239   0.686
 6337SOL    HW219344   3.978   2.173   0.818
 6338SOL     OW19345   4.918   3.474   0.031
 6338SOL    HW119346   4.924   3.381   0.068
 6338SOL    HW219347   4.859   3.474  -0.049
 6339SOL     OW19348   4.546   2.864   1.372
 6339SOL    HW119349   4.586   2.863   1.280
 6339SOL    HW219350   4.556   2.956   1.412
 6340SOL     OW19351   4.096   3.150   1.490
 6340SOL    HW119352   4.083   3.243   1.456
 6340SOL    HW219353   4.012   3.098   1.477
 6341SOL     OW19354   4.314   3.349   0.491
 6341SOL    HW119355   4.356   3.291   0.421
 6341SOL    HW219356   4.270   3.428   0.447
 6342SOL     OW19357   3.979   3.210   0.290
 6342SOL    HW119358   3.883   3.211   0.263
 6342SOL    HW219359   3.991   3.263   0.374
 6343SOL     OW19360   3.829   2.875   1.726
 6343SOL    HW119361   3.752   2.842   1.780
 6343SOL    HW219362   3.914   2.845   1.768
 6344SOL     OW19363   4.396   2.065   1.489
 6344SOL    HW119364   4.486   2.049   1.449
 6344SOL    HW219365   4.404   2.070   1.588
 6345SOL     OW19366   3.799   2.207   0.033
 6345SOL    HW119367   3.707   2.179   0.004
 6345SOL    HW219368   3.830   2.284  -0.023
 6346SOL     OW19369   3.796   2.028   0.318
 6346SOL    HW119370   3.779   2.111   0.264
 6346SOL    HW219371   3.886   1.991   0.296
 6347SOL     OW19372   4.337   2.704   1.431
 6347SOL    HW119373   4.393   2.785   1.414
 6347SOL    HW219374   4.396   2.624   1.434
 6348SOL     OW19375   4.440   2.427   1.708
 6348SOL    HW119376   4.459   2.492   1.782
 6348SOL    HW219377   4.500   2.347   1.717
 6349SOL     OW19378   4.114   3.603   1.560
 6349SOL    HW119379   4.023   3.644   1.558
 6349SOL    HW219380   4.107   3.509   1.592
 6350SOL     OW19381   4.949   2.187   0.449
 6350SOL    HW119382   5.014   2.113   0.438
 6350SOL    HW219383   4.969   2.237   0.533
 6351SOL     OW19384   4.318   2.607   0.652
 6351SOL    HW119385   4.368   2.692   0.633
 6351SOL    HW219386   4.230   2.609   0.604
 6352SOL     OW19387   4.583   3.236   0.016
 6352SOL    HW119388   4.537   3.251   0.104
 6352SOL    HW219389   4.627   3.321  -0.014
 6353SOL     OW19390   4.385   3.652   0.953
 6353SOL    HW119391   4.339   3.740   0.940
 6353SOL    HW219392   4.484   3.664   0.946
 6354SOL     OW19393   4.583   2.818   0.861
 6354SOL    HW119394   4.637   2.749   0.909
 6354SOL    HW219395   4.551   2.887   0.927
 6355SOL     OW19396   3.945   3.176   1.844
 6355SOL    HW119397   3.880   3.103   1.823
 6355SOL    HW219398   3.949   3.190   1.942
 6356SOL     OW19399   3.803   3.102   0.653
 6356SOL    HW119400   3.802   3.055   0.741
 6356SOL    HW219401   3.885   3.074   0.602
 6357SOL     OW19402   4.396   3.253   1.624
 6357SOL    HW119403   4.318   3.203   1.662
 6357SOL    HW219404   4.393   3.348   1.655
 6358SOL     OW19405   4.152   2.286   0.520
 6358SOL    HW119406   4.182   2.214   0.458
 6358SOL    HW219407   4.113   2.246   0.603
 6359SOL     OW19408   4.041   2.409   1.280
 6359SOL    HW119409   4.079   2.350   1.352
 6359SOL    HW219410   4.081   2.383   1.192
 6360SOL     OW19411   4.536   3.448   0.687
 6360SOL    HW119412   4.568   3.458   0.593
 6360SOL    HW219413   4.457   3.386   0.689
 6361SOL     OW19414   4.725   1.896   1.154
 6361SOL    HW119415   4.662   1.824   1.123
 6361SOL    HW219416   4.818   1.860   1.154
 6362SOL     OW19417   4.494   3.192   0.301
 6362SOL    HW119418   4.448   3.105   0.318
 6362SOL    HW219419   4.585   3.189   0.342
 6363SOL     OW19420   4.342   3.429   1.284
 6363SOL    HW119421   4.337   3.511   1.341
 6363SOL    HW219422   4.431   3.426   1.239
 6364SOL     OW19423   3.763   2.939   0.300
 6364SOL    HW119424   3.862   2.928   0.291
 6364SOL    HW219425   3.723   2.853   0.332
 6365SOL     OW19426   4.599   3.508   0.337
 6365SOL    HW119427   4.522   3.473   0.283
 6365SOL    HW219428   4.567   3.579   0.399
 6366SOL     OW19429   3.954   2.490   1.975
 6366SOL    HW119430   3.861   2.488   2.012
 6366SOL    HW219431   3.955   2.451   1.883
 6367SOL     OW19432   3.949   2.137   2.858
 6367SOL    HW119433   3.984   2.120   2.950
 6367SOL    HW219434   3.861   2.092   2.846
 6368SOL     OW19435   3.743   2.230   2.509
 6368SOL    HW119436   3.661   2.273   2.548
 6368SOL    HW219437   3.715   2.157   2.446
 6369SOL     OW19438   4.293   3.137   3.027
 6369SOL    HW119439   4.200   3.130   2.990
 6369SOL    HW219440   4.304   3.226   3.071
 6370SOL     OW19441   4.492   3.006   2.885
 6370SOL    HW119442   4.414   3.023   2.945
 6370SOL    HW219443   4.526   3.093   2.849
 6371SOL     OW19444   4.574   2.660   3.685
 6371SOL    HW119445   4.570   2.736   3.750
 6371SOL    HW219446   4.596   2.696   3.594
 6372SOL     OW19447   4.409   2.874   2.527
 6372SOL    HW119448   4.478   2.858   2.597
 6372SOL    HW219449   4.336   2.931   2.565
 6373SOL     OW19450   4.410   3.023   3.665
 6373SOL    HW119451   4.470   3.102   3.679
 6373SOL    HW219452   4.324   3.054   3.624
 6374SOL     OW19453   4.059   3.297   2.923
 6374SOL    HW119454   3.981   3.266   2.870
 6374SOL    HW219455   4.117   3.355   2.866
 6375SOL     OW19456   4.162   2.254   3.361
 6375SOL    HW119457   4.244   2.198   3.370
 6375SOL    HW219458   4.081   2.196   3.365
 6376SOL     OW19459   3.955   3.575   2.345
 6376SOL    HW119460   3.989   3.652   2.399
 6376SOL    HW219461   3.999   3.575   2.255
 6377SOL     OW19462   3.954   3.296   2.400
 6377SOL    HW119463   3.928   3.392   2.400
 6377SOL    HW219464   3.883   3.242   2.445
 6378SOL     OW19465   3.964   2.953   2.748
 6378SOL    HW119466   3.978   2.869   2.800
 6378SOL    HW219467   3.909   3.017   2.803
 6379SOL     OW19468   4.344   3.648   3.301
 6379SOL    HW119469   4.252   3.631   3.336
 6379SOL    HW219470   4.372   3.740   3.327
 6380SOL     OW19471   4.330   2.826   1.985
 6380SOL    HW119472   4.337   2.910   1.931
 6380SOL    HW219473   4.376   2.839   2.073
 6381SOL     OW19474   3.846   2.505   2.425
 6381SOL    HW119475   3.801   2.417   2.442
 6381SOL    HW219476   3.845   2.559   2.509
 6382SOL     OW19477   3.751   3.458   1.979
 6382SOL    HW119478   3.732   3.362   2.000
 6382SOL    HW219479   3.718   3.516   2.054
 6383SOL     OW19480   3.837   2.599   3.459
 6383SOL    HW119481   3.925   2.586   3.504
 6383SOL    HW219482   3.824   2.696   3.437
 6384SOL     OW19483   4.337   3.227   2.588
 6384SOL    HW119484   4.288   3.140   2.597
 6384SOL    HW219485   4.314   3.270   2.501
 6385SOL     OW19486   4.533   1.866   2.364
 6385SOL    HW119487   4.573   1.957   2.355
 6385SOL    HW219488   4.433   1.874   2.370
 6386SOL     OW19489   3.921   2.838   3.126
 6386SOL    HW119490   4.010   2.793   3.112
 6386SOL    HW219491   3.848   2.773   3.107
 6387SOL     OW19492   4.041   2.113   3.663
 6387SOL    HW119493   4.112   2.184   3.669
 6387SOL    HW219494   3.953   2.152   3.691
 6388SOL     OW19495   4.322   2.591   2.132
 6388SOL    HW119496   4.346   2.660   2.064
 6388SOL    HW219497   4.244   2.624   2.186
 6389SOL     OW19498   4.531   2.467   3.327
 6389SOL    HW119499   4.484   2.464   3.416
 6389SOL    HW219500   4.480   2.412   3.261
 6390SOL     OW19501   4.715   2.272   3.104
 6390SOL    HW119502   4.638   2.306   3.158
 6390SOL    HW219503   4.681   2.221   3.025
 6391SOL     OW19504   3.800   2.673   2.651
 6391SOL    HW119505   3.899   2.661   2.660
 6391SOL    HW219506   3.776   2.768   2.672
 6392SOL     OW19507   3.854   3.683   3.433
 6392SOL    HW119508   3.844   3.668   3.532
 6392SOL    HW219509   3.768   3.719   3.397
 6393SOL     OW19510   4.589   2.210   2.057
 6393SOL    HW119511   4.648   2.273   2.008
 6393SOL    HW219512   4.608   2.116   2.028
 6394SOL     OW19513   4.274   2.058   2.747
 6394SOL    HW119514   4.269   2.053   2.847
 6394SOL    HW219515   4.276   2.154   2.718
 6395SOL     OW19516   4.732   3.318   2.339
 6395SOL    HW119517   4.686   3.390   2.287
 6395SOL    HW219518   4.728   3.338   2.437
 6396SOL     OW19519   4.075   3.663   2.715
 6396SOL    HW119520   4.125   3.577   2.721
 6396SOL    HW219521   4.140   3.740   2.712
 6397SOL     OW19522   4.045   2.805   2.104
 6397SOL    HW119523   4.127   2.844   2.062
 6397SOL    HW219524   4.018   2.723   2.055
 6398SOL     OW19525   4.185   3.128   3.589
 6398SOL    HW119526   4.135   3.129   3.503
 6398SOL    HW219527   4.122   3.110   3.665
 6399SOL     OW19528   3.926   2.147   3.360
 6399SOL    HW119529   3.846   2.207   3.347
 6399SOL    HW219530   3.916   2.098   3.446
 6400SOL     OW19531   4.188   3.605   2.185
 6400SOL    HW119532   4.221   3.644   2.271
 6400SOL    HW219533   4.264   3.598   2.120
 6401SOL     OW19534   3.973   3.647   3.103
 6401SOL    HW119535   4.030   3.582   3.153
 6401SOL    HW219536   3.957   3.614   3.010
 6402SOL     OW19537   4.106   2.562   2.342
 6402SOL    HW119538   4.151   2.472   2.339
 6402SOL    HW219539   4.012   2.551   2.375
 6403SOL     OW19540   4.338   1.984   1.979
 6403SOL    HW119541   4.436   1.962   1.986
 6403SOL    HW219542   4.307   1.967   1.886
 6404SOL     OW19543   4.505   2.126   3.611
 6404SOL    HW119544   4.572   2.065   3.654
 6404SOL    HW219545   4.432   2.145   3.676
 6405SOL     OW19546   4.612   3.376   3.057
 6405SOL    HW119547   4.589   3.351   2.963
 6405SOL    HW219548   4.673   3.307   3.096
 6406SOL     OW19549   4.527   3.264   2.786
 6406SOL    HW119550   4.617   3.278   2.744
 6406SOL    HW219551   4.456   3.266   2.715
 6407SOL     OW19552   4.646   2.365   2.761
 6407SOL    HW119553   4.621   2.356   2.665
 6407SOL    HW219554   4.694   2.283   2.792
 6408SOL     OW19555   4.263   1.926   2.374
 6408SOL    HW119556   4.182   1.927   2.432
 6408SOL    HW219557   4.266   2.009   2.319
 6409SOL     OW19558   4.021   1.897   2.033
 6409SOL    HW119559   4.070   1.981   2.012
 6409SOL    HW219560   4.083   1.832   2.078
 6410SOL     OW19561   4.951   3.432   2.655
 6410SOL    HW119562   4.972   3.506   2.590
 6410SOL    HW219563   5.019   3.432   2.728
 6411SOL     OW19564   4.183   3.014   2.603
 6411SOL    HW119565   4.112   2.987   2.668
 6411SOL    HW219566   4.157   2.986   2.510
 6412SOL     OW19567   3.802   2.418   3.248
 6412SOL    HW119568   3.894   2.417   3.207
 6412SOL    HW219569   3.796   2.492   3.315
 6413SOL     OW19570   4.285   2.084   3.009
 6413SOL    HW119571   4.323   2.000   3.046
 6413SOL    HW219572   4.197   2.103   3.053
 6414SOL     OW19573   4.741   1.901   2.615
 6414SOL    HW119574   4.669   1.906   2.546
 6414SOL    HW219575   4.717   1.832   2.684
 6415SOL     OW19576   4.212   3.247   2.036
 6415SOL    HW119577   4.125   3.232   2.083
 6415SOL    HW219578   4.195   3.273   1.941
 6416SOL     OW19579   4.251   2.118   2.190
 6416SOL    HW119580   4.278   2.059   2.115
 6416SOL    HW219581   4.251   2.213   2.159
 6417SOL     OW19582   4.639   1.951   3.264
 6417SOL    HW119583   4.664   1.931   3.169
 6417SOL    HW219584   4.711   2.007   3.306
 6418SOL     OW19585   4.429   2.912   2.230
 6418SOL    HW119586   4.415   2.919   2.329
 6418SOL    HW219587   4.513   2.861   2.212
 6419SOL     OW19588   4.134   2.675   3.113
 6419SOL    HW119589   4.220   2.687   3.163
 6419SOL    HW219590   4.092   2.588   3.140
 6420SOL     OW19591   3.788   3.426   3.193
 6420SOL    HW119592   3.742   3.508   3.159
 6420SOL    HW219593   3.886   3.445   3.202
 6421SOL     OW19594   4.091   2.962   2.363
 6421SOL    HW119595   4.084   3.045   2.307
 6421SOL    HW219596   4.095   2.882   2.303
 6422SOL     OW19597   4.290   2.399   2.727
 6422SOL    HW119598   4.302   2.465   2.653
 6422SOL    HW219599   4.336   2.433   2.810
 6423SOL     OW19600   4.078   3.372   3.191
 6423SOL    HW119601   4.057   3.328   3.104
 6423SOL    HW219602   4.175   3.398   3.194
 6424SOL     OW19603   4.126   2.613   3.460
 6424SOL    HW119604   4.194   2.668   3.413
 6424SOL    HW219605   4.166   2.525   3.487
 6425SOL     OW19606   4.228   1.912   3.602
 6425SOL    HW119607   4.186   1.855   3.532
 6425SOL    HW219608   4.162   1.981   3.634
 6426SOL     OW19609   4.297   2.732   2.891
 6426SOL    HW119610   4.341   2.821   2.882
 6426SOL    HW219611   4.234   2.732   2.968
 6427SOL     OW19612   4.933   2.387   2.137
 6427SOL    HW119613   4.946   2.303   2.191
 6427SOL    HW219614   4.904   2.461   2.197
 6428SOL     OW19615   4.031   2.075   3.093
 6428SOL    HW119616   4.008   2.112   3.183
 6428SOL    HW219617   4.001   1.980   3.087
 6429SOL     OW19618   3.761   3.172   3.144
 6429SOL    HW119619   3.814   3.123   3.212
 6429SOL    HW219620   3.783   3.270   3.149
 6430SOL     OW19621   4.456   2.496   2.926
 6430SOL    HW119622   4.515   2.470   2.850
 6430SOL    HW219623   4.428   2.592   2.915
 6431SOL     OW19624   4.031   1.925   2.480
 6431SOL    HW119625   4.020   2.019   2.513
 6431SOL    HW219626   4.026   1.862   2.557
 6432SOL     OW19627   4.747   2.628   2.828
 6432SOL    HW119628   4.762   2.649   2.924
 6432SOL    HW219629   4.717   2.533   2.819
 6433SOL     OW19630   4.704   3.435   3.562
 6433SOL    HW119631   4.684   3.479   3.474
 6433SOL    HW219632   4.743   3.344   3.546
 6434SOL     OW19633   4.074   2.760   3.666
 6434SOL    HW119634   4.150   2.804   3.714
 6434SOL    HW219635   4.109   2.713   3.584
 6435SOL     OW19636   4.043   2.672   2.811
 6435SOL    HW119637   4.136   2.708   2.816
 6435SOL    HW219638   4.037   2.587   2.863
 6436SOL     OW19639   4.063   2.371   2.868
 6436SOL    HW119640   4.011   2.288   2.851
 6436SOL    HW219641   4.140   2.376   2.804
 6437SOL     OW19642   3.732   3.188   2.062
 6437SOL    HW119643   3.639   3.209   2.031
 6437SOL    HW219644   3.742   3.089   2.075
 6438SOL     OW19645   3.812   3.663   2.789
 6438SOL    HW119646   3.770   3.577   2.762
 6438SOL    HW219647   3.906   3.666   2.755
 6439SOL     OW19648   4.228   3.430   2.772
 6439SOL    HW119649   4.294   3.504   2.781
 6439SOL    HW219650   4.272   3.351   2.730
 6440SOL     OW19651   4.726   2.658   3.100
 6440SOL    HW119652   4.767   2.626   3.186
 6440SOL    HW219653   4.630   2.631   3.097
 6441SOL     OW19654   3.764   2.406   2.976
 6441SOL    HW119655   3.849   2.373   2.935
 6441SOL    HW219656   3.777   2.421   3.074
 6442SOL     OW19657   3.913   2.382   3.584
 6442SOL    HW119658   3.972   2.342   3.514
 6442SOL    HW219659   3.855   2.453   3.543
 6443SOL     OW19660   4.539   2.434   2.187
 6443SOL    HW119661   4.546   2.345   2.141
 6443SOL    HW219662   4.445   2.468   2.179
 6444SOL     OW19663   3.976   3.426   3.606
 6444SOL    HW119664   3.946   3.483   3.682
 6444SOL    HW219665   3.969   3.329   3.632
 6445SOL     OW19666   4.395   2.326   3.131
 6445SOL    HW119667   4.361   2.237   3.101
 6445SOL    HW219668   4.421   2.380   3.051
 6446SOL     OW19669   4.654   3.540   3.327
 6446SOL    HW119670   4.630   3.522   3.232
 6446SOL    HW219671   4.684   3.634   3.337
 6447SOL     OW19672   4.197   2.362   2.053
 6447SOL    HW119673   4.258   2.442   2.057
 6447SOL    HW219674   4.102   2.393   2.060
 6448SOL     OW19675   3.883   2.999   3.328
 6448SOL    HW119676   3.905   2.938   3.404
 6448SOL    HW219677   3.893   2.950   3.242
 6449SOL     OW19678   3.807   3.120   2.884
 6449SOL    HW119679   3.802   3.119   2.984
 6449SOL    HW219680   3.724   3.079   2.846
 6450SOL     OW19681   4.412   3.524   3.578
 6450SOL    HW119682   4.356   3.605   3.587
 6450SOL    HW219683   4.464   3.528   3.492
 6451SOL     OW19684   4.627   1.948   1.995
 6451SOL    HW119685   4.678   1.949   1.909
 6451SOL    HW219686   4.683   1.906   2.066
 6452SOL     OW19687   3.854   3.656   3.713
 6452SOL    HW119688   3.813   3.582   3.766
 6452SOL    HW219689   3.918   3.707   3.771
 6453SOL     OW19690   4.554   3.135   3.284
 6453SOL    HW119691   4.549   3.168   3.379
 6453SOL    HW219692   4.468   3.154   3.238
 6454SOL     OW19693   4.396   3.478   2.016
 6454SOL    HW119694   4.405   3.488   1.917
 6454SOL    HW219695   4.356   3.389   2.037
 6455SOL     OW19696   3.987   2.188   2.582
 6455SOL    HW119697   3.908   2.239   2.548
 6455SOL    HW219698   3.978   2.173   2.680
 6456SOL     OW19699   4.546   2.864   3.234
 6456SOL    HW119700   4.586   2.863   3.142
 6456SOL    HW219701   4.556   2.956   3.274
 6457SOL     OW19702   4.096   3.150   3.352
 6457SOL    HW119703   4.083   3.243   3.318
 6457SOL    HW219704   4.012   3.098   3.339
 6458SOL     OW19705   4.314   3.349   2.353
 6458SOL    HW119706   4.356   3.291   2.283
 6458SOL    HW219707   4.270   3.428   2.309
 6459SOL     OW19708   3.979   3.210   2.152
 6459SOL    HW119709   3.883   3.211   2.125
 6459SOL    HW219710   3.991   3.263   2.236
 6460SOL     OW19711   3.829   2.875   3.588
 6460SOL    HW119712   3.752   2.842   3.642
 6460SOL    HW219713   3.914   2.845   3.630
 6461SOL     OW19714   4.396   2.065   3.351
 6461SOL    HW119715   4.486   2.049   3.311
 6461SOL    HW219716   4.404   2.070   3.450
 6462SOL     OW19717   3.799   2.207   1.895
 6462SOL    HW119718   3.707   2.179   1.866
 6462SOL    HW219719   3.830   2.284   1.839
 6463SOL     OW19720   3.796   2.028   2.180
 6463SOL    HW119721   3.779   2.111   2.126
 6463SOL    HW219722   3.886   1.991   2.158
 6464SOL     OW19723   4.337   2.704   3.293
 6464SOL    HW119724   4.393   2.785   3.276
 6464SOL    HW219725   4.396   2.624   3.296
 6465SOL     OW19726   4.440   2.427   3.570
 6465SOL    HW119727   4.459   2.492   3.644
 6465SOL    HW219728   4.500   2.347   3.579
 6466SOL     OW19729   4.114   3.603   3.422
 6466SOL    HW119730   4.023   3.644   3.420
 6466SOL    HW219731   4.107   3.509   3.454
 6467SOL     OW19732   4.949   2.187   2.311
 6467SOL    HW119733   5.014   2.113   2.300
 6467SOL    HW219734   4.969   2.237   2.395
 6468SOL     OW19735   4.318   2.607   2.514
 6468SOL    HW119736   4.368   2.692   2.495
 6468SOL    HW219737   4.230   2.609   2.466
 6469SOL     OW19738   4.583   3.236   1.878
 6469SOL    HW119739   4.537   3.251   1.966
 6469SOL    HW219740   4.627   3.321   1.848
 6470SOL     OW19741   4.385   3.652   2.815
 6470SOL    HW119742   4.339   3.740   2.802
 6470SOL    HW219743   4.484   3.664   2.808
 6471SOL     OW19744   4.583   2.818   2.723
 6471SOL    HW119745   4.637   2.749   2.771
 6471SOL    HW219746   4.551   2.887   2.789
 6472SOL     OW19747   3.945   3.176   3.706
 6472SOL    HW119748   3.880   3.103   3.685
 6472SOL    HW219749   3.949   3.190   3.804
 6473SOL     OW19750   3.803   3.102   2.515
 6473SOL    HW119751   3.802   3.055   2.603
 6473SOL    HW219752   3.885   3.074   2.464
 6474SOL     OW19753   4.396   3.253   3.486
 6474SOL    HW119754   4.318   3.203   3.524
 6474SOL    HW219755   4.393   3.348   3.517
 6475SOL     OW19756   4.152   2.286   2.382
 6475SOL    HW119757   4.182   2.214   2.320
 6475SOL    HW219758   4.113   2.246   2.465
 6476SOL     OW19759   4.041   2.409   3.142
 6476SOL    HW119760   4.079   2.350   3.214
 6476SOL    HW219761   4.081   2.383   3.054
 6477SOL     OW19762   4.536   3.448   2.549
 6477SOL    HW119763   4.568   3.458   2.455
 6477SOL    HW219764   4.457   3.386   2.551
 6478SOL     OW19765   4.725   1.896   3.016
 6478SOL    HW119766   4.662   1.824   2.985
 6478SOL    HW219767   4.818   1.860   3.016
 6479SOL     OW19768   4.494   3.192   2.163
 6479SOL    HW119769   4.448   3.105   2.180
 6479SOL    HW219770   4.585   3.189   2.204
 6480SOL     OW19771   4.342   3.429   3.146
 6480SOL    HW119772   4.337   3.511   3.203
 6480SOL    HW219773   4.431   3.426   3.101
 6481SOL     OW19774   3.763   2.939   2.162
 6481SOL    HW119775   3.862   2.928   2.153
 6481SOL    HW219776   3.723   2.853   2.194
 6482SOL     OW19777   4.599   3.508   2.199
 6482SOL    HW119778   4.522   3.473   2.145
 6482SOL    HW219779   4.567   3.579   2.261
 6483SOL     OW19780   3.954   2.490   3.837
 6483SOL    HW119781   3.861   2.488   3.874
 6483SOL    HW219782   3.955   2.451   3.745
 6484SOL     OW19783   3.949   2.137   4.720
 6484SOL    HW119784   3.984   2.120   4.812
 6484SOL    HW219785   3.861   2.092   4.708
 6485SOL     OW19786   3.743   2.230   4.371
 6485SOL    HW119787   3.661   2.273   4.410
 6485SOL    HW219788   3.715   2.157   4.308
 6486SOL     OW19789   4.293   3.137   4.889
 6486SOL    HW119790   4.200   3.130   4.852
 6486SOL    HW219791   4.304   3.226   4.933
 6487SOL     OW19792   4.492   3.006   4.747
 6487SOL    HW119793   4.414   3.023   4.807
 6487SOL    HW219794   4.526   3.093   4.711
 6488SOL     OW19795   4.574   2.660   5.547
 6488SOL    HW119796   4.570   2.736   5.612
 6488SOL    HW219797   4.596   2.696   5.456
 6489SOL     OW19798   4.409   2.874   4.389
 6489SOL    HW119799   4.478   2.858   4.459
 6489SOL    HW219800   4.336   2.931   4.427
 6490SOL     OW19801   4.410   3.023   5.527
 6490SOL    HW119802   4.470   3.102   5.541
 6490SOL    HW219803   4.324   3.054   5.486
 6491SOL     OW19804   4.059   3.297   4.785
 6491SOL    HW119805   3.981   3.266   4.732
 6491SOL    HW219806   4.117   3.355   4.728
 6492SOL     OW19807   4.162   2.254   5.223
 6492SOL    HW119808   4.244   2.198   5.232
 6492SOL    HW219809   4.081   2.196   5.227
 6493SOL     OW19810   3.955   3.575   4.207
 6493SOL    HW119811   3.989   3.652   4.261
 6493SOL    HW219812   3.999   3.575   4.117
 6494SOL     OW19813   3.954   3.296   4.262
 6494SOL    HW119814   3.928   3.392   4.262
 6494SOL    HW219815   3.883   3.242   4.307
 6495SOL     OW19816   3.964   2.953   4.610
 6495SOL    HW119817   3.978   2.869   4.662
 6495SOL    HW219818   3.909   3.017   4.665
 6496SOL     OW19819   4.344   3.648   5.163
 6496SOL    HW119820   4.252   3.631   5.198
 6496SOL    HW219821   4.372   3.740   5.189
 6497SOL     OW19822   4.330   2.826   3.847
 6497SOL    HW119823   4.337   2.910   3.793
 6497SOL    HW219824   4.376   2.839   3.935
 6498SOL     OW19825   3.846   2.505   4.287
 6498SOL    HW119826   3.801   2.417   4.304
 6498SOL    HW219827   3.845   2.559   4.371
 6499SOL     OW19828   3.751   3.458   3.841
 6499SOL    HW119829   3.732   3.362   3.862
 6499SOL    HW219830   3.718   3.516   3.916
 6500SOL     OW19831   3.837   2.599   5.321
 6500SOL    HW119832   3.925   2.586   5.366
 6500SOL    HW219833   3.824   2.696   5.299
 6501SOL     OW19834   4.337   3.227   4.450
 6501SOL    HW119835   4.288   3.140   4.459
 6501SOL    HW219836   4.314   3.270   4.363
 6502SOL     OW19837   4.533   1.866   4.226
 6502SOL    HW119838   4.573   1.957   4.217
 6502SOL    HW219839   4.433   1.874   4.232
 6503SOL     OW19840   3.921   2.838   4.988
 6503SOL    HW119841   4.010   2.793   4.974
 6503SOL    HW219842   3.848   2.773   4.969
 6504SOL     OW19843   4.041   2.113   5.525
 6504SOL    HW119844   4.112   2.184   5.531
 6504SOL    HW219845   3.953   2.152   5.553
 6505SOL     OW19846   4.322   2.591   3.994
 6505SOL    HW119847   4.346   2.660   3.926
 6505SOL    HW219848   4.244   2.624   4.048
 6506SOL     OW19849   4.531   2.467   5.189
 6506SOL    HW119850   4.484   2.464   5.278
 6506SOL    HW219851   4.480   2.412   5.123
 6507SOL     OW19852   4.715   2.272   4.966
 6507SOL    HW119853   4.638   2.306   5.020
 6507SOL    HW219854   4.681   2.221   4.887
 6508SOL     OW19855   3.800   2.673   4.513
 6508SOL    HW119856   3.899   2.661   4.522
 6508SOL    HW219857   3.776   2.768   4.534
 6509SOL     OW19858   3.854   3.683   5.295
 6509SOL    HW119859   3.844   3.668   5.394
 6509SOL    HW219860   3.768   3.719   5.259
 6510SOL     OW19861   4.589   2.210   3.919
 6510SOL    HW119862   4.648   2.273   3.870
 6510SOL    HW219863   4.608   2.116   3.890
 6511SOL     OW19864   4.274   2.058   4.609
 6511SOL    HW119865   4.269   2.053   4.709
 6511SOL    HW219866   4.276   2.154   4.580
 6512SOL     OW19867   4.732   3.318   4.201
 6512SOL    HW119868   4.686   3.390   4.149
 6512SOL    HW219869   4.728   3.338   4.299
 6513SOL     OW19870   4.075   3.663   4.577
 6513SOL    HW119871   4.125   3.577   4.583
 6513SOL    HW219872   4.140   3.740   4.574
 6514SOL     OW19873   4.045   2.805   3.966
 6514SOL    HW119874   4.127   2.844   3.924
 6514SOL    HW219875   4.018   2.723   3.917
 6515SOL     OW19876   4.185   3.128   5.451
 6515SOL    HW119877   4.135   3.129   5.365
 6515SOL    HW219878   4.122   3.110   5.527
 6516SOL     OW19879   3.926   2.147   5.222
 6516SOL    HW119880   3.846   2.207   5.209
 6516SOL    HW219881   3.916   2.098   5.308
 6517SOL     OW19882   4.188   3.605   4.047
 6517SOL    HW119883   4.221   3.644   4.133
 6517SOL    HW219884   4.264   3.598   3.982
 6518SOL     OW19885   3.973   3.647   4.965
 6518SOL    HW119886   4.030   3.582   5.015
 6518SOL    HW219887   3.957   3.614   4.872
 6519SOL     OW19888   4.106   2.562   4.204
 6519SOL    HW119889   4.151   2.472   4.201
 6519SOL    HW219890   4.012   2.551   4.237
 6520SOL     OW19891   4.338   1.984   3.841
 6520SOL    HW119892   4.436   1.962   3.848
 6520SOL    HW219893   4.307   1.967   3.748
 6521SOL     OW19894   4.505   2.126   5.473
 6521SOL    HW119895   4.572   2.065   5.516
 6521SOL    HW219896   4.432   2.145   5.538
 6522SOL     OW19897   4.612   3.376   4.919
 6522SOL    HW119898   4.589   3.351   4.825
 6522SOL    HW219899   4.673   3.307   4.958
 6523SOL     OW19900   4.527   3.264   4.648
 6523SOL    HW119901   4.617   3.278   4.606
 6523SOL    HW219902   4.456   3.266   4.577
 6524SOL     OW19903   4.646   2.365   4.623
 6524SOL    HW119904   4.621   2.356   4.527
 6524SOL    HW219905   4.694   2.283   4.654
 6525SOL     OW19906   4.263   1.926   4.236
 6525SOL    HW119907   4.182   1.927   4.294
 6525SOL    HW219908   4.266   2.009   4.181
 6526SOL     OW19909   4.021   1.897   3.895
 6526SOL    HW119910   4.070   1.981   3.874
 6526SOL    HW219911   4.083   1.832   3.940
 6527SOL     OW19912   4.951   3.432   4.517
 6527SOL    HW119913   4.972   3.506   4.452
 6527SOL    HW219914   5.019   3.432   4.590
 6528SOL     OW19915   4.183   3.014   4.465
 6528SOL    HW119916   4.112   2.987   4.530
 6528SOL    HW219917   4.157   2.986   4.372
 6529SOL     OW19918   3.802   2.418   5.110
 6529SOL    HW119919   3.894   2.417   5.069
 6529SOL    HW219920   3.796   2.492   5.177
 6530SOL     OW19921   4.285   2.084   4.871
 6530SOL    HW119922   4.323   2.000   4.908
 6530SOL    HW219923   4.197   2.103   4.915
 6531SOL     OW19924   4.741   1.901   4.477
 6531SOL    HW119925   4.669   1.906   4.408
 6531SOL    HW219926   4.717   1.832   4.546
 6532SOL     OW19927   4.212   3.247   3.898
 6532SOL    HW119928   4.125   3.232   3.945
 6532SOL    HW219929   4.195   3.273   3.803
 6533SOL     OW19930   4.251   2.118   4.052
 6533SOL    HW119931   4.278   2.059   3.977
 6533SOL    HW219932   4.251   2.213   4.021
 6534SOL     OW19933   4.639   1.951   5.126
 6534SOL    HW119934   4.664   1.931   5.031
 6534SOL    HW219935   4.711   2.007   5.168
 6535SOL     OW19936   4.429   2.912   4.092
 6535SOL    HW119937   4.415   2.919   4.191
 6535SOL    HW219938   4.513   2.861   4.074
 6536SOL     OW19939   4.134   2.675   4.975
 6536SOL    HW119940   4.220   2.687   5.025
 6536SOL    HW219941   4.092   2.588   5.002
 6537SOL     OW19942   3.788   3.426   5.055
 6537SOL    HW119943   3.742   3.508   5.021
 6537SOL    HW219944   3.886   3.445   5.064
 6538SOL     OW19945   4.091   2.962   4.225
 6538SOL    HW119946   4.084   3.045   4.169
 6538SOL    HW219947   4.095   2.882   4.165
 6539SOL     OW19948   4.290   2.399   4.589
 6539SOL    HW119949   4.302   2.465   4.515
 6539SOL    HW219950   4.336   2.433   4.672
 6540SOL     OW19951   4.078   3.372   5.053
 6540SOL    HW119952   4.057   3.328   4.966
 6540SOL    HW219953   4.175   3.398   5.056
 6541SOL     OW19954   4.126   2.613   5.322
 6541SOL    HW119955   4.194   2.668   5.275
 6541SOL    HW219956   4.166   2.525   5.349
 6542SOL     OW19957   4.228   1.912   5.464
 6542SOL    HW119958   4.186   1.855   5.394
 6542SOL    HW219959   4.162   1.981   5.496
 6543SOL     OW19960   4.297   2.732   4.753
 6543SOL    HW119961   4.341   2.821   4.744
 6543SOL    HW219962   4.234   2.732   4.830
 6544SOL     OW19963   4.933   2.387   3.999
 6544SOL    HW119964   4.946   2.303   4.053
 6544SOL    HW219965   4.904   2.461   4.059
 6545SOL     OW19966   4.031   2.075   4.955
 6545SOL    HW119967   4.008   2.112   5.045
 6545SOL    HW219968   4.001   1.980   4.949
 6546SOL     OW19969   3.761   3.172   5.006
 6546SOL    HW119970   3.814   3.123   5.074
 6546SOL    HW219971   3.783   3.270   5.011
 6547SOL     OW19972   4.456   2.496   4.788
 6547SOL    HW119973   4.515   2.470   4.712
 6547SOL    HW219974   4.428   2.592   4.777
 6548SOL     OW19975   4.031   1.925   4.342
 6548SOL    HW119976   4.020   2.019   4.375
 6548SOL    HW219977   4.026   1.862   4.419
 6549SOL     OW19978   4.747   2.628   4.690
 6549SOL    HW119979   4.762   2.649   4.786
 6549SOL    HW219980   4.717   2.533   4.681
 6550SOL     OW19981   4.704   3.435   5.424
 6550SOL    HW119982   4.684   3.479   5.336
 6550SOL    HW219983   4.743   3.344   5.408
 6551SOL     OW19984   4.074   2.760   5.528
 6551SOL    HW119985   4.150   2.804   5.576
 6551SOL    HW219986   4.109   2.713   5.446
 6552SOL     OW19987   4.043   2.672   4.673
 6552SOL    HW119988   4.136   2.708   4.678
 6552SOL    HW219989   4.037   2.587   4.725
 6553SOL     OW19990   4.063   2.371   4.730
 6553SOL    HW119991   4.011   2.288   4.713
 6553SOL    HW219992   4.140   2.376   4.666
 6554SOL     OW19993   3.732   3.188   3.924
 6554SOL    HW119994   3.639   3.209   3.893
 6554SOL    HW219995   3.742   3.089   3.937
 6555SOL     OW19996   3.812   3.663   4.651
 6555SOL    HW119997   3.770   3.577   4.624
 6555SOL    HW219998   3.906   3.666   4.617
 6556SOL     OW19999   4.228   3.430   4.634
 6556SOL    HW120000   4.294   3.504   4.643
 6556SOL    HW220001   4.272   3.351   4.592
 6557SOL     OW20002   4.726   2.658   4.962
 6557SOL    HW120003   4.767   2.626   5.048
 6557SOL    HW220004   4.630   2.631   4.959
 6558SOL     OW20005   3.764   2.406   4.838
 6558SOL    HW120006   3.849   2.373   4.797
 6558SOL    HW220007   3.777   2.421   4.936
 6559SOL     OW20008   3.913   2.382   5.446
 6559SOL    HW120009   3.972   2.342   5.376
 6559SOL    HW220010   3.855   2.453   5.405
 6560SOL     OW20011   4.539   2.434   4.049
 6560SOL    HW120012   4.546   2.345   4.003
 6560SOL    HW220013   4.445   2.468   4.041
 6561SOL     OW20014   3.976   3.426   5.468
 6561SOL    HW120015   3.946   3.483   5.544
 6561SOL    HW220016   3.969   3.329   5.494
 6562SOL     OW20017   4.395   2.326   4.993
 6562SOL    HW120018   4.361   2.237   4.963
 6562SOL    HW220019   4.421   2.380   4.913
 6563SOL     OW20020   4.654   3.540   5.189
 6563SOL    HW120021   4.630   3.522   5.094
 6563SOL    HW220022   4.684   3.634   5.199
 6564SOL     OW20023   4.197   2.362   3.915
 6564SOL    HW120024   4.258   2.442   3.919
 6564SOL    HW220025   4.102   2.393   3.922
 6565SOL     OW20026   3.883   2.999   5.190
 6565SOL    HW120027   3.905   2.938   5.266
 6565SOL    HW220028   3.893   2.950   5.104
 6566SOL     OW20029   3.807   3.120   4.746
 6566SOL    HW120030   3.802   3.119   4.846
 6566SOL    HW220031   3.724   3.079   4.708
 6567SOL     OW20032   4.412   3.524   5.440
 6567SOL    HW120033   4.356   3.605   5.449
 6567SOL    HW220034   4.464   3.528   5.354
 6568SOL     OW20035   4.627   1.948   3.857
 6568SOL    HW120036   4.678   1.949   3.771
 6568SOL    HW220037   4.683   1.906   3.928
 6569SOL     OW20038   3.854   3.656   5.575
 6569SOL    HW120039   3.813   3.582   5.628
 6569SOL    HW220040   3.918   3.707   5.633
 6570SOL     OW20041   4.554   3.135   5.146
 6570SOL    HW120042   4.549   3.168   5.241
 6570SOL    HW220043   4.468   3.154   5.100
 6571SOL     OW20044   4.396   3.478   3.878
 6571SOL    HW120045   4.405   3.488   3.779
 6571SOL    HW220046   4.356   3.389   3.899
 6572SOL     OW20047   3.987   2.188   4.444
 6572SOL    HW120048   3.908   2.239   4.410
 6572SOL    HW220049   3.978   2.173   4.542
 6573SOL     OW20050   4.546   2.864   5.096
 6573SOL    HW120051   4.586   2.863   5.004
 6573SOL    HW220052   4.556   2.956   5.136
 6574SOL     OW20053   4.096   3.150   5.214
 6574SOL    HW120054   4.083   3.243   5.180
 6574SOL    HW220055   4.012   3.098   5.201
 6575SOL     OW20056   4.314   3.349   4.215
 6575SOL    HW120057   4.356   3.291   4.145
 6575SOL    HW220058   4.270   3.428   4.171
 6576SOL     OW20059   3.979   3.210   4.014
 6576SOL    HW120060   3.883   3.211   3.987
 6576SOL    HW220061   3.991   3.263   4.098
 6577SOL     OW20062   3.829   2.875   5.450
 6577SOL    HW120063   3.752   2.842   5.504
 6577SOL    HW220064   3.914   2.845   5.492
 6578SOL     OW20065   4.396   2.065   5.213
 6578SOL    HW120066   4.486   2.049   5.173
 6578SOL    HW220067   4.404   2.070   5.312
 6579SOL     OW20068   3.799   2.207   3.757
 6579SOL    HW120069   3.707   2.179   3.728
 6579SOL    HW220070   3.830   2.284   3.701
 6580SOL     OW20071   3.796   2.028   4.042
 6580SOL    HW120072   3.779   2.111   3.988
 6580SOL    HW220073   3.886   1.991   4.020
 6581SOL     OW20074   4.337   2.704   5.155
 6581SOL    HW120075   4.393   2.785   5.138
 6581SOL    HW220076   4.396   2.624   5.158
 6582SOL     OW20077   4.440   2.427   5.432
 6582SOL    HW120078   4.459   2.492   5.506
 6582SOL    HW220079   4.500   2.347   5.441
 6583SOL     OW20080   4.114   3.603   5.284
 6583SOL    HW120081   4.023   3.644   5.282
 6583SOL    HW220082   4.107   3.509   5.316
 6584SOL     OW20083   4.949   2.187   4.173
 6584SOL    HW120084   5.014   2.113   4.162
 6584SOL    HW220085   4.969   2.237   4.257
 6585SOL     OW20086   4.318   2.607   4.376
 6585SOL    HW120087   4.368   2.692   4.357
 6585SOL    HW220088   4.230   2.609   4.328
 6586SOL     OW20089   4.583   3.236   3.740
 6586SOL    HW120090   4.537   3.251   3.828
 6586SOL    HW220091   4.627   3.321   3.710
 6587SOL     OW20092   4.385   3.652   4.677
 6587SOL    HW120093   4.339   3.740   4.664
 6587SOL    HW220094   4.484   3.664   4.670
 6588SOL     OW20095   4.583   2.818   4.585
 6588SOL    HW120096   4.637   2.749   4.633
 6588SOL    HW220097   4.551   2.887   4.651
 6589SOL     OW20098   3.945   3.176   5.568
 6589SOL    HW120099   3.880   3.103   5.547
 6589SOL    HW220100   3.949   3.190   5.666
 6590SOL     OW20101   3.803   3.102   4.377
 6590SOL    HW120102   3.802   3.055   4.465
 6590SOL    HW220103   3.885   3.074   4.326
 6591SOL     OW20104   4.396   3.253   5.348
 6591SOL    HW120105   4.318   3.203   5.386
 6591SOL    HW220106   4.393   3.348   5.379
 6592SOL     OW20107   4.152   2.286   4.244
 6592SOL    HW120108   4.182   2.214   4.182
 6592SOL    HW220109   4.113   2.246   4.327
 6593SOL     OW20110   4.041   2.409   5.004
 6593SOL    HW120111   4.079   2.350   5.076
 6593SOL    HW220112   4.081   2.383   4.916
 6594SOL     OW20113   4.536   3.448   4.411
 6594SOL    HW120114   4.568   3.458   4.317
 6594SOL    HW220115   4.457   3.386   4.413
 6595SOL     OW20116   4.725   1.896   4.878
 6595SOL    HW120117   4.662   1.824   4.847
 6595SOL    HW220118   4.818   1.860   4.878
 6596SOL     OW20119   4.494   3.192   4.025
 6596SOL    HW120120   4.448   3.105   4.042
 6596SOL    HW220121   4.585   3.189   4.066
 6597SOL     OW20122   4.342   3.429   5.008
 6597SOL    HW120123   4.337   3.511   5.065
 6597SOL    HW220124   4.431   3.426   4.963
 6598SOL     OW20125   3.763   2.939   4.024
 6598SOL    HW120126   3.862   2.928   4.015
 6598SOL    HW220127   3.723   2.853   4.056
 6599SOL     OW20128   4.599   3.508   4.061
 6599SOL    HW120129   4.522   3.473   4.007
 6599SOL    HW220130   4.567   3.579   4.123
 6600SOL     OW20131   3.954   2.490   5.699
 6600SOL    HW120132   3.861   2.488   5.736
 6600SOL    HW220133   3.955   2.451   5.607
 6601SOL     OW20134   3.949   2.137   6.582
 6601SOL    HW120135   3.984   2.120   6.674
 6601SOL    HW220136   3.861   2.092   6.570
 6602SOL     OW20137   3.743   2.230   6.233
 6602SOL    HW120138   3.661   2.273   6.272
 6602SOL    HW220139   3.715   2.157   6.170
 6603SOL     OW20140   4.293   3.137   6.751
 6603SOL    HW120141   4.200   3.130   6.714
 6603SOL    HW220142   4.304   3.226   6.795
 6604SOL     OW20143   4.492   3.006   6.609
 6604SOL    HW120144   4.414   3.023   6.669
 6604SOL    HW220145   4.526   3.093   6.573
 6605SOL     OW20146   4.574   2.660   7.409
 6605SOL    HW120147   4.570   2.736   7.474
 6605SOL    HW220148   4.596   2.696   7.318
 6606SOL     OW20149   4.409   2.874   6.251
 6606SOL    HW120150   4.478   2.858   6.321
 6606SOL    HW220151   4.336   2.931   6.289
 6607SOL     OW20152   4.410   3.023   7.389
 6607SOL    HW120153   4.470   3.102   7.403
 6607SOL    HW220154   4.324   3.054   7.348
 6608SOL     OW20155   4.059   3.297   6.647
 6608SOL    HW120156   3.981   3.266   6.594
 6608SOL    HW220157   4.117   3.355   6.590
 6609SOL     OW20158   4.162   2.254   7.085
 6609SOL    HW120159   4.244   2.198   7.094
 6609SOL    HW220160   4.081   2.196   7.089
 6610SOL     OW20161   3.955   3.575   6.069
 6610SOL    HW120162   3.989   3.652   6.123
 6610SOL    HW220163   3.999   3.575   5.979
 6611SOL     OW20164   3.954   3.296   6.124
 6611SOL    HW120165   3.928   3.392   6.124
 6611SOL    HW220166   3.883   3.242   6.169
 6612SOL     OW20167   3.964   2.953   6.472
 6612SOL    HW120168   3.978   2.869   6.524
 6612SOL    HW220169   3.909   3.017   6.527
 6613SOL     OW20170   4.344   3.648   7.025
 6613SOL    HW120171   4.252   3.631   7.060
 6613SOL    HW220172   4.372   3.740   7.051
 6614SOL     OW20173   4.330   2.826   5.709
 6614SOL    HW120174   4.337   2.910   5.655
 6614SOL    HW220175   4.376   2.839   5.797
 6615SOL     OW20176   3.846   2.505   6.149
 6615SOL    HW120177   3.801   2.417   6.166
 6615SOL    HW220178   3.845   2.559   6.233
 6616SOL     OW20179   3.751   3.458   5.703
 6616SOL    HW120180   3.732   3.362   5.724
 6616SOL    HW220181   3.718   3.516   5.778
 6617SOL     OW20182   3.837   2.599   7.183
 6617SOL    HW120183   3.925   2.586   7.228
 6617SOL    HW220184   3.824   2.696   7.161
 6618SOL     OW20185   4.337   3.227   6.312
 6618SOL    HW120186   4.288   3.140   6.321
 6618SOL    HW220187   4.314   3.270   6.225
 6619SOL     OW20188   4.533   1.866   6.088
 6619SOL    HW120189   4.573   1.957   6.079
 6619SOL    HW220190   4.433   1.874   6.094
 6620SOL     OW20191   3.921   2.838   6.850
 6620SOL    HW120192   4.010   2.793   6.836
 6620SOL    HW220193   3.848   2.773   6.831
 6621SOL     OW20194   4.041   2.113   7.387
 6621SOL    HW120195   4.112   2.184   7.393
 6621SOL    HW220196   3.953   2.152   7.415
 6622SOL     OW20197   4.322   2.591   5.856
 6622SOL    HW120198   4.346   2.660   5.788
 6622SOL    HW220199   4.244   2.624   5.910
 6623SOL     OW20200   4.531   2.467   7.051
 6623SOL    HW120201   4.484   2.464   7.140
 6623SOL    HW220202   4.480   2.412   6.985
 6624SOL     OW20203   4.715   2.272   6.828
 6624SOL    HW120204   4.638   2.306   6.882
 6624SOL    HW220205   4.681   2.221   6.749
 6625SOL     OW20206   3.800   2.673   6.375
 6625SOL    HW120207   3.899   2.661   6.384
 6625SOL    HW220208   3.776   2.768   6.396
 6626SOL     OW20209   3.854   3.683   7.157
 6626SOL    HW120210   3.844   3.668   7.256
 6626SOL    HW220211   3.768   3.719   7.121
 6627SOL     OW20212   4.589   2.210   5.781
 6627SOL    HW120213   4.648   2.273   5.732
 6627SOL    HW220214   4.608   2.116   5.752
 6628SOL     OW20215   4.274   2.058   6.471
 6628SOL    HW120216   4.269   2.053   6.571
 6628SOL    HW220217   4.276   2.154   6.442
 6629SOL     OW20218   4.732   3.318   6.063
 6629SOL    HW120219   4.686   3.390   6.011
 6629SOL    HW220220   4.728   3.338   6.161
 6630SOL     OW20221   4.075   3.663   6.439
 6630SOL    HW120222   4.125   3.577   6.445
 6630SOL    HW220223   4.140   3.740   6.436
 6631SOL     OW20224   4.045   2.805   5.828
 6631SOL    HW120225   4.127   2.844   5.786
 6631SOL    HW220226   4.018   2.723   5.779
 6632SOL     OW20227   4.185   3.128   7.313
 6632SOL    HW120228   4.135   3.129   7.227
 6632SOL    HW220229   4.122   3.110   7.389
 6633SOL     OW20230   3.926   2.147   7.084
 6633SOL    HW120231   3.846   2.207   7.071
 6633SOL    HW220232   3.916   2.098   7.170
 6634SOL     OW20233   4.188   3.605   5.909
 6634SOL    HW120234   4.221   3.644   5.995
 6634SOL    HW220235   4.264   3.598   5.844
 6635SOL     OW20236   3.973   3.647   6.827
 6635SOL    HW120237   4.030   3.582   6.877
 6635SOL    HW220238   3.957   3.614   6.734
 6636SOL     OW20239   4.106   2.562   6.066
 6636SOL    HW120240   4.151   2.472   6.063
 6636SOL    HW220241   4.012   2.551   6.099
 6637SOL     OW20242   4.338   1.984   5.703
 6637SOL    HW120243   4.436   1.962   5.710
 6637SOL    HW220244   4.307   1.967   5.610
 6638SOL     OW20245   4.505   2.126   7.335
 6638SOL    HW120246   4.572   2.065   7.378
 6638SOL    HW220247   4.432   2.145   7.400
 6639SOL     OW20248   4.612   3.376   6.781
 6639SOL    HW120249   4.589   3.351   6.687
 6639SOL    HW220250   4.673   3.307   6.820
 6640SOL     OW20251   4.527   3.264   6.510
 6640SOL    HW120252   4.617   3.278   6.468
 6640SOL    HW220253   4.456   3.266   6.439
 6641SOL     OW20254   4.646   2.365   6.485
 6641SOL    HW120255   4.621   2.356   6.389
 6641SOL    HW220256   4.694   2.283   6.516
 6642SOL     OW20257   4.263   1.926   6.098
 6642SOL    HW120258   4.182   1.927   6.156
 6642SOL    HW220259   4.266   2.009   6.043
 6643SOL     OW20260   4.021   1.897   5.757
 6643SOL    HW120261   4.070   1.981   5.736
 6643SOL    HW220262   4.083   1.832   5.802
 6644SOL     OW20263   4.951   3.432   6.379
 6644SOL    HW120264   4.972   3.506   6.314
 6644SOL    HW220265   5.019   3.432   6.452
 6645SOL     OW20266   4.183   3.014   6.327
 6645SOL    HW120267   4.112   2.987   6.392
 6645SOL    HW220268   4.157   2.986   6.234
 6646SOL     OW20269   3.802   2.418   6.972
 6646SOL    HW120270   3.894   2.417   6.931
 6646SOL    HW220271   3.796   2.492   7.039
 6647SOL     OW20272   4.285   2.084   6.733
 6647SOL    HW120273   4.323   2.000   6.770
 6647SOL    HW220274   4.197   2.103   6.777
 6648SOL     OW20275   4.741   1.901   6.339
 6648SOL    HW120276   4.669   1.906   6.270
 6648SOL    HW220277   4.717   1.832   6.408
 6649SOL     OW20278   4.212   3.247   5.760
 6649SOL    HW120279   4.125   3.232   5.807
 6649SOL    HW220280   4.195   3.273   5.665
 6650SOL     OW20281   4.251   2.118   5.914
 6650SOL    HW120282   4.278   2.059   5.839
 6650SOL    HW220283   4.251   2.213   5.883
 6651SOL     OW20284   4.639   1.951   6.988
 6651SOL    HW120285   4.664   1.931   6.893
 6651SOL    HW220286   4.711   2.007   7.030
 6652SOL     OW20287   4.429   2.912   5.954
 6652SOL    HW120288   4.415   2.919   6.053
 6652SOL    HW220289   4.513   2.861   5.936
 6653SOL     OW20290   4.134   2.675   6.837
 6653SOL    HW120291   4.220   2.687   6.887
 6653SOL    HW220292   4.092   2.588   6.864
 6654SOL     OW20293   3.788   3.426   6.917
 6654SOL    HW120294   3.742   3.508   6.883
 6654SOL    HW220295   3.886   3.445   6.926
 6655SOL     OW20296   4.091   2.962   6.087
 6655SOL    HW120297   4.084   3.045   6.031
 6655SOL    HW220298   4.095   2.882   6.027
 6656SOL     OW20299   4.290   2.399   6.451
 6656SOL    HW120300   4.302   2.465   6.377
 6656SOL    HW220301   4.336   2.433   6.534
 6657SOL     OW20302   4.078   3.372   6.915
 6657SOL    HW120303   4.057   3.328   6.828
 6657SOL    HW220304   4.175   3.398   6.918
 6658SOL     OW20305   4.126   2.613   7.184
 6658SOL    HW120306   4.194   2.668   7.137
 6658SOL    HW220307   4.166   2.525   7.211
 6659SOL     OW20308   4.228   1.912   7.326
 6659SOL    HW120309   4.186   1.855   7.256
 6659SOL    HW220310   4.162   1.981   7.358
 6660SOL     OW20311   4.297   2.732   6.615
 6660SOL    HW120312   4.341   2.821   6.606
 6660SOL    HW220313   4.234   2.732   6.692
 6661SOL     OW20314   4.933   2.387   5.861
 6661SOL    HW120315   4.946   2.303   5.915
 6661SOL    HW220316   4.904   2.461   5.921
 6662SOL     OW20317   4.031   2.075   6.817
 6662SOL    HW120318   4.008   2.112   6.907
 6662SOL    HW220319   4.001   1.980   6.811
 6663SOL     OW20320   3.761   3.172   6.868
 6663SOL    HW120321   3.814   3.123   6.936
 6663SOL    HW220322   3.783   3.270   6.873
 6664SOL     OW20323   4.456   2.496   6.650
 6664SOL    HW120324   4.515   2.470   6.574
 6664SOL    HW220325   4.428   2.592   6.639
 6665SOL     OW20326   4.031   1.925   6.204
 6665SOL    HW120327   4.020   2.019   6.237
 6665SOL    HW220328   4.026   1.862   6.281
 6666SOL     OW20329   4.747   2.628   6.552
 6666SOL    HW120330   4.762   2.649   6.648
 6666SOL    HW220331   4.717   2.533   6.543
 6667SOL     OW20332   4.704   3.435   7.286
 6667SOL    HW120333   4.684   3.479   7.198
 6667SOL    HW220334   4.743   3.344   7.270
 6668SOL     OW20335   4.074   2.760   7.390
 6668SOL    HW120336   4.150   2.804   7.438
 6668SOL    HW220337   4.109   2.713   7.308
 6669SOL     OW20338   4.043   2.672   6.535
 6669SOL    HW120339   4.136   2.708   6.540
 6669SOL    HW220340   4.037   2.587   6.587
 6670SOL     OW20341   4.063   2.371   6.592
 6670SOL    HW120342   4.011   2.288   6.575
 6670SOL    HW220343   4.140   2.376   6.528
 6671SOL     OW20344   3.732   3.188   5.786
 6671SOL    HW120345   3.639   3.209   5.755
 6671SOL    HW220346   3.742   3.089   5.799
 6672SOL     OW20347   3.812   3.663   6.513
 6672SOL    HW120348   3.770   3.577   6.486
 6672SOL    HW220349   3.906   3.666   6.479
 6673SOL     OW20350   4.228   3.430   6.496
 6673SOL    HW120351   4.294   3.504   6.505
 6673SOL    HW220352   4.272   3.351   6.454
 6674SOL     OW20353   4.726   2.658   6.824
 6674SOL    HW120354   4.767   2.626   6.910
 6674SOL    HW220355   4.630   2.631   6.821
 6675SOL     OW20356   3.764   2.406   6.700
 6675SOL    HW120357   3.849   2.373   6.659
 6675SOL    HW220358   3.777   2.421   6.798
 6676SOL     OW20359   3.913   2.382   7.308
 6676SOL    HW120360   3.972   2.342   7.238
 6676SOL    HW220361   3.855   2.453   7.267
 6677SOL     OW20362   4.539   2.434   5.911
 6677SOL    HW120363   4.546   2.345   5.865
 6677SOL    HW220364   4.445   2.468   5.903
 6678SOL     OW20365   3.976   3.426   7.330
 6678SOL    HW120366   3.946   3.483   7.406
 6678SOL    HW220367   3.969   3.329   7.356
 6679SOL     OW20368   4.395   2.326   6.855
 6679SOL    HW120369   4.361   2.237   6.825
 6679SOL    HW220370   4.421   2.380   6.775
 6680SOL     OW20371   4.654   3.540   7.051
 6680SOL    HW120372   4.630   3.522   6.956
 6680SOL    HW220373   4.684   3.634   7.061
 6681SOL     OW20374   4.197   2.362   5.777
 6681SOL    HW120375   4.258   2.442   5.781
 6681SOL    HW220376   4.102   2.393   5.784
 6682SOL     OW20377   3.883   2.999   7.052
 6682SOL    HW120378   3.905   2.938   7.128
 6682SOL    HW220379   3.893   2.950   6.966
 6683SOL     OW20380   3.807   3.120   6.608
 6683SOL    HW120381   3.802   3.119   6.708
 6683SOL    HW220382   3.724   3.079   6.570
 6684SOL     OW20383   4.412   3.524   7.302
 6684SOL    HW120384   4.356   3.605   7.311
 6684SOL    HW220385   4.464   3.528   7.216
 6685SOL     OW20386   4.627   1.948   5.719
 6685SOL    HW120387   4.678   1.949   5.633
 6685SOL    HW220388   4.683   1.906   5.790
 6686SOL     OW20389   3.854   3.656   7.437
 6686SOL    HW120390   3.813   3.582   7.490
 6686SOL    HW220391   3.918   3.707   7.495
 6687SOL     OW20392   4.554   3.135   7.008
 6687SOL    HW120393   4.549   3.168   7.103
 6687SOL    HW220394   4.468   3.154   6.962
 6688SOL     OW20395   4.396   3.478   5.740
 6688SOL    HW120396   4.405   3.488   5.641
 6688SOL    HW220397   4.356   3.389   5.761
 6689SOL     OW20398   3.987   2.188   6.306
 6689SOL    HW120399   3.908   2.239   6.272
 6689SOL    HW220400   3.978   2.173   6.404
 6690SOL     OW20401   4.546   2.864   6.958
 6690SOL    HW120402   4.586   2.863   6.866
 6690SOL    HW220403   4.556   2.956   6.998
 6691SOL     OW20404   4.096   3.150   7.076
 6691SOL    HW120405   4.083   3.243   7.042
 6691SOL    HW220406   4.012   3.098   7.063
 6692SOL     OW20407   4.314   3.349   6.077
 6692SOL    HW120408   4.356   3.291   6.007
 6692SOL    HW220409   4.270   3.428   6.033
 6693SOL     OW20410   3.979   3.210   5.876
 6693SOL    HW120411   3.883   3.211   5.849
 6693SOL    HW220412   3.991   3.263   5.960
 6694SOL     OW20413   3.829   2.875   7.312
 6694SOL    HW120414   3.752   2.842   7.366
 6694SOL    HW220415   3.914   2.845   7.354
 6695SOL     OW20416   4.396   2.065   7.075
 6695SOL    HW120417   4.486   2.049   7.035
 6695SOL    HW220418   4.404   2.070   7.174
 6696SOL     OW20419   3.799   2.207   5.619
 6696SOL    HW120420   3.707   2.179   5.590
 6696SOL    HW220421   3.830   2.284   5.563
 6697SOL     OW20422   3.796   2.028   5.904
 6697SOL    HW120423   3.779   2.111   5.850
 6697SOL    HW220424   3.886   1.991   5.882
 6698SOL     OW20425   4.337   2.704   7.017
 6698SOL    HW120426   4.393   2.785   7.000
 6698SOL    HW220427   4.396   2.624   7.020
 6699SOL     OW20428   4.440   2.427   7.294
 6699SOL    HW120429   4.459   2.492   7.368
 6699SOL    HW220430   4.500   2.347   7.303
 6700SOL     OW20431   4.114   3.603   7.146
 6700SOL    HW120432   4.023   3.644   7.144
 6700SOL    HW220433   4.107   3.509   7.178
 6701SOL     OW20434   4.949   2.187   6.035
 6701SOL    HW120435   5.014   2.113   6.024
 6701SOL    HW220436   4.969   2.237   6.119
 6702SOL     OW20437   4.318   2.607   6.238
 6702SOL    HW120438   4.368   2.692   6.219
 6702SOL    HW220439   4.230   2.609   6.190
 6703SOL     OW20440   4.583   3.236   5.602
 6703SOL    HW120441   4.537   3.251   5.690
 6703SOL    HW220442   4.627   3.321   5.572
 6704SOL     OW20443   4.385   3.652   6.539
 6704SOL    HW120444   4.339   3.740   6.526
 6704SOL    HW220445   4.484   3.664   6.532
 6705SOL     OW20446   4.583   2.818   6.447
 6705SOL    HW120447   4.637   2.749   6.495
 6705SOL    HW220448   4.551   2.887   6.513
 6706SOL     OW20449   3.945   3.176   7.430
 6706SOL    HW120450   3.880   3.103   7.409
 6706SOL    HW220451   3.949   3.190   7.528
 6707SOL     OW20452   3.803   3.102   6.239
 6707SOL    HW120453   3.802   3.055   6.327
 6707SOL    HW220454   3.885   3.074   6.188
 6708SOL     OW20455   4.396   3.253   7.210
 6708SOL    HW120456   4.318   3.203   7.248
 6708SOL    HW220457   4.393   3.348   7.241
 6709SOL     OW20458   4.152   2.286   6.106
 6709SOL    HW120459   4.182   2.214   6.044
 6709SOL    HW220460   4.113   2.246   6.189
 6710SOL     OW20461   4.041   2.409   6.866
 6710SOL    HW120462   4.079   2.350   6.938
 6710SOL    HW220463   4.081   2.383   6.778
 6711SOL     OW20464   4.536   3.448   6.273
 6711SOL    HW120465   4.568   3.458   6.179
 6711SOL    HW220466   4.457   3.386   6.275
 6712SOL     OW20467   4.725   1.896   6.740
 6712SOL    HW120468   4.662   1.824   6.709
 6712SOL    HW220469   4.818   1.860   6.740
 6713SOL     OW20470   4.494   3.192   5.887
 6713SOL    HW120471   4.448   3.105   5.904
 6713SOL    HW220472   4.585   3.189   5.928
 6714SOL     OW20473   4.342   3.429   6.870
 6714SOL    HW120474   4.337   3.511   6.927
 6714SOL    HW220475   4.431   3.426   6.825
 6715SOL     OW20476   3.763   2.939   5.886
 6715SOL    HW120477   3.862   2.928   5.877
 6715SOL    HW220478   3.723   2.853   5.918
 6716SOL     OW20479   4.599   3.508   5.923
 6716SOL    HW120480   4.522   3.473   5.869
 6716SOL    HW220481   4.567   3.579   5.985
 6717SOL     OW20482   3.954   2.490   7.561
 6717SOL    HW120483   3.861   2.488   7.598
 6717SOL    HW220484   3.955   2.451   7.469
 6718SOL     OW20485   3.949   2.137   8.444
 6718SOL    HW120486   3.984   2.120   8.536
 6718SOL    HW220487   3.861   2.092   8.432
 6719SOL     OW20488   3.743   2.230   8.095
 6719SOL    HW120489   3.661   2.273   8.134
 6719SOL    HW220490   3.715   2.157   8.032
 6720SOL     OW20491   4.293   3.137   8.613
 6720SOL    HW120492   4.200   3.130   8.576
 6720SOL    HW220493   4.304   3.226   8.657
 6721SOL     OW20494   4.492   3.006   8.471
 6721SOL    HW120495   4.414   3.023   8.531
 6721SOL    HW220496   4.526   3.093   8.435
 6722SOL     OW20497   4.574   2.660   9.271
 6722SOL    HW120498   4.570   2.736   9.336
 6722SOL    HW220499   4.596   2.696   9.180
 6723SOL     OW20500   4.409   2.874   8.113
 6723SOL    HW120501   4.478   2.858   8.183
 6723SOL    HW220502   4.336   2.931   8.151
 6724SOL     OW20503   4.410   3.023   9.251
 6724SOL    HW120504   4.470   3.102   9.265
 6724SOL    HW220505   4.324   3.054   9.210
 6725SOL     OW20506   4.059   3.297   8.509
 6725SOL    HW120507   3.981   3.266   8.456
 6725SOL    HW220508   4.117   3.355   8.452
 6726SOL     OW20509   4.162   2.254   8.947
 6726SOL    HW120510   4.244   2.198   8.956
 6726SOL    HW220511   4.081   2.196   8.951
 6727SOL     OW20512   3.955   3.575   7.931
 6727SOL    HW120513   3.989   3.652   7.985
 6727SOL    HW220514   3.999   3.575   7.841
 6728SOL     OW20515   3.954   3.296   7.986
 6728SOL    HW120516   3.928   3.392   7.986
 6728SOL    HW220517   3.883   3.242   8.031
 6729SOL     OW20518   3.964   2.953   8.334
 6729SOL    HW120519   3.978   2.869   8.386
 6729SOL    HW220520   3.909   3.017   8.389
 6730SOL     OW20521   4.344   3.648   8.887
 6730SOL    HW120522   4.252   3.631   8.922
 6730SOL    HW220523   4.372   3.740   8.913
 6731SOL     OW20524   4.330   2.826   7.571
 6731SOL    HW120525   4.337   2.910   7.517
 6731SOL    HW220526   4.376   2.839   7.659
 6732SOL     OW20527   3.846   2.505   8.011
 6732SOL    HW120528   3.801   2.417   8.028
 6732SOL    HW220529   3.845   2.559   8.095
 6733SOL     OW20530   3.751   3.458   7.565
 6733SOL    HW120531   3.732   3.362   7.586
 6733SOL    HW220532   3.718   3.516   7.640
 6734SOL     OW20533   3.837   2.599   9.045
 6734SOL    HW120534   3.925   2.586   9.090
 6734SOL    HW220535   3.824   2.696   9.023
 6735SOL     OW20536   4.337   3.227   8.174
 6735SOL    HW120537   4.288   3.140   8.183
 6735SOL    HW220538   4.314   3.270   8.087
 6736SOL     OW20539   4.533   1.866   7.950
 6736SOL    HW120540   4.573   1.957   7.941
 6736SOL    HW220541   4.433   1.874   7.956
 6737SOL     OW20542   3.921   2.838   8.712
 6737SOL    HW120543   4.010   2.793   8.698
 6737SOL    HW220544   3.848   2.773   8.693
 6738SOL     OW20545   4.041   2.113   9.249
 6738SOL    HW120546   4.112   2.184   9.255
 6738SOL    HW220547   3.953   2.152   9.277
 6739SOL     OW20548   4.322   2.591   7.718
 6739SOL    HW120549   4.346   2.660   7.650
 6739SOL    HW220550   4.244   2.624   7.772
 6740SOL     OW20551   4.531   2.467   8.913
 6740SOL    HW120552   4.484   2.464   9.002
 6740SOL    HW220553   4.480   2.412   8.847
 6741SOL     OW20554   4.715   2.272   8.690
 6741SOL    HW120555   4.638   2.306   8.744
 6741SOL    HW220556   4.681   2.221   8.611
 6742SOL     OW20557   3.800   2.673   8.237
 6742SOL    HW120558   3.899   2.661   8.246
 6742SOL    HW220559   3.776   2.768   8.258
 6743SOL     OW20560   3.854   3.683   9.019
 6743SOL    HW120561   3.844   3.668   9.118
 6743SOL    HW220562   3.768   3.719   8.983
 6744SOL     OW20563   4.589   2.210   7.643
 6744SOL    HW120564   4.648   2.273   7.594
 6744SOL    HW220565   4.608   2.116   7.614
 6745SOL     OW20566   4.274   2.058   8.333
 6745SOL    HW120567   4.269   2.053   8.433
 6745SOL    HW220568   4.276   2.154   8.304
 6746SOL     OW20569   4.732   3.318   7.925
 6746SOL    HW120570   4.686   3.390   7.873
 6746SOL    HW220571   4.728   3.338   8.023
 6747SOL     OW20572   4.075   3.663   8.301
 6747SOL    HW120573   4.125   3.577   8.307
 6747SOL    HW220574   4.140   3.740   8.298
 6748SOL     OW20575   4.045   2.805   7.690
 6748SOL    HW120576   4.127   2.844   7.648
 6748SOL    HW220577   4.018   2.723   7.641
 6749SOL     OW20578   4.185   3.128   9.175
 6749SOL    HW120579   4.135   3.129   9.089
 6749SOL    HW220580   4.122   3.110   9.251
 6750SOL     OW20581   3.926   2.147   8.946
 6750SOL    HW120582   3.846   2.207   8.933
 6750SOL    HW220583   3.916   2.098   9.032
 6751SOL     OW20584   4.188   3.605   7.771
 6751SOL    HW120585   4.221   3.644   7.857
 6751SOL    HW220586   4.264   3.598   7.706
 6752SOL     OW20587   3.973   3.647   8.689
 6752SOL    HW120588   4.030   3.582   8.739
 6752SOL    HW220589   3.957   3.614   8.596
 6753SOL     OW20590   4.106   2.562   7.928
 6753SOL    HW120591   4.151   2.472   7.925
 6753SOL    HW220592   4.012   2.551   7.961
 6754SOL     OW20593   4.338   1.984   7.565
 6754SOL    HW120594   4.436   1.962   7.572
 6754SOL    HW220595   4.307   1.967   7.472
 6755SOL     OW20596   4.505   2.126   9.197
 6755SOL    HW120597   4.572   2.065   9.240
 6755SOL    HW220598   4.432   2.145   9.262
 6756SOL     OW20599   4.612   3.376   8.643
 6756SOL    HW120600   4.589   3.351   8.549
 6756SOL    HW220601   4.673   3.307   8.682
 6757SOL     OW20602   4.527   3.264   8.372
 6757SOL    HW120603   4.617   3.278   8.330
 6757SOL    HW220604   4.456   3.266   8.301
 6758SOL     OW20605   4.646   2.365   8.347
 6758SOL    HW120606   4.621   2.356   8.251
 6758SOL    HW220607   4.694   2.283   8.378
 6759SOL     OW20608   4.263   1.926   7.960
 6759SOL    HW120609   4.182   1.927   8.018
 6759SOL    HW220610   4.266   2.009   7.905
 6760SOL     OW20611   4.021   1.897   7.619
 6760SOL    HW120612   4.070   1.981   7.598
 6760SOL    HW220613   4.083   1.832   7.664
 6761SOL     OW20614   4.951   3.432   8.241
 6761SOL    HW120615   4.972   3.506   8.176
 6761SOL    HW220616   5.019   3.432   8.314
 6762SOL     OW20617   4.183   3.014   8.189
 6762SOL    HW120618   4.112   2.987   8.254
 6762SOL    HW220619   4.157   2.986   8.096
 6763SOL     OW20620   3.802   2.418   8.834
 6763SOL    HW120621   3.894   2.417   8.793
 6763SOL    HW220622   3.796   2.492   8.901
 6764SOL     OW20623   4.285   2.084   8.595
 6764SOL    HW120624   4.323   2.000   8.632
 6764SOL    HW220625   4.197   2.103   8.639
 6765SOL     OW20626   4.741   1.901   8.201
 6765SOL    HW120627   4.669   1.906   8.132
 6765SOL    HW220628   4.717   1.832   8.270
 6766SOL     OW20629   4.212   3.247   7.622
 6766SOL    HW120630   4.125   3.232   7.669
 6766SOL    HW220631   4.195   3.273   7.527
 6767SOL     OW20632   4.251   2.118   7.776
 6767SOL    HW120633   4.278   2.059   7.701
 6767SOL    HW220634   4.251   2.213   7.745
 6768SOL     OW20635   4.639   1.951   8.850
 6768SOL    HW120636   4.664   1.931   8.755
 6768SOL    HW220637   4.711   2.007   8.892
 6769SOL     OW20638   4.429   2.912   7.816
 6769SOL    HW120639   4.415   2.919   7.915
 6769SOL    HW220640   4.513   2.861   7.798
 6770SOL     OW20641   4.134   2.675   8.699
 6770SOL    HW120642   4.220   2.687   8.749
 6770SOL    HW220643   4.092   2.588   8.726
 6771SOL     OW20644   3.788   3.426   8.779
 6771SOL    HW120645   3.742   3.508   8.745
 6771SOL    HW220646   3.886   3.445   8.788
 6772SOL     OW20647   4.091   2.962   7.949
 6772SOL    HW120648   4.084   3.045   7.893
 6772SOL    HW220649   4.095   2.882   7.889
 6773SOL     OW20650   4.290   2.399   8.313
 6773SOL    HW120651   4.302   2.465   8.239
 6773SOL    HW220652   4.336   2.433   8.396
 6774SOL     OW20653   4.078   3.372   8.777
 6774SOL    HW120654   4.057   3.328   8.690
 6774SOL    HW220655   4.175   3.398   8.780
 6775SOL     OW20656   4.126   2.613   9.046
 6775SOL    HW120657   4.194   2.668   8.999
 6775SOL    HW220658   4.166   2.525   9.073
 6776SOL     OW20659   4.228   1.912   9.188
 6776SOL    HW120660   4.186   1.855   9.118
 6776SOL    HW220661   4.162   1.981   9.220
 6777SOL     OW20662   4.297   2.732   8.477
 6777SOL    HW120663   4.341   2.821   8.468
 6777SOL    HW220664   4.234   2.732   8.554
 6778SOL     OW20665   4.933   2.387   7.723
 6778SOL    HW120666   4.946   2.303   7.777
 6778SOL    HW220667   4.904   2.461   7.783
 6779SOL     OW20668   4.031   2.075   8.679
 6779SOL    HW120669   4.008   2.112   8.769
 6779SOL    HW220670   4.001   1.980   8.673
 6780SOL     OW20671   3.761   3.172   8.730
 6780SOL    HW120672   3.814   3.123   8.798
 6780SOL    HW220673   3.783   3.270   8.735
 6781SOL     OW20674   4.456   2.496   8.512
 6781SOL    HW120675   4.515   2.470   8.436
 6781SOL    HW220676   4.428   2.592   8.501
 6782SOL     OW20677   4.031   1.925   8.066
 6782SOL    HW120678   4.020   2.019   8.099
 6782SOL    HW220679   4.026   1.862   8.143
 6783SOL     OW20680   4.747   2.628   8.414
 6783SOL    HW120681   4.762   2.649   8.510
 6783SOL    HW220682   4.717   2.533   8.405
 6784SOL     OW20683   4.704   3.435   9.148
 6784SOL    HW120684   4.684   3.479   9.060
 6784SOL    HW220685   4.743   3.344   9.132
 6785SOL     OW20686   4.074   2.760   9.252
 6785SOL    HW120687   4.150   2.804   9.300
 6785SOL    HW220688   4.109   2.713   9.170
 6786SOL     OW20689   4.043   2.672   8.397
 6786SOL    HW120690   4.136   2.708   8.402
 6786SOL    HW220691   4.037   2.587   8.449
 6787SOL     OW20692   4.063   2.371   8.454
 6787SOL    HW120693   4.011   2.288   8.437
 6787SOL    HW220694   4.140   2.376   8.390
 6788SOL     OW20695   3.732   3.188   7.648
 6788SOL    HW120696   3.639   3.209   7.617
 6788SOL    HW220697   3.742   3.089   7.661
 6789SOL     OW20698   3.812   3.663   8.375
 6789SOL    HW120699   3.770   3.577   8.348
 6789SOL    HW220700   3.906   3.666   8.341
 6790SOL     OW20701   4.228   3.430   8.358
 6790SOL    HW120702   4.294   3.504   8.367
 6790SOL    HW220703   4.272   3.351   8.316
 6791SOL     OW20704   4.726   2.658   8.686
 6791SOL    HW120705   4.767   2.626   8.772
 6791SOL    HW220706   4.630   2.631   8.683
 6792SOL     OW20707   3.764   2.406   8.562
 6792SOL    HW120708   3.849   2.373   8.521
 6792SOL    HW220709   3.777   2.421   8.660
 6793SOL     OW20710   3.913   2.382   9.170
 6793SOL    HW120711   3.972   2.342   9.100
 6793SOL    HW220712   3.855   2.453   9.129
 6794SOL     OW20713   4.539   2.434   7.773
 6794SOL    HW120714   4.546   2.345   7.727
 6794SOL    HW220715   4.445   2.468   7.765
 6795SOL     OW20716   3.976   3.426   9.192
 6795SOL    HW120717   3.946   3.483   9.268
 6795SOL    HW220718   3.969   3.329   9.218
 6796SOL     OW20719   4.395   2.326   8.717
 6796SOL    HW120720   4.361   2.237   8.687
 6796SOL    HW220721   4.421   2.380   8.637
 6797SOL     OW20722   4.654   3.540   8.913
 6797SOL    HW120723   4.630   3.522   8.818
 6797SOL    HW220724   4.684   3.634   8.923
 6798SOL     OW20725   4.197   2.362   7.639
 6798SOL    HW120726   4.258   2.442   7.643
 6798SOL    HW220727   4.102   2.393   7.646
 6799SOL     OW20728   3.883   2.999   8.914
 6799SOL    HW120729   3.905   2.938   8.990
 6799SOL    HW220730   3.893   2.950   8.828
 6800SOL     OW20731   3.807   3.120   8.470
 6800SOL    HW120732   3.802   3.119   8.570
 6800SOL    HW220733   3.724   3.079   8.432
 6801SOL     OW20734   4.412   3.524   9.164
 6801SOL    HW120735   4.356   3.605   9.173
 6801SOL    HW220736   4.464   3.528   9.078
 6802SOL     OW20737   4.627   1.948   7.581
 6802SOL    HW120738   4.678   1.949   7.495
 6802SOL    HW220739   4.683   1.906   7.652
 6803SOL     OW20740   3.854   3.656   9.299
 6803SOL    HW120741   3.813   3.582   9.352
 6803SOL    HW220742   3.918   3.707   9.357
 6804SOL     OW20743   4.554   3.135   8.870
 6804SOL    HW120744   4.549   3.168   8.965
 6804SOL    HW220745   4.468   3.154   8.824
 6805SOL     OW20746   4.396   3.478   7.602
 6805SOL    HW120747   4.405   3.488   7.503
 6805SOL    HW220748   4.356   3.389   7.623
 6806SOL     OW20749   3.987   2.188   8.168
 6806SOL    HW120750   3.908   2.239   8.134
 6806SOL    HW220751   3.978   2.173   8.266
 6807SOL     OW20752   4.546   2.864   8.820
 6807SOL    HW120753   4.586   2.863   8.728
 6807SOL    HW220754   4.556   2.956   8.860
 6808SOL     OW20755   4.096   3.150   8.938
 6808SOL    HW120756   4.083   3.243   8.904
 6808SOL    HW220757   4.012   3.098   8.925
 6809SOL     OW20758   4.314   3.349   7.939
 6809SOL    HW120759   4.356   3.291   7.869
 6809SOL    HW220760   4.270   3.428   7.895
 6810SOL     OW20761   3.979   3.210   7.738
 6810SOL    HW120762   3.883   3.211   7.711
 6810SOL    HW220763   3.991   3.263   7.822
 6811SOL     OW20764   3.829   2.875   9.174
 6811SOL    HW120765   3.752   2.842   9.228
 6811SOL    HW220766   3.914   2.845   9.216
 6812SOL     OW20767   4.396   2.065   8.937
 6812SOL    HW120768   4.486   2.049   8.897
 6812SOL    HW220769   4.404   2.070   9.036
 6813SOL     OW20770   3.799   2.207   7.481
 6813SOL    HW120771   3.707   2.179   7.452
 6813SOL    HW220772   3.830   2.284   7.425
 6814SOL     OW20773   3.796   2.028   7.766
 6814SOL    HW120774   3.779   2.111   7.712
 6814SOL    HW220775   3.886   1.991   7.744
 6815SOL     OW20776   4.337   2.704   8.879
 6815SOL    HW120777   4.393   2.785   8.862
 6815SOL    HW220778   4.396   2.624   8.882
 6816SOL     OW20779   4.440   2.427   9.156
 6816SOL    HW120780   4.459   2.492   9.230
 6816SOL    HW220781   4.500   2.347   9.165
 6817SOL     OW20782   4.114   3.603   9.008
 6817SOL    HW120783   4.023   3.644   9.006
 6817SOL    HW220784   4.107   3.509   9.040
 6818SOL     OW20785   4.949   2.187   7.897
 6818SOL    HW120786   5.014   2.113   7.886
 6818SOL    HW220787   4.969   2.237   7.981
 6819SOL     OW20788   4.318   2.607   8.100
 6819SOL    HW120789   4.368   2.692   8.081
 6819SOL    HW220790   4.230   2.609   8.052
 6820SOL     OW20791   4.583   3.236   7.464
 6820SOL    HW120792   4.537   3.251   7.552
 6820SOL    HW220793   4.627   3.321   7.434
 6821SOL     OW20794   4.385   3.652   8.401
 6821SOL    HW120795   4.339   3.740   8.388
 6821SOL    HW220796   4.484   3.664   8.394
 6822SOL     OW20797   4.583   2.818   8.309
 6822SOL    HW120798   4.637   2.749   8.357
 6822SOL    HW220799   4.551   2.887   8.375
 6823SOL     OW20800   3.945   3.176   9.292
 6823SOL    HW120801   3.880   3.103   9.271
 6823SOL    HW220802   3.949   3.190   9.390
 6824SOL     OW20803   3.803   3.102   8.101
 6824SOL    HW120804   3.802   3.055   8.189
 6824SOL    HW220805   3.885   3.074   8.050
 6825SOL     OW20806   4.396   3.253   9.072
 6825SOL    HW120807   4.318   3.203   9.110
 6825SOL    HW220808   4.393   3.348   9.103
 6826SOL     OW20809   4.152   2.286   7.968
 6826SOL    HW120810   4.182   2.214   7.906
 6826SOL    HW220811   4.113   2.246   8.051
 6827SOL     OW20812   4.041   2.409   8.728
 6827SOL    HW120813   4.079   2.350   8.800
 6827SOL    HW220814   4.081   2.383   8.640
 6828SOL     OW20815   4.536   3.448   8.135
 6828SOL    HW120816   4.568   3.458   8.041
 6828SOL    HW220817   4.457   3.386   8.137
 6829SOL     OW20818   4.725   1.896   8.602
 6829SOL    HW120819   4.662   1.824   8.571
 6829SOL    HW220820   4.818   1.860   8.602
 6830SOL     OW20821   4.494   3.192   7.749
 6830SOL    HW120822   4.448   3.105   7.766
 6830SOL    HW220823   4.585   3.189   7.790
 6831SOL     OW20824   4.342   3.429   8.732
 6831SOL    HW120825   4.337   3.511   8.789
 6831SOL    HW220826   4.431   3.426   8.687
 6832SOL     OW20827   3.763   2.939   7.748
 6832SOL    HW120828   3.862   2.928   7.739
 6832SOL    HW220829   3.723   2.853   7.780
 6833SOL     OW20830   4.599   3.508   7.785
 6833SOL    HW120831   4.522   3.473   7.731
 6833SOL    HW220832   4.567   3.579   7.847
 6834SOL     OW20833   3.954   2.490   9.423
 6834SOL    HW120834   3.861   2.488   9.460
 6834SOL    HW220835   3.955   2.451   9.331
 6835SOL     OW20836   3.955   3.575   9.793
 6835SOL    HW120837   3.989   3.652   9.847
 6835SOL    HW220838   3.999   3.575   9.703
 6836SOL     OW20839   3.954   3.296   9.848
 6836SOL    HW120840   3.928   3.392   9.848
 6836SOL    HW220841   3.883   3.242   9.893
 6837SOL     OW20842   4.330   2.826   9.433
 6837SOL    HW120843   4.337   2.910   9.379
 6837SOL    HW220844   4.376   2.839   9.521
 6838SOL     OW20845   3.846   2.505   9.873
 6838SOL    HW120846   3.801   2.417   9.890
 6838SOL    HW220847   3.845   2.559   9.957
 6839SOL     OW20848   3.751   3.458   9.427
 6839SOL    HW120849   3.732   3.362   9.448
 6839SOL    HW220850   3.718   3.516   9.502
 6840SOL     OW20851   4.337   3.227  10.036
 6840SOL    HW120852   4.288   3.140  10.045
 6840SOL    HW220853   4.314   3.270   9.949
 6841SOL     OW20854   4.533   1.866   9.812
 6841SOL    HW120855   4.573   1.957   9.803
 6841SOL    HW220856   4.433   1.874   9.818
 6842SOL     OW20857   4.322   2.591   9.580
 6842SOL    HW120858   4.346   2.660   9.512
 6842SOL    HW220859   4.244   2.624   9.634
 6843SOL     OW20860   3.800   2.673  10.099
 6843SOL    HW120861   3.899   2.661  10.108
 6843SOL    HW220862   3.776   2.768  10.120
 6844SOL     OW20863   4.589   2.210   9.505
 6844SOL    HW120864   4.648   2.273   9.456
 6844SOL    HW220865   4.608   2.116   9.476
 6845SOL     OW20866   4.732   3.318   9.787
 6845SOL    HW120867   4.686   3.390   9.735
 6845SOL    HW220868   4.728   3.338   9.885
 6846SOL     OW20869   4.075   3.663  10.163
 6846SOL    HW120870   4.125   3.577  10.169
 6846SOL    HW220871   4.140   3.740  10.160
 6847SOL     OW20872   4.045   2.805   9.552
 6847SOL    HW120873   4.127   2.844   9.510
 6847SOL    HW220874   4.018   2.723   9.503
 6848SOL     OW20875   4.188   3.605   9.633
 6848SOL    HW120876   4.221   3.644   9.719
 6848SOL    HW220877   4.264   3.598   9.568
 6849SOL     OW20878   4.106   2.562   9.790
 6849SOL    HW120879   4.151   2.472   9.787
 6849SOL    HW220880   4.012   2.551   9.823
 6850SOL     OW20881   4.338   1.984   9.427
 6850SOL    HW120882   4.436   1.962   9.434
 6850SOL    HW220883   4.307   1.967   9.334
 6851SOL     OW20884   4.263   1.926   9.822
 6851SOL    HW120885   4.182   1.927   9.880
 6851SOL    HW220886   4.266   2.009   9.767
 6852SOL     OW20887   4.021   1.897   9.481
 6852SOL    HW120888   4.070   1.981   9.460
 6852SOL    HW220889   4.083   1.832   9.526
 6853SOL     OW20890   4.659   2.098   9.790
 6853SOL    HW120891   4.611   2.139   9.712
 6853SOL    HW220892   4.758   2.096   9.771
 6854SOL     OW20893   4.183   3.014  10.051
 6854SOL    HW120894   4.112   2.987  10.116
 6854SOL    HW220895   4.157   2.986   9.958
 6855SOL     OW20896   4.590   2.316   9.952
 6855SOL    HW120897   4.558   2.388   9.890
 6855SOL    HW220898   4.614   2.235   9.899
 6856SOL     OW20899   4.212   3.247   9.484
 6856SOL    HW120900   4.125   3.232   9.531
 6856SOL    HW220901   4.195   3.273   9.389
 6857SOL     OW20902   4.251   2.118   9.638
 6857SOL    HW120903   4.278   2.059   9.563
 6857SOL    HW220904   4.251   2.213   9.607
 6858SOL     OW20905   4.429   2.912   9.678
 6858SOL    HW120906   4.415   2.919   9.777
 6858SOL    HW220907   4.513   2.861   9.660
 6859SOL     OW20908   4.091   2.962   9.811
 6859SOL    HW120909   4.084   3.045   9.755
 6859SOL    HW220910   4.095   2.882   9.751
 6860SOL     OW20911   4.933   2.387   9.585
 6860SOL    HW120912   4.946   2.303   9.639
 6860SOL    HW220913   4.904   2.461   9.645
 6861SOL     OW20914   4.031   1.925   9.928
 6861SOL    HW120915   4.020   2.019   9.961
 6861SOL    HW220916   4.026   1.862  10.005
 6862SOL     OW20917   3.732   3.188   9.510
 6862SOL    HW120918   3.639   3.209   9.479
 6862SOL    HW220919   3.742   3.089   9.523
 6863SOL     OW20920   4.539   2.434   9.635
 6863SOL    HW120921   4.546   2.345   9.589
 6863SOL    HW220922   4.445   2.468   9.627
 6864SOL     OW20923   4.197   2.362   9.501
 6864SOL    HW120924   4.258   2.442   9.505
 6864SOL    HW220925   4.102   2.393   9.508
 6865SOL     OW20926   4.627   1.948   9.443
 6865SOL    HW120927   4.678   1.949   9.357
 6865SOL    HW220928   4.683   1.906   9.514
 6866SOL     OW20929   4.396   3.478   9.464
 6866SOL    HW120930   4.405   3.488   9.365
 6866SOL    HW220931   4.356   3.389   9.485
 6867SOL     OW20932   4.314   3.349   9.801
 6867SOL    HW120933   4.356   3.291   9.731
 6867SOL    HW220934   4.270   3.428   9.757
 6868SOL     OW20935   3.979   3.210   9.600
 6868SOL    HW120936   3.883   3.211   9.573
 6868SOL    HW220937   3.991   3.263   9.684
 6869SOL     OW20938   3.799   2.207   9.343
 6869SOL    HW120939   3.707   2.179   9.314
 6869SOL    HW220940   3.830   2.284   9.287
 6870SOL     OW20941   3.796   2.028   9.628
 6870SOL    HW120942   3.779   2.111   9.574
 6870SOL    HW220943   3.886   1.991   9.606
 6871SOL     OW20944   4.949   2.187   9.759
 6871SOL    HW120945   5.014   2.113   9.748
 6871SOL    HW220946   4.969   2.237   9.843
 6872SOL     OW20947   4.318   2.607   9.962
 6872SOL    HW120948   4.368   2.692   9.943
 6872SOL    HW220949   4.230   2.609   9.914
 6873SOL     OW20950   4.583   3.236   9.326
 6873SOL    HW120951   4.537   3.251   9.414
 6873SOL    HW220952   4.627   3.321   9.296
 6874SOL     OW20953   3.803   3.102   9.963
 6874SOL    HW120954   3.802   3.055  10.051
 6874SOL    HW220955   3.885   3.074   9.912
 6875SOL     OW20956   4.152   2.286   9.830
 6875SOL    HW120957   4.182   2.214   9.768
 6875SOL    HW220958   4.113   2.246   9.913
 6876SOL     OW20959   4.494   3.192   9.611
 6876SOL    HW120960   4.448   3.105   9.628
 6876SOL    HW220961   4.585   3.189   9.652
 6877SOL     OW20962   3.763   2.939   9.610
 6877SOL    HW120963   3.862   2.928   9.601
 6877SOL    HW220964   3.723   2.853   9.642
 6878SOL     OW20965   4.599   3.508   9.647
 6878SOL    HW120966   4.522   3.473   9.593
 6878SOL    HW220967   4.567   3.579   9.709
 6879SOL     OW20968   3.954   4.352   0.113
 6879SOL    HW120969   3.861   4.350   0.150
 6879SOL    HW220970   3.955   4.313   0.021
 6880SOL     OW20971   3.949   3.999   0.996
 6880SOL    HW120972   3.984   3.982   1.088
 6880SOL    HW220973   3.861   3.954   0.984
 6881SOL     OW20974   3.743   4.092   0.647
 6881SOL    HW120975   3.661   4.135   0.686
 6881SOL    HW220976   3.715   4.019   0.584
 6882SOL     OW20977   4.574   4.522   1.823
 6882SOL    HW120978   4.570   4.598   1.888
 6882SOL    HW220979   4.596   4.558   1.732
 6883SOL     OW20980   4.409   4.736   0.665
 6883SOL    HW120981   4.478   4.720   0.735
 6883SOL    HW220982   4.336   4.793   0.703
 6884SOL     OW20983   4.162   4.116   1.499
 6884SOL    HW120984   4.244   4.060   1.508
 6884SOL    HW220985   4.081   4.058   1.503
 6885SOL     OW20986   3.846   4.367   0.563
 6885SOL    HW120987   3.801   4.279   0.580
 6885SOL    HW220988   3.845   4.421   0.647
 6886SOL     OW20989   3.837   4.461   1.597
 6886SOL    HW120990   3.925   4.448   1.642
 6886SOL    HW220991   3.824   4.558   1.575
 6887SOL     OW20992   4.533   3.728   0.502
 6887SOL    HW120993   4.573   3.819   0.493
 6887SOL    HW220994   4.433   3.736   0.508
 6888SOL     OW20995   3.921   4.700   1.264
 6888SOL    HW120996   4.010   4.655   1.250
 6888SOL    HW220997   3.848   4.635   1.245
 6889SOL     OW20998   4.041   3.975   1.801
 6889SOL    HW120999   4.112   4.046   1.807
 6889SOL    HW221000   3.953   4.014   1.829
 6890SOL     OW21001   4.322   4.453   0.270
 6890SOL    HW121002   4.346   4.522   0.202
 6890SOL    HW221003   4.244   4.486   0.324
 6891SOL     OW21004   4.531   4.329   1.465
 6891SOL    HW121005   4.484   4.326   1.554
 6891SOL    HW221006   4.480   4.274   1.399
 6892SOL     OW21007   4.715   4.134   1.242
 6892SOL    HW121008   4.638   4.168   1.296
 6892SOL    HW221009   4.681   4.083   1.163
 6893SOL     OW21010   3.800   4.535   0.789
 6893SOL    HW121011   3.899   4.523   0.798
 6893SOL    HW221012   3.776   4.630   0.810
 6894SOL     OW21013   4.589   4.072   0.195
 6894SOL    HW121014   4.648   4.135   0.146
 6894SOL    HW221015   4.608   3.978   0.166
 6895SOL     OW21016   4.274   3.920   0.885
 6895SOL    HW121017   4.269   3.915   0.985
 6895SOL    HW221018   4.276   4.016   0.856
 6896SOL     OW21019   3.926   4.009   1.498
 6896SOL    HW121020   3.846   4.069   1.485
 6896SOL    HW221021   3.916   3.960   1.584
 6897SOL     OW21022   4.106   4.424   0.480
 6897SOL    HW121023   4.151   4.334   0.477
 6897SOL    HW221024   4.012   4.413   0.513
 6898SOL     OW21025   4.338   3.846   0.117
 6898SOL    HW121026   4.436   3.824   0.124
 6898SOL    HW221027   4.307   3.829   0.024
 6899SOL     OW21028   4.505   3.988   1.749
 6899SOL    HW121029   4.572   3.927   1.792
 6899SOL    HW221030   4.432   4.007   1.814
 6900SOL     OW21031   4.646   4.227   0.899
 6900SOL    HW121032   4.621   4.218   0.803
 6900SOL    HW221033   4.694   4.145   0.930
 6901SOL     OW21034   4.263   3.788   0.512
 6901SOL    HW121035   4.182   3.789   0.570
 6901SOL    HW221036   4.266   3.871   0.457
 6902SOL     OW21037   3.802   4.280   1.386
 6902SOL    HW121038   3.894   4.279   1.345
 6902SOL    HW221039   3.796   4.354   1.453
 6903SOL     OW21040   4.285   3.946   1.147
 6903SOL    HW121041   4.323   3.862   1.184
 6903SOL    HW221042   4.197   3.965   1.191
 6904SOL     OW21043   4.741   3.763   0.753
 6904SOL    HW121044   4.669   3.768   0.684
 6904SOL    HW221045   4.717   3.694   0.822
 6905SOL     OW21046   4.251   3.980   0.328
 6905SOL    HW121047   4.278   3.921   0.253
 6905SOL    HW221048   4.251   4.075   0.297
 6906SOL     OW21049   4.639   3.813   1.402
 6906SOL    HW121050   4.664   3.793   1.307
 6906SOL    HW221051   4.711   3.869   1.444
 6907SOL     OW21052   4.134   4.537   1.251
 6907SOL    HW121053   4.220   4.549   1.301
 6907SOL    HW221054   4.092   4.450   1.278
 6908SOL     OW21055   4.290   4.261   0.865
 6908SOL    HW121056   4.302   4.327   0.791
 6908SOL    HW221057   4.336   4.295   0.948
 6909SOL     OW21058   4.126   4.475   1.598
 6909SOL    HW121059   4.194   4.530   1.551
 6909SOL    HW221060   4.166   4.387   1.625
 6910SOL     OW21061   4.228   3.774   1.740
 6910SOL    HW121062   4.186   3.717   1.670
 6910SOL    HW221063   4.162   3.843   1.772
 6911SOL     OW21064   4.297   4.594   1.029
 6911SOL    HW121065   4.341   4.683   1.020
 6911SOL    HW221066   4.234   4.594   1.106
 6912SOL     OW21067   4.933   4.249   0.275
 6912SOL    HW121068   4.946   4.165   0.329
 6912SOL    HW221069   4.904   4.323   0.335
 6913SOL     OW21070   4.031   3.937   1.231
 6913SOL    HW121071   4.008   3.974   1.321
 6913SOL    HW221072   4.001   3.842   1.225
 6914SOL     OW21073   4.456   4.358   1.064
 6914SOL    HW121074   4.515   4.332   0.988
 6914SOL    HW221075   4.428   4.454   1.053
 6915SOL     OW21076   4.031   3.787   0.618
 6915SOL    HW121077   4.020   3.881   0.651
 6915SOL    HW221078   4.026   3.724   0.695
 6916SOL     OW21079   4.747   4.490   0.966
 6916SOL    HW121080   4.762   4.511   1.062
 6916SOL    HW221081   4.717   4.395   0.957
 6917SOL     OW21082   4.074   4.622   1.804
 6917SOL    HW121083   4.150   4.666   1.852
 6917SOL    HW221084   4.109   4.575   1.722
 6918SOL     OW21085   4.792   5.057   0.849
 6918SOL    HW121086   4.799   4.973   0.794
 6918SOL    HW221087   4.854   5.126   0.813
 6919SOL     OW21088   4.043   4.534   0.949
 6919SOL    HW121089   4.136   4.570   0.954
 6919SOL    HW221090   4.037   4.449   1.001
 6920SOL     OW21091   4.063   4.233   1.006
 6920SOL    HW121092   4.011   4.150   0.989
 6920SOL    HW221093   4.140   4.238   0.942
 6921SOL     OW21094   4.726   4.520   1.238
 6921SOL    HW121095   4.767   4.488   1.324
 6921SOL    HW221096   4.630   4.493   1.235
 6922SOL     OW21097   3.764   4.268   1.114
 6922SOL    HW121098   3.849   4.235   1.073
 6922SOL    HW221099   3.777   4.283   1.212
 6923SOL     OW21100   3.913   4.244   1.722
 6923SOL    HW121101   3.972   4.204   1.652
 6923SOL    HW221102   3.855   4.315   1.681
 6924SOL     OW21103   4.539   4.296   0.325
 6924SOL    HW121104   4.546   4.207   0.279
 6924SOL    HW221105   4.445   4.330   0.317
 6925SOL     OW21106   4.395   4.188   1.269
 6925SOL    HW121107   4.361   4.099   1.239
 6925SOL    HW221108   4.421   4.242   1.189
 6926SOL     OW21109   4.197   4.224   0.191
 6926SOL    HW121110   4.258   4.304   0.195
 6926SOL    HW221111   4.102   4.255   0.198
 6927SOL     OW21112   4.627   3.810   0.133
 6927SOL    HW121113   4.678   3.811   0.047
 6927SOL    HW221114   4.683   3.768   0.204
 6928SOL     OW21115   3.987   4.050   0.720
 6928SOL    HW121116   3.908   4.101   0.686
 6928SOL    HW221117   3.978   4.035   0.818
 6929SOL     OW21118   4.763   4.822   0.696
 6929SOL    HW121119   4.693   4.775   0.750
 6929SOL    HW221120   4.822   4.754   0.653
 6930SOL     OW21121   3.829   4.737   1.726
 6930SOL    HW121122   3.752   4.704   1.780
 6930SOL    HW221123   3.914   4.707   1.768
 6931SOL     OW21124   4.396   3.927   1.489
 6931SOL    HW121125   4.486   3.911   1.449
 6931SOL    HW221126   4.404   3.932   1.588
 6932SOL     OW21127   3.799   4.069   0.033
 6932SOL    HW121128   3.707   4.041   0.004
 6932SOL    HW221129   3.830   4.146  -0.023
 6933SOL     OW21130   3.796   3.890   0.318
 6933SOL    HW121131   3.779   3.973   0.264
 6933SOL    HW221132   3.886   3.853   0.296
 6934SOL     OW21133   4.337   4.566   1.431
 6934SOL    HW121134   4.393   4.647   1.414
 6934SOL    HW221135   4.396   4.486   1.434
 6935SOL     OW21136   4.440   4.289   1.708
 6935SOL    HW121137   4.459   4.354   1.782
 6935SOL    HW221138   4.500   4.209   1.717
 6936SOL     OW21139   4.949   4.049   0.449
 6936SOL    HW121140   5.014   3.975   0.438
 6936SOL    HW221141   4.969   4.099   0.533
 6937SOL     OW21142   4.318   4.469   0.652
 6937SOL    HW121143   4.368   4.554   0.633
 6937SOL    HW221144   4.230   4.471   0.604
 6938SOL     OW21145   4.583   4.680   0.861
 6938SOL    HW121146   4.637   4.611   0.909
 6938SOL    HW221147   4.551   4.749   0.927
 6939SOL     OW21148   4.152   4.148   0.520
 6939SOL    HW121149   4.182   4.076   0.458
 6939SOL    HW221150   4.113   4.108   0.603
 6940SOL     OW21151   4.041   4.271   1.280
 6940SOL    HW121152   4.079   4.212   1.352
 6940SOL    HW221153   4.081   4.245   1.192
 6941SOL     OW21154   4.725   3.758   1.154
 6941SOL    HW121155   4.662   3.686   1.123
 6941SOL    HW221156   4.818   3.722   1.154
 6942SOL     OW21157   3.954   4.352   1.975
 6942SOL    HW121158   3.861   4.350   2.012
 6942SOL    HW221159   3.955   4.313   1.883
 6943SOL     OW21160   3.949   3.999   2.858
 6943SOL    HW121161   3.984   3.982   2.950
 6943SOL    HW221162   3.861   3.954   2.846
 6944SOL     OW21163   3.743   4.092   2.509
 6944SOL    HW121164   3.661   4.135   2.548
 6944SOL    HW221165   3.715   4.019   2.446
 6945SOL     OW21166   4.574   4.522   3.685
 6945SOL    HW121167   4.570   4.598   3.750
 6945SOL    HW221168   4.596   4.558   3.594
 6946SOL     OW21169   4.409   4.736   2.527
 6946SOL    HW121170   4.478   4.720   2.597
 6946SOL    HW221171   4.336   4.793   2.565
 6947SOL     OW21172   4.162   4.116   3.361
 6947SOL    HW121173   4.244   4.060   3.370
 6947SOL    HW221174   4.081   4.058   3.365
 6948SOL     OW21175   3.846   4.367   2.425
 6948SOL    HW121176   3.801   4.279   2.442
 6948SOL    HW221177   3.845   4.421   2.509
 6949SOL     OW21178   3.837   4.461   3.459
 6949SOL    HW121179   3.925   4.448   3.504
 6949SOL    HW221180   3.824   4.558   3.437
 6950SOL     OW21181   4.533   3.728   2.364
 6950SOL    HW121182   4.573   3.819   2.355
 6950SOL    HW221183   4.433   3.736   2.370
 6951SOL     OW21184   3.921   4.700   3.126
 6951SOL    HW121185   4.010   4.655   3.112
 6951SOL    HW221186   3.848   4.635   3.107
 6952SOL     OW21187   4.041   3.975   3.663
 6952SOL    HW121188   4.112   4.046   3.669
 6952SOL    HW221189   3.953   4.014   3.691
 6953SOL     OW21190   4.322   4.453   2.132
 6953SOL    HW121191   4.346   4.522   2.064
 6953SOL    HW221192   4.244   4.486   2.186
 6954SOL     OW21193   4.531   4.329   3.327
 6954SOL    HW121194   4.484   4.326   3.416
 6954SOL    HW221195   4.480   4.274   3.261
 6955SOL     OW21196   4.715   4.134   3.104
 6955SOL    HW121197   4.638   4.168   3.158
 6955SOL    HW221198   4.681   4.083   3.025
 6956SOL     OW21199   3.800   4.535   2.651
 6956SOL    HW121200   3.899   4.523   2.660
 6956SOL    HW221201   3.776   4.630   2.672
 6957SOL     OW21202   4.589   4.072   2.057
 6957SOL    HW121203   4.648   4.135   2.008
 6957SOL    HW221204   4.608   3.978   2.028
 6958SOL     OW21205   4.274   3.920   2.747
 6958SOL    HW121206   4.269   3.915   2.847
 6958SOL    HW221207   4.276   4.016   2.718
 6959SOL     OW21208   3.926   4.009   3.360
 6959SOL    HW121209   3.846   4.069   3.347
 6959SOL    HW221210   3.916   3.960   3.446
 6960SOL     OW21211   4.106   4.424   2.342
 6960SOL    HW121212   4.151   4.334   2.339
 6960SOL    HW221213   4.012   4.413   2.375
 6961SOL     OW21214   4.338   3.846   1.979
 6961SOL    HW121215   4.436   3.824   1.986
 6961SOL    HW221216   4.307   3.829   1.886
 6962SOL     OW21217   4.505   3.988   3.611
 6962SOL    HW121218   4.572   3.927   3.654
 6962SOL    HW221219   4.432   4.007   3.676
 6963SOL     OW21220   4.646   4.227   2.761
 6963SOL    HW121221   4.621   4.218   2.665
 6963SOL    HW221222   4.694   4.145   2.792
 6964SOL     OW21223   4.263   3.788   2.374
 6964SOL    HW121224   4.182   3.789   2.432
 6964SOL    HW221225   4.266   3.871   2.319
 6965SOL     OW21226   4.021   3.759   2.033
 6965SOL    HW121227   4.070   3.843   2.012
 6965SOL    HW221228   4.083   3.694   2.078
 6966SOL     OW21229   3.802   4.280   3.248
 6966SOL    HW121230   3.894   4.279   3.207
 6966SOL    HW221231   3.796   4.354   3.315
 6967SOL     OW21232   4.285   3.946   3.009
 6967SOL    HW121233   4.323   3.862   3.046
 6967SOL    HW221234   4.197   3.965   3.053
 6968SOL     OW21235   4.741   3.763   2.615
 6968SOL    HW121236   4.669   3.768   2.546
 6968SOL    HW221237   4.717   3.694   2.684
 6969SOL     OW21238   4.251   3.980   2.190
 6969SOL    HW121239   4.278   3.921   2.115
 6969SOL    HW221240   4.251   4.075   2.159
 6970SOL     OW21241   4.639   3.813   3.264
 6970SOL    HW121242   4.664   3.793   3.169
 6970SOL    HW221243   4.711   3.869   3.306
 6971SOL     OW21244   4.134   4.537   3.113
 6971SOL    HW121245   4.220   4.549   3.163
 6971SOL    HW221246   4.092   4.450   3.140
 6972SOL     OW21247   4.290   4.261   2.727
 6972SOL    HW121248   4.302   4.327   2.653
 6972SOL    HW221249   4.336   4.295   2.810
 6973SOL     OW21250   4.126   4.475   3.460
 6973SOL    HW121251   4.194   4.530   3.413
 6973SOL    HW221252   4.166   4.387   3.487
 6974SOL     OW21253   4.228   3.774   3.602
 6974SOL    HW121254   4.186   3.717   3.532
 6974SOL    HW221255   4.162   3.843   3.634
 6975SOL     OW21256   4.297   4.594   2.891
 6975SOL    HW121257   4.341   4.683   2.882
 6975SOL    HW221258   4.234   4.594   2.968
 6976SOL     OW21259   4.933   4.249   2.137
 6976SOL    HW121260   4.946   4.165   2.191
 6976SOL    HW221261   4.904   4.323   2.197
 6977SOL     OW21262   4.031   3.937   3.093
 6977SOL    HW121263   4.008   3.974   3.183
 6977SOL    HW221264   4.001   3.842   3.087
 6978SOL     OW21265   4.456   4.358   2.926
 6978SOL    HW121266   4.515   4.332   2.850
 6978SOL    HW221267   4.428   4.454   2.915
 6979SOL     OW21268   4.031   3.787   2.480
 6979SOL    HW121269   4.020   3.881   2.513
 6979SOL    HW221270   4.026   3.724   2.557
 6980SOL     OW21271   4.747   4.490   2.828
 6980SOL    HW121272   4.762   4.511   2.924
 6980SOL    HW221273   4.717   4.395   2.819
 6981SOL     OW21274   4.074   4.622   3.666
 6981SOL    HW121275   4.150   4.666   3.714
 6981SOL    HW221276   4.109   4.575   3.584
 6982SOL     OW21277   4.792   5.057   2.711
 6982SOL    HW121278   4.799   4.973   2.656
 6982SOL    HW221279   4.854   5.126   2.675
 6983SOL     OW21280   4.043   4.534   2.811
 6983SOL    HW121281   4.136   4.570   2.816
 6983SOL    HW221282   4.037   4.449   2.863
 6984SOL     OW21283   4.063   4.233   2.868
 6984SOL    HW121284   4.011   4.150   2.851
 6984SOL    HW221285   4.140   4.238   2.804
 6985SOL     OW21286   4.726   4.520   3.100
 6985SOL    HW121287   4.767   4.488   3.186
 6985SOL    HW221288   4.630   4.493   3.097
 6986SOL     OW21289   3.764   4.268   2.976
 6986SOL    HW121290   3.849   4.235   2.935
 6986SOL    HW221291   3.777   4.283   3.074
 6987SOL     OW21292   3.913   4.244   3.584
 6987SOL    HW121293   3.972   4.204   3.514
 6987SOL    HW221294   3.855   4.315   3.543
 6988SOL     OW21295   4.539   4.296   2.187
 6988SOL    HW121296   4.546   4.207   2.141
 6988SOL    HW221297   4.445   4.330   2.179
 6989SOL     OW21298   4.395   4.188   3.131
 6989SOL    HW121299   4.361   4.099   3.101
 6989SOL    HW221300   4.421   4.242   3.051
 6990SOL     OW21301   4.197   4.224   2.053
 6990SOL    HW121302   4.258   4.304   2.057
 6990SOL    HW221303   4.102   4.255   2.060
 6991SOL     OW21304   5.026   4.579   2.171
 6991SOL    HW121305   4.940   4.548   2.213
 6991SOL    HW221306   5.022   4.565   2.072
 6992SOL     OW21307   4.627   3.810   1.995
 6992SOL    HW121308   4.678   3.811   1.909
 6992SOL    HW221309   4.683   3.768   2.066
 6993SOL     OW21310   3.987   4.050   2.582
 6993SOL    HW121311   3.908   4.101   2.548
 6993SOL    HW221312   3.978   4.035   2.680
 6994SOL     OW21313   4.763   4.822   2.558
 6994SOL    HW121314   4.693   4.775   2.612
 6994SOL    HW221315   4.822   4.754   2.515
 6995SOL     OW21316   3.829   4.737   3.588
 6995SOL    HW121317   3.752   4.704   3.642
 6995SOL    HW221318   3.914   4.707   3.630
 6996SOL     OW21319   4.396   3.927   3.351
 6996SOL    HW121320   4.486   3.911   3.311
 6996SOL    HW221321   4.404   3.932   3.450
 6997SOL     OW21322   3.799   4.069   1.895
 6997SOL    HW121323   3.707   4.041   1.866
 6997SOL    HW221324   3.830   4.146   1.839
 6998SOL     OW21325   3.796   3.890   2.180
 6998SOL    HW121326   3.779   3.973   2.126
 6998SOL    HW221327   3.886   3.853   2.158
 6999SOL     OW21328   4.337   4.566   3.293
 6999SOL    HW121329   4.393   4.647   3.276
 6999SOL    HW221330   4.396   4.486   3.296
 7000SOL     OW21331   4.440   4.289   3.570
 7000SOL    HW121332   4.459   4.354   3.644
 7000SOL    HW221333   4.500   4.209   3.579
 7001SOL     OW21334   4.949   4.049   2.311
 7001SOL    HW121335   5.014   3.975   2.300
 7001SOL    HW221336   4.969   4.099   2.395
 7002SOL     OW21337   4.318   4.469   2.514
 7002SOL    HW121338   4.368   4.554   2.495
 7002SOL    HW221339   4.230   4.471   2.466
 7003SOL     OW21340   4.583   4.680   2.723
 7003SOL    HW121341   4.637   4.611   2.771
 7003SOL    HW221342   4.551   4.749   2.789
 7004SOL     OW21343   4.152   4.148   2.382
 7004SOL    HW121344   4.182   4.076   2.320
 7004SOL    HW221345   4.113   4.108   2.465
 7005SOL     OW21346   4.041   4.271   3.142
 7005SOL    HW121347   4.079   4.212   3.214
 7005SOL    HW221348   4.081   4.245   3.054
 7006SOL     OW21349   4.725   3.758   3.016
 7006SOL    HW121350   4.662   3.686   2.985
 7006SOL    HW221351   4.818   3.722   3.016
 7007SOL     OW21352   3.954   4.352   3.837
 7007SOL    HW121353   3.861   4.350   3.874
 7007SOL    HW221354   3.955   4.313   3.745
 7008SOL     OW21355   3.949   3.999   4.720
 7008SOL    HW121356   3.984   3.982   4.812
 7008SOL    HW221357   3.861   3.954   4.708
 7009SOL     OW21358   3.743   4.092   4.371
 7009SOL    HW121359   3.661   4.135   4.410
 7009SOL    HW221360   3.715   4.019   4.308
 7010SOL     OW21361   4.574   4.522   5.547
 7010SOL    HW121362   4.570   4.598   5.612
 7010SOL    HW221363   4.596   4.558   5.456
 7011SOL     OW21364   4.409   4.736   4.389
 7011SOL    HW121365   4.478   4.720   4.459
 7011SOL    HW221366   4.336   4.793   4.427
 7012SOL     OW21367   4.162   4.116   5.223
 7012SOL    HW121368   4.244   4.060   5.232
 7012SOL    HW221369   4.081   4.058   5.227
 7013SOL     OW21370   3.846   4.367   4.287
 7013SOL    HW121371   3.801   4.279   4.304
 7013SOL    HW221372   3.845   4.421   4.371
 7014SOL     OW21373   3.837   4.461   5.321
 7014SOL    HW121374   3.925   4.448   5.366
 7014SOL    HW221375   3.824   4.558   5.299
 7015SOL     OW21376   4.533   3.728   4.226
 7015SOL    HW121377   4.573   3.819   4.217
 7015SOL    HW221378   4.433   3.736   4.232
 7016SOL     OW21379   3.921   4.700   4.988
 7016SOL    HW121380   4.010   4.655   4.974
 7016SOL    HW221381   3.848   4.635   4.969
 7017SOL     OW21382   4.041   3.975   5.525
 7017SOL    HW121383   4.112   4.046   5.531
 7017SOL    HW221384   3.953   4.014   5.553
 7018SOL     OW21385   4.322   4.453   3.994
 7018SOL    HW121386   4.346   4.522   3.926
 7018SOL    HW221387   4.244   4.486   4.048
 7019SOL     OW21388   4.531   4.329   5.189
 7019SOL    HW121389   4.484   4.326   5.278
 7019SOL    HW221390   4.480   4.274   5.123
 7020SOL     OW21391   4.715   4.134   4.966
 7020SOL    HW121392   4.638   4.168   5.020
 7020SOL    HW221393   4.681   4.083   4.887
 7021SOL     OW21394   3.800   4.535   4.513
 7021SOL    HW121395   3.899   4.523   4.522
 7021SOL    HW221396   3.776   4.630   4.534
 7022SOL     OW21397   4.589   4.072   3.919
 7022SOL    HW121398   4.648   4.135   3.870
 7022SOL    HW221399   4.608   3.978   3.890
 7023SOL     OW21400   4.274   3.920   4.609
 7023SOL    HW121401   4.269   3.915   4.709
 7023SOL    HW221402   4.276   4.016   4.580
 7024SOL     OW21403   3.926   4.009   5.222
 7024SOL    HW121404   3.846   4.069   5.209
 7024SOL    HW221405   3.916   3.960   5.308
 7025SOL     OW21406   4.106   4.424   4.204
 7025SOL    HW121407   4.151   4.334   4.201
 7025SOL    HW221408   4.012   4.413   4.237
 7026SOL     OW21409   4.338   3.846   3.841
 7026SOL    HW121410   4.436   3.824   3.848
 7026SOL    HW221411   4.307   3.829   3.748
 7027SOL     OW21412   4.505   3.988   5.473
 7027SOL    HW121413   4.572   3.927   5.516
 7027SOL    HW221414   4.432   4.007   5.538
 7028SOL     OW21415   4.646   4.227   4.623
 7028SOL    HW121416   4.621   4.218   4.527
 7028SOL    HW221417   4.694   4.145   4.654
 7029SOL     OW21418   4.263   3.788   4.236
 7029SOL    HW121419   4.182   3.789   4.294
 7029SOL    HW221420   4.266   3.871   4.181
 7030SOL     OW21421   4.021   3.759   3.895
 7030SOL    HW121422   4.070   3.843   3.874
 7030SOL    HW221423   4.083   3.694   3.940
 7031SOL     OW21424   3.802   4.280   5.110
 7031SOL    HW121425   3.894   4.279   5.069
 7031SOL    HW221426   3.796   4.354   5.177
 7032SOL     OW21427   4.285   3.946   4.871
 7032SOL    HW121428   4.323   3.862   4.908
 7032SOL    HW221429   4.197   3.965   4.915
 7033SOL     OW21430   4.741   3.763   4.477
 7033SOL    HW121431   4.669   3.768   4.408
 7033SOL    HW221432   4.717   3.694   4.546
 7034SOL     OW21433   4.251   3.980   4.052
 7034SOL    HW121434   4.278   3.921   3.977
 7034SOL    HW221435   4.251   4.075   4.021
 7035SOL     OW21436   4.639   3.813   5.126
 7035SOL    HW121437   4.664   3.793   5.031
 7035SOL    HW221438   4.711   3.869   5.168
 7036SOL     OW21439   4.134   4.537   4.975
 7036SOL    HW121440   4.220   4.549   5.025
 7036SOL    HW221441   4.092   4.450   5.002
 7037SOL     OW21442   4.290   4.261   4.589
 7037SOL    HW121443   4.302   4.327   4.515
 7037SOL    HW221444   4.336   4.295   4.672
 7038SOL     OW21445   4.126   4.475   5.322
 7038SOL    HW121446   4.194   4.530   5.275
 7038SOL    HW221447   4.166   4.387   5.349
 7039SOL     OW21448   4.228   3.774   5.464
 7039SOL    HW121449   4.186   3.717   5.394
 7039SOL    HW221450   4.162   3.843   5.496
 7040SOL     OW21451   4.297   4.594   4.753
 7040SOL    HW121452   4.341   4.683   4.744
 7040SOL    HW221453   4.234   4.594   4.830
 7041SOL     OW21454   4.933   4.249   3.999
 7041SOL    HW121455   4.946   4.165   4.053
 7041SOL    HW221456   4.904   4.323   4.059
 7042SOL     OW21457   4.031   3.937   4.955
 7042SOL    HW121458   4.008   3.974   5.045
 7042SOL    HW221459   4.001   3.842   4.949
 7043SOL     OW21460   4.456   4.358   4.788
 7043SOL    HW121461   4.515   4.332   4.712
 7043SOL    HW221462   4.428   4.454   4.777
 7044SOL     OW21463   4.031   3.787   4.342
 7044SOL    HW121464   4.020   3.881   4.375
 7044SOL    HW221465   4.026   3.724   4.419
 7045SOL     OW21466   4.747   4.490   4.690
 7045SOL    HW121467   4.762   4.511   4.786
 7045SOL    HW221468   4.717   4.395   4.681
 7046SOL     OW21469   4.074   4.622   5.528
 7046SOL    HW121470   4.150   4.666   5.576
 7046SOL    HW221471   4.109   4.575   5.446
 7047SOL     OW21472   4.792   5.057   4.573
 7047SOL    HW121473   4.799   4.973   4.518
 7047SOL    HW221474   4.854   5.126   4.537
 7048SOL     OW21475   4.043   4.534   4.673
 7048SOL    HW121476   4.136   4.570   4.678
 7048SOL    HW221477   4.037   4.449   4.725
 7049SOL     OW21478   4.063   4.233   4.730
 7049SOL    HW121479   4.011   4.150   4.713
 7049SOL    HW221480   4.140   4.238   4.666
 7050SOL     OW21481   4.726   4.520   4.962
 7050SOL    HW121482   4.767   4.488   5.048
 7050SOL    HW221483   4.630   4.493   4.959
 7051SOL     OW21484   3.764   4.268   4.838
 7051SOL    HW121485   3.849   4.235   4.797
 7051SOL    HW221486   3.777   4.283   4.936
 7052SOL     OW21487   3.913   4.244   5.446
 7052SOL    HW121488   3.972   4.204   5.376
 7052SOL    HW221489   3.855   4.315   5.405
 7053SOL     OW21490   4.539   4.296   4.049
 7053SOL    HW121491   4.546   4.207   4.003
 7053SOL    HW221492   4.445   4.330   4.041
 7054SOL     OW21493   4.395   4.188   4.993
 7054SOL    HW121494   4.361   4.099   4.963
 7054SOL    HW221495   4.421   4.242   4.913
 7055SOL     OW21496   4.197   4.224   3.915
 7055SOL    HW121497   4.258   4.304   3.919
 7055SOL    HW221498   4.102   4.255   3.922
 7056SOL     OW21499   5.026   4.579   4.033
 7056SOL    HW121500   4.940   4.548   4.075
 7056SOL    HW221501   5.022   4.565   3.934
 7057SOL     OW21502   4.627   3.810   3.857
 7057SOL    HW121503   4.678   3.811   3.771
 7057SOL    HW221504   4.683   3.768   3.928
 7058SOL     OW21505   3.987   4.050   4.444
 7058SOL    HW121506   3.908   4.101   4.410
 7058SOL    HW221507   3.978   4.035   4.542
 7059SOL     OW21508   4.763   4.822   4.420
 7059SOL    HW121509   4.693   4.775   4.474
 7059SOL    HW221510   4.822   4.754   4.377
 7060SOL     OW21511   3.829   4.737   5.450
 7060SOL    HW121512   3.752   4.704   5.504
 7060SOL    HW221513   3.914   4.707   5.492
 7061SOL     OW21514   4.396   3.927   5.213
 7061SOL    HW121515   4.486   3.911   5.173
 7061SOL    HW221516   4.404   3.932   5.312
 7062SOL     OW21517   3.799   4.069   3.757
 7062SOL    HW121518   3.707   4.041   3.728
 7062SOL    HW221519   3.830   4.146   3.701
 7063SOL     OW21520   3.796   3.890   4.042
 7063SOL    HW121521   3.779   3.973   3.988
 7063SOL    HW221522   3.886   3.853   4.020
 7064SOL     OW21523   4.337   4.566   5.155
 7064SOL    HW121524   4.393   4.647   5.138
 7064SOL    HW221525   4.396   4.486   5.158
 7065SOL     OW21526   4.440   4.289   5.432
 7065SOL    HW121527   4.459   4.354   5.506
 7065SOL    HW221528   4.500   4.209   5.441
 7066SOL     OW21529   4.949   4.049   4.173
 7066SOL    HW121530   5.014   3.975   4.162
 7066SOL    HW221531   4.969   4.099   4.257
 7067SOL     OW21532   4.318   4.469   4.376
 7067SOL    HW121533   4.368   4.554   4.357
 7067SOL    HW221534   4.230   4.471   4.328
 7068SOL     OW21535   4.583   4.680   4.585
 7068SOL    HW121536   4.637   4.611   4.633
 7068SOL    HW221537   4.551   4.749   4.651
 7069SOL     OW21538   4.152   4.148   4.244
 7069SOL    HW121539   4.182   4.076   4.182
 7069SOL    HW221540   4.113   4.108   4.327
 7070SOL     OW21541   4.041   4.271   5.004
 7070SOL    HW121542   4.079   4.212   5.076
 7070SOL    HW221543   4.081   4.245   4.916
 7071SOL     OW21544   4.725   3.758   4.878
 7071SOL    HW121545   4.662   3.686   4.847
 7071SOL    HW221546   4.818   3.722   4.878
 7072SOL     OW21547   3.954   4.352   5.699
 7072SOL    HW121548   3.861   4.350   5.736
 7072SOL    HW221549   3.955   4.313   5.607
 7073SOL     OW21550   3.949   3.999   6.582
 7073SOL    HW121551   3.984   3.982   6.674
 7073SOL    HW221552   3.861   3.954   6.570
 7074SOL     OW21553   3.743   4.092   6.233
 7074SOL    HW121554   3.661   4.135   6.272
 7074SOL    HW221555   3.715   4.019   6.170
 7075SOL     OW21556   4.574   4.522   7.409
 7075SOL    HW121557   4.570   4.598   7.474
 7075SOL    HW221558   4.596   4.558   7.318
 7076SOL     OW21559   4.409   4.736   6.251
 7076SOL    HW121560   4.478   4.720   6.321
 7076SOL    HW221561   4.336   4.793   6.289
 7077SOL     OW21562   4.162   4.116   7.085
 7077SOL    HW121563   4.244   4.060   7.094
 7077SOL    HW221564   4.081   4.058   7.089
 7078SOL     OW21565   3.846   4.367   6.149
 7078SOL    HW121566   3.801   4.279   6.166
 7078SOL    HW221567   3.845   4.421   6.233
 7079SOL     OW21568   3.837   4.461   7.183
 7079SOL    HW121569   3.925   4.448   7.228
 7079SOL    HW221570   3.824   4.558   7.161
 7080SOL     OW21571   4.533   3.728   6.088
 7080SOL    HW121572   4.573   3.819   6.079
 7080SOL    HW221573   4.433   3.736   6.094
 7081SOL     OW21574   3.921   4.700   6.850
 7081SOL    HW121575   4.010   4.655   6.836
 7081SOL    HW221576   3.848   4.635   6.831
 7082SOL     OW21577   4.041   3.975   7.387
 7082SOL    HW121578   4.112   4.046   7.393
 7082SOL    HW221579   3.953   4.014   7.415
 7083SOL     OW21580   4.322   4.453   5.856
 7083SOL    HW121581   4.346   4.522   5.788
 7083SOL    HW221582   4.244   4.486   5.910
 7084SOL     OW21583   4.531   4.329   7.051
 7084SOL    HW121584   4.484   4.326   7.140
 7084SOL    HW221585   4.480   4.274   6.985
 7085SOL     OW21586   4.715   4.134   6.828
 7085SOL    HW121587   4.638   4.168   6.882
 7085SOL    HW221588   4.681   4.083   6.749
 7086SOL     OW21589   3.800   4.535   6.375
 7086SOL    HW121590   3.899   4.523   6.384
 7086SOL    HW221591   3.776   4.630   6.396
 7087SOL     OW21592   4.589   4.072   5.781
 7087SOL    HW121593   4.648   4.135   5.732
 7087SOL    HW221594   4.608   3.978   5.752
 7088SOL     OW21595   4.274   3.920   6.471
 7088SOL    HW121596   4.269   3.915   6.571
 7088SOL    HW221597   4.276   4.016   6.442
 7089SOL     OW21598   3.926   4.009   7.084
 7089SOL    HW121599   3.846   4.069   7.071
 7089SOL    HW221600   3.916   3.960   7.170
 7090SOL     OW21601   4.106   4.424   6.066
 7090SOL    HW121602   4.151   4.334   6.063
 7090SOL    HW221603   4.012   4.413   6.099
 7091SOL     OW21604   4.338   3.846   5.703
 7091SOL    HW121605   4.436   3.824   5.710
 7091SOL    HW221606   4.307   3.829   5.610
 7092SOL     OW21607   4.505   3.988   7.335
 7092SOL    HW121608   4.572   3.927   7.378
 7092SOL    HW221609   4.432   4.007   7.400
 7093SOL     OW21610   4.646   4.227   6.485
 7093SOL    HW121611   4.621   4.218   6.389
 7093SOL    HW221612   4.694   4.145   6.516
 7094SOL     OW21613   4.263   3.788   6.098
 7094SOL    HW121614   4.182   3.789   6.156
 7094SOL    HW221615   4.266   3.871   6.043
 7095SOL     OW21616   4.021   3.759   5.757
 7095SOL    HW121617   4.070   3.843   5.736
 7095SOL    HW221618   4.083   3.694   5.802
 7096SOL     OW21619   3.802   4.280   6.972
 7096SOL    HW121620   3.894   4.279   6.931
 7096SOL    HW221621   3.796   4.354   7.039
 7097SOL     OW21622   4.285   3.946   6.733
 7097SOL    HW121623   4.323   3.862   6.770
 7097SOL    HW221624   4.197   3.965   6.777
 7098SOL     OW21625   4.741   3.763   6.339
 7098SOL    HW121626   4.669   3.768   6.270
 7098SOL    HW221627   4.717   3.694   6.408
 7099SOL     OW21628   4.251   3.980   5.914
 7099SOL    HW121629   4.278   3.921   5.839
 7099SOL    HW221630   4.251   4.075   5.883
 7100SOL     OW21631   4.639   3.813   6.988
 7100SOL    HW121632   4.664   3.793   6.893
 7100SOL    HW221633   4.711   3.869   7.030
 7101SOL     OW21634   4.134   4.537   6.837
 7101SOL    HW121635   4.220   4.549   6.887
 7101SOL    HW221636   4.092   4.450   6.864
 7102SOL     OW21637   4.290   4.261   6.451
 7102SOL    HW121638   4.302   4.327   6.377
 7102SOL    HW221639   4.336   4.295   6.534
 7103SOL     OW21640   4.126   4.475   7.184
 7103SOL    HW121641   4.194   4.530   7.137
 7103SOL    HW221642   4.166   4.387   7.211
 7104SOL     OW21643   4.228   3.774   7.326
 7104SOL    HW121644   4.186   3.717   7.256
 7104SOL    HW221645   4.162   3.843   7.358
 7105SOL     OW21646   4.297   4.594   6.615
 7105SOL    HW121647   4.341   4.683   6.606
 7105SOL    HW221648   4.234   4.594   6.692
 7106SOL     OW21649   4.933   4.249   5.861
 7106SOL    HW121650   4.946   4.165   5.915
 7106SOL    HW221651   4.904   4.323   5.921
 7107SOL     OW21652   4.031   3.937   6.817
 7107SOL    HW121653   4.008   3.974   6.907
 7107SOL    HW221654   4.001   3.842   6.811
 7108SOL     OW21655   4.456   4.358   6.650
 7108SOL    HW121656   4.515   4.332   6.574
 7108SOL    HW221657   4.428   4.454   6.639
 7109SOL     OW21658   4.031   3.787   6.204
 7109SOL    HW121659   4.020   3.881   6.237
 7109SOL    HW221660   4.026   3.724   6.281
 7110SOL     OW21661   4.747   4.490   6.552
 7110SOL    HW121662   4.762   4.511   6.648
 7110SOL    HW221663   4.717   4.395   6.543
 7111SOL     OW21664   4.074   4.622   7.390
 7111SOL    HW121665   4.150   4.666   7.438
 7111SOL    HW221666   4.109   4.575   7.308
 7112SOL     OW21667   4.792   5.057   6.435
 7112SOL    HW121668   4.799   4.973   6.380
 7112SOL    HW221669   4.854   5.126   6.399
 7113SOL     OW21670   4.043   4.534   6.535
 7113SOL    HW121671   4.136   4.570   6.540
 7113SOL    HW221672   4.037   4.449   6.587
 7114SOL     OW21673   4.063   4.233   6.592
 7114SOL    HW121674   4.011   4.150   6.575
 7114SOL    HW221675   4.140   4.238   6.528
 7115SOL     OW21676   4.726   4.520   6.824
 7115SOL    HW121677   4.767   4.488   6.910
 7115SOL    HW221678   4.630   4.493   6.821
 7116SOL     OW21679   3.764   4.268   6.700
 7116SOL    HW121680   3.849   4.235   6.659
 7116SOL    HW221681   3.777   4.283   6.798
 7117SOL     OW21682   3.913   4.244   7.308
 7117SOL    HW121683   3.972   4.204   7.238
 7117SOL    HW221684   3.855   4.315   7.267
 7118SOL     OW21685   4.539   4.296   5.911
 7118SOL    HW121686   4.546   4.207   5.865
 7118SOL    HW221687   4.445   4.330   5.903
 7119SOL     OW21688   4.395   4.188   6.855
 7119SOL    HW121689   4.361   4.099   6.825
 7119SOL    HW221690   4.421   4.242   6.775
 7120SOL     OW21691   4.197   4.224   5.777
 7120SOL    HW121692   4.258   4.304   5.781
 7120SOL    HW221693   4.102   4.255   5.784
 7121SOL     OW21694   5.026   4.579   5.895
 7121SOL    HW121695   4.940   4.548   5.937
 7121SOL    HW221696   5.022   4.565   5.796
 7122SOL     OW21697   4.627   3.810   5.719
 7122SOL    HW121698   4.678   3.811   5.633
 7122SOL    HW221699   4.683   3.768   5.790
 7123SOL     OW21700   3.987   4.050   6.306
 7123SOL    HW121701   3.908   4.101   6.272
 7123SOL    HW221702   3.978   4.035   6.404
 7124SOL     OW21703   4.763   4.822   6.282
 7124SOL    HW121704   4.693   4.775   6.336
 7124SOL    HW221705   4.822   4.754   6.239
 7125SOL     OW21706   3.829   4.737   7.312
 7125SOL    HW121707   3.752   4.704   7.366
 7125SOL    HW221708   3.914   4.707   7.354
 7126SOL     OW21709   4.396   3.927   7.075
 7126SOL    HW121710   4.486   3.911   7.035
 7126SOL    HW221711   4.404   3.932   7.174
 7127SOL     OW21712   3.799   4.069   5.619
 7127SOL    HW121713   3.707   4.041   5.590
 7127SOL    HW221714   3.830   4.146   5.563
 7128SOL     OW21715   3.796   3.890   5.904
 7128SOL    HW121716   3.779   3.973   5.850
 7128SOL    HW221717   3.886   3.853   5.882
 7129SOL     OW21718   4.337   4.566   7.017
 7129SOL    HW121719   4.393   4.647   7.000
 7129SOL    HW221720   4.396   4.486   7.020
 7130SOL     OW21721   4.440   4.289   7.294
 7130SOL    HW121722   4.459   4.354   7.368
 7130SOL    HW221723   4.500   4.209   7.303
 7131SOL     OW21724   4.949   4.049   6.035
 7131SOL    HW121725   5.014   3.975   6.024
 7131SOL    HW221726   4.969   4.099   6.119
 7132SOL     OW21727   4.318   4.469   6.238
 7132SOL    HW121728   4.368   4.554   6.219
 7132SOL    HW221729   4.230   4.471   6.190
 7133SOL     OW21730   4.583   4.680   6.447
 7133SOL    HW121731   4.637   4.611   6.495
 7133SOL    HW221732   4.551   4.749   6.513
 7134SOL     OW21733   4.152   4.148   6.106
 7134SOL    HW121734   4.182   4.076   6.044
 7134SOL    HW221735   4.113   4.108   6.189
 7135SOL     OW21736   4.041   4.271   6.866
 7135SOL    HW121737   4.079   4.212   6.938
 7135SOL    HW221738   4.081   4.245   6.778
 7136SOL     OW21739   4.725   3.758   6.740
 7136SOL    HW121740   4.662   3.686   6.709
 7136SOL    HW221741   4.818   3.722   6.740
 7137SOL     OW21742   3.954   4.352   7.561
 7137SOL    HW121743   3.861   4.350   7.598
 7137SOL    HW221744   3.955   4.313   7.469
 7138SOL     OW21745   3.949   3.999   8.444
 7138SOL    HW121746   3.984   3.982   8.536
 7138SOL    HW221747   3.861   3.954   8.432
 7139SOL     OW21748   3.743   4.092   8.095
 7139SOL    HW121749   3.661   4.135   8.134
 7139SOL    HW221750   3.715   4.019   8.032
 7140SOL     OW21751   4.574   4.522   9.271
 7140SOL    HW121752   4.570   4.598   9.336
 7140SOL    HW221753   4.596   4.558   9.180
 7141SOL     OW21754   4.409   4.736   8.113
 7141SOL    HW121755   4.478   4.720   8.183
 7141SOL    HW221756   4.336   4.793   8.151
 7142SOL     OW21757   4.162   4.116   8.947
 7142SOL    HW121758   4.244   4.060   8.956
 7142SOL    HW221759   4.081   4.058   8.951
 7143SOL     OW21760   3.846   4.367   8.011
 7143SOL    HW121761   3.801   4.279   8.028
 7143SOL    HW221762   3.845   4.421   8.095
 7144SOL     OW21763   3.837   4.461   9.045
 7144SOL    HW121764   3.925   4.448   9.090
 7144SOL    HW221765   3.824   4.558   9.023
 7145SOL     OW21766   4.533   3.728   7.950
 7145SOL    HW121767   4.573   3.819   7.941
 7145SOL    HW221768   4.433   3.736   7.956
 7146SOL     OW21769   3.921   4.700   8.712
 7146SOL    HW121770   4.010   4.655   8.698
 7146SOL    HW221771   3.848   4.635   8.693
 7147SOL     OW21772   4.041   3.975   9.249
 7147SOL    HW121773   4.112   4.046   9.255
 7147SOL    HW221774   3.953   4.014   9.277
 7148SOL     OW21775   4.322   4.453   7.718
 7148SOL    HW121776   4.346   4.522   7.650
 7148SOL    HW221777   4.244   4.486   7.772
 7149SOL     OW21778   4.531   4.329   8.913
 7149SOL    HW121779   4.484   4.326   9.002
 7149SOL    HW221780   4.480   4.274   8.847
 7150SOL     OW21781   4.715   4.134   8.690
 7150SOL    HW121782   4.638   4.168   8.744
 7150SOL    HW221783   4.681   4.083   8.611
 7151SOL     OW21784   3.800   4.535   8.237
 7151SOL    HW121785   3.899   4.523   8.246
 7151SOL    HW221786   3.776   4.630   8.258
 7152SOL     OW21787   4.589   4.072   7.643
 7152SOL    HW121788   4.648   4.135   7.594
 7152SOL    HW221789   4.608   3.978   7.614
 7153SOL     OW21790   4.274   3.920   8.333
 7153SOL    HW121791   4.269   3.915   8.433
 7153SOL    HW221792   4.276   4.016   8.304
 7154SOL     OW21793   3.926   4.009   8.946
 7154SOL    HW121794   3.846   4.069   8.933
 7154SOL    HW221795   3.916   3.960   9.032
 7155SOL     OW21796   4.106   4.424   7.928
 7155SOL    HW121797   4.151   4.334   7.925
 7155SOL    HW221798   4.012   4.413   7.961
 7156SOL     OW21799   4.338   3.846   7.565
 7156SOL    HW121800   4.436   3.824   7.572
 7156SOL    HW221801   4.307   3.829   7.472
 7157SOL     OW21802   4.505   3.988   9.197
 7157SOL    HW121803   4.572   3.927   9.240
 7157SOL    HW221804   4.432   4.007   9.262
 7158SOL     OW21805   4.646   4.227   8.347
 7158SOL    HW121806   4.621   4.218   8.251
 7158SOL    HW221807   4.694   4.145   8.378
 7159SOL     OW21808   4.263   3.788   7.960
 7159SOL    HW121809   4.182   3.789   8.018
 7159SOL    HW221810   4.266   3.871   7.905
 7160SOL     OW21811   4.021   3.759   7.619
 7160SOL    HW121812   4.070   3.843   7.598
 7160SOL    HW221813   4.083   3.694   7.664
 7161SOL     OW21814   3.802   4.280   8.834
 7161SOL    HW121815   3.894   4.279   8.793
 7161SOL    HW221816   3.796   4.354   8.901
 7162SOL     OW21817   4.285   3.946   8.595
 7162SOL    HW121818   4.323   3.862   8.632
 7162SOL    HW221819   4.197   3.965   8.639
 7163SOL     OW21820   4.741   3.763   8.201
 7163SOL    HW121821   4.669   3.768   8.132
 7163SOL    HW221822   4.717   3.694   8.270
 7164SOL     OW21823   4.251   3.980   7.776
 7164SOL    HW121824   4.278   3.921   7.701
 7164SOL    HW221825   4.251   4.075   7.745
 7165SOL     OW21826   4.639   3.813   8.850
 7165SOL    HW121827   4.664   3.793   8.755
 7165SOL    HW221828   4.711   3.869   8.892
 7166SOL     OW21829   4.134   4.537   8.699
 7166SOL    HW121830   4.220   4.549   8.749
 7166SOL    HW221831   4.092   4.450   8.726
 7167SOL     OW21832   4.290   4.261   8.313
 7167SOL    HW121833   4.302   4.327   8.239
 7167SOL    HW221834   4.336   4.295   8.396
 7168SOL     OW21835   4.126   4.475   9.046
 7168SOL    HW121836   4.194   4.530   8.999
 7168SOL    HW221837   4.166   4.387   9.073
 7169SOL     OW21838   4.228   3.774   9.188
 7169SOL    HW121839   4.186   3.717   9.118
 7169SOL    HW221840   4.162   3.843   9.220
 7170SOL     OW21841   4.297   4.594   8.477
 7170SOL    HW121842   4.341   4.683   8.468
 7170SOL    HW221843   4.234   4.594   8.554
 7171SOL     OW21844   4.933   4.249   7.723
 7171SOL    HW121845   4.946   4.165   7.777
 7171SOL    HW221846   4.904   4.323   7.783
 7172SOL     OW21847   4.031   3.937   8.679
 7172SOL    HW121848   4.008   3.974   8.769
 7172SOL    HW221849   4.001   3.842   8.673
 7173SOL     OW21850   4.456   4.358   8.512
 7173SOL    HW121851   4.515   4.332   8.436
 7173SOL    HW221852   4.428   4.454   8.501
 7174SOL     OW21853   4.031   3.787   8.066
 7174SOL    HW121854   4.020   3.881   8.099
 7174SOL    HW221855   4.026   3.724   8.143
 7175SOL     OW21856   4.747   4.490   8.414
 7175SOL    HW121857   4.762   4.511   8.510
 7175SOL    HW221858   4.717   4.395   8.405
 7176SOL     OW21859   4.074   4.622   9.252
 7176SOL    HW121860   4.150   4.666   9.300
 7176SOL    HW221861   4.109   4.575   9.170
 7177SOL     OW21862   4.792   5.057   8.297
 7177SOL    HW121863   4.799   4.973   8.242
 7177SOL    HW221864   4.854   5.126   8.261
 7178SOL     OW21865   4.043   4.534   8.397
 7178SOL    HW121866   4.136   4.570   8.402
 7178SOL    HW221867   4.037   4.449   8.449
 7179SOL     OW21868   4.063   4.233   8.454
 7179SOL    HW121869   4.011   4.150   8.437
 7179SOL    HW221870   4.140   4.238   8.390
 7180SOL     OW21871   4.726   4.520   8.686
 7180SOL    HW121872   4.767   4.488   8.772
 7180SOL    HW221873   4.630   4.493   8.683
 7181SOL     OW21874   3.764   4.268   8.562
 7181SOL    HW121875   3.849   4.235   8.521
 7181SOL    HW221876   3.777   4.283   8.660
 7182SOL     OW21877   3.913   4.244   9.170
 7182SOL    HW121878   3.972   4.204   9.100
 7182SOL    HW221879   3.855   4.315   9.129
 7183SOL     OW21880   4.539   4.296   7.773
 7183SOL    HW121881   4.546   4.207   7.727
 7183SOL    HW221882   4.445   4.330   7.765
 7184SOL     OW21883   4.395   4.188   8.717
 7184SOL    HW121884   4.361   4.099   8.687
 7184SOL    HW221885   4.421   4.242   8.637
 7185SOL     OW21886   4.197   4.224   7.639
 7185SOL    HW121887   4.258   4.304   7.643
 7185SOL    HW221888   4.102   4.255   7.646
 7186SOL     OW21889   5.026   4.579   7.757
 7186SOL    HW121890   4.940   4.548   7.799
 7186SOL    HW221891   5.022   4.565   7.658
 7187SOL     OW21892   4.627   3.810   7.581
 7187SOL    HW121893   4.678   3.811   7.495
 7187SOL    HW221894   4.683   3.768   7.652
 7188SOL     OW21895   3.987   4.050   8.168
 7188SOL    HW121896   3.908   4.101   8.134
 7188SOL    HW221897   3.978   4.035   8.266
 7189SOL     OW21898   4.763   4.822   8.144
 7189SOL    HW121899   4.693   4.775   8.198
 7189SOL    HW221900   4.822   4.754   8.101
 7190SOL     OW21901   3.829   4.737   9.174
 7190SOL    HW121902   3.752   4.704   9.228
 7190SOL    HW221903   3.914   4.707   9.216
 7191SOL     OW21904   4.396   3.927   8.937
 7191SOL    HW121905   4.486   3.911   8.897
 7191SOL    HW221906   4.404   3.932   9.036
 7192SOL     OW21907   3.799   4.069   7.481
 7192SOL    HW121908   3.707   4.041   7.452
 7192SOL    HW221909   3.830   4.146   7.425
 7193SOL     OW21910   3.796   3.890   7.766
 7193SOL    HW121911   3.779   3.973   7.712
 7193SOL    HW221912   3.886   3.853   7.744
 7194SOL     OW21913   4.337   4.566   8.879
 7194SOL    HW121914   4.393   4.647   8.862
 7194SOL    HW221915   4.396   4.486   8.882
 7195SOL     OW21916   4.440   4.289   9.156
 7195SOL    HW121917   4.459   4.354   9.230
 7195SOL    HW221918   4.500   4.209   9.165
 7196SOL     OW21919   4.949   4.049   7.897
 7196SOL    HW121920   5.014   3.975   7.886
 7196SOL    HW221921   4.969   4.099   7.981
 7197SOL     OW21922   4.318   4.469   8.100
 7197SOL    HW121923   4.368   4.554   8.081
 7197SOL    HW221924   4.230   4.471   8.052
 7198SOL     OW21925   4.583   4.680   8.309
 7198SOL    HW121926   4.637   4.611   8.357
 7198SOL    HW221927   4.551   4.749   8.375
 7199SOL     OW21928   4.152   4.148   7.968
 7199SOL    HW121929   4.182   4.076   7.906
 7199SOL    HW221930   4.113   4.108   8.051
 7200SOL     OW21931   4.041   4.271   8.728
 7200SOL    HW121932   4.079   4.212   8.800
 7200SOL    HW221933   4.081   4.245   8.640
 7201SOL     OW21934   4.725   3.758   8.602
 7201SOL    HW121935   4.662   3.686   8.571
 7201SOL    HW221936   4.818   3.722   8.602
 7202SOL     OW21937   3.954   4.352   9.423
 7202SOL    HW121938   3.861   4.350   9.460
 7202SOL    HW221939   3.955   4.313   9.331
 7203SOL     OW21940   3.846   4.367   9.873
 7203SOL    HW121941   3.801   4.279   9.890
 7203SOL    HW221942   3.845   4.421   9.957
 7204SOL     OW21943   4.533   3.728   9.812
 7204SOL    HW121944   4.573   3.819   9.803
 7204SOL    HW221945   4.433   3.736   9.818
 7205SOL     OW21946   4.322   4.453   9.580
 7205SOL    HW121947   4.346   4.522   9.512
 7205SOL    HW221948   4.244   4.486   9.634
 7206SOL     OW21949   3.800   4.535  10.099
 7206SOL    HW121950   3.899   4.523  10.108
 7206SOL    HW221951   3.776   4.630  10.120
 7207SOL     OW21952   4.589   4.072   9.505
 7207SOL    HW121953   4.648   4.135   9.456
 7207SOL    HW221954   4.608   3.978   9.476
 7208SOL     OW21955   4.106   4.424   9.790
 7208SOL    HW121956   4.151   4.334   9.787
 7208SOL    HW221957   4.012   4.413   9.823
 7209SOL     OW21958   4.338   3.846   9.427
 7209SOL    HW121959   4.436   3.824   9.434
 7209SOL    HW221960   4.307   3.829   9.334
 7210SOL     OW21961   4.263   3.788   9.822
 7210SOL    HW121962   4.182   3.789   9.880
 7210SOL    HW221963   4.266   3.871   9.767
 7211SOL     OW21964   4.021   3.759   9.481
 7211SOL    HW121965   4.070   3.843   9.460
 7211SOL    HW221966   4.083   3.694   9.526
 7212SOL     OW21967   4.659   3.960   9.790
 7212SOL    HW121968   4.611   4.001   9.712
 7212SOL    HW221969   4.758   3.958   9.771
 7213SOL     OW21970   4.590   4.178   9.952
 7213SOL    HW121971   4.558   4.250   9.890
 7213SOL    HW221972   4.614   4.097   9.899
 7214SOL     OW21973   4.251   3.980   9.638
 7214SOL    HW121974   4.278   3.921   9.563
 7214SOL    HW221975   4.251   4.075   9.607
 7215SOL     OW21976   4.933   4.249   9.585
 7215SOL    HW121977   4.946   4.165   9.639
 7215SOL    HW221978   4.904   4.323   9.645
 7216SOL     OW21979   4.031   3.787   9.928
 7216SOL    HW121980   4.020   3.881   9.961
 7216SOL    HW221981   4.026   3.724  10.005
 7217SOL     OW21982   4.043   4.534  10.259
 7217SOL    HW121983   4.136   4.570  10.264
 7217SOL    HW221984   4.037   4.449  10.311
 7218SOL     OW21985   4.539   4.296   9.635
 7218SOL    HW121986   4.546   4.207   9.589
 7218SOL    HW221987   4.445   4.330   9.627
 7219SOL     OW21988   4.197   4.224   9.501
 7219SOL    HW121989   4.258   4.304   9.505
 7219SOL    HW221990   4.102   4.255   9.508
 7220SOL     OW21991   5.026   4.579   9.619
 7220SOL    HW121992   4.940   4.548   9.661
 7220SOL    HW221993   5.022   4.565   9.520
 7221SOL     OW21994   4.627   3.810   9.443
 7221SOL    HW121995   4.678   3.811   9.357
 7221SOL    HW221996   4.683   3.768   9.514
 7222SOL     OW21997   3.799   4.069   9.343
 7222SOL    HW121998   3.707   4.041   9.314
 7222SOL    HW221999   3.830   4.146   9.287
 7223SOL     OW22000   3.796   3.890   9.628
 7223SOL    HW122001   3.779   3.973   9.574
 7223SOL    HW222002   3.886   3.853   9.606
 7224SOL     OW22003   4.949   4.049   9.759
 7224SOL    HW122004   5.014   3.975   9.748
 7224SOL    HW222005   4.969   4.099   9.843
 7225SOL     OW22006   4.318   4.469   9.962
 7225SOL    HW122007   4.368   4.554   9.943
 7225SOL    HW222008   4.230   4.471   9.914
 7226SOL     OW22009   4.152   4.148   9.830
 7226SOL    HW122010   4.182   4.076   9.768
 7226SOL    HW222011   4.113   4.108   9.913
   4.74000   4.74000  10.00000
