Built with Packmol
22242
    1LIG      O    1   1.977   1.970   0.066
    1LIG      C    2   2.042   2.020   0.217
    1LIG     C1    3   1.971   1.967   0.377
    1LIG     O1    4   2.035   2.017   0.530
    1LIG     C2    5   1.970   1.968   0.681
    1LIG     C3    6   2.041   2.023   0.838
    1LIG     O2    7   1.977   1.975   0.990
    1LIG     C4    8   2.040   2.025   1.142
    1LIG     C5    9   1.968   1.970   1.300
    1LIG     O3   10   2.031   2.020   1.452
    1LIG     C6   11   1.966   1.971   1.603
    1LIG     C7   12   2.038   2.027   1.760
    1LIG     O4   13   1.974   1.979   1.913
    1LIG     C8   14   2.038   2.029   2.065
    1LIG     C9   15   1.965   1.973   2.221
    1LIG     O5   16   2.029   2.023   2.373
    1LIG    C10   17   1.965   1.974   2.525
    1LIG    C11   18   2.037   2.030   2.682
    1LIG     O6   19   1.973   1.981   2.833
    1LIG    C12   20   2.036   2.030   2.985
    1LIG    C13   21   1.963   1.975   3.142
    1LIG     O7   22   2.027   2.024   3.294
    1LIG    C14   23   1.963   1.975   3.446
    1LIG    C15   24   2.035   2.030   3.604
    1LIG     O8   25   1.971   1.981   3.757
    1LIG    C16   26   2.035   2.031   3.908
    1LIG    C17   27   1.964   1.976   4.066
    1LIG     O9   28   2.027   2.025   4.219
    1LIG    C18   29   1.962   1.976   4.369
    1LIG    C19   30   2.034   2.031   4.526
    1LIG    O10   31   1.971   1.982   4.678
    1LIG    C20   32   2.035   2.032   4.830
    1LIG    C21   33   1.962   1.976   4.986
    1LIG    O11   34   2.026   2.025   5.138
    1LIG    C22   35   1.962   1.976   5.290
    1LIG    C23   36   2.034   2.032   5.447
    1LIG    O12   37   1.970   1.983   5.598
    1LIG    C24   38   2.034   2.032   5.751
    1LIG    C25   39   1.962   1.977   5.909
    1LIG    O13   40   2.025   2.026   6.061
    1LIG    C26   41   1.961   1.977   6.212
    1LIG    C27   42   2.033   2.032   6.369
    1LIG    O14   43   1.969   1.983   6.521
    1LIG    C28   44   2.034   2.032   6.673
    1LIG    C29   45   1.962   1.976   6.831
    1LIG    O15   46   2.026   2.025   6.983
    1LIG    C30   47   1.962   1.976   7.134
    1LIG    C31   48   2.034   2.031   7.291
    1LIG    O16   49   1.970   1.982   7.442
    1LIG    C32   50   2.034   2.031   7.594
    1LIG    C33   51   1.962   1.976   7.752
    1LIG    O17   52   2.026   2.025   7.904
    1LIG    C34   53   1.962   1.975   8.056
    1LIG    C35   54   2.034   2.030   8.213
    1LIG    O18   55   1.970   1.981   8.365
    1LIG    C36   56   2.034   2.030   8.516
    1LIG    C37   57   1.963   1.975   8.674
    1LIG    O19   58   2.027   2.024   8.827
    1LIG    C38   59   1.963   1.974   8.978
    1LIG    C39   60   2.034   2.029   9.136
    1LIG    O20   61   1.971   1.980   9.288
    1LIG    C40   62   2.035   2.029   9.439
    1LIG    C41   63   1.964   1.974   9.597
    1LIG    O21   64   2.027   2.023   9.749
    1LIG    C42   65   1.963   1.973   9.900
    1LIG    C43   66   2.035   2.028  10.057
    1LIG    O22   67   1.972   1.979  10.209
    1LIG    C44   68   2.036   2.028  10.361
    1LIG    C45   69   1.964   1.972  10.518
    1LIG    O23   70   2.028   2.021  10.670
    1LIG    C46   71   1.964   1.972  10.822
    1LIG    C47   72   2.037   2.028  10.979
    1LIG    O24   73   1.973   1.978  11.130
    1LIG    C48   74   2.036   2.027  11.282
    1LIG    C49   75   1.964   1.971  11.439
    1LIG    O25   76   2.028   2.020  11.591
    1LIG    C50   77   1.965   1.971  11.743
    1LIG    C51   78   2.037   2.027  11.900
    1LIG    O26   79   1.974   1.977  12.051
    1LIG    C52   80   2.037   2.026  12.204
    1LIG    C53   81   1.965   1.969  12.360
    1LIG    O27   82   2.029   2.019  12.512
    1LIG    C54   83   1.966   1.969  12.664
    1LIG    C55   84   2.038   2.025  12.822
    1LIG    O28   85   1.974   1.975  12.974
    1LIG    C56   86   2.038   2.024  13.127
    1LIG    C57   87   1.967   1.968  13.285
    1LIG    O29   88   2.031   2.017  13.438
    1LIG    C58   89   1.967   1.967  13.589
    1LIG    C59   90   2.038   2.022  13.747
    1LIG      H   91   2.039   2.130   0.214
    1LIG     H1   92   2.147   1.989   0.215
    1LIG     H2   93   1.974   1.858   0.377
    1LIG     H3   94   1.866   1.998   0.375
    1LIG     H4   95   1.973   1.858   0.683
    1LIG     H5   96   1.865   1.999   0.682
    1LIG     H6   97   2.039   2.133   0.836
    1LIG     H7   98   2.147   1.992   0.837
    1LIG     H8   99   2.038   2.134   1.143
    1LIG     H9  100   2.145   1.994   1.145
    1LIG    H10  101   1.971   1.861   1.299
    1LIG    H11  102   1.863   2.001   1.297
    1LIG    H12  103   1.969   1.862   1.606
    1LIG    H13  104   1.861   2.002   1.604
    1LIG    H14  105   2.035   2.137   1.758
    1LIG    H15  106   2.143   1.996   1.759
    1LIG    H16  107   2.035   2.138   2.066
    1LIG    H17  108   2.143   1.998   2.067
    1LIG    H18  109   1.968   1.864   2.219
    1LIG    H19  110   1.860   2.004   2.219
    1LIG    H20  111   1.967   1.864   2.527
    1LIG    H21  112   1.859   2.005   2.527
    1LIG    H22  113   2.034   2.139   2.679
    1LIG    H23  114   2.142   1.999   2.680
    1LIG    H24  115   2.033   2.139   2.987
    1LIG    H25  116   2.141   1.999   2.988
    1LIG    H26  117   1.966   1.865   3.141
    1LIG    H27  118   1.858   2.006   3.140
    1LIG    H28  119   1.966   1.865   3.448
    1LIG    H29  120   1.858   2.006   3.448
    1LIG    H30  121   2.032   2.140   3.602
    1LIG    H31  122   2.140   1.999   3.603
    1LIG    H32  123   2.032   2.141   3.909
    1LIG    H33  124   2.140   2.000   3.910
    1LIG    H34  125   1.966   1.867   4.064
    1LIG    H35  126   1.858   2.007   4.064
    1LIG    H36  127   1.965   1.866   4.371
    1LIG    H37  128   1.857   2.007   4.371
    1LIG    H38  129   2.031   2.141   4.524
    1LIG    H39  130   2.139   2.000   4.524
    1LIG    H40  131   2.032   2.141   4.832
    1LIG    H41  132   2.140   2.001   4.832
    1LIG    H42  133   1.965   1.867   4.985
    1LIG    H43  134   1.857   2.007   4.984
    1LIG    H44  135   1.965   1.867   5.292
    1LIG    H45  136   1.857   2.007   5.292
    1LIG    H46  137   2.031   2.142   5.445
    1LIG    H47  138   2.140   2.001   5.445
    1LIG    H48  139   2.031   2.141   5.753
    1LIG    H49  140   2.139   2.001   5.753
    1LIG    H50  141   1.965   1.867   5.907
    1LIG    H51  142   1.857   2.008   5.907
    1LIG    H52  143   1.964   1.867   6.214
    1LIG    H53  144   1.856   2.008   6.214
    1LIG    H54  145   2.030   2.142   6.368
    1LIG    H55  146   2.138   2.001   6.367
    1LIG    H56  147   2.031   2.141   6.675
    1LIG    H57  148   2.139   2.001   6.675
    1LIG    H58  149   1.965   1.867   6.829
    1LIG    H59  150   1.857   2.007   6.830
    1LIG    H60  151   1.965   1.866   7.136
    1LIG    H61  152   1.857   2.007   7.136
    1LIG    H62  153   2.031   2.141   7.289
    1LIG    H63  154   2.139   2.000   7.289
    1LIG    H64  155   2.031   2.140   7.596
    1LIG    H65  156   2.139   2.000   7.596
    1LIG    H66  157   1.965   1.866   7.750
    1LIG    H67  158   1.857   2.007   7.751
    1LIG    H68  159   1.965   1.866   8.057
    1LIG    H69  160   1.857   2.006   8.057
    1LIG    H70  161   2.031   2.140   8.212
    1LIG    H71  162   2.139   2.000   8.211
    1LIG    H72  163   2.031   2.140   8.518
    1LIG    H73  164   2.140   2.000   8.518
    1LIG    H74  165   1.966   1.866   8.673
    1LIG    H75  166   1.858   2.006   8.673
    1LIG    H76  167   1.966   1.865   8.979
    1LIG    H77  168   1.858   2.005   8.979
    1LIG    H78  169   2.031   2.138   9.134
    1LIG    H79  170   2.140   1.998   9.134
    1LIG    H80  171   2.032   2.139   9.441
    1LIG    H81  172   2.140   1.999   9.440
    1LIG    H82  173   1.967   1.864   9.595
    1LIG    H83  174   1.858   2.004   9.595
    1LIG    H84  175   1.967   1.863   9.902
    1LIG    H85  176   1.858   2.003   9.902
    1LIG    H86  177   2.032   2.138  10.055
    1LIG    H87  178   2.141   1.998  10.055
    1LIG    H88  179   2.033   2.138  10.363
    1LIG    H89  180   2.141   1.998  10.363
    1LIG    H90  181   1.967   1.863  10.516
    1LIG    H91  182   1.859   2.003  10.516
    1LIG    H92  183   1.968   1.862  10.824
    1LIG    H93  184   1.859   2.002  10.824
    1LIG    H94  185   2.033   2.137  10.977
    1LIG    H95  186   2.142   1.997  10.977
    1LIG    H96  187   2.033   2.136  11.285
    1LIG    H97  188   2.141   1.996  11.284
    1LIG    H98  189   1.968   1.861  11.437
    1LIG    H99  190   1.859   2.001  11.438
    1LIG   H100  191   1.968   1.861  11.745
    1LIG   H101  192   1.860   2.001  11.746
    1LIG   H102  193   2.034   2.136  11.898
    1LIG   H103  194   2.142   1.996  11.898
    1LIG   H104  195   2.034   2.135  12.206
    1LIG   H105  196   2.142   1.995  12.206
    1LIG   H106  197   1.969   1.860  12.358
    1LIG   H107  198   1.860   2.000  12.359
    1LIG   H108  199   1.970   1.860  12.666
    1LIG   H109  200   1.861   2.000  12.666
    1LIG   H110  201   2.034   2.134  12.821
    1LIG   H111  202   2.143   1.994  12.820
    1LIG   H112  203   2.035   2.134  13.128
    1LIG   H113  204   2.144   1.994  13.128
    1LIG   H114  205   1.971   1.859  13.283
    1LIG   H115  206   1.862   1.999  13.284
    1LIG   H116  207   1.971   1.857  13.589
    1LIG   H117  208   1.862   1.999  13.590
    1LIG   H118  209   2.143   1.992  13.747
    1LIG   H119  210   1.991   1.985  13.866
    1MOL     C1  211   1.479   1.547   6.346
    1MOL     H1  212   1.457   1.440   6.336
    1MOL     O1  213   1.433   1.580   6.476
    1MOL     C2  214   1.453   1.718   6.512
    1MOL     H2  215   1.559   1.745   6.498
    1MOL     C3  216   1.422   1.731   6.660
    1MOL     H3  217   1.455   1.830   6.695
    1MOL     H4  218   1.478   1.654   6.715
    1MOL     O2  219   1.282   1.716   6.682
    1MOL     C4  220   1.247   1.733   6.818
    1MOL     C5  221   1.397   1.628   6.243
    1MOL     H5  222   1.294   1.592   6.251
    1MOL     O3  223   1.443   1.613   6.110
    1MOL     C6  224   1.413   1.489   6.050
    1MOL     C7  225   1.396   1.779   6.273
    1MOL     H6  226   1.494   1.821   6.249
    1MOL     O4  227   1.294   1.839   6.195
    1MOL     C8  228   1.341   1.930   6.097
    1MOL     C9  229   1.366   1.807   6.421
    1MOL     H7  230   1.261   1.783   6.440
    1MOL     O5  231   1.391   1.946   6.443
    1MOL    C10  232   1.305   2.015   6.532
    1MOL     H8  233   1.227   1.948   6.567
    1MOL     O6  234   1.374   2.055   6.649
    1MOL    C11  235   1.485   2.143   6.625
    1MOL     H9  236   1.555   2.095   6.555
    1MOL    C12  237   1.558   2.162   6.757
    1MOL    H10  238   1.654   2.210   6.738
    1MOL    H11  239   1.576   2.063   6.802
    1MOL     O7  240   1.480   2.242   6.844
    1MOL    C13  241   1.546   2.270   6.965
    1MOL    C14  242   1.245   2.139   6.463
    1MOL    H12  243   1.170   2.180   6.532
    1MOL     O8  244   1.185   2.111   6.338
    1MOL    C15  245   1.061   2.044   6.345
    1MOL    C16  246   1.349   2.249   6.438
    1MOL    H13  247   1.415   2.216   6.357
    1MOL     O9  248   1.283   2.369   6.404
    1MOL    C17  249   1.297   2.409   6.269
    1MOL    C18  250   1.435   2.275   6.562
    1MOL    H14  251   1.374   2.327   6.636
    1MOL    O10  252   1.544   2.357   6.521
    1MOL    C19  253   1.585   2.462   6.606
    1MOL    H15  254   1.518   2.469   6.692
    1MOL    O11  255   1.713   2.436   6.663
    1MOL    C20  256   1.818   2.422   6.568
    1MOL    H16  257   1.792   2.343   6.495
    1MOL    C21  258   1.941   2.373   6.643
    1MOL    H17  259   2.017   2.341   6.570
    1MOL    H18  260   1.912   2.286   6.703
    1MOL    O12  261   1.991   2.476   6.727
    1MOL    C22  262   2.092   2.430   6.814
    1MOL    C23  263   1.591   2.595   6.528
    1MOL    H19  264   1.613   2.674   6.602
    1MOL    O13  265   1.472   2.625   6.459
    1MOL    C24  266   1.364   2.666   6.542
    1MOL    C25  267   1.705   2.595   6.426
    1MOL    H20  268   1.682   2.523   6.346
    1MOL    O14  269   1.719   2.726   6.371
    1MOL    C26  270   1.663   2.742   6.241
    1MOL    C27  271   1.838   2.554   6.491
    1MOL    H21  272   1.872   2.631   6.561
    1MOL    O15  273   1.938   2.530   6.391
    1MOL    C28  274   2.010   2.644   6.348
    1MOL    H22  275   1.944   2.730   6.344
    1MOL    O16  276   2.113   2.681   6.438
    1MOL    C29  277   2.213   2.581   6.461
    1MOL    H23  278   2.167   2.491   6.504
    1MOL    C30  279   2.307   2.639   6.566
    1MOL    H24  280   2.371   2.559   6.607
    1MOL    H25  281   2.245   2.680   6.647
    1MOL    O17  282   2.388   2.740   6.508
    1MOL    C31  283   2.472   2.802   6.603
    1MOL    C32  284   2.070   2.614   6.210
    1MOL    H26  285   2.119   2.706   6.176
    1MOL    O18  286   1.966   2.577   6.121
    1MOL    C33  287   1.980   2.629   5.990
    1MOL    C34  288   2.178   2.505   6.221
    1MOL    H27  289   2.129   2.411   6.249
    1MOL    O19  290   2.241   2.492   6.094
    1MOL    C35  291   2.256   2.358   6.048
    1MOL    C36  292   2.282   2.542   6.328
    1MOL    H28  293   2.339   2.628   6.291
    1MOL    O20  294   2.369   2.429   6.344
    1MOL    C37  295   2.503   2.455   6.379
    1MOL    H29  296   2.521   2.563   6.381
    1MOL    O21  297   2.532   2.412   6.511
    1MOL    C38  298   2.515   2.271   6.532
    1MOL    H30  299   2.413   2.243   6.503
    1MOL    C39  300   2.528   2.246   6.682
    1MOL    H31  301   2.495   2.144   6.704
    1MOL    H32  302   2.463   2.317   6.736
    1MOL    O22  303   2.663   2.263   6.721
    1MOL    C40  304   2.684   2.230   6.857
    1MOL    C41  305   2.600   2.385   6.281
    1MOL    H33  306   2.701   2.423   6.304
    1MOL    O23  307   2.569   2.410   6.145
    1MOL    C42  308   2.601   2.540   6.098
    1MOL    C43  309   2.604   2.233   6.299
    1MOL    H34  310   2.511   2.190   6.259
    1MOL    O24  311   2.716   2.182   6.229
    1MOL    C44  312   2.685   2.102   6.116
    1MOL    C45  313   2.616   2.194   6.446
    1MOL    H35  314   2.717   2.219   6.481
    1MOL    O25  315   2.595   2.052   6.454
    1MOL    C46  316   2.677   1.979   6.544
    1MOL    H36  317   2.752   2.045   6.588
    1MOL    O26  318   2.603   1.930   6.654
    1MOL    C47  319   2.497   1.840   6.621
    1MOL    H37  320   2.428   1.888   6.550
    1MOL    C48  321   2.419   1.811   6.749
    1MOL    H38  322   2.324   1.763   6.724
    1MOL    H39  323   2.397   1.908   6.798
    1MOL    O27  324   2.496   1.729   6.834
    1MOL    C49  325   2.423   1.689   6.949
    1MOL    C50  326   2.743   1.860   6.471
    1MOL    H40  327   2.816   1.817   6.541
    1MOL    O28  328   2.809   1.897   6.351
    1MOL    C51  329   2.931   1.967   6.369
    1MOL    C52  330   2.643   1.750   6.435
    1MOL    H41  331   2.578   1.786   6.354
    1MOL    O29  332   2.714   1.634   6.394
    1MOL    C53  333   2.709   1.608   6.255
    1MOL    C54  334   2.556   1.714   6.555
    1MOL    H42  335   2.618   1.663   6.630
    1MOL    O30  336   2.453   1.625   6.510
    1MOL    C55  337   2.429   1.508   6.584
    1MOL    H43  338   2.509   1.493   6.657
    1MOL    O31  339   2.311   1.515   6.661
    1MOL    C56  340   2.189   1.534   6.587
    1MOL    H44  341   2.193   1.629   6.532
    1MOL    C57  342   2.078   1.539   6.690
    1MOL    H45  343   2.093   1.457   6.763
    1MOL    H46  344   1.981   1.523   6.642
    1MOL    O32  345   2.081   1.665   6.756
    1MOL    C58  346   1.980   1.676   6.854
    1MOL    C59  347   2.419   1.386   6.489
    1MOL    H47  348   2.408   1.297   6.554
    1MOL    O33  349   2.531   1.369   6.405
    1MOL    C60  350   2.648   1.322   6.470
    1MOL    C61  351   2.294   1.394   6.401
    1MOL    H48  352   2.305   1.478   6.331
    1MOL    O34  353   2.274   1.272   6.331
    1MOL    C62  354   2.326   1.269   6.199
    1MOL    C63  355   2.168   1.419   6.486
    1MOL    H49  356   2.145   1.327   6.541
    1MOL    O35  357   2.058   1.454   6.401
    1MOL    C64  358   1.975   1.347   6.362
    1MOL    H50  359   2.032   1.254   6.363
    1MOL    O36  360   1.869   1.326   6.454
    1MOL    C65  361   1.774   1.432   6.466
    1MOL    H51  362   1.824   1.525   6.495
    1MOL    C66  363   1.679   1.391   6.578
    1MOL    H52  364   1.654   1.284   6.565
    1MOL    H53  365   1.587   1.449   6.575
    1MOL    O37  366   1.746   1.411   6.702
    1MOL    C67  367   1.673   1.359   6.811
    1MOL    C68  368   1.917   1.371   6.222
    1MOL    H54  369   1.867   1.278   6.194
    1MOL    O38  370   2.022   1.400   6.130
    1MOL    C69  371   2.010   1.332   6.006
    1MOL    C70  372   1.812   1.483   6.223
    1MOL    H55  373   1.862   1.578   6.246
    1MOL    O39  374   1.752   1.489   6.094
    1MOL    C71  375   1.759   1.616   6.032
    1MOL    C72  376   1.705   1.456   6.330
    1MOL    H56  377   1.648   1.367   6.301
    1MOL    O40  378   1.617   1.570   6.331
    1MOL    H57  379   1.138   1.719   6.824
    1MOL    H58  380   1.296   1.658   6.882
    1MOL    H59  381   1.273   1.833   6.854
    1MOL    H60  382   1.731   1.380   6.901
    1MOL    H61  383   1.574   1.407   6.821
    1MOL    H62  384   1.658   1.251   6.803
    1MOL    H63  385   1.985   1.778   6.894
    1MOL    H64  386   1.880   1.658   6.811
    1MOL    H65  387   1.996   1.605   6.936
    1MOL    H66  388   2.488   1.622   7.006
    1MOL    H67  389   2.397   1.775   7.012
    1MOL    H68  390   2.332   1.635   6.921
    1MOL    H69  391   2.790   2.246   6.879
    1MOL    H70  392   2.624   2.294   6.924
    1MOL    H71  393   2.658   2.125   6.877
    1MOL    H72  394   2.530   2.878   6.550
    1MOL    H73  395   2.414   2.851   6.683
    1MOL    H74  396   2.541   2.730   6.650
    1MOL    H75  397   2.124   2.516   6.874
    1MOL    H76  398   2.054   2.351   6.881
    1MOL    H77  399   2.179   2.390   6.760
    1MOL    H78  400   1.479   2.332   7.025
    1MOL    H79  401   1.569   2.178   7.021
    1MOL    H80  402   1.640   2.325   6.948
    1MOL    H81  403   1.239   2.501   6.257
    1MOL    H82  404   1.402   2.431   6.245
    1MOL    H83  405   1.258   2.333   6.200
    1MOL    H84  406   1.020   2.043   6.244
    1MOL    H85  407   1.071   1.940   6.379
    1MOL    H86  408   0.990   2.096   6.411
    1MOL    H87  409   1.252   1.968   6.044
    1MOL    H88  410   1.392   2.016   6.143
    1MOL    H89  411   1.407   1.881   6.024
    1MOL    H90  412   1.434   1.499   5.944
    1MOL    H91  413   1.475   1.407   6.090
    1MOL    H92  414   1.307   1.463   6.063
    1MOL    H93  415   1.712   1.606   5.933
    1MOL    H94  416   1.703   1.692   6.089
    1MOL    H95  417   1.863   1.648   6.018
    1MOL    H96  418   2.095   1.365   5.945
    1MOL    H97  419   2.016   1.223   6.019
    1MOL    H98  420   1.917   1.357   5.955
    1MOL    H99  421   2.297   1.173   6.157
    1MOL   H100  422   2.283   1.349   6.138
    1MOL   H101  423   2.435   1.278   6.199
    1MOL   H102  424   2.718   1.294   6.392
    1MOL   H103  425   2.695   1.400   6.532
    1MOL   H104  426   2.626   1.234   6.532
    1MOL   H105  427   2.772   1.519   6.238
    1MOL   H106  428   2.607   1.585   6.222
    1MOL   H107  429   2.750   1.692   6.197
    1MOL   H108  430   2.979   1.973   6.271
    1MOL   H109  431   2.916   2.069   6.407
    1MOL   H110  432   2.998   1.912   6.438
    1MOL   H111  433   2.780   2.072   6.072
    1MOL   H112  434   2.630   2.012   6.145
    1MOL   H113  435   2.627   2.159   6.042
    1MOL   H114  436   2.586   2.539   5.990
    1MOL   H115  437   2.535   2.616   6.141
    1MOL   H116  438   2.706   2.565   6.120
    1MOL   H117  439   2.303   2.364   5.950
    1MOL   H118  440   2.319   2.299   6.115
    1MOL   H119  441   2.158   2.309   6.037
    1MOL   H120  442   1.894   2.593   5.933
    1MOL   H121  443   1.979   2.740   5.990
    1MOL   H122  444   2.073   2.595   5.942
    1MOL   H123  445   1.679   2.847   6.213
    1MOL   H124  446   1.713   2.677   6.168
    1MOL   H125  447   1.555   2.721   6.242
    1MOL   H126  448   1.286   2.702   6.475
    1MOL   H127  449   1.323   2.583   6.601
    1MOL   H128  450   1.394   2.748   6.609
    1MOL     C1  451   2.521   1.547   7.554
    1MOL     H1  452   2.543   1.440   7.564
    1MOL     O1  453   2.567   1.580   7.424
    1MOL     C2  454   2.547   1.718   7.388
    1MOL     H2  455   2.441   1.745   7.402
    1MOL     C3  456   2.579   1.731   7.240
    1MOL     H3  457   2.545   1.830   7.205
    1MOL     H4  458   2.522   1.654   7.185
    1MOL     O2  459   2.718   1.716   7.218
    1MOL     C4  460   2.753   1.733   7.082
    1MOL     C5  461   2.603   1.628   7.657
    1MOL     H5  462   2.707   1.592   7.648
    1MOL     O3  463   2.557   1.613   7.790
    1MOL     C6  464   2.587   1.489   7.850
    1MOL     C7  465   2.604   1.779   7.627
    1MOL     H6  466   2.506   1.821   7.651
    1MOL     O4  467   2.706   1.839   7.705
    1MOL     C8  468   2.659   1.930   7.803
    1MOL     C9  469   2.634   1.807   7.479
    1MOL     H7  470   2.739   1.783   7.460
    1MOL     O5  471   2.609   1.946   7.457
    1MOL    C10  472   2.695   2.015   7.368
    1MOL     H8  473   2.773   1.948   7.333
    1MOL     O6  474   2.626   2.055   7.251
    1MOL    C11  475   2.515   2.143   7.275
    1MOL     H9  476   2.445   2.095   7.345
    1MOL    C12  477   2.443   2.162   7.143
    1MOL    H10  478   2.346   2.210   7.162
    1MOL    H11  479   2.424   2.063   7.098
    1MOL     O7  480   2.521   2.242   7.056
    1MOL    C13  481   2.454   2.270   6.935
    1MOL    C14  482   2.755   2.139   7.437
    1MOL    H12  483   2.830   2.180   7.368
    1MOL     O8  484   2.815   2.111   7.562
    1MOL    C15  485   2.940   2.044   7.555
    1MOL    C16  486   2.651   2.249   7.462
    1MOL    H13  487   2.585   2.216   7.543
    1MOL     O9  488   2.718   2.369   7.496
    1MOL    C17  489   2.703   2.409   7.631
    1MOL    C18  490   2.565   2.275   7.338
    1MOL    H14  491   2.626   2.327   7.264
    1MOL    O10  492   2.456   2.357   7.379
    1MOL    C19  493   2.415   2.462   7.294
    1MOL    H15  494   2.482   2.469   7.208
    1MOL    O11  495   2.288   2.436   7.236
    1MOL    C20  496   2.182   2.422   7.332
    1MOL    H16  497   2.208   2.343   7.405
    1MOL    C21  498   2.059   2.373   7.257
    1MOL    H17  499   1.983   2.341   7.329
    1MOL    H18  500   2.088   2.286   7.197
    1MOL    O12  501   2.009   2.476   7.173
    1MOL    C22  502   1.908   2.430   7.086
    1MOL    C23  503   2.409   2.595   7.372
    1MOL    H19  504   2.387   2.674   7.298
    1MOL    O13  505   2.529   2.625   7.441
    1MOL    C24  506   2.636   2.666   7.358
    1MOL    C25  507   2.295   2.595   7.474
    1MOL    H20  508   2.318   2.523   7.554
    1MOL    O14  509   2.281   2.726   7.529
    1MOL    C26  510   2.337   2.742   7.659
    1MOL    C27  511   2.162   2.554   7.409
    1MOL    H21  512   2.128   2.631   7.339
    1MOL    O15  513   2.062   2.530   7.509
    1MOL    C28  514   1.990   2.644   7.552
    1MOL    H22  515   2.056   2.730   7.556
    1MOL    O16  516   1.887   2.681   7.462
    1MOL    C29  517   1.787   2.581   7.439
    1MOL    H23  518   1.833   2.491   7.396
    1MOL    C30  519   1.693   2.639   7.334
    1MOL    H24  520   1.629   2.559   7.293
    1MOL    H25  521   1.755   2.680   7.253
    1MOL    O17  522   1.612   2.740   7.392
    1MOL    C31  523   1.528   2.802   7.297
    1MOL    C32  524   1.930   2.614   7.689
    1MOL    H26  525   1.881   2.706   7.724
    1MOL    O18  526   2.034   2.577   7.779
    1MOL    C33  527   2.020   2.629   7.910
    1MOL    C34  528   1.822   2.505   7.679
    1MOL    H27  529   1.871   2.411   7.651
    1MOL    O19  530   1.759   2.492   7.806
    1MOL    C35  531   1.745   2.358   7.852
    1MOL    C36  532   1.719   2.542   7.572
    1MOL    H28  533   1.661   2.628   7.609
    1MOL    O20  534   1.631   2.429   7.556
    1MOL    C37  535   1.497   2.455   7.521
    1MOL    H29  536   1.479   2.563   7.519
    1MOL    O21  537   1.468   2.412   7.389
    1MOL    C38  538   1.486   2.271   7.368
    1MOL    H30  539   1.587   2.243   7.397
    1MOL    C39  540   1.472   2.246   7.218
    1MOL    H31  541   1.505   2.144   7.196
    1MOL    H32  542   1.537   2.317   7.164
    1MOL    O22  543   1.337   2.263   7.178
    1MOL    C40  544   1.316   2.230   7.043
    1MOL    C41  545   1.400   2.385   7.619
    1MOL    H33  546   1.299   2.423   7.596
    1MOL    O23  547   1.431   2.410   7.755
    1MOL    C42  548   1.399   2.540   7.802
    1MOL    C43  549   1.396   2.233   7.601
    1MOL    H34  550   1.489   2.190   7.641
    1MOL    O24  551   1.284   2.182   7.671
    1MOL    C44  552   1.315   2.102   7.784
    1MOL    C45  553   1.384   2.194   7.454
    1MOL    H35  554   1.283   2.219   7.419
    1MOL    O25  555   1.405   2.052   7.445
    1MOL    C46  556   1.323   1.979   7.356
    1MOL    H36  557   1.248   2.045   7.312
    1MOL    O26  558   1.397   1.930   7.246
    1MOL    C47  559   1.504   1.840   7.279
    1MOL    H37  560   1.572   1.888   7.350
    1MOL    C48  561   1.581   1.811   7.151
    1MOL    H38  562   1.676   1.763   7.176
    1MOL    H39  563   1.603   1.908   7.102
    1MOL    O27  564   1.504   1.729   7.066
    1MOL    C49  565   1.577   1.689   6.951
    1MOL    C50  566   1.257   1.860   7.429
    1MOL    H40  567   1.184   1.817   7.359
    1MOL    O28  568   1.191   1.897   7.549
    1MOL    C51  569   1.069   1.967   7.531
    1MOL    C52  570   1.357   1.750   7.465
    1MOL    H41  571   1.422   1.786   7.546
    1MOL    O29  572   1.286   1.634   7.506
    1MOL    C53  573   1.291   1.608   7.645
    1MOL    C54  574   1.444   1.714   7.344
    1MOL    H42  575   1.382   1.663   7.270
    1MOL    O30  576   1.547   1.625   7.390
    1MOL    C55  577   1.571   1.508   7.316
    1MOL    H43  578   1.492   1.493   7.242
    1MOL    O31  579   1.689   1.515   7.239
    1MOL    C56  580   1.811   1.534   7.313
    1MOL    H44  581   1.807   1.629   7.368
    1MOL    C57  582   1.922   1.539   7.210
    1MOL    H45  583   1.907   1.457   7.137
    1MOL    H46  584   2.019   1.523   7.258
    1MOL    O32  585   1.919   1.665   7.144
    1MOL    C58  586   2.020   1.676   7.046
    1MOL    C59  587   1.581   1.386   7.410
    1MOL    H47  588   1.592   1.297   7.346
    1MOL    O33  589   1.469   1.369   7.495
    1MOL    C60  590   1.352   1.322   7.430
    1MOL    C61  591   1.706   1.394   7.499
    1MOL    H48  592   1.695   1.478   7.569
    1MOL    O34  593   1.727   1.272   7.569
    1MOL    C62  594   1.674   1.269   7.701
    1MOL    C63  595   1.832   1.419   7.414
    1MOL    H49  596   1.855   1.327   7.359
    1MOL    O35  597   1.942   1.454   7.499
    1MOL    C64  598   2.025   1.347   7.537
    1MOL    H50  599   1.968   1.254   7.537
    1MOL    O36  600   2.131   1.326   7.446
    1MOL    C65  601   2.227   1.432   7.434
    1MOL    H51  602   2.176   1.525   7.405
    1MOL    C66  603   2.321   1.391   7.322
    1MOL    H52  604   2.346   1.284   7.335
    1MOL    H53  605   2.413   1.449   7.325
    1MOL    O37  606   2.254   1.411   7.198
    1MOL    C67  607   2.327   1.359   7.089
    1MOL    C68  608   2.083   1.371   7.678
    1MOL    H54  609   2.133   1.278   7.706
    1MOL    O38  610   1.979   1.400   7.769
    1MOL    C69  611   1.990   1.332   7.894
    1MOL    C70  612   2.188   1.483   7.677
    1MOL    H55  613   2.138   1.578   7.654
    1MOL    O39  614   2.248   1.489   7.806
    1MOL    C71  615   2.241   1.616   7.868
    1MOL    C72  616   2.295   1.456   7.570
    1MOL    H56  617   2.352   1.367   7.599
    1MOL    O40  618   2.383   1.570   7.569
    1MOL    H57  619   2.862   1.719   7.076
    1MOL    H58  620   2.704   1.658   7.018
    1MOL    H59  621   2.727   1.833   7.046
    1MOL    H60  622   2.269   1.380   6.998
    1MOL    H61  623   2.426   1.407   7.079
    1MOL    H62  624   2.342   1.251   7.097
    1MOL    H63  625   2.015   1.778   7.006
    1MOL    H64  626   2.120   1.658   7.089
    1MOL    H65  627   2.005   1.605   6.964
    1MOL    H66  628   1.512   1.622   6.894
    1MOL    H67  629   1.603   1.775   6.888
    1MOL    H68  630   1.669   1.635   6.979
    1MOL    H69  631   1.210   2.246   7.021
    1MOL    H70  632   1.376   2.294   6.976
    1MOL    H71  633   1.342   2.125   7.023
    1MOL    H72  634   1.470   2.878   7.350
    1MOL    H73  635   1.587   2.851   7.217
    1MOL    H74  636   1.459   2.730   7.250
    1MOL    H75  637   1.876   2.516   7.026
    1MOL    H76  638   1.946   2.351   7.018
    1MOL    H77  639   1.821   2.390   7.140
    1MOL    H78  640   2.521   2.332   6.875
    1MOL    H79  641   2.431   2.178   6.879
    1MOL    H80  642   2.360   2.325   6.952
    1MOL    H81  643   2.761   2.501   7.643
    1MOL    H82  644   2.598   2.431   7.655
    1MOL    H83  645   2.742   2.333   7.700
    1MOL    H84  646   2.980   2.043   7.656
    1MOL    H85  647   2.929   1.940   7.521
    1MOL    H86  648   3.010   2.096   7.489
    1MOL    H87  649   2.748   1.968   7.856
    1MOL    H88  650   2.608   2.016   7.757
    1MOL    H89  651   2.593   1.881   7.875
    1MOL    H90  652   2.566   1.499   7.956
    1MOL    H91  653   2.525   1.407   7.810
    1MOL    H92  654   2.694   1.463   7.837
    1MOL    H93  655   2.288   1.606   7.967
    1MOL    H94  656   2.297   1.692   7.811
    1MOL    H95  657   2.137   1.648   7.882
    1MOL    H96  658   1.905   1.365   7.955
    1MOL    H97  659   1.984   1.223   7.881
    1MOL    H98  660   2.083   1.357   7.945
    1MOL    H99  661   1.703   1.173   7.743
    1MOL   H100  662   1.718   1.349   7.762
    1MOL   H101  663   1.565   1.278   7.701
    1MOL   H102  664   1.282   1.294   7.508
    1MOL   H103  665   1.305   1.400   7.368
    1MOL   H104  666   1.374   1.234   7.368
    1MOL   H105  667   1.229   1.519   7.662
    1MOL   H106  668   1.393   1.585   7.678
    1MOL   H107  669   1.251   1.692   7.703
    1MOL   H108  670   1.022   1.973   7.629
    1MOL   H109  671   1.084   2.069   7.493
    1MOL   H110  672   1.002   1.912   7.462
    1MOL   H111  673   1.220   2.072   7.828
    1MOL   H112  674   1.370   2.012   7.755
    1MOL   H113  675   1.373   2.159   7.858
    1MOL   H114  676   1.415   2.539   7.910
    1MOL   H115  677   1.465   2.616   7.758
    1MOL   H116  678   1.295   2.565   7.780
    1MOL   H117  679   1.697   2.364   7.950
    1MOL   H118  680   1.681   2.299   7.785
    1MOL   H119  681   1.842   2.309   7.862
    1MOL   H120  682   2.106   2.593   7.967
    1MOL   H121  683   2.021   2.740   7.910
    1MOL   H122  684   1.927   2.595   7.958
    1MOL   H123  685   2.321   2.847   7.686
    1MOL   H124  686   2.287   2.677   7.732
    1MOL   H125  687   2.445   2.721   7.658
    1MOL   H126  688   2.715   2.702   7.425
    1MOL   H127  689   2.678   2.583   7.299
    1MOL   H128  690   2.606   2.748   7.291
    2SOL     OW  691   0.230   0.628   0.113
    2SOL    HW1  692   0.137   0.626   0.150
    2SOL    HW2  693   0.231   0.589   0.021
    3SOL     OW  694   0.225   0.275   0.996
    3SOL    HW1  695   0.260   0.258   1.088
    3SOL    HW2  696   0.137   0.230   0.984
    4SOL     OW  697   0.019   0.368   0.647
    4SOL    HW1  698  -0.063   0.411   0.686
    4SOL    HW2  699  -0.009   0.295   0.584
    5SOL     OW  700   0.569   1.275   1.165
    5SOL    HW1  701   0.476   1.268   1.128
    5SOL    HW2  702   0.580   1.364   1.209
    6SOL     OW  703   1.555   1.511   0.703
    6SOL    HW1  704   1.498   1.495   0.784
    6SOL    HW2  705   1.496   1.521   0.623
    7SOL     OW  706   1.135   0.703   0.717
    7SOL    HW1  707   1.192   0.781   0.692
    7SOL    HW2  708   1.075   0.729   0.793
    8SOL     OW  709   1.755   0.607   0.231
    8SOL    HW1  710   1.743   0.594   0.132
    8SOL    HW2  711   1.725   0.526   0.280
    9SOL     OW  712   0.768   1.144   1.023
    9SOL    HW1  713   0.690   1.161   1.083
    9SOL    HW2  714   0.802   1.231   0.987
   10SOL     OW  715   0.850   0.798   1.823
   10SOL    HW1  716   0.846   0.874   1.888
   10SOL    HW2  717   0.872   0.834   1.732
   11SOL     OW  718   0.685   1.012   0.665
   11SOL    HW1  719   0.754   0.996   0.735
   11SOL    HW2  720   0.612   1.069   0.703
   12SOL     OW  721   0.686   1.161   1.803
   12SOL    HW1  722   0.746   1.240   1.817
   12SOL    HW2  723   0.600   1.192   1.762
   13SOL     OW  724   0.335   1.435   1.061
   13SOL    HW1  725   0.257   1.404   1.008
   13SOL    HW2  726   0.393   1.493   1.004
   14SOL     OW  727   1.460   1.505   1.339
   14SOL    HW1  728   1.484   1.599   1.365
   14SOL    HW2  729   1.444   1.451   1.421
   15SOL     OW  730   0.438   0.392   1.499
   15SOL    HW1  731   0.520   0.336   1.508
   15SOL    HW2  732   0.357   0.334   1.503
   16SOL     OW  733   1.603   0.447   0.737
   16SOL    HW1  734   1.529   0.493   0.687
   16SOL    HW2  735   1.654   0.515   0.790
   17SOL     OW  736   0.231   1.713   0.483
   17SOL    HW1  737   0.265   1.790   0.537
   17SOL    HW2  738   0.275   1.713   0.393
   18SOL     OW  739   1.127   1.341   1.690
   18SOL    HW1  740   1.174   1.341   1.778
   18SOL    HW2  741   1.079   1.254   1.679
   19SOL     OW  742   0.230   1.434   0.538
   19SOL    HW1  743   0.204   1.530   0.538
   19SOL    HW2  744   0.159   1.380   0.583
   20SOL     OW  745   0.240   1.091   0.886
   20SOL    HW1  746   0.254   1.007   0.938
   20SOL    HW2  747   0.185   1.155   0.941
   21SOL     OW  748   0.620   1.786   1.439
   21SOL    HW1  749   0.528   1.769   1.474
   21SOL    HW2  750   0.648   1.878   1.465
   22SOL     OW  751   0.606   0.964   0.123
   22SOL    HW1  752   0.613   1.048   0.069
   22SOL    HW2  753   0.652   0.977   0.211
   23SOL     OW  754   1.594   0.114   1.480
   23SOL    HW1  755   1.576   0.181   1.408
   23SOL    HW2  756   1.591   0.160   1.569
   24SOL     OW  757   0.122   0.643   0.563
   24SOL    HW1  758   0.077   0.555   0.580
   24SOL    HW2  759   0.121   0.697   0.647
   25SOL     OW  760   0.027   1.596   0.117
   25SOL    HW1  761   0.008   1.500   0.138
   25SOL    HW2  762  -0.006   1.654   0.192
   26SOL     OW  763   1.689   0.922   0.612
   26SOL    HW1  764   1.784   0.893   0.620
   26SOL    HW2  765   1.681   0.987   0.537
   27SOL     OW  766   1.641   1.108   0.432
   27SOL    HW1  767   1.727   1.110   0.380
   27SOL    HW2  768   1.655   1.155   0.520
   28SOL     OW  769   0.113   0.737   1.597
   28SOL    HW1  770   0.201   0.724   1.642
   28SOL    HW2  771   0.100   0.834   1.575
   29SOL     OW  772   0.613   1.365   0.726
   29SOL    HW1  773   0.564   1.278   0.735
   29SOL    HW2  774   0.590   1.408   0.639
   30SOL     OW  775   1.293   1.228   1.423
   30SOL    HW1  776   1.330   1.155   1.365
   30SOL    HW2  777   1.345   1.233   1.508
   31SOL     OW  778   0.809   0.004   0.502
   31SOL    HW1  779   0.849   0.095   0.493
   31SOL    HW2  780   0.709   0.012   0.508
   32SOL     OW  781   0.197   0.976   1.264
   32SOL    HW1  782   0.286   0.931   1.250
   32SOL    HW2  783   0.124   0.911   1.245
   33SOL     OW  784   1.525   0.999   0.190
   33SOL    HW1  785   1.462   0.923   0.203
   33SOL    HW2  786   1.573   1.017   0.276
   34SOL     OW  787   1.187   1.792   1.616
   34SOL    HW1  788   1.211   1.852   1.540
   34SOL    HW2  789   1.194   1.697   1.586
   35SOL     OW  790   0.317   0.251   1.801
   35SOL    HW1  791   0.388   0.322   1.807
   35SOL    HW2  792   0.229   0.290   1.829
   36SOL     OW  793   1.466   1.417   0.953
   36SOL    HW1  794   1.407   1.423   1.033
   36SOL    HW2  795   1.451   1.329   0.907
   37SOL     OW  796   1.667   1.714   0.572
   37SOL    HW1  797   1.626   1.691   0.484
   37SOL    HW2  798   1.649   1.640   0.637
   38SOL     OW  799   0.598   0.729   0.270
   38SOL    HW1  800   0.622   0.798   0.202
   38SOL    HW2  801   0.520   0.762   0.324
   39SOL     OW  802   1.281   0.345   0.944
   39SOL    HW1  803   1.195   0.295   0.931
   39SOL    HW2  804   1.343   0.291   1.000
   40SOL     OW  805   1.576   1.662   0.307
   40SOL    HW1  806   1.665   1.708   0.310
   40SOL    HW2  807   1.555   1.638   0.212
   41SOL     OW  808   0.807   0.605   1.465
   41SOL    HW1  809   0.760   0.602   1.554
   41SOL    HW2  810   0.756   0.550   1.399
   42SOL     OW  811   1.394   0.469   1.674
   42SOL    HW1  812   1.374   0.512   1.762
   42SOL    HW2  813   1.472   0.407   1.683
   43SOL     OW  814   0.973   0.890   1.572
   43SOL    HW1  815   1.019   0.806   1.543
   43SOL    HW2  816   0.917   0.924   1.497
   44SOL     OW  817   0.991   0.410   1.242
   44SOL    HW1  818   0.914   0.444   1.296
   44SOL    HW2  819   0.957   0.359   1.163
   45SOL     OW  820   1.041   0.701   0.429
   45SOL    HW1  821   1.067   0.697   0.525
   45SOL    HW2  822   0.956   0.650   0.415
   46SOL     OW  823   0.076   0.811   0.789
   46SOL    HW1  824   0.175   0.799   0.798
   46SOL    HW2  825   0.052   0.906   0.810
   47SOL     OW  826   0.130   1.821   1.571
   47SOL    HW1  827   0.120   1.806   1.670
   47SOL    HW2  828   0.044   1.857   1.535
   48SOL     OW  829   0.865   0.348   0.195
   48SOL    HW1  830   0.924   0.411   0.146
   48SOL    HW2  831   0.884   0.254   0.166
   49SOL     OW  832   1.719   0.585   1.831
   49SOL    HW1  833   1.693   0.674   1.795
   49SOL    HW2  834   1.717   0.517   1.758
   50SOL     OW  835   1.362   1.144   0.545
   50SOL    HW1  836   1.445   1.115   0.497
   50SOL    HW2  837   1.313   1.211   0.489
   51SOL     OW  838   0.550   0.196   0.885
   51SOL    HW1  839   0.545   0.191   0.985
   51SOL    HW2  840   0.552   0.292   0.856
   52SOL     OW  841   1.008   1.456   0.477
   52SOL    HW1  842   0.962   1.528   0.425
   52SOL    HW2  843   1.004   1.476   0.575
   53SOL     OW  844   0.351   1.801   0.853
   53SOL    HW1  845   0.401   1.715   0.859
   53SOL    HW2  846   0.416   1.878   0.850
   54SOL     OW  847   1.795   1.066   0.873
   54SOL    HW1  848   1.733   1.051   0.797
   54SOL    HW2  849   1.743   1.077   0.958
   55SOL     OW  850   1.227   1.550   1.506
   55SOL    HW1  851   1.233   1.473   1.570
   55SOL    HW2  852   1.175   1.524   1.426
   56SOL     OW  853   0.321   0.943   0.242
   56SOL    HW1  854   0.403   0.982   0.200
   56SOL    HW2  855   0.294   0.861   0.193
   57SOL     OW  856   1.458   0.735   0.728
   57SOL    HW1  857   1.453   0.670   0.803
   57SOL    HW2  858   1.538   0.794   0.741
   58SOL     OW  859   0.461   1.266   1.727
   58SOL    HW1  860   0.411   1.267   1.641
   58SOL    HW2  861   0.398   1.248   1.803
   59SOL     OW  862   1.111   1.776   0.237
   59SOL    HW1  863   1.051   1.714   0.287
   59SOL    HW2  864   1.142   1.732   0.152
   60SOL     OW  865   0.202   0.285   1.498
   60SOL    HW1  866   0.122   0.345   1.485
   60SOL    HW2  867   0.192   0.236   1.584
   61SOL     OW  868   1.632   1.377   0.081
   61SOL    HW1  869   1.600   1.471   0.071
   61SOL    HW2  870   1.556   1.314   0.069
   62SOL     OW  871   0.464   1.743   0.323
   62SOL    HW1  872   0.497   1.782   0.409
   62SOL    HW2  873   0.540   1.736   0.258
   63SOL     OW  874   1.400   0.107   0.426
   63SOL    HW1  875   1.376   0.070   0.336
   63SOL    HW2  876   1.499   0.123   0.430
   64SOL     OW  877   0.249   1.785   1.241
   64SOL    HW1  878   0.306   1.720   1.291
   64SOL    HW2  879   0.233   1.752   1.148
   65SOL     OW  880   0.940   1.698   0.904
   65SOL    HW1  881   1.020   1.641   0.925
   65SOL    HW2  882   0.891   1.658   0.827
   66SOL     OW  883   0.382   0.700   0.480
   66SOL    HW1  884   0.427   0.610   0.477
   66SOL    HW2  885   0.288   0.689   0.513
   67SOL     OW  886   1.547   0.222   1.729
   67SOL    HW1  887   1.542   0.259   1.821
   67SOL    HW2  888   1.475   0.153   1.717
   68SOL     OW  889   0.614   0.122   0.117
   68SOL    HW1  890   0.712   0.100   0.124
   68SOL    HW2  891   0.583   0.105   0.024
   69SOL     OW  892   0.781   0.264   1.749
   69SOL    HW1  893   0.848   0.203   1.792
   69SOL    HW2  894   0.708   0.283   1.814
   70SOL     OW  895   0.888   1.514   1.195
   70SOL    HW1  896   0.865   1.489   1.101
   70SOL    HW2  897   0.949   1.445   1.234
   71SOL     OW  898   1.351   0.590   1.433
   71SOL    HW1  899   1.379   0.547   1.518
   71SOL    HW2  900   1.376   0.686   1.434
   72SOL     OW  901   0.803   1.402   0.924
   72SOL    HW1  902   0.893   1.416   0.882
   72SOL    HW2  903   0.732   1.404   0.853
   73SOL     OW  904   0.922   0.503   0.899
   73SOL    HW1  905   0.897   0.494   0.803
   73SOL    HW2  906   0.970   0.421   0.930
   74SOL     OW  907   0.539   0.064   0.512
   74SOL    HW1  908   0.458   0.065   0.570
   74SOL    HW2  909   0.542   0.147   0.457
   75SOL     OW  910   1.434   1.188   0.041
   75SOL    HW1  911   1.466   1.112   0.098
   75SOL    HW2  912   1.342   1.215   0.071
   76SOL     OW  913   0.297   0.035   0.171
   76SOL    HW1  914   0.346   0.119   0.150
   76SOL    HW2  915   0.359  -0.030   0.216
   77SOL     OW  916   0.935   0.236   0.480
   77SOL    HW1  917   0.887   0.277   0.402
   77SOL    HW2  918   1.034   0.234   0.461
   78SOL     OW  919   1.076   0.683   1.464
   78SOL    HW1  920   0.996   0.622   1.467
   78SOL    HW2  921   1.157   0.630   1.440
   79SOL     OW  922   1.227   1.570   0.793
   79SOL    HW1  923   1.248   1.644   0.728
   79SOL    HW2  924   1.295   1.570   0.866
   80SOL     OW  925   0.459   1.152   0.741
   80SOL    HW1  926   0.388   1.125   0.806
   80SOL    HW2  927   0.433   1.124   0.648
   81SOL     OW  928   1.271   1.797   0.591
   81SOL    HW1  929   1.315   1.861   0.527
   81SOL    HW2  930   1.221   1.849   0.661
   82SOL     OW  931   1.032   0.549   0.016
   82SOL    HW1  932   0.991   0.631  -0.023
   82SOL    HW2  933   1.096   0.575   0.089
   83SOL     OW  934   0.078   0.556   1.386
   83SOL    HW1  935   0.170   0.555   1.345
   83SOL    HW2  936   0.072   0.630   1.453
   84SOL     OW  937   0.561   0.222   1.147
   84SOL    HW1  938   0.599   0.138   1.184
   84SOL    HW2  939   0.473   0.241   1.191
   85SOL     OW  940   0.866   0.454   0.642
   85SOL    HW1  941   0.834   0.526   0.580
   85SOL    HW2  942   0.890   0.373   0.589
   86SOL     OW  943   1.017   0.039   0.753
   86SOL    HW1  944   0.945   0.044   0.684
   86SOL    HW2  945   0.993  -0.030   0.822
   87SOL     OW  946   1.429   1.173   0.867
   87SOL    HW1  947   1.374   1.089   0.860
   87SOL    HW2  948   1.455   1.202   0.775
   88SOL     OW  949   1.466   0.590   0.992
   88SOL    HW1  950   1.436   0.495   0.999
   88SOL    HW2  951   1.539   0.606   1.058
   89SOL     OW  952   1.857   0.833   0.377
   89SOL    HW1  953   1.899   0.769   0.441
   89SOL    HW2  954   1.819   0.782   0.299
   90SOL     OW  955   0.488   1.385   0.174
   90SOL    HW1  956   0.401   1.370   0.221
   90SOL    HW2  957   0.471   1.411   0.079
   91SOL     OW  958   1.664   1.280   0.657
   91SOL    HW1  959   1.763   1.288   0.671
   91SOL    HW2  960   1.619   1.364   0.688
   92SOL     OW  961   1.390   0.575   0.078
   92SOL    HW1  962   1.336   0.554   0.159
   92SOL    HW2  963   1.481   0.534   0.087
   93SOL     OW  964   0.527   0.256   0.328
   93SOL    HW1  965   0.554   0.197   0.253
   93SOL    HW2  966   0.527   0.351   0.297
   94SOL     OW  967   1.754   1.223   1.588
   94SOL    HW1  968   1.845   1.184   1.575
   94SOL    HW2  969   1.762   1.319   1.612
   95SOL     OW  970   1.064   1.347   1.340
   95SOL    HW1  971   0.984   1.324   1.395
   95SOL    HW2  972   1.147   1.321   1.389
   96SOL     OW  973   1.592   1.629   1.625
   96SOL    HW1  974   1.619   1.663   1.535
   96SOL    HW2  975   1.671   1.591   1.671
   97SOL     OW  976   1.111   1.195   1.100
   97SOL    HW1  977   1.071   1.239   1.181
   97SOL    HW2  978   1.070   1.232   1.017
   98SOL     OW  979   1.638   1.099   1.079
   98SOL    HW1  980   1.643   1.180   1.138
   98SOL    HW2  981   1.552   1.101   1.028
   99SOL     OW  982   0.915   0.089   1.402
   99SOL    HW1  983   0.940   0.069   1.307
   99SOL    HW2  984   0.987   0.145   1.444
  100SOL     OW  985   0.980   1.116   1.719
  100SOL    HW1  986   0.881   1.122   1.729
  100SOL    HW2  987   1.003   1.036   1.663
  101SOL     OW  988   0.705   1.050   0.368
  101SOL    HW1  989   0.691   1.057   0.467
  101SOL    HW2  990   0.789   0.999   0.350
  102SOL     OW  991   0.410   0.813   1.251
  102SOL    HW1  992   0.496   0.825   1.301
  102SOL    HW2  993   0.368   0.726   1.278
  103SOL     OW  994   1.274   0.386   1.262
  103SOL    HW1  995   1.295   0.460   1.326
  103SOL    HW2  996   1.185   0.403   1.219
  104SOL     OW  997   0.064   1.564   1.331
  104SOL    HW1  998   0.018   1.646   1.297
  104SOL    HW2  999   0.162   1.583   1.340
  105SOL     OW 1000   0.367   1.100   0.501
  105SOL    HW1 1001   0.360   1.183   0.445
  105SOL    HW2 1002   0.371   1.020   0.441
  106SOL     OW 1003   0.566   0.537   0.865
  106SOL    HW1 1004   0.578   0.603   0.791
  106SOL    HW2 1005   0.612   0.571   0.948
  107SOL     OW 1006   1.252   1.348   0.388
  107SOL    HW1 1007   1.302   1.425   0.428
  107SOL    HW2 1008   1.157   1.350   0.420
  108SOL     OW 1009   1.272   1.445   1.142
  108SOL    HW1 1010   1.319   1.458   1.229
  108SOL    HW2 1011   1.206   1.371   1.151
  109SOL     OW 1012   1.582   0.639   0.472
  109SOL    HW1 1013   1.551   0.700   0.545
  109SOL    HW2 1014   1.632   0.691   0.403
  110SOL     OW 1015   0.354   1.510   1.329
  110SOL    HW1 1016   0.333   1.466   1.242
  110SOL    HW2 1017   0.451   1.536   1.332
  111SOL     OW 1018   0.402   0.751   1.598
  111SOL    HW1 1019   0.470   0.806   1.551
  111SOL    HW2 1020   0.442   0.663   1.625
  112SOL     OW 1021   1.587   0.779   1.670
  112SOL    HW1 1022   1.495   0.817   1.665
  112SOL    HW2 1023   1.647   0.826   1.605
  113SOL     OW 1024   1.013   0.105   1.770
  113SOL    HW1 1025   1.019   0.190   1.718
  113SOL    HW2 1026   1.045   0.029   1.713
  114SOL     OW 1027   0.504   0.050   1.740
  114SOL    HW1 1028   0.462  -0.007   1.670
  114SOL    HW2 1029   0.438   0.119   1.772
  115SOL     OW 1030   0.573   0.870   1.029
  115SOL    HW1 1031   0.617   0.959   1.020
  115SOL    HW2 1032   0.510   0.870   1.106
  116SOL     OW 1033   1.360   0.862   1.045
  116SOL    HW1 1034   1.285   0.862   0.979
  116SOL    HW2 1035   1.397   0.770   1.054
  117SOL     OW 1036   1.209   0.525   0.275
  117SOL    HW1 1037   1.222   0.441   0.329
  117SOL    HW2 1038   1.180   0.599   0.335
  118SOL     OW 1039   0.307   0.213   1.231
  118SOL    HW1 1040   0.284   0.250   1.321
  118SOL    HW2 1041   0.277   0.118   1.225
  119SOL     OW 1042   0.037   1.310   1.282
  119SOL    HW1 1043   0.090   1.261   1.350
  119SOL    HW2 1044   0.059   1.408   1.287
  120SOL     OW 1045   0.732   0.634   1.064
  120SOL    HW1 1046   0.791   0.608   0.988
  120SOL    HW2 1047   0.704   0.730   1.053
  121SOL     OW 1048   1.728   0.935   1.854
  121SOL    HW1 1049   1.682   0.928   1.765
  121SOL    HW2 1050   1.666   0.979   1.920
  122SOL     OW 1051   0.307   0.063   0.618
  122SOL    HW1 1052   0.296   0.157   0.651
  122SOL    HW2 1053   0.302   0.000   0.695
  123SOL     OW 1054   1.622   0.367   0.374
  123SOL    HW1 1055   1.624   0.291   0.438
  123SOL    HW2 1056   1.574   0.444   0.414
  124SOL     OW 1057   1.023   0.766   0.966
  124SOL    HW1 1058   1.038   0.787   1.062
  124SOL    HW2 1059   0.993   0.671   0.957
  125SOL     OW 1060   0.980   1.573   1.700
  125SOL    HW1 1061   0.960   1.617   1.612
  125SOL    HW2 1062   1.019   1.482   1.684
  126SOL     OW 1063   1.859   1.518   1.605
  126SOL    HW1 1064   1.873   1.545   1.510
  126SOL    HW2 1065   1.942   1.540   1.658
  127SOL     OW 1066   0.350   0.898   1.804
  127SOL    HW1 1067   0.426   0.942   1.852
  127SOL    HW2 1068   0.385   0.851   1.722
  128SOL     OW 1069   1.540   0.274   0.125
  128SOL    HW1 1070   1.479   0.199   0.148
  128SOL    HW2 1071   1.562   0.326   0.208
  129SOL     OW 1072   1.303   0.838   0.042
  129SOL    HW1 1073   1.337   0.745   0.057
  129SOL    HW2 1074   1.321   0.865  -0.053
  130SOL     OW 1075   1.068   1.333   0.849
  130SOL    HW1 1076   1.075   1.249   0.794
  130SOL    HW2 1077   1.130   1.402   0.813
  131SOL     OW 1078   0.319   0.810   0.949
  131SOL    HW1 1079   0.412   0.846   0.954
  131SOL    HW2 1080   0.313   0.725   1.001
  132SOL     OW 1081   0.339   0.509   1.006
  132SOL    HW1 1082   0.287   0.426   0.989
  132SOL    HW2 1083   0.416   0.514   0.942
  133SOL     OW 1084   1.138   0.380   1.678
  133SOL    HW1 1085   1.093   0.443   1.742
  133SOL    HW2 1086   1.231   0.411   1.661
  134SOL     OW 1087   1.160   0.207   1.477
  134SOL    HW1 1088   1.160   0.271   1.554
  134SOL    HW2 1089   1.188   0.255   1.394
  135SOL     OW 1090   0.008   1.326   0.200
  135SOL    HW1 1091  -0.085   1.347   0.169
  135SOL    HW2 1092   0.018   1.227   0.213
  136SOL     OW 1093   0.088   1.801   0.927
  136SOL    HW1 1094   0.046   1.715   0.900
  136SOL    HW2 1095   0.182   1.804   0.893
  137SOL     OW 1096   0.504   1.568   0.910
  137SOL    HW1 1097   0.570   1.642   0.919
  137SOL    HW2 1098   0.548   1.489   0.868
  138SOL     OW 1099   1.002   0.796   1.238
  138SOL    HW1 1100   1.043   0.764   1.324
  138SOL    HW2 1101   0.906   0.769   1.235
  139SOL     OW 1102   0.040   0.544   1.114
  139SOL    HW1 1103   0.125   0.511   1.073
  139SOL    HW2 1104   0.053   0.559   1.212
  140SOL     OW 1105   0.189   0.520   1.722
  140SOL    HW1 1106   0.248   0.480   1.652
  140SOL    HW2 1107   0.131   0.591   1.681
  141SOL     OW 1108   1.369   0.950   1.660
  141SOL    HW1 1109   1.408   1.039   1.680
  141SOL    HW2 1110   1.379   0.930   1.563
  142SOL     OW 1111   0.815   0.572   0.325
  142SOL    HW1 1112   0.822   0.483   0.279
  142SOL    HW2 1113   0.721   0.606   0.317
  143SOL     OW 1114   1.657   0.604   1.206
  143SOL    HW1 1115   1.619   0.535   1.268
  143SOL    HW2 1116   1.739   0.568   1.162
  144SOL     OW 1117   0.252   1.564   1.744
  144SOL    HW1 1118   0.222   1.621   1.820
  144SOL    HW2 1119   0.245   1.467   1.770
  145SOL     OW 1120   0.671   0.464   1.269
  145SOL    HW1 1121   0.637   0.375   1.239
  145SOL    HW2 1122   0.697   0.518   1.189
  146SOL     OW 1123   0.930   1.678   1.465
  146SOL    HW1 1124   0.906   1.660   1.370
  146SOL    HW2 1125   0.960   1.772   1.475
  147SOL     OW 1126   0.473   0.500   0.191
  147SOL    HW1 1127   0.534   0.580   0.195
  147SOL    HW2 1128   0.378   0.531   0.198
  148SOL     OW 1129   0.159   1.137   1.466
  148SOL    HW1 1130   0.181   1.076   1.542
  148SOL    HW2 1131   0.169   1.088   1.380
  149SOL     OW 1132   1.347   1.059   1.234
  149SOL    HW1 1133   1.371   0.996   1.160
  149SOL    HW2 1134   1.257   1.099   1.216
  150SOL     OW 1135   1.302   0.855   0.309
  150SOL    HW1 1136   1.216   0.824   0.351
  150SOL    HW2 1137   1.298   0.841   0.210
  151SOL     OW 1138   1.759   1.747   1.154
  151SOL    HW1 1139   1.820   1.777   1.081
  151SOL    HW2 1140   1.721   1.658   1.132
  152SOL     OW 1141   1.252   1.731   1.128
  152SOL    HW1 1142   1.336   1.736   1.074
  152SOL    HW2 1143   1.229   1.635   1.146
  153SOL     OW 1144   0.083   1.258   1.022
  153SOL    HW1 1145   0.078   1.257   1.122
  153SOL    HW2 1146   0.000   1.217   0.984
  154SOL     OW 1147   0.688   1.662   1.716
  154SOL    HW1 1148   0.632   1.743   1.725
  154SOL    HW2 1149   0.740   1.666   1.630
  155SOL     OW 1150   0.903   0.086   0.133
  155SOL    HW1 1151   0.954   0.087   0.047
  155SOL    HW2 1152   0.959   0.044   0.204
  156SOL     OW 1153   1.726   0.135   0.523
  156SOL    HW1 1154   1.799   0.118   0.456
  156SOL    HW2 1155   1.695   0.048   0.561
  157SOL     OW 1156   1.388   1.573   0.477
  157SOL    HW1 1157   1.455   1.585   0.403
  157SOL    HW2 1158   1.348   1.662   0.500
  158SOL     OW 1159   0.130   1.794   1.851
  158SOL    HW1 1160   0.089   1.720   1.904
  158SOL    HW2 1161   0.194   1.845   1.909
  159SOL     OW 1162   1.280   0.927   0.672
  159SOL    HW1 1163   1.340   0.846   0.674
  159SOL    HW2 1164   1.320   0.996   0.612
  160SOL     OW 1165   0.830   1.273   1.422
  160SOL    HW1 1166   0.825   1.306   1.517
  160SOL    HW2 1167   0.744   1.292   1.376
  161SOL     OW 1168   0.672   1.616   0.154
  161SOL    HW1 1169   0.681   1.626   0.055
  161SOL    HW2 1170   0.632   1.527   0.175
  162SOL     OW 1171   1.650   1.720   1.394
  162SOL    HW1 1172   1.703   1.730   1.310
  162SOL    HW2 1173   1.623   1.810   1.428
  163SOL     OW 1174   1.841   0.175   0.963
  163SOL    HW1 1175   1.880   0.090   0.927
  163SOL    HW2 1176   1.743   0.177   0.944
  164SOL     OW 1177   0.263   0.326   0.720
  164SOL    HW1 1178   0.184   0.377   0.686
  164SOL    HW2 1179   0.254   0.311   0.818
  165SOL     OW 1180   1.194   1.612   0.031
  165SOL    HW1 1181   1.200   1.519   0.068
  165SOL    HW2 1182   1.135   1.612  -0.049
  166SOL     OW 1183   0.822   1.002   1.372
  166SOL    HW1 1184   0.862   1.001   1.280
  166SOL    HW2 1185   0.832   1.094   1.412
  167SOL     OW 1186   0.916   0.910   0.291
  167SOL    HW1 1187   0.979   0.948   0.223
  167SOL    HW2 1188   0.956   0.827   0.330
  168SOL     OW 1189   1.504   1.607   0.044
  168SOL    HW1 1190   1.412   1.644   0.051
  168SOL    HW2 1191   1.542   1.627  -0.046
  169SOL     OW 1192   0.372   1.288   1.490
  169SOL    HW1 1193   0.359   1.381   1.456
  169SOL    HW2 1194   0.288   1.236   1.477
  170SOL     OW 1195   1.614   1.292   1.289
  170SOL    HW1 1196   1.674   1.295   1.369
  170SOL    HW2 1197   1.539   1.356   1.302
  171SOL     OW 1198   1.039   1.098   0.696
  171SOL    HW1 1199   0.969   1.051   0.750
  171SOL    HW2 1200   1.098   1.030   0.653
  172SOL     OW 1201   1.014   0.236   0.971
  172SOL    HW1 1202   1.006   0.200   0.878
  172SOL    HW2 1203   1.012   0.160   1.036
  173SOL     OW 1204   0.590   1.487   0.491
  173SOL    HW1 1205   0.632   1.429   0.421
  173SOL    HW2 1206   0.546   1.566   0.447
  174SOL     OW 1207   1.709   0.385   1.381
  174SOL    HW1 1208   1.782   0.454   1.385
  174SOL    HW2 1209   1.737   0.310   1.322
  175SOL     OW 1210   0.255   1.348   0.290
  175SOL    HW1 1211   0.159   1.349   0.263
  175SOL    HW2 1212   0.267   1.401   0.374
  176SOL     OW 1213   0.105   1.013   1.726
  176SOL    HW1 1214   0.028   0.980   1.780
  176SOL    HW2 1215   0.190   0.983   1.768
  177SOL     OW 1216   0.672   0.203   1.489
  177SOL    HW1 1217   0.762   0.187   1.449
  177SOL    HW2 1218   0.680   0.208   1.588
  178SOL     OW 1219   0.075   0.345   0.033
  178SOL    HW1 1220  -0.017   0.317   0.004
  178SOL    HW2 1221   0.106   0.422  -0.023
  179SOL     OW 1222   1.440   0.856   1.398
  179SOL    HW1 1223   1.383   0.908   1.335
  179SOL    HW2 1224   1.536   0.868   1.374
  180SOL     OW 1225   0.072   0.166   0.318
  180SOL    HW1 1226   0.055   0.249   0.264
  180SOL    HW2 1227   0.162   0.129   0.296
  181SOL     OW 1228   1.183   1.335   0.119
  181SOL    HW1 1229   1.084   1.324   0.121
  181SOL    HW2 1230   1.217   1.350   0.212
  182SOL     OW 1231   0.613   0.842   1.431
  182SOL    HW1 1232   0.669   0.923   1.414
  182SOL    HW2 1233   0.672   0.762   1.434
  183SOL     OW 1234   1.493   1.767   0.959
  183SOL    HW1 1235   1.526   1.831   0.890
  183SOL    HW2 1236   1.559   1.761   1.034
  184SOL     OW 1237   0.716   0.565   1.708
  184SOL    HW1 1238   0.735   0.630   1.782
  184SOL    HW2 1239   0.776   0.485   1.717
  185SOL     OW 1240   1.450   1.220   1.633
  185SOL    HW1 1241   1.441   1.210   1.732
  185SOL    HW2 1242   1.546   1.213   1.607
  186SOL     OW 1243   0.390   1.741   1.560
  186SOL    HW1 1244   0.299   1.782   1.558
  186SOL    HW2 1245   0.383   1.647   1.592
  187SOL     OW 1246   1.674   0.883   1.254
  187SOL    HW1 1247   1.647   0.794   1.217
  187SOL    HW2 1248   1.675   0.951   1.181
  188SOL     OW 1249   1.225   0.325   0.449
  188SOL    HW1 1250   1.290   0.251   0.438
  188SOL    HW2 1251   1.245   0.375   0.533
  189SOL     OW 1252   0.594   0.745   0.652
  189SOL    HW1 1253   0.644   0.830   0.633
  189SOL    HW2 1254   0.506   0.747   0.604
  190SOL     OW 1255   1.777   0.342   1.642
  190SOL    HW1 1256   1.760   0.373   1.548
  190SOL    HW2 1257   1.693   0.305   1.680
  191SOL     OW 1258   1.730   0.934   1.517
  191SOL    HW1 1259   1.768   1.025   1.532
  191SOL    HW2 1260   1.722   0.917   1.418
  192SOL     OW 1261   0.859   1.374   0.016
  192SOL    HW1 1262   0.813   1.389   0.104
  192SOL    HW2 1263   0.903   1.459  -0.014
  193SOL     OW 1264   0.661   1.790   0.953
  193SOL    HW1 1265   0.615   1.878   0.940
  193SOL    HW2 1266   0.760   1.802   0.946
  194SOL     OW 1267   0.859   0.956   0.861
  194SOL    HW1 1268   0.913   0.887   0.909
  194SOL    HW2 1269   0.827   1.025   0.927
  195SOL     OW 1270   1.083   0.984   0.087
  195SOL    HW1 1271   1.060   1.037   0.005
  195SOL    HW2 1272   1.164   0.928   0.068
  196SOL     OW 1273   1.861   1.569   0.851
  196SOL    HW1 1274   1.790   1.557   0.781
  196SOL    HW2 1275   1.862   1.490   0.911
  197SOL     OW 1276   0.221   1.314   1.844
  197SOL    HW1 1277   0.156   1.241   1.823
  197SOL    HW2 1278   0.225   1.328   1.942
  198SOL     OW 1279   0.079   1.240   0.653
  198SOL    HW1 1280   0.078   1.193   0.741
  198SOL    HW2 1281   0.161   1.212   0.602
  199SOL     OW 1282   0.672   1.391   1.624
  199SOL    HW1 1283   0.594   1.341   1.662
  199SOL    HW2 1284   0.669   1.486   1.655
  200SOL     OW 1285   1.824   0.192   1.227
  200SOL    HW1 1286   1.820   0.102   1.271
  200SOL    HW2 1287   1.827   0.181   1.128
  201SOL     OW 1288   0.428   0.424   0.520
  201SOL    HW1 1289   0.458   0.352   0.458
  201SOL    HW2 1290   0.389   0.384   0.603
  202SOL     OW 1291   1.705   1.487   1.104
  202SOL    HW1 1292   1.612   1.462   1.077
  202SOL    HW2 1293   1.731   1.437   1.186
  203SOL     OW 1294   0.317   0.547   1.280
  203SOL    HW1 1295   0.355   0.488   1.352
  203SOL    HW2 1296   0.357   0.521   1.192
  204SOL     OW 1297   0.812   1.586   0.687
  204SOL    HW1 1298   0.844   1.596   0.593
  204SOL    HW2 1299   0.733   1.524   0.689
  205SOL     OW 1300   1.424   0.214   1.112
  205SOL    HW1 1301   1.476   0.149   1.167
  205SOL    HW2 1302   1.375   0.277   1.173
  206SOL     OW 1303   1.001   0.034   1.154
  206SOL    HW1 1304   0.938  -0.038   1.123
  206SOL    HW2 1305   1.094  -0.002   1.154
  207SOL     OW 1306   0.770   1.330   0.301
  207SOL    HW1 1307   0.724   1.243   0.318
  207SOL    HW2 1308   0.861   1.327   0.342
  208SOL     OW 1309   0.618   1.567   1.284
  208SOL    HW1 1310   0.613   1.649   1.341
  208SOL    HW2 1311   0.707   1.564   1.239
  209SOL     OW 1312   1.352   0.052   0.168
  209SOL    HW1 1313   1.387   0.011   0.084
  209SOL    HW2 1314   1.262   0.014   0.188
  210SOL     OW 1315   1.300   0.453   0.691
  210SOL    HW1 1316   1.241   0.533   0.695
  210SOL    HW2 1317   1.315   0.418   0.784
  211SOL     OW 1318   1.593   0.221   0.882
  211SOL    HW1 1319   1.509   0.220   0.936
  211SOL    HW2 1320   1.595   0.304   0.826
  212SOL     OW 1321   0.039   1.077   0.300
  212SOL    HW1 1322   0.138   1.066   0.291
  212SOL    HW2 1323  -0.001   0.991   0.332
  213SOL     OW 1324   0.875   1.646   0.337
  213SOL    HW1 1325   0.798   1.611   0.283
  213SOL    HW2 1326   0.843   1.717   0.399
  214SOL     OW 1327   0.230   0.628   1.975
  214SOL    HW1 1328   0.137   0.626   2.012
  214SOL    HW2 1329   0.231   0.589   1.883
  215SOL     OW 1330   0.225   0.275   2.858
  215SOL    HW1 1331   0.260   0.258   2.950
  215SOL    HW2 1332   0.137   0.230   2.846
  216SOL     OW 1333   0.019   0.368   2.509
  216SOL    HW1 1334  -0.063   0.411   2.548
  216SOL    HW2 1335  -0.009   0.295   2.446
  217SOL     OW 1336   0.569   1.275   3.027
  217SOL    HW1 1337   0.476   1.268   2.990
  217SOL    HW2 1338   0.580   1.364   3.071
  218SOL     OW 1339   1.555   1.511   2.565
  218SOL    HW1 1340   1.498   1.495   2.646
  218SOL    HW2 1341   1.496   1.521   2.485
  219SOL     OW 1342   1.135   0.703   2.579
  219SOL    HW1 1343   1.192   0.781   2.554
  219SOL    HW2 1344   1.075   0.729   2.655
  220SOL     OW 1345   1.755   0.607   2.093
  220SOL    HW1 1346   1.743   0.594   1.994
  220SOL    HW2 1347   1.725   0.526   2.142
  221SOL     OW 1348   0.768   1.144   2.885
  221SOL    HW1 1349   0.690   1.161   2.945
  221SOL    HW2 1350   0.802   1.231   2.849
  222SOL     OW 1351   0.850   0.798   3.685
  222SOL    HW1 1352   0.846   0.874   3.750
  222SOL    HW2 1353   0.872   0.834   3.594
  223SOL     OW 1354   0.685   1.012   2.527
  223SOL    HW1 1355   0.754   0.996   2.597
  223SOL    HW2 1356   0.612   1.069   2.565
  224SOL     OW 1357   0.686   1.161   3.665
  224SOL    HW1 1358   0.746   1.240   3.679
  224SOL    HW2 1359   0.600   1.192   3.624
  225SOL     OW 1360   0.335   1.435   2.923
  225SOL    HW1 1361   0.257   1.404   2.870
  225SOL    HW2 1362   0.393   1.493   2.866
  226SOL     OW 1363   1.460   1.505   3.201
  226SOL    HW1 1364   1.484   1.599   3.227
  226SOL    HW2 1365   1.444   1.451   3.283
  227SOL     OW 1366   0.438   0.392   3.361
  227SOL    HW1 1367   0.520   0.336   3.370
  227SOL    HW2 1368   0.357   0.334   3.365
  228SOL     OW 1369   1.603   0.447   2.599
  228SOL    HW1 1370   1.529   0.493   2.549
  228SOL    HW2 1371   1.654   0.515   2.652
  229SOL     OW 1372   0.231   1.713   2.345
  229SOL    HW1 1373   0.265   1.790   2.399
  229SOL    HW2 1374   0.275   1.713   2.255
  230SOL     OW 1375   1.127   1.341   3.552
  230SOL    HW1 1376   1.174   1.341   3.640
  230SOL    HW2 1377   1.079   1.254   3.541
  231SOL     OW 1378   0.230   1.434   2.400
  231SOL    HW1 1379   0.204   1.530   2.400
  231SOL    HW2 1380   0.159   1.380   2.445
  232SOL     OW 1381   0.240   1.091   2.748
  232SOL    HW1 1382   0.254   1.007   2.800
  232SOL    HW2 1383   0.185   1.155   2.803
  233SOL     OW 1384   0.620   1.786   3.301
  233SOL    HW1 1385   0.528   1.769   3.336
  233SOL    HW2 1386   0.648   1.878   3.327
  234SOL     OW 1387   0.606   0.964   1.985
  234SOL    HW1 1388   0.613   1.048   1.931
  234SOL    HW2 1389   0.652   0.977   2.073
  235SOL     OW 1390   1.594   0.114   3.342
  235SOL    HW1 1391   1.576   0.181   3.270
  235SOL    HW2 1392   1.591   0.160   3.431
  236SOL     OW 1393   0.122   0.643   2.425
  236SOL    HW1 1394   0.077   0.555   2.442
  236SOL    HW2 1395   0.121   0.697   2.509
  237SOL     OW 1396   0.027   1.596   1.979
  237SOL    HW1 1397   0.008   1.500   2.000
  237SOL    HW2 1398  -0.006   1.654   2.054
  238SOL     OW 1399   1.689   0.922   2.474
  238SOL    HW1 1400   1.784   0.893   2.482
  238SOL    HW2 1401   1.681   0.987   2.399
  239SOL     OW 1402   1.641   1.108   2.294
  239SOL    HW1 1403   1.727   1.110   2.242
  239SOL    HW2 1404   1.655   1.155   2.382
  240SOL     OW 1405   0.113   0.737   3.459
  240SOL    HW1 1406   0.201   0.724   3.504
  240SOL    HW2 1407   0.100   0.834   3.437
  241SOL     OW 1408   0.613   1.365   2.588
  241SOL    HW1 1409   0.564   1.278   2.597
  241SOL    HW2 1410   0.590   1.408   2.501
  242SOL     OW 1411   1.293   1.228   3.285
  242SOL    HW1 1412   1.330   1.155   3.227
  242SOL    HW2 1413   1.345   1.233   3.370
  243SOL     OW 1414   0.809   0.004   2.364
  243SOL    HW1 1415   0.849   0.095   2.355
  243SOL    HW2 1416   0.709   0.012   2.370
  244SOL     OW 1417   0.197   0.976   3.126
  244SOL    HW1 1418   0.286   0.931   3.112
  244SOL    HW2 1419   0.124   0.911   3.107
  245SOL     OW 1420   1.525   0.999   2.052
  245SOL    HW1 1421   1.462   0.923   2.065
  245SOL    HW2 1422   1.573   1.017   2.138
  246SOL     OW 1423   1.187   1.792   3.478
  246SOL    HW1 1424   1.211   1.852   3.402
  246SOL    HW2 1425   1.194   1.697   3.448
  247SOL     OW 1426   0.317   0.251   3.663
  247SOL    HW1 1427   0.388   0.322   3.669
  247SOL    HW2 1428   0.229   0.290   3.691
  248SOL     OW 1429   1.466   1.417   2.815
  248SOL    HW1 1430   1.407   1.423   2.895
  248SOL    HW2 1431   1.451   1.329   2.769
  249SOL     OW 1432   1.667   1.714   2.434
  249SOL    HW1 1433   1.626   1.691   2.346
  249SOL    HW2 1434   1.649   1.640   2.499
  250SOL     OW 1435   0.598   0.729   2.132
  250SOL    HW1 1436   0.622   0.798   2.064
  250SOL    HW2 1437   0.520   0.762   2.186
  251SOL     OW 1438   1.281   0.345   2.806
  251SOL    HW1 1439   1.195   0.295   2.793
  251SOL    HW2 1440   1.343   0.291   2.862
  252SOL     OW 1441   1.576   1.662   2.169
  252SOL    HW1 1442   1.665   1.708   2.172
  252SOL    HW2 1443   1.555   1.638   2.074
  253SOL     OW 1444   0.807   0.605   3.327
  253SOL    HW1 1445   0.760   0.602   3.416
  253SOL    HW2 1446   0.756   0.550   3.261
  254SOL     OW 1447   1.394   0.469   3.536
  254SOL    HW1 1448   1.374   0.512   3.624
  254SOL    HW2 1449   1.472   0.407   3.545
  255SOL     OW 1450   0.973   0.890   3.434
  255SOL    HW1 1451   1.019   0.806   3.405
  255SOL    HW2 1452   0.917   0.924   3.359
  256SOL     OW 1453   0.991   0.410   3.104
  256SOL    HW1 1454   0.914   0.444   3.158
  256SOL    HW2 1455   0.957   0.359   3.025
  257SOL     OW 1456   1.041   0.701   2.291
  257SOL    HW1 1457   1.067   0.697   2.387
  257SOL    HW2 1458   0.956   0.650   2.277
  258SOL     OW 1459   0.076   0.811   2.651
  258SOL    HW1 1460   0.175   0.799   2.660
  258SOL    HW2 1461   0.052   0.906   2.672
  259SOL     OW 1462   0.130   1.821   3.433
  259SOL    HW1 1463   0.120   1.806   3.532
  259SOL    HW2 1464   0.044   1.857   3.397
  260SOL     OW 1465   0.865   0.348   2.057
  260SOL    HW1 1466   0.924   0.411   2.008
  260SOL    HW2 1467   0.884   0.254   2.028
  261SOL     OW 1468   1.719   0.585   3.693
  261SOL    HW1 1469   1.693   0.674   3.657
  261SOL    HW2 1470   1.717   0.517   3.620
  262SOL     OW 1471   1.362   1.144   2.407
  262SOL    HW1 1472   1.445   1.115   2.359
  262SOL    HW2 1473   1.313   1.211   2.351
  263SOL     OW 1474   0.550   0.196   2.747
  263SOL    HW1 1475   0.545   0.191   2.847
  263SOL    HW2 1476   0.552   0.292   2.718
  264SOL     OW 1477   1.008   1.456   2.339
  264SOL    HW1 1478   0.962   1.528   2.287
  264SOL    HW2 1479   1.004   1.476   2.437
  265SOL     OW 1480   0.351   1.801   2.715
  265SOL    HW1 1481   0.401   1.715   2.721
  265SOL    HW2 1482   0.416   1.878   2.712
  266SOL     OW 1483   1.795   1.066   2.735
  266SOL    HW1 1484   1.733   1.051   2.659
  266SOL    HW2 1485   1.743   1.077   2.820
  267SOL     OW 1486   1.227   1.550   3.368
  267SOL    HW1 1487   1.233   1.473   3.432
  267SOL    HW2 1488   1.175   1.524   3.288
  268SOL     OW 1489   0.321   0.943   2.104
  268SOL    HW1 1490   0.403   0.982   2.062
  268SOL    HW2 1491   0.294   0.861   2.055
  269SOL     OW 1492   1.458   0.735   2.590
  269SOL    HW1 1493   1.453   0.670   2.665
  269SOL    HW2 1494   1.538   0.794   2.603
  270SOL     OW 1495   0.461   1.266   3.589
  270SOL    HW1 1496   0.411   1.267   3.503
  270SOL    HW2 1497   0.398   1.248   3.665
  271SOL     OW 1498   1.111   1.776   2.099
  271SOL    HW1 1499   1.051   1.714   2.149
  271SOL    HW2 1500   1.142   1.732   2.014
  272SOL     OW 1501   0.202   0.285   3.360
  272SOL    HW1 1502   0.122   0.345   3.347
  272SOL    HW2 1503   0.192   0.236   3.446
  273SOL     OW 1504   1.632   1.377   1.943
  273SOL    HW1 1505   1.600   1.471   1.933
  273SOL    HW2 1506   1.556   1.314   1.931
  274SOL     OW 1507   0.464   1.743   2.185
  274SOL    HW1 1508   0.497   1.782   2.271
  274SOL    HW2 1509   0.540   1.736   2.120
  275SOL     OW 1510   1.400   0.107   2.288
  275SOL    HW1 1511   1.376   0.070   2.198
  275SOL    HW2 1512   1.499   0.123   2.292
  276SOL     OW 1513   0.249   1.785   3.103
  276SOL    HW1 1514   0.306   1.720   3.153
  276SOL    HW2 1515   0.233   1.752   3.010
  277SOL     OW 1516   0.940   1.698   2.766
  277SOL    HW1 1517   1.020   1.641   2.787
  277SOL    HW2 1518   0.891   1.658   2.689
  278SOL     OW 1519   0.382   0.700   2.342
  278SOL    HW1 1520   0.427   0.610   2.339
  278SOL    HW2 1521   0.288   0.689   2.375
  279SOL     OW 1522   1.547   0.222   3.591
  279SOL    HW1 1523   1.542   0.259   3.683
  279SOL    HW2 1524   1.475   0.153   3.579
  280SOL     OW 1525   0.614   0.122   1.979
  280SOL    HW1 1526   0.712   0.100   1.986
  280SOL    HW2 1527   0.583   0.105   1.886
  281SOL     OW 1528   0.781   0.264   3.611
  281SOL    HW1 1529   0.848   0.203   3.654
  281SOL    HW2 1530   0.708   0.283   3.676
  282SOL     OW 1531   0.888   1.514   3.057
  282SOL    HW1 1532   0.865   1.489   2.963
  282SOL    HW2 1533   0.949   1.445   3.096
  283SOL     OW 1534   1.351   0.590   3.295
  283SOL    HW1 1535   1.379   0.547   3.380
  283SOL    HW2 1536   1.376   0.686   3.296
  284SOL     OW 1537   0.803   1.402   2.786
  284SOL    HW1 1538   0.893   1.416   2.744
  284SOL    HW2 1539   0.732   1.404   2.715
  285SOL     OW 1540   0.922   0.503   2.761
  285SOL    HW1 1541   0.897   0.494   2.665
  285SOL    HW2 1542   0.970   0.421   2.792
  286SOL     OW 1543   0.539   0.064   2.374
  286SOL    HW1 1544   0.458   0.065   2.432
  286SOL    HW2 1545   0.542   0.147   2.319
  287SOL     OW 1546   1.434   1.188   1.903
  287SOL    HW1 1547   1.466   1.112   1.960
  287SOL    HW2 1548   1.342   1.215   1.933
  288SOL     OW 1549   0.297   0.035   2.033
  288SOL    HW1 1550   0.346   0.119   2.012
  288SOL    HW2 1551   0.359  -0.030   2.078
  289SOL     OW 1552   0.935   0.236   2.342
  289SOL    HW1 1553   0.887   0.277   2.264
  289SOL    HW2 1554   1.034   0.234   2.323
  290SOL     OW 1555   1.076   0.683   3.326
  290SOL    HW1 1556   0.996   0.622   3.329
  290SOL    HW2 1557   1.157   0.630   3.302
  291SOL     OW 1558   1.227   1.570   2.655
  291SOL    HW1 1559   1.248   1.644   2.590
  291SOL    HW2 1560   1.295   1.570   2.728
  292SOL     OW 1561   0.459   1.152   2.603
  292SOL    HW1 1562   0.388   1.125   2.668
  292SOL    HW2 1563   0.433   1.124   2.510
  293SOL     OW 1564   1.271   1.797   2.453
  293SOL    HW1 1565   1.315   1.861   2.389
  293SOL    HW2 1566   1.221   1.849   2.523
  294SOL     OW 1567   1.032   0.549   1.878
  294SOL    HW1 1568   0.991   0.631   1.839
  294SOL    HW2 1569   1.096   0.575   1.951
  295SOL     OW 1570   0.078   0.556   3.248
  295SOL    HW1 1571   0.170   0.555   3.207
  295SOL    HW2 1572   0.072   0.630   3.315
  296SOL     OW 1573   0.561   0.222   3.009
  296SOL    HW1 1574   0.599   0.138   3.046
  296SOL    HW2 1575   0.473   0.241   3.053
  297SOL     OW 1576   0.866   0.454   2.504
  297SOL    HW1 1577   0.834   0.526   2.442
  297SOL    HW2 1578   0.890   0.373   2.451
  298SOL     OW 1579   1.017   0.039   2.615
  298SOL    HW1 1580   0.945   0.044   2.546
  298SOL    HW2 1581   0.993  -0.030   2.684
  299SOL     OW 1582   1.429   1.173   2.729
  299SOL    HW1 1583   1.374   1.089   2.722
  299SOL    HW2 1584   1.455   1.202   2.637
  300SOL     OW 1585   1.466   0.590   2.854
  300SOL    HW1 1586   1.436   0.495   2.861
  300SOL    HW2 1587   1.539   0.606   2.920
  301SOL     OW 1588   1.857   0.833   2.239
  301SOL    HW1 1589   1.899   0.769   2.303
  301SOL    HW2 1590   1.819   0.782   2.161
  302SOL     OW 1591   0.488   1.385   2.036
  302SOL    HW1 1592   0.401   1.370   2.083
  302SOL    HW2 1593   0.471   1.411   1.941
  303SOL     OW 1594   1.664   1.280   2.519
  303SOL    HW1 1595   1.763   1.288   2.533
  303SOL    HW2 1596   1.619   1.364   2.550
  304SOL     OW 1597   1.390   0.575   1.940
  304SOL    HW1 1598   1.336   0.554   2.021
  304SOL    HW2 1599   1.481   0.534   1.949
  305SOL     OW 1600   0.527   0.256   2.190
  305SOL    HW1 1601   0.554   0.197   2.115
  305SOL    HW2 1602   0.527   0.351   2.159
  306SOL     OW 1603   1.754   1.223   3.450
  306SOL    HW1 1604   1.845   1.184   3.437
  306SOL    HW2 1605   1.762   1.319   3.474
  307SOL     OW 1606   1.064   1.347   3.202
  307SOL    HW1 1607   0.984   1.324   3.257
  307SOL    HW2 1608   1.147   1.321   3.251
  308SOL     OW 1609   1.592   1.629   3.487
  308SOL    HW1 1610   1.619   1.663   3.397
  308SOL    HW2 1611   1.671   1.591   3.533
  309SOL     OW 1612   1.111   1.195   2.962
  309SOL    HW1 1613   1.071   1.239   3.043
  309SOL    HW2 1614   1.070   1.232   2.879
  310SOL     OW 1615   1.638   1.099   2.941
  310SOL    HW1 1616   1.643   1.180   3.000
  310SOL    HW2 1617   1.552   1.101   2.890
  311SOL     OW 1618   0.915   0.089   3.264
  311SOL    HW1 1619   0.940   0.069   3.169
  311SOL    HW2 1620   0.987   0.145   3.306
  312SOL     OW 1621   0.980   1.116   3.581
  312SOL    HW1 1622   0.881   1.122   3.591
  312SOL    HW2 1623   1.003   1.036   3.525
  313SOL     OW 1624   0.705   1.050   2.230
  313SOL    HW1 1625   0.691   1.057   2.329
  313SOL    HW2 1626   0.789   0.999   2.212
  314SOL     OW 1627   0.410   0.813   3.113
  314SOL    HW1 1628   0.496   0.825   3.163
  314SOL    HW2 1629   0.368   0.726   3.140
  315SOL     OW 1630   1.274   0.386   3.124
  315SOL    HW1 1631   1.295   0.460   3.188
  315SOL    HW2 1632   1.185   0.403   3.081
  316SOL     OW 1633   0.064   1.564   3.193
  316SOL    HW1 1634   0.018   1.646   3.159
  316SOL    HW2 1635   0.162   1.583   3.202
  317SOL     OW 1636   0.367   1.100   2.363
  317SOL    HW1 1637   0.360   1.183   2.307
  317SOL    HW2 1638   0.371   1.020   2.303
  318SOL     OW 1639   0.566   0.537   2.727
  318SOL    HW1 1640   0.578   0.603   2.653
  318SOL    HW2 1641   0.612   0.571   2.810
  319SOL     OW 1642   1.252   1.348   2.250
  319SOL    HW1 1643   1.302   1.425   2.290
  319SOL    HW2 1644   1.157   1.350   2.282
  320SOL     OW 1645   1.272   1.445   3.004
  320SOL    HW1 1646   1.319   1.458   3.091
  320SOL    HW2 1647   1.206   1.371   3.013
  321SOL     OW 1648   1.582   0.639   2.334
  321SOL    HW1 1649   1.551   0.700   2.407
  321SOL    HW2 1650   1.632   0.691   2.265
  322SOL     OW 1651   0.354   1.510   3.191
  322SOL    HW1 1652   0.333   1.466   3.104
  322SOL    HW2 1653   0.451   1.536   3.194
  323SOL     OW 1654   0.402   0.751   3.460
  323SOL    HW1 1655   0.470   0.806   3.413
  323SOL    HW2 1656   0.442   0.663   3.487
  324SOL     OW 1657   1.587   0.779   3.532
  324SOL    HW1 1658   1.495   0.817   3.527
  324SOL    HW2 1659   1.647   0.826   3.467
  325SOL     OW 1660   1.013   0.105   3.632
  325SOL    HW1 1661   1.019   0.190   3.580
  325SOL    HW2 1662   1.045   0.029   3.575
  326SOL     OW 1663   0.504   0.050   3.602
  326SOL    HW1 1664   0.462  -0.007   3.532
  326SOL    HW2 1665   0.438   0.119   3.634
  327SOL     OW 1666   0.573   0.870   2.891
  327SOL    HW1 1667   0.617   0.959   2.882
  327SOL    HW2 1668   0.510   0.870   2.968
  328SOL     OW 1669   1.360   0.862   2.907
  328SOL    HW1 1670   1.285   0.862   2.841
  328SOL    HW2 1671   1.397   0.770   2.916
  329SOL     OW 1672   1.209   0.525   2.137
  329SOL    HW1 1673   1.222   0.441   2.191
  329SOL    HW2 1674   1.180   0.599   2.197
  330SOL     OW 1675   0.307   0.213   3.093
  330SOL    HW1 1676   0.284   0.250   3.183
  330SOL    HW2 1677   0.277   0.118   3.087
  331SOL     OW 1678   0.037   1.310   3.144
  331SOL    HW1 1679   0.090   1.261   3.212
  331SOL    HW2 1680   0.059   1.408   3.149
  332SOL     OW 1681   0.732   0.634   2.926
  332SOL    HW1 1682   0.791   0.608   2.850
  332SOL    HW2 1683   0.704   0.730   2.915
  333SOL     OW 1684   1.728   0.935   3.716
  333SOL    HW1 1685   1.682   0.928   3.627
  333SOL    HW2 1686   1.666   0.979   3.782
  334SOL     OW 1687   0.307   0.063   2.480
  334SOL    HW1 1688   0.296   0.157   2.513
  334SOL    HW2 1689   0.302   0.000   2.557
  335SOL     OW 1690   1.622   0.367   2.236
  335SOL    HW1 1691   1.624   0.291   2.300
  335SOL    HW2 1692   1.574   0.444   2.276
  336SOL     OW 1693   1.023   0.766   2.828
  336SOL    HW1 1694   1.038   0.787   2.924
  336SOL    HW2 1695   0.993   0.671   2.819
  337SOL     OW 1696   0.980   1.573   3.562
  337SOL    HW1 1697   0.960   1.617   3.474
  337SOL    HW2 1698   1.019   1.482   3.546
  338SOL     OW 1699   1.859   1.518   3.467
  338SOL    HW1 1700   1.873   1.545   3.372
  338SOL    HW2 1701   1.942   1.540   3.520
  339SOL     OW 1702   0.350   0.898   3.666
  339SOL    HW1 1703   0.426   0.942   3.714
  339SOL    HW2 1704   0.385   0.851   3.584
  340SOL     OW 1705   1.540   0.274   1.987
  340SOL    HW1 1706   1.479   0.199   2.010
  340SOL    HW2 1707   1.562   0.326   2.070
  341SOL     OW 1708   1.303   0.838   1.904
  341SOL    HW1 1709   1.337   0.745   1.919
  341SOL    HW2 1710   1.321   0.865   1.809
  342SOL     OW 1711   1.068   1.333   2.711
  342SOL    HW1 1712   1.075   1.249   2.656
  342SOL    HW2 1713   1.130   1.402   2.675
  343SOL     OW 1714   0.319   0.810   2.811
  343SOL    HW1 1715   0.412   0.846   2.816
  343SOL    HW2 1716   0.313   0.725   2.863
  344SOL     OW 1717   0.339   0.509   2.868
  344SOL    HW1 1718   0.287   0.426   2.851
  344SOL    HW2 1719   0.416   0.514   2.804
  345SOL     OW 1720   1.138   0.380   3.540
  345SOL    HW1 1721   1.093   0.443   3.604
  345SOL    HW2 1722   1.231   0.411   3.523
  346SOL     OW 1723   1.160   0.207   3.339
  346SOL    HW1 1724   1.160   0.271   3.416
  346SOL    HW2 1725   1.188   0.255   3.256
  347SOL     OW 1726   0.008   1.326   2.062
  347SOL    HW1 1727  -0.085   1.347   2.031
  347SOL    HW2 1728   0.018   1.227   2.075
  348SOL     OW 1729   0.088   1.801   2.789
  348SOL    HW1 1730   0.046   1.715   2.762
  348SOL    HW2 1731   0.182   1.804   2.755
  349SOL     OW 1732   0.504   1.568   2.772
  349SOL    HW1 1733   0.570   1.642   2.781
  349SOL    HW2 1734   0.548   1.489   2.730
  350SOL     OW 1735   1.002   0.796   3.100
  350SOL    HW1 1736   1.043   0.764   3.186
  350SOL    HW2 1737   0.906   0.769   3.097
  351SOL     OW 1738   0.040   0.544   2.976
  351SOL    HW1 1739   0.125   0.511   2.935
  351SOL    HW2 1740   0.053   0.559   3.074
  352SOL     OW 1741   0.189   0.520   3.584
  352SOL    HW1 1742   0.248   0.480   3.514
  352SOL    HW2 1743   0.131   0.591   3.543
  353SOL     OW 1744   1.369   0.950   3.522
  353SOL    HW1 1745   1.408   1.039   3.542
  353SOL    HW2 1746   1.379   0.930   3.425
  354SOL     OW 1747   0.815   0.572   2.187
  354SOL    HW1 1748   0.822   0.483   2.141
  354SOL    HW2 1749   0.721   0.606   2.179
  355SOL     OW 1750   1.657   0.604   3.068
  355SOL    HW1 1751   1.619   0.535   3.130
  355SOL    HW2 1752   1.739   0.568   3.024
  356SOL     OW 1753   0.252   1.564   3.606
  356SOL    HW1 1754   0.222   1.621   3.682
  356SOL    HW2 1755   0.245   1.467   3.632
  357SOL     OW 1756   0.671   0.464   3.131
  357SOL    HW1 1757   0.637   0.375   3.101
  357SOL    HW2 1758   0.697   0.518   3.051
  358SOL     OW 1759   0.930   1.678   3.327
  358SOL    HW1 1760   0.906   1.660   3.232
  358SOL    HW2 1761   0.960   1.772   3.337
  359SOL     OW 1762   0.473   0.500   2.053
  359SOL    HW1 1763   0.534   0.580   2.057
  359SOL    HW2 1764   0.378   0.531   2.060
  360SOL     OW 1765   0.159   1.137   3.328
  360SOL    HW1 1766   0.181   1.076   3.404
  360SOL    HW2 1767   0.169   1.088   3.242
  361SOL     OW 1768   1.347   1.059   3.096
  361SOL    HW1 1769   1.371   0.996   3.022
  361SOL    HW2 1770   1.257   1.099   3.078
  362SOL     OW 1771   1.302   0.855   2.171
  362SOL    HW1 1772   1.216   0.824   2.213
  362SOL    HW2 1773   1.298   0.841   2.072
  363SOL     OW 1774   1.759   1.747   3.016
  363SOL    HW1 1775   1.820   1.777   2.943
  363SOL    HW2 1776   1.721   1.658   2.994
  364SOL     OW 1777   1.252   1.731   2.990
  364SOL    HW1 1778   1.336   1.736   2.936
  364SOL    HW2 1779   1.229   1.635   3.008
  365SOL     OW 1780   0.083   1.258   2.884
  365SOL    HW1 1781   0.078   1.257   2.984
  365SOL    HW2 1782   0.000   1.217   2.846
  366SOL     OW 1783   0.688   1.662   3.578
  366SOL    HW1 1784   0.632   1.743   3.587
  366SOL    HW2 1785   0.740   1.666   3.492
  367SOL     OW 1786   1.726   0.135   2.385
  367SOL    HW1 1787   1.799   0.118   2.318
  367SOL    HW2 1788   1.695   0.048   2.423
  368SOL     OW 1789   1.388   1.573   2.339
  368SOL    HW1 1790   1.455   1.585   2.265
  368SOL    HW2 1791   1.348   1.662   2.362
  369SOL     OW 1792   0.130   1.794   3.713
  369SOL    HW1 1793   0.089   1.720   3.766
  369SOL    HW2 1794   0.194   1.845   3.771
  370SOL     OW 1795   1.280   0.927   2.534
  370SOL    HW1 1796   1.340   0.846   2.536
  370SOL    HW2 1797   1.320   0.996   2.474
  371SOL     OW 1798   0.830   1.273   3.284
  371SOL    HW1 1799   0.825   1.306   3.379
  371SOL    HW2 1800   0.744   1.292   3.238
  372SOL     OW 1801   0.672   1.616   2.016
  372SOL    HW1 1802   0.681   1.626   1.917
  372SOL    HW2 1803   0.632   1.527   2.037
  373SOL     OW 1804   1.650   1.720   3.256
  373SOL    HW1 1805   1.703   1.730   3.172
  373SOL    HW2 1806   1.623   1.810   3.290
  374SOL     OW 1807   1.841   0.175   2.825
  374SOL    HW1 1808   1.880   0.090   2.789
  374SOL    HW2 1809   1.743   0.177   2.806
  375SOL     OW 1810   0.263   0.326   2.582
  375SOL    HW1 1811   0.184   0.377   2.548
  375SOL    HW2 1812   0.254   0.311   2.680
  376SOL     OW 1813   1.194   1.612   1.893
  376SOL    HW1 1814   1.200   1.519   1.930
  376SOL    HW2 1815   1.135   1.612   1.813
  377SOL     OW 1816   0.822   1.002   3.234
  377SOL    HW1 1817   0.862   1.001   3.142
  377SOL    HW2 1818   0.832   1.094   3.274
  378SOL     OW 1819   0.916   0.910   2.153
  378SOL    HW1 1820   0.979   0.948   2.085
  378SOL    HW2 1821   0.956   0.827   2.192
  379SOL     OW 1822   1.504   1.607   1.906
  379SOL    HW1 1823   1.412   1.644   1.913
  379SOL    HW2 1824   1.542   1.627   1.816
  380SOL     OW 1825   0.372   1.288   3.352
  380SOL    HW1 1826   0.359   1.381   3.318
  380SOL    HW2 1827   0.288   1.236   3.339
  381SOL     OW 1828   1.614   1.292   3.151
  381SOL    HW1 1829   1.674   1.295   3.231
  381SOL    HW2 1830   1.539   1.356   3.164
  382SOL     OW 1831   1.039   1.098   2.558
  382SOL    HW1 1832   0.969   1.051   2.612
  382SOL    HW2 1833   1.098   1.030   2.515
  383SOL     OW 1834   1.014   0.236   2.833
  383SOL    HW1 1835   1.006   0.200   2.740
  383SOL    HW2 1836   1.012   0.160   2.898
  384SOL     OW 1837   0.590   1.487   2.353
  384SOL    HW1 1838   0.632   1.429   2.283
  384SOL    HW2 1839   0.546   1.566   2.309
  385SOL     OW 1840   1.709   0.385   3.243
  385SOL    HW1 1841   1.782   0.454   3.247
  385SOL    HW2 1842   1.737   0.310   3.184
  386SOL     OW 1843   0.255   1.348   2.152
  386SOL    HW1 1844   0.159   1.349   2.125
  386SOL    HW2 1845   0.267   1.401   2.236
  387SOL     OW 1846   0.105   1.013   3.588
  387SOL    HW1 1847   0.028   0.980   3.642
  387SOL    HW2 1848   0.190   0.983   3.630
  388SOL     OW 1849   0.672   0.203   3.351
  388SOL    HW1 1850   0.762   0.187   3.311
  388SOL    HW2 1851   0.680   0.208   3.450
  389SOL     OW 1852   0.075   0.345   1.895
  389SOL    HW1 1853  -0.017   0.317   1.866
  389SOL    HW2 1854   0.106   0.422   1.839
  390SOL     OW 1855   1.440   0.856   3.260
  390SOL    HW1 1856   1.383   0.908   3.197
  390SOL    HW2 1857   1.536   0.868   3.236
  391SOL     OW 1858   0.072   0.166   2.180
  391SOL    HW1 1859   0.055   0.249   2.126
  391SOL    HW2 1860   0.162   0.129   2.158
  392SOL     OW 1861   1.183   1.335   1.981
  392SOL    HW1 1862   1.084   1.324   1.983
  392SOL    HW2 1863   1.217   1.350   2.074
  393SOL     OW 1864   0.613   0.842   3.293
  393SOL    HW1 1865   0.669   0.923   3.276
  393SOL    HW2 1866   0.672   0.762   3.296
  394SOL     OW 1867   1.493   1.767   2.821
  394SOL    HW1 1868   1.526   1.831   2.752
  394SOL    HW2 1869   1.559   1.761   2.896
  395SOL     OW 1870   0.716   0.565   3.570
  395SOL    HW1 1871   0.735   0.630   3.644
  395SOL    HW2 1872   0.776   0.485   3.579
  396SOL     OW 1873   1.450   1.220   3.495
  396SOL    HW1 1874   1.441   1.210   3.594
  396SOL    HW2 1875   1.546   1.213   3.469
  397SOL     OW 1876   0.390   1.741   3.422
  397SOL    HW1 1877   0.299   1.782   3.420
  397SOL    HW2 1878   0.383   1.647   3.454
  398SOL     OW 1879   1.674   0.883   3.116
  398SOL    HW1 1880   1.647   0.794   3.079
  398SOL    HW2 1881   1.675   0.951   3.043
  399SOL     OW 1882   1.225   0.325   2.311
  399SOL    HW1 1883   1.290   0.251   2.300
  399SOL    HW2 1884   1.245   0.375   2.395
  400SOL     OW 1885   0.594   0.745   2.514
  400SOL    HW1 1886   0.644   0.830   2.495
  400SOL    HW2 1887   0.506   0.747   2.466
  401SOL     OW 1888   1.777   0.342   3.504
  401SOL    HW1 1889   1.760   0.373   3.410
  401SOL    HW2 1890   1.693   0.305   3.542
  402SOL     OW 1891   1.730   0.934   3.379
  402SOL    HW1 1892   1.768   1.025   3.394
  402SOL    HW2 1893   1.722   0.917   3.280
  403SOL     OW 1894   0.859   1.374   1.878
  403SOL    HW1 1895   0.813   1.389   1.966
  403SOL    HW2 1896   0.903   1.459   1.848
  404SOL     OW 1897   0.661   1.790   2.815
  404SOL    HW1 1898   0.615   1.878   2.802
  404SOL    HW2 1899   0.760   1.802   2.808
  405SOL     OW 1900   0.859   0.956   2.723
  405SOL    HW1 1901   0.913   0.887   2.771
  405SOL    HW2 1902   0.827   1.025   2.789
  406SOL     OW 1903   1.083   0.984   1.949
  406SOL    HW1 1904   1.060   1.037   1.867
  406SOL    HW2 1905   1.164   0.928   1.930
  407SOL     OW 1906   1.861   1.569   2.713
  407SOL    HW1 1907   1.790   1.557   2.643
  407SOL    HW2 1908   1.862   1.490   2.773
  408SOL     OW 1909   0.221   1.314   3.706
  408SOL    HW1 1910   0.156   1.241   3.685
  408SOL    HW2 1911   0.225   1.328   3.804
  409SOL     OW 1912   0.079   1.240   2.515
  409SOL    HW1 1913   0.078   1.193   2.603
  409SOL    HW2 1914   0.161   1.212   2.464
  410SOL     OW 1915   0.672   1.391   3.486
  410SOL    HW1 1916   0.594   1.341   3.524
  410SOL    HW2 1917   0.669   1.486   3.517
  411SOL     OW 1918   1.824   0.192   3.089
  411SOL    HW1 1919   1.820   0.102   3.133
  411SOL    HW2 1920   1.827   0.181   2.990
  412SOL     OW 1921   0.428   0.424   2.382
  412SOL    HW1 1922   0.458   0.352   2.320
  412SOL    HW2 1923   0.389   0.384   2.465
  413SOL     OW 1924   1.705   1.487   2.966
  413SOL    HW1 1925   1.612   1.462   2.939
  413SOL    HW2 1926   1.731   1.437   3.048
  414SOL     OW 1927   0.317   0.547   3.142
  414SOL    HW1 1928   0.355   0.488   3.214
  414SOL    HW2 1929   0.357   0.521   3.054
  415SOL     OW 1930   0.812   1.586   2.549
  415SOL    HW1 1931   0.844   1.596   2.455
  415SOL    HW2 1932   0.733   1.524   2.551
  416SOL     OW 1933   1.424   0.214   2.974
  416SOL    HW1 1934   1.476   0.149   3.029
  416SOL    HW2 1935   1.375   0.277   3.035
  417SOL     OW 1936   1.001   0.034   3.016
  417SOL    HW1 1937   0.938  -0.038   2.985
  417SOL    HW2 1938   1.094  -0.002   3.016
  418SOL     OW 1939   0.770   1.330   2.163
  418SOL    HW1 1940   0.724   1.243   2.180
  418SOL    HW2 1941   0.861   1.327   2.204
  419SOL     OW 1942   0.618   1.567   3.146
  419SOL    HW1 1943   0.613   1.649   3.203
  419SOL    HW2 1944   0.707   1.564   3.101
  420SOL     OW 1945   1.352   0.052   2.030
  420SOL    HW1 1946   1.387   0.011   1.946
  420SOL    HW2 1947   1.262   0.014   2.050
  421SOL     OW 1948   1.300   0.453   2.553
  421SOL    HW1 1949   1.241   0.533   2.557
  421SOL    HW2 1950   1.315   0.418   2.646
  422SOL     OW 1951   1.593   0.221   2.744
  422SOL    HW1 1952   1.509   0.220   2.798
  422SOL    HW2 1953   1.595   0.304   2.688
  423SOL     OW 1954   0.039   1.077   2.162
  423SOL    HW1 1955   0.138   1.066   2.153
  423SOL    HW2 1956  -0.001   0.991   2.194
  424SOL     OW 1957   0.875   1.646   2.199
  424SOL    HW1 1958   0.798   1.611   2.145
  424SOL    HW2 1959   0.843   1.717   2.261
  425SOL     OW 1960   0.230   0.628   3.837
  425SOL    HW1 1961   0.137   0.626   3.874
  425SOL    HW2 1962   0.231   0.589   3.745
  426SOL     OW 1963   0.225   0.275   4.720
  426SOL    HW1 1964   0.260   0.258   4.812
  426SOL    HW2 1965   0.137   0.230   4.708
  427SOL     OW 1966   0.019   0.368   4.371
  427SOL    HW1 1967  -0.063   0.411   4.410
  427SOL    HW2 1968  -0.009   0.295   4.308
  428SOL     OW 1969   0.569   1.275   4.889
  428SOL    HW1 1970   0.476   1.268   4.852
  428SOL    HW2 1971   0.580   1.364   4.933
  429SOL     OW 1972   1.555   1.511   4.427
  429SOL    HW1 1973   1.498   1.495   4.508
  429SOL    HW2 1974   1.496   1.521   4.347
  430SOL     OW 1975   1.135   0.703   4.441
  430SOL    HW1 1976   1.192   0.781   4.416
  430SOL    HW2 1977   1.075   0.729   4.517
  431SOL     OW 1978   1.755   0.607   3.955
  431SOL    HW1 1979   1.743   0.594   3.856
  431SOL    HW2 1980   1.725   0.526   4.004
  432SOL     OW 1981   0.768   1.144   4.747
  432SOL    HW1 1982   0.690   1.161   4.807
  432SOL    HW2 1983   0.802   1.231   4.711
  433SOL     OW 1984   0.850   0.798   5.547
  433SOL    HW1 1985   0.846   0.874   5.612
  433SOL    HW2 1986   0.872   0.834   5.456
  434SOL     OW 1987   0.685   1.012   4.389
  434SOL    HW1 1988   0.754   0.996   4.459
  434SOL    HW2 1989   0.612   1.069   4.427
  435SOL     OW 1990   0.686   1.161   5.527
  435SOL    HW1 1991   0.746   1.240   5.541
  435SOL    HW2 1992   0.600   1.192   5.486
  436SOL     OW 1993   0.335   1.435   4.785
  436SOL    HW1 1994   0.257   1.404   4.732
  436SOL    HW2 1995   0.393   1.493   4.728
  437SOL     OW 1996   1.460   1.505   5.063
  437SOL    HW1 1997   1.484   1.599   5.089
  437SOL    HW2 1998   1.444   1.451   5.145
  438SOL     OW 1999   0.438   0.392   5.223
  438SOL    HW1 2000   0.520   0.336   5.232
  438SOL    HW2 2001   0.357   0.334   5.227
  439SOL     OW 2002   1.603   0.447   4.461
  439SOL    HW1 2003   1.529   0.493   4.411
  439SOL    HW2 2004   1.654   0.515   4.514
  440SOL     OW 2005   0.231   1.713   4.207
  440SOL    HW1 2006   0.265   1.790   4.261
  440SOL    HW2 2007   0.275   1.713   4.117
  441SOL     OW 2008   1.127   1.341   5.414
  441SOL    HW1 2009   1.174   1.341   5.502
  441SOL    HW2 2010   1.079   1.254   5.403
  442SOL     OW 2011   0.230   1.434   4.262
  442SOL    HW1 2012   0.204   1.530   4.262
  442SOL    HW2 2013   0.159   1.380   4.307
  443SOL     OW 2014   0.240   1.091   4.610
  443SOL    HW1 2015   0.254   1.007   4.662
  443SOL    HW2 2016   0.185   1.155   4.665
  444SOL     OW 2017   0.620   1.786   5.163
  444SOL    HW1 2018   0.528   1.769   5.198
  444SOL    HW2 2019   0.648   1.878   5.189
  445SOL     OW 2020   0.606   0.964   3.847
  445SOL    HW1 2021   0.613   1.048   3.793
  445SOL    HW2 2022   0.652   0.977   3.935
  446SOL     OW 2023   1.594   0.114   5.204
  446SOL    HW1 2024   1.576   0.181   5.132
  446SOL    HW2 2025   1.591   0.160   5.293
  447SOL     OW 2026   0.122   0.643   4.287
  447SOL    HW1 2027   0.077   0.555   4.304
  447SOL    HW2 2028   0.121   0.697   4.371
  448SOL     OW 2029   0.027   1.596   3.841
  448SOL    HW1 2030   0.008   1.500   3.862
  448SOL    HW2 2031  -0.006   1.654   3.916
  449SOL     OW 2032   1.689   0.922   4.336
  449SOL    HW1 2033   1.784   0.893   4.344
  449SOL    HW2 2034   1.681   0.987   4.261
  450SOL     OW 2035   1.641   1.108   4.156
  450SOL    HW1 2036   1.727   1.110   4.104
  450SOL    HW2 2037   1.655   1.155   4.244
  451SOL     OW 2038   0.113   0.737   5.321
  451SOL    HW1 2039   0.201   0.724   5.366
  451SOL    HW2 2040   0.100   0.834   5.299
  452SOL     OW 2041   0.613   1.365   4.450
  452SOL    HW1 2042   0.564   1.278   4.459
  452SOL    HW2 2043   0.590   1.408   4.363
  453SOL     OW 2044   1.293   1.228   5.147
  453SOL    HW1 2045   1.330   1.155   5.089
  453SOL    HW2 2046   1.345   1.233   5.232
  454SOL     OW 2047   0.809   0.004   4.226
  454SOL    HW1 2048   0.849   0.095   4.217
  454SOL    HW2 2049   0.709   0.012   4.232
  455SOL     OW 2050   0.197   0.976   4.988
  455SOL    HW1 2051   0.286   0.931   4.974
  455SOL    HW2 2052   0.124   0.911   4.969
  456SOL     OW 2053   1.525   0.999   3.914
  456SOL    HW1 2054   1.462   0.923   3.927
  456SOL    HW2 2055   1.573   1.017   4.000
  457SOL     OW 2056   1.187   1.792   5.340
  457SOL    HW1 2057   1.211   1.852   5.264
  457SOL    HW2 2058   1.194   1.697   5.310
  458SOL     OW 2059   0.317   0.251   5.525
  458SOL    HW1 2060   0.388   0.322   5.531
  458SOL    HW2 2061   0.229   0.290   5.553
  459SOL     OW 2062   1.466   1.417   4.677
  459SOL    HW1 2063   1.407   1.423   4.757
  459SOL    HW2 2064   1.451   1.329   4.631
  460SOL     OW 2065   1.667   1.714   4.296
  460SOL    HW1 2066   1.626   1.691   4.208
  460SOL    HW2 2067   1.649   1.640   4.361
  461SOL     OW 2068   0.598   0.729   3.994
  461SOL    HW1 2069   0.622   0.798   3.926
  461SOL    HW2 2070   0.520   0.762   4.048
  462SOL     OW 2071   1.281   0.345   4.668
  462SOL    HW1 2072   1.195   0.295   4.655
  462SOL    HW2 2073   1.343   0.291   4.724
  463SOL     OW 2074   1.576   1.662   4.031
  463SOL    HW1 2075   1.665   1.708   4.034
  463SOL    HW2 2076   1.555   1.638   3.936
  464SOL     OW 2077   0.807   0.605   5.189
  464SOL    HW1 2078   0.760   0.602   5.278
  464SOL    HW2 2079   0.756   0.550   5.123
  465SOL     OW 2080   1.394   0.469   5.398
  465SOL    HW1 2081   1.374   0.512   5.486
  465SOL    HW2 2082   1.472   0.407   5.407
  466SOL     OW 2083   0.973   0.890   5.296
  466SOL    HW1 2084   1.019   0.806   5.267
  466SOL    HW2 2085   0.917   0.924   5.221
  467SOL     OW 2086   0.991   0.410   4.966
  467SOL    HW1 2087   0.914   0.444   5.020
  467SOL    HW2 2088   0.957   0.359   4.887
  468SOL     OW 2089   1.041   0.701   4.153
  468SOL    HW1 2090   1.067   0.697   4.249
  468SOL    HW2 2091   0.956   0.650   4.139
  469SOL     OW 2092   0.076   0.811   4.513
  469SOL    HW1 2093   0.175   0.799   4.522
  469SOL    HW2 2094   0.052   0.906   4.534
  470SOL     OW 2095   0.130   1.821   5.295
  470SOL    HW1 2096   0.120   1.806   5.394
  470SOL    HW2 2097   0.044   1.857   5.259
  471SOL     OW 2098   0.865   0.348   3.919
  471SOL    HW1 2099   0.924   0.411   3.870
  471SOL    HW2 2100   0.884   0.254   3.890
  472SOL     OW 2101   1.719   0.585   5.555
  472SOL    HW1 2102   1.693   0.674   5.519
  472SOL    HW2 2103   1.717   0.517   5.482
  473SOL     OW 2104   1.362   1.144   4.269
  473SOL    HW1 2105   1.445   1.115   4.221
  473SOL    HW2 2106   1.313   1.211   4.213
  474SOL     OW 2107   0.550   0.196   4.609
  474SOL    HW1 2108   0.545   0.191   4.709
  474SOL    HW2 2109   0.552   0.292   4.580
  475SOL     OW 2110   1.008   1.456   4.201
  475SOL    HW1 2111   0.962   1.528   4.149
  475SOL    HW2 2112   1.004   1.476   4.299
  476SOL     OW 2113   0.351   1.801   4.577
  476SOL    HW1 2114   0.401   1.715   4.583
  476SOL    HW2 2115   0.416   1.878   4.574
  477SOL     OW 2116   1.795   1.066   4.597
  477SOL    HW1 2117   1.733   1.051   4.521
  477SOL    HW2 2118   1.743   1.077   4.682
  478SOL     OW 2119   1.227   1.550   5.230
  478SOL    HW1 2120   1.233   1.473   5.294
  478SOL    HW2 2121   1.175   1.524   5.150
  479SOL     OW 2122   0.321   0.943   3.966
  479SOL    HW1 2123   0.403   0.982   3.924
  479SOL    HW2 2124   0.294   0.861   3.917
  480SOL     OW 2125   1.458   0.735   4.452
  480SOL    HW1 2126   1.453   0.670   4.527
  480SOL    HW2 2127   1.538   0.794   4.465
  481SOL     OW 2128   0.461   1.266   5.451
  481SOL    HW1 2129   0.411   1.267   5.365
  481SOL    HW2 2130   0.398   1.248   5.527
  482SOL     OW 2131   1.111   1.776   3.961
  482SOL    HW1 2132   1.051   1.714   4.011
  482SOL    HW2 2133   1.142   1.732   3.876
  483SOL     OW 2134   0.202   0.285   5.222
  483SOL    HW1 2135   0.122   0.345   5.209
  483SOL    HW2 2136   0.192   0.236   5.308
  484SOL     OW 2137   1.632   1.377   3.805
  484SOL    HW1 2138   1.600   1.471   3.795
  484SOL    HW2 2139   1.556   1.314   3.793
  485SOL     OW 2140   0.464   1.743   4.047
  485SOL    HW1 2141   0.497   1.782   4.133
  485SOL    HW2 2142   0.540   1.736   3.982
  486SOL     OW 2143   1.400   0.107   4.150
  486SOL    HW1 2144   1.376   0.070   4.060
  486SOL    HW2 2145   1.499   0.123   4.154
  487SOL     OW 2146   0.249   1.785   4.965
  487SOL    HW1 2147   0.306   1.720   5.015
  487SOL    HW2 2148   0.233   1.752   4.872
  488SOL     OW 2149   0.940   1.698   4.628
  488SOL    HW1 2150   1.020   1.641   4.649
  488SOL    HW2 2151   0.891   1.658   4.551
  489SOL     OW 2152   0.382   0.700   4.204
  489SOL    HW1 2153   0.427   0.610   4.201
  489SOL    HW2 2154   0.288   0.689   4.237
  490SOL     OW 2155   1.547   0.222   5.453
  490SOL    HW1 2156   1.542   0.259   5.545
  490SOL    HW2 2157   1.475   0.153   5.441
  491SOL     OW 2158   0.614   0.122   3.841
  491SOL    HW1 2159   0.712   0.100   3.848
  491SOL    HW2 2160   0.583   0.105   3.748
  492SOL     OW 2161   0.781   0.264   5.473
  492SOL    HW1 2162   0.848   0.203   5.516
  492SOL    HW2 2163   0.708   0.283   5.538
  493SOL     OW 2164   0.888   1.514   4.919
  493SOL    HW1 2165   0.865   1.489   4.825
  493SOL    HW2 2166   0.949   1.445   4.958
  494SOL     OW 2167   1.351   0.590   5.157
  494SOL    HW1 2168   1.379   0.547   5.242
  494SOL    HW2 2169   1.376   0.686   5.158
  495SOL     OW 2170   0.803   1.402   4.648
  495SOL    HW1 2171   0.893   1.416   4.606
  495SOL    HW2 2172   0.732   1.404   4.577
  496SOL     OW 2173   0.922   0.503   4.623
  496SOL    HW1 2174   0.897   0.494   4.527
  496SOL    HW2 2175   0.970   0.421   4.654
  497SOL     OW 2176   0.539   0.064   4.236
  497SOL    HW1 2177   0.458   0.065   4.294
  497SOL    HW2 2178   0.542   0.147   4.181
  498SOL     OW 2179   1.434   1.188   3.765
  498SOL    HW1 2180   1.466   1.112   3.822
  498SOL    HW2 2181   1.342   1.215   3.795
  499SOL     OW 2182   0.297   0.035   3.895
  499SOL    HW1 2183   0.346   0.119   3.874
  499SOL    HW2 2184   0.359  -0.030   3.940
  500SOL     OW 2185   0.935   0.236   4.204
  500SOL    HW1 2186   0.887   0.277   4.126
  500SOL    HW2 2187   1.034   0.234   4.185
  501SOL     OW 2188   1.076   0.683   5.188
  501SOL    HW1 2189   0.996   0.622   5.191
  501SOL    HW2 2190   1.157   0.630   5.164
  502SOL     OW 2191   1.227   1.570   4.517
  502SOL    HW1 2192   1.248   1.644   4.452
  502SOL    HW2 2193   1.295   1.570   4.590
  503SOL     OW 2194   0.459   1.152   4.465
  503SOL    HW1 2195   0.388   1.125   4.530
  503SOL    HW2 2196   0.433   1.124   4.372
  504SOL     OW 2197   1.271   1.797   4.315
  504SOL    HW1 2198   1.315   1.861   4.251
  504SOL    HW2 2199   1.221   1.849   4.385
  505SOL     OW 2200   1.032   0.549   3.740
  505SOL    HW1 2201   0.991   0.631   3.701
  505SOL    HW2 2202   1.096   0.575   3.813
  506SOL     OW 2203   0.078   0.556   5.110
  506SOL    HW1 2204   0.170   0.555   5.069
  506SOL    HW2 2205   0.072   0.630   5.177
  507SOL     OW 2206   0.561   0.222   4.871
  507SOL    HW1 2207   0.599   0.138   4.908
  507SOL    HW2 2208   0.473   0.241   4.915
  508SOL     OW 2209   0.866   0.454   4.366
  508SOL    HW1 2210   0.834   0.526   4.304
  508SOL    HW2 2211   0.890   0.373   4.313
  509SOL     OW 2212   1.017   0.039   4.477
  509SOL    HW1 2213   0.945   0.044   4.408
  509SOL    HW2 2214   0.993  -0.030   4.546
  510SOL     OW 2215   1.429   1.173   4.591
  510SOL    HW1 2216   1.374   1.089   4.584
  510SOL    HW2 2217   1.455   1.202   4.499
  511SOL     OW 2218   1.466   0.590   4.716
  511SOL    HW1 2219   1.436   0.495   4.723
  511SOL    HW2 2220   1.539   0.606   4.782
  512SOL     OW 2221   1.857   0.833   4.101
  512SOL    HW1 2222   1.899   0.769   4.165
  512SOL    HW2 2223   1.819   0.782   4.023
  513SOL     OW 2224   0.488   1.385   3.898
  513SOL    HW1 2225   0.401   1.370   3.945
  513SOL    HW2 2226   0.471   1.411   3.803
  514SOL     OW 2227   1.664   1.280   4.381
  514SOL    HW1 2228   1.763   1.288   4.395
  514SOL    HW2 2229   1.619   1.364   4.412
  515SOL     OW 2230   1.390   0.575   3.802
  515SOL    HW1 2231   1.336   0.554   3.883
  515SOL    HW2 2232   1.481   0.534   3.811
  516SOL     OW 2233   0.527   0.256   4.052
  516SOL    HW1 2234   0.554   0.197   3.977
  516SOL    HW2 2235   0.527   0.351   4.021
  517SOL     OW 2236   1.754   1.223   5.312
  517SOL    HW1 2237   1.845   1.184   5.299
  517SOL    HW2 2238   1.762   1.319   5.336
  518SOL     OW 2239   1.064   1.347   5.064
  518SOL    HW1 2240   0.984   1.324   5.119
  518SOL    HW2 2241   1.147   1.321   5.113
  519SOL     OW 2242   1.592   1.629   5.349
  519SOL    HW1 2243   1.619   1.663   5.259
  519SOL    HW2 2244   1.671   1.591   5.395
  520SOL     OW 2245   1.111   1.195   4.824
  520SOL    HW1 2246   1.071   1.239   4.905
  520SOL    HW2 2247   1.070   1.232   4.741
  521SOL     OW 2248   1.638   1.099   4.803
  521SOL    HW1 2249   1.643   1.180   4.862
  521SOL    HW2 2250   1.552   1.101   4.752
  522SOL     OW 2251   0.915   0.089   5.126
  522SOL    HW1 2252   0.940   0.069   5.031
  522SOL    HW2 2253   0.987   0.145   5.168
  523SOL     OW 2254   0.980   1.116   5.443
  523SOL    HW1 2255   0.881   1.122   5.453
  523SOL    HW2 2256   1.003   1.036   5.387
  524SOL     OW 2257   0.705   1.050   4.092
  524SOL    HW1 2258   0.691   1.057   4.191
  524SOL    HW2 2259   0.789   0.999   4.074
  525SOL     OW 2260   0.410   0.813   4.975
  525SOL    HW1 2261   0.496   0.825   5.025
  525SOL    HW2 2262   0.368   0.726   5.002
  526SOL     OW 2263   1.274   0.386   4.986
  526SOL    HW1 2264   1.295   0.460   5.050
  526SOL    HW2 2265   1.185   0.403   4.943
  527SOL     OW 2266   0.064   1.564   5.055
  527SOL    HW1 2267   0.018   1.646   5.021
  527SOL    HW2 2268   0.162   1.583   5.064
  528SOL     OW 2269   0.367   1.100   4.225
  528SOL    HW1 2270   0.360   1.183   4.169
  528SOL    HW2 2271   0.371   1.020   4.165
  529SOL     OW 2272   0.566   0.537   4.589
  529SOL    HW1 2273   0.578   0.603   4.515
  529SOL    HW2 2274   0.612   0.571   4.672
  530SOL     OW 2275   1.252   1.348   4.112
  530SOL    HW1 2276   1.302   1.425   4.152
  530SOL    HW2 2277   1.157   1.350   4.144
  531SOL     OW 2278   1.272   1.445   4.866
  531SOL    HW1 2279   1.319   1.458   4.953
  531SOL    HW2 2280   1.206   1.371   4.875
  532SOL     OW 2281   1.582   0.639   4.196
  532SOL    HW1 2282   1.551   0.700   4.269
  532SOL    HW2 2283   1.632   0.691   4.127
  533SOL     OW 2284   0.354   1.510   5.053
  533SOL    HW1 2285   0.333   1.466   4.966
  533SOL    HW2 2286   0.451   1.536   5.056
  534SOL     OW 2287   0.402   0.751   5.322
  534SOL    HW1 2288   0.470   0.806   5.275
  534SOL    HW2 2289   0.442   0.663   5.349
  535SOL     OW 2290   1.587   0.779   5.394
  535SOL    HW1 2291   1.495   0.817   5.389
  535SOL    HW2 2292   1.647   0.826   5.329
  536SOL     OW 2293   1.013   0.105   5.494
  536SOL    HW1 2294   1.019   0.190   5.442
  536SOL    HW2 2295   1.045   0.029   5.437
  537SOL     OW 2296   0.504   0.050   5.464
  537SOL    HW1 2297   0.462  -0.007   5.394
  537SOL    HW2 2298   0.438   0.119   5.496
  538SOL     OW 2299   0.573   0.870   4.753
  538SOL    HW1 2300   0.617   0.959   4.744
  538SOL    HW2 2301   0.510   0.870   4.830
  539SOL     OW 2302   1.360   0.862   4.769
  539SOL    HW1 2303   1.285   0.862   4.703
  539SOL    HW2 2304   1.397   0.770   4.778
  540SOL     OW 2305   1.209   0.525   3.999
  540SOL    HW1 2306   1.222   0.441   4.053
  540SOL    HW2 2307   1.180   0.599   4.059
  541SOL     OW 2308   0.307   0.213   4.955
  541SOL    HW1 2309   0.284   0.250   5.045
  541SOL    HW2 2310   0.277   0.118   4.949
  542SOL     OW 2311   0.037   1.310   5.006
  542SOL    HW1 2312   0.090   1.261   5.074
  542SOL    HW2 2313   0.059   1.408   5.011
  543SOL     OW 2314   0.732   0.634   4.788
  543SOL    HW1 2315   0.791   0.608   4.712
  543SOL    HW2 2316   0.704   0.730   4.777
  544SOL     OW 2317   1.728   0.935   5.578
  544SOL    HW1 2318   1.682   0.928   5.489
  544SOL    HW2 2319   1.666   0.979   5.644
  545SOL     OW 2320   0.307   0.063   4.342
  545SOL    HW1 2321   0.296   0.157   4.375
  545SOL    HW2 2322   0.302   0.000   4.419
  546SOL     OW 2323   1.622   0.367   4.098
  546SOL    HW1 2324   1.624   0.291   4.162
  546SOL    HW2 2325   1.574   0.444   4.138
  547SOL     OW 2326   1.023   0.766   4.690
  547SOL    HW1 2327   1.038   0.787   4.786
  547SOL    HW2 2328   0.993   0.671   4.681
  548SOL     OW 2329   0.980   1.573   5.424
  548SOL    HW1 2330   0.960   1.617   5.336
  548SOL    HW2 2331   1.019   1.482   5.408
  549SOL     OW 2332   1.859   1.518   5.329
  549SOL    HW1 2333   1.873   1.545   5.234
  549SOL    HW2 2334   1.942   1.540   5.382
  550SOL     OW 2335   0.350   0.898   5.528
  550SOL    HW1 2336   0.426   0.942   5.576
  550SOL    HW2 2337   0.385   0.851   5.446
  551SOL     OW 2338   1.540   0.274   3.849
  551SOL    HW1 2339   1.479   0.199   3.872
  551SOL    HW2 2340   1.562   0.326   3.932
  552SOL     OW 2341   1.303   0.838   3.766
  552SOL    HW1 2342   1.337   0.745   3.781
  552SOL    HW2 2343   1.321   0.865   3.671
  553SOL     OW 2344   1.068   1.333   4.573
  553SOL    HW1 2345   1.075   1.249   4.518
  553SOL    HW2 2346   1.130   1.402   4.537
  554SOL     OW 2347   0.319   0.810   4.673
  554SOL    HW1 2348   0.412   0.846   4.678
  554SOL    HW2 2349   0.313   0.725   4.725
  555SOL     OW 2350   0.339   0.509   4.730
  555SOL    HW1 2351   0.287   0.426   4.713
  555SOL    HW2 2352   0.416   0.514   4.666
  556SOL     OW 2353   1.138   0.380   5.402
  556SOL    HW1 2354   1.093   0.443   5.466
  556SOL    HW2 2355   1.231   0.411   5.385
  557SOL     OW 2356   1.160   0.207   5.201
  557SOL    HW1 2357   1.160   0.271   5.278
  557SOL    HW2 2358   1.188   0.255   5.118
  558SOL     OW 2359   0.008   1.326   3.924
  558SOL    HW1 2360  -0.085   1.347   3.893
  558SOL    HW2 2361   0.018   1.227   3.937
  559SOL     OW 2362   0.088   1.801   4.651
  559SOL    HW1 2363   0.046   1.715   4.624
  559SOL    HW2 2364   0.182   1.804   4.617
  560SOL     OW 2365   0.504   1.568   4.634
  560SOL    HW1 2366   0.570   1.642   4.643
  560SOL    HW2 2367   0.548   1.489   4.592
  561SOL     OW 2368   1.002   0.796   4.962
  561SOL    HW1 2369   1.043   0.764   5.048
  561SOL    HW2 2370   0.906   0.769   4.959
  562SOL     OW 2371   0.040   0.544   4.838
  562SOL    HW1 2372   0.125   0.511   4.797
  562SOL    HW2 2373   0.053   0.559   4.936
  563SOL     OW 2374   0.189   0.520   5.446
  563SOL    HW1 2375   0.248   0.480   5.376
  563SOL    HW2 2376   0.131   0.591   5.405
  564SOL     OW 2377   1.369   0.950   5.384
  564SOL    HW1 2378   1.408   1.039   5.404
  564SOL    HW2 2379   1.379   0.930   5.287
  565SOL     OW 2380   0.815   0.572   4.049
  565SOL    HW1 2381   0.822   0.483   4.003
  565SOL    HW2 2382   0.721   0.606   4.041
  566SOL     OW 2383   1.657   0.604   4.930
  566SOL    HW1 2384   1.619   0.535   4.992
  566SOL    HW2 2385   1.739   0.568   4.886
  567SOL     OW 2386   0.252   1.564   5.468
  567SOL    HW1 2387   0.222   1.621   5.544
  567SOL    HW2 2388   0.245   1.467   5.494
  568SOL     OW 2389   0.671   0.464   4.993
  568SOL    HW1 2390   0.637   0.375   4.963
  568SOL    HW2 2391   0.697   0.518   4.913
  569SOL     OW 2392   0.930   1.678   5.189
  569SOL    HW1 2393   0.906   1.660   5.094
  569SOL    HW2 2394   0.960   1.772   5.199
  570SOL     OW 2395   0.473   0.500   3.915
  570SOL    HW1 2396   0.534   0.580   3.919
  570SOL    HW2 2397   0.378   0.531   3.922
  571SOL     OW 2398   0.159   1.137   5.190
  571SOL    HW1 2399   0.181   1.076   5.266
  571SOL    HW2 2400   0.169   1.088   5.104
  572SOL     OW 2401   1.347   1.059   4.958
  572SOL    HW1 2402   1.371   0.996   4.884
  572SOL    HW2 2403   1.257   1.099   4.940
  573SOL     OW 2404   1.302   0.855   4.033
  573SOL    HW1 2405   1.216   0.824   4.075
  573SOL    HW2 2406   1.298   0.841   3.934
  574SOL     OW 2407   1.759   1.747   4.878
  574SOL    HW1 2408   1.820   1.777   4.805
  574SOL    HW2 2409   1.721   1.658   4.856
  575SOL     OW 2410   1.252   1.731   4.852
  575SOL    HW1 2411   1.336   1.736   4.798
  575SOL    HW2 2412   1.229   1.635   4.870
  576SOL     OW 2413   0.083   1.258   4.746
  576SOL    HW1 2414   0.078   1.257   4.846
  576SOL    HW2 2415   0.000   1.217   4.708
  577SOL     OW 2416   0.688   1.662   5.440
  577SOL    HW1 2417   0.632   1.743   5.449
  577SOL    HW2 2418   0.740   1.666   5.354
  578SOL     OW 2419   1.726   0.135   4.247
  578SOL    HW1 2420   1.799   0.118   4.180
  578SOL    HW2 2421   1.695   0.048   4.285
  579SOL     OW 2422   1.388   1.573   4.201
  579SOL    HW1 2423   1.455   1.585   4.127
  579SOL    HW2 2424   1.348   1.662   4.224
  580SOL     OW 2425   0.130   1.794   5.575
  580SOL    HW1 2426   0.089   1.720   5.628
  580SOL    HW2 2427   0.194   1.845   5.633
  581SOL     OW 2428   1.280   0.927   4.396
  581SOL    HW1 2429   1.340   0.846   4.398
  581SOL    HW2 2430   1.320   0.996   4.336
  582SOL     OW 2431   0.830   1.273   5.146
  582SOL    HW1 2432   0.825   1.306   5.241
  582SOL    HW2 2433   0.744   1.292   5.100
  583SOL     OW 2434   0.672   1.616   3.878
  583SOL    HW1 2435   0.681   1.626   3.779
  583SOL    HW2 2436   0.632   1.527   3.899
  584SOL     OW 2437   1.650   1.720   5.118
  584SOL    HW1 2438   1.703   1.730   5.034
  584SOL    HW2 2439   1.623   1.810   5.152
  585SOL     OW 2440   1.841   0.175   4.687
  585SOL    HW1 2441   1.880   0.090   4.651
  585SOL    HW2 2442   1.743   0.177   4.668
  586SOL     OW 2443   0.263   0.326   4.444
  586SOL    HW1 2444   0.184   0.377   4.410
  586SOL    HW2 2445   0.254   0.311   4.542
  587SOL     OW 2446   1.194   1.612   3.755
  587SOL    HW1 2447   1.200   1.519   3.792
  587SOL    HW2 2448   1.135   1.612   3.675
  588SOL     OW 2449   0.822   1.002   5.096
  588SOL    HW1 2450   0.862   1.001   5.004
  588SOL    HW2 2451   0.832   1.094   5.136
  589SOL     OW 2452   0.916   0.910   4.015
  589SOL    HW1 2453   0.979   0.948   3.947
  589SOL    HW2 2454   0.956   0.827   4.054
  590SOL     OW 2455   1.504   1.607   3.768
  590SOL    HW1 2456   1.412   1.644   3.775
  590SOL    HW2 2457   1.542   1.627   3.678
  591SOL     OW 2458   0.372   1.288   5.214
  591SOL    HW1 2459   0.359   1.381   5.180
  591SOL    HW2 2460   0.288   1.236   5.201
  592SOL     OW 2461   1.614   1.292   5.013
  592SOL    HW1 2462   1.674   1.295   5.093
  592SOL    HW2 2463   1.539   1.356   5.026
  593SOL     OW 2464   1.039   1.098   4.420
  593SOL    HW1 2465   0.969   1.051   4.474
  593SOL    HW2 2466   1.098   1.030   4.377
  594SOL     OW 2467   1.014   0.236   4.695
  594SOL    HW1 2468   1.006   0.200   4.602
  594SOL    HW2 2469   1.012   0.160   4.760
  595SOL     OW 2470   0.590   1.487   4.215
  595SOL    HW1 2471   0.632   1.429   4.145
  595SOL    HW2 2472   0.546   1.566   4.171
  596SOL     OW 2473   1.709   0.385   5.105
  596SOL    HW1 2474   1.782   0.454   5.109
  596SOL    HW2 2475   1.737   0.310   5.046
  597SOL     OW 2476   0.255   1.348   4.014
  597SOL    HW1 2477   0.159   1.349   3.987
  597SOL    HW2 2478   0.267   1.401   4.098
  598SOL     OW 2479   0.105   1.013   5.450
  598SOL    HW1 2480   0.028   0.980   5.504
  598SOL    HW2 2481   0.190   0.983   5.492
  599SOL     OW 2482   0.672   0.203   5.213
  599SOL    HW1 2483   0.762   0.187   5.173
  599SOL    HW2 2484   0.680   0.208   5.312
  600SOL     OW 2485   0.075   0.345   3.757
  600SOL    HW1 2486  -0.017   0.317   3.728
  600SOL    HW2 2487   0.106   0.422   3.701
  601SOL     OW 2488   1.440   0.856   5.122
  601SOL    HW1 2489   1.383   0.908   5.059
  601SOL    HW2 2490   1.536   0.868   5.098
  602SOL     OW 2491   0.072   0.166   4.042
  602SOL    HW1 2492   0.055   0.249   3.988
  602SOL    HW2 2493   0.162   0.129   4.020
  603SOL     OW 2494   1.183   1.335   3.843
  603SOL    HW1 2495   1.084   1.324   3.845
  603SOL    HW2 2496   1.217   1.350   3.936
  604SOL     OW 2497   0.613   0.842   5.155
  604SOL    HW1 2498   0.669   0.923   5.138
  604SOL    HW2 2499   0.672   0.762   5.158
  605SOL     OW 2500   1.493   1.767   4.683
  605SOL    HW1 2501   1.526   1.831   4.614
  605SOL    HW2 2502   1.559   1.761   4.758
  606SOL     OW 2503   0.716   0.565   5.432
  606SOL    HW1 2504   0.735   0.630   5.506
  606SOL    HW2 2505   0.776   0.485   5.441
  607SOL     OW 2506   1.450   1.220   5.357
  607SOL    HW1 2507   1.441   1.210   5.456
  607SOL    HW2 2508   1.546   1.213   5.331
  608SOL     OW 2509   0.390   1.741   5.284
  608SOL    HW1 2510   0.299   1.782   5.282
  608SOL    HW2 2511   0.383   1.647   5.316
  609SOL     OW 2512   1.674   0.883   4.978
  609SOL    HW1 2513   1.647   0.794   4.941
  609SOL    HW2 2514   1.675   0.951   4.905
  610SOL     OW 2515   1.225   0.325   4.173
  610SOL    HW1 2516   1.290   0.251   4.162
  610SOL    HW2 2517   1.245   0.375   4.257
  611SOL     OW 2518   0.594   0.745   4.376
  611SOL    HW1 2519   0.644   0.830   4.357
  611SOL    HW2 2520   0.506   0.747   4.328
  612SOL     OW 2521   1.777   0.342   5.366
  612SOL    HW1 2522   1.760   0.373   5.272
  612SOL    HW2 2523   1.693   0.305   5.404
  613SOL     OW 2524   1.730   0.934   5.241
  613SOL    HW1 2525   1.768   1.025   5.256
  613SOL    HW2 2526   1.722   0.917   5.142
  614SOL     OW 2527   0.859   1.374   3.740
  614SOL    HW1 2528   0.813   1.389   3.828
  614SOL    HW2 2529   0.903   1.459   3.710
  615SOL     OW 2530   0.661   1.790   4.677
  615SOL    HW1 2531   0.615   1.878   4.664
  615SOL    HW2 2532   0.760   1.802   4.670
  616SOL     OW 2533   0.859   0.956   4.585
  616SOL    HW1 2534   0.913   0.887   4.633
  616SOL    HW2 2535   0.827   1.025   4.651
  617SOL     OW 2536   1.083   0.984   3.811
  617SOL    HW1 2537   1.060   1.037   3.729
  617SOL    HW2 2538   1.164   0.928   3.792
  618SOL     OW 2539   1.861   1.569   4.575
  618SOL    HW1 2540   1.790   1.557   4.505
  618SOL    HW2 2541   1.862   1.490   4.635
  619SOL     OW 2542   0.221   1.314   5.568
  619SOL    HW1 2543   0.156   1.241   5.547
  619SOL    HW2 2544   0.225   1.328   5.666
  620SOL     OW 2545   0.079   1.240   4.377
  620SOL    HW1 2546   0.078   1.193   4.465
  620SOL    HW2 2547   0.161   1.212   4.326
  621SOL     OW 2548   0.672   1.391   5.348
  621SOL    HW1 2549   0.594   1.341   5.386
  621SOL    HW2 2550   0.669   1.486   5.379
  622SOL     OW 2551   1.824   0.192   4.951
  622SOL    HW1 2552   1.820   0.102   4.995
  622SOL    HW2 2553   1.827   0.181   4.852
  623SOL     OW 2554   0.428   0.424   4.244
  623SOL    HW1 2555   0.458   0.352   4.182
  623SOL    HW2 2556   0.389   0.384   4.327
  624SOL     OW 2557   1.705   1.487   4.828
  624SOL    HW1 2558   1.612   1.462   4.801
  624SOL    HW2 2559   1.731   1.437   4.910
  625SOL     OW 2560   0.317   0.547   5.004
  625SOL    HW1 2561   0.355   0.488   5.076
  625SOL    HW2 2562   0.357   0.521   4.916
  626SOL     OW 2563   0.812   1.586   4.411
  626SOL    HW1 2564   0.844   1.596   4.317
  626SOL    HW2 2565   0.733   1.524   4.413
  627SOL     OW 2566   1.424   0.214   4.836
  627SOL    HW1 2567   1.476   0.149   4.891
  627SOL    HW2 2568   1.375   0.277   4.897
  628SOL     OW 2569   1.001   0.034   4.878
  628SOL    HW1 2570   0.938  -0.038   4.847
  628SOL    HW2 2571   1.094  -0.002   4.878
  629SOL     OW 2572   0.770   1.330   4.025
  629SOL    HW1 2573   0.724   1.243   4.042
  629SOL    HW2 2574   0.861   1.327   4.066
  630SOL     OW 2575   0.618   1.567   5.008
  630SOL    HW1 2576   0.613   1.649   5.065
  630SOL    HW2 2577   0.707   1.564   4.963
  631SOL     OW 2578   1.352   0.052   3.892
  631SOL    HW1 2579   1.387   0.011   3.808
  631SOL    HW2 2580   1.262   0.014   3.912
  632SOL     OW 2581   1.300   0.453   4.415
  632SOL    HW1 2582   1.241   0.533   4.419
  632SOL    HW2 2583   1.315   0.418   4.508
  633SOL     OW 2584   1.593   0.221   4.606
  633SOL    HW1 2585   1.509   0.220   4.660
  633SOL    HW2 2586   1.595   0.304   4.550
  634SOL     OW 2587   0.039   1.077   4.024
  634SOL    HW1 2588   0.138   1.066   4.015
  634SOL    HW2 2589  -0.001   0.991   4.056
  635SOL     OW 2590   0.875   1.646   4.061
  635SOL    HW1 2591   0.798   1.611   4.007
  635SOL    HW2 2592   0.843   1.717   4.123
  636SOL     OW 2593   0.230   0.628   5.699
  636SOL    HW1 2594   0.137   0.626   5.736
  636SOL    HW2 2595   0.231   0.589   5.607
  637SOL     OW 2596   0.225   0.275   6.582
  637SOL    HW1 2597   0.260   0.258   6.674
  637SOL    HW2 2598   0.137   0.230   6.570
  638SOL     OW 2599   0.019   0.368   6.233
  638SOL    HW1 2600  -0.063   0.411   6.272
  638SOL    HW2 2601  -0.009   0.295   6.170
  639SOL     OW 2602   0.569   1.275   6.751
  639SOL    HW1 2603   0.476   1.268   6.714
  639SOL    HW2 2604   0.580   1.364   6.795
  640SOL     OW 2605   1.135   0.703   6.303
  640SOL    HW1 2606   1.192   0.781   6.278
  640SOL    HW2 2607   1.075   0.729   6.379
  641SOL     OW 2608   1.755   0.607   5.817
  641SOL    HW1 2609   1.743   0.594   5.718
  641SOL    HW2 2610   1.725   0.526   5.866
  642SOL     OW 2611   0.768   1.144   6.609
  642SOL    HW1 2612   0.690   1.161   6.669
  642SOL    HW2 2613   0.802   1.231   6.573
  643SOL     OW 2614   0.850   0.798   7.409
  643SOL    HW1 2615   0.846   0.874   7.474
  643SOL    HW2 2616   0.872   0.834   7.318
  644SOL     OW 2617   0.685   1.012   6.251
  644SOL    HW1 2618   0.754   0.996   6.321
  644SOL    HW2 2619   0.612   1.069   6.289
  645SOL     OW 2620   0.686   1.161   7.389
  645SOL    HW1 2621   0.746   1.240   7.403
  645SOL    HW2 2622   0.600   1.192   7.348
  646SOL     OW 2623   0.335   1.435   6.647
  646SOL    HW1 2624   0.257   1.404   6.594
  646SOL    HW2 2625   0.393   1.493   6.590
  647SOL     OW 2626   0.438   0.392   7.085
  647SOL    HW1 2627   0.520   0.336   7.094
  647SOL    HW2 2628   0.357   0.334   7.089
  648SOL     OW 2629   1.603   0.447   6.323
  648SOL    HW1 2630   1.529   0.493   6.273
  648SOL    HW2 2631   1.654   0.515   6.376
  649SOL     OW 2632   0.231   1.713   6.069
  649SOL    HW1 2633   0.265   1.790   6.123
  649SOL    HW2 2634   0.275   1.713   5.979
  650SOL     OW 2635   1.127   1.341   7.276
  650SOL    HW1 2636   1.174   1.341   7.364
  650SOL    HW2 2637   1.079   1.254   7.265
  651SOL     OW 2638   0.230   1.434   6.124
  651SOL    HW1 2639   0.204   1.530   6.124
  651SOL    HW2 2640   0.159   1.380   6.169
  652SOL     OW 2641   0.240   1.091   6.472
  652SOL    HW1 2642   0.254   1.007   6.524
  652SOL    HW2 2643   0.185   1.155   6.527
  653SOL     OW 2644   0.620   1.786   7.025
  653SOL    HW1 2645   0.528   1.769   7.060
  653SOL    HW2 2646   0.648   1.878   7.051
  654SOL     OW 2647   0.606   0.964   5.709
  654SOL    HW1 2648   0.613   1.048   5.655
  654SOL    HW2 2649   0.652   0.977   5.797
  655SOL     OW 2650   1.594   0.114   7.066
  655SOL    HW1 2651   1.576   0.181   6.994
  655SOL    HW2 2652   1.591   0.160   7.155
  656SOL     OW 2653   0.122   0.643   6.149
  656SOL    HW1 2654   0.077   0.555   6.166
  656SOL    HW2 2655   0.121   0.697   6.233
  657SOL     OW 2656   0.027   1.596   5.703
  657SOL    HW1 2657   0.008   1.500   5.724
  657SOL    HW2 2658  -0.006   1.654   5.778
  658SOL     OW 2659   1.689   0.922   6.198
  658SOL    HW1 2660   1.784   0.893   6.206
  658SOL    HW2 2661   1.681   0.987   6.123
  659SOL     OW 2662   1.641   1.108   6.018
  659SOL    HW1 2663   1.727   1.110   5.966
  659SOL    HW2 2664   1.655   1.155   6.106
  660SOL     OW 2665   0.113   0.737   7.183
  660SOL    HW1 2666   0.201   0.724   7.228
  660SOL    HW2 2667   0.100   0.834   7.161
  661SOL     OW 2668   0.613   1.365   6.312
  661SOL    HW1 2669   0.564   1.278   6.321
  661SOL    HW2 2670   0.590   1.408   6.225
  662SOL     OW 2671   1.293   1.228   7.009
  662SOL    HW1 2672   1.330   1.155   6.951
  662SOL    HW2 2673   1.345   1.233   7.094
  663SOL     OW 2674   0.809   0.004   6.088
  663SOL    HW1 2675   0.849   0.095   6.079
  663SOL    HW2 2676   0.709   0.012   6.094
  664SOL     OW 2677   0.197   0.976   6.850
  664SOL    HW1 2678   0.286   0.931   6.836
  664SOL    HW2 2679   0.124   0.911   6.831
  665SOL     OW 2680   1.525   0.999   5.776
  665SOL    HW1 2681   1.462   0.923   5.789
  665SOL    HW2 2682   1.573   1.017   5.862
  666SOL     OW 2683   1.187   1.792   7.202
  666SOL    HW1 2684   1.211   1.852   7.126
  666SOL    HW2 2685   1.194   1.697   7.172
  667SOL     OW 2686   0.317   0.251   7.387
  667SOL    HW1 2687   0.388   0.322   7.393
  667SOL    HW2 2688   0.229   0.290   7.415
  668SOL     OW 2689   0.598   0.729   5.856
  668SOL    HW1 2690   0.622   0.798   5.788
  668SOL    HW2 2691   0.520   0.762   5.910
  669SOL     OW 2692   1.281   0.345   6.530
  669SOL    HW1 2693   1.195   0.295   6.517
  669SOL    HW2 2694   1.343   0.291   6.586
  670SOL     OW 2695   0.807   0.605   7.051
  670SOL    HW1 2696   0.760   0.602   7.140
  670SOL    HW2 2697   0.756   0.550   6.985
  671SOL     OW 2698   1.394   0.469   7.260
  671SOL    HW1 2699   1.374   0.512   7.348
  671SOL    HW2 2700   1.472   0.407   7.269
  672SOL     OW 2701   0.973   0.890   7.158
  672SOL    HW1 2702   1.019   0.806   7.129
  672SOL    HW2 2703   0.917   0.924   7.083
  673SOL     OW 2704   0.991   0.410   6.828
  673SOL    HW1 2705   0.914   0.444   6.882
  673SOL    HW2 2706   0.957   0.359   6.749
  674SOL     OW 2707   1.041   0.701   6.015
  674SOL    HW1 2708   1.067   0.697   6.111
  674SOL    HW2 2709   0.956   0.650   6.001
  675SOL     OW 2710   0.076   0.811   6.375
  675SOL    HW1 2711   0.175   0.799   6.384
  675SOL    HW2 2712   0.052   0.906   6.396
  676SOL     OW 2713   0.130   1.821   7.157
  676SOL    HW1 2714   0.120   1.806   7.256
  676SOL    HW2 2715   0.044   1.857   7.121
  677SOL     OW 2716   0.865   0.348   5.781
  677SOL    HW1 2717   0.924   0.411   5.732
  677SOL    HW2 2718   0.884   0.254   5.752
  678SOL     OW 2719   1.719   0.585   7.417
  678SOL    HW1 2720   1.693   0.674   7.381
  678SOL    HW2 2721   1.717   0.517   7.344
  679SOL     OW 2722   1.362   1.144   6.131
  679SOL    HW1 2723   1.445   1.115   6.083
  679SOL    HW2 2724   1.313   1.211   6.075
  680SOL     OW 2725   0.550   0.196   6.471
  680SOL    HW1 2726   0.545   0.191   6.571
  680SOL    HW2 2727   0.552   0.292   6.442
  681SOL     OW 2728   1.008   1.456   6.063
  681SOL    HW1 2729   0.962   1.528   6.011
  681SOL    HW2 2730   1.004   1.476   6.161
  682SOL     OW 2731   0.351   1.801   6.439
  682SOL    HW1 2732   0.401   1.715   6.445
  682SOL    HW2 2733   0.416   1.878   6.436
  683SOL     OW 2734   1.795   1.066   6.459
  683SOL    HW1 2735   1.733   1.051   6.383
  683SOL    HW2 2736   1.743   1.077   6.544
  684SOL     OW 2737   1.227   1.550   7.092
  684SOL    HW1 2738   1.233   1.473   7.156
  684SOL    HW2 2739   1.175   1.524   7.012
  685SOL     OW 2740   0.321   0.943   5.828
  685SOL    HW1 2741   0.403   0.982   5.786
  685SOL    HW2 2742   0.294   0.861   5.779
  686SOL     OW 2743   1.458   0.735   6.314
  686SOL    HW1 2744   1.453   0.670   6.389
  686SOL    HW2 2745   1.538   0.794   6.327
  687SOL     OW 2746   0.461   1.266   7.313
  687SOL    HW1 2747   0.411   1.267   7.227
  687SOL    HW2 2748   0.398   1.248   7.389
  688SOL     OW 2749   1.111   1.776   5.823
  688SOL    HW1 2750   1.051   1.714   5.873
  688SOL    HW2 2751   1.142   1.732   5.738
  689SOL     OW 2752   0.202   0.285   7.084
  689SOL    HW1 2753   0.122   0.345   7.071
  689SOL    HW2 2754   0.192   0.236   7.170
  690SOL     OW 2755   1.632   1.377   5.667
  690SOL    HW1 2756   1.600   1.471   5.657
  690SOL    HW2 2757   1.556   1.314   5.655
  691SOL     OW 2758   0.464   1.743   5.909
  691SOL    HW1 2759   0.497   1.782   5.995
  691SOL    HW2 2760   0.540   1.736   5.844
  692SOL     OW 2761   1.400   0.107   6.012
  692SOL    HW1 2762   1.376   0.070   5.922
  692SOL    HW2 2763   1.499   0.123   6.016
  693SOL     OW 2764   0.249   1.785   6.827
  693SOL    HW1 2765   0.306   1.720   6.877
  693SOL    HW2 2766   0.233   1.752   6.734
  694SOL     OW 2767   0.940   1.698   6.490
  694SOL    HW1 2768   1.020   1.641   6.511
  694SOL    HW2 2769   0.891   1.658   6.413
  695SOL     OW 2770   0.382   0.700   6.066
  695SOL    HW1 2771   0.427   0.610   6.063
  695SOL    HW2 2772   0.288   0.689   6.099
  696SOL     OW 2773   1.547   0.222   7.315
  696SOL    HW1 2774   1.542   0.259   7.407
  696SOL    HW2 2775   1.475   0.153   7.303
  697SOL     OW 2776   0.614   0.122   5.703
  697SOL    HW1 2777   0.712   0.100   5.710
  697SOL    HW2 2778   0.583   0.105   5.610
  698SOL     OW 2779   0.781   0.264   7.335
  698SOL    HW1 2780   0.848   0.203   7.378
  698SOL    HW2 2781   0.708   0.283   7.400
  699SOL     OW 2782   0.888   1.514   6.781
  699SOL    HW1 2783   0.865   1.489   6.687
  699SOL    HW2 2784   0.949   1.445   6.820
  700SOL     OW 2785   1.351   0.590   7.019
  700SOL    HW1 2786   1.379   0.547   7.104
  700SOL    HW2 2787   1.376   0.686   7.020
  701SOL     OW 2788   0.803   1.402   6.510
  701SOL    HW1 2789   0.893   1.416   6.468
  701SOL    HW2 2790   0.732   1.404   6.439
  702SOL     OW 2791   0.922   0.503   6.485
  702SOL    HW1 2792   0.897   0.494   6.389
  702SOL    HW2 2793   0.970   0.421   6.516
  703SOL     OW 2794   0.539   0.064   6.098
  703SOL    HW1 2795   0.458   0.065   6.156
  703SOL    HW2 2796   0.542   0.147   6.043
  704SOL     OW 2797   1.434   1.188   5.627
  704SOL    HW1 2798   1.466   1.112   5.684
  704SOL    HW2 2799   1.342   1.215   5.657
  705SOL     OW 2800   0.297   0.035   5.757
  705SOL    HW1 2801   0.346   0.119   5.736
  705SOL    HW2 2802   0.359  -0.030   5.802
  706SOL     OW 2803   0.935   0.236   6.066
  706SOL    HW1 2804   0.887   0.277   5.988
  706SOL    HW2 2805   1.034   0.234   6.047
  707SOL     OW 2806   1.076   0.683   7.050
  707SOL    HW1 2807   0.996   0.622   7.053
  707SOL    HW2 2808   1.157   0.630   7.026
  708SOL     OW 2809   0.459   1.152   6.327
  708SOL    HW1 2810   0.388   1.125   6.392
  708SOL    HW2 2811   0.433   1.124   6.234
  709SOL     OW 2812   1.032   0.549   5.602
  709SOL    HW1 2813   0.991   0.631   5.563
  709SOL    HW2 2814   1.096   0.575   5.675
  710SOL     OW 2815   0.078   0.556   6.972
  710SOL    HW1 2816   0.170   0.555   6.931
  710SOL    HW2 2817   0.072   0.630   7.039
  711SOL     OW 2818   0.561   0.222   6.733
  711SOL    HW1 2819   0.599   0.138   6.770
  711SOL    HW2 2820   0.473   0.241   6.777
  712SOL     OW 2821   0.866   0.454   6.228
  712SOL    HW1 2822   0.834   0.526   6.166
  712SOL    HW2 2823   0.890   0.373   6.175
  713SOL     OW 2824   1.017   0.039   6.339
  713SOL    HW1 2825   0.945   0.044   6.270
  713SOL    HW2 2826   0.993  -0.030   6.408
  714SOL     OW 2827   1.429   1.173   6.453
  714SOL    HW1 2828   1.374   1.089   6.446
  714SOL    HW2 2829   1.455   1.202   6.361
  715SOL     OW 2830   1.466   0.590   6.578
  715SOL    HW1 2831   1.436   0.495   6.585
  715SOL    HW2 2832   1.539   0.606   6.644
  716SOL     OW 2833   1.857   0.833   5.963
  716SOL    HW1 2834   1.899   0.769   6.027
  716SOL    HW2 2835   1.819   0.782   5.885
  717SOL     OW 2836   0.488   1.385   5.760
  717SOL    HW1 2837   0.401   1.370   5.807
  717SOL    HW2 2838   0.471   1.411   5.665
  718SOL     OW 2839   1.390   0.575   5.664
  718SOL    HW1 2840   1.336   0.554   5.745
  718SOL    HW2 2841   1.481   0.534   5.673
  719SOL     OW 2842   0.527   0.256   5.914
  719SOL    HW1 2843   0.554   0.197   5.839
  719SOL    HW2 2844   0.527   0.351   5.883
  720SOL     OW 2845   1.754   1.223   7.174
  720SOL    HW1 2846   1.845   1.184   7.161
  720SOL    HW2 2847   1.762   1.319   7.198
  721SOL     OW 2848   1.064   1.347   6.926
  721SOL    HW1 2849   0.984   1.324   6.981
  721SOL    HW2 2850   1.147   1.321   6.975
  722SOL     OW 2851   1.111   1.195   6.686
  722SOL    HW1 2852   1.071   1.239   6.767
  722SOL    HW2 2853   1.070   1.232   6.603
  723SOL     OW 2854   0.915   0.089   6.988
  723SOL    HW1 2855   0.940   0.069   6.893
  723SOL    HW2 2856   0.987   0.145   7.030
  724SOL     OW 2857   0.980   1.116   7.305
  724SOL    HW1 2858   0.881   1.122   7.315
  724SOL    HW2 2859   1.003   1.036   7.249
  725SOL     OW 2860   0.705   1.050   5.954
  725SOL    HW1 2861   0.691   1.057   6.053
  725SOL    HW2 2862   0.789   0.999   5.936
  726SOL     OW 2863   0.410   0.813   6.837
  726SOL    HW1 2864   0.496   0.825   6.887
  726SOL    HW2 2865   0.368   0.726   6.864
  727SOL     OW 2866   1.274   0.386   6.848
  727SOL    HW1 2867   1.295   0.460   6.912
  727SOL    HW2 2868   1.185   0.403   6.805
  728SOL     OW 2869   0.064   1.564   6.917
  728SOL    HW1 2870   0.018   1.646   6.883
  728SOL    HW2 2871   0.162   1.583   6.926
  729SOL     OW 2872   0.367   1.100   6.087
  729SOL    HW1 2873   0.360   1.183   6.031
  729SOL    HW2 2874   0.371   1.020   6.027
  730SOL     OW 2875   0.566   0.537   6.451
  730SOL    HW1 2876   0.578   0.603   6.377
  730SOL    HW2 2877   0.612   0.571   6.534
  731SOL     OW 2878   1.272   1.445   6.728
  731SOL    HW1 2879   1.319   1.458   6.815
  731SOL    HW2 2880   1.206   1.371   6.737
  732SOL     OW 2881   1.582   0.639   6.058
  732SOL    HW1 2882   1.551   0.700   6.131
  732SOL    HW2 2883   1.632   0.691   5.989
  733SOL     OW 2884   0.354   1.510   6.915
  733SOL    HW1 2885   0.333   1.466   6.828
  733SOL    HW2 2886   0.451   1.536   6.918
  734SOL     OW 2887   0.402   0.751   7.184
  734SOL    HW1 2888   0.470   0.806   7.137
  734SOL    HW2 2889   0.442   0.663   7.211
  735SOL     OW 2890   1.587   0.779   7.256
  735SOL    HW1 2891   1.495   0.817   7.251
  735SOL    HW2 2892   1.647   0.826   7.191
  736SOL     OW 2893   1.013   0.105   7.356
  736SOL    HW1 2894   1.019   0.190   7.304
  736SOL    HW2 2895   1.045   0.029   7.299
  737SOL     OW 2896   0.504   0.050   7.326
  737SOL    HW1 2897   0.462  -0.007   7.256
  737SOL    HW2 2898   0.438   0.119   7.358
  738SOL     OW 2899   0.573   0.870   6.615
  738SOL    HW1 2900   0.617   0.959   6.606
  738SOL    HW2 2901   0.510   0.870   6.692
  739SOL     OW 2902   1.360   0.862   6.631
  739SOL    HW1 2903   1.285   0.862   6.565
  739SOL    HW2 2904   1.397   0.770   6.640
  740SOL     OW 2905   1.209   0.525   5.861
  740SOL    HW1 2906   1.222   0.441   5.915
  740SOL    HW2 2907   1.180   0.599   5.921
  741SOL     OW 2908   0.307   0.213   6.817
  741SOL    HW1 2909   0.284   0.250   6.907
  741SOL    HW2 2910   0.277   0.118   6.811
  742SOL     OW 2911   0.037   1.310   6.868
  742SOL    HW1 2912   0.090   1.261   6.936
  742SOL    HW2 2913   0.059   1.408   6.873
  743SOL     OW 2914   0.732   0.634   6.650
  743SOL    HW1 2915   0.791   0.608   6.574
  743SOL    HW2 2916   0.704   0.730   6.639
  744SOL     OW 2917   1.728   0.935   7.440
  744SOL    HW1 2918   1.682   0.928   7.351
  744SOL    HW2 2919   1.666   0.979   7.506
  745SOL     OW 2920   0.307   0.063   6.204
  745SOL    HW1 2921   0.296   0.157   6.237
  745SOL    HW2 2922   0.302   0.000   6.281
  746SOL     OW 2923   1.622   0.367   5.960
  746SOL    HW1 2924   1.624   0.291   6.024
  746SOL    HW2 2925   1.574   0.444   6.000
  747SOL     OW 2926   1.023   0.766   6.552
  747SOL    HW1 2927   1.038   0.787   6.648
  747SOL    HW2 2928   0.993   0.671   6.543
  748SOL     OW 2929   0.980   1.573   7.286
  748SOL    HW1 2930   0.960   1.617   7.198
  748SOL    HW2 2931   1.019   1.482   7.270
  749SOL     OW 2932   0.350   0.898   7.390
  749SOL    HW1 2933   0.426   0.942   7.438
  749SOL    HW2 2934   0.385   0.851   7.308
  750SOL     OW 2935   1.540   0.274   5.711
  750SOL    HW1 2936   1.479   0.199   5.734
  750SOL    HW2 2937   1.562   0.326   5.794
  751SOL     OW 2938   1.303   0.838   5.628
  751SOL    HW1 2939   1.337   0.745   5.643
  751SOL    HW2 2940   1.321   0.865   5.533
  752SOL     OW 2941   1.068   1.333   6.435
  752SOL    HW1 2942   1.075   1.249   6.380
  752SOL    HW2 2943   1.130   1.402   6.399
  753SOL     OW 2944   0.319   0.810   6.535
  753SOL    HW1 2945   0.412   0.846   6.540
  753SOL    HW2 2946   0.313   0.725   6.587
  754SOL     OW 2947   0.339   0.509   6.592
  754SOL    HW1 2948   0.287   0.426   6.575
  754SOL    HW2 2949   0.416   0.514   6.528
  755SOL     OW 2950   1.138   0.380   7.264
  755SOL    HW1 2951   1.093   0.443   7.328
  755SOL    HW2 2952   1.231   0.411   7.247
  756SOL     OW 2953   1.160   0.207   7.063
  756SOL    HW1 2954   1.160   0.271   7.140
  756SOL    HW2 2955   1.188   0.255   6.980
  757SOL     OW 2956   0.008   1.326   5.786
  757SOL    HW1 2957  -0.085   1.347   5.755
  757SOL    HW2 2958   0.018   1.227   5.799
  758SOL     OW 2959   0.088   1.801   6.513
  758SOL    HW1 2960   0.046   1.715   6.486
  758SOL    HW2 2961   0.182   1.804   6.479
  759SOL     OW 2962   0.504   1.568   6.496
  759SOL    HW1 2963   0.570   1.642   6.505
  759SOL    HW2 2964   0.548   1.489   6.454
  760SOL     OW 2965   1.002   0.796   6.824
  760SOL    HW1 2966   1.043   0.764   6.910
  760SOL    HW2 2967   0.906   0.769   6.821
  761SOL     OW 2968   0.040   0.544   6.700
  761SOL    HW1 2969   0.125   0.511   6.659
  761SOL    HW2 2970   0.053   0.559   6.798
  762SOL     OW 2971   0.189   0.520   7.308
  762SOL    HW1 2972   0.248   0.480   7.238
  762SOL    HW2 2973   0.131   0.591   7.267
  763SOL     OW 2974   1.369   0.950   7.246
  763SOL    HW1 2975   1.408   1.039   7.266
  763SOL    HW2 2976   1.379   0.930   7.149
  764SOL     OW 2977   0.815   0.572   5.911
  764SOL    HW1 2978   0.822   0.483   5.865
  764SOL    HW2 2979   0.721   0.606   5.903
  765SOL     OW 2980   1.657   0.604   6.792
  765SOL    HW1 2981   1.619   0.535   6.854
  765SOL    HW2 2982   1.739   0.568   6.748
  766SOL     OW 2983   0.252   1.564   7.330
  766SOL    HW1 2984   0.222   1.621   7.406
  766SOL    HW2 2985   0.245   1.467   7.356
  767SOL     OW 2986   0.671   0.464   6.855
  767SOL    HW1 2987   0.637   0.375   6.825
  767SOL    HW2 2988   0.697   0.518   6.775
  768SOL     OW 2989   0.930   1.678   7.051
  768SOL    HW1 2990   0.906   1.660   6.956
  768SOL    HW2 2991   0.960   1.772   7.061
  769SOL     OW 2992   0.473   0.500   5.777
  769SOL    HW1 2993   0.534   0.580   5.781
  769SOL    HW2 2994   0.378   0.531   5.784
  770SOL     OW 2995   0.159   1.137   7.052
  770SOL    HW1 2996   0.181   1.076   7.128
  770SOL    HW2 2997   0.169   1.088   6.966
  771SOL     OW 2998   1.347   1.059   6.820
  771SOL    HW1 2999   1.371   0.996   6.746
  771SOL    HW2 3000   1.257   1.099   6.802
  772SOL     OW 3001   1.302   0.855   5.895
  772SOL    HW1 3002   1.216   0.824   5.937
  772SOL    HW2 3003   1.298   0.841   5.796
  773SOL     OW 3004   1.759   1.747   6.740
  773SOL    HW1 3005   1.820   1.777   6.667
  773SOL    HW2 3006   1.721   1.658   6.718
  774SOL     OW 3007   0.083   1.258   6.608
  774SOL    HW1 3008   0.078   1.257   6.708
  774SOL    HW2 3009   0.000   1.217   6.570
  775SOL     OW 3010   0.688   1.662   7.302
  775SOL    HW1 3011   0.632   1.743   7.311
  775SOL    HW2 3012   0.740   1.666   7.216
  776SOL     OW 3013   1.726   0.135   6.109
  776SOL    HW1 3014   1.799   0.118   6.042
  776SOL    HW2 3015   1.695   0.048   6.147
  777SOL     OW 3016   0.130   1.794   7.437
  777SOL    HW1 3017   0.089   1.720   7.490
  777SOL    HW2 3018   0.194   1.845   7.495
  778SOL     OW 3019   1.280   0.927   6.258
  778SOL    HW1 3020   1.340   0.846   6.260
  778SOL    HW2 3021   1.320   0.996   6.198
  779SOL     OW 3022   0.830   1.273   7.008
  779SOL    HW1 3023   0.825   1.306   7.103
  779SOL    HW2 3024   0.744   1.292   6.962
  780SOL     OW 3025   0.672   1.616   5.740
  780SOL    HW1 3026   0.681   1.626   5.641
  780SOL    HW2 3027   0.632   1.527   5.761
  781SOL     OW 3028   1.841   0.175   6.549
  781SOL    HW1 3029   1.880   0.090   6.513
  781SOL    HW2 3030   1.743   0.177   6.530
  782SOL     OW 3031   0.263   0.326   6.306
  782SOL    HW1 3032   0.184   0.377   6.272
  782SOL    HW2 3033   0.254   0.311   6.404
  783SOL     OW 3034   1.194   1.612   5.617
  783SOL    HW1 3035   1.200   1.519   5.654
  783SOL    HW2 3036   1.135   1.612   5.537
  784SOL     OW 3037   0.822   1.002   6.958
  784SOL    HW1 3038   0.862   1.001   6.866
  784SOL    HW2 3039   0.832   1.094   6.998
  785SOL     OW 3040   0.916   0.910   5.877
  785SOL    HW1 3041   0.979   0.948   5.809
  785SOL    HW2 3042   0.956   0.827   5.916
  786SOL     OW 3043   1.504   1.607   5.630
  786SOL    HW1 3044   1.412   1.644   5.637
  786SOL    HW2 3045   1.542   1.627   5.540
  787SOL     OW 3046   0.372   1.288   7.076
  787SOL    HW1 3047   0.359   1.381   7.042
  787SOL    HW2 3048   0.288   1.236   7.063
  788SOL     OW 3049   1.039   1.098   6.282
  788SOL    HW1 3050   0.969   1.051   6.336
  788SOL    HW2 3051   1.098   1.030   6.239
  789SOL     OW 3052   1.014   0.236   6.557
  789SOL    HW1 3053   1.006   0.200   6.464
  789SOL    HW2 3054   1.012   0.160   6.622
  790SOL     OW 3055   0.590   1.487   6.077
  790SOL    HW1 3056   0.632   1.429   6.007
  790SOL    HW2 3057   0.546   1.566   6.033
  791SOL     OW 3058   1.709   0.385   6.967
  791SOL    HW1 3059   1.782   0.454   6.971
  791SOL    HW2 3060   1.737   0.310   6.908
  792SOL     OW 3061   0.255   1.348   5.876
  792SOL    HW1 3062   0.159   1.349   5.849
  792SOL    HW2 3063   0.267   1.401   5.960
  793SOL     OW 3064   0.105   1.013   7.312
  793SOL    HW1 3065   0.028   0.980   7.366
  793SOL    HW2 3066   0.190   0.983   7.354
  794SOL     OW 3067   0.672   0.203   7.075
  794SOL    HW1 3068   0.762   0.187   7.035
  794SOL    HW2 3069   0.680   0.208   7.174
  795SOL     OW 3070   0.075   0.345   5.619
  795SOL    HW1 3071  -0.017   0.317   5.590
  795SOL    HW2 3072   0.106   0.422   5.563
  796SOL     OW 3073   1.440   0.856   6.984
  796SOL    HW1 3074   1.383   0.908   6.921
  796SOL    HW2 3075   1.536   0.868   6.960
  797SOL     OW 3076   0.072   0.166   5.904
  797SOL    HW1 3077   0.055   0.249   5.850
  797SOL    HW2 3078   0.162   0.129   5.882
  798SOL     OW 3079   1.183   1.335   5.705
  798SOL    HW1 3080   1.084   1.324   5.707
  798SOL    HW2 3081   1.217   1.350   5.798
  799SOL     OW 3082   0.613   0.842   7.017
  799SOL    HW1 3083   0.669   0.923   7.000
  799SOL    HW2 3084   0.672   0.762   7.020
  800SOL     OW 3085   0.716   0.565   7.294
  800SOL    HW1 3086   0.735   0.630   7.368
  800SOL    HW2 3087   0.776   0.485   7.303
  801SOL     OW 3088   0.390   1.741   7.146
  801SOL    HW1 3089   0.299   1.782   7.144
  801SOL    HW2 3090   0.383   1.647   7.178
  802SOL     OW 3091   1.674   0.883   6.840
  802SOL    HW1 3092   1.647   0.794   6.803
  802SOL    HW2 3093   1.675   0.951   6.767
  803SOL     OW 3094   1.225   0.325   6.035
  803SOL    HW1 3095   1.290   0.251   6.024
  803SOL    HW2 3096   1.245   0.375   6.119
  804SOL     OW 3097   0.594   0.745   6.238
  804SOL    HW1 3098   0.644   0.830   6.219
  804SOL    HW2 3099   0.506   0.747   6.190
  805SOL     OW 3100   1.777   0.342   7.228
  805SOL    HW1 3101   1.760   0.373   7.134
  805SOL    HW2 3102   1.693   0.305   7.266
  806SOL     OW 3103   1.730   0.934   7.103
  806SOL    HW1 3104   1.768   1.025   7.118
  806SOL    HW2 3105   1.722   0.917   7.004
  807SOL     OW 3106   0.859   1.374   5.602
  807SOL    HW1 3107   0.813   1.389   5.690
  807SOL    HW2 3108   0.903   1.459   5.572
  808SOL     OW 3109   0.661   1.790   6.539
  808SOL    HW1 3110   0.615   1.878   6.526
  808SOL    HW2 3111   0.760   1.802   6.532
  809SOL     OW 3112   0.859   0.956   6.447
  809SOL    HW1 3113   0.913   0.887   6.495
  809SOL    HW2 3114   0.827   1.025   6.513
  810SOL     OW 3115   1.083   0.984   5.673
  810SOL    HW1 3116   1.060   1.037   5.591
  810SOL    HW2 3117   1.164   0.928   5.654
  811SOL     OW 3118   0.221   1.314   7.430
  811SOL    HW1 3119   0.156   1.241   7.409
  811SOL    HW2 3120   0.225   1.328   7.528
  812SOL     OW 3121   0.079   1.240   6.239
  812SOL    HW1 3122   0.078   1.193   6.327
  812SOL    HW2 3123   0.161   1.212   6.188
  813SOL     OW 3124   0.672   1.391   7.210
  813SOL    HW1 3125   0.594   1.341   7.248
  813SOL    HW2 3126   0.669   1.486   7.241
  814SOL     OW 3127   1.824   0.192   6.813
  814SOL    HW1 3128   1.820   0.102   6.857
  814SOL    HW2 3129   1.827   0.181   6.714
  815SOL     OW 3130   0.428   0.424   6.106
  815SOL    HW1 3131   0.458   0.352   6.044
  815SOL    HW2 3132   0.389   0.384   6.189
  816SOL     OW 3133   0.317   0.547   6.866
  816SOL    HW1 3134   0.355   0.488   6.938
  816SOL    HW2 3135   0.357   0.521   6.778
  817SOL     OW 3136   0.812   1.586   6.273
  817SOL    HW1 3137   0.844   1.596   6.179
  817SOL    HW2 3138   0.733   1.524   6.275
  818SOL     OW 3139   1.424   0.214   6.698
  818SOL    HW1 3140   1.476   0.149   6.753
  818SOL    HW2 3141   1.375   0.277   6.759
  819SOL     OW 3142   1.001   0.034   6.740
  819SOL    HW1 3143   0.938  -0.038   6.709
  819SOL    HW2 3144   1.094  -0.002   6.740
  820SOL     OW 3145   0.770   1.330   5.887
  820SOL    HW1 3146   0.724   1.243   5.904
  820SOL    HW2 3147   0.861   1.327   5.928
  821SOL     OW 3148   0.618   1.567   6.870
  821SOL    HW1 3149   0.613   1.649   6.927
  821SOL    HW2 3150   0.707   1.564   6.825
  822SOL     OW 3151   1.352   0.052   5.754
  822SOL    HW1 3152   1.387   0.011   5.670
  822SOL    HW2 3153   1.262   0.014   5.774
  823SOL     OW 3154   1.300   0.453   6.277
  823SOL    HW1 3155   1.241   0.533   6.281
  823SOL    HW2 3156   1.315   0.418   6.370
  824SOL     OW 3157   1.593   0.221   6.468
  824SOL    HW1 3158   1.509   0.220   6.522
  824SOL    HW2 3159   1.595   0.304   6.412
  825SOL     OW 3160   0.039   1.077   5.886
  825SOL    HW1 3161   0.138   1.066   5.877
  825SOL    HW2 3162  -0.001   0.991   5.918
  826SOL     OW 3163   0.875   1.646   5.923
  826SOL    HW1 3164   0.798   1.611   5.869
  826SOL    HW2 3165   0.843   1.717   5.985
  827SOL     OW 3166   0.230   0.628   7.561
  827SOL    HW1 3167   0.137   0.626   7.598
  827SOL    HW2 3168   0.231   0.589   7.469
  828SOL     OW 3169   0.225   0.275   8.444
  828SOL    HW1 3170   0.260   0.258   8.536
  828SOL    HW2 3171   0.137   0.230   8.432
  829SOL     OW 3172   0.019   0.368   8.095
  829SOL    HW1 3173  -0.063   0.411   8.134
  829SOL    HW2 3174  -0.009   0.295   8.032
  830SOL     OW 3175   0.569   1.275   8.613
  830SOL    HW1 3176   0.476   1.268   8.576
  830SOL    HW2 3177   0.580   1.364   8.657
  831SOL     OW 3178   1.555   1.511   8.151
  831SOL    HW1 3179   1.498   1.495   8.232
  831SOL    HW2 3180   1.496   1.521   8.071
  832SOL     OW 3181   1.135   0.703   8.165
  832SOL    HW1 3182   1.192   0.781   8.140
  832SOL    HW2 3183   1.075   0.729   8.241
  833SOL     OW 3184   1.755   0.607   7.679
  833SOL    HW1 3185   1.743   0.594   7.580
  833SOL    HW2 3186   1.725   0.526   7.728
  834SOL     OW 3187   0.768   1.144   8.471
  834SOL    HW1 3188   0.690   1.161   8.531
  834SOL    HW2 3189   0.802   1.231   8.435
  835SOL     OW 3190   0.850   0.798   9.271
  835SOL    HW1 3191   0.846   0.874   9.336
  835SOL    HW2 3192   0.872   0.834   9.180
  836SOL     OW 3193   0.685   1.012   8.113
  836SOL    HW1 3194   0.754   0.996   8.183
  836SOL    HW2 3195   0.612   1.069   8.151
  837SOL     OW 3196   0.686   1.161   9.251
  837SOL    HW1 3197   0.746   1.240   9.265
  837SOL    HW2 3198   0.600   1.192   9.210
  838SOL     OW 3199   0.335   1.435   8.509
  838SOL    HW1 3200   0.257   1.404   8.456
  838SOL    HW2 3201   0.393   1.493   8.452
  839SOL     OW 3202   1.460   1.505   8.787
  839SOL    HW1 3203   1.484   1.599   8.813
  839SOL    HW2 3204   1.444   1.451   8.869
  840SOL     OW 3205   0.438   0.392   8.947
  840SOL    HW1 3206   0.520   0.336   8.956
  840SOL    HW2 3207   0.357   0.334   8.951
  841SOL     OW 3208   1.603   0.447   8.185
  841SOL    HW1 3209   1.529   0.493   8.135
  841SOL    HW2 3210   1.654   0.515   8.238
  842SOL     OW 3211   0.231   1.713   7.931
  842SOL    HW1 3212   0.265   1.790   7.985
  842SOL    HW2 3213   0.275   1.713   7.841
  843SOL     OW 3214   1.127   1.341   9.138
  843SOL    HW1 3215   1.174   1.341   9.226
  843SOL    HW2 3216   1.079   1.254   9.127
  844SOL     OW 3217   0.230   1.434   7.986
  844SOL    HW1 3218   0.204   1.530   7.986
  844SOL    HW2 3219   0.159   1.380   8.031
  845SOL     OW 3220   0.240   1.091   8.334
  845SOL    HW1 3221   0.254   1.007   8.386
  845SOL    HW2 3222   0.185   1.155   8.389
  846SOL     OW 3223   0.620   1.786   8.887
  846SOL    HW1 3224   0.528   1.769   8.922
  846SOL    HW2 3225   0.648   1.878   8.913
  847SOL     OW 3226   0.606   0.964   7.571
  847SOL    HW1 3227   0.613   1.048   7.517
  847SOL    HW2 3228   0.652   0.977   7.659
  848SOL     OW 3229   1.594   0.114   8.928
  848SOL    HW1 3230   1.576   0.181   8.856
  848SOL    HW2 3231   1.591   0.160   9.017
  849SOL     OW 3232   0.122   0.643   8.011
  849SOL    HW1 3233   0.077   0.555   8.028
  849SOL    HW2 3234   0.121   0.697   8.095
  850SOL     OW 3235   0.027   1.596   7.565
  850SOL    HW1 3236   0.008   1.500   7.586
  850SOL    HW2 3237  -0.006   1.654   7.640
  851SOL     OW 3238   1.689   0.922   8.060
  851SOL    HW1 3239   1.784   0.893   8.068
  851SOL    HW2 3240   1.681   0.987   7.985
  852SOL     OW 3241   0.113   0.737   9.045
  852SOL    HW1 3242   0.201   0.724   9.090
  852SOL    HW2 3243   0.100   0.834   9.023
  853SOL     OW 3244   0.613   1.365   8.174
  853SOL    HW1 3245   0.564   1.278   8.183
  853SOL    HW2 3246   0.590   1.408   8.087
  854SOL     OW 3247   1.293   1.228   8.871
  854SOL    HW1 3248   1.330   1.155   8.813
  854SOL    HW2 3249   1.345   1.233   8.956
  855SOL     OW 3250   0.809   0.004   7.950
  855SOL    HW1 3251   0.849   0.095   7.941
  855SOL    HW2 3252   0.709   0.012   7.956
  856SOL     OW 3253   0.197   0.976   8.712
  856SOL    HW1 3254   0.286   0.931   8.698
  856SOL    HW2 3255   0.124   0.911   8.693
  857SOL     OW 3256   1.525   0.999   7.638
  857SOL    HW1 3257   1.462   0.923   7.651
  857SOL    HW2 3258   1.573   1.017   7.724
  858SOL     OW 3259   1.187   1.792   9.064
  858SOL    HW1 3260   1.211   1.852   8.988
  858SOL    HW2 3261   1.194   1.697   9.034
  859SOL     OW 3262   0.317   0.251   9.249
  859SOL    HW1 3263   0.388   0.322   9.255
  859SOL    HW2 3264   0.229   0.290   9.277
  860SOL     OW 3265   1.466   1.417   8.401
  860SOL    HW1 3266   1.407   1.423   8.481
  860SOL    HW2 3267   1.451   1.329   8.355
  861SOL     OW 3268   1.667   1.714   8.020
  861SOL    HW1 3269   1.626   1.691   7.932
  861SOL    HW2 3270   1.649   1.640   8.085
  862SOL     OW 3271   0.598   0.729   7.718
  862SOL    HW1 3272   0.622   0.798   7.650
  862SOL    HW2 3273   0.520   0.762   7.772
  863SOL     OW 3274   1.281   0.345   8.392
  863SOL    HW1 3275   1.195   0.295   8.379
  863SOL    HW2 3276   1.343   0.291   8.448
  864SOL     OW 3277   1.576   1.662   7.755
  864SOL    HW1 3278   1.665   1.708   7.758
  864SOL    HW2 3279   1.555   1.638   7.660
  865SOL     OW 3280   0.807   0.605   8.913
  865SOL    HW1 3281   0.760   0.602   9.002
  865SOL    HW2 3282   0.756   0.550   8.847
  866SOL     OW 3283   1.394   0.469   9.122
  866SOL    HW1 3284   1.374   0.512   9.210
  866SOL    HW2 3285   1.472   0.407   9.131
  867SOL     OW 3286   0.973   0.890   9.020
  867SOL    HW1 3287   1.019   0.806   8.991
  867SOL    HW2 3288   0.917   0.924   8.945
  868SOL     OW 3289   0.991   0.410   8.690
  868SOL    HW1 3290   0.914   0.444   8.744
  868SOL    HW2 3291   0.957   0.359   8.611
  869SOL     OW 3292   1.041   0.701   7.877
  869SOL    HW1 3293   1.067   0.697   7.973
  869SOL    HW2 3294   0.956   0.650   7.863
  870SOL     OW 3295   0.076   0.811   8.237
  870SOL    HW1 3296   0.175   0.799   8.246
  870SOL    HW2 3297   0.052   0.906   8.258
  871SOL     OW 3298   0.130   1.821   9.019
  871SOL    HW1 3299   0.120   1.806   9.118
  871SOL    HW2 3300   0.044   1.857   8.983
  872SOL     OW 3301   0.865   0.348   7.643
  872SOL    HW1 3302   0.924   0.411   7.594
  872SOL    HW2 3303   0.884   0.254   7.614
  873SOL     OW 3304   1.719   0.585   9.279
  873SOL    HW1 3305   1.693   0.674   9.243
  873SOL    HW2 3306   1.717   0.517   9.206
  874SOL     OW 3307   1.362   1.144   7.993
  874SOL    HW1 3308   1.445   1.115   7.945
  874SOL    HW2 3309   1.313   1.211   7.937
  875SOL     OW 3310   0.550   0.196   8.333
  875SOL    HW1 3311   0.545   0.191   8.433
  875SOL    HW2 3312   0.552   0.292   8.304
  876SOL     OW 3313   1.008   1.456   7.925
  876SOL    HW1 3314   0.962   1.528   7.873
  876SOL    HW2 3315   1.004   1.476   8.023
  877SOL     OW 3316   0.351   1.801   8.301
  877SOL    HW1 3317   0.401   1.715   8.307
  877SOL    HW2 3318   0.416   1.878   8.298
  878SOL     OW 3319   1.795   1.066   8.321
  878SOL    HW1 3320   1.733   1.051   8.245
  878SOL    HW2 3321   1.743   1.077   8.406
  879SOL     OW 3322   1.227   1.550   8.954
  879SOL    HW1 3323   1.233   1.473   9.018
  879SOL    HW2 3324   1.175   1.524   8.874
  880SOL     OW 3325   0.321   0.943   7.690
  880SOL    HW1 3326   0.403   0.982   7.648
  880SOL    HW2 3327   0.294   0.861   7.641
  881SOL     OW 3328   1.458   0.735   8.176
  881SOL    HW1 3329   1.453   0.670   8.251
  881SOL    HW2 3330   1.538   0.794   8.189
  882SOL     OW 3331   0.461   1.266   9.175
  882SOL    HW1 3332   0.411   1.267   9.089
  882SOL    HW2 3333   0.398   1.248   9.251
  883SOL     OW 3334   1.111   1.776   7.685
  883SOL    HW1 3335   1.051   1.714   7.735
  883SOL    HW2 3336   1.142   1.732   7.600
  884SOL     OW 3337   0.202   0.285   8.946
  884SOL    HW1 3338   0.122   0.345   8.933
  884SOL    HW2 3339   0.192   0.236   9.032
  885SOL     OW 3340   0.464   1.743   7.771
  885SOL    HW1 3341   0.497   1.782   7.857
  885SOL    HW2 3342   0.540   1.736   7.706
  886SOL     OW 3343   1.400   0.107   7.874
  886SOL    HW1 3344   1.376   0.070   7.784
  886SOL    HW2 3345   1.499   0.123   7.878
  887SOL     OW 3346   0.249   1.785   8.689
  887SOL    HW1 3347   0.306   1.720   8.739
  887SOL    HW2 3348   0.233   1.752   8.596
  888SOL     OW 3349   0.940   1.698   8.352
  888SOL    HW1 3350   1.020   1.641   8.373
  888SOL    HW2 3351   0.891   1.658   8.275
  889SOL     OW 3352   0.382   0.700   7.928
  889SOL    HW1 3353   0.427   0.610   7.925
  889SOL    HW2 3354   0.288   0.689   7.961
  890SOL     OW 3355   1.547   0.222   9.177
  890SOL    HW1 3356   1.542   0.259   9.269
  890SOL    HW2 3357   1.475   0.153   9.165
  891SOL     OW 3358   0.614   0.122   7.565
  891SOL    HW1 3359   0.712   0.100   7.572
  891SOL    HW2 3360   0.583   0.105   7.472
  892SOL     OW 3361   0.781   0.264   9.197
  892SOL    HW1 3362   0.848   0.203   9.240
  892SOL    HW2 3363   0.708   0.283   9.262
  893SOL     OW 3364   0.888   1.514   8.643
  893SOL    HW1 3365   0.865   1.489   8.549
  893SOL    HW2 3366   0.949   1.445   8.682
  894SOL     OW 3367   1.351   0.590   8.881
  894SOL    HW1 3368   1.379   0.547   8.966
  894SOL    HW2 3369   1.376   0.686   8.882
  895SOL     OW 3370   0.803   1.402   8.372
  895SOL    HW1 3371   0.893   1.416   8.330
  895SOL    HW2 3372   0.732   1.404   8.301
  896SOL     OW 3373   0.922   0.503   8.347
  896SOL    HW1 3374   0.897   0.494   8.251
  896SOL    HW2 3375   0.970   0.421   8.378
  897SOL     OW 3376   0.539   0.064   7.960
  897SOL    HW1 3377   0.458   0.065   8.018
  897SOL    HW2 3378   0.542   0.147   7.905
  898SOL     OW 3379   0.297   0.035   7.619
  898SOL    HW1 3380   0.346   0.119   7.598
  898SOL    HW2 3381   0.359  -0.030   7.664
  899SOL     OW 3382   0.935   0.236   7.928
  899SOL    HW1 3383   0.887   0.277   7.850
  899SOL    HW2 3384   1.034   0.234   7.909
  900SOL     OW 3385   1.076   0.683   8.912
  900SOL    HW1 3386   0.996   0.622   8.915
  900SOL    HW2 3387   1.157   0.630   8.888
  901SOL     OW 3388   1.227   1.570   8.241
  901SOL    HW1 3389   1.248   1.644   8.176
  901SOL    HW2 3390   1.295   1.570   8.314
  902SOL     OW 3391   0.459   1.152   8.189
  902SOL    HW1 3392   0.388   1.125   8.254
  902SOL    HW2 3393   0.433   1.124   8.096
  903SOL     OW 3394   1.271   1.797   8.039
  903SOL    HW1 3395   1.315   1.861   7.975
  903SOL    HW2 3396   1.221   1.849   8.109
  904SOL     OW 3397   1.032   0.549   7.464
  904SOL    HW1 3398   0.991   0.631   7.425
  904SOL    HW2 3399   1.096   0.575   7.537
  905SOL     OW 3400   0.078   0.556   8.834
  905SOL    HW1 3401   0.170   0.555   8.793
  905SOL    HW2 3402   0.072   0.630   8.901
  906SOL     OW 3403   0.561   0.222   8.595
  906SOL    HW1 3404   0.599   0.138   8.632
  906SOL    HW2 3405   0.473   0.241   8.639
  907SOL     OW 3406   0.866   0.454   8.090
  907SOL    HW1 3407   0.834   0.526   8.028
  907SOL    HW2 3408   0.890   0.373   8.037
  908SOL     OW 3409   1.017   0.039   8.201
  908SOL    HW1 3410   0.945   0.044   8.132
  908SOL    HW2 3411   0.993  -0.030   8.270
  909SOL     OW 3412   1.429   1.173   8.315
  909SOL    HW1 3413   1.374   1.089   8.308
  909SOL    HW2 3414   1.455   1.202   8.223
  910SOL     OW 3415   1.466   0.590   8.440
  910SOL    HW1 3416   1.436   0.495   8.447
  910SOL    HW2 3417   1.539   0.606   8.506
  911SOL     OW 3418   1.857   0.833   7.825
  911SOL    HW1 3419   1.899   0.769   7.889
  911SOL    HW2 3420   1.819   0.782   7.747
  912SOL     OW 3421   0.488   1.385   7.622
  912SOL    HW1 3422   0.401   1.370   7.669
  912SOL    HW2 3423   0.471   1.411   7.527
  913SOL     OW 3424   1.664   1.280   8.105
  913SOL    HW1 3425   1.763   1.288   8.119
  913SOL    HW2 3426   1.619   1.364   8.136
  914SOL     OW 3427   1.390   0.575   7.526
  914SOL    HW1 3428   1.336   0.554   7.607
  914SOL    HW2 3429   1.481   0.534   7.535
  915SOL     OW 3430   0.527   0.256   7.776
  915SOL    HW1 3431   0.554   0.197   7.701
  915SOL    HW2 3432   0.527   0.351   7.745
  916SOL     OW 3433   1.754   1.223   9.036
  916SOL    HW1 3434   1.845   1.184   9.023
  916SOL    HW2 3435   1.762   1.319   9.060
  917SOL     OW 3436   1.064   1.347   8.788
  917SOL    HW1 3437   0.984   1.324   8.843
  917SOL    HW2 3438   1.147   1.321   8.837
  918SOL     OW 3439   1.592   1.629   9.073
  918SOL    HW1 3440   1.619   1.663   8.983
  918SOL    HW2 3441   1.671   1.591   9.119
  919SOL     OW 3442   1.111   1.195   8.548
  919SOL    HW1 3443   1.071   1.239   8.629
  919SOL    HW2 3444   1.070   1.232   8.465
  920SOL     OW 3445   1.638   1.099   8.527
  920SOL    HW1 3446   1.643   1.180   8.586
  920SOL    HW2 3447   1.552   1.101   8.476
  921SOL     OW 3448   0.915   0.089   8.850
  921SOL    HW1 3449   0.940   0.069   8.755
  921SOL    HW2 3450   0.987   0.145   8.892
  922SOL     OW 3451   0.980   1.116   9.167
  922SOL    HW1 3452   0.881   1.122   9.177
  922SOL    HW2 3453   1.003   1.036   9.111
  923SOL     OW 3454   0.705   1.050   7.816
  923SOL    HW1 3455   0.691   1.057   7.915
  923SOL    HW2 3456   0.789   0.999   7.798
  924SOL     OW 3457   0.410   0.813   8.699
  924SOL    HW1 3458   0.496   0.825   8.749
  924SOL    HW2 3459   0.368   0.726   8.726
  925SOL     OW 3460   1.274   0.386   8.710
  925SOL    HW1 3461   1.295   0.460   8.774
  925SOL    HW2 3462   1.185   0.403   8.667
  926SOL     OW 3463   0.064   1.564   8.779
  926SOL    HW1 3464   0.018   1.646   8.745
  926SOL    HW2 3465   0.162   1.583   8.788
  927SOL     OW 3466   0.367   1.100   7.949
  927SOL    HW1 3467   0.360   1.183   7.893
  927SOL    HW2 3468   0.371   1.020   7.889
  928SOL     OW 3469   0.566   0.537   8.313
  928SOL    HW1 3470   0.578   0.603   8.239
  928SOL    HW2 3471   0.612   0.571   8.396
  929SOL     OW 3472   1.252   1.348   7.836
  929SOL    HW1 3473   1.302   1.425   7.876
  929SOL    HW2 3474   1.157   1.350   7.868
  930SOL     OW 3475   1.272   1.445   8.590
  930SOL    HW1 3476   1.319   1.458   8.677
  930SOL    HW2 3477   1.206   1.371   8.599
  931SOL     OW 3478   1.582   0.639   7.920
  931SOL    HW1 3479   1.551   0.700   7.993
  931SOL    HW2 3480   1.632   0.691   7.851
  932SOL     OW 3481   0.354   1.510   8.777
  932SOL    HW1 3482   0.333   1.466   8.690
  932SOL    HW2 3483   0.451   1.536   8.780
  933SOL     OW 3484   0.402   0.751   9.046
  933SOL    HW1 3485   0.470   0.806   8.999
  933SOL    HW2 3486   0.442   0.663   9.073
  934SOL     OW 3487   1.587   0.779   9.118
  934SOL    HW1 3488   1.495   0.817   9.113
  934SOL    HW2 3489   1.647   0.826   9.053
  935SOL     OW 3490   1.013   0.105   9.218
  935SOL    HW1 3491   1.019   0.190   9.166
  935SOL    HW2 3492   1.045   0.029   9.161
  936SOL     OW 3493   0.504   0.050   9.188
  936SOL    HW1 3494   0.462  -0.007   9.118
  936SOL    HW2 3495   0.438   0.119   9.220
  937SOL     OW 3496   0.573   0.870   8.477
  937SOL    HW1 3497   0.617   0.959   8.468
  937SOL    HW2 3498   0.510   0.870   8.554
  938SOL     OW 3499   1.360   0.862   8.493
  938SOL    HW1 3500   1.285   0.862   8.427
  938SOL    HW2 3501   1.397   0.770   8.502
  939SOL     OW 3502   1.209   0.525   7.723
  939SOL    HW1 3503   1.222   0.441   7.777
  939SOL    HW2 3504   1.180   0.599   7.783
  940SOL     OW 3505   0.307   0.213   8.679
  940SOL    HW1 3506   0.284   0.250   8.769
  940SOL    HW2 3507   0.277   0.118   8.673
  941SOL     OW 3508   0.037   1.310   8.730
  941SOL    HW1 3509   0.090   1.261   8.798
  941SOL    HW2 3510   0.059   1.408   8.735
  942SOL     OW 3511   0.732   0.634   8.512
  942SOL    HW1 3512   0.791   0.608   8.436
  942SOL    HW2 3513   0.704   0.730   8.501
  943SOL     OW 3514   1.728   0.935   9.302
  943SOL    HW1 3515   1.682   0.928   9.213
  943SOL    HW2 3516   1.666   0.979   9.368
  944SOL     OW 3517   0.307   0.063   8.066
  944SOL    HW1 3518   0.296   0.157   8.099
  944SOL    HW2 3519   0.302   0.000   8.143
  945SOL     OW 3520   1.622   0.367   7.822
  945SOL    HW1 3521   1.624   0.291   7.886
  945SOL    HW2 3522   1.574   0.444   7.862
  946SOL     OW 3523   1.023   0.766   8.414
  946SOL    HW1 3524   1.038   0.787   8.510
  946SOL    HW2 3525   0.993   0.671   8.405
  947SOL     OW 3526   0.980   1.573   9.148
  947SOL    HW1 3527   0.960   1.617   9.060
  947SOL    HW2 3528   1.019   1.482   9.132
  948SOL     OW 3529   1.859   1.518   9.053
  948SOL    HW1 3530   1.873   1.545   8.958
  948SOL    HW2 3531   1.942   1.540   9.106
  949SOL     OW 3532   0.350   0.898   9.252
  949SOL    HW1 3533   0.426   0.942   9.300
  949SOL    HW2 3534   0.385   0.851   9.170
  950SOL     OW 3535   1.540   0.274   7.573
  950SOL    HW1 3536   1.479   0.199   7.596
  950SOL    HW2 3537   1.562   0.326   7.656
  951SOL     OW 3538   1.303   0.838   7.490
  951SOL    HW1 3539   1.337   0.745   7.505
  951SOL    HW2 3540   1.321   0.865   7.395
  952SOL     OW 3541   1.068   1.333   8.297
  952SOL    HW1 3542   1.075   1.249   8.242
  952SOL    HW2 3543   1.130   1.402   8.261
  953SOL     OW 3544   0.319   0.810   8.397
  953SOL    HW1 3545   0.412   0.846   8.402
  953SOL    HW2 3546   0.313   0.725   8.449
  954SOL     OW 3547   0.339   0.509   8.454
  954SOL    HW1 3548   0.287   0.426   8.437
  954SOL    HW2 3549   0.416   0.514   8.390
  955SOL     OW 3550   1.138   0.380   9.126
  955SOL    HW1 3551   1.093   0.443   9.190
  955SOL    HW2 3552   1.231   0.411   9.109
  956SOL     OW 3553   1.160   0.207   8.925
  956SOL    HW1 3554   1.160   0.271   9.002
  956SOL    HW2 3555   1.188   0.255   8.842
  957SOL     OW 3556   0.008   1.326   7.648
  957SOL    HW1 3557  -0.085   1.347   7.617
  957SOL    HW2 3558   0.018   1.227   7.661
  958SOL     OW 3559   0.088   1.801   8.375
  958SOL    HW1 3560   0.046   1.715   8.348
  958SOL    HW2 3561   0.182   1.804   8.341
  959SOL     OW 3562   0.504   1.568   8.358
  959SOL    HW1 3563   0.570   1.642   8.367
  959SOL    HW2 3564   0.548   1.489   8.316
  960SOL     OW 3565   1.002   0.796   8.686
  960SOL    HW1 3566   1.043   0.764   8.772
  960SOL    HW2 3567   0.906   0.769   8.683
  961SOL     OW 3568   0.040   0.544   8.562
  961SOL    HW1 3569   0.125   0.511   8.521
  961SOL    HW2 3570   0.053   0.559   8.660
  962SOL     OW 3571   0.189   0.520   9.170
  962SOL    HW1 3572   0.248   0.480   9.100
  962SOL    HW2 3573   0.131   0.591   9.129
  963SOL     OW 3574   1.369   0.950   9.108
  963SOL    HW1 3575   1.408   1.039   9.128
  963SOL    HW2 3576   1.379   0.930   9.011
  964SOL     OW 3577   0.815   0.572   7.773
  964SOL    HW1 3578   0.822   0.483   7.727
  964SOL    HW2 3579   0.721   0.606   7.765
  965SOL     OW 3580   1.657   0.604   8.654
  965SOL    HW1 3581   1.619   0.535   8.716
  965SOL    HW2 3582   1.739   0.568   8.610
  966SOL     OW 3583   0.252   1.564   9.192
  966SOL    HW1 3584   0.222   1.621   9.268
  966SOL    HW2 3585   0.245   1.467   9.218
  967SOL     OW 3586   0.671   0.464   8.717
  967SOL    HW1 3587   0.637   0.375   8.687
  967SOL    HW2 3588   0.697   0.518   8.637
  968SOL     OW 3589   0.930   1.678   8.913
  968SOL    HW1 3590   0.906   1.660   8.818
  968SOL    HW2 3591   0.960   1.772   8.923
  969SOL     OW 3592   0.473   0.500   7.639
  969SOL    HW1 3593   0.534   0.580   7.643
  969SOL    HW2 3594   0.378   0.531   7.646
  970SOL     OW 3595   0.159   1.137   8.914
  970SOL    HW1 3596   0.181   1.076   8.990
  970SOL    HW2 3597   0.169   1.088   8.828
  971SOL     OW 3598   1.347   1.059   8.682
  971SOL    HW1 3599   1.371   0.996   8.608
  971SOL    HW2 3600   1.257   1.099   8.664
  972SOL     OW 3601   1.302   0.855   7.757
  972SOL    HW1 3602   1.216   0.824   7.799
  972SOL    HW2 3603   1.298   0.841   7.658
  973SOL     OW 3604   1.759   1.747   8.602
  973SOL    HW1 3605   1.820   1.777   8.529
  973SOL    HW2 3606   1.721   1.658   8.580
  974SOL     OW 3607   1.252   1.731   8.576
  974SOL    HW1 3608   1.336   1.736   8.522
  974SOL    HW2 3609   1.229   1.635   8.594
  975SOL     OW 3610   0.083   1.258   8.470
  975SOL    HW1 3611   0.078   1.257   8.570
  975SOL    HW2 3612   0.000   1.217   8.432
  976SOL     OW 3613   0.688   1.662   9.164
  976SOL    HW1 3614   0.632   1.743   9.173
  976SOL    HW2 3615   0.740   1.666   9.078
  977SOL     OW 3616   1.726   0.135   7.971
  977SOL    HW1 3617   1.799   0.118   7.904
  977SOL    HW2 3618   1.695   0.048   8.009
  978SOL     OW 3619   1.388   1.573   7.925
  978SOL    HW1 3620   1.455   1.585   7.851
  978SOL    HW2 3621   1.348   1.662   7.948
  979SOL     OW 3622   0.130   1.794   9.299
  979SOL    HW1 3623   0.089   1.720   9.352
  979SOL    HW2 3624   0.194   1.845   9.357
  980SOL     OW 3625   1.280   0.927   8.120
  980SOL    HW1 3626   1.340   0.846   8.122
  980SOL    HW2 3627   1.320   0.996   8.060
  981SOL     OW 3628   0.830   1.273   8.870
  981SOL    HW1 3629   0.825   1.306   8.965
  981SOL    HW2 3630   0.744   1.292   8.824
  982SOL     OW 3631   0.672   1.616   7.602
  982SOL    HW1 3632   0.681   1.626   7.503
  982SOL    HW2 3633   0.632   1.527   7.623
  983SOL     OW 3634   1.650   1.720   8.842
  983SOL    HW1 3635   1.703   1.730   8.758
  983SOL    HW2 3636   1.623   1.810   8.876
  984SOL     OW 3637   1.841   0.175   8.411
  984SOL    HW1 3638   1.880   0.090   8.375
  984SOL    HW2 3639   1.743   0.177   8.392
  985SOL     OW 3640   0.263   0.326   8.168
  985SOL    HW1 3641   0.184   0.377   8.134
  985SOL    HW2 3642   0.254   0.311   8.266
  986SOL     OW 3643   0.822   1.002   8.820
  986SOL    HW1 3644   0.862   1.001   8.728
  986SOL    HW2 3645   0.832   1.094   8.860
  987SOL     OW 3646   0.916   0.910   7.739
  987SOL    HW1 3647   0.979   0.948   7.671
  987SOL    HW2 3648   0.956   0.827   7.778
  988SOL     OW 3649   0.372   1.288   8.938
  988SOL    HW1 3650   0.359   1.381   8.904
  988SOL    HW2 3651   0.288   1.236   8.925
  989SOL     OW 3652   1.614   1.292   8.737
  989SOL    HW1 3653   1.674   1.295   8.817
  989SOL    HW2 3654   1.539   1.356   8.750
  990SOL     OW 3655   1.039   1.098   8.144
  990SOL    HW1 3656   0.969   1.051   8.198
  990SOL    HW2 3657   1.098   1.030   8.101
  991SOL     OW 3658   1.014   0.236   8.419
  991SOL    HW1 3659   1.006   0.200   8.326
  991SOL    HW2 3660   1.012   0.160   8.484
  992SOL     OW 3661   0.590   1.487   7.939
  992SOL    HW1 3662   0.632   1.429   7.869
  992SOL    HW2 3663   0.546   1.566   7.895
  993SOL     OW 3664   1.709   0.385   8.829
  993SOL    HW1 3665   1.782   0.454   8.833
  993SOL    HW2 3666   1.737   0.310   8.770
  994SOL     OW 3667   0.255   1.348   7.738
  994SOL    HW1 3668   0.159   1.349   7.711
  994SOL    HW2 3669   0.267   1.401   7.822
  995SOL     OW 3670   0.105   1.013   9.174
  995SOL    HW1 3671   0.028   0.980   9.228
  995SOL    HW2 3672   0.190   0.983   9.216
  996SOL     OW 3673   0.672   0.203   8.937
  996SOL    HW1 3674   0.762   0.187   8.897
  996SOL    HW2 3675   0.680   0.208   9.036
  997SOL     OW 3676   0.075   0.345   7.481
  997SOL    HW1 3677  -0.017   0.317   7.452
  997SOL    HW2 3678   0.106   0.422   7.425
  998SOL     OW 3679   1.440   0.856   8.846
  998SOL    HW1 3680   1.383   0.908   8.783
  998SOL    HW2 3681   1.536   0.868   8.822
  999SOL     OW 3682   0.072   0.166   7.766
  999SOL    HW1 3683   0.055   0.249   7.712
  999SOL    HW2 3684   0.162   0.129   7.744
 1000SOL     OW 3685   0.613   0.842   8.879
 1000SOL    HW1 3686   0.669   0.923   8.862
 1000SOL    HW2 3687   0.672   0.762   8.882
 1001SOL     OW 3688   1.493   1.767   8.407
 1001SOL    HW1 3689   1.526   1.831   8.338
 1001SOL    HW2 3690   1.559   1.761   8.482
 1002SOL     OW 3691   0.716   0.565   9.156
 1002SOL    HW1 3692   0.735   0.630   9.230
 1002SOL    HW2 3693   0.776   0.485   9.165
 1003SOL     OW 3694   1.450   1.220   9.081
 1003SOL    HW1 3695   1.441   1.210   9.180
 1003SOL    HW2 3696   1.546   1.213   9.055
 1004SOL     OW 3697   0.390   1.741   9.008
 1004SOL    HW1 3698   0.299   1.782   9.006
 1004SOL    HW2 3699   0.383   1.647   9.040
 1005SOL     OW 3700   1.674   0.883   8.702
 1005SOL    HW1 3701   1.647   0.794   8.665
 1005SOL    HW2 3702   1.675   0.951   8.629
 1006SOL     OW 3703   1.225   0.325   7.897
 1006SOL    HW1 3704   1.290   0.251   7.886
 1006SOL    HW2 3705   1.245   0.375   7.981
 1007SOL     OW 3706   0.594   0.745   8.100
 1007SOL    HW1 3707   0.644   0.830   8.081
 1007SOL    HW2 3708   0.506   0.747   8.052
 1008SOL     OW 3709   1.777   0.342   9.090
 1008SOL    HW1 3710   1.760   0.373   8.996
 1008SOL    HW2 3711   1.693   0.305   9.128
 1009SOL     OW 3712   1.730   0.934   8.965
 1009SOL    HW1 3713   1.768   1.025   8.980
 1009SOL    HW2 3714   1.722   0.917   8.866
 1010SOL     OW 3715   0.859   1.374   7.464
 1010SOL    HW1 3716   0.813   1.389   7.552
 1010SOL    HW2 3717   0.903   1.459   7.434
 1011SOL     OW 3718   0.661   1.790   8.401
 1011SOL    HW1 3719   0.615   1.878   8.388
 1011SOL    HW2 3720   0.760   1.802   8.394
 1012SOL     OW 3721   0.859   0.956   8.309
 1012SOL    HW1 3722   0.913   0.887   8.357
 1012SOL    HW2 3723   0.827   1.025   8.375
 1013SOL     OW 3724   1.083   0.984   7.535
 1013SOL    HW1 3725   1.060   1.037   7.453
 1013SOL    HW2 3726   1.164   0.928   7.516
 1014SOL     OW 3727   1.861   1.569   8.299
 1014SOL    HW1 3728   1.790   1.557   8.229
 1014SOL    HW2 3729   1.862   1.490   8.359
 1015SOL     OW 3730   0.221   1.314   9.292
 1015SOL    HW1 3731   0.156   1.241   9.271
 1015SOL    HW2 3732   0.225   1.328   9.390
 1016SOL     OW 3733   0.079   1.240   8.101
 1016SOL    HW1 3734   0.078   1.193   8.189
 1016SOL    HW2 3735   0.161   1.212   8.050
 1017SOL     OW 3736   0.672   1.391   9.072
 1017SOL    HW1 3737   0.594   1.341   9.110
 1017SOL    HW2 3738   0.669   1.486   9.103
 1018SOL     OW 3739   1.824   0.192   8.675
 1018SOL    HW1 3740   1.820   0.102   8.719
 1018SOL    HW2 3741   1.827   0.181   8.576
 1019SOL     OW 3742   0.428   0.424   7.968
 1019SOL    HW1 3743   0.458   0.352   7.906
 1019SOL    HW2 3744   0.389   0.384   8.051
 1020SOL     OW 3745   1.705   1.487   8.552
 1020SOL    HW1 3746   1.612   1.462   8.525
 1020SOL    HW2 3747   1.731   1.437   8.634
 1021SOL     OW 3748   0.317   0.547   8.728
 1021SOL    HW1 3749   0.355   0.488   8.800
 1021SOL    HW2 3750   0.357   0.521   8.640
 1022SOL     OW 3751   0.812   1.586   8.135
 1022SOL    HW1 3752   0.844   1.596   8.041
 1022SOL    HW2 3753   0.733   1.524   8.137
 1023SOL     OW 3754   1.424   0.214   8.560
 1023SOL    HW1 3755   1.476   0.149   8.615
 1023SOL    HW2 3756   1.375   0.277   8.621
 1024SOL     OW 3757   1.001   0.034   8.602
 1024SOL    HW1 3758   0.938  -0.038   8.571
 1024SOL    HW2 3759   1.094  -0.002   8.602
 1025SOL     OW 3760   0.770   1.330   7.749
 1025SOL    HW1 3761   0.724   1.243   7.766
 1025SOL    HW2 3762   0.861   1.327   7.790
 1026SOL     OW 3763   0.618   1.567   8.732
 1026SOL    HW1 3764   0.613   1.649   8.789
 1026SOL    HW2 3765   0.707   1.564   8.687
 1027SOL     OW 3766   1.352   0.052   7.616
 1027SOL    HW1 3767   1.387   0.011   7.532
 1027SOL    HW2 3768   1.262   0.014   7.636
 1028SOL     OW 3769   1.300   0.453   8.139
 1028SOL    HW1 3770   1.241   0.533   8.143
 1028SOL    HW2 3771   1.315   0.418   8.232
 1029SOL     OW 3772   1.593   0.221   8.330
 1029SOL    HW1 3773   1.509   0.220   8.384
 1029SOL    HW2 3774   1.595   0.304   8.274
 1030SOL     OW 3775   0.039   1.077   7.748
 1030SOL    HW1 3776   0.138   1.066   7.739
 1030SOL    HW2 3777  -0.001   0.991   7.780
 1031SOL     OW 3778   0.875   1.646   7.785
 1031SOL    HW1 3779   0.798   1.611   7.731
 1031SOL    HW2 3780   0.843   1.717   7.847
 1032SOL     OW 3781   0.230   0.628   9.423
 1032SOL    HW1 3782   0.137   0.626   9.460
 1032SOL    HW2 3783   0.231   0.589   9.331
 1033SOL     OW 3784   0.225   0.275  10.306
 1033SOL    HW1 3785   0.260   0.258  10.398
 1033SOL    HW2 3786   0.137   0.230  10.294
 1034SOL     OW 3787   0.019   0.368   9.957
 1034SOL    HW1 3788  -0.063   0.411   9.996
 1034SOL    HW2 3789  -0.009   0.295   9.894
 1035SOL     OW 3790   0.569   1.275  10.475
 1035SOL    HW1 3791   0.476   1.268  10.438
 1035SOL    HW2 3792   0.580   1.364  10.519
 1036SOL     OW 3793   1.555   1.511  10.013
 1036SOL    HW1 3794   1.498   1.495  10.094
 1036SOL    HW2 3795   1.496   1.521   9.933
 1037SOL     OW 3796   1.135   0.703  10.027
 1037SOL    HW1 3797   1.192   0.781  10.002
 1037SOL    HW2 3798   1.075   0.729  10.103
 1038SOL     OW 3799   1.755   0.607   9.541
 1038SOL    HW1 3800   1.743   0.594   9.442
 1038SOL    HW2 3801   1.725   0.526   9.590
 1039SOL     OW 3802   0.768   1.144  10.333
 1039SOL    HW1 3803   0.690   1.161  10.393
 1039SOL    HW2 3804   0.802   1.231  10.297
 1040SOL     OW 3805   0.850   0.798  11.133
 1040SOL    HW1 3806   0.846   0.874  11.198
 1040SOL    HW2 3807   0.872   0.834  11.042
 1041SOL     OW 3808   0.685   1.012   9.975
 1041SOL    HW1 3809   0.754   0.996  10.045
 1041SOL    HW2 3810   0.612   1.069  10.013
 1042SOL     OW 3811   0.686   1.161  11.113
 1042SOL    HW1 3812   0.746   1.240  11.127
 1042SOL    HW2 3813   0.600   1.192  11.072
 1043SOL     OW 3814   0.335   1.435  10.371
 1043SOL    HW1 3815   0.257   1.404  10.318
 1043SOL    HW2 3816   0.393   1.493  10.314
 1044SOL     OW 3817   1.460   1.505  10.649
 1044SOL    HW1 3818   1.484   1.599  10.675
 1044SOL    HW2 3819   1.444   1.451  10.731
 1045SOL     OW 3820   0.438   0.392  10.809
 1045SOL    HW1 3821   0.520   0.336  10.818
 1045SOL    HW2 3822   0.357   0.334  10.813
 1046SOL     OW 3823   1.603   0.447  10.047
 1046SOL    HW1 3824   1.529   0.493   9.997
 1046SOL    HW2 3825   1.654   0.515  10.100
 1047SOL     OW 3826   0.231   1.713   9.793
 1047SOL    HW1 3827   0.265   1.790   9.847
 1047SOL    HW2 3828   0.275   1.713   9.703
 1048SOL     OW 3829   1.127   1.341  11.000
 1048SOL    HW1 3830   1.174   1.341  11.088
 1048SOL    HW2 3831   1.079   1.254  10.989
 1049SOL     OW 3832   0.230   1.434   9.848
 1049SOL    HW1 3833   0.204   1.530   9.848
 1049SOL    HW2 3834   0.159   1.380   9.893
 1050SOL     OW 3835   0.240   1.091  10.196
 1050SOL    HW1 3836   0.254   1.007  10.248
 1050SOL    HW2 3837   0.185   1.155  10.251
 1051SOL     OW 3838   0.620   1.786  10.749
 1051SOL    HW1 3839   0.528   1.769  10.784
 1051SOL    HW2 3840   0.648   1.878  10.775
 1052SOL     OW 3841   0.606   0.964   9.433
 1052SOL    HW1 3842   0.613   1.048   9.379
 1052SOL    HW2 3843   0.652   0.977   9.521
 1053SOL     OW 3844   1.594   0.114  10.790
 1053SOL    HW1 3845   1.576   0.181  10.718
 1053SOL    HW2 3846   1.591   0.160  10.879
 1054SOL     OW 3847   0.122   0.643   9.873
 1054SOL    HW1 3848   0.077   0.555   9.890
 1054SOL    HW2 3849   0.121   0.697   9.957
 1055SOL     OW 3850   0.027   1.596   9.427
 1055SOL    HW1 3851   0.008   1.500   9.448
 1055SOL    HW2 3852  -0.006   1.654   9.502
 1056SOL     OW 3853   1.689   0.922   9.922
 1056SOL    HW1 3854   1.784   0.893   9.930
 1056SOL    HW2 3855   1.681   0.987   9.847
 1057SOL     OW 3856   1.641   1.108   9.742
 1057SOL    HW1 3857   1.727   1.110   9.690
 1057SOL    HW2 3858   1.655   1.155   9.830
 1058SOL     OW 3859   0.113   0.737  10.907
 1058SOL    HW1 3860   0.201   0.724  10.952
 1058SOL    HW2 3861   0.100   0.834  10.885
 1059SOL     OW 3862   0.613   1.365  10.036
 1059SOL    HW1 3863   0.564   1.278  10.045
 1059SOL    HW2 3864   0.590   1.408   9.949
 1060SOL     OW 3865   1.293   1.228  10.733
 1060SOL    HW1 3866   1.330   1.155  10.675
 1060SOL    HW2 3867   1.345   1.233  10.818
 1061SOL     OW 3868   0.809   0.004   9.812
 1061SOL    HW1 3869   0.849   0.095   9.803
 1061SOL    HW2 3870   0.709   0.012   9.818
 1062SOL     OW 3871   0.197   0.976  10.574
 1062SOL    HW1 3872   0.286   0.931  10.560
 1062SOL    HW2 3873   0.124   0.911  10.555
 1063SOL     OW 3874   1.525   0.999   9.500
 1063SOL    HW1 3875   1.462   0.923   9.513
 1063SOL    HW2 3876   1.573   1.017   9.586
 1064SOL     OW 3877   1.187   1.792  10.926
 1064SOL    HW1 3878   1.211   1.852  10.850
 1064SOL    HW2 3879   1.194   1.697  10.896
 1065SOL     OW 3880   0.317   0.251  11.111
 1065SOL    HW1 3881   0.388   0.322  11.117
 1065SOL    HW2 3882   0.229   0.290  11.139
 1066SOL     OW 3883   1.466   1.417  10.263
 1066SOL    HW1 3884   1.407   1.423  10.343
 1066SOL    HW2 3885   1.451   1.329  10.217
 1067SOL     OW 3886   1.667   1.714   9.882
 1067SOL    HW1 3887   1.626   1.691   9.794
 1067SOL    HW2 3888   1.649   1.640   9.947
 1068SOL     OW 3889   0.598   0.729   9.580
 1068SOL    HW1 3890   0.622   0.798   9.512
 1068SOL    HW2 3891   0.520   0.762   9.634
 1069SOL     OW 3892   1.281   0.345  10.254
 1069SOL    HW1 3893   1.195   0.295  10.241
 1069SOL    HW2 3894   1.343   0.291  10.310
 1070SOL     OW 3895   1.576   1.662   9.617
 1070SOL    HW1 3896   1.665   1.708   9.620
 1070SOL    HW2 3897   1.555   1.638   9.522
 1071SOL     OW 3898   0.807   0.605  10.775
 1071SOL    HW1 3899   0.760   0.602  10.864
 1071SOL    HW2 3900   0.756   0.550  10.709
 1072SOL     OW 3901   1.394   0.469  10.984
 1072SOL    HW1 3902   1.374   0.512  11.072
 1072SOL    HW2 3903   1.472   0.407  10.993
 1073SOL     OW 3904   0.973   0.890  10.882
 1073SOL    HW1 3905   1.019   0.806  10.853
 1073SOL    HW2 3906   0.917   0.924  10.807
 1074SOL     OW 3907   0.991   0.410  10.552
 1074SOL    HW1 3908   0.914   0.444  10.606
 1074SOL    HW2 3909   0.957   0.359  10.473
 1075SOL     OW 3910   1.041   0.701   9.739
 1075SOL    HW1 3911   1.067   0.697   9.835
 1075SOL    HW2 3912   0.956   0.650   9.725
 1076SOL     OW 3913   0.076   0.811  10.099
 1076SOL    HW1 3914   0.175   0.799  10.108
 1076SOL    HW2 3915   0.052   0.906  10.120
 1077SOL     OW 3916   0.130   1.821  10.881
 1077SOL    HW1 3917   0.120   1.806  10.980
 1077SOL    HW2 3918   0.044   1.857  10.845
 1078SOL     OW 3919   0.865   0.348   9.505
 1078SOL    HW1 3920   0.924   0.411   9.456
 1078SOL    HW2 3921   0.884   0.254   9.476
 1079SOL     OW 3922   1.719   0.585  11.141
 1079SOL    HW1 3923   1.693   0.674  11.105
 1079SOL    HW2 3924   1.717   0.517  11.068
 1080SOL     OW 3925   1.362   1.144   9.855
 1080SOL    HW1 3926   1.445   1.115   9.807
 1080SOL    HW2 3927   1.313   1.211   9.799
 1081SOL     OW 3928   0.550   0.196  10.195
 1081SOL    HW1 3929   0.545   0.191  10.295
 1081SOL    HW2 3930   0.552   0.292  10.166
 1082SOL     OW 3931   1.008   1.456   9.787
 1082SOL    HW1 3932   0.962   1.528   9.735
 1082SOL    HW2 3933   1.004   1.476   9.885
 1083SOL     OW 3934   0.351   1.801  10.163
 1083SOL    HW1 3935   0.401   1.715  10.169
 1083SOL    HW2 3936   0.416   1.878  10.160
 1084SOL     OW 3937   1.795   1.066  10.183
 1084SOL    HW1 3938   1.733   1.051  10.107
 1084SOL    HW2 3939   1.743   1.077  10.268
 1085SOL     OW 3940   1.227   1.550  10.816
 1085SOL    HW1 3941   1.233   1.473  10.880
 1085SOL    HW2 3942   1.175   1.524  10.736
 1086SOL     OW 3943   0.321   0.943   9.552
 1086SOL    HW1 3944   0.403   0.982   9.510
 1086SOL    HW2 3945   0.294   0.861   9.503
 1087SOL     OW 3946   1.458   0.735  10.038
 1087SOL    HW1 3947   1.453   0.670  10.113
 1087SOL    HW2 3948   1.538   0.794  10.051
 1088SOL     OW 3949   0.461   1.266  11.037
 1088SOL    HW1 3950   0.411   1.267  10.951
 1088SOL    HW2 3951   0.398   1.248  11.113
 1089SOL     OW 3952   1.111   1.776   9.547
 1089SOL    HW1 3953   1.051   1.714   9.597
 1089SOL    HW2 3954   1.142   1.732   9.462
 1090SOL     OW 3955   0.202   0.285  10.808
 1090SOL    HW1 3956   0.122   0.345  10.795
 1090SOL    HW2 3957   0.192   0.236  10.894
 1091SOL     OW 3958   1.632   1.377   9.391
 1091SOL    HW1 3959   1.600   1.471   9.381
 1091SOL    HW2 3960   1.556   1.314   9.379
 1092SOL     OW 3961   0.464   1.743   9.633
 1092SOL    HW1 3962   0.497   1.782   9.719
 1092SOL    HW2 3963   0.540   1.736   9.568
 1093SOL     OW 3964   1.400   0.107   9.736
 1093SOL    HW1 3965   1.376   0.070   9.646
 1093SOL    HW2 3966   1.499   0.123   9.740
 1094SOL     OW 3967   0.249   1.785  10.551
 1094SOL    HW1 3968   0.306   1.720  10.601
 1094SOL    HW2 3969   0.233   1.752  10.458
 1095SOL     OW 3970   0.940   1.698  10.214
 1095SOL    HW1 3971   1.020   1.641  10.235
 1095SOL    HW2 3972   0.891   1.658  10.137
 1096SOL     OW 3973   0.382   0.700   9.790
 1096SOL    HW1 3974   0.427   0.610   9.787
 1096SOL    HW2 3975   0.288   0.689   9.823
 1097SOL     OW 3976   1.547   0.222  11.039
 1097SOL    HW1 3977   1.542   0.259  11.131
 1097SOL    HW2 3978   1.475   0.153  11.027
 1098SOL     OW 3979   0.614   0.122   9.427
 1098SOL    HW1 3980   0.712   0.100   9.434
 1098SOL    HW2 3981   0.583   0.105   9.334
 1099SOL     OW 3982   0.781   0.264  11.059
 1099SOL    HW1 3983   0.848   0.203  11.102
 1099SOL    HW2 3984   0.708   0.283  11.124
 1100SOL     OW 3985   0.888   1.514  10.505
 1100SOL    HW1 3986   0.865   1.489  10.411
 1100SOL    HW2 3987   0.949   1.445  10.544
 1101SOL     OW 3988   1.351   0.590  10.743
 1101SOL    HW1 3989   1.379   0.547  10.828
 1101SOL    HW2 3990   1.376   0.686  10.744
 1102SOL     OW 3991   0.803   1.402  10.234
 1102SOL    HW1 3992   0.893   1.416  10.192
 1102SOL    HW2 3993   0.732   1.404  10.163
 1103SOL     OW 3994   0.922   0.503  10.209
 1103SOL    HW1 3995   0.897   0.494  10.113
 1103SOL    HW2 3996   0.970   0.421  10.240
 1104SOL     OW 3997   0.539   0.064   9.822
 1104SOL    HW1 3998   0.458   0.065   9.880
 1104SOL    HW2 3999   0.542   0.147   9.767
 1105SOL     OW 4000   1.434   1.188   9.351
 1105SOL    HW1 4001   1.466   1.112   9.408
 1105SOL    HW2 4002   1.342   1.215   9.381
 1106SOL     OW 4003   0.297   0.035   9.481
 1106SOL    HW1 4004   0.346   0.119   9.460
 1106SOL    HW2 4005   0.359  -0.030   9.526
 1107SOL     OW 4006   0.935   0.236   9.790
 1107SOL    HW1 4007   0.887   0.277   9.712
 1107SOL    HW2 4008   1.034   0.234   9.771
 1108SOL     OW 4009   1.076   0.683  10.774
 1108SOL    HW1 4010   0.996   0.622  10.777
 1108SOL    HW2 4011   1.157   0.630  10.750
 1109SOL     OW 4012   1.227   1.570  10.103
 1109SOL    HW1 4013   1.248   1.644  10.038
 1109SOL    HW2 4014   1.295   1.570  10.176
 1110SOL     OW 4015   0.459   1.152  10.051
 1110SOL    HW1 4016   0.388   1.125  10.116
 1110SOL    HW2 4017   0.433   1.124   9.958
 1111SOL     OW 4018   1.271   1.797   9.901
 1111SOL    HW1 4019   1.315   1.861   9.837
 1111SOL    HW2 4020   1.221   1.849   9.971
 1112SOL     OW 4021   1.032   0.549   9.326
 1112SOL    HW1 4022   0.991   0.631   9.287
 1112SOL    HW2 4023   1.096   0.575   9.399
 1113SOL     OW 4024   0.078   0.556  10.696
 1113SOL    HW1 4025   0.170   0.555  10.655
 1113SOL    HW2 4026   0.072   0.630  10.763
 1114SOL     OW 4027   0.561   0.222  10.457
 1114SOL    HW1 4028   0.599   0.138  10.494
 1114SOL    HW2 4029   0.473   0.241  10.501
 1115SOL     OW 4030   0.866   0.454   9.952
 1115SOL    HW1 4031   0.834   0.526   9.890
 1115SOL    HW2 4032   0.890   0.373   9.899
 1116SOL     OW 4033   1.017   0.039  10.063
 1116SOL    HW1 4034   0.945   0.044   9.994
 1116SOL    HW2 4035   0.993  -0.030  10.132
 1117SOL     OW 4036   1.429   1.173  10.177
 1117SOL    HW1 4037   1.374   1.089  10.170
 1117SOL    HW2 4038   1.455   1.202  10.085
 1118SOL     OW 4039   1.466   0.590  10.302
 1118SOL    HW1 4040   1.436   0.495  10.309
 1118SOL    HW2 4041   1.539   0.606  10.368
 1119SOL     OW 4042   1.857   0.833   9.687
 1119SOL    HW1 4043   1.899   0.769   9.751
 1119SOL    HW2 4044   1.819   0.782   9.609
 1120SOL     OW 4045   0.488   1.385   9.484
 1120SOL    HW1 4046   0.401   1.370   9.531
 1120SOL    HW2 4047   0.471   1.411   9.389
 1121SOL     OW 4048   1.664   1.280   9.967
 1121SOL    HW1 4049   1.763   1.288   9.981
 1121SOL    HW2 4050   1.619   1.364   9.998
 1122SOL     OW 4051   1.390   0.575   9.388
 1122SOL    HW1 4052   1.336   0.554   9.469
 1122SOL    HW2 4053   1.481   0.534   9.397
 1123SOL     OW 4054   0.527   0.256   9.638
 1123SOL    HW1 4055   0.554   0.197   9.563
 1123SOL    HW2 4056   0.527   0.351   9.607
 1124SOL     OW 4057   1.754   1.223  10.898
 1124SOL    HW1 4058   1.845   1.184  10.885
 1124SOL    HW2 4059   1.762   1.319  10.922
 1125SOL     OW 4060   1.064   1.347  10.650
 1125SOL    HW1 4061   0.984   1.324  10.705
 1125SOL    HW2 4062   1.147   1.321  10.699
 1126SOL     OW 4063   1.592   1.629  10.935
 1126SOL    HW1 4064   1.619   1.663  10.845
 1126SOL    HW2 4065   1.671   1.591  10.981
 1127SOL     OW 4066   1.111   1.195  10.410
 1127SOL    HW1 4067   1.071   1.239  10.491
 1127SOL    HW2 4068   1.070   1.232  10.327
 1128SOL     OW 4069   1.638   1.099  10.389
 1128SOL    HW1 4070   1.643   1.180  10.448
 1128SOL    HW2 4071   1.552   1.101  10.338
 1129SOL     OW 4072   0.915   0.089  10.712
 1129SOL    HW1 4073   0.940   0.069  10.617
 1129SOL    HW2 4074   0.987   0.145  10.754
 1130SOL     OW 4075   0.980   1.116  11.029
 1130SOL    HW1 4076   0.881   1.122  11.039
 1130SOL    HW2 4077   1.003   1.036  10.973
 1131SOL     OW 4078   0.705   1.050   9.678
 1131SOL    HW1 4079   0.691   1.057   9.777
 1131SOL    HW2 4080   0.789   0.999   9.660
 1132SOL     OW 4081   0.410   0.813  10.561
 1132SOL    HW1 4082   0.496   0.825  10.611
 1132SOL    HW2 4083   0.368   0.726  10.588
 1133SOL     OW 4084   1.274   0.386  10.572
 1133SOL    HW1 4085   1.295   0.460  10.636
 1133SOL    HW2 4086   1.185   0.403  10.529
 1134SOL     OW 4087   0.064   1.564  10.641
 1134SOL    HW1 4088   0.018   1.646  10.607
 1134SOL    HW2 4089   0.162   1.583  10.650
 1135SOL     OW 4090   0.367   1.100   9.811
 1135SOL    HW1 4091   0.360   1.183   9.755
 1135SOL    HW2 4092   0.371   1.020   9.751
 1136SOL     OW 4093   0.566   0.537  10.175
 1136SOL    HW1 4094   0.578   0.603  10.101
 1136SOL    HW2 4095   0.612   0.571  10.258
 1137SOL     OW 4096   1.252   1.348   9.698
 1137SOL    HW1 4097   1.302   1.425   9.738
 1137SOL    HW2 4098   1.157   1.350   9.730
 1138SOL     OW 4099   1.272   1.445  10.452
 1138SOL    HW1 4100   1.319   1.458  10.539
 1138SOL    HW2 4101   1.206   1.371  10.461
 1139SOL     OW 4102   1.582   0.639   9.782
 1139SOL    HW1 4103   1.551   0.700   9.855
 1139SOL    HW2 4104   1.632   0.691   9.713
 1140SOL     OW 4105   0.354   1.510  10.639
 1140SOL    HW1 4106   0.333   1.466  10.552
 1140SOL    HW2 4107   0.451   1.536  10.642
 1141SOL     OW 4108   0.402   0.751  10.908
 1141SOL    HW1 4109   0.470   0.806  10.861
 1141SOL    HW2 4110   0.442   0.663  10.935
 1142SOL     OW 4111   1.587   0.779  10.980
 1142SOL    HW1 4112   1.495   0.817  10.975
 1142SOL    HW2 4113   1.647   0.826  10.915
 1143SOL     OW 4114   1.013   0.105  11.080
 1143SOL    HW1 4115   1.019   0.190  11.028
 1143SOL    HW2 4116   1.045   0.029  11.023
 1144SOL     OW 4117   0.504   0.050  11.050
 1144SOL    HW1 4118   0.462  -0.007  10.980
 1144SOL    HW2 4119   0.438   0.119  11.082
 1145SOL     OW 4120   0.573   0.870  10.339
 1145SOL    HW1 4121   0.617   0.959  10.330
 1145SOL    HW2 4122   0.510   0.870  10.416
 1146SOL     OW 4123   1.360   0.862  10.355
 1146SOL    HW1 4124   1.285   0.862  10.289
 1146SOL    HW2 4125   1.397   0.770  10.364
 1147SOL     OW 4126   1.209   0.525   9.585
 1147SOL    HW1 4127   1.222   0.441   9.639
 1147SOL    HW2 4128   1.180   0.599   9.645
 1148SOL     OW 4129   0.307   0.213  10.541
 1148SOL    HW1 4130   0.284   0.250  10.631
 1148SOL    HW2 4131   0.277   0.118  10.535
 1149SOL     OW 4132   0.037   1.310  10.592
 1149SOL    HW1 4133   0.090   1.261  10.660
 1149SOL    HW2 4134   0.059   1.408  10.597
 1150SOL     OW 4135   0.732   0.634  10.374
 1150SOL    HW1 4136   0.791   0.608  10.298
 1150SOL    HW2 4137   0.704   0.730  10.363
 1151SOL     OW 4138   1.728   0.935  11.164
 1151SOL    HW1 4139   1.682   0.928  11.075
 1151SOL    HW2 4140   1.666   0.979  11.230
 1152SOL     OW 4141   0.307   0.063   9.928
 1152SOL    HW1 4142   0.296   0.157   9.961
 1152SOL    HW2 4143   0.302   0.000  10.005
 1153SOL     OW 4144   1.622   0.367   9.684
 1153SOL    HW1 4145   1.624   0.291   9.748
 1153SOL    HW2 4146   1.574   0.444   9.724
 1154SOL     OW 4147   1.023   0.766  10.276
 1154SOL    HW1 4148   1.038   0.787  10.372
 1154SOL    HW2 4149   0.993   0.671  10.267
 1155SOL     OW 4150   0.980   1.573  11.010
 1155SOL    HW1 4151   0.960   1.617  10.922
 1155SOL    HW2 4152   1.019   1.482  10.994
 1156SOL     OW 4153   1.859   1.518  10.915
 1156SOL    HW1 4154   1.873   1.545  10.820
 1156SOL    HW2 4155   1.942   1.540  10.968
 1157SOL     OW 4156   0.350   0.898  11.114
 1157SOL    HW1 4157   0.426   0.942  11.162
 1157SOL    HW2 4158   0.385   0.851  11.032
 1158SOL     OW 4159   1.540   0.274   9.435
 1158SOL    HW1 4160   1.479   0.199   9.458
 1158SOL    HW2 4161   1.562   0.326   9.518
 1159SOL     OW 4162   1.303   0.838   9.352
 1159SOL    HW1 4163   1.337   0.745   9.367
 1159SOL    HW2 4164   1.321   0.865   9.257
 1160SOL     OW 4165   1.068   1.333  10.159
 1160SOL    HW1 4166   1.075   1.249  10.104
 1160SOL    HW2 4167   1.130   1.402  10.123
 1161SOL     OW 4168   0.319   0.810  10.259
 1161SOL    HW1 4169   0.412   0.846  10.264
 1161SOL    HW2 4170   0.313   0.725  10.311
 1162SOL     OW 4171   0.339   0.509  10.316
 1162SOL    HW1 4172   0.287   0.426  10.299
 1162SOL    HW2 4173   0.416   0.514  10.252
 1163SOL     OW 4174   1.138   0.380  10.988
 1163SOL    HW1 4175   1.093   0.443  11.052
 1163SOL    HW2 4176   1.231   0.411  10.971
 1164SOL     OW 4177   1.160   0.207  10.787
 1164SOL    HW1 4178   1.160   0.271  10.864
 1164SOL    HW2 4179   1.188   0.255  10.704
 1165SOL     OW 4180   0.008   1.326   9.510
 1165SOL    HW1 4181  -0.085   1.347   9.479
 1165SOL    HW2 4182   0.018   1.227   9.523
 1166SOL     OW 4183   0.088   1.801  10.237
 1166SOL    HW1 4184   0.046   1.715  10.210
 1166SOL    HW2 4185   0.182   1.804  10.203
 1167SOL     OW 4186   0.504   1.568  10.220
 1167SOL    HW1 4187   0.570   1.642  10.229
 1167SOL    HW2 4188   0.548   1.489  10.178
 1168SOL     OW 4189   1.002   0.796  10.548
 1168SOL    HW1 4190   1.043   0.764  10.634
 1168SOL    HW2 4191   0.906   0.769  10.545
 1169SOL     OW 4192   0.040   0.544  10.424
 1169SOL    HW1 4193   0.125   0.511  10.383
 1169SOL    HW2 4194   0.053   0.559  10.522
 1170SOL     OW 4195   0.189   0.520  11.032
 1170SOL    HW1 4196   0.248   0.480  10.962
 1170SOL    HW2 4197   0.131   0.591  10.991
 1171SOL     OW 4198   1.369   0.950  10.970
 1171SOL    HW1 4199   1.408   1.039  10.990
 1171SOL    HW2 4200   1.379   0.930  10.873
 1172SOL     OW 4201   0.815   0.572   9.635
 1172SOL    HW1 4202   0.822   0.483   9.589
 1172SOL    HW2 4203   0.721   0.606   9.627
 1173SOL     OW 4204   1.657   0.604  10.516
 1173SOL    HW1 4205   1.619   0.535  10.578
 1173SOL    HW2 4206   1.739   0.568  10.472
 1174SOL     OW 4207   0.252   1.564  11.054
 1174SOL    HW1 4208   0.222   1.621  11.130
 1174SOL    HW2 4209   0.245   1.467  11.080
 1175SOL     OW 4210   0.671   0.464  10.579
 1175SOL    HW1 4211   0.637   0.375  10.549
 1175SOL    HW2 4212   0.697   0.518  10.499
 1176SOL     OW 4213   0.930   1.678  10.775
 1176SOL    HW1 4214   0.906   1.660  10.680
 1176SOL    HW2 4215   0.960   1.772  10.785
 1177SOL     OW 4216   0.473   0.500   9.501
 1177SOL    HW1 4217   0.534   0.580   9.505
 1177SOL    HW2 4218   0.378   0.531   9.508
 1178SOL     OW 4219   0.159   1.137  10.776
 1178SOL    HW1 4220   0.181   1.076  10.852
 1178SOL    HW2 4221   0.169   1.088  10.690
 1179SOL     OW 4222   1.347   1.059  10.544
 1179SOL    HW1 4223   1.371   0.996  10.470
 1179SOL    HW2 4224   1.257   1.099  10.526
 1180SOL     OW 4225   1.302   0.855   9.619
 1180SOL    HW1 4226   1.216   0.824   9.661
 1180SOL    HW2 4227   1.298   0.841   9.520
 1181SOL     OW 4228   1.759   1.747  10.464
 1181SOL    HW1 4229   1.820   1.777  10.391
 1181SOL    HW2 4230   1.721   1.658  10.442
 1182SOL     OW 4231   1.252   1.731  10.438
 1182SOL    HW1 4232   1.336   1.736  10.384
 1182SOL    HW2 4233   1.229   1.635  10.456
 1183SOL     OW 4234   0.083   1.258  10.332
 1183SOL    HW1 4235   0.078   1.257  10.432
 1183SOL    HW2 4236   0.000   1.217  10.294
 1184SOL     OW 4237   0.688   1.662  11.026
 1184SOL    HW1 4238   0.632   1.743  11.035
 1184SOL    HW2 4239   0.740   1.666  10.940
 1185SOL     OW 4240   1.726   0.135   9.833
 1185SOL    HW1 4241   1.799   0.118   9.766
 1185SOL    HW2 4242   1.695   0.048   9.871
 1186SOL     OW 4243   1.388   1.573   9.787
 1186SOL    HW1 4244   1.455   1.585   9.713
 1186SOL    HW2 4245   1.348   1.662   9.810
 1187SOL     OW 4246   0.130   1.794  11.161
 1187SOL    HW1 4247   0.089   1.720  11.214
 1187SOL    HW2 4248   0.194   1.845  11.219
 1188SOL     OW 4249   1.280   0.927   9.982
 1188SOL    HW1 4250   1.340   0.846   9.984
 1188SOL    HW2 4251   1.320   0.996   9.922
 1189SOL     OW 4252   0.830   1.273  10.732
 1189SOL    HW1 4253   0.825   1.306  10.827
 1189SOL    HW2 4254   0.744   1.292  10.686
 1190SOL     OW 4255   0.672   1.616   9.464
 1190SOL    HW1 4256   0.681   1.626   9.365
 1190SOL    HW2 4257   0.632   1.527   9.485
 1191SOL     OW 4258   1.650   1.720  10.704
 1191SOL    HW1 4259   1.703   1.730  10.620
 1191SOL    HW2 4260   1.623   1.810  10.738
 1192SOL     OW 4261   1.841   0.175  10.273
 1192SOL    HW1 4262   1.880   0.090  10.237
 1192SOL    HW2 4263   1.743   0.177  10.254
 1193SOL     OW 4264   0.263   0.326  10.030
 1193SOL    HW1 4265   0.184   0.377   9.996
 1193SOL    HW2 4266   0.254   0.311  10.128
 1194SOL     OW 4267   1.194   1.612   9.341
 1194SOL    HW1 4268   1.200   1.519   9.378
 1194SOL    HW2 4269   1.135   1.612   9.261
 1195SOL     OW 4270   0.822   1.002  10.682
 1195SOL    HW1 4271   0.862   1.001  10.590
 1195SOL    HW2 4272   0.832   1.094  10.722
 1196SOL     OW 4273   0.916   0.910   9.601
 1196SOL    HW1 4274   0.979   0.948   9.533
 1196SOL    HW2 4275   0.956   0.827   9.640
 1197SOL     OW 4276   1.504   1.607   9.354
 1197SOL    HW1 4277   1.412   1.644   9.361
 1197SOL    HW2 4278   1.542   1.627   9.264
 1198SOL     OW 4279   0.372   1.288  10.800
 1198SOL    HW1 4280   0.359   1.381  10.766
 1198SOL    HW2 4281   0.288   1.236  10.787
 1199SOL     OW 4282   1.614   1.292  10.599
 1199SOL    HW1 4283   1.674   1.295  10.679
 1199SOL    HW2 4284   1.539   1.356  10.612
 1200SOL     OW 4285   1.039   1.098  10.006
 1200SOL    HW1 4286   0.969   1.051  10.060
 1200SOL    HW2 4287   1.098   1.030   9.963
 1201SOL     OW 4288   1.014   0.236  10.281
 1201SOL    HW1 4289   1.006   0.200  10.188
 1201SOL    HW2 4290   1.012   0.160  10.346
 1202SOL     OW 4291   0.590   1.487   9.801
 1202SOL    HW1 4292   0.632   1.429   9.731
 1202SOL    HW2 4293   0.546   1.566   9.757
 1203SOL     OW 4294   1.709   0.385  10.691
 1203SOL    HW1 4295   1.782   0.454  10.695
 1203SOL    HW2 4296   1.737   0.310  10.632
 1204SOL     OW 4297   0.255   1.348   9.600
 1204SOL    HW1 4298   0.159   1.349   9.573
 1204SOL    HW2 4299   0.267   1.401   9.684
 1205SOL     OW 4300   0.105   1.013  11.036
 1205SOL    HW1 4301   0.028   0.980  11.090
 1205SOL    HW2 4302   0.190   0.983  11.078
 1206SOL     OW 4303   0.672   0.203  10.799
 1206SOL    HW1 4304   0.762   0.187  10.759
 1206SOL    HW2 4305   0.680   0.208  10.898
 1207SOL     OW 4306   0.075   0.345   9.343
 1207SOL    HW1 4307  -0.017   0.317   9.314
 1207SOL    HW2 4308   0.106   0.422   9.287
 1208SOL     OW 4309   1.440   0.856  10.708
 1208SOL    HW1 4310   1.383   0.908  10.645
 1208SOL    HW2 4311   1.536   0.868  10.684
 1209SOL     OW 4312   0.072   0.166   9.628
 1209SOL    HW1 4313   0.055   0.249   9.574
 1209SOL    HW2 4314   0.162   0.129   9.606
 1210SOL     OW 4315   1.183   1.335   9.429
 1210SOL    HW1 4316   1.084   1.324   9.431
 1210SOL    HW2 4317   1.217   1.350   9.522
 1211SOL     OW 4318   0.613   0.842  10.741
 1211SOL    HW1 4319   0.669   0.923  10.724
 1211SOL    HW2 4320   0.672   0.762  10.744
 1212SOL     OW 4321   1.493   1.767  10.269
 1212SOL    HW1 4322   1.526   1.831  10.200
 1212SOL    HW2 4323   1.559   1.761  10.344
 1213SOL     OW 4324   0.716   0.565  11.018
 1213SOL    HW1 4325   0.735   0.630  11.092
 1213SOL    HW2 4326   0.776   0.485  11.027
 1214SOL     OW 4327   1.450   1.220  10.943
 1214SOL    HW1 4328   1.441   1.210  11.042
 1214SOL    HW2 4329   1.546   1.213  10.917
 1215SOL     OW 4330   0.390   1.741  10.870
 1215SOL    HW1 4331   0.299   1.782  10.868
 1215SOL    HW2 4332   0.383   1.647  10.902
 1216SOL     OW 4333   1.674   0.883  10.564
 1216SOL    HW1 4334   1.647   0.794  10.527
 1216SOL    HW2 4335   1.675   0.951  10.491
 1217SOL     OW 4336   1.225   0.325   9.759
 1217SOL    HW1 4337   1.290   0.251   9.748
 1217SOL    HW2 4338   1.245   0.375   9.843
 1218SOL     OW 4339   0.594   0.745   9.962
 1218SOL    HW1 4340   0.644   0.830   9.943
 1218SOL    HW2 4341   0.506   0.747   9.914
 1219SOL     OW 4342   1.777   0.342  10.952
 1219SOL    HW1 4343   1.760   0.373  10.858
 1219SOL    HW2 4344   1.693   0.305  10.990
 1220SOL     OW 4345   1.730   0.934  10.827
 1220SOL    HW1 4346   1.768   1.025  10.842
 1220SOL    HW2 4347   1.722   0.917  10.728
 1221SOL     OW 4348   0.859   1.374   9.326
 1221SOL    HW1 4349   0.813   1.389   9.414
 1221SOL    HW2 4350   0.903   1.459   9.296
 1222SOL     OW 4351   0.661   1.790  10.263
 1222SOL    HW1 4352   0.615   1.878  10.250
 1222SOL    HW2 4353   0.760   1.802  10.256
 1223SOL     OW 4354   0.859   0.956  10.171
 1223SOL    HW1 4355   0.913   0.887  10.219
 1223SOL    HW2 4356   0.827   1.025  10.237
 1224SOL     OW 4357   1.083   0.984   9.397
 1224SOL    HW1 4358   1.060   1.037   9.315
 1224SOL    HW2 4359   1.164   0.928   9.378
 1225SOL     OW 4360   1.861   1.569  10.161
 1225SOL    HW1 4361   1.790   1.557  10.091
 1225SOL    HW2 4362   1.862   1.490  10.221
 1226SOL     OW 4363   0.221   1.314  11.154
 1226SOL    HW1 4364   0.156   1.241  11.133
 1226SOL    HW2 4365   0.225   1.328  11.252
 1227SOL     OW 4366   0.079   1.240   9.963
 1227SOL    HW1 4367   0.078   1.193  10.051
 1227SOL    HW2 4368   0.161   1.212   9.912
 1228SOL     OW 4369   0.672   1.391  10.934
 1228SOL    HW1 4370   0.594   1.341  10.972
 1228SOL    HW2 4371   0.669   1.486  10.965
 1229SOL     OW 4372   1.824   0.192  10.537
 1229SOL    HW1 4373   1.820   0.102  10.581
 1229SOL    HW2 4374   1.827   0.181  10.438
 1230SOL     OW 4375   0.428   0.424   9.830
 1230SOL    HW1 4376   0.458   0.352   9.768
 1230SOL    HW2 4377   0.389   0.384   9.913
 1231SOL     OW 4378   1.705   1.487  10.414
 1231SOL    HW1 4379   1.612   1.462  10.387
 1231SOL    HW2 4380   1.731   1.437  10.496
 1232SOL     OW 4381   0.317   0.547  10.590
 1232SOL    HW1 4382   0.355   0.488  10.662
 1232SOL    HW2 4383   0.357   0.521  10.502
 1233SOL     OW 4384   0.812   1.586   9.997
 1233SOL    HW1 4385   0.844   1.596   9.903
 1233SOL    HW2 4386   0.733   1.524   9.999
 1234SOL     OW 4387   1.424   0.214  10.422
 1234SOL    HW1 4388   1.476   0.149  10.477
 1234SOL    HW2 4389   1.375   0.277  10.483
 1235SOL     OW 4390   1.001   0.034  10.464
 1235SOL    HW1 4391   0.938  -0.038  10.433
 1235SOL    HW2 4392   1.094  -0.002  10.464
 1236SOL     OW 4393   0.770   1.330   9.611
 1236SOL    HW1 4394   0.724   1.243   9.628
 1236SOL    HW2 4395   0.861   1.327   9.652
 1237SOL     OW 4396   0.618   1.567  10.594
 1237SOL    HW1 4397   0.613   1.649  10.651
 1237SOL    HW2 4398   0.707   1.564  10.549
 1238SOL     OW 4399   1.352   0.052   9.478
 1238SOL    HW1 4400   1.387   0.011   9.394
 1238SOL    HW2 4401   1.262   0.014   9.498
 1239SOL     OW 4402   1.300   0.453  10.001
 1239SOL    HW1 4403   1.241   0.533  10.005
 1239SOL    HW2 4404   1.315   0.418  10.094
 1240SOL     OW 4405   1.593   0.221  10.192
 1240SOL    HW1 4406   1.509   0.220  10.246
 1240SOL    HW2 4407   1.595   0.304  10.136
 1241SOL     OW 4408   0.039   1.077   9.610
 1241SOL    HW1 4409   0.138   1.066   9.601
 1241SOL    HW2 4410  -0.001   0.991   9.642
 1242SOL     OW 4411   0.875   1.646   9.647
 1242SOL    HW1 4412   0.798   1.611   9.593
 1242SOL    HW2 4413   0.843   1.717   9.709
 1243SOL     OW 4414   0.230   0.628  11.285
 1243SOL    HW1 4415   0.137   0.626  11.322
 1243SOL    HW2 4416   0.231   0.589  11.193
 1244SOL     OW 4417   0.225   0.275  12.168
 1244SOL    HW1 4418   0.260   0.258  12.260
 1244SOL    HW2 4419   0.137   0.230  12.156
 1245SOL     OW 4420   0.019   0.368  11.819
 1245SOL    HW1 4421  -0.063   0.411  11.858
 1245SOL    HW2 4422  -0.009   0.295  11.756
 1246SOL     OW 4423   0.569   1.275  12.337
 1246SOL    HW1 4424   0.476   1.268  12.300
 1246SOL    HW2 4425   0.580   1.364  12.381
 1247SOL     OW 4426   1.555   1.511  11.875
 1247SOL    HW1 4427   1.498   1.495  11.956
 1247SOL    HW2 4428   1.496   1.521  11.795
 1248SOL     OW 4429   1.135   0.703  11.889
 1248SOL    HW1 4430   1.192   0.781  11.864
 1248SOL    HW2 4431   1.075   0.729  11.965
 1249SOL     OW 4432   1.755   0.607  11.403
 1249SOL    HW1 4433   1.743   0.594  11.304
 1249SOL    HW2 4434   1.725   0.526  11.452
 1250SOL     OW 4435   0.768   1.144  12.195
 1250SOL    HW1 4436   0.690   1.161  12.255
 1250SOL    HW2 4437   0.802   1.231  12.159
 1251SOL     OW 4438   0.850   0.798  12.995
 1251SOL    HW1 4439   0.846   0.874  13.060
 1251SOL    HW2 4440   0.872   0.834  12.904
 1252SOL     OW 4441   0.685   1.012  11.837
 1252SOL    HW1 4442   0.754   0.996  11.907
 1252SOL    HW2 4443   0.612   1.069  11.875
 1253SOL     OW 4444   0.686   1.161  12.975
 1253SOL    HW1 4445   0.746   1.240  12.989
 1253SOL    HW2 4446   0.600   1.192  12.934
 1254SOL     OW 4447   0.335   1.435  12.233
 1254SOL    HW1 4448   0.257   1.404  12.180
 1254SOL    HW2 4449   0.393   1.493  12.176
 1255SOL     OW 4450   1.460   1.505  12.511
 1255SOL    HW1 4451   1.484   1.599  12.537
 1255SOL    HW2 4452   1.444   1.451  12.593
 1256SOL     OW 4453   0.438   0.392  12.671
 1256SOL    HW1 4454   0.520   0.336  12.680
 1256SOL    HW2 4455   0.357   0.334  12.675
 1257SOL     OW 4456   1.603   0.447  11.909
 1257SOL    HW1 4457   1.529   0.493  11.859
 1257SOL    HW2 4458   1.654   0.515  11.962
 1258SOL     OW 4459   0.231   1.713  11.655
 1258SOL    HW1 4460   0.265   1.790  11.709
 1258SOL    HW2 4461   0.275   1.713  11.565
 1259SOL     OW 4462   1.127   1.341  12.862
 1259SOL    HW1 4463   1.174   1.341  12.950
 1259SOL    HW2 4464   1.079   1.254  12.851
 1260SOL     OW 4465   0.230   1.434  11.710
 1260SOL    HW1 4466   0.204   1.530  11.710
 1260SOL    HW2 4467   0.159   1.380  11.755
 1261SOL     OW 4468   0.240   1.091  12.058
 1261SOL    HW1 4469   0.254   1.007  12.110
 1261SOL    HW2 4470   0.185   1.155  12.113
 1262SOL     OW 4471   0.620   1.786  12.611
 1262SOL    HW1 4472   0.528   1.769  12.646
 1262SOL    HW2 4473   0.648   1.878  12.637
 1263SOL     OW 4474   0.606   0.964  11.295
 1263SOL    HW1 4475   0.613   1.048  11.241
 1263SOL    HW2 4476   0.652   0.977  11.383
 1264SOL     OW 4477   1.594   0.114  12.652
 1264SOL    HW1 4478   1.576   0.181  12.580
 1264SOL    HW2 4479   1.591   0.160  12.741
 1265SOL     OW 4480   0.122   0.643  11.735
 1265SOL    HW1 4481   0.077   0.555  11.752
 1265SOL    HW2 4482   0.121   0.697  11.819
 1266SOL     OW 4483   0.027   1.596  11.289
 1266SOL    HW1 4484   0.008   1.500  11.310
 1266SOL    HW2 4485  -0.006   1.654  11.364
 1267SOL     OW 4486   1.689   0.922  11.784
 1267SOL    HW1 4487   1.784   0.893  11.792
 1267SOL    HW2 4488   1.681   0.987  11.709
 1268SOL     OW 4489   1.641   1.108  11.604
 1268SOL    HW1 4490   1.727   1.110  11.552
 1268SOL    HW2 4491   1.655   1.155  11.692
 1269SOL     OW 4492   0.113   0.737  12.769
 1269SOL    HW1 4493   0.201   0.724  12.814
 1269SOL    HW2 4494   0.100   0.834  12.747
 1270SOL     OW 4495   0.613   1.365  11.898
 1270SOL    HW1 4496   0.564   1.278  11.907
 1270SOL    HW2 4497   0.590   1.408  11.811
 1271SOL     OW 4498   1.293   1.228  12.595
 1271SOL    HW1 4499   1.330   1.155  12.537
 1271SOL    HW2 4500   1.345   1.233  12.680
 1272SOL     OW 4501   0.809   0.004  11.674
 1272SOL    HW1 4502   0.849   0.095  11.665
 1272SOL    HW2 4503   0.709   0.012  11.680
 1273SOL     OW 4504   0.197   0.976  12.436
 1273SOL    HW1 4505   0.286   0.931  12.422
 1273SOL    HW2 4506   0.124   0.911  12.417
 1274SOL     OW 4507   1.525   0.999  11.362
 1274SOL    HW1 4508   1.462   0.923  11.375
 1274SOL    HW2 4509   1.573   1.017  11.448
 1275SOL     OW 4510   1.187   1.792  12.788
 1275SOL    HW1 4511   1.211   1.852  12.712
 1275SOL    HW2 4512   1.194   1.697  12.758
 1276SOL     OW 4513   0.317   0.251  12.973
 1276SOL    HW1 4514   0.388   0.322  12.979
 1276SOL    HW2 4515   0.229   0.290  13.001
 1277SOL     OW 4516   1.466   1.417  12.125
 1277SOL    HW1 4517   1.407   1.423  12.205
 1277SOL    HW2 4518   1.451   1.329  12.079
 1278SOL     OW 4519   1.667   1.714  11.744
 1278SOL    HW1 4520   1.626   1.691  11.656
 1278SOL    HW2 4521   1.649   1.640  11.809
 1279SOL     OW 4522   0.598   0.729  11.442
 1279SOL    HW1 4523   0.622   0.798  11.374
 1279SOL    HW2 4524   0.520   0.762  11.496
 1280SOL     OW 4525   1.281   0.345  12.116
 1280SOL    HW1 4526   1.195   0.295  12.103
 1280SOL    HW2 4527   1.343   0.291  12.172
 1281SOL     OW 4528   1.576   1.662  11.479
 1281SOL    HW1 4529   1.665   1.708  11.482
 1281SOL    HW2 4530   1.555   1.638  11.384
 1282SOL     OW 4531   0.807   0.605  12.637
 1282SOL    HW1 4532   0.760   0.602  12.726
 1282SOL    HW2 4533   0.756   0.550  12.571
 1283SOL     OW 4534   1.394   0.469  12.846
 1283SOL    HW1 4535   1.374   0.512  12.934
 1283SOL    HW2 4536   1.472   0.407  12.855
 1284SOL     OW 4537   0.973   0.890  12.744
 1284SOL    HW1 4538   1.019   0.806  12.715
 1284SOL    HW2 4539   0.917   0.924  12.669
 1285SOL     OW 4540   0.991   0.410  12.414
 1285SOL    HW1 4541   0.914   0.444  12.468
 1285SOL    HW2 4542   0.957   0.359  12.335
 1286SOL     OW 4543   1.041   0.701  11.601
 1286SOL    HW1 4544   1.067   0.697  11.697
 1286SOL    HW2 4545   0.956   0.650  11.587
 1287SOL     OW 4546   0.076   0.811  11.961
 1287SOL    HW1 4547   0.175   0.799  11.970
 1287SOL    HW2 4548   0.052   0.906  11.982
 1288SOL     OW 4549   0.130   1.821  12.743
 1288SOL    HW1 4550   0.120   1.806  12.842
 1288SOL    HW2 4551   0.044   1.857  12.707
 1289SOL     OW 4552   0.865   0.348  11.367
 1289SOL    HW1 4553   0.924   0.411  11.318
 1289SOL    HW2 4554   0.884   0.254  11.338
 1290SOL     OW 4555   1.719   0.585  13.003
 1290SOL    HW1 4556   1.693   0.674  12.967
 1290SOL    HW2 4557   1.717   0.517  12.930
 1291SOL     OW 4558   1.362   1.144  11.717
 1291SOL    HW1 4559   1.445   1.115  11.669
 1291SOL    HW2 4560   1.313   1.211  11.661
 1292SOL     OW 4561   0.550   0.196  12.057
 1292SOL    HW1 4562   0.545   0.191  12.157
 1292SOL    HW2 4563   0.552   0.292  12.028
 1293SOL     OW 4564   1.008   1.456  11.649
 1293SOL    HW1 4565   0.962   1.528  11.597
 1293SOL    HW2 4566   1.004   1.476  11.747
 1294SOL     OW 4567   0.351   1.801  12.025
 1294SOL    HW1 4568   0.401   1.715  12.031
 1294SOL    HW2 4569   0.416   1.878  12.022
 1295SOL     OW 4570   1.795   1.066  12.045
 1295SOL    HW1 4571   1.733   1.051  11.969
 1295SOL    HW2 4572   1.743   1.077  12.130
 1296SOL     OW 4573   1.227   1.550  12.678
 1296SOL    HW1 4574   1.233   1.473  12.742
 1296SOL    HW2 4575   1.175   1.524  12.598
 1297SOL     OW 4576   0.321   0.943  11.414
 1297SOL    HW1 4577   0.403   0.982  11.372
 1297SOL    HW2 4578   0.294   0.861  11.365
 1298SOL     OW 4579   1.458   0.735  11.900
 1298SOL    HW1 4580   1.453   0.670  11.975
 1298SOL    HW2 4581   1.538   0.794  11.913
 1299SOL     OW 4582   0.461   1.266  12.899
 1299SOL    HW1 4583   0.411   1.267  12.813
 1299SOL    HW2 4584   0.398   1.248  12.975
 1300SOL     OW 4585   1.111   1.776  11.409
 1300SOL    HW1 4586   1.051   1.714  11.459
 1300SOL    HW2 4587   1.142   1.732  11.324
 1301SOL     OW 4588   0.202   0.285  12.670
 1301SOL    HW1 4589   0.122   0.345  12.657
 1301SOL    HW2 4590   0.192   0.236  12.756
 1302SOL     OW 4591   1.632   1.377  11.253
 1302SOL    HW1 4592   1.600   1.471  11.243
 1302SOL    HW2 4593   1.556   1.314  11.241
 1303SOL     OW 4594   0.464   1.743  11.495
 1303SOL    HW1 4595   0.497   1.782  11.581
 1303SOL    HW2 4596   0.540   1.736  11.430
 1304SOL     OW 4597   1.400   0.107  11.598
 1304SOL    HW1 4598   1.376   0.070  11.508
 1304SOL    HW2 4599   1.499   0.123  11.602
 1305SOL     OW 4600   0.249   1.785  12.413
 1305SOL    HW1 4601   0.306   1.720  12.463
 1305SOL    HW2 4602   0.233   1.752  12.320
 1306SOL     OW 4603   0.940   1.698  12.076
 1306SOL    HW1 4604   1.020   1.641  12.097
 1306SOL    HW2 4605   0.891   1.658  11.999
 1307SOL     OW 4606   0.382   0.700  11.652
 1307SOL    HW1 4607   0.427   0.610  11.649
 1307SOL    HW2 4608   0.288   0.689  11.685
 1308SOL     OW 4609   1.547   0.222  12.901
 1308SOL    HW1 4610   1.542   0.259  12.993
 1308SOL    HW2 4611   1.475   0.153  12.889
 1309SOL     OW 4612   0.614   0.122  11.289
 1309SOL    HW1 4613   0.712   0.100  11.296
 1309SOL    HW2 4614   0.583   0.105  11.196
 1310SOL     OW 4615   0.781   0.264  12.921
 1310SOL    HW1 4616   0.848   0.203  12.964
 1310SOL    HW2 4617   0.708   0.283  12.986
 1311SOL     OW 4618   0.888   1.514  12.367
 1311SOL    HW1 4619   0.865   1.489  12.273
 1311SOL    HW2 4620   0.949   1.445  12.406
 1312SOL     OW 4621   1.351   0.590  12.605
 1312SOL    HW1 4622   1.379   0.547  12.690
 1312SOL    HW2 4623   1.376   0.686  12.606
 1313SOL     OW 4624   0.803   1.402  12.096
 1313SOL    HW1 4625   0.893   1.416  12.054
 1313SOL    HW2 4626   0.732   1.404  12.025
 1314SOL     OW 4627   0.922   0.503  12.071
 1314SOL    HW1 4628   0.897   0.494  11.975
 1314SOL    HW2 4629   0.970   0.421  12.102
 1315SOL     OW 4630   0.539   0.064  11.684
 1315SOL    HW1 4631   0.458   0.065  11.742
 1315SOL    HW2 4632   0.542   0.147  11.629
 1316SOL     OW 4633   1.434   1.188  11.213
 1316SOL    HW1 4634   1.466   1.112  11.270
 1316SOL    HW2 4635   1.342   1.215  11.243
 1317SOL     OW 4636   0.297   0.035  11.343
 1317SOL    HW1 4637   0.346   0.119  11.322
 1317SOL    HW2 4638   0.359  -0.030  11.388
 1318SOL     OW 4639   0.935   0.236  11.652
 1318SOL    HW1 4640   0.887   0.277  11.574
 1318SOL    HW2 4641   1.034   0.234  11.633
 1319SOL     OW 4642   1.076   0.683  12.636
 1319SOL    HW1 4643   0.996   0.622  12.639
 1319SOL    HW2 4644   1.157   0.630  12.612
 1320SOL     OW 4645   1.227   1.570  11.965
 1320SOL    HW1 4646   1.248   1.644  11.900
 1320SOL    HW2 4647   1.295   1.570  12.038
 1321SOL     OW 4648   0.459   1.152  11.913
 1321SOL    HW1 4649   0.388   1.125  11.978
 1321SOL    HW2 4650   0.433   1.124  11.820
 1322SOL     OW 4651   1.271   1.797  11.763
 1322SOL    HW1 4652   1.315   1.861  11.699
 1322SOL    HW2 4653   1.221   1.849  11.833
 1323SOL     OW 4654   1.032   0.549  11.188
 1323SOL    HW1 4655   0.991   0.631  11.149
 1323SOL    HW2 4656   1.096   0.575  11.261
 1324SOL     OW 4657   0.078   0.556  12.558
 1324SOL    HW1 4658   0.170   0.555  12.517
 1324SOL    HW2 4659   0.072   0.630  12.625
 1325SOL     OW 4660   0.561   0.222  12.319
 1325SOL    HW1 4661   0.599   0.138  12.356
 1325SOL    HW2 4662   0.473   0.241  12.363
 1326SOL     OW 4663   0.866   0.454  11.814
 1326SOL    HW1 4664   0.834   0.526  11.752
 1326SOL    HW2 4665   0.890   0.373  11.761
 1327SOL     OW 4666   1.017   0.039  11.925
 1327SOL    HW1 4667   0.945   0.044  11.856
 1327SOL    HW2 4668   0.993  -0.030  11.994
 1328SOL     OW 4669   1.429   1.173  12.039
 1328SOL    HW1 4670   1.374   1.089  12.032
 1328SOL    HW2 4671   1.455   1.202  11.947
 1329SOL     OW 4672   1.466   0.590  12.164
 1329SOL    HW1 4673   1.436   0.495  12.171
 1329SOL    HW2 4674   1.539   0.606  12.230
 1330SOL     OW 4675   1.857   0.833  11.549
 1330SOL    HW1 4676   1.899   0.769  11.613
 1330SOL    HW2 4677   1.819   0.782  11.471
 1331SOL     OW 4678   0.488   1.385  11.346
 1331SOL    HW1 4679   0.401   1.370  11.393
 1331SOL    HW2 4680   0.471   1.411  11.251
 1332SOL     OW 4681   1.664   1.280  11.829
 1332SOL    HW1 4682   1.763   1.288  11.843
 1332SOL    HW2 4683   1.619   1.364  11.860
 1333SOL     OW 4684   1.390   0.575  11.250
 1333SOL    HW1 4685   1.336   0.554  11.331
 1333SOL    HW2 4686   1.481   0.534  11.259
 1334SOL     OW 4687   0.527   0.256  11.500
 1334SOL    HW1 4688   0.554   0.197  11.425
 1334SOL    HW2 4689   0.527   0.351  11.469
 1335SOL     OW 4690   1.754   1.223  12.760
 1335SOL    HW1 4691   1.845   1.184  12.747
 1335SOL    HW2 4692   1.762   1.319  12.784
 1336SOL     OW 4693   1.064   1.347  12.512
 1336SOL    HW1 4694   0.984   1.324  12.567
 1336SOL    HW2 4695   1.147   1.321  12.561
 1337SOL     OW 4696   1.592   1.629  12.797
 1337SOL    HW1 4697   1.619   1.663  12.707
 1337SOL    HW2 4698   1.671   1.591  12.843
 1338SOL     OW 4699   1.111   1.195  12.272
 1338SOL    HW1 4700   1.071   1.239  12.353
 1338SOL    HW2 4701   1.070   1.232  12.189
 1339SOL     OW 4702   1.638   1.099  12.251
 1339SOL    HW1 4703   1.643   1.180  12.310
 1339SOL    HW2 4704   1.552   1.101  12.200
 1340SOL     OW 4705   0.915   0.089  12.574
 1340SOL    HW1 4706   0.940   0.069  12.479
 1340SOL    HW2 4707   0.987   0.145  12.616
 1341SOL     OW 4708   0.980   1.116  12.891
 1341SOL    HW1 4709   0.881   1.122  12.901
 1341SOL    HW2 4710   1.003   1.036  12.835
 1342SOL     OW 4711   0.705   1.050  11.540
 1342SOL    HW1 4712   0.691   1.057  11.639
 1342SOL    HW2 4713   0.789   0.999  11.522
 1343SOL     OW 4714   0.410   0.813  12.423
 1343SOL    HW1 4715   0.496   0.825  12.473
 1343SOL    HW2 4716   0.368   0.726  12.450
 1344SOL     OW 4717   1.274   0.386  12.434
 1344SOL    HW1 4718   1.295   0.460  12.498
 1344SOL    HW2 4719   1.185   0.403  12.391
 1345SOL     OW 4720   0.064   1.564  12.503
 1345SOL    HW1 4721   0.018   1.646  12.469
 1345SOL    HW2 4722   0.162   1.583  12.512
 1346SOL     OW 4723   0.367   1.100  11.673
 1346SOL    HW1 4724   0.360   1.183  11.617
 1346SOL    HW2 4725   0.371   1.020  11.613
 1347SOL     OW 4726   0.566   0.537  12.037
 1347SOL    HW1 4727   0.578   0.603  11.963
 1347SOL    HW2 4728   0.612   0.571  12.120
 1348SOL     OW 4729   1.252   1.348  11.560
 1348SOL    HW1 4730   1.302   1.425  11.600
 1348SOL    HW2 4731   1.157   1.350  11.592
 1349SOL     OW 4732   1.272   1.445  12.314
 1349SOL    HW1 4733   1.319   1.458  12.401
 1349SOL    HW2 4734   1.206   1.371  12.323
 1350SOL     OW 4735   1.582   0.639  11.644
 1350SOL    HW1 4736   1.551   0.700  11.717
 1350SOL    HW2 4737   1.632   0.691  11.575
 1351SOL     OW 4738   0.354   1.510  12.501
 1351SOL    HW1 4739   0.333   1.466  12.414
 1351SOL    HW2 4740   0.451   1.536  12.504
 1352SOL     OW 4741   0.402   0.751  12.770
 1352SOL    HW1 4742   0.470   0.806  12.723
 1352SOL    HW2 4743   0.442   0.663  12.797
 1353SOL     OW 4744   1.587   0.779  12.842
 1353SOL    HW1 4745   1.495   0.817  12.837
 1353SOL    HW2 4746   1.647   0.826  12.777
 1354SOL     OW 4747   1.013   0.105  12.942
 1354SOL    HW1 4748   1.019   0.190  12.890
 1354SOL    HW2 4749   1.045   0.029  12.885
 1355SOL     OW 4750   0.504   0.050  12.912
 1355SOL    HW1 4751   0.462  -0.007  12.842
 1355SOL    HW2 4752   0.438   0.119  12.944
 1356SOL     OW 4753   0.573   0.870  12.201
 1356SOL    HW1 4754   0.617   0.959  12.192
 1356SOL    HW2 4755   0.510   0.870  12.278
 1357SOL     OW 4756   1.360   0.862  12.217
 1357SOL    HW1 4757   1.285   0.862  12.151
 1357SOL    HW2 4758   1.397   0.770  12.226
 1358SOL     OW 4759   1.209   0.525  11.447
 1358SOL    HW1 4760   1.222   0.441  11.501
 1358SOL    HW2 4761   1.180   0.599  11.507
 1359SOL     OW 4762   0.307   0.213  12.403
 1359SOL    HW1 4763   0.284   0.250  12.493
 1359SOL    HW2 4764   0.277   0.118  12.397
 1360SOL     OW 4765   0.037   1.310  12.454
 1360SOL    HW1 4766   0.090   1.261  12.522
 1360SOL    HW2 4767   0.059   1.408  12.459
 1361SOL     OW 4768   0.732   0.634  12.236
 1361SOL    HW1 4769   0.791   0.608  12.160
 1361SOL    HW2 4770   0.704   0.730  12.225
 1362SOL     OW 4771   1.728   0.935  13.026
 1362SOL    HW1 4772   1.682   0.928  12.937
 1362SOL    HW2 4773   1.666   0.979  13.092
 1363SOL     OW 4774   0.307   0.063  11.790
 1363SOL    HW1 4775   0.296   0.157  11.823
 1363SOL    HW2 4776   0.302   0.000  11.867
 1364SOL     OW 4777   1.622   0.367  11.546
 1364SOL    HW1 4778   1.624   0.291  11.610
 1364SOL    HW2 4779   1.574   0.444  11.586
 1365SOL     OW 4780   1.023   0.766  12.138
 1365SOL    HW1 4781   1.038   0.787  12.234
 1365SOL    HW2 4782   0.993   0.671  12.129
 1366SOL     OW 4783   0.980   1.573  12.872
 1366SOL    HW1 4784   0.960   1.617  12.784
 1366SOL    HW2 4785   1.019   1.482  12.856
 1367SOL     OW 4786   1.859   1.518  12.777
 1367SOL    HW1 4787   1.873   1.545  12.682
 1367SOL    HW2 4788   1.942   1.540  12.830
 1368SOL     OW 4789   0.350   0.898  12.976
 1368SOL    HW1 4790   0.426   0.942  13.024
 1368SOL    HW2 4791   0.385   0.851  12.894
 1369SOL     OW 4792   1.540   0.274  11.297
 1369SOL    HW1 4793   1.479   0.199  11.320
 1369SOL    HW2 4794   1.562   0.326  11.380
 1370SOL     OW 4795   1.303   0.838  11.214
 1370SOL    HW1 4796   1.337   0.745  11.229
 1370SOL    HW2 4797   1.321   0.865  11.119
 1371SOL     OW 4798   1.068   1.333  12.021
 1371SOL    HW1 4799   1.075   1.249  11.966
 1371SOL    HW2 4800   1.130   1.402  11.985
 1372SOL     OW 4801   0.319   0.810  12.121
 1372SOL    HW1 4802   0.412   0.846  12.126
 1372SOL    HW2 4803   0.313   0.725  12.173
 1373SOL     OW 4804   0.339   0.509  12.178
 1373SOL    HW1 4805   0.287   0.426  12.161
 1373SOL    HW2 4806   0.416   0.514  12.114
 1374SOL     OW 4807   1.138   0.380  12.850
 1374SOL    HW1 4808   1.093   0.443  12.914
 1374SOL    HW2 4809   1.231   0.411  12.833
 1375SOL     OW 4810   1.160   0.207  12.649
 1375SOL    HW1 4811   1.160   0.271  12.726
 1375SOL    HW2 4812   1.188   0.255  12.566
 1376SOL     OW 4813   0.008   1.326  11.372
 1376SOL    HW1 4814  -0.085   1.347  11.341
 1376SOL    HW2 4815   0.018   1.227  11.385
 1377SOL     OW 4816   0.088   1.801  12.099
 1377SOL    HW1 4817   0.046   1.715  12.072
 1377SOL    HW2 4818   0.182   1.804  12.065
 1378SOL     OW 4819   0.504   1.568  12.082
 1378SOL    HW1 4820   0.570   1.642  12.091
 1378SOL    HW2 4821   0.548   1.489  12.040
 1379SOL     OW 4822   1.002   0.796  12.410
 1379SOL    HW1 4823   1.043   0.764  12.496
 1379SOL    HW2 4824   0.906   0.769  12.407
 1380SOL     OW 4825   0.040   0.544  12.286
 1380SOL    HW1 4826   0.125   0.511  12.245
 1380SOL    HW2 4827   0.053   0.559  12.384
 1381SOL     OW 4828   0.189   0.520  12.894
 1381SOL    HW1 4829   0.248   0.480  12.824
 1381SOL    HW2 4830   0.131   0.591  12.853
 1382SOL     OW 4831   1.369   0.950  12.832
 1382SOL    HW1 4832   1.408   1.039  12.852
 1382SOL    HW2 4833   1.379   0.930  12.735
 1383SOL     OW 4834   0.815   0.572  11.497
 1383SOL    HW1 4835   0.822   0.483  11.451
 1383SOL    HW2 4836   0.721   0.606  11.489
 1384SOL     OW 4837   1.657   0.604  12.378
 1384SOL    HW1 4838   1.619   0.535  12.440
 1384SOL    HW2 4839   1.739   0.568  12.334
 1385SOL     OW 4840   0.252   1.564  12.916
 1385SOL    HW1 4841   0.222   1.621  12.992
 1385SOL    HW2 4842   0.245   1.467  12.942
 1386SOL     OW 4843   0.671   0.464  12.441
 1386SOL    HW1 4844   0.637   0.375  12.411
 1386SOL    HW2 4845   0.697   0.518  12.361
 1387SOL     OW 4846   0.930   1.678  12.637
 1387SOL    HW1 4847   0.906   1.660  12.542
 1387SOL    HW2 4848   0.960   1.772  12.647
 1388SOL     OW 4849   0.473   0.500  11.363
 1388SOL    HW1 4850   0.534   0.580  11.367
 1388SOL    HW2 4851   0.378   0.531  11.370
 1389SOL     OW 4852   0.159   1.137  12.638
 1389SOL    HW1 4853   0.181   1.076  12.714
 1389SOL    HW2 4854   0.169   1.088  12.552
 1390SOL     OW 4855   1.347   1.059  12.406
 1390SOL    HW1 4856   1.371   0.996  12.332
 1390SOL    HW2 4857   1.257   1.099  12.388
 1391SOL     OW 4858   1.302   0.855  11.481
 1391SOL    HW1 4859   1.216   0.824  11.523
 1391SOL    HW2 4860   1.298   0.841  11.382
 1392SOL     OW 4861   1.759   1.747  12.326
 1392SOL    HW1 4862   1.820   1.777  12.253
 1392SOL    HW2 4863   1.721   1.658  12.304
 1393SOL     OW 4864   1.252   1.731  12.300
 1393SOL    HW1 4865   1.336   1.736  12.246
 1393SOL    HW2 4866   1.229   1.635  12.318
 1394SOL     OW 4867   0.083   1.258  12.194
 1394SOL    HW1 4868   0.078   1.257  12.294
 1394SOL    HW2 4869   0.000   1.217  12.156
 1395SOL     OW 4870   0.688   1.662  12.888
 1395SOL    HW1 4871   0.632   1.743  12.897
 1395SOL    HW2 4872   0.740   1.666  12.802
 1396SOL     OW 4873   1.726   0.135  11.695
 1396SOL    HW1 4874   1.799   0.118  11.628
 1396SOL    HW2 4875   1.695   0.048  11.733
 1397SOL     OW 4876   1.388   1.573  11.649
 1397SOL    HW1 4877   1.455   1.585  11.575
 1397SOL    HW2 4878   1.348   1.662  11.672
 1398SOL     OW 4879   0.130   1.794  13.023
 1398SOL    HW1 4880   0.089   1.720  13.076
 1398SOL    HW2 4881   0.194   1.845  13.081
 1399SOL     OW 4882   1.280   0.927  11.844
 1399SOL    HW1 4883   1.340   0.846  11.846
 1399SOL    HW2 4884   1.320   0.996  11.784
 1400SOL     OW 4885   0.830   1.273  12.594
 1400SOL    HW1 4886   0.825   1.306  12.689
 1400SOL    HW2 4887   0.744   1.292  12.548
 1401SOL     OW 4888   0.672   1.616  11.326
 1401SOL    HW1 4889   0.681   1.626  11.227
 1401SOL    HW2 4890   0.632   1.527  11.347
 1402SOL     OW 4891   1.650   1.720  12.566
 1402SOL    HW1 4892   1.703   1.730  12.482
 1402SOL    HW2 4893   1.623   1.810  12.600
 1403SOL     OW 4894   1.841   0.175  12.135
 1403SOL    HW1 4895   1.880   0.090  12.099
 1403SOL    HW2 4896   1.743   0.177  12.116
 1404SOL     OW 4897   0.263   0.326  11.892
 1404SOL    HW1 4898   0.184   0.377  11.858
 1404SOL    HW2 4899   0.254   0.311  11.990
 1405SOL     OW 4900   1.194   1.612  11.203
 1405SOL    HW1 4901   1.200   1.519  11.240
 1405SOL    HW2 4902   1.135   1.612  11.123
 1406SOL     OW 4903   0.822   1.002  12.544
 1406SOL    HW1 4904   0.862   1.001  12.452
 1406SOL    HW2 4905   0.832   1.094  12.584
 1407SOL     OW 4906   0.916   0.910  11.463
 1407SOL    HW1 4907   0.979   0.948  11.395
 1407SOL    HW2 4908   0.956   0.827  11.502
 1408SOL     OW 4909   1.504   1.607  11.216
 1408SOL    HW1 4910   1.412   1.644  11.223
 1408SOL    HW2 4911   1.542   1.627  11.126
 1409SOL     OW 4912   0.372   1.288  12.662
 1409SOL    HW1 4913   0.359   1.381  12.628
 1409SOL    HW2 4914   0.288   1.236  12.649
 1410SOL     OW 4915   1.614   1.292  12.461
 1410SOL    HW1 4916   1.674   1.295  12.541
 1410SOL    HW2 4917   1.539   1.356  12.474
 1411SOL     OW 4918   1.039   1.098  11.868
 1411SOL    HW1 4919   0.969   1.051  11.922
 1411SOL    HW2 4920   1.098   1.030  11.825
 1412SOL     OW 4921   1.014   0.236  12.143
 1412SOL    HW1 4922   1.006   0.200  12.050
 1412SOL    HW2 4923   1.012   0.160  12.208
 1413SOL     OW 4924   0.590   1.487  11.663
 1413SOL    HW1 4925   0.632   1.429  11.593
 1413SOL    HW2 4926   0.546   1.566  11.619
 1414SOL     OW 4927   1.709   0.385  12.553
 1414SOL    HW1 4928   1.782   0.454  12.557
 1414SOL    HW2 4929   1.737   0.310  12.494
 1415SOL     OW 4930   0.255   1.348  11.462
 1415SOL    HW1 4931   0.159   1.349  11.435
 1415SOL    HW2 4932   0.267   1.401  11.546
 1416SOL     OW 4933   0.105   1.013  12.898
 1416SOL    HW1 4934   0.028   0.980  12.952
 1416SOL    HW2 4935   0.190   0.983  12.940
 1417SOL     OW 4936   0.672   0.203  12.661
 1417SOL    HW1 4937   0.762   0.187  12.621
 1417SOL    HW2 4938   0.680   0.208  12.760
 1418SOL     OW 4939   0.075   0.345  11.205
 1418SOL    HW1 4940  -0.017   0.317  11.176
 1418SOL    HW2 4941   0.106   0.422  11.149
 1419SOL     OW 4942   1.440   0.856  12.570
 1419SOL    HW1 4943   1.383   0.908  12.507
 1419SOL    HW2 4944   1.536   0.868  12.546
 1420SOL     OW 4945   0.072   0.166  11.490
 1420SOL    HW1 4946   0.055   0.249  11.436
 1420SOL    HW2 4947   0.162   0.129  11.468
 1421SOL     OW 4948   1.183   1.335  11.291
 1421SOL    HW1 4949   1.084   1.324  11.293
 1421SOL    HW2 4950   1.217   1.350  11.384
 1422SOL     OW 4951   0.613   0.842  12.603
 1422SOL    HW1 4952   0.669   0.923  12.586
 1422SOL    HW2 4953   0.672   0.762  12.606
 1423SOL     OW 4954   1.493   1.767  12.131
 1423SOL    HW1 4955   1.526   1.831  12.062
 1423SOL    HW2 4956   1.559   1.761  12.206
 1424SOL     OW 4957   0.716   0.565  12.880
 1424SOL    HW1 4958   0.735   0.630  12.954
 1424SOL    HW2 4959   0.776   0.485  12.889
 1425SOL     OW 4960   1.450   1.220  12.805
 1425SOL    HW1 4961   1.441   1.210  12.904
 1425SOL    HW2 4962   1.546   1.213  12.779
 1426SOL     OW 4963   0.390   1.741  12.732
 1426SOL    HW1 4964   0.299   1.782  12.730
 1426SOL    HW2 4965   0.383   1.647  12.764
 1427SOL     OW 4966   1.674   0.883  12.426
 1427SOL    HW1 4967   1.647   0.794  12.389
 1427SOL    HW2 4968   1.675   0.951  12.353
 1428SOL     OW 4969   1.225   0.325  11.621
 1428SOL    HW1 4970   1.290   0.251  11.610
 1428SOL    HW2 4971   1.245   0.375  11.705
 1429SOL     OW 4972   0.594   0.745  11.824
 1429SOL    HW1 4973   0.644   0.830  11.805
 1429SOL    HW2 4974   0.506   0.747  11.776
 1430SOL     OW 4975   1.777   0.342  12.814
 1430SOL    HW1 4976   1.760   0.373  12.720
 1430SOL    HW2 4977   1.693   0.305  12.852
 1431SOL     OW 4978   1.730   0.934  12.689
 1431SOL    HW1 4979   1.768   1.025  12.704
 1431SOL    HW2 4980   1.722   0.917  12.590
 1432SOL     OW 4981   0.859   1.374  11.188
 1432SOL    HW1 4982   0.813   1.389  11.276
 1432SOL    HW2 4983   0.903   1.459  11.158
 1433SOL     OW 4984   0.661   1.790  12.125
 1433SOL    HW1 4985   0.615   1.878  12.112
 1433SOL    HW2 4986   0.760   1.802  12.118
 1434SOL     OW 4987   0.859   0.956  12.033
 1434SOL    HW1 4988   0.913   0.887  12.081
 1434SOL    HW2 4989   0.827   1.025  12.099
 1435SOL     OW 4990   1.083   0.984  11.259
 1435SOL    HW1 4991   1.060   1.037  11.177
 1435SOL    HW2 4992   1.164   0.928  11.240
 1436SOL     OW 4993   1.861   1.569  12.023
 1436SOL    HW1 4994   1.790   1.557  11.953
 1436SOL    HW2 4995   1.862   1.490  12.083
 1437SOL     OW 4996   0.221   1.314  13.016
 1437SOL    HW1 4997   0.156   1.241  12.995
 1437SOL    HW2 4998   0.225   1.328  13.114
 1438SOL     OW 4999   0.079   1.240  11.825
 1438SOL    HW1 5000   0.078   1.193  11.913
 1438SOL    HW2 5001   0.161   1.212  11.774
 1439SOL     OW 5002   0.672   1.391  12.796
 1439SOL    HW1 5003   0.594   1.341  12.834
 1439SOL    HW2 5004   0.669   1.486  12.827
 1440SOL     OW 5005   1.824   0.192  12.399
 1440SOL    HW1 5006   1.820   0.102  12.443
 1440SOL    HW2 5007   1.827   0.181  12.300
 1441SOL     OW 5008   0.428   0.424  11.692
 1441SOL    HW1 5009   0.458   0.352  11.630
 1441SOL    HW2 5010   0.389   0.384  11.775
 1442SOL     OW 5011   1.705   1.487  12.276
 1442SOL    HW1 5012   1.612   1.462  12.249
 1442SOL    HW2 5013   1.731   1.437  12.358
 1443SOL     OW 5014   0.317   0.547  12.452
 1443SOL    HW1 5015   0.355   0.488  12.524
 1443SOL    HW2 5016   0.357   0.521  12.364
 1444SOL     OW 5017   0.812   1.586  11.859
 1444SOL    HW1 5018   0.844   1.596  11.765
 1444SOL    HW2 5019   0.733   1.524  11.861
 1445SOL     OW 5020   1.424   0.214  12.284
 1445SOL    HW1 5021   1.476   0.149  12.339
 1445SOL    HW2 5022   1.375   0.277  12.345
 1446SOL     OW 5023   1.001   0.034  12.326
 1446SOL    HW1 5024   0.938  -0.038  12.295
 1446SOL    HW2 5025   1.094  -0.002  12.326
 1447SOL     OW 5026   0.770   1.330  11.473
 1447SOL    HW1 5027   0.724   1.243  11.490
 1447SOL    HW2 5028   0.861   1.327  11.514
 1448SOL     OW 5029   0.618   1.567  12.456
 1448SOL    HW1 5030   0.613   1.649  12.513
 1448SOL    HW2 5031   0.707   1.564  12.411
 1449SOL     OW 5032   1.352   0.052  11.340
 1449SOL    HW1 5033   1.387   0.011  11.256
 1449SOL    HW2 5034   1.262   0.014  11.360
 1450SOL     OW 5035   1.300   0.453  11.863
 1450SOL    HW1 5036   1.241   0.533  11.867
 1450SOL    HW2 5037   1.315   0.418  11.956
 1451SOL     OW 5038   1.593   0.221  12.054
 1451SOL    HW1 5039   1.509   0.220  12.108
 1451SOL    HW2 5040   1.595   0.304  11.998
 1452SOL     OW 5041   0.039   1.077  11.472
 1452SOL    HW1 5042   0.138   1.066  11.463
 1452SOL    HW2 5043  -0.001   0.991  11.504
 1453SOL     OW 5044   0.875   1.646  11.509
 1453SOL    HW1 5045   0.798   1.611  11.455
 1453SOL    HW2 5046   0.843   1.717  11.571
 1454SOL     OW 5047   0.230   0.628  13.147
 1454SOL    HW1 5048   0.137   0.626  13.184
 1454SOL    HW2 5049   0.231   0.589  13.055
 1455SOL     OW 5050   0.225   0.275  14.030
 1455SOL    HW1 5051   0.260   0.258  14.122
 1455SOL    HW2 5052   0.137   0.230  14.018
 1456SOL     OW 5053   0.019   0.368  13.681
 1456SOL    HW1 5054  -0.063   0.411  13.720
 1456SOL    HW2 5055  -0.009   0.295  13.618
 1457SOL     OW 5056   1.555   1.511  13.737
 1457SOL    HW1 5057   1.498   1.495  13.818
 1457SOL    HW2 5058   1.496   1.521  13.657
 1458SOL     OW 5059   1.135   0.703  13.751
 1458SOL    HW1 5060   1.192   0.781  13.726
 1458SOL    HW2 5061   1.075   0.729  13.827
 1459SOL     OW 5062   1.755   0.607  13.265
 1459SOL    HW1 5063   1.743   0.594  13.166
 1459SOL    HW2 5064   1.725   0.526  13.314
 1460SOL     OW 5065   0.685   1.012  13.699
 1460SOL    HW1 5066   0.754   0.996  13.769
 1460SOL    HW2 5067   0.612   1.069  13.737
 1461SOL     OW 5068   1.603   0.447  13.771
 1461SOL    HW1 5069   1.529   0.493  13.721
 1461SOL    HW2 5070   1.654   0.515  13.824
 1462SOL     OW 5071   0.231   1.713  13.517
 1462SOL    HW1 5072   0.265   1.790  13.571
 1462SOL    HW2 5073   0.275   1.713  13.427
 1463SOL     OW 5074   0.230   1.434  13.572
 1463SOL    HW1 5075   0.204   1.530  13.572
 1463SOL    HW2 5076   0.159   1.380  13.617
 1464SOL     OW 5077   0.240   1.091  13.920
 1464SOL    HW1 5078   0.254   1.007  13.972
 1464SOL    HW2 5079   0.185   1.155  13.975
 1465SOL     OW 5080   0.606   0.964  13.157
 1465SOL    HW1 5081   0.613   1.048  13.103
 1465SOL    HW2 5082   0.652   0.977  13.245
 1466SOL     OW 5083   0.122   0.643  13.597
 1466SOL    HW1 5084   0.077   0.555  13.614
 1466SOL    HW2 5085   0.121   0.697  13.681
 1467SOL     OW 5086   0.027   1.596  13.151
 1467SOL    HW1 5087   0.008   1.500  13.172
 1467SOL    HW2 5088  -0.006   1.654  13.226
 1468SOL     OW 5089   1.689   0.922  13.646
 1468SOL    HW1 5090   1.784   0.893  13.654
 1468SOL    HW2 5091   1.681   0.987  13.571
 1469SOL     OW 5092   1.641   1.108  13.466
 1469SOL    HW1 5093   1.727   1.110  13.414
 1469SOL    HW2 5094   1.655   1.155  13.554
 1470SOL     OW 5095   0.613   1.365  13.760
 1470SOL    HW1 5096   0.564   1.278  13.769
 1470SOL    HW2 5097   0.590   1.408  13.673
 1471SOL     OW 5098   0.809   0.004  13.536
 1471SOL    HW1 5099   0.849   0.095  13.527
 1471SOL    HW2 5100   0.709   0.012  13.542
 1472SOL     OW 5101   1.525   0.999  13.224
 1472SOL    HW1 5102   1.462   0.923  13.237
 1472SOL    HW2 5103   1.573   1.017  13.310
 1473SOL     OW 5104   1.667   1.714  13.606
 1473SOL    HW1 5105   1.626   1.691  13.518
 1473SOL    HW2 5106   1.649   1.640  13.671
 1474SOL     OW 5107   0.598   0.729  13.304
 1474SOL    HW1 5108   0.622   0.798  13.236
 1474SOL    HW2 5109   0.520   0.762  13.358
 1475SOL     OW 5110   1.281   0.345  13.978
 1475SOL    HW1 5111   1.195   0.295  13.965
 1475SOL    HW2 5112   1.343   0.291  14.034
 1476SOL     OW 5113   1.576   1.662  13.341
 1476SOL    HW1 5114   1.665   1.708  13.344
 1476SOL    HW2 5115   1.555   1.638  13.246
 1477SOL     OW 5116   1.041   0.701  13.463
 1477SOL    HW1 5117   1.067   0.697  13.559
 1477SOL    HW2 5118   0.956   0.650  13.449
 1478SOL     OW 5119   0.076   0.811  13.823
 1478SOL    HW1 5120   0.175   0.799  13.832
 1478SOL    HW2 5121   0.052   0.906  13.844
 1479SOL     OW 5122   0.865   0.348  13.229
 1479SOL    HW1 5123   0.924   0.411  13.180
 1479SOL    HW2 5124   0.884   0.254  13.200
 1480SOL     OW 5125   1.362   1.144  13.579
 1480SOL    HW1 5126   1.445   1.115  13.531
 1480SOL    HW2 5127   1.313   1.211  13.523
 1481SOL     OW 5128   1.008   1.456  13.511
 1481SOL    HW1 5129   0.962   1.528  13.459
 1481SOL    HW2 5130   1.004   1.476  13.609
 1482SOL     OW 5131   0.351   1.801  13.887
 1482SOL    HW1 5132   0.401   1.715  13.893
 1482SOL    HW2 5133   0.416   1.878  13.884
 1483SOL     OW 5134   1.795   1.066  13.907
 1483SOL    HW1 5135   1.733   1.051  13.831
 1483SOL    HW2 5136   1.743   1.077  13.992
 1484SOL     OW 5137   0.321   0.943  13.276
 1484SOL    HW1 5138   0.403   0.982  13.234
 1484SOL    HW2 5139   0.294   0.861  13.227
 1485SOL     OW 5140   1.458   0.735  13.762
 1485SOL    HW1 5141   1.453   0.670  13.837
 1485SOL    HW2 5142   1.538   0.794  13.775
 1486SOL     OW 5143   1.111   1.776  13.271
 1486SOL    HW1 5144   1.051   1.714  13.321
 1486SOL    HW2 5145   1.142   1.732  13.186
 1487SOL     OW 5146   1.632   1.377  13.115
 1487SOL    HW1 5147   1.600   1.471  13.105
 1487SOL    HW2 5148   1.556   1.314  13.103
 1488SOL     OW 5149   0.464   1.743  13.357
 1488SOL    HW1 5150   0.497   1.782  13.443
 1488SOL    HW2 5151   0.540   1.736  13.292
 1489SOL     OW 5152   1.400   0.107  13.460
 1489SOL    HW1 5153   1.376   0.070  13.370
 1489SOL    HW2 5154   1.499   0.123  13.464
 1490SOL     OW 5155   0.940   1.698  13.938
 1490SOL    HW1 5156   1.020   1.641  13.959
 1490SOL    HW2 5157   0.891   1.658  13.861
 1491SOL     OW 5158   0.382   0.700  13.514
 1491SOL    HW1 5159   0.427   0.610  13.511
 1491SOL    HW2 5160   0.288   0.689  13.547
 1492SOL     OW 5161   0.614   0.122  13.151
 1492SOL    HW1 5162   0.712   0.100  13.158
 1492SOL    HW2 5163   0.583   0.105  13.058
 1493SOL     OW 5164   0.539   0.064  13.546
 1493SOL    HW1 5165   0.458   0.065  13.604
 1493SOL    HW2 5166   0.542   0.147  13.491
 1494SOL     OW 5167   1.434   1.188  13.075
 1494SOL    HW1 5168   1.466   1.112  13.132
 1494SOL    HW2 5169   1.342   1.215  13.105
 1495SOL     OW 5170   0.297   0.035  13.205
 1495SOL    HW1 5171   0.346   0.119  13.184
 1495SOL    HW2 5172   0.359  -0.030  13.250
 1496SOL     OW 5173   0.935   0.236  13.514
 1496SOL    HW1 5174   0.887   0.277  13.436
 1496SOL    HW2 5175   1.034   0.234  13.495
 1497SOL     OW 5176   0.459   1.152  13.775
 1497SOL    HW1 5177   0.388   1.125  13.840
 1497SOL    HW2 5178   0.433   1.124  13.682
 1498SOL     OW 5179   1.271   1.797  13.625
 1498SOL    HW1 5180   1.315   1.861  13.561
 1498SOL    HW2 5181   1.221   1.849  13.695
 1499SOL     OW 5182   1.032   0.549  13.050
 1499SOL    HW1 5183   0.991   0.631  13.011
 1499SOL    HW2 5184   1.096   0.575  13.123
 1500SOL     OW 5185   0.866   0.454  13.676
 1500SOL    HW1 5186   0.834   0.526  13.614
 1500SOL    HW2 5187   0.890   0.373  13.623
 1501SOL     OW 5188   1.017   0.039  13.787
 1501SOL    HW1 5189   0.945   0.044  13.718
 1501SOL    HW2 5190   0.993  -0.030  13.856
 1502SOL     OW 5191   1.857   0.833  13.411
 1502SOL    HW1 5192   1.899   0.769  13.475
 1502SOL    HW2 5193   1.819   0.782  13.333
 1503SOL     OW 5194   0.488   1.385  13.208
 1503SOL    HW1 5195   0.401   1.370  13.255
 1503SOL    HW2 5196   0.471   1.411  13.113
 1504SOL     OW 5197   1.664   1.280  13.691
 1504SOL    HW1 5198   1.763   1.288  13.705
 1504SOL    HW2 5199   1.619   1.364  13.722
 1505SOL     OW 5200   1.390   0.575  13.112
 1505SOL    HW1 5201   1.336   0.554  13.193
 1505SOL    HW2 5202   1.481   0.534  13.121
 1506SOL     OW 5203   0.527   0.256  13.362
 1506SOL    HW1 5204   0.554   0.197  13.287
 1506SOL    HW2 5205   0.527   0.351  13.331
 1507SOL     OW 5206   0.705   1.050  13.402
 1507SOL    HW1 5207   0.691   1.057  13.501
 1507SOL    HW2 5208   0.789   0.999  13.384
 1508SOL     OW 5209   0.367   1.100  13.535
 1508SOL    HW1 5210   0.360   1.183  13.479
 1508SOL    HW2 5211   0.371   1.020  13.475
 1509SOL     OW 5212   0.566   0.537  13.899
 1509SOL    HW1 5213   0.578   0.603  13.825
 1509SOL    HW2 5214   0.612   0.571  13.982
 1510SOL     OW 5215   1.252   1.348  13.422
 1510SOL    HW1 5216   1.302   1.425  13.462
 1510SOL    HW2 5217   1.157   1.350  13.454
 1511SOL     OW 5218   1.582   0.639  13.506
 1511SOL    HW1 5219   1.551   0.700  13.579
 1511SOL    HW2 5220   1.632   0.691  13.437
 1512SOL     OW 5221   1.209   0.525  13.309
 1512SOL    HW1 5222   1.222   0.441  13.363
 1512SOL    HW2 5223   1.180   0.599  13.369
 1513SOL     OW 5224   0.307   0.063  13.652
 1513SOL    HW1 5225   0.296   0.157  13.685
 1513SOL    HW2 5226   0.302   0.000  13.729
 1514SOL     OW 5227   1.622   0.367  13.408
 1514SOL    HW1 5228   1.624   0.291  13.472
 1514SOL    HW2 5229   1.574   0.444  13.448
 1515SOL     OW 5230   1.540   0.274  13.159
 1515SOL    HW1 5231   1.479   0.199  13.182
 1515SOL    HW2 5232   1.562   0.326  13.242
 1516SOL     OW 5233   1.303   0.838  13.076
 1516SOL    HW1 5234   1.337   0.745  13.091
 1516SOL    HW2 5235   1.321   0.865  12.981
 1517SOL     OW 5236   0.008   1.326  13.234
 1517SOL    HW1 5237  -0.085   1.347  13.203
 1517SOL    HW2 5238   0.018   1.227  13.247
 1518SOL     OW 5239   0.815   0.572  13.359
 1518SOL    HW1 5240   0.822   0.483  13.313
 1518SOL    HW2 5241   0.721   0.606  13.351
 1519SOL     OW 5242   0.473   0.500  13.225
 1519SOL    HW1 5243   0.534   0.580  13.229
 1519SOL    HW2 5244   0.378   0.531  13.232
 1520SOL     OW 5245   1.302   0.855  13.343
 1520SOL    HW1 5246   1.216   0.824  13.385
 1520SOL    HW2 5247   1.298   0.841  13.244
 1521SOL     OW 5248   1.726   0.135  13.557
 1521SOL    HW1 5249   1.799   0.118  13.490
 1521SOL    HW2 5250   1.695   0.048  13.595
 1522SOL     OW 5251   1.388   1.573  13.511
 1522SOL    HW1 5252   1.455   1.585  13.437
 1522SOL    HW2 5253   1.348   1.662  13.534
 1523SOL     OW 5254   1.280   0.927  13.706
 1523SOL    HW1 5255   1.340   0.846  13.708
 1523SOL    HW2 5256   1.320   0.996  13.646
 1524SOL     OW 5257   0.672   1.616  13.188
 1524SOL    HW1 5258   0.681   1.626  13.089
 1524SOL    HW2 5259   0.632   1.527  13.209
 1525SOL     OW 5260   1.841   0.175  13.997
 1525SOL    HW1 5261   1.880   0.090  13.961
 1525SOL    HW2 5262   1.743   0.177  13.978
 1526SOL     OW 5263   0.263   0.326  13.754
 1526SOL    HW1 5264   0.184   0.377  13.720
 1526SOL    HW2 5265   0.254   0.311  13.852
 1527SOL     OW 5266   1.194   1.612  13.065
 1527SOL    HW1 5267   1.200   1.519  13.102
 1527SOL    HW2 5268   1.135   1.612  12.985
 1528SOL     OW 5269   0.916   0.910  13.325
 1528SOL    HW1 5270   0.979   0.948  13.257
 1528SOL    HW2 5271   0.956   0.827  13.364
 1529SOL     OW 5272   1.504   1.607  13.078
 1529SOL    HW1 5273   1.412   1.644  13.085
 1529SOL    HW2 5274   1.542   1.627  12.988
 1530SOL     OW 5275   1.039   1.098  13.730
 1530SOL    HW1 5276   0.969   1.051  13.784
 1530SOL    HW2 5277   1.098   1.030  13.687
 1531SOL     OW 5278   0.590   1.487  13.525
 1531SOL    HW1 5279   0.632   1.429  13.455
 1531SOL    HW2 5280   0.546   1.566  13.481
 1532SOL     OW 5281   0.255   1.348  13.324
 1532SOL    HW1 5282   0.159   1.349  13.297
 1532SOL    HW2 5283   0.267   1.401  13.408
 1533SOL     OW 5284   0.075   0.345  13.067
 1533SOL    HW1 5285  -0.017   0.317  13.038
 1533SOL    HW2 5286   0.106   0.422  13.011
 1534SOL     OW 5287   0.072   0.166  13.352
 1534SOL    HW1 5288   0.055   0.249  13.298
 1534SOL    HW2 5289   0.162   0.129  13.330
 1535SOL     OW 5290   1.183   1.335  13.153
 1535SOL    HW1 5291   1.084   1.324  13.155
 1535SOL    HW2 5292   1.217   1.350  13.246
 1536SOL     OW 5293   1.225   0.325  13.483
 1536SOL    HW1 5294   1.290   0.251  13.472
 1536SOL    HW2 5295   1.245   0.375  13.567
 1537SOL     OW 5296   0.594   0.745  13.686
 1537SOL    HW1 5297   0.644   0.830  13.667
 1537SOL    HW2 5298   0.506   0.747  13.638
 1538SOL     OW 5299   0.859   1.374  13.050
 1538SOL    HW1 5300   0.813   1.389  13.138
 1538SOL    HW2 5301   0.903   1.459  13.020
 1539SOL     OW 5302   0.661   1.790  13.987
 1539SOL    HW1 5303   0.615   1.878  13.974
 1539SOL    HW2 5304   0.760   1.802  13.980
 1540SOL     OW 5305   0.859   0.956  13.895
 1540SOL    HW1 5306   0.913   0.887  13.943
 1540SOL    HW2 5307   0.827   1.025  13.961
 1541SOL     OW 5308   1.083   0.984  13.121
 1541SOL    HW1 5309   1.060   1.037  13.039
 1541SOL    HW2 5310   1.164   0.928  13.102
 1542SOL     OW 5311   0.079   1.240  13.687
 1542SOL    HW1 5312   0.078   1.193  13.775
 1542SOL    HW2 5313   0.161   1.212  13.636
 1543SOL     OW 5314   0.428   0.424  13.554
 1543SOL    HW1 5315   0.458   0.352  13.492
 1543SOL    HW2 5316   0.389   0.384  13.637
 1544SOL     OW 5317   1.705   1.487  14.138
 1544SOL    HW1 5318   1.612   1.462  14.111
 1544SOL    HW2 5319   1.731   1.437  14.220
 1545SOL     OW 5320   0.812   1.586  13.721
 1545SOL    HW1 5321   0.844   1.596  13.627
 1545SOL    HW2 5322   0.733   1.524  13.723
 1546SOL     OW 5323   0.770   1.330  13.335
 1546SOL    HW1 5324   0.724   1.243  13.352
 1546SOL    HW2 5325   0.861   1.327  13.376
 1547SOL     OW 5326   1.352   0.052  13.202
 1547SOL    HW1 5327   1.387   0.011  13.118
 1547SOL    HW2 5328   1.262   0.014  13.222
 1548SOL     OW 5329   1.300   0.453  13.725
 1548SOL    HW1 5330   1.241   0.533  13.729
 1548SOL    HW2 5331   1.315   0.418  13.818
 1549SOL     OW 5332   0.039   1.077  13.334
 1549SOL    HW1 5333   0.138   1.066  13.325
 1549SOL    HW2 5334  -0.001   0.991  13.366
 1550SOL     OW 5335   0.875   1.646  13.371
 1550SOL    HW1 5336   0.798   1.611  13.317
 1550SOL    HW2 5337   0.843   1.717  13.433
 1551SOL     OW 5338   0.230   2.490   0.113
 1551SOL    HW1 5339   0.137   2.488   0.150
 1551SOL    HW2 5340   0.231   2.451   0.021
 1552SOL     OW 5341   0.225   2.137   0.996
 1552SOL    HW1 5342   0.260   2.120   1.088
 1552SOL    HW2 5343   0.137   2.092   0.984
 1553SOL     OW 5344   0.019   2.230   0.647
 1553SOL    HW1 5345  -0.063   2.273   0.686
 1553SOL    HW2 5346  -0.009   2.157   0.584
 1554SOL     OW 5347   0.569   3.137   1.165
 1554SOL    HW1 5348   0.476   3.130   1.128
 1554SOL    HW2 5349   0.580   3.226   1.209
 1555SOL     OW 5350   1.555   3.373   0.703
 1555SOL    HW1 5351   1.498   3.357   0.784
 1555SOL    HW2 5352   1.496   3.383   0.623
 1556SOL     OW 5353   1.135   2.565   0.717
 1556SOL    HW1 5354   1.192   2.643   0.692
 1556SOL    HW2 5355   1.075   2.591   0.793
 1557SOL     OW 5356   1.755   2.469   0.231
 1557SOL    HW1 5357   1.743   2.456   0.132
 1557SOL    HW2 5358   1.725   2.388   0.280
 1558SOL     OW 5359   0.768   3.006   1.023
 1558SOL    HW1 5360   0.690   3.023   1.083
 1558SOL    HW2 5361   0.802   3.093   0.987
 1559SOL     OW 5362   0.850   2.660   1.823
 1559SOL    HW1 5363   0.846   2.736   1.888
 1559SOL    HW2 5364   0.872   2.696   1.732
 1560SOL     OW 5365   0.685   2.874   0.665
 1560SOL    HW1 5366   0.754   2.858   0.735
 1560SOL    HW2 5367   0.612   2.931   0.703
 1561SOL     OW 5368   0.686   3.023   1.803
 1561SOL    HW1 5369   0.746   3.102   1.817
 1561SOL    HW2 5370   0.600   3.054   1.762
 1562SOL     OW 5371   0.335   3.297   1.061
 1562SOL    HW1 5372   0.257   3.266   1.008
 1562SOL    HW2 5373   0.393   3.355   1.004
 1563SOL     OW 5374   1.460   3.367   1.339
 1563SOL    HW1 5375   1.484   3.461   1.365
 1563SOL    HW2 5376   1.444   3.313   1.421
 1564SOL     OW 5377   0.438   2.254   1.499
 1564SOL    HW1 5378   0.520   2.198   1.508
 1564SOL    HW2 5379   0.357   2.196   1.503
 1565SOL     OW 5380   1.603   2.309   0.737
 1565SOL    HW1 5381   1.529   2.355   0.687
 1565SOL    HW2 5382   1.654   2.377   0.790
 1566SOL     OW 5383   0.231   3.575   0.483
 1566SOL    HW1 5384   0.265   3.652   0.537
 1566SOL    HW2 5385   0.275   3.575   0.393
 1567SOL     OW 5386   1.127   3.203   1.690
 1567SOL    HW1 5387   1.174   3.203   1.778
 1567SOL    HW2 5388   1.079   3.116   1.679
 1568SOL     OW 5389   0.230   3.296   0.538
 1568SOL    HW1 5390   0.204   3.392   0.538
 1568SOL    HW2 5391   0.159   3.242   0.583
 1569SOL     OW 5392   0.240   2.953   0.886
 1569SOL    HW1 5393   0.254   2.869   0.938
 1569SOL    HW2 5394   0.185   3.017   0.941
 1570SOL     OW 5395   0.620   3.648   1.439
 1570SOL    HW1 5396   0.528   3.631   1.474
 1570SOL    HW2 5397   0.648   3.740   1.465
 1571SOL     OW 5398   0.606   2.826   0.123
 1571SOL    HW1 5399   0.613   2.910   0.069
 1571SOL    HW2 5400   0.652   2.839   0.211
 1572SOL     OW 5401   1.594   1.976   1.480
 1572SOL    HW1 5402   1.576   2.043   1.408
 1572SOL    HW2 5403   1.591   2.022   1.569
 1573SOL     OW 5404   0.122   2.505   0.563
 1573SOL    HW1 5405   0.077   2.417   0.580
 1573SOL    HW2 5406   0.121   2.559   0.647
 1574SOL     OW 5407   1.842   3.629   0.359
 1574SOL    HW1 5408   1.896   3.600   0.439
 1574SOL    HW2 5409   1.872   3.719   0.330
 1575SOL     OW 5410   0.027   3.458   0.117
 1575SOL    HW1 5411   0.008   3.362   0.138
 1575SOL    HW2 5412  -0.006   3.516   0.192
 1576SOL     OW 5413   1.689   2.784   0.612
 1576SOL    HW1 5414   1.784   2.755   0.620
 1576SOL    HW2 5415   1.681   2.849   0.537
 1577SOL     OW 5416   1.641   2.970   0.432
 1577SOL    HW1 5417   1.727   2.972   0.380
 1577SOL    HW2 5418   1.655   3.017   0.520
 1578SOL     OW 5419   0.113   2.599   1.597
 1578SOL    HW1 5420   0.201   2.586   1.642
 1578SOL    HW2 5421   0.100   2.696   1.575
 1579SOL     OW 5422   0.613   3.227   0.726
 1579SOL    HW1 5423   0.564   3.140   0.735
 1579SOL    HW2 5424   0.590   3.270   0.639
 1580SOL     OW 5425   1.293   3.090   1.423
 1580SOL    HW1 5426   1.330   3.017   1.365
 1580SOL    HW2 5427   1.345   3.095   1.508
 1581SOL     OW 5428   0.809   1.866   0.502
 1581SOL    HW1 5429   0.849   1.957   0.493
 1581SOL    HW2 5430   0.709   1.874   0.508
 1582SOL     OW 5431   0.197   2.838   1.264
 1582SOL    HW1 5432   0.286   2.793   1.250
 1582SOL    HW2 5433   0.124   2.773   1.245
 1583SOL     OW 5434   1.525   2.861   0.190
 1583SOL    HW1 5435   1.462   2.785   0.203
 1583SOL    HW2 5436   1.573   2.879   0.276
 1584SOL     OW 5437   1.187   3.654   1.616
 1584SOL    HW1 5438   1.211   3.714   1.540
 1584SOL    HW2 5439   1.194   3.559   1.586
 1585SOL     OW 5440   0.317   2.113   1.801
 1585SOL    HW1 5441   0.388   2.184   1.807
 1585SOL    HW2 5442   0.229   2.152   1.829
 1586SOL     OW 5443   1.466   3.279   0.953
 1586SOL    HW1 5444   1.407   3.285   1.033
 1586SOL    HW2 5445   1.451   3.191   0.907
 1587SOL     OW 5446   1.667   3.576   0.572
 1587SOL    HW1 5447   1.626   3.553   0.484
 1587SOL    HW2 5448   1.649   3.502   0.637
 1588SOL     OW 5449   0.598   2.591   0.270
 1588SOL    HW1 5450   0.622   2.660   0.202
 1588SOL    HW2 5451   0.520   2.624   0.324
 1589SOL     OW 5452   1.281   2.207   0.944
 1589SOL    HW1 5453   1.195   2.157   0.931
 1589SOL    HW2 5454   1.343   2.153   1.000
 1590SOL     OW 5455   1.576   3.524   0.307
 1590SOL    HW1 5456   1.665   3.570   0.310
 1590SOL    HW2 5457   1.555   3.500   0.212
 1591SOL     OW 5458   0.807   2.467   1.465
 1591SOL    HW1 5459   0.760   2.464   1.554
 1591SOL    HW2 5460   0.756   2.412   1.399
 1592SOL     OW 5461   1.394   2.331   1.674
 1592SOL    HW1 5462   1.374   2.374   1.762
 1592SOL    HW2 5463   1.472   2.269   1.683
 1593SOL     OW 5464   0.973   2.752   1.572
 1593SOL    HW1 5465   1.019   2.668   1.543
 1593SOL    HW2 5466   0.917   2.786   1.497
 1594SOL     OW 5467   0.991   2.272   1.242
 1594SOL    HW1 5468   0.914   2.306   1.296
 1594SOL    HW2 5469   0.957   2.221   1.163
 1595SOL     OW 5470   1.041   2.563   0.429
 1595SOL    HW1 5471   1.067   2.559   0.525
 1595SOL    HW2 5472   0.956   2.512   0.415
 1596SOL     OW 5473   0.076   2.673   0.789
 1596SOL    HW1 5474   0.175   2.661   0.798
 1596SOL    HW2 5475   0.052   2.768   0.810
 1597SOL     OW 5476   0.130   3.683   1.571
 1597SOL    HW1 5477   0.120   3.668   1.670
 1597SOL    HW2 5478   0.044   3.719   1.535
 1598SOL     OW 5479   0.865   2.210   0.195
 1598SOL    HW1 5480   0.924   2.273   0.146
 1598SOL    HW2 5481   0.884   2.116   0.166
 1599SOL     OW 5482   1.719   2.447   1.831
 1599SOL    HW1 5483   1.693   2.536   1.795
 1599SOL    HW2 5484   1.717   2.379   1.758
 1600SOL     OW 5485   1.362   3.006   0.545
 1600SOL    HW1 5486   1.445   2.977   0.497
 1600SOL    HW2 5487   1.313   3.073   0.489
 1601SOL     OW 5488   0.550   2.058   0.885
 1601SOL    HW1 5489   0.545   2.053   0.985
 1601SOL    HW2 5490   0.552   2.154   0.856
 1602SOL     OW 5491   1.008   3.318   0.477
 1602SOL    HW1 5492   0.962   3.390   0.425
 1602SOL    HW2 5493   1.004   3.338   0.575
 1603SOL     OW 5494   0.351   3.663   0.853
 1603SOL    HW1 5495   0.401   3.577   0.859
 1603SOL    HW2 5496   0.416   3.740   0.850
 1604SOL     OW 5497   1.795   2.928   0.873
 1604SOL    HW1 5498   1.733   2.913   0.797
 1604SOL    HW2 5499   1.743   2.939   0.958
 1605SOL     OW 5500   1.227   3.412   1.506
 1605SOL    HW1 5501   1.233   3.335   1.570
 1605SOL    HW2 5502   1.175   3.386   1.426
 1606SOL     OW 5503   0.321   2.805   0.242
 1606SOL    HW1 5504   0.403   2.844   0.200
 1606SOL    HW2 5505   0.294   2.723   0.193
 1607SOL     OW 5506   1.458   2.597   0.728
 1607SOL    HW1 5507   1.453   2.532   0.803
 1607SOL    HW2 5508   1.538   2.656   0.741
 1608SOL     OW 5509   0.461   3.128   1.727
 1608SOL    HW1 5510   0.411   3.129   1.641
 1608SOL    HW2 5511   0.398   3.110   1.803
 1609SOL     OW 5512   1.111   3.638   0.237
 1609SOL    HW1 5513   1.051   3.576   0.287
 1609SOL    HW2 5514   1.142   3.594   0.152
 1610SOL     OW 5515   0.202   2.147   1.498
 1610SOL    HW1 5516   0.122   2.207   1.485
 1610SOL    HW2 5517   0.192   2.098   1.584
 1611SOL     OW 5518   1.632   3.239   0.081
 1611SOL    HW1 5519   1.600   3.333   0.071
 1611SOL    HW2 5520   1.556   3.176   0.069
 1612SOL     OW 5521   0.464   3.605   0.323
 1612SOL    HW1 5522   0.497   3.644   0.409
 1612SOL    HW2 5523   0.540   3.598   0.258
 1613SOL     OW 5524   1.400   1.969   0.426
 1613SOL    HW1 5525   1.376   1.932   0.336
 1613SOL    HW2 5526   1.499   1.985   0.430
 1614SOL     OW 5527   0.249   3.647   1.241
 1614SOL    HW1 5528   0.306   3.582   1.291
 1614SOL    HW2 5529   0.233   3.614   1.148
 1615SOL     OW 5530   0.940   3.560   0.904
 1615SOL    HW1 5531   1.020   3.503   0.925
 1615SOL    HW2 5532   0.891   3.520   0.827
 1616SOL     OW 5533   0.382   2.562   0.480
 1616SOL    HW1 5534   0.427   2.472   0.477
 1616SOL    HW2 5535   0.288   2.551   0.513
 1617SOL     OW 5536   1.547   2.084   1.729
 1617SOL    HW1 5537   1.542   2.121   1.821
 1617SOL    HW2 5538   1.475   2.015   1.717
 1618SOL     OW 5539   0.781   2.126   1.749
 1618SOL    HW1 5540   0.848   2.065   1.792
 1618SOL    HW2 5541   0.708   2.145   1.814
 1619SOL     OW 5542   0.888   3.376   1.195
 1619SOL    HW1 5543   0.865   3.351   1.101
 1619SOL    HW2 5544   0.949   3.307   1.234
 1620SOL     OW 5545   1.351   2.452   1.433
 1620SOL    HW1 5546   1.379   2.409   1.518
 1620SOL    HW2 5547   1.376   2.548   1.434
 1621SOL     OW 5548   0.803   3.264   0.924
 1621SOL    HW1 5549   0.893   3.278   0.882
 1621SOL    HW2 5550   0.732   3.266   0.853
 1622SOL     OW 5551   0.922   2.365   0.899
 1622SOL    HW1 5552   0.897   2.356   0.803
 1622SOL    HW2 5553   0.970   2.283   0.930
 1623SOL     OW 5554   0.539   1.926   0.512
 1623SOL    HW1 5555   0.458   1.927   0.570
 1623SOL    HW2 5556   0.542   2.009   0.457
 1624SOL     OW 5557   1.434   3.050   0.041
 1624SOL    HW1 5558   1.466   2.974   0.098
 1624SOL    HW2 5559   1.342   3.077   0.071
 1625SOL     OW 5560   0.297   1.897   0.171
 1625SOL    HW1 5561   0.346   1.981   0.150
 1625SOL    HW2 5562   0.359   1.832   0.216
 1626SOL     OW 5563   0.935   2.098   0.480
 1626SOL    HW1 5564   0.887   2.139   0.402
 1626SOL    HW2 5565   1.034   2.096   0.461
 1627SOL     OW 5566   1.076   2.545   1.464
 1627SOL    HW1 5567   0.996   2.484   1.467
 1627SOL    HW2 5568   1.157   2.492   1.440
 1628SOL     OW 5569   1.227   3.432   0.793
 1628SOL    HW1 5570   1.248   3.506   0.728
 1628SOL    HW2 5571   1.295   3.432   0.866
 1629SOL     OW 5572   0.459   3.014   0.741
 1629SOL    HW1 5573   0.388   2.987   0.806
 1629SOL    HW2 5574   0.433   2.986   0.648
 1630SOL     OW 5575   1.271   3.659   0.591
 1630SOL    HW1 5576   1.315   3.723   0.527
 1630SOL    HW2 5577   1.221   3.711   0.661
 1631SOL     OW 5578   1.032   2.411   0.016
 1631SOL    HW1 5579   0.991   2.493  -0.023
 1631SOL    HW2 5580   1.096   2.437   0.089
 1632SOL     OW 5581   0.078   2.418   1.386
 1632SOL    HW1 5582   0.170   2.417   1.345
 1632SOL    HW2 5583   0.072   2.492   1.453
 1633SOL     OW 5584   0.561   2.084   1.147
 1633SOL    HW1 5585   0.599   2.000   1.184
 1633SOL    HW2 5586   0.473   2.103   1.191
 1634SOL     OW 5587   0.866   2.316   0.642
 1634SOL    HW1 5588   0.834   2.388   0.580
 1634SOL    HW2 5589   0.890   2.235   0.589
 1635SOL     OW 5590   1.017   1.901   0.753
 1635SOL    HW1 5591   0.945   1.906   0.684
 1635SOL    HW2 5592   0.993   1.832   0.822
 1636SOL     OW 5593   1.429   3.035   0.867
 1636SOL    HW1 5594   1.374   2.951   0.860
 1636SOL    HW2 5595   1.455   3.064   0.775
 1637SOL     OW 5596   1.466   2.452   0.992
 1637SOL    HW1 5597   1.436   2.357   0.999
 1637SOL    HW2 5598   1.539   2.468   1.058
 1638SOL     OW 5599   1.857   2.695   0.377
 1638SOL    HW1 5600   1.899   2.631   0.441
 1638SOL    HW2 5601   1.819   2.644   0.299
 1639SOL     OW 5602   0.488   3.247   0.174
 1639SOL    HW1 5603   0.401   3.232   0.221
 1639SOL    HW2 5604   0.471   3.273   0.079
 1640SOL     OW 5605   1.664   3.142   0.657
 1640SOL    HW1 5606   1.763   3.150   0.671
 1640SOL    HW2 5607   1.619   3.226   0.688
 1641SOL     OW 5608   1.390   2.437   0.078
 1641SOL    HW1 5609   1.336   2.416   0.159
 1641SOL    HW2 5610   1.481   2.396   0.087
 1642SOL     OW 5611   0.527   2.118   0.328
 1642SOL    HW1 5612   0.554   2.059   0.253
 1642SOL    HW2 5613   0.527   2.213   0.297
 1643SOL     OW 5614   1.754   3.085   1.588
 1643SOL    HW1 5615   1.845   3.046   1.575
 1643SOL    HW2 5616   1.762   3.181   1.612
 1644SOL     OW 5617   1.064   3.209   1.340
 1644SOL    HW1 5618   0.984   3.186   1.395
 1644SOL    HW2 5619   1.147   3.183   1.389
 1645SOL     OW 5620   1.592   3.491   1.625
 1645SOL    HW1 5621   1.619   3.525   1.535
 1645SOL    HW2 5622   1.671   3.453   1.671
 1646SOL     OW 5623   1.111   3.057   1.100
 1646SOL    HW1 5624   1.071   3.101   1.181
 1646SOL    HW2 5625   1.070   3.094   1.017
 1647SOL     OW 5626   1.638   2.961   1.079
 1647SOL    HW1 5627   1.643   3.042   1.138
 1647SOL    HW2 5628   1.552   2.963   1.028
 1648SOL     OW 5629   0.915   1.951   1.402
 1648SOL    HW1 5630   0.940   1.931   1.307
 1648SOL    HW2 5631   0.987   2.007   1.444
 1649SOL     OW 5632   0.980   2.978   1.719
 1649SOL    HW1 5633   0.881   2.984   1.729
 1649SOL    HW2 5634   1.003   2.898   1.663
 1650SOL     OW 5635   0.705   2.912   0.368
 1650SOL    HW1 5636   0.691   2.919   0.467
 1650SOL    HW2 5637   0.789   2.861   0.350
 1651SOL     OW 5638   0.410   2.675   1.251
 1651SOL    HW1 5639   0.496   2.687   1.301
 1651SOL    HW2 5640   0.368   2.588   1.278
 1652SOL     OW 5641   1.274   2.248   1.262
 1652SOL    HW1 5642   1.295   2.322   1.326
 1652SOL    HW2 5643   1.185   2.265   1.219
 1653SOL     OW 5644   0.064   3.426   1.331
 1653SOL    HW1 5645   0.018   3.508   1.297
 1653SOL    HW2 5646   0.162   3.445   1.340
 1654SOL     OW 5647   0.367   2.962   0.501
 1654SOL    HW1 5648   0.360   3.045   0.445
 1654SOL    HW2 5649   0.371   2.882   0.441
 1655SOL     OW 5650   0.566   2.399   0.865
 1655SOL    HW1 5651   0.578   2.465   0.791
 1655SOL    HW2 5652   0.612   2.433   0.948
 1656SOL     OW 5653   1.252   3.210   0.388
 1656SOL    HW1 5654   1.302   3.287   0.428
 1656SOL    HW2 5655   1.157   3.212   0.420
 1657SOL     OW 5656   1.272   3.307   1.142
 1657SOL    HW1 5657   1.319   3.320   1.229
 1657SOL    HW2 5658   1.206   3.233   1.151
 1658SOL     OW 5659   1.582   2.501   0.472
 1658SOL    HW1 5660   1.551   2.562   0.545
 1658SOL    HW2 5661   1.632   2.553   0.403
 1659SOL     OW 5662   0.354   3.372   1.329
 1659SOL    HW1 5663   0.333   3.328   1.242
 1659SOL    HW2 5664   0.451   3.398   1.332
 1660SOL     OW 5665   0.402   2.613   1.598
 1660SOL    HW1 5666   0.470   2.668   1.551
 1660SOL    HW2 5667   0.442   2.525   1.625
 1661SOL     OW 5668   1.587   2.641   1.670
 1661SOL    HW1 5669   1.495   2.679   1.665
 1661SOL    HW2 5670   1.647   2.688   1.605
 1662SOL     OW 5671   1.013   1.967   1.770
 1662SOL    HW1 5672   1.019   2.052   1.718
 1662SOL    HW2 5673   1.045   1.891   1.713
 1663SOL     OW 5674   0.504   1.912   1.740
 1663SOL    HW1 5675   0.462   1.855   1.670
 1663SOL    HW2 5676   0.438   1.981   1.772
 1664SOL     OW 5677   0.573   2.732   1.029
 1664SOL    HW1 5678   0.617   2.821   1.020
 1664SOL    HW2 5679   0.510   2.732   1.106
 1665SOL     OW 5680   1.360   2.724   1.045
 1665SOL    HW1 5681   1.285   2.724   0.979
 1665SOL    HW2 5682   1.397   2.632   1.054
 1666SOL     OW 5683   1.209   2.387   0.275
 1666SOL    HW1 5684   1.222   2.303   0.329
 1666SOL    HW2 5685   1.180   2.461   0.335
 1667SOL     OW 5686   0.307   2.075   1.231
 1667SOL    HW1 5687   0.284   2.112   1.321
 1667SOL    HW2 5688   0.277   1.980   1.225
 1668SOL     OW 5689   0.037   3.172   1.282
 1668SOL    HW1 5690   0.090   3.123   1.350
 1668SOL    HW2 5691   0.059   3.270   1.287
 1669SOL     OW 5692   0.732   2.496   1.064
 1669SOL    HW1 5693   0.791   2.470   0.988
 1669SOL    HW2 5694   0.704   2.592   1.053
 1670SOL     OW 5695   1.728   2.797   1.854
 1670SOL    HW1 5696   1.682   2.790   1.765
 1670SOL    HW2 5697   1.666   2.841   1.920
 1671SOL     OW 5698   0.307   1.925   0.618
 1671SOL    HW1 5699   0.296   2.019   0.651
 1671SOL    HW2 5700   0.302   1.862   0.695
 1672SOL     OW 5701   1.622   2.229   0.374
 1672SOL    HW1 5702   1.624   2.153   0.438
 1672SOL    HW2 5703   1.574   2.306   0.414
 1673SOL     OW 5704   1.023   2.628   0.966
 1673SOL    HW1 5705   1.038   2.649   1.062
 1673SOL    HW2 5706   0.993   2.533   0.957
 1674SOL     OW 5707   0.980   3.435   1.700
 1674SOL    HW1 5708   0.960   3.479   1.612
 1674SOL    HW2 5709   1.019   3.344   1.684
 1675SOL     OW 5710   1.859   3.380   1.605
 1675SOL    HW1 5711   1.873   3.407   1.510
 1675SOL    HW2 5712   1.942   3.402   1.658
 1676SOL     OW 5713   0.350   2.760   1.804
 1676SOL    HW1 5714   0.426   2.804   1.852
 1676SOL    HW2 5715   0.385   2.713   1.722
 1677SOL     OW 5716   1.540   2.136   0.125
 1677SOL    HW1 5717   1.479   2.061   0.148
 1677SOL    HW2 5718   1.562   2.188   0.208
 1678SOL     OW 5719   1.303   2.700   0.042
 1678SOL    HW1 5720   1.337   2.607   0.057
 1678SOL    HW2 5721   1.321   2.727  -0.053
 1679SOL     OW 5722   1.068   3.195   0.849
 1679SOL    HW1 5723   1.075   3.111   0.794
 1679SOL    HW2 5724   1.130   3.264   0.813
 1680SOL     OW 5725   0.319   2.672   0.949
 1680SOL    HW1 5726   0.412   2.708   0.954
 1680SOL    HW2 5727   0.313   2.587   1.001
 1681SOL     OW 5728   0.339   2.371   1.006
 1681SOL    HW1 5729   0.287   2.288   0.989
 1681SOL    HW2 5730   0.416   2.376   0.942
 1682SOL     OW 5731   1.138   2.242   1.678
 1682SOL    HW1 5732   1.093   2.305   1.742
 1682SOL    HW2 5733   1.231   2.273   1.661
 1683SOL     OW 5734   1.160   2.069   1.477
 1683SOL    HW1 5735   1.160   2.133   1.554
 1683SOL    HW2 5736   1.188   2.117   1.394
 1684SOL     OW 5737   0.008   3.188   0.200
 1684SOL    HW1 5738  -0.085   3.209   0.169
 1684SOL    HW2 5739   0.018   3.089   0.213
 1685SOL     OW 5740   0.088   3.663   0.927
 1685SOL    HW1 5741   0.046   3.577   0.900
 1685SOL    HW2 5742   0.182   3.666   0.893
 1686SOL     OW 5743   0.504   3.430   0.910
 1686SOL    HW1 5744   0.570   3.504   0.919
 1686SOL    HW2 5745   0.548   3.351   0.868
 1687SOL     OW 5746   1.002   2.658   1.238
 1687SOL    HW1 5747   1.043   2.626   1.324
 1687SOL    HW2 5748   0.906   2.631   1.235
 1688SOL     OW 5749   0.040   2.406   1.114
 1688SOL    HW1 5750   0.125   2.373   1.073
 1688SOL    HW2 5751   0.053   2.421   1.212
 1689SOL     OW 5752   0.189   2.382   1.722
 1689SOL    HW1 5753   0.248   2.342   1.652
 1689SOL    HW2 5754   0.131   2.453   1.681
 1690SOL     OW 5755   1.369   2.812   1.660
 1690SOL    HW1 5756   1.408   2.901   1.680
 1690SOL    HW2 5757   1.379   2.792   1.563
 1691SOL     OW 5758   0.815   2.434   0.325
 1691SOL    HW1 5759   0.822   2.345   0.279
 1691SOL    HW2 5760   0.721   2.468   0.317
 1692SOL     OW 5761   1.657   2.466   1.206
 1692SOL    HW1 5762   1.619   2.397   1.268
 1692SOL    HW2 5763   1.739   2.430   1.162
 1693SOL     OW 5764   0.252   3.426   1.744
 1693SOL    HW1 5765   0.222   3.483   1.820
 1693SOL    HW2 5766   0.245   3.329   1.770
 1694SOL     OW 5767   0.671   2.326   1.269
 1694SOL    HW1 5768   0.637   2.237   1.239
 1694SOL    HW2 5769   0.697   2.380   1.189
 1695SOL     OW 5770   0.930   3.540   1.465
 1695SOL    HW1 5771   0.906   3.522   1.370
 1695SOL    HW2 5772   0.960   3.634   1.475
 1696SOL     OW 5773   0.473   2.362   0.191
 1696SOL    HW1 5774   0.534   2.442   0.195
 1696SOL    HW2 5775   0.378   2.393   0.198
 1697SOL     OW 5776   0.159   2.999   1.466
 1697SOL    HW1 5777   0.181   2.938   1.542
 1697SOL    HW2 5778   0.169   2.950   1.380
 1698SOL     OW 5779   1.347   2.921   1.234
 1698SOL    HW1 5780   1.371   2.858   1.160
 1698SOL    HW2 5781   1.257   2.961   1.216
 1699SOL     OW 5782   1.302   2.717   0.309
 1699SOL    HW1 5783   1.216   2.686   0.351
 1699SOL    HW2 5784   1.298   2.703   0.210
 1700SOL     OW 5785   1.759   3.609   1.154
 1700SOL    HW1 5786   1.820   3.639   1.081
 1700SOL    HW2 5787   1.721   3.520   1.132
 1701SOL     OW 5788   1.252   3.593   1.128
 1701SOL    HW1 5789   1.336   3.598   1.074
 1701SOL    HW2 5790   1.229   3.497   1.146
 1702SOL     OW 5791   0.083   3.120   1.022
 1702SOL    HW1 5792   0.078   3.119   1.122
 1702SOL    HW2 5793   0.000   3.079   0.984
 1703SOL     OW 5794   0.688   3.524   1.716
 1703SOL    HW1 5795   0.632   3.605   1.725
 1703SOL    HW2 5796   0.740   3.528   1.630
 1704SOL     OW 5797   0.903   1.948   0.133
 1704SOL    HW1 5798   0.954   1.949   0.047
 1704SOL    HW2 5799   0.959   1.906   0.204
 1705SOL     OW 5800   1.388   3.435   0.477
 1705SOL    HW1 5801   1.455   3.447   0.403
 1705SOL    HW2 5802   1.348   3.524   0.500
 1706SOL     OW 5803   0.130   3.656   1.851
 1706SOL    HW1 5804   0.089   3.582   1.904
 1706SOL    HW2 5805   0.194   3.707   1.909
 1707SOL     OW 5806   1.280   2.789   0.672
 1707SOL    HW1 5807   1.340   2.708   0.674
 1707SOL    HW2 5808   1.320   2.858   0.612
 1708SOL     OW 5809   0.830   3.135   1.422
 1708SOL    HW1 5810   0.825   3.168   1.517
 1708SOL    HW2 5811   0.744   3.154   1.376
 1709SOL     OW 5812   0.672   3.478   0.154
 1709SOL    HW1 5813   0.681   3.488   0.055
 1709SOL    HW2 5814   0.632   3.389   0.175
 1710SOL     OW 5815   1.650   3.582   1.394
 1710SOL    HW1 5816   1.703   3.592   1.310
 1710SOL    HW2 5817   1.623   3.672   1.428
 1711SOL     OW 5818   0.263   2.188   0.720
 1711SOL    HW1 5819   0.184   2.239   0.686
 1711SOL    HW2 5820   0.254   2.173   0.818
 1712SOL     OW 5821   1.194   3.474   0.031
 1712SOL    HW1 5822   1.200   3.381   0.068
 1712SOL    HW2 5823   1.135   3.474  -0.049
 1713SOL     OW 5824   0.822   2.864   1.372
 1713SOL    HW1 5825   0.862   2.863   1.280
 1713SOL    HW2 5826   0.832   2.956   1.412
 1714SOL     OW 5827   0.916   2.772   0.291
 1714SOL    HW1 5828   0.979   2.810   0.223
 1714SOL    HW2 5829   0.956   2.689   0.330
 1715SOL     OW 5830   1.504   3.469   0.044
 1715SOL    HW1 5831   1.412   3.506   0.051
 1715SOL    HW2 5832   1.542   3.489  -0.046
 1716SOL     OW 5833   0.372   3.150   1.490
 1716SOL    HW1 5834   0.359   3.243   1.456
 1716SOL    HW2 5835   0.288   3.098   1.477
 1717SOL     OW 5836   1.614   3.154   1.289
 1717SOL    HW1 5837   1.674   3.157   1.369
 1717SOL    HW2 5838   1.539   3.218   1.302
 1718SOL     OW 5839   1.039   2.960   0.696
 1718SOL    HW1 5840   0.969   2.913   0.750
 1718SOL    HW2 5841   1.098   2.892   0.653
 1719SOL     OW 5842   1.014   2.098   0.971
 1719SOL    HW1 5843   1.006   2.062   0.878
 1719SOL    HW2 5844   1.012   2.022   1.036
 1720SOL     OW 5845   0.590   3.349   0.491
 1720SOL    HW1 5846   0.632   3.291   0.421
 1720SOL    HW2 5847   0.546   3.428   0.447
 1721SOL     OW 5848   1.709   2.247   1.381
 1721SOL    HW1 5849   1.782   2.316   1.385
 1721SOL    HW2 5850   1.737   2.172   1.322
 1722SOL     OW 5851   0.255   3.210   0.290
 1722SOL    HW1 5852   0.159   3.211   0.263
 1722SOL    HW2 5853   0.267   3.263   0.374
 1723SOL     OW 5854   0.105   2.875   1.726
 1723SOL    HW1 5855   0.028   2.842   1.780
 1723SOL    HW2 5856   0.190   2.845   1.768
 1724SOL     OW 5857   0.672   2.065   1.489
 1724SOL    HW1 5858   0.762   2.049   1.449
 1724SOL    HW2 5859   0.680   2.070   1.588
 1725SOL     OW 5860   0.075   2.207   0.033
 1725SOL    HW1 5861  -0.017   2.179   0.004
 1725SOL    HW2 5862   0.106   2.284  -0.023
 1726SOL     OW 5863   1.440   2.718   1.398
 1726SOL    HW1 5864   1.383   2.770   1.335
 1726SOL    HW2 5865   1.536   2.730   1.374
 1727SOL     OW 5866   0.072   2.028   0.318
 1727SOL    HW1 5867   0.055   2.111   0.264
 1727SOL    HW2 5868   0.162   1.991   0.296
 1728SOL     OW 5869   1.183   3.197   0.119
 1728SOL    HW1 5870   1.084   3.186   0.121
 1728SOL    HW2 5871   1.217   3.212   0.212
 1729SOL     OW 5872   0.613   2.704   1.431
 1729SOL    HW1 5873   0.669   2.785   1.414
 1729SOL    HW2 5874   0.672   2.624   1.434
 1730SOL     OW 5875   1.493   3.629   0.959
 1730SOL    HW1 5876   1.526   3.693   0.890
 1730SOL    HW2 5877   1.559   3.623   1.034
 1731SOL     OW 5878   0.716   2.427   1.708
 1731SOL    HW1 5879   0.735   2.492   1.782
 1731SOL    HW2 5880   0.776   2.347   1.717
 1732SOL     OW 5881   1.450   3.082   1.633
 1732SOL    HW1 5882   1.441   3.072   1.732
 1732SOL    HW2 5883   1.546   3.075   1.607
 1733SOL     OW 5884   0.390   3.603   1.560
 1733SOL    HW1 5885   0.299   3.644   1.558
 1733SOL    HW2 5886   0.383   3.509   1.592
 1734SOL     OW 5887   1.674   2.745   1.254
 1734SOL    HW1 5888   1.647   2.656   1.217
 1734SOL    HW2 5889   1.675   2.813   1.181
 1735SOL     OW 5890   1.225   2.187   0.449
 1735SOL    HW1 5891   1.290   2.113   0.438
 1735SOL    HW2 5892   1.245   2.237   0.533
 1736SOL     OW 5893   0.594   2.607   0.652
 1736SOL    HW1 5894   0.644   2.692   0.633
 1736SOL    HW2 5895   0.506   2.609   0.604
 1737SOL     OW 5896   1.777   2.204   1.642
 1737SOL    HW1 5897   1.760   2.235   1.548
 1737SOL    HW2 5898   1.693   2.167   1.680
 1738SOL     OW 5899   1.730   2.796   1.517
 1738SOL    HW1 5900   1.768   2.887   1.532
 1738SOL    HW2 5901   1.722   2.779   1.418
 1739SOL     OW 5902   0.859   3.236   0.016
 1739SOL    HW1 5903   0.813   3.251   0.104
 1739SOL    HW2 5904   0.903   3.321  -0.014
 1740SOL     OW 5905   0.661   3.652   0.953
 1740SOL    HW1 5906   0.615   3.740   0.940
 1740SOL    HW2 5907   0.760   3.664   0.946
 1741SOL     OW 5908   0.859   2.818   0.861
 1741SOL    HW1 5909   0.913   2.749   0.909
 1741SOL    HW2 5910   0.827   2.887   0.927
 1742SOL     OW 5911   1.083   2.846   0.087
 1742SOL    HW1 5912   1.060   2.899   0.005
 1742SOL    HW2 5913   1.164   2.790   0.068
 1743SOL     OW 5914   1.861   3.431   0.851
 1743SOL    HW1 5915   1.790   3.419   0.781
 1743SOL    HW2 5916   1.862   3.352   0.911
 1744SOL     OW 5917   0.221   3.176   1.844
 1744SOL    HW1 5918   0.156   3.103   1.823
 1744SOL    HW2 5919   0.225   3.190   1.942
 1745SOL     OW 5920   0.079   3.102   0.653
 1745SOL    HW1 5921   0.078   3.055   0.741
 1745SOL    HW2 5922   0.161   3.074   0.602
 1746SOL     OW 5923   0.672   3.253   1.624
 1746SOL    HW1 5924   0.594   3.203   1.662
 1746SOL    HW2 5925   0.669   3.348   1.655
 1747SOL     OW 5926   0.428   2.286   0.520
 1747SOL    HW1 5927   0.458   2.214   0.458
 1747SOL    HW2 5928   0.389   2.246   0.603
 1748SOL     OW 5929   1.705   3.349   1.104
 1748SOL    HW1 5930   1.612   3.324   1.077
 1748SOL    HW2 5931   1.731   3.299   1.186
 1749SOL     OW 5932   0.317   2.409   1.280
 1749SOL    HW1 5933   0.355   2.350   1.352
 1749SOL    HW2 5934   0.357   2.383   1.192
 1750SOL     OW 5935   0.812   3.448   0.687
 1750SOL    HW1 5936   0.844   3.458   0.593
 1750SOL    HW2 5937   0.733   3.386   0.689
 1751SOL     OW 5938   1.424   2.076   1.112
 1751SOL    HW1 5939   1.476   2.011   1.167
 1751SOL    HW2 5940   1.375   2.139   1.173
 1752SOL     OW 5941   1.001   1.896   1.154
 1752SOL    HW1 5942   0.938   1.824   1.123
 1752SOL    HW2 5943   1.094   1.860   1.154
 1753SOL     OW 5944   0.770   3.192   0.301
 1753SOL    HW1 5945   0.724   3.105   0.318
 1753SOL    HW2 5946   0.861   3.189   0.342
 1754SOL     OW 5947   0.618   3.429   1.284
 1754SOL    HW1 5948   0.613   3.511   1.341
 1754SOL    HW2 5949   0.707   3.426   1.239
 1755SOL     OW 5950   1.352   1.914   0.168
 1755SOL    HW1 5951   1.387   1.873   0.084
 1755SOL    HW2 5952   1.262   1.876   0.188
 1756SOL     OW 5953   1.300   2.315   0.691
 1756SOL    HW1 5954   1.241   2.395   0.695
 1756SOL    HW2 5955   1.315   2.280   0.784
 1757SOL     OW 5956   1.593   2.083   0.882
 1757SOL    HW1 5957   1.509   2.082   0.936
 1757SOL    HW2 5958   1.595   2.166   0.826
 1758SOL     OW 5959   0.039   2.939   0.300
 1758SOL    HW1 5960   0.138   2.928   0.291
 1758SOL    HW2 5961  -0.001   2.853   0.332
 1759SOL     OW 5962   0.875   3.508   0.337
 1759SOL    HW1 5963   0.798   3.473   0.283
 1759SOL    HW2 5964   0.843   3.579   0.399
 1760SOL     OW 5965   0.230   2.490   1.975
 1760SOL    HW1 5966   0.137   2.488   2.012
 1760SOL    HW2 5967   0.231   2.451   1.883
 1761SOL     OW 5968   0.225   2.137   2.858
 1761SOL    HW1 5969   0.260   2.120   2.950
 1761SOL    HW2 5970   0.137   2.092   2.846
 1762SOL     OW 5971   0.019   2.230   2.509
 1762SOL    HW1 5972  -0.063   2.273   2.548
 1762SOL    HW2 5973  -0.009   2.157   2.446
 1763SOL     OW 5974   0.569   3.137   3.027
 1763SOL    HW1 5975   0.476   3.130   2.990
 1763SOL    HW2 5976   0.580   3.226   3.071
 1764SOL     OW 5977   1.555   3.373   2.565
 1764SOL    HW1 5978   1.498   3.357   2.646
 1764SOL    HW2 5979   1.496   3.383   2.485
 1765SOL     OW 5980   1.135   2.565   2.579
 1765SOL    HW1 5981   1.192   2.643   2.554
 1765SOL    HW2 5982   1.075   2.591   2.655
 1766SOL     OW 5983   1.755   2.469   2.093
 1766SOL    HW1 5984   1.743   2.456   1.994
 1766SOL    HW2 5985   1.725   2.388   2.142
 1767SOL     OW 5986   0.768   3.006   2.885
 1767SOL    HW1 5987   0.690   3.023   2.945
 1767SOL    HW2 5988   0.802   3.093   2.849
 1768SOL     OW 5989   0.850   2.660   3.685
 1768SOL    HW1 5990   0.846   2.736   3.750
 1768SOL    HW2 5991   0.872   2.696   3.594
 1769SOL     OW 5992   0.685   2.874   2.527
 1769SOL    HW1 5993   0.754   2.858   2.597
 1769SOL    HW2 5994   0.612   2.931   2.565
 1770SOL     OW 5995   0.686   3.023   3.665
 1770SOL    HW1 5996   0.746   3.102   3.679
 1770SOL    HW2 5997   0.600   3.054   3.624
 1771SOL     OW 5998   0.335   3.297   2.923
 1771SOL    HW1 5999   0.257   3.266   2.870
 1771SOL    HW2 6000   0.393   3.355   2.866
 1772SOL     OW 6001   1.460   3.367   3.201
 1772SOL    HW1 6002   1.484   3.461   3.227
 1772SOL    HW2 6003   1.444   3.313   3.283
 1773SOL     OW 6004   0.438   2.254   3.361
 1773SOL    HW1 6005   0.520   2.198   3.370
 1773SOL    HW2 6006   0.357   2.196   3.365
 1774SOL     OW 6007   1.603   2.309   2.599
 1774SOL    HW1 6008   1.529   2.355   2.549
 1774SOL    HW2 6009   1.654   2.377   2.652
 1775SOL     OW 6010   0.231   3.575   2.345
 1775SOL    HW1 6011   0.265   3.652   2.399
 1775SOL    HW2 6012   0.275   3.575   2.255
 1776SOL     OW 6013   1.127   3.203   3.552
 1776SOL    HW1 6014   1.174   3.203   3.640
 1776SOL    HW2 6015   1.079   3.116   3.541
 1777SOL     OW 6016   0.230   3.296   2.400
 1777SOL    HW1 6017   0.204   3.392   2.400
 1777SOL    HW2 6018   0.159   3.242   2.445
 1778SOL     OW 6019   0.240   2.953   2.748
 1778SOL    HW1 6020   0.254   2.869   2.800
 1778SOL    HW2 6021   0.185   3.017   2.803
 1779SOL     OW 6022   0.620   3.648   3.301
 1779SOL    HW1 6023   0.528   3.631   3.336
 1779SOL    HW2 6024   0.648   3.740   3.327
 1780SOL     OW 6025   0.606   2.826   1.985
 1780SOL    HW1 6026   0.613   2.910   1.931
 1780SOL    HW2 6027   0.652   2.839   2.073
 1781SOL     OW 6028   1.594   1.976   3.342
 1781SOL    HW1 6029   1.576   2.043   3.270
 1781SOL    HW2 6030   1.591   2.022   3.431
 1782SOL     OW 6031   0.122   2.505   2.425
 1782SOL    HW1 6032   0.077   2.417   2.442
 1782SOL    HW2 6033   0.121   2.559   2.509
 1783SOL     OW 6034   1.842   3.629   2.221
 1783SOL    HW1 6035   1.896   3.600   2.301
 1783SOL    HW2 6036   1.872   3.719   2.192
 1784SOL     OW 6037   0.027   3.458   1.979
 1784SOL    HW1 6038   0.008   3.362   2.000
 1784SOL    HW2 6039  -0.006   3.516   2.054
 1785SOL     OW 6040   1.689   2.784   2.474
 1785SOL    HW1 6041   1.784   2.755   2.482
 1785SOL    HW2 6042   1.681   2.849   2.399
 1786SOL     OW 6043   1.641   2.970   2.294
 1786SOL    HW1 6044   1.727   2.972   2.242
 1786SOL    HW2 6045   1.655   3.017   2.382
 1787SOL     OW 6046   0.113   2.599   3.459
 1787SOL    HW1 6047   0.201   2.586   3.504
 1787SOL    HW2 6048   0.100   2.696   3.437
 1788SOL     OW 6049   0.613   3.227   2.588
 1788SOL    HW1 6050   0.564   3.140   2.597
 1788SOL    HW2 6051   0.590   3.270   2.501
 1789SOL     OW 6052   1.293   3.090   3.285
 1789SOL    HW1 6053   1.330   3.017   3.227
 1789SOL    HW2 6054   1.345   3.095   3.370
 1790SOL     OW 6055   0.809   1.866   2.364
 1790SOL    HW1 6056   0.849   1.957   2.355
 1790SOL    HW2 6057   0.709   1.874   2.370
 1791SOL     OW 6058   0.197   2.838   3.126
 1791SOL    HW1 6059   0.286   2.793   3.112
 1791SOL    HW2 6060   0.124   2.773   3.107
 1792SOL     OW 6061   1.525   2.861   2.052
 1792SOL    HW1 6062   1.462   2.785   2.065
 1792SOL    HW2 6063   1.573   2.879   2.138
 1793SOL     OW 6064   1.187   3.654   3.478
 1793SOL    HW1 6065   1.211   3.714   3.402
 1793SOL    HW2 6066   1.194   3.559   3.448
 1794SOL     OW 6067   0.317   2.113   3.663
 1794SOL    HW1 6068   0.388   2.184   3.669
 1794SOL    HW2 6069   0.229   2.152   3.691
 1795SOL     OW 6070   1.466   3.279   2.815
 1795SOL    HW1 6071   1.407   3.285   2.895
 1795SOL    HW2 6072   1.451   3.191   2.769
 1796SOL     OW 6073   1.667   3.576   2.434
 1796SOL    HW1 6074   1.626   3.553   2.346
 1796SOL    HW2 6075   1.649   3.502   2.499
 1797SOL     OW 6076   0.598   2.591   2.132
 1797SOL    HW1 6077   0.622   2.660   2.064
 1797SOL    HW2 6078   0.520   2.624   2.186
 1798SOL     OW 6079   1.281   2.207   2.806
 1798SOL    HW1 6080   1.195   2.157   2.793
 1798SOL    HW2 6081   1.343   2.153   2.862
 1799SOL     OW 6082   1.576   3.524   2.169
 1799SOL    HW1 6083   1.665   3.570   2.172
 1799SOL    HW2 6084   1.555   3.500   2.074
 1800SOL     OW 6085   0.807   2.467   3.327
 1800SOL    HW1 6086   0.760   2.464   3.416
 1800SOL    HW2 6087   0.756   2.412   3.261
 1801SOL     OW 6088   1.394   2.331   3.536
 1801SOL    HW1 6089   1.374   2.374   3.624
 1801SOL    HW2 6090   1.472   2.269   3.545
 1802SOL     OW 6091   0.973   2.752   3.434
 1802SOL    HW1 6092   1.019   2.668   3.405
 1802SOL    HW2 6093   0.917   2.786   3.359
 1803SOL     OW 6094   0.991   2.272   3.104
 1803SOL    HW1 6095   0.914   2.306   3.158
 1803SOL    HW2 6096   0.957   2.221   3.025
 1804SOL     OW 6097   1.041   2.563   2.291
 1804SOL    HW1 6098   1.067   2.559   2.387
 1804SOL    HW2 6099   0.956   2.512   2.277
 1805SOL     OW 6100   0.076   2.673   2.651
 1805SOL    HW1 6101   0.175   2.661   2.660
 1805SOL    HW2 6102   0.052   2.768   2.672
 1806SOL     OW 6103   0.130   3.683   3.433
 1806SOL    HW1 6104   0.120   3.668   3.532
 1806SOL    HW2 6105   0.044   3.719   3.397
 1807SOL     OW 6106   0.865   2.210   2.057
 1807SOL    HW1 6107   0.924   2.273   2.008
 1807SOL    HW2 6108   0.884   2.116   2.028
 1808SOL     OW 6109   1.719   2.447   3.693
 1808SOL    HW1 6110   1.693   2.536   3.657
 1808SOL    HW2 6111   1.717   2.379   3.620
 1809SOL     OW 6112   1.362   3.006   2.407
 1809SOL    HW1 6113   1.445   2.977   2.359
 1809SOL    HW2 6114   1.313   3.073   2.351
 1810SOL     OW 6115   0.550   2.058   2.747
 1810SOL    HW1 6116   0.545   2.053   2.847
 1810SOL    HW2 6117   0.552   2.154   2.718
 1811SOL     OW 6118   1.008   3.318   2.339
 1811SOL    HW1 6119   0.962   3.390   2.287
 1811SOL    HW2 6120   1.004   3.338   2.437
 1812SOL     OW 6121   0.351   3.663   2.715
 1812SOL    HW1 6122   0.401   3.577   2.721
 1812SOL    HW2 6123   0.416   3.740   2.712
 1813SOL     OW 6124   1.795   2.928   2.735
 1813SOL    HW1 6125   1.733   2.913   2.659
 1813SOL    HW2 6126   1.743   2.939   2.820
 1814SOL     OW 6127   1.227   3.412   3.368
 1814SOL    HW1 6128   1.233   3.335   3.432
 1814SOL    HW2 6129   1.175   3.386   3.288
 1815SOL     OW 6130   0.321   2.805   2.104
 1815SOL    HW1 6131   0.403   2.844   2.062
 1815SOL    HW2 6132   0.294   2.723   2.055
 1816SOL     OW 6133   1.458   2.597   2.590
 1816SOL    HW1 6134   1.453   2.532   2.665
 1816SOL    HW2 6135   1.538   2.656   2.603
 1817SOL     OW 6136   0.461   3.128   3.589
 1817SOL    HW1 6137   0.411   3.129   3.503
 1817SOL    HW2 6138   0.398   3.110   3.665
 1818SOL     OW 6139   1.111   3.638   2.099
 1818SOL    HW1 6140   1.051   3.576   2.149
 1818SOL    HW2 6141   1.142   3.594   2.014
 1819SOL     OW 6142   0.202   2.147   3.360
 1819SOL    HW1 6143   0.122   2.207   3.347
 1819SOL    HW2 6144   0.192   2.098   3.446
 1820SOL     OW 6145   1.632   3.239   1.943
 1820SOL    HW1 6146   1.600   3.333   1.933
 1820SOL    HW2 6147   1.556   3.176   1.931
 1821SOL     OW 6148   0.464   3.605   2.185
 1821SOL    HW1 6149   0.497   3.644   2.271
 1821SOL    HW2 6150   0.540   3.598   2.120
 1822SOL     OW 6151   1.400   1.969   2.288
 1822SOL    HW1 6152   1.376   1.932   2.198
 1822SOL    HW2 6153   1.499   1.985   2.292
 1823SOL     OW 6154   0.249   3.647   3.103
 1823SOL    HW1 6155   0.306   3.582   3.153
 1823SOL    HW2 6156   0.233   3.614   3.010
 1824SOL     OW 6157   0.940   3.560   2.766
 1824SOL    HW1 6158   1.020   3.503   2.787
 1824SOL    HW2 6159   0.891   3.520   2.689
 1825SOL     OW 6160   0.382   2.562   2.342
 1825SOL    HW1 6161   0.427   2.472   2.339
 1825SOL    HW2 6162   0.288   2.551   2.375
 1826SOL     OW 6163   1.547   2.084   3.591
 1826SOL    HW1 6164   1.542   2.121   3.683
 1826SOL    HW2 6165   1.475   2.015   3.579
 1827SOL     OW 6166   0.614   1.984   1.979
 1827SOL    HW1 6167   0.712   1.962   1.986
 1827SOL    HW2 6168   0.583   1.967   1.886
 1828SOL     OW 6169   0.781   2.126   3.611
 1828SOL    HW1 6170   0.848   2.065   3.654
 1828SOL    HW2 6171   0.708   2.145   3.676
 1829SOL     OW 6172   0.888   3.376   3.057
 1829SOL    HW1 6173   0.865   3.351   2.963
 1829SOL    HW2 6174   0.949   3.307   3.096
 1830SOL     OW 6175   1.351   2.452   3.295
 1830SOL    HW1 6176   1.379   2.409   3.380
 1830SOL    HW2 6177   1.376   2.548   3.296
 1831SOL     OW 6178   0.803   3.264   2.786
 1831SOL    HW1 6179   0.893   3.278   2.744
 1831SOL    HW2 6180   0.732   3.266   2.715
 1832SOL     OW 6181   0.922   2.365   2.761
 1832SOL    HW1 6182   0.897   2.356   2.665
 1832SOL    HW2 6183   0.970   2.283   2.792
 1833SOL     OW 6184   0.539   1.926   2.374
 1833SOL    HW1 6185   0.458   1.927   2.432
 1833SOL    HW2 6186   0.542   2.009   2.319
 1834SOL     OW 6187   1.434   3.050   1.903
 1834SOL    HW1 6188   1.466   2.974   1.960
 1834SOL    HW2 6189   1.342   3.077   1.933
 1835SOL     OW 6190   0.297   1.897   2.033
 1835SOL    HW1 6191   0.346   1.981   2.012
 1835SOL    HW2 6192   0.359   1.832   2.078
 1836SOL     OW 6193   0.935   2.098   2.342
 1836SOL    HW1 6194   0.887   2.139   2.264
 1836SOL    HW2 6195   1.034   2.096   2.323
 1837SOL     OW 6196   1.076   2.545   3.326
 1837SOL    HW1 6197   0.996   2.484   3.329
 1837SOL    HW2 6198   1.157   2.492   3.302
 1838SOL     OW 6199   1.227   3.432   2.655
 1838SOL    HW1 6200   1.248   3.506   2.590
 1838SOL    HW2 6201   1.295   3.432   2.728
 1839SOL     OW 6202   0.459   3.014   2.603
 1839SOL    HW1 6203   0.388   2.987   2.668
 1839SOL    HW2 6204   0.433   2.986   2.510
 1840SOL     OW 6205   1.271   3.659   2.453
 1840SOL    HW1 6206   1.315   3.723   2.389
 1840SOL    HW2 6207   1.221   3.711   2.523
 1841SOL     OW 6208   1.032   2.411   1.878
 1841SOL    HW1 6209   0.991   2.493   1.839
 1841SOL    HW2 6210   1.096   2.437   1.951
 1842SOL     OW 6211   0.078   2.418   3.248
 1842SOL    HW1 6212   0.170   2.417   3.207
 1842SOL    HW2 6213   0.072   2.492   3.315
 1843SOL     OW 6214   0.561   2.084   3.009
 1843SOL    HW1 6215   0.599   2.000   3.046
 1843SOL    HW2 6216   0.473   2.103   3.053
 1844SOL     OW 6217   0.866   2.316   2.504
 1844SOL    HW1 6218   0.834   2.388   2.442
 1844SOL    HW2 6219   0.890   2.235   2.451
 1845SOL     OW 6220   1.017   1.901   2.615
 1845SOL    HW1 6221   0.945   1.906   2.546
 1845SOL    HW2 6222   0.993   1.832   2.684
 1846SOL     OW 6223   1.429   3.035   2.729
 1846SOL    HW1 6224   1.374   2.951   2.722
 1846SOL    HW2 6225   1.455   3.064   2.637
 1847SOL     OW 6226   1.466   2.452   2.854
 1847SOL    HW1 6227   1.436   2.357   2.861
 1847SOL    HW2 6228   1.539   2.468   2.920
 1848SOL     OW 6229   1.857   2.695   2.239
 1848SOL    HW1 6230   1.899   2.631   2.303
 1848SOL    HW2 6231   1.819   2.644   2.161
 1849SOL     OW 6232   0.488   3.247   2.036
 1849SOL    HW1 6233   0.401   3.232   2.083
 1849SOL    HW2 6234   0.471   3.273   1.941
 1850SOL     OW 6235   1.664   3.142   2.519
 1850SOL    HW1 6236   1.763   3.150   2.533
 1850SOL    HW2 6237   1.619   3.226   2.550
 1851SOL     OW 6238   1.390   2.437   1.940
 1851SOL    HW1 6239   1.336   2.416   2.021
 1851SOL    HW2 6240   1.481   2.396   1.949
 1852SOL     OW 6241   0.527   2.118   2.190
 1852SOL    HW1 6242   0.554   2.059   2.115
 1852SOL    HW2 6243   0.527   2.213   2.159
 1853SOL     OW 6244   1.754   3.085   3.450
 1853SOL    HW1 6245   1.845   3.046   3.437
 1853SOL    HW2 6246   1.762   3.181   3.474
 1854SOL     OW 6247   1.064   3.209   3.202
 1854SOL    HW1 6248   0.984   3.186   3.257
 1854SOL    HW2 6249   1.147   3.183   3.251
 1855SOL     OW 6250   1.592   3.491   3.487
 1855SOL    HW1 6251   1.619   3.525   3.397
 1855SOL    HW2 6252   1.671   3.453   3.533
 1856SOL     OW 6253   1.111   3.057   2.962
 1856SOL    HW1 6254   1.071   3.101   3.043
 1856SOL    HW2 6255   1.070   3.094   2.879
 1857SOL     OW 6256   1.638   2.961   2.941
 1857SOL    HW1 6257   1.643   3.042   3.000
 1857SOL    HW2 6258   1.552   2.963   2.890
 1858SOL     OW 6259   0.915   1.951   3.264
 1858SOL    HW1 6260   0.940   1.931   3.169
 1858SOL    HW2 6261   0.987   2.007   3.306
 1859SOL     OW 6262   0.980   2.978   3.581
 1859SOL    HW1 6263   0.881   2.984   3.591
 1859SOL    HW2 6264   1.003   2.898   3.525
 1860SOL     OW 6265   0.705   2.912   2.230
 1860SOL    HW1 6266   0.691   2.919   2.329
 1860SOL    HW2 6267   0.789   2.861   2.212
 1861SOL     OW 6268   0.410   2.675   3.113
 1861SOL    HW1 6269   0.496   2.687   3.163
 1861SOL    HW2 6270   0.368   2.588   3.140
 1862SOL     OW 6271   1.274   2.248   3.124
 1862SOL    HW1 6272   1.295   2.322   3.188
 1862SOL    HW2 6273   1.185   2.265   3.081
 1863SOL     OW 6274   0.064   3.426   3.193
 1863SOL    HW1 6275   0.018   3.508   3.159
 1863SOL    HW2 6276   0.162   3.445   3.202
 1864SOL     OW 6277   0.367   2.962   2.363
 1864SOL    HW1 6278   0.360   3.045   2.307
 1864SOL    HW2 6279   0.371   2.882   2.303
 1865SOL     OW 6280   0.566   2.399   2.727
 1865SOL    HW1 6281   0.578   2.465   2.653
 1865SOL    HW2 6282   0.612   2.433   2.810
 1866SOL     OW 6283   1.252   3.210   2.250
 1866SOL    HW1 6284   1.302   3.287   2.290
 1866SOL    HW2 6285   1.157   3.212   2.282
 1867SOL     OW 6286   1.272   3.307   3.004
 1867SOL    HW1 6287   1.319   3.320   3.091
 1867SOL    HW2 6288   1.206   3.233   3.013
 1868SOL     OW 6289   1.582   2.501   2.334
 1868SOL    HW1 6290   1.551   2.562   2.407
 1868SOL    HW2 6291   1.632   2.553   2.265
 1869SOL     OW 6292   0.354   3.372   3.191
 1869SOL    HW1 6293   0.333   3.328   3.104
 1869SOL    HW2 6294   0.451   3.398   3.194
 1870SOL     OW 6295   0.402   2.613   3.460
 1870SOL    HW1 6296   0.470   2.668   3.413
 1870SOL    HW2 6297   0.442   2.525   3.487
 1871SOL     OW 6298   1.587   2.641   3.532
 1871SOL    HW1 6299   1.495   2.679   3.527
 1871SOL    HW2 6300   1.647   2.688   3.467
 1872SOL     OW 6301   1.013   1.967   3.632
 1872SOL    HW1 6302   1.019   2.052   3.580
 1872SOL    HW2 6303   1.045   1.891   3.575
 1873SOL     OW 6304   0.504   1.912   3.602
 1873SOL    HW1 6305   0.462   1.855   3.532
 1873SOL    HW2 6306   0.438   1.981   3.634
 1874SOL     OW 6307   0.573   2.732   2.891
 1874SOL    HW1 6308   0.617   2.821   2.882
 1874SOL    HW2 6309   0.510   2.732   2.968
 1875SOL     OW 6310   1.360   2.724   2.907
 1875SOL    HW1 6311   1.285   2.724   2.841
 1875SOL    HW2 6312   1.397   2.632   2.916
 1876SOL     OW 6313   1.209   2.387   2.137
 1876SOL    HW1 6314   1.222   2.303   2.191
 1876SOL    HW2 6315   1.180   2.461   2.197
 1877SOL     OW 6316   0.307   2.075   3.093
 1877SOL    HW1 6317   0.284   2.112   3.183
 1877SOL    HW2 6318   0.277   1.980   3.087
 1878SOL     OW 6319   0.037   3.172   3.144
 1878SOL    HW1 6320   0.090   3.123   3.212
 1878SOL    HW2 6321   0.059   3.270   3.149
 1879SOL     OW 6322   0.732   2.496   2.926
 1879SOL    HW1 6323   0.791   2.470   2.850
 1879SOL    HW2 6324   0.704   2.592   2.915
 1880SOL     OW 6325   1.728   2.797   3.716
 1880SOL    HW1 6326   1.682   2.790   3.627
 1880SOL    HW2 6327   1.666   2.841   3.782
 1881SOL     OW 6328   0.307   1.925   2.480
 1881SOL    HW1 6329   0.296   2.019   2.513
 1881SOL    HW2 6330   0.302   1.862   2.557
 1882SOL     OW 6331   1.622   2.229   2.236
 1882SOL    HW1 6332   1.624   2.153   2.300
 1882SOL    HW2 6333   1.574   2.306   2.276
 1883SOL     OW 6334   1.023   2.628   2.828
 1883SOL    HW1 6335   1.038   2.649   2.924
 1883SOL    HW2 6336   0.993   2.533   2.819
 1884SOL     OW 6337   0.980   3.435   3.562
 1884SOL    HW1 6338   0.960   3.479   3.474
 1884SOL    HW2 6339   1.019   3.344   3.546
 1885SOL     OW 6340   1.859   3.380   3.467
 1885SOL    HW1 6341   1.873   3.407   3.372
 1885SOL    HW2 6342   1.942   3.402   3.520
 1886SOL     OW 6343   0.350   2.760   3.666
 1886SOL    HW1 6344   0.426   2.804   3.714
 1886SOL    HW2 6345   0.385   2.713   3.584
 1887SOL     OW 6346   1.540   2.136   1.987
 1887SOL    HW1 6347   1.479   2.061   2.010
 1887SOL    HW2 6348   1.562   2.188   2.070
 1888SOL     OW 6349   1.303   2.700   1.904
 1888SOL    HW1 6350   1.337   2.607   1.919
 1888SOL    HW2 6351   1.321   2.727   1.809
 1889SOL     OW 6352   1.068   3.195   2.711
 1889SOL    HW1 6353   1.075   3.111   2.656
 1889SOL    HW2 6354   1.130   3.264   2.675
 1890SOL     OW 6355   0.319   2.672   2.811
 1890SOL    HW1 6356   0.412   2.708   2.816
 1890SOL    HW2 6357   0.313   2.587   2.863
 1891SOL     OW 6358   0.339   2.371   2.868
 1891SOL    HW1 6359   0.287   2.288   2.851
 1891SOL    HW2 6360   0.416   2.376   2.804
 1892SOL     OW 6361   1.138   2.242   3.540
 1892SOL    HW1 6362   1.093   2.305   3.604
 1892SOL    HW2 6363   1.231   2.273   3.523
 1893SOL     OW 6364   1.160   2.069   3.339
 1893SOL    HW1 6365   1.160   2.133   3.416
 1893SOL    HW2 6366   1.188   2.117   3.256
 1894SOL     OW 6367   0.008   3.188   2.062
 1894SOL    HW1 6368  -0.085   3.209   2.031
 1894SOL    HW2 6369   0.018   3.089   2.075
 1895SOL     OW 6370   0.088   3.663   2.789
 1895SOL    HW1 6371   0.046   3.577   2.762
 1895SOL    HW2 6372   0.182   3.666   2.755
 1896SOL     OW 6373   0.504   3.430   2.772
 1896SOL    HW1 6374   0.570   3.504   2.781
 1896SOL    HW2 6375   0.548   3.351   2.730
 1897SOL     OW 6376   1.002   2.658   3.100
 1897SOL    HW1 6377   1.043   2.626   3.186
 1897SOL    HW2 6378   0.906   2.631   3.097
 1898SOL     OW 6379   0.040   2.406   2.976
 1898SOL    HW1 6380   0.125   2.373   2.935
 1898SOL    HW2 6381   0.053   2.421   3.074
 1899SOL     OW 6382   0.189   2.382   3.584
 1899SOL    HW1 6383   0.248   2.342   3.514
 1899SOL    HW2 6384   0.131   2.453   3.543
 1900SOL     OW 6385   1.369   2.812   3.522
 1900SOL    HW1 6386   1.408   2.901   3.542
 1900SOL    HW2 6387   1.379   2.792   3.425
 1901SOL     OW 6388   0.815   2.434   2.187
 1901SOL    HW1 6389   0.822   2.345   2.141
 1901SOL    HW2 6390   0.721   2.468   2.179
 1902SOL     OW 6391   1.657   2.466   3.068
 1902SOL    HW1 6392   1.619   2.397   3.130
 1902SOL    HW2 6393   1.739   2.430   3.024
 1903SOL     OW 6394   0.252   3.426   3.606
 1903SOL    HW1 6395   0.222   3.483   3.682
 1903SOL    HW2 6396   0.245   3.329   3.632
 1904SOL     OW 6397   0.671   2.326   3.131
 1904SOL    HW1 6398   0.637   2.237   3.101
 1904SOL    HW2 6399   0.697   2.380   3.051
 1905SOL     OW 6400   0.930   3.540   3.327
 1905SOL    HW1 6401   0.906   3.522   3.232
 1905SOL    HW2 6402   0.960   3.634   3.337
 1906SOL     OW 6403   0.473   2.362   2.053
 1906SOL    HW1 6404   0.534   2.442   2.057
 1906SOL    HW2 6405   0.378   2.393   2.060
 1907SOL     OW 6406   0.159   2.999   3.328
 1907SOL    HW1 6407   0.181   2.938   3.404
 1907SOL    HW2 6408   0.169   2.950   3.242
 1908SOL     OW 6409   1.347   2.921   3.096
 1908SOL    HW1 6410   1.371   2.858   3.022
 1908SOL    HW2 6411   1.257   2.961   3.078
 1909SOL     OW 6412   1.302   2.717   2.171
 1909SOL    HW1 6413   1.216   2.686   2.213
 1909SOL    HW2 6414   1.298   2.703   2.072
 1910SOL     OW 6415   1.759   3.609   3.016
 1910SOL    HW1 6416   1.820   3.639   2.943
 1910SOL    HW2 6417   1.721   3.520   2.994
 1911SOL     OW 6418   1.252   3.593   2.990
 1911SOL    HW1 6419   1.336   3.598   2.936
 1911SOL    HW2 6420   1.229   3.497   3.008
 1912SOL     OW 6421   0.083   3.120   2.884
 1912SOL    HW1 6422   0.078   3.119   2.984
 1912SOL    HW2 6423   0.000   3.079   2.846
 1913SOL     OW 6424   0.688   3.524   3.578
 1913SOL    HW1 6425   0.632   3.605   3.587
 1913SOL    HW2 6426   0.740   3.528   3.492
 1914SOL     OW 6427   1.388   3.435   2.339
 1914SOL    HW1 6428   1.455   3.447   2.265
 1914SOL    HW2 6429   1.348   3.524   2.362
 1915SOL     OW 6430   0.130   3.656   3.713
 1915SOL    HW1 6431   0.089   3.582   3.766
 1915SOL    HW2 6432   0.194   3.707   3.771
 1916SOL     OW 6433   1.280   2.789   2.534
 1916SOL    HW1 6434   1.340   2.708   2.536
 1916SOL    HW2 6435   1.320   2.858   2.474
 1917SOL     OW 6436   0.830   3.135   3.284
 1917SOL    HW1 6437   0.825   3.168   3.379
 1917SOL    HW2 6438   0.744   3.154   3.238
 1918SOL     OW 6439   0.672   3.478   2.016
 1918SOL    HW1 6440   0.681   3.488   1.917
 1918SOL    HW2 6441   0.632   3.389   2.037
 1919SOL     OW 6442   1.650   3.582   3.256
 1919SOL    HW1 6443   1.703   3.592   3.172
 1919SOL    HW2 6444   1.623   3.672   3.290
 1920SOL     OW 6445   0.263   2.188   2.582
 1920SOL    HW1 6446   0.184   2.239   2.548
 1920SOL    HW2 6447   0.254   2.173   2.680
 1921SOL     OW 6448   1.194   3.474   1.893
 1921SOL    HW1 6449   1.200   3.381   1.930
 1921SOL    HW2 6450   1.135   3.474   1.813
 1922SOL     OW 6451   0.822   2.864   3.234
 1922SOL    HW1 6452   0.862   2.863   3.142
 1922SOL    HW2 6453   0.832   2.956   3.274
 1923SOL     OW 6454   0.916   2.772   2.153
 1923SOL    HW1 6455   0.979   2.810   2.085
 1923SOL    HW2 6456   0.956   2.689   2.192
 1924SOL     OW 6457   1.504   3.469   1.906
 1924SOL    HW1 6458   1.412   3.506   1.913
 1924SOL    HW2 6459   1.542   3.489   1.816
 1925SOL     OW 6460   0.372   3.150   3.352
 1925SOL    HW1 6461   0.359   3.243   3.318
 1925SOL    HW2 6462   0.288   3.098   3.339
 1926SOL     OW 6463   1.614   3.154   3.151
 1926SOL    HW1 6464   1.674   3.157   3.231
 1926SOL    HW2 6465   1.539   3.218   3.164
 1927SOL     OW 6466   1.039   2.960   2.558
 1927SOL    HW1 6467   0.969   2.913   2.612
 1927SOL    HW2 6468   1.098   2.892   2.515
 1928SOL     OW 6469   1.014   2.098   2.833
 1928SOL    HW1 6470   1.006   2.062   2.740
 1928SOL    HW2 6471   1.012   2.022   2.898
 1929SOL     OW 6472   0.590   3.349   2.353
 1929SOL    HW1 6473   0.632   3.291   2.283
 1929SOL    HW2 6474   0.546   3.428   2.309
 1930SOL     OW 6475   1.709   2.247   3.243
 1930SOL    HW1 6476   1.782   2.316   3.247
 1930SOL    HW2 6477   1.737   2.172   3.184
 1931SOL     OW 6478   0.255   3.210   2.152
 1931SOL    HW1 6479   0.159   3.211   2.125
 1931SOL    HW2 6480   0.267   3.263   2.236
 1932SOL     OW 6481   0.105   2.875   3.588
 1932SOL    HW1 6482   0.028   2.842   3.642
 1932SOL    HW2 6483   0.190   2.845   3.630
 1933SOL     OW 6484   0.672   2.065   3.351
 1933SOL    HW1 6485   0.762   2.049   3.311
 1933SOL    HW2 6486   0.680   2.070   3.450
 1934SOL     OW 6487   0.075   2.207   1.895
 1934SOL    HW1 6488  -0.017   2.179   1.866
 1934SOL    HW2 6489   0.106   2.284   1.839
 1935SOL     OW 6490   1.440   2.718   3.260
 1935SOL    HW1 6491   1.383   2.770   3.197
 1935SOL    HW2 6492   1.536   2.730   3.236
 1936SOL     OW 6493   0.072   2.028   2.180
 1936SOL    HW1 6494   0.055   2.111   2.126
 1936SOL    HW2 6495   0.162   1.991   2.158
 1937SOL     OW 6496   1.183   3.197   1.981
 1937SOL    HW1 6497   1.084   3.186   1.983
 1937SOL    HW2 6498   1.217   3.212   2.074
 1938SOL     OW 6499   0.613   2.704   3.293
 1938SOL    HW1 6500   0.669   2.785   3.276
 1938SOL    HW2 6501   0.672   2.624   3.296
 1939SOL     OW 6502   1.493   3.629   2.821
 1939SOL    HW1 6503   1.526   3.693   2.752
 1939SOL    HW2 6504   1.559   3.623   2.896
 1940SOL     OW 6505   0.716   2.427   3.570
 1940SOL    HW1 6506   0.735   2.492   3.644
 1940SOL    HW2 6507   0.776   2.347   3.579
 1941SOL     OW 6508   1.450   3.082   3.495
 1941SOL    HW1 6509   1.441   3.072   3.594
 1941SOL    HW2 6510   1.546   3.075   3.469
 1942SOL     OW 6511   0.390   3.603   3.422
 1942SOL    HW1 6512   0.299   3.644   3.420
 1942SOL    HW2 6513   0.383   3.509   3.454
 1943SOL     OW 6514   1.674   2.745   3.116
 1943SOL    HW1 6515   1.647   2.656   3.079
 1943SOL    HW2 6516   1.675   2.813   3.043
 1944SOL     OW 6517   1.225   2.187   2.311
 1944SOL    HW1 6518   1.290   2.113   2.300
 1944SOL    HW2 6519   1.245   2.237   2.395
 1945SOL     OW 6520   0.594   2.607   2.514
 1945SOL    HW1 6521   0.644   2.692   2.495
 1945SOL    HW2 6522   0.506   2.609   2.466
 1946SOL     OW 6523   1.777   2.204   3.504
 1946SOL    HW1 6524   1.760   2.235   3.410
 1946SOL    HW2 6525   1.693   2.167   3.542
 1947SOL     OW 6526   1.730   2.796   3.379
 1947SOL    HW1 6527   1.768   2.887   3.394
 1947SOL    HW2 6528   1.722   2.779   3.280
 1948SOL     OW 6529   0.859   3.236   1.878
 1948SOL    HW1 6530   0.813   3.251   1.966
 1948SOL    HW2 6531   0.903   3.321   1.848
 1949SOL     OW 6532   0.661   3.652   2.815
 1949SOL    HW1 6533   0.615   3.740   2.802
 1949SOL    HW2 6534   0.760   3.664   2.808
 1950SOL     OW 6535   0.859   2.818   2.723
 1950SOL    HW1 6536   0.913   2.749   2.771
 1950SOL    HW2 6537   0.827   2.887   2.789
 1951SOL     OW 6538   1.083   2.846   1.949
 1951SOL    HW1 6539   1.060   2.899   1.867
 1951SOL    HW2 6540   1.164   2.790   1.930
 1952SOL     OW 6541   1.861   3.431   2.713
 1952SOL    HW1 6542   1.790   3.419   2.643
 1952SOL    HW2 6543   1.862   3.352   2.773
 1953SOL     OW 6544   0.221   3.176   3.706
 1953SOL    HW1 6545   0.156   3.103   3.685
 1953SOL    HW2 6546   0.225   3.190   3.804
 1954SOL     OW 6547   0.079   3.102   2.515
 1954SOL    HW1 6548   0.078   3.055   2.603
 1954SOL    HW2 6549   0.161   3.074   2.464
 1955SOL     OW 6550   0.672   3.253   3.486
 1955SOL    HW1 6551   0.594   3.203   3.524
 1955SOL    HW2 6552   0.669   3.348   3.517
 1956SOL     OW 6553   0.428   2.286   2.382
 1956SOL    HW1 6554   0.458   2.214   2.320
 1956SOL    HW2 6555   0.389   2.246   2.465
 1957SOL     OW 6556   1.705   3.349   2.966
 1957SOL    HW1 6557   1.612   3.324   2.939
 1957SOL    HW2 6558   1.731   3.299   3.048
 1958SOL     OW 6559   0.317   2.409   3.142
 1958SOL    HW1 6560   0.355   2.350   3.214
 1958SOL    HW2 6561   0.357   2.383   3.054
 1959SOL     OW 6562   0.812   3.448   2.549
 1959SOL    HW1 6563   0.844   3.458   2.455
 1959SOL    HW2 6564   0.733   3.386   2.551
 1960SOL     OW 6565   1.424   2.076   2.974
 1960SOL    HW1 6566   1.476   2.011   3.029
 1960SOL    HW2 6567   1.375   2.139   3.035
 1961SOL     OW 6568   1.001   1.896   3.016
 1961SOL    HW1 6569   0.938   1.824   2.985
 1961SOL    HW2 6570   1.094   1.860   3.016
 1962SOL     OW 6571   0.770   3.192   2.163
 1962SOL    HW1 6572   0.724   3.105   2.180
 1962SOL    HW2 6573   0.861   3.189   2.204
 1963SOL     OW 6574   0.618   3.429   3.146
 1963SOL    HW1 6575   0.613   3.511   3.203
 1963SOL    HW2 6576   0.707   3.426   3.101
 1964SOL     OW 6577   1.352   1.914   2.030
 1964SOL    HW1 6578   1.387   1.873   1.946
 1964SOL    HW2 6579   1.262   1.876   2.050
 1965SOL     OW 6580   1.300   2.315   2.553
 1965SOL    HW1 6581   1.241   2.395   2.557
 1965SOL    HW2 6582   1.315   2.280   2.646
 1966SOL     OW 6583   1.593   2.083   2.744
 1966SOL    HW1 6584   1.509   2.082   2.798
 1966SOL    HW2 6585   1.595   2.166   2.688
 1967SOL     OW 6586   0.039   2.939   2.162
 1967SOL    HW1 6587   0.138   2.928   2.153
 1967SOL    HW2 6588  -0.001   2.853   2.194
 1968SOL     OW 6589   0.875   3.508   2.199
 1968SOL    HW1 6590   0.798   3.473   2.145
 1968SOL    HW2 6591   0.843   3.579   2.261
 1969SOL     OW 6592   0.230   2.490   3.837
 1969SOL    HW1 6593   0.137   2.488   3.874
 1969SOL    HW2 6594   0.231   2.451   3.745
 1970SOL     OW 6595   0.225   2.137   4.720
 1970SOL    HW1 6596   0.260   2.120   4.812
 1970SOL    HW2 6597   0.137   2.092   4.708
 1971SOL     OW 6598   0.019   2.230   4.371
 1971SOL    HW1 6599  -0.063   2.273   4.410
 1971SOL    HW2 6600  -0.009   2.157   4.308
 1972SOL     OW 6601   0.569   3.137   4.889
 1972SOL    HW1 6602   0.476   3.130   4.852
 1972SOL    HW2 6603   0.580   3.226   4.933
 1973SOL     OW 6604   1.555   3.373   4.427
 1973SOL    HW1 6605   1.498   3.357   4.508
 1973SOL    HW2 6606   1.496   3.383   4.347
 1974SOL     OW 6607   1.135   2.565   4.441
 1974SOL    HW1 6608   1.192   2.643   4.416
 1974SOL    HW2 6609   1.075   2.591   4.517
 1975SOL     OW 6610   1.755   2.469   3.955
 1975SOL    HW1 6611   1.743   2.456   3.856
 1975SOL    HW2 6612   1.725   2.388   4.004
 1976SOL     OW 6613   0.768   3.006   4.747
 1976SOL    HW1 6614   0.690   3.023   4.807
 1976SOL    HW2 6615   0.802   3.093   4.711
 1977SOL     OW 6616   0.850   2.660   5.547
 1977SOL    HW1 6617   0.846   2.736   5.612
 1977SOL    HW2 6618   0.872   2.696   5.456
 1978SOL     OW 6619   0.685   2.874   4.389
 1978SOL    HW1 6620   0.754   2.858   4.459
 1978SOL    HW2 6621   0.612   2.931   4.427
 1979SOL     OW 6622   0.686   3.023   5.527
 1979SOL    HW1 6623   0.746   3.102   5.541
 1979SOL    HW2 6624   0.600   3.054   5.486
 1980SOL     OW 6625   0.335   3.297   4.785
 1980SOL    HW1 6626   0.257   3.266   4.732
 1980SOL    HW2 6627   0.393   3.355   4.728
 1981SOL     OW 6628   1.460   3.367   5.063
 1981SOL    HW1 6629   1.484   3.461   5.089
 1981SOL    HW2 6630   1.444   3.313   5.145
 1982SOL     OW 6631   0.438   2.254   5.223
 1982SOL    HW1 6632   0.520   2.198   5.232
 1982SOL    HW2 6633   0.357   2.196   5.227
 1983SOL     OW 6634   1.603   2.309   4.461
 1983SOL    HW1 6635   1.529   2.355   4.411
 1983SOL    HW2 6636   1.654   2.377   4.514
 1984SOL     OW 6637   0.231   3.575   4.207
 1984SOL    HW1 6638   0.265   3.652   4.261
 1984SOL    HW2 6639   0.275   3.575   4.117
 1985SOL     OW 6640   1.127   3.203   5.414
 1985SOL    HW1 6641   1.174   3.203   5.502
 1985SOL    HW2 6642   1.079   3.116   5.403
 1986SOL     OW 6643   0.230   3.296   4.262
 1986SOL    HW1 6644   0.204   3.392   4.262
 1986SOL    HW2 6645   0.159   3.242   4.307
 1987SOL     OW 6646   0.240   2.953   4.610
 1987SOL    HW1 6647   0.254   2.869   4.662
 1987SOL    HW2 6648   0.185   3.017   4.665
 1988SOL     OW 6649   0.620   3.648   5.163
 1988SOL    HW1 6650   0.528   3.631   5.198
 1988SOL    HW2 6651   0.648   3.740   5.189
 1989SOL     OW 6652   0.606   2.826   3.847
 1989SOL    HW1 6653   0.613   2.910   3.793
 1989SOL    HW2 6654   0.652   2.839   3.935
 1990SOL     OW 6655   1.594   1.976   5.204
 1990SOL    HW1 6656   1.576   2.043   5.132
 1990SOL    HW2 6657   1.591   2.022   5.293
 1991SOL     OW 6658   0.122   2.505   4.287
 1991SOL    HW1 6659   0.077   2.417   4.304
 1991SOL    HW2 6660   0.121   2.559   4.371
 1992SOL     OW 6661   1.842   3.629   4.083
 1992SOL    HW1 6662   1.896   3.600   4.163
 1992SOL    HW2 6663   1.872   3.719   4.054
 1993SOL     OW 6664   0.027   3.458   3.841
 1993SOL    HW1 6665   0.008   3.362   3.862
 1993SOL    HW2 6666  -0.006   3.516   3.916
 1994SOL     OW 6667   1.689   2.784   4.336
 1994SOL    HW1 6668   1.784   2.755   4.344
 1994SOL    HW2 6669   1.681   2.849   4.261
 1995SOL     OW 6670   1.641   2.970   4.156
 1995SOL    HW1 6671   1.727   2.972   4.104
 1995SOL    HW2 6672   1.655   3.017   4.244
 1996SOL     OW 6673   0.113   2.599   5.321
 1996SOL    HW1 6674   0.201   2.586   5.366
 1996SOL    HW2 6675   0.100   2.696   5.299
 1997SOL     OW 6676   0.613   3.227   4.450
 1997SOL    HW1 6677   0.564   3.140   4.459
 1997SOL    HW2 6678   0.590   3.270   4.363
 1998SOL     OW 6679   1.293   3.090   5.147
 1998SOL    HW1 6680   1.330   3.017   5.089
 1998SOL    HW2 6681   1.345   3.095   5.232
 1999SOL     OW 6682   0.809   1.866   4.226
 1999SOL    HW1 6683   0.849   1.957   4.217
 1999SOL    HW2 6684   0.709   1.874   4.232
 2000SOL     OW 6685   0.197   2.838   4.988
 2000SOL    HW1 6686   0.286   2.793   4.974
 2000SOL    HW2 6687   0.124   2.773   4.969
 2001SOL     OW 6688   1.525   2.861   3.914
 2001SOL    HW1 6689   1.462   2.785   3.927
 2001SOL    HW2 6690   1.573   2.879   4.000
 2002SOL     OW 6691   1.187   3.654   5.340
 2002SOL    HW1 6692   1.211   3.714   5.264
 2002SOL    HW2 6693   1.194   3.559   5.310
 2003SOL     OW 6694   0.317   2.113   5.525
 2003SOL    HW1 6695   0.388   2.184   5.531
 2003SOL    HW2 6696   0.229   2.152   5.553
 2004SOL     OW 6697   1.466   3.279   4.677
 2004SOL    HW1 6698   1.407   3.285   4.757
 2004SOL    HW2 6699   1.451   3.191   4.631
 2005SOL     OW 6700   1.667   3.576   4.296
 2005SOL    HW1 6701   1.626   3.553   4.208
 2005SOL    HW2 6702   1.649   3.502   4.361
 2006SOL     OW 6703   0.598   2.591   3.994
 2006SOL    HW1 6704   0.622   2.660   3.926
 2006SOL    HW2 6705   0.520   2.624   4.048
 2007SOL     OW 6706   1.281   2.207   4.668
 2007SOL    HW1 6707   1.195   2.157   4.655
 2007SOL    HW2 6708   1.343   2.153   4.724
 2008SOL     OW 6709   1.576   3.524   4.031
 2008SOL    HW1 6710   1.665   3.570   4.034
 2008SOL    HW2 6711   1.555   3.500   3.936
 2009SOL     OW 6712   0.807   2.467   5.189
 2009SOL    HW1 6713   0.760   2.464   5.278
 2009SOL    HW2 6714   0.756   2.412   5.123
 2010SOL     OW 6715   1.394   2.331   5.398
 2010SOL    HW1 6716   1.374   2.374   5.486
 2010SOL    HW2 6717   1.472   2.269   5.407
 2011SOL     OW 6718   0.973   2.752   5.296
 2011SOL    HW1 6719   1.019   2.668   5.267
 2011SOL    HW2 6720   0.917   2.786   5.221
 2012SOL     OW 6721   0.991   2.272   4.966
 2012SOL    HW1 6722   0.914   2.306   5.020
 2012SOL    HW2 6723   0.957   2.221   4.887
 2013SOL     OW 6724   1.041   2.563   4.153
 2013SOL    HW1 6725   1.067   2.559   4.249
 2013SOL    HW2 6726   0.956   2.512   4.139
 2014SOL     OW 6727   0.076   2.673   4.513
 2014SOL    HW1 6728   0.175   2.661   4.522
 2014SOL    HW2 6729   0.052   2.768   4.534
 2015SOL     OW 6730   0.130   3.683   5.295
 2015SOL    HW1 6731   0.120   3.668   5.394
 2015SOL    HW2 6732   0.044   3.719   5.259
 2016SOL     OW 6733   0.865   2.210   3.919
 2016SOL    HW1 6734   0.924   2.273   3.870
 2016SOL    HW2 6735   0.884   2.116   3.890
 2017SOL     OW 6736   1.719   2.447   5.555
 2017SOL    HW1 6737   1.693   2.536   5.519
 2017SOL    HW2 6738   1.717   2.379   5.482
 2018SOL     OW 6739   1.362   3.006   4.269
 2018SOL    HW1 6740   1.445   2.977   4.221
 2018SOL    HW2 6741   1.313   3.073   4.213
 2019SOL     OW 6742   0.550   2.058   4.609
 2019SOL    HW1 6743   0.545   2.053   4.709
 2019SOL    HW2 6744   0.552   2.154   4.580
 2020SOL     OW 6745   1.008   3.318   4.201
 2020SOL    HW1 6746   0.962   3.390   4.149
 2020SOL    HW2 6747   1.004   3.338   4.299
 2021SOL     OW 6748   0.351   3.663   4.577
 2021SOL    HW1 6749   0.401   3.577   4.583
 2021SOL    HW2 6750   0.416   3.740   4.574
 2022SOL     OW 6751   1.795   2.928   4.597
 2022SOL    HW1 6752   1.733   2.913   4.521
 2022SOL    HW2 6753   1.743   2.939   4.682
 2023SOL     OW 6754   1.227   3.412   5.230
 2023SOL    HW1 6755   1.233   3.335   5.294
 2023SOL    HW2 6756   1.175   3.386   5.150
 2024SOL     OW 6757   0.321   2.805   3.966
 2024SOL    HW1 6758   0.403   2.844   3.924
 2024SOL    HW2 6759   0.294   2.723   3.917
 2025SOL     OW 6760   1.458   2.597   4.452
 2025SOL    HW1 6761   1.453   2.532   4.527
 2025SOL    HW2 6762   1.538   2.656   4.465
 2026SOL     OW 6763   0.461   3.128   5.451
 2026SOL    HW1 6764   0.411   3.129   5.365
 2026SOL    HW2 6765   0.398   3.110   5.527
 2027SOL     OW 6766   1.111   3.638   3.961
 2027SOL    HW1 6767   1.051   3.576   4.011
 2027SOL    HW2 6768   1.142   3.594   3.876
 2028SOL     OW 6769   0.202   2.147   5.222
 2028SOL    HW1 6770   0.122   2.207   5.209
 2028SOL    HW2 6771   0.192   2.098   5.308
 2029SOL     OW 6772   1.632   3.239   3.805
 2029SOL    HW1 6773   1.600   3.333   3.795
 2029SOL    HW2 6774   1.556   3.176   3.793
 2030SOL     OW 6775   0.464   3.605   4.047
 2030SOL    HW1 6776   0.497   3.644   4.133
 2030SOL    HW2 6777   0.540   3.598   3.982
 2031SOL     OW 6778   1.400   1.969   4.150
 2031SOL    HW1 6779   1.376   1.932   4.060
 2031SOL    HW2 6780   1.499   1.985   4.154
 2032SOL     OW 6781   0.249   3.647   4.965
 2032SOL    HW1 6782   0.306   3.582   5.015
 2032SOL    HW2 6783   0.233   3.614   4.872
 2033SOL     OW 6784   0.940   3.560   4.628
 2033SOL    HW1 6785   1.020   3.503   4.649
 2033SOL    HW2 6786   0.891   3.520   4.551
 2034SOL     OW 6787   0.382   2.562   4.204
 2034SOL    HW1 6788   0.427   2.472   4.201
 2034SOL    HW2 6789   0.288   2.551   4.237
 2035SOL     OW 6790   1.547   2.084   5.453
 2035SOL    HW1 6791   1.542   2.121   5.545
 2035SOL    HW2 6792   1.475   2.015   5.441
 2036SOL     OW 6793   0.614   1.984   3.841
 2036SOL    HW1 6794   0.712   1.962   3.848
 2036SOL    HW2 6795   0.583   1.967   3.748
 2037SOL     OW 6796   0.781   2.126   5.473
 2037SOL    HW1 6797   0.848   2.065   5.516
 2037SOL    HW2 6798   0.708   2.145   5.538
 2038SOL     OW 6799   0.888   3.376   4.919
 2038SOL    HW1 6800   0.865   3.351   4.825
 2038SOL    HW2 6801   0.949   3.307   4.958
 2039SOL     OW 6802   1.351   2.452   5.157
 2039SOL    HW1 6803   1.379   2.409   5.242
 2039SOL    HW2 6804   1.376   2.548   5.158
 2040SOL     OW 6805   0.803   3.264   4.648
 2040SOL    HW1 6806   0.893   3.278   4.606
 2040SOL    HW2 6807   0.732   3.266   4.577
 2041SOL     OW 6808   0.922   2.365   4.623
 2041SOL    HW1 6809   0.897   2.356   4.527
 2041SOL    HW2 6810   0.970   2.283   4.654
 2042SOL     OW 6811   0.539   1.926   4.236
 2042SOL    HW1 6812   0.458   1.927   4.294
 2042SOL    HW2 6813   0.542   2.009   4.181
 2043SOL     OW 6814   1.434   3.050   3.765
 2043SOL    HW1 6815   1.466   2.974   3.822
 2043SOL    HW2 6816   1.342   3.077   3.795
 2044SOL     OW 6817   0.297   1.897   3.895
 2044SOL    HW1 6818   0.346   1.981   3.874
 2044SOL    HW2 6819   0.359   1.832   3.940
 2045SOL     OW 6820   0.935   2.098   4.204
 2045SOL    HW1 6821   0.887   2.139   4.126
 2045SOL    HW2 6822   1.034   2.096   4.185
 2046SOL     OW 6823   1.076   2.545   5.188
 2046SOL    HW1 6824   0.996   2.484   5.191
 2046SOL    HW2 6825   1.157   2.492   5.164
 2047SOL     OW 6826   1.227   3.432   4.517
 2047SOL    HW1 6827   1.248   3.506   4.452
 2047SOL    HW2 6828   1.295   3.432   4.590
 2048SOL     OW 6829   0.459   3.014   4.465
 2048SOL    HW1 6830   0.388   2.987   4.530
 2048SOL    HW2 6831   0.433   2.986   4.372
 2049SOL     OW 6832   1.271   3.659   4.315
 2049SOL    HW1 6833   1.315   3.723   4.251
 2049SOL    HW2 6834   1.221   3.711   4.385
 2050SOL     OW 6835   1.032   2.411   3.740
 2050SOL    HW1 6836   0.991   2.493   3.701
 2050SOL    HW2 6837   1.096   2.437   3.813
 2051SOL     OW 6838   0.078   2.418   5.110
 2051SOL    HW1 6839   0.170   2.417   5.069
 2051SOL    HW2 6840   0.072   2.492   5.177
 2052SOL     OW 6841   0.561   2.084   4.871
 2052SOL    HW1 6842   0.599   2.000   4.908
 2052SOL    HW2 6843   0.473   2.103   4.915
 2053SOL     OW 6844   0.866   2.316   4.366
 2053SOL    HW1 6845   0.834   2.388   4.304
 2053SOL    HW2 6846   0.890   2.235   4.313
 2054SOL     OW 6847   1.017   1.901   4.477
 2054SOL    HW1 6848   0.945   1.906   4.408
 2054SOL    HW2 6849   0.993   1.832   4.546
 2055SOL     OW 6850   1.429   3.035   4.591
 2055SOL    HW1 6851   1.374   2.951   4.584
 2055SOL    HW2 6852   1.455   3.064   4.499
 2056SOL     OW 6853   1.466   2.452   4.716
 2056SOL    HW1 6854   1.436   2.357   4.723
 2056SOL    HW2 6855   1.539   2.468   4.782
 2057SOL     OW 6856   1.857   2.695   4.101
 2057SOL    HW1 6857   1.899   2.631   4.165
 2057SOL    HW2 6858   1.819   2.644   4.023
 2058SOL     OW 6859   0.488   3.247   3.898
 2058SOL    HW1 6860   0.401   3.232   3.945
 2058SOL    HW2 6861   0.471   3.273   3.803
 2059SOL     OW 6862   1.664   3.142   4.381
 2059SOL    HW1 6863   1.763   3.150   4.395
 2059SOL    HW2 6864   1.619   3.226   4.412
 2060SOL     OW 6865   1.390   2.437   3.802
 2060SOL    HW1 6866   1.336   2.416   3.883
 2060SOL    HW2 6867   1.481   2.396   3.811
 2061SOL     OW 6868   0.527   2.118   4.052
 2061SOL    HW1 6869   0.554   2.059   3.977
 2061SOL    HW2 6870   0.527   2.213   4.021
 2062SOL     OW 6871   1.754   3.085   5.312
 2062SOL    HW1 6872   1.845   3.046   5.299
 2062SOL    HW2 6873   1.762   3.181   5.336
 2063SOL     OW 6874   1.064   3.209   5.064
 2063SOL    HW1 6875   0.984   3.186   5.119
 2063SOL    HW2 6876   1.147   3.183   5.113
 2064SOL     OW 6877   1.592   3.491   5.349
 2064SOL    HW1 6878   1.619   3.525   5.259
 2064SOL    HW2 6879   1.671   3.453   5.395
 2065SOL     OW 6880   1.111   3.057   4.824
 2065SOL    HW1 6881   1.071   3.101   4.905
 2065SOL    HW2 6882   1.070   3.094   4.741
 2066SOL     OW 6883   1.638   2.961   4.803
 2066SOL    HW1 6884   1.643   3.042   4.862
 2066SOL    HW2 6885   1.552   2.963   4.752
 2067SOL     OW 6886   0.915   1.951   5.126
 2067SOL    HW1 6887   0.940   1.931   5.031
 2067SOL    HW2 6888   0.987   2.007   5.168
 2068SOL     OW 6889   0.980   2.978   5.443
 2068SOL    HW1 6890   0.881   2.984   5.453
 2068SOL    HW2 6891   1.003   2.898   5.387
 2069SOL     OW 6892   0.705   2.912   4.092
 2069SOL    HW1 6893   0.691   2.919   4.191
 2069SOL    HW2 6894   0.789   2.861   4.074
 2070SOL     OW 6895   0.410   2.675   4.975
 2070SOL    HW1 6896   0.496   2.687   5.025
 2070SOL    HW2 6897   0.368   2.588   5.002
 2071SOL     OW 6898   1.274   2.248   4.986
 2071SOL    HW1 6899   1.295   2.322   5.050
 2071SOL    HW2 6900   1.185   2.265   4.943
 2072SOL     OW 6901   0.064   3.426   5.055
 2072SOL    HW1 6902   0.018   3.508   5.021
 2072SOL    HW2 6903   0.162   3.445   5.064
 2073SOL     OW 6904   0.367   2.962   4.225
 2073SOL    HW1 6905   0.360   3.045   4.169
 2073SOL    HW2 6906   0.371   2.882   4.165
 2074SOL     OW 6907   0.566   2.399   4.589
 2074SOL    HW1 6908   0.578   2.465   4.515
 2074SOL    HW2 6909   0.612   2.433   4.672
 2075SOL     OW 6910   1.252   3.210   4.112
 2075SOL    HW1 6911   1.302   3.287   4.152
 2075SOL    HW2 6912   1.157   3.212   4.144
 2076SOL     OW 6913   1.272   3.307   4.866
 2076SOL    HW1 6914   1.319   3.320   4.953
 2076SOL    HW2 6915   1.206   3.233   4.875
 2077SOL     OW 6916   1.582   2.501   4.196
 2077SOL    HW1 6917   1.551   2.562   4.269
 2077SOL    HW2 6918   1.632   2.553   4.127
 2078SOL     OW 6919   0.354   3.372   5.053
 2078SOL    HW1 6920   0.333   3.328   4.966
 2078SOL    HW2 6921   0.451   3.398   5.056
 2079SOL     OW 6922   0.402   2.613   5.322
 2079SOL    HW1 6923   0.470   2.668   5.275
 2079SOL    HW2 6924   0.442   2.525   5.349
 2080SOL     OW 6925   1.587   2.641   5.394
 2080SOL    HW1 6926   1.495   2.679   5.389
 2080SOL    HW2 6927   1.647   2.688   5.329
 2081SOL     OW 6928   1.013   1.967   5.494
 2081SOL    HW1 6929   1.019   2.052   5.442
 2081SOL    HW2 6930   1.045   1.891   5.437
 2082SOL     OW 6931   0.504   1.912   5.464
 2082SOL    HW1 6932   0.462   1.855   5.394
 2082SOL    HW2 6933   0.438   1.981   5.496
 2083SOL     OW 6934   0.573   2.732   4.753
 2083SOL    HW1 6935   0.617   2.821   4.744
 2083SOL    HW2 6936   0.510   2.732   4.830
 2084SOL     OW 6937   1.360   2.724   4.769
 2084SOL    HW1 6938   1.285   2.724   4.703
 2084SOL    HW2 6939   1.397   2.632   4.778
 2085SOL     OW 6940   1.209   2.387   3.999
 2085SOL    HW1 6941   1.222   2.303   4.053
 2085SOL    HW2 6942   1.180   2.461   4.059
 2086SOL     OW 6943   0.307   2.075   4.955
 2086SOL    HW1 6944   0.284   2.112   5.045
 2086SOL    HW2 6945   0.277   1.980   4.949
 2087SOL     OW 6946   0.037   3.172   5.006
 2087SOL    HW1 6947   0.090   3.123   5.074
 2087SOL    HW2 6948   0.059   3.270   5.011
 2088SOL     OW 6949   0.732   2.496   4.788
 2088SOL    HW1 6950   0.791   2.470   4.712
 2088SOL    HW2 6951   0.704   2.592   4.777
 2089SOL     OW 6952   1.728   2.797   5.578
 2089SOL    HW1 6953   1.682   2.790   5.489
 2089SOL    HW2 6954   1.666   2.841   5.644
 2090SOL     OW 6955   0.307   1.925   4.342
 2090SOL    HW1 6956   0.296   2.019   4.375
 2090SOL    HW2 6957   0.302   1.862   4.419
 2091SOL     OW 6958   1.622   2.229   4.098
 2091SOL    HW1 6959   1.624   2.153   4.162
 2091SOL    HW2 6960   1.574   2.306   4.138
 2092SOL     OW 6961   1.023   2.628   4.690
 2092SOL    HW1 6962   1.038   2.649   4.786
 2092SOL    HW2 6963   0.993   2.533   4.681
 2093SOL     OW 6964   0.980   3.435   5.424
 2093SOL    HW1 6965   0.960   3.479   5.336
 2093SOL    HW2 6966   1.019   3.344   5.408
 2094SOL     OW 6967   1.859   3.380   5.329
 2094SOL    HW1 6968   1.873   3.407   5.234
 2094SOL    HW2 6969   1.942   3.402   5.382
 2095SOL     OW 6970   0.350   2.760   5.528
 2095SOL    HW1 6971   0.426   2.804   5.576
 2095SOL    HW2 6972   0.385   2.713   5.446
 2096SOL     OW 6973   1.540   2.136   3.849
 2096SOL    HW1 6974   1.479   2.061   3.872
 2096SOL    HW2 6975   1.562   2.188   3.932
 2097SOL     OW 6976   1.303   2.700   3.766
 2097SOL    HW1 6977   1.337   2.607   3.781
 2097SOL    HW2 6978   1.321   2.727   3.671
 2098SOL     OW 6979   1.068   3.195   4.573
 2098SOL    HW1 6980   1.075   3.111   4.518
 2098SOL    HW2 6981   1.130   3.264   4.537
 2099SOL     OW 6982   0.319   2.672   4.673
 2099SOL    HW1 6983   0.412   2.708   4.678
 2099SOL    HW2 6984   0.313   2.587   4.725
 2100SOL     OW 6985   0.339   2.371   4.730
 2100SOL    HW1 6986   0.287   2.288   4.713
 2100SOL    HW2 6987   0.416   2.376   4.666
 2101SOL     OW 6988   1.138   2.242   5.402
 2101SOL    HW1 6989   1.093   2.305   5.466
 2101SOL    HW2 6990   1.231   2.273   5.385
 2102SOL     OW 6991   1.160   2.069   5.201
 2102SOL    HW1 6992   1.160   2.133   5.278
 2102SOL    HW2 6993   1.188   2.117   5.118
 2103SOL     OW 6994   0.008   3.188   3.924
 2103SOL    HW1 6995  -0.085   3.209   3.893
 2103SOL    HW2 6996   0.018   3.089   3.937
 2104SOL     OW 6997   0.088   3.663   4.651
 2104SOL    HW1 6998   0.046   3.577   4.624
 2104SOL    HW2 6999   0.182   3.666   4.617
 2105SOL     OW 7000   0.504   3.430   4.634
 2105SOL    HW1 7001   0.570   3.504   4.643
 2105SOL    HW2 7002   0.548   3.351   4.592
 2106SOL     OW 7003   1.002   2.658   4.962
 2106SOL    HW1 7004   1.043   2.626   5.048
 2106SOL    HW2 7005   0.906   2.631   4.959
 2107SOL     OW 7006   0.040   2.406   4.838
 2107SOL    HW1 7007   0.125   2.373   4.797
 2107SOL    HW2 7008   0.053   2.421   4.936
 2108SOL     OW 7009   0.189   2.382   5.446
 2108SOL    HW1 7010   0.248   2.342   5.376
 2108SOL    HW2 7011   0.131   2.453   5.405
 2109SOL     OW 7012   1.369   2.812   5.384
 2109SOL    HW1 7013   1.408   2.901   5.404
 2109SOL    HW2 7014   1.379   2.792   5.287
 2110SOL     OW 7015   0.815   2.434   4.049
 2110SOL    HW1 7016   0.822   2.345   4.003
 2110SOL    HW2 7017   0.721   2.468   4.041
 2111SOL     OW 7018   1.657   2.466   4.930
 2111SOL    HW1 7019   1.619   2.397   4.992
 2111SOL    HW2 7020   1.739   2.430   4.886
 2112SOL     OW 7021   0.252   3.426   5.468
 2112SOL    HW1 7022   0.222   3.483   5.544
 2112SOL    HW2 7023   0.245   3.329   5.494
 2113SOL     OW 7024   0.671   2.326   4.993
 2113SOL    HW1 7025   0.637   2.237   4.963
 2113SOL    HW2 7026   0.697   2.380   4.913
 2114SOL     OW 7027   0.930   3.540   5.189
 2114SOL    HW1 7028   0.906   3.522   5.094
 2114SOL    HW2 7029   0.960   3.634   5.199
 2115SOL     OW 7030   0.473   2.362   3.915
 2115SOL    HW1 7031   0.534   2.442   3.919
 2115SOL    HW2 7032   0.378   2.393   3.922
 2116SOL     OW 7033   0.159   2.999   5.190
 2116SOL    HW1 7034   0.181   2.938   5.266
 2116SOL    HW2 7035   0.169   2.950   5.104
 2117SOL     OW 7036   1.347   2.921   4.958
 2117SOL    HW1 7037   1.371   2.858   4.884
 2117SOL    HW2 7038   1.257   2.961   4.940
 2118SOL     OW 7039   1.302   2.717   4.033
 2118SOL    HW1 7040   1.216   2.686   4.075
 2118SOL    HW2 7041   1.298   2.703   3.934
 2119SOL     OW 7042   1.759   3.609   4.878
 2119SOL    HW1 7043   1.820   3.639   4.805
 2119SOL    HW2 7044   1.721   3.520   4.856
 2120SOL     OW 7045   1.252   3.593   4.852
 2120SOL    HW1 7046   1.336   3.598   4.798
 2120SOL    HW2 7047   1.229   3.497   4.870
 2121SOL     OW 7048   0.083   3.120   4.746
 2121SOL    HW1 7049   0.078   3.119   4.846
 2121SOL    HW2 7050   0.000   3.079   4.708
 2122SOL     OW 7051   0.688   3.524   5.440
 2122SOL    HW1 7052   0.632   3.605   5.449
 2122SOL    HW2 7053   0.740   3.528   5.354
 2123SOL     OW 7054   1.388   3.435   4.201
 2123SOL    HW1 7055   1.455   3.447   4.127
 2123SOL    HW2 7056   1.348   3.524   4.224
 2124SOL     OW 7057   0.130   3.656   5.575
 2124SOL    HW1 7058   0.089   3.582   5.628
 2124SOL    HW2 7059   0.194   3.707   5.633
 2125SOL     OW 7060   1.280   2.789   4.396
 2125SOL    HW1 7061   1.340   2.708   4.398
 2125SOL    HW2 7062   1.320   2.858   4.336
 2126SOL     OW 7063   0.830   3.135   5.146
 2126SOL    HW1 7064   0.825   3.168   5.241
 2126SOL    HW2 7065   0.744   3.154   5.100
 2127SOL     OW 7066   0.672   3.478   3.878
 2127SOL    HW1 7067   0.681   3.488   3.779
 2127SOL    HW2 7068   0.632   3.389   3.899
 2128SOL     OW 7069   1.650   3.582   5.118
 2128SOL    HW1 7070   1.703   3.592   5.034
 2128SOL    HW2 7071   1.623   3.672   5.152
 2129SOL     OW 7072   0.263   2.188   4.444
 2129SOL    HW1 7073   0.184   2.239   4.410
 2129SOL    HW2 7074   0.254   2.173   4.542
 2130SOL     OW 7075   1.194   3.474   3.755
 2130SOL    HW1 7076   1.200   3.381   3.792
 2130SOL    HW2 7077   1.135   3.474   3.675
 2131SOL     OW 7078   0.822   2.864   5.096
 2131SOL    HW1 7079   0.862   2.863   5.004
 2131SOL    HW2 7080   0.832   2.956   5.136
 2132SOL     OW 7081   0.916   2.772   4.015
 2132SOL    HW1 7082   0.979   2.810   3.947
 2132SOL    HW2 7083   0.956   2.689   4.054
 2133SOL     OW 7084   1.504   3.469   3.768
 2133SOL    HW1 7085   1.412   3.506   3.775
 2133SOL    HW2 7086   1.542   3.489   3.678
 2134SOL     OW 7087   0.372   3.150   5.214
 2134SOL    HW1 7088   0.359   3.243   5.180
 2134SOL    HW2 7089   0.288   3.098   5.201
 2135SOL     OW 7090   1.614   3.154   5.013
 2135SOL    HW1 7091   1.674   3.157   5.093
 2135SOL    HW2 7092   1.539   3.218   5.026
 2136SOL     OW 7093   1.039   2.960   4.420
 2136SOL    HW1 7094   0.969   2.913   4.474
 2136SOL    HW2 7095   1.098   2.892   4.377
 2137SOL     OW 7096   1.014   2.098   4.695
 2137SOL    HW1 7097   1.006   2.062   4.602
 2137SOL    HW2 7098   1.012   2.022   4.760
 2138SOL     OW 7099   0.590   3.349   4.215
 2138SOL    HW1 7100   0.632   3.291   4.145
 2138SOL    HW2 7101   0.546   3.428   4.171
 2139SOL     OW 7102   1.709   2.247   5.105
 2139SOL    HW1 7103   1.782   2.316   5.109
 2139SOL    HW2 7104   1.737   2.172   5.046
 2140SOL     OW 7105   0.255   3.210   4.014
 2140SOL    HW1 7106   0.159   3.211   3.987
 2140SOL    HW2 7107   0.267   3.263   4.098
 2141SOL     OW 7108   0.105   2.875   5.450
 2141SOL    HW1 7109   0.028   2.842   5.504
 2141SOL    HW2 7110   0.190   2.845   5.492
 2142SOL     OW 7111   0.672   2.065   5.213
 2142SOL    HW1 7112   0.762   2.049   5.173
 2142SOL    HW2 7113   0.680   2.070   5.312
 2143SOL     OW 7114   0.075   2.207   3.757
 2143SOL    HW1 7115  -0.017   2.179   3.728
 2143SOL    HW2 7116   0.106   2.284   3.701
 2144SOL     OW 7117   1.440   2.718   5.122
 2144SOL    HW1 7118   1.383   2.770   5.059
 2144SOL    HW2 7119   1.536   2.730   5.098
 2145SOL     OW 7120   0.072   2.028   4.042
 2145SOL    HW1 7121   0.055   2.111   3.988
 2145SOL    HW2 7122   0.162   1.991   4.020
 2146SOL     OW 7123   1.183   3.197   3.843
 2146SOL    HW1 7124   1.084   3.186   3.845
 2146SOL    HW2 7125   1.217   3.212   3.936
 2147SOL     OW 7126   0.613   2.704   5.155
 2147SOL    HW1 7127   0.669   2.785   5.138
 2147SOL    HW2 7128   0.672   2.624   5.158
 2148SOL     OW 7129   1.493   3.629   4.683
 2148SOL    HW1 7130   1.526   3.693   4.614
 2148SOL    HW2 7131   1.559   3.623   4.758
 2149SOL     OW 7132   0.716   2.427   5.432
 2149SOL    HW1 7133   0.735   2.492   5.506
 2149SOL    HW2 7134   0.776   2.347   5.441
 2150SOL     OW 7135   1.450   3.082   5.357
 2150SOL    HW1 7136   1.441   3.072   5.456
 2150SOL    HW2 7137   1.546   3.075   5.331
 2151SOL     OW 7138   0.390   3.603   5.284
 2151SOL    HW1 7139   0.299   3.644   5.282
 2151SOL    HW2 7140   0.383   3.509   5.316
 2152SOL     OW 7141   1.674   2.745   4.978
 2152SOL    HW1 7142   1.647   2.656   4.941
 2152SOL    HW2 7143   1.675   2.813   4.905
 2153SOL     OW 7144   1.225   2.187   4.173
 2153SOL    HW1 7145   1.290   2.113   4.162
 2153SOL    HW2 7146   1.245   2.237   4.257
 2154SOL     OW 7147   0.594   2.607   4.376
 2154SOL    HW1 7148   0.644   2.692   4.357
 2154SOL    HW2 7149   0.506   2.609   4.328
 2155SOL     OW 7150   1.777   2.204   5.366
 2155SOL    HW1 7151   1.760   2.235   5.272
 2155SOL    HW2 7152   1.693   2.167   5.404
 2156SOL     OW 7153   1.730   2.796   5.241
 2156SOL    HW1 7154   1.768   2.887   5.256
 2156SOL    HW2 7155   1.722   2.779   5.142
 2157SOL     OW 7156   0.859   3.236   3.740
 2157SOL    HW1 7157   0.813   3.251   3.828
 2157SOL    HW2 7158   0.903   3.321   3.710
 2158SOL     OW 7159   0.661   3.652   4.677
 2158SOL    HW1 7160   0.615   3.740   4.664
 2158SOL    HW2 7161   0.760   3.664   4.670
 2159SOL     OW 7162   0.859   2.818   4.585
 2159SOL    HW1 7163   0.913   2.749   4.633
 2159SOL    HW2 7164   0.827   2.887   4.651
 2160SOL     OW 7165   1.083   2.846   3.811
 2160SOL    HW1 7166   1.060   2.899   3.729
 2160SOL    HW2 7167   1.164   2.790   3.792
 2161SOL     OW 7168   1.861   3.431   4.575
 2161SOL    HW1 7169   1.790   3.419   4.505
 2161SOL    HW2 7170   1.862   3.352   4.635
 2162SOL     OW 7171   0.221   3.176   5.568
 2162SOL    HW1 7172   0.156   3.103   5.547
 2162SOL    HW2 7173   0.225   3.190   5.666
 2163SOL     OW 7174   0.079   3.102   4.377
 2163SOL    HW1 7175   0.078   3.055   4.465
 2163SOL    HW2 7176   0.161   3.074   4.326
 2164SOL     OW 7177   0.672   3.253   5.348
 2164SOL    HW1 7178   0.594   3.203   5.386
 2164SOL    HW2 7179   0.669   3.348   5.379
 2165SOL     OW 7180   0.428   2.286   4.244
 2165SOL    HW1 7181   0.458   2.214   4.182
 2165SOL    HW2 7182   0.389   2.246   4.327
 2166SOL     OW 7183   1.705   3.349   4.828
 2166SOL    HW1 7184   1.612   3.324   4.801
 2166SOL    HW2 7185   1.731   3.299   4.910
 2167SOL     OW 7186   0.317   2.409   5.004
 2167SOL    HW1 7187   0.355   2.350   5.076
 2167SOL    HW2 7188   0.357   2.383   4.916
 2168SOL     OW 7189   0.812   3.448   4.411
 2168SOL    HW1 7190   0.844   3.458   4.317
 2168SOL    HW2 7191   0.733   3.386   4.413
 2169SOL     OW 7192   1.424   2.076   4.836
 2169SOL    HW1 7193   1.476   2.011   4.891
 2169SOL    HW2 7194   1.375   2.139   4.897
 2170SOL     OW 7195   1.001   1.896   4.878
 2170SOL    HW1 7196   0.938   1.824   4.847
 2170SOL    HW2 7197   1.094   1.860   4.878
 2171SOL     OW 7198   0.770   3.192   4.025
 2171SOL    HW1 7199   0.724   3.105   4.042
 2171SOL    HW2 7200   0.861   3.189   4.066
 2172SOL     OW 7201   0.618   3.429   5.008
 2172SOL    HW1 7202   0.613   3.511   5.065
 2172SOL    HW2 7203   0.707   3.426   4.963
 2173SOL     OW 7204   1.352   1.914   3.892
 2173SOL    HW1 7205   1.387   1.873   3.808
 2173SOL    HW2 7206   1.262   1.876   3.912
 2174SOL     OW 7207   1.300   2.315   4.415
 2174SOL    HW1 7208   1.241   2.395   4.419
 2174SOL    HW2 7209   1.315   2.280   4.508
 2175SOL     OW 7210   1.593   2.083   4.606
 2175SOL    HW1 7211   1.509   2.082   4.660
 2175SOL    HW2 7212   1.595   2.166   4.550
 2176SOL     OW 7213   0.039   2.939   4.024
 2176SOL    HW1 7214   0.138   2.928   4.015
 2176SOL    HW2 7215  -0.001   2.853   4.056
 2177SOL     OW 7216   0.875   3.508   4.061
 2177SOL    HW1 7217   0.798   3.473   4.007
 2177SOL    HW2 7218   0.843   3.579   4.123
 2178SOL     OW 7219   0.230   2.490   5.699
 2178SOL    HW1 7220   0.137   2.488   5.736
 2178SOL    HW2 7221   0.231   2.451   5.607
 2179SOL     OW 7222   0.225   2.137   6.582
 2179SOL    HW1 7223   0.260   2.120   6.674
 2179SOL    HW2 7224   0.137   2.092   6.570
 2180SOL     OW 7225   0.019   2.230   6.233
 2180SOL    HW1 7226  -0.063   2.273   6.272
 2180SOL    HW2 7227  -0.009   2.157   6.170
 2181SOL     OW 7228   0.569   3.137   6.751
 2181SOL    HW1 7229   0.476   3.130   6.714
 2181SOL    HW2 7230   0.580   3.226   6.795
 2182SOL     OW 7231   1.555   3.373   6.289
 2182SOL    HW1 7232   1.498   3.357   6.370
 2182SOL    HW2 7233   1.496   3.383   6.209
 2183SOL     OW 7234   1.755   2.469   5.817
 2183SOL    HW1 7235   1.743   2.456   5.718
 2183SOL    HW2 7236   1.725   2.388   5.866
 2184SOL     OW 7237   0.768   3.006   6.609
 2184SOL    HW1 7238   0.690   3.023   6.669
 2184SOL    HW2 7239   0.802   3.093   6.573
 2185SOL     OW 7240   0.850   2.660   7.409
 2185SOL    HW1 7241   0.846   2.736   7.474
 2185SOL    HW2 7242   0.872   2.696   7.318
 2186SOL     OW 7243   0.685   2.874   6.251
 2186SOL    HW1 7244   0.754   2.858   6.321
 2186SOL    HW2 7245   0.612   2.931   6.289
 2187SOL     OW 7246   0.686   3.023   7.389
 2187SOL    HW1 7247   0.746   3.102   7.403
 2187SOL    HW2 7248   0.600   3.054   7.348
 2188SOL     OW 7249   0.335   3.297   6.647
 2188SOL    HW1 7250   0.257   3.266   6.594
 2188SOL    HW2 7251   0.393   3.355   6.590
 2189SOL     OW 7252   1.460   3.367   6.925
 2189SOL    HW1 7253   1.484   3.461   6.951
 2189SOL    HW2 7254   1.444   3.313   7.007
 2190SOL     OW 7255   0.438   2.254   7.085
 2190SOL    HW1 7256   0.520   2.198   7.094
 2190SOL    HW2 7257   0.357   2.196   7.089
 2191SOL     OW 7258   1.603   2.309   6.323
 2191SOL    HW1 7259   1.529   2.355   6.273
 2191SOL    HW2 7260   1.654   2.377   6.376
 2192SOL     OW 7261   0.231   3.575   6.069
 2192SOL    HW1 7262   0.265   3.652   6.123
 2192SOL    HW2 7263   0.275   3.575   5.979
 2193SOL     OW 7264   1.127   3.203   7.276
 2193SOL    HW1 7265   1.174   3.203   7.364
 2193SOL    HW2 7266   1.079   3.116   7.265
 2194SOL     OW 7267   0.230   3.296   6.124
 2194SOL    HW1 7268   0.204   3.392   6.124
 2194SOL    HW2 7269   0.159   3.242   6.169
 2195SOL     OW 7270   0.240   2.953   6.472
 2195SOL    HW1 7271   0.254   2.869   6.524
 2195SOL    HW2 7272   0.185   3.017   6.527
 2196SOL     OW 7273   0.620   3.648   7.025
 2196SOL    HW1 7274   0.528   3.631   7.060
 2196SOL    HW2 7275   0.648   3.740   7.051
 2197SOL     OW 7276   0.606   2.826   5.709
 2197SOL    HW1 7277   0.613   2.910   5.655
 2197SOL    HW2 7278   0.652   2.839   5.797
 2198SOL     OW 7279   0.122   2.505   6.149
 2198SOL    HW1 7280   0.077   2.417   6.166
 2198SOL    HW2 7281   0.121   2.559   6.233
 2199SOL     OW 7282   1.842   3.629   5.945
 2199SOL    HW1 7283   1.896   3.600   6.025
 2199SOL    HW2 7284   1.872   3.719   5.916
 2200SOL     OW 7285   0.027   3.458   5.703
 2200SOL    HW1 7286   0.008   3.362   5.724
 2200SOL    HW2 7287  -0.006   3.516   5.778
 2201SOL     OW 7288   1.641   2.970   6.018
 2201SOL    HW1 7289   1.727   2.972   5.966
 2201SOL    HW2 7290   1.655   3.017   6.106
 2202SOL     OW 7291   0.113   2.599   7.183
 2202SOL    HW1 7292   0.201   2.586   7.228
 2202SOL    HW2 7293   0.100   2.696   7.161
 2203SOL     OW 7294   0.613   3.227   6.312
 2203SOL    HW1 7295   0.564   3.140   6.321
 2203SOL    HW2 7296   0.590   3.270   6.225
 2204SOL     OW 7297   1.293   3.090   7.009
 2204SOL    HW1 7298   1.330   3.017   6.951
 2204SOL    HW2 7299   1.345   3.095   7.094
 2205SOL     OW 7300   0.809   1.866   6.088
 2205SOL    HW1 7301   0.849   1.957   6.079
 2205SOL    HW2 7302   0.709   1.874   6.094
 2206SOL     OW 7303   0.197   2.838   6.850
 2206SOL    HW1 7304   0.286   2.793   6.836
 2206SOL    HW2 7305   0.124   2.773   6.831
 2207SOL     OW 7306   1.525   2.861   5.776
 2207SOL    HW1 7307   1.462   2.785   5.789
 2207SOL    HW2 7308   1.573   2.879   5.862
 2208SOL     OW 7309   1.187   3.654   7.202
 2208SOL    HW1 7310   1.211   3.714   7.126
 2208SOL    HW2 7311   1.194   3.559   7.172
 2209SOL     OW 7312   0.317   2.113   7.387
 2209SOL    HW1 7313   0.388   2.184   7.393
 2209SOL    HW2 7314   0.229   2.152   7.415
 2210SOL     OW 7315   1.466   3.279   6.539
 2210SOL    HW1 7316   1.407   3.285   6.619
 2210SOL    HW2 7317   1.451   3.191   6.493
 2211SOL     OW 7318   1.667   3.576   6.158
 2211SOL    HW1 7319   1.626   3.553   6.070
 2211SOL    HW2 7320   1.649   3.502   6.223
 2212SOL     OW 7321   0.598   2.591   5.856
 2212SOL    HW1 7322   0.622   2.660   5.788
 2212SOL    HW2 7323   0.520   2.624   5.910
 2213SOL     OW 7324   1.576   3.524   5.893
 2213SOL    HW1 7325   1.665   3.570   5.896
 2213SOL    HW2 7326   1.555   3.500   5.798
 2214SOL     OW 7327   0.807   2.467   7.051
 2214SOL    HW1 7328   0.760   2.464   7.140
 2214SOL    HW2 7329   0.756   2.412   6.985
 2215SOL     OW 7330   0.973   2.752   7.158
 2215SOL    HW1 7331   1.019   2.668   7.129
 2215SOL    HW2 7332   0.917   2.786   7.083
 2216SOL     OW 7333   0.991   2.272   6.828
 2216SOL    HW1 7334   0.914   2.306   6.882
 2216SOL    HW2 7335   0.957   2.221   6.749
 2217SOL     OW 7336   1.041   2.563   6.015
 2217SOL    HW1 7337   1.067   2.559   6.111
 2217SOL    HW2 7338   0.956   2.512   6.001
 2218SOL     OW 7339   0.076   2.673   6.375
 2218SOL    HW1 7340   0.175   2.661   6.384
 2218SOL    HW2 7341   0.052   2.768   6.396
 2219SOL     OW 7342   0.130   3.683   7.157
 2219SOL    HW1 7343   0.120   3.668   7.256
 2219SOL    HW2 7344   0.044   3.719   7.121
 2220SOL     OW 7345   0.865   2.210   5.781
 2220SOL    HW1 7346   0.924   2.273   5.732
 2220SOL    HW2 7347   0.884   2.116   5.752
 2221SOL     OW 7348   1.362   3.006   6.131
 2221SOL    HW1 7349   1.445   2.977   6.083
 2221SOL    HW2 7350   1.313   3.073   6.075
 2222SOL     OW 7351   0.550   2.058   6.471
 2222SOL    HW1 7352   0.545   2.053   6.571
 2222SOL    HW2 7353   0.552   2.154   6.442
 2223SOL     OW 7354   1.008   3.318   6.063
 2223SOL    HW1 7355   0.962   3.390   6.011
 2223SOL    HW2 7356   1.004   3.338   6.161
 2224SOL     OW 7357   0.351   3.663   6.439
 2224SOL    HW1 7358   0.401   3.577   6.445
 2224SOL    HW2 7359   0.416   3.740   6.436
 2225SOL     OW 7360   1.795   2.928   6.459
 2225SOL    HW1 7361   1.733   2.913   6.383
 2225SOL    HW2 7362   1.743   2.939   6.544
 2226SOL     OW 7363   1.227   3.412   7.092
 2226SOL    HW1 7364   1.233   3.335   7.156
 2226SOL    HW2 7365   1.175   3.386   7.012
 2227SOL     OW 7366   0.321   2.805   5.828
 2227SOL    HW1 7367   0.403   2.844   5.786
 2227SOL    HW2 7368   0.294   2.723   5.779
 2228SOL     OW 7369   0.461   3.128   7.313
 2228SOL    HW1 7370   0.411   3.129   7.227
 2228SOL    HW2 7371   0.398   3.110   7.389
 2229SOL     OW 7372   1.111   3.638   5.823
 2229SOL    HW1 7373   1.051   3.576   5.873
 2229SOL    HW2 7374   1.142   3.594   5.738
 2230SOL     OW 7375   0.202   2.147   7.084
 2230SOL    HW1 7376   0.122   2.207   7.071
 2230SOL    HW2 7377   0.192   2.098   7.170
 2231SOL     OW 7378   1.632   3.239   5.667
 2231SOL    HW1 7379   1.600   3.333   5.657
 2231SOL    HW2 7380   1.556   3.176   5.655
 2232SOL     OW 7381   0.464   3.605   5.909
 2232SOL    HW1 7382   0.497   3.644   5.995
 2232SOL    HW2 7383   0.540   3.598   5.844
 2233SOL     OW 7384   0.249   3.647   6.827
 2233SOL    HW1 7385   0.306   3.582   6.877
 2233SOL    HW2 7386   0.233   3.614   6.734
 2234SOL     OW 7387   0.940   3.560   6.490
 2234SOL    HW1 7388   1.020   3.503   6.511
 2234SOL    HW2 7389   0.891   3.520   6.413
 2235SOL     OW 7390   0.382   2.562   6.066
 2235SOL    HW1 7391   0.427   2.472   6.063
 2235SOL    HW2 7392   0.288   2.551   6.099
 2236SOL     OW 7393   0.614   1.984   5.703
 2236SOL    HW1 7394   0.712   1.962   5.710
 2236SOL    HW2 7395   0.583   1.967   5.610
 2237SOL     OW 7396   0.781   2.126   7.335
 2237SOL    HW1 7397   0.848   2.065   7.378
 2237SOL    HW2 7398   0.708   2.145   7.400
 2238SOL     OW 7399   0.888   3.376   6.781
 2238SOL    HW1 7400   0.865   3.351   6.687
 2238SOL    HW2 7401   0.949   3.307   6.820
 2239SOL     OW 7402   1.351   2.452   7.019
 2239SOL    HW1 7403   1.379   2.409   7.104
 2239SOL    HW2 7404   1.376   2.548   7.020
 2240SOL     OW 7405   0.803   3.264   6.510
 2240SOL    HW1 7406   0.893   3.278   6.468
 2240SOL    HW2 7407   0.732   3.266   6.439
 2241SOL     OW 7408   0.922   2.365   6.485
 2241SOL    HW1 7409   0.897   2.356   6.389
 2241SOL    HW2 7410   0.970   2.283   6.516
 2242SOL     OW 7411   0.539   1.926   6.098
 2242SOL    HW1 7412   0.458   1.927   6.156
 2242SOL    HW2 7413   0.542   2.009   6.043
 2243SOL     OW 7414   1.434   3.050   5.627
 2243SOL    HW1 7415   1.466   2.974   5.684
 2243SOL    HW2 7416   1.342   3.077   5.657
 2244SOL     OW 7417   0.297   1.897   5.757
 2244SOL    HW1 7418   0.346   1.981   5.736
 2244SOL    HW2 7419   0.359   1.832   5.802
 2245SOL     OW 7420   0.935   2.098   6.066
 2245SOL    HW1 7421   0.887   2.139   5.988
 2245SOL    HW2 7422   1.034   2.096   6.047
 2246SOL     OW 7423   1.076   2.545   7.050
 2246SOL    HW1 7424   0.996   2.484   7.053
 2246SOL    HW2 7425   1.157   2.492   7.026
 2247SOL     OW 7426   1.227   3.432   6.379
 2247SOL    HW1 7427   1.248   3.506   6.314
 2247SOL    HW2 7428   1.295   3.432   6.452
 2248SOL     OW 7429   0.459   3.014   6.327
 2248SOL    HW1 7430   0.388   2.987   6.392
 2248SOL    HW2 7431   0.433   2.986   6.234
 2249SOL     OW 7432   1.271   3.659   6.177
 2249SOL    HW1 7433   1.315   3.723   6.113
 2249SOL    HW2 7434   1.221   3.711   6.247
 2250SOL     OW 7435   1.032   2.411   5.602
 2250SOL    HW1 7436   0.991   2.493   5.563
 2250SOL    HW2 7437   1.096   2.437   5.675
 2251SOL     OW 7438   0.078   2.418   6.972
 2251SOL    HW1 7439   0.170   2.417   6.931
 2251SOL    HW2 7440   0.072   2.492   7.039
 2252SOL     OW 7441   0.561   2.084   6.733
 2252SOL    HW1 7442   0.599   2.000   6.770
 2252SOL    HW2 7443   0.473   2.103   6.777
 2253SOL     OW 7444   0.866   2.316   6.228
 2253SOL    HW1 7445   0.834   2.388   6.166
 2253SOL    HW2 7446   0.890   2.235   6.175
 2254SOL     OW 7447   1.429   3.035   6.453
 2254SOL    HW1 7448   1.374   2.951   6.446
 2254SOL    HW2 7449   1.455   3.064   6.361
 2255SOL     OW 7450   0.488   3.247   5.760
 2255SOL    HW1 7451   0.401   3.232   5.807
 2255SOL    HW2 7452   0.471   3.273   5.665
 2256SOL     OW 7453   1.664   3.142   6.243
 2256SOL    HW1 7454   1.763   3.150   6.257
 2256SOL    HW2 7455   1.619   3.226   6.274
 2257SOL     OW 7456   1.390   2.437   5.664
 2257SOL    HW1 7457   1.336   2.416   5.745
 2257SOL    HW2 7458   1.481   2.396   5.673
 2258SOL     OW 7459   0.527   2.118   5.914
 2258SOL    HW1 7460   0.554   2.059   5.839
 2258SOL    HW2 7461   0.527   2.213   5.883
 2259SOL     OW 7462   1.754   3.085   7.174
 2259SOL    HW1 7463   1.845   3.046   7.161
 2259SOL    HW2 7464   1.762   3.181   7.198
 2260SOL     OW 7465   1.064   3.209   6.926
 2260SOL    HW1 7466   0.984   3.186   6.981
 2260SOL    HW2 7467   1.147   3.183   6.975
 2261SOL     OW 7468   1.592   3.491   7.211
 2261SOL    HW1 7469   1.619   3.525   7.121
 2261SOL    HW2 7470   1.671   3.453   7.257
 2262SOL     OW 7471   1.111   3.057   6.686
 2262SOL    HW1 7472   1.071   3.101   6.767
 2262SOL    HW2 7473   1.070   3.094   6.603
 2263SOL     OW 7474   1.638   2.961   6.665
 2263SOL    HW1 7475   1.643   3.042   6.724
 2263SOL    HW2 7476   1.552   2.963   6.614
 2264SOL     OW 7477   0.915   1.951   6.988
 2264SOL    HW1 7478   0.940   1.931   6.893
 2264SOL    HW2 7479   0.987   2.007   7.030
 2265SOL     OW 7480   0.980   2.978   7.305
 2265SOL    HW1 7481   0.881   2.984   7.315
 2265SOL    HW2 7482   1.003   2.898   7.249
 2266SOL     OW 7483   0.705   2.912   5.954
 2266SOL    HW1 7484   0.691   2.919   6.053
 2266SOL    HW2 7485   0.789   2.861   5.936
 2267SOL     OW 7486   0.410   2.675   6.837
 2267SOL    HW1 7487   0.496   2.687   6.887
 2267SOL    HW2 7488   0.368   2.588   6.864
 2268SOL     OW 7489   0.064   3.426   6.917
 2268SOL    HW1 7490   0.018   3.508   6.883
 2268SOL    HW2 7491   0.162   3.445   6.926
 2269SOL     OW 7492   0.367   2.962   6.087
 2269SOL    HW1 7493   0.360   3.045   6.031
 2269SOL    HW2 7494   0.371   2.882   6.027
 2270SOL     OW 7495   0.566   2.399   6.451
 2270SOL    HW1 7496   0.578   2.465   6.377
 2270SOL    HW2 7497   0.612   2.433   6.534
 2271SOL     OW 7498   1.252   3.210   5.974
 2271SOL    HW1 7499   1.302   3.287   6.014
 2271SOL    HW2 7500   1.157   3.212   6.006
 2272SOL     OW 7501   1.272   3.307   6.728
 2272SOL    HW1 7502   1.319   3.320   6.815
 2272SOL    HW2 7503   1.206   3.233   6.737
 2273SOL     OW 7504   1.582   2.501   6.058
 2273SOL    HW1 7505   1.551   2.562   6.131
 2273SOL    HW2 7506   1.632   2.553   5.989
 2274SOL     OW 7507   0.354   3.372   6.915
 2274SOL    HW1 7508   0.333   3.328   6.828
 2274SOL    HW2 7509   0.451   3.398   6.918
 2275SOL     OW 7510   0.402   2.613   7.184
 2275SOL    HW1 7511   0.470   2.668   7.137
 2275SOL    HW2 7512   0.442   2.525   7.211
 2276SOL     OW 7513   0.504   1.912   7.326
 2276SOL    HW1 7514   0.462   1.855   7.256
 2276SOL    HW2 7515   0.438   1.981   7.358
 2277SOL     OW 7516   0.573   2.732   6.615
 2277SOL    HW1 7517   0.617   2.821   6.606
 2277SOL    HW2 7518   0.510   2.732   6.692
 2278SOL     OW 7519   1.209   2.387   5.861
 2278SOL    HW1 7520   1.222   2.303   5.915
 2278SOL    HW2 7521   1.180   2.461   5.921
 2279SOL     OW 7522   0.307   2.075   6.817
 2279SOL    HW1 7523   0.284   2.112   6.907
 2279SOL    HW2 7524   0.277   1.980   6.811
 2280SOL     OW 7525   0.037   3.172   6.868
 2280SOL    HW1 7526   0.090   3.123   6.936
 2280SOL    HW2 7527   0.059   3.270   6.873
 2281SOL     OW 7528   0.732   2.496   6.650
 2281SOL    HW1 7529   0.791   2.470   6.574
 2281SOL    HW2 7530   0.704   2.592   6.639
 2282SOL     OW 7531   0.307   1.925   6.204
 2282SOL    HW1 7532   0.296   2.019   6.237
 2282SOL    HW2 7533   0.302   1.862   6.281
 2283SOL     OW 7534   1.622   2.229   5.960
 2283SOL    HW1 7535   1.624   2.153   6.024
 2283SOL    HW2 7536   1.574   2.306   6.000
 2284SOL     OW 7537   1.023   2.628   6.552
 2284SOL    HW1 7538   1.038   2.649   6.648
 2284SOL    HW2 7539   0.993   2.533   6.543
 2285SOL     OW 7540   0.980   3.435   7.286
 2285SOL    HW1 7541   0.960   3.479   7.198
 2285SOL    HW2 7542   1.019   3.344   7.270
 2286SOL     OW 7543   1.859   3.380   7.191
 2286SOL    HW1 7544   1.873   3.407   7.096
 2286SOL    HW2 7545   1.942   3.402   7.244
 2287SOL     OW 7546   0.350   2.760   7.390
 2287SOL    HW1 7547   0.426   2.804   7.438
 2287SOL    HW2 7548   0.385   2.713   7.308
 2288SOL     OW 7549   1.540   2.136   5.711
 2288SOL    HW1 7550   1.479   2.061   5.734
 2288SOL    HW2 7551   1.562   2.188   5.794
 2289SOL     OW 7552   1.303   2.700   5.628
 2289SOL    HW1 7553   1.337   2.607   5.643
 2289SOL    HW2 7554   1.321   2.727   5.533
 2290SOL     OW 7555   1.068   3.195   6.435
 2290SOL    HW1 7556   1.075   3.111   6.380
 2290SOL    HW2 7557   1.130   3.264   6.399
 2291SOL     OW 7558   0.319   2.672   6.535
 2291SOL    HW1 7559   0.412   2.708   6.540
 2291SOL    HW2 7560   0.313   2.587   6.587
 2292SOL     OW 7561   0.339   2.371   6.592
 2292SOL    HW1 7562   0.287   2.288   6.575
 2292SOL    HW2 7563   0.416   2.376   6.528
 2293SOL     OW 7564   1.160   2.069   7.063
 2293SOL    HW1 7565   1.160   2.133   7.140
 2293SOL    HW2 7566   1.188   2.117   6.980
 2294SOL     OW 7567   0.008   3.188   5.786
 2294SOL    HW1 7568  -0.085   3.209   5.755
 2294SOL    HW2 7569   0.018   3.089   5.799
 2295SOL     OW 7570   0.088   3.663   6.513
 2295SOL    HW1 7571   0.046   3.577   6.486
 2295SOL    HW2 7572   0.182   3.666   6.479
 2296SOL     OW 7573   0.504   3.430   6.496
 2296SOL    HW1 7574   0.570   3.504   6.505
 2296SOL    HW2 7575   0.548   3.351   6.454
 2297SOL     OW 7576   1.002   2.658   6.824
 2297SOL    HW1 7577   1.043   2.626   6.910
 2297SOL    HW2 7578   0.906   2.631   6.821
 2298SOL     OW 7579   0.040   2.406   6.700
 2298SOL    HW1 7580   0.125   2.373   6.659
 2298SOL    HW2 7581   0.053   2.421   6.798
 2299SOL     OW 7582   0.189   2.382   7.308
 2299SOL    HW1 7583   0.248   2.342   7.238
 2299SOL    HW2 7584   0.131   2.453   7.267
 2300SOL     OW 7585   0.815   2.434   5.911
 2300SOL    HW1 7586   0.822   2.345   5.865
 2300SOL    HW2 7587   0.721   2.468   5.903
 2301SOL     OW 7588   0.252   3.426   7.330
 2301SOL    HW1 7589   0.222   3.483   7.406
 2301SOL    HW2 7590   0.245   3.329   7.356
 2302SOL     OW 7591   0.671   2.326   6.855
 2302SOL    HW1 7592   0.637   2.237   6.825
 2302SOL    HW2 7593   0.697   2.380   6.775
 2303SOL     OW 7594   0.930   3.540   7.051
 2303SOL    HW1 7595   0.906   3.522   6.956
 2303SOL    HW2 7596   0.960   3.634   7.061
 2304SOL     OW 7597   0.473   2.362   5.777
 2304SOL    HW1 7598   0.534   2.442   5.781
 2304SOL    HW2 7599   0.378   2.393   5.784
 2305SOL     OW 7600   0.159   2.999   7.052
 2305SOL    HW1 7601   0.181   2.938   7.128
 2305SOL    HW2 7602   0.169   2.950   6.966
 2306SOL     OW 7603   1.347   2.921   6.820
 2306SOL    HW1 7604   1.371   2.858   6.746
 2306SOL    HW2 7605   1.257   2.961   6.802
 2307SOL     OW 7606   1.302   2.717   5.895
 2307SOL    HW1 7607   1.216   2.686   5.937
 2307SOL    HW2 7608   1.298   2.703   5.796
 2308SOL     OW 7609   1.759   3.609   6.740
 2308SOL    HW1 7610   1.820   3.639   6.667
 2308SOL    HW2 7611   1.721   3.520   6.718
 2309SOL     OW 7612   1.252   3.593   6.714
 2309SOL    HW1 7613   1.336   3.598   6.660
 2309SOL    HW2 7614   1.229   3.497   6.732
 2310SOL     OW 7615   0.083   3.120   6.608
 2310SOL    HW1 7616   0.078   3.119   6.708
 2310SOL    HW2 7617   0.000   3.079   6.570
 2311SOL     OW 7618   0.688   3.524   7.302
 2311SOL    HW1 7619   0.632   3.605   7.311
 2311SOL    HW2 7620   0.740   3.528   7.216
 2312SOL     OW 7621   1.726   1.997   6.109
 2312SOL    HW1 7622   1.799   1.980   6.042
 2312SOL    HW2 7623   1.695   1.910   6.147
 2313SOL     OW 7624   1.388   3.435   6.063
 2313SOL    HW1 7625   1.455   3.447   5.989
 2313SOL    HW2 7626   1.348   3.524   6.086
 2314SOL     OW 7627   0.130   3.656   7.437
 2314SOL    HW1 7628   0.089   3.582   7.490
 2314SOL    HW2 7629   0.194   3.707   7.495
 2315SOL     OW 7630   1.280   2.789   6.258
 2315SOL    HW1 7631   1.340   2.708   6.260
 2315SOL    HW2 7632   1.320   2.858   6.198
 2316SOL     OW 7633   0.830   3.135   7.008
 2316SOL    HW1 7634   0.825   3.168   7.103
 2316SOL    HW2 7635   0.744   3.154   6.962
 2317SOL     OW 7636   0.672   3.478   5.740
 2317SOL    HW1 7637   0.681   3.488   5.641
 2317SOL    HW2 7638   0.632   3.389   5.761
 2318SOL     OW 7639   1.650   3.582   6.980
 2318SOL    HW1 7640   1.703   3.592   6.896
 2318SOL    HW2 7641   1.623   3.672   7.014
 2319SOL     OW 7642   0.263   2.188   6.306
 2319SOL    HW1 7643   0.184   2.239   6.272
 2319SOL    HW2 7644   0.254   2.173   6.404
 2320SOL     OW 7645   1.194   3.474   5.617
 2320SOL    HW1 7646   1.200   3.381   5.654
 2320SOL    HW2 7647   1.135   3.474   5.537
 2321SOL     OW 7648   0.822   2.864   6.958
 2321SOL    HW1 7649   0.862   2.863   6.866
 2321SOL    HW2 7650   0.832   2.956   6.998
 2322SOL     OW 7651   0.916   2.772   5.877
 2322SOL    HW1 7652   0.979   2.810   5.809
 2322SOL    HW2 7653   0.956   2.689   5.916
 2323SOL     OW 7654   1.504   3.469   5.630
 2323SOL    HW1 7655   1.412   3.506   5.637
 2323SOL    HW2 7656   1.542   3.489   5.540
 2324SOL     OW 7657   0.372   3.150   7.076
 2324SOL    HW1 7658   0.359   3.243   7.042
 2324SOL    HW2 7659   0.288   3.098   7.063
 2325SOL     OW 7660   1.614   3.154   6.875
 2325SOL    HW1 7661   1.674   3.157   6.955
 2325SOL    HW2 7662   1.539   3.218   6.888
 2326SOL     OW 7663   1.039   2.960   6.282
 2326SOL    HW1 7664   0.969   2.913   6.336
 2326SOL    HW2 7665   1.098   2.892   6.239
 2327SOL     OW 7666   0.590   3.349   6.077
 2327SOL    HW1 7667   0.632   3.291   6.007
 2327SOL    HW2 7668   0.546   3.428   6.033
 2328SOL     OW 7669   0.255   3.210   5.876
 2328SOL    HW1 7670   0.159   3.211   5.849
 2328SOL    HW2 7671   0.267   3.263   5.960
 2329SOL     OW 7672   0.105   2.875   7.312
 2329SOL    HW1 7673   0.028   2.842   7.366
 2329SOL    HW2 7674   0.190   2.845   7.354
 2330SOL     OW 7675   0.672   2.065   7.075
 2330SOL    HW1 7676   0.762   2.049   7.035
 2330SOL    HW2 7677   0.680   2.070   7.174
 2331SOL     OW 7678   0.075   2.207   5.619
 2331SOL    HW1 7679  -0.017   2.179   5.590
 2331SOL    HW2 7680   0.106   2.284   5.563
 2332SOL     OW 7681   1.440   2.718   6.984
 2332SOL    HW1 7682   1.383   2.770   6.921
 2332SOL    HW2 7683   1.536   2.730   6.960
 2333SOL     OW 7684   0.072   2.028   5.904
 2333SOL    HW1 7685   0.055   2.111   5.850
 2333SOL    HW2 7686   0.162   1.991   5.882
 2334SOL     OW 7687   1.183   3.197   5.705
 2334SOL    HW1 7688   1.084   3.186   5.707
 2334SOL    HW2 7689   1.217   3.212   5.798
 2335SOL     OW 7690   0.613   2.704   7.017
 2335SOL    HW1 7691   0.669   2.785   7.000
 2335SOL    HW2 7692   0.672   2.624   7.020
 2336SOL     OW 7693   1.493   3.629   6.545
 2336SOL    HW1 7694   1.526   3.693   6.476
 2336SOL    HW2 7695   1.559   3.623   6.620
 2337SOL     OW 7696   0.716   2.427   7.294
 2337SOL    HW1 7697   0.735   2.492   7.368
 2337SOL    HW2 7698   0.776   2.347   7.303
 2338SOL     OW 7699   1.450   3.082   7.219
 2338SOL    HW1 7700   1.441   3.072   7.318
 2338SOL    HW2 7701   1.546   3.075   7.193
 2339SOL     OW 7702   0.390   3.603   7.146
 2339SOL    HW1 7703   0.299   3.644   7.144
 2339SOL    HW2 7704   0.383   3.509   7.178
 2340SOL     OW 7705   1.674   2.745   6.840
 2340SOL    HW1 7706   1.647   2.656   6.803
 2340SOL    HW2 7707   1.675   2.813   6.767
 2341SOL     OW 7708   0.594   2.607   6.238
 2341SOL    HW1 7709   0.644   2.692   6.219
 2341SOL    HW2 7710   0.506   2.609   6.190
 2342SOL     OW 7711   1.777   2.204   7.228
 2342SOL    HW1 7712   1.760   2.235   7.134
 2342SOL    HW2 7713   1.693   2.167   7.266
 2343SOL     OW 7714   1.730   2.796   7.103
 2343SOL    HW1 7715   1.768   2.887   7.118
 2343SOL    HW2 7716   1.722   2.779   7.004
 2344SOL     OW 7717   0.859   3.236   5.602
 2344SOL    HW1 7718   0.813   3.251   5.690
 2344SOL    HW2 7719   0.903   3.321   5.572
 2345SOL     OW 7720   0.661   3.652   6.539
 2345SOL    HW1 7721   0.615   3.740   6.526
 2345SOL    HW2 7722   0.760   3.664   6.532
 2346SOL     OW 7723   0.859   2.818   6.447
 2346SOL    HW1 7724   0.913   2.749   6.495
 2346SOL    HW2 7725   0.827   2.887   6.513
 2347SOL     OW 7726   1.083   2.846   5.673
 2347SOL    HW1 7727   1.060   2.899   5.591
 2347SOL    HW2 7728   1.164   2.790   5.654
 2348SOL     OW 7729   1.861   3.431   6.437
 2348SOL    HW1 7730   1.790   3.419   6.367
 2348SOL    HW2 7731   1.862   3.352   6.497
 2349SOL     OW 7732   0.221   3.176   7.430
 2349SOL    HW1 7733   0.156   3.103   7.409
 2349SOL    HW2 7734   0.225   3.190   7.528
 2350SOL     OW 7735   0.079   3.102   6.239
 2350SOL    HW1 7736   0.078   3.055   6.327
 2350SOL    HW2 7737   0.161   3.074   6.188
 2351SOL     OW 7738   0.672   3.253   7.210
 2351SOL    HW1 7739   0.594   3.203   7.248
 2351SOL    HW2 7740   0.669   3.348   7.241
 2352SOL     OW 7741   0.428   2.286   6.106
 2352SOL    HW1 7742   0.458   2.214   6.044
 2352SOL    HW2 7743   0.389   2.246   6.189
 2353SOL     OW 7744   1.705   3.349   6.690
 2353SOL    HW1 7745   1.612   3.324   6.663
 2353SOL    HW2 7746   1.731   3.299   6.772
 2354SOL     OW 7747   0.317   2.409   6.866
 2354SOL    HW1 7748   0.355   2.350   6.938
 2354SOL    HW2 7749   0.357   2.383   6.778
 2355SOL     OW 7750   0.812   3.448   6.273
 2355SOL    HW1 7751   0.844   3.458   6.179
 2355SOL    HW2 7752   0.733   3.386   6.275
 2356SOL     OW 7753   1.001   1.896   6.740
 2356SOL    HW1 7754   0.938   1.824   6.709
 2356SOL    HW2 7755   1.094   1.860   6.740
 2357SOL     OW 7756   0.770   3.192   5.887
 2357SOL    HW1 7757   0.724   3.105   5.904
 2357SOL    HW2 7758   0.861   3.189   5.928
 2358SOL     OW 7759   0.618   3.429   6.870
 2358SOL    HW1 7760   0.613   3.511   6.927
 2358SOL    HW2 7761   0.707   3.426   6.825
 2359SOL     OW 7762   1.352   1.914   5.754
 2359SOL    HW1 7763   1.387   1.873   5.670
 2359SOL    HW2 7764   1.262   1.876   5.774
 2360SOL     OW 7765   0.039   2.939   5.886
 2360SOL    HW1 7766   0.138   2.928   5.877
 2360SOL    HW2 7767  -0.001   2.853   5.918
 2361SOL     OW 7768   0.875   3.508   5.923
 2361SOL    HW1 7769   0.798   3.473   5.869
 2361SOL    HW2 7770   0.843   3.579   5.985
 2362SOL     OW 7771   0.230   2.490   7.561
 2362SOL    HW1 7772   0.137   2.488   7.598
 2362SOL    HW2 7773   0.231   2.451   7.469
 2363SOL     OW 7774   0.225   2.137   8.444
 2363SOL    HW1 7775   0.260   2.120   8.536
 2363SOL    HW2 7776   0.137   2.092   8.432
 2364SOL     OW 7777   0.019   2.230   8.095
 2364SOL    HW1 7778  -0.063   2.273   8.134
 2364SOL    HW2 7779  -0.009   2.157   8.032
 2365SOL     OW 7780   0.569   3.137   8.613
 2365SOL    HW1 7781   0.476   3.130   8.576
 2365SOL    HW2 7782   0.580   3.226   8.657
 2366SOL     OW 7783   1.555   3.373   8.151
 2366SOL    HW1 7784   1.498   3.357   8.232
 2366SOL    HW2 7785   1.496   3.383   8.071
 2367SOL     OW 7786   1.135   2.565   8.165
 2367SOL    HW1 7787   1.192   2.643   8.140
 2367SOL    HW2 7788   1.075   2.591   8.241
 2368SOL     OW 7789   0.768   3.006   8.471
 2368SOL    HW1 7790   0.690   3.023   8.531
 2368SOL    HW2 7791   0.802   3.093   8.435
 2369SOL     OW 7792   0.850   2.660   9.271
 2369SOL    HW1 7793   0.846   2.736   9.336
 2369SOL    HW2 7794   0.872   2.696   9.180
 2370SOL     OW 7795   0.685   2.874   8.113
 2370SOL    HW1 7796   0.754   2.858   8.183
 2370SOL    HW2 7797   0.612   2.931   8.151
 2371SOL     OW 7798   0.686   3.023   9.251
 2371SOL    HW1 7799   0.746   3.102   9.265
 2371SOL    HW2 7800   0.600   3.054   9.210
 2372SOL     OW 7801   0.335   3.297   8.509
 2372SOL    HW1 7802   0.257   3.266   8.456
 2372SOL    HW2 7803   0.393   3.355   8.452
 2373SOL     OW 7804   1.460   3.367   8.787
 2373SOL    HW1 7805   1.484   3.461   8.813
 2373SOL    HW2 7806   1.444   3.313   8.869
 2374SOL     OW 7807   0.438   2.254   8.947
 2374SOL    HW1 7808   0.520   2.198   8.956
 2374SOL    HW2 7809   0.357   2.196   8.951
 2375SOL     OW 7810   1.603   2.309   8.185
 2375SOL    HW1 7811   1.529   2.355   8.135
 2375SOL    HW2 7812   1.654   2.377   8.238
 2376SOL     OW 7813   0.231   3.575   7.931
 2376SOL    HW1 7814   0.265   3.652   7.985
 2376SOL    HW2 7815   0.275   3.575   7.841
 2377SOL     OW 7816   1.127   3.203   9.138
 2377SOL    HW1 7817   1.174   3.203   9.226
 2377SOL    HW2 7818   1.079   3.116   9.127
 2378SOL     OW 7819   0.230   3.296   7.986
 2378SOL    HW1 7820   0.204   3.392   7.986
 2378SOL    HW2 7821   0.159   3.242   8.031
 2379SOL     OW 7822   0.240   2.953   8.334
 2379SOL    HW1 7823   0.254   2.869   8.386
 2379SOL    HW2 7824   0.185   3.017   8.389
 2380SOL     OW 7825   0.620   3.648   8.887
 2380SOL    HW1 7826   0.528   3.631   8.922
 2380SOL    HW2 7827   0.648   3.740   8.913
 2381SOL     OW 7828   0.606   2.826   7.571
 2381SOL    HW1 7829   0.613   2.910   7.517
 2381SOL    HW2 7830   0.652   2.839   7.659
 2382SOL     OW 7831   1.594   1.976   8.928
 2382SOL    HW1 7832   1.576   2.043   8.856
 2382SOL    HW2 7833   1.591   2.022   9.017
 2383SOL     OW 7834   0.122   2.505   8.011
 2383SOL    HW1 7835   0.077   2.417   8.028
 2383SOL    HW2 7836   0.121   2.559   8.095
 2384SOL     OW 7837   1.842   3.629   7.807
 2384SOL    HW1 7838   1.896   3.600   7.887
 2384SOL    HW2 7839   1.872   3.719   7.778
 2385SOL     OW 7840   0.027   3.458   7.565
 2385SOL    HW1 7841   0.008   3.362   7.586
 2385SOL    HW2 7842  -0.006   3.516   7.640
 2386SOL     OW 7843   1.689   2.784   8.060
 2386SOL    HW1 7844   1.784   2.755   8.068
 2386SOL    HW2 7845   1.681   2.849   7.985
 2387SOL     OW 7846   1.641   2.970   7.880
 2387SOL    HW1 7847   1.727   2.972   7.828
 2387SOL    HW2 7848   1.655   3.017   7.968
 2388SOL     OW 7849   0.113   2.599   9.045
 2388SOL    HW1 7850   0.201   2.586   9.090
 2388SOL    HW2 7851   0.100   2.696   9.023
 2389SOL     OW 7852   0.613   3.227   8.174
 2389SOL    HW1 7853   0.564   3.140   8.183
 2389SOL    HW2 7854   0.590   3.270   8.087
 2390SOL     OW 7855   1.293   3.090   8.871
 2390SOL    HW1 7856   1.330   3.017   8.813
 2390SOL    HW2 7857   1.345   3.095   8.956
 2391SOL     OW 7858   0.809   1.866   7.950
 2391SOL    HW1 7859   0.849   1.957   7.941
 2391SOL    HW2 7860   0.709   1.874   7.956
 2392SOL     OW 7861   0.197   2.838   8.712
 2392SOL    HW1 7862   0.286   2.793   8.698
 2392SOL    HW2 7863   0.124   2.773   8.693
 2393SOL     OW 7864   1.525   2.861   7.638
 2393SOL    HW1 7865   1.462   2.785   7.651
 2393SOL    HW2 7866   1.573   2.879   7.724
 2394SOL     OW 7867   1.187   3.654   9.064
 2394SOL    HW1 7868   1.211   3.714   8.988
 2394SOL    HW2 7869   1.194   3.559   9.034
 2395SOL     OW 7870   0.317   2.113   9.249
 2395SOL    HW1 7871   0.388   2.184   9.255
 2395SOL    HW2 7872   0.229   2.152   9.277
 2396SOL     OW 7873   1.466   3.279   8.401
 2396SOL    HW1 7874   1.407   3.285   8.481
 2396SOL    HW2 7875   1.451   3.191   8.355
 2397SOL     OW 7876   1.667   3.576   8.020
 2397SOL    HW1 7877   1.626   3.553   7.932
 2397SOL    HW2 7878   1.649   3.502   8.085
 2398SOL     OW 7879   0.598   2.591   7.718
 2398SOL    HW1 7880   0.622   2.660   7.650
 2398SOL    HW2 7881   0.520   2.624   7.772
 2399SOL     OW 7882   1.281   2.207   8.392
 2399SOL    HW1 7883   1.195   2.157   8.379
 2399SOL    HW2 7884   1.343   2.153   8.448
 2400SOL     OW 7885   1.576   3.524   7.755
 2400SOL    HW1 7886   1.665   3.570   7.758
 2400SOL    HW2 7887   1.555   3.500   7.660
 2401SOL     OW 7888   0.807   2.467   8.913
 2401SOL    HW1 7889   0.760   2.464   9.002
 2401SOL    HW2 7890   0.756   2.412   8.847
 2402SOL     OW 7891   1.394   2.331   9.122
 2402SOL    HW1 7892   1.374   2.374   9.210
 2402SOL    HW2 7893   1.472   2.269   9.131
 2403SOL     OW 7894   0.973   2.752   9.020
 2403SOL    HW1 7895   1.019   2.668   8.991
 2403SOL    HW2 7896   0.917   2.786   8.945
 2404SOL     OW 7897   0.991   2.272   8.690
 2404SOL    HW1 7898   0.914   2.306   8.744
 2404SOL    HW2 7899   0.957   2.221   8.611
 2405SOL     OW 7900   1.041   2.563   7.877
 2405SOL    HW1 7901   1.067   2.559   7.973
 2405SOL    HW2 7902   0.956   2.512   7.863
 2406SOL     OW 7903   0.076   2.673   8.237
 2406SOL    HW1 7904   0.175   2.661   8.246
 2406SOL    HW2 7905   0.052   2.768   8.258
 2407SOL     OW 7906   0.130   3.683   9.019
 2407SOL    HW1 7907   0.120   3.668   9.118
 2407SOL    HW2 7908   0.044   3.719   8.983
 2408SOL     OW 7909   0.865   2.210   7.643
 2408SOL    HW1 7910   0.924   2.273   7.594
 2408SOL    HW2 7911   0.884   2.116   7.614
 2409SOL     OW 7912   1.719   2.447   9.279
 2409SOL    HW1 7913   1.693   2.536   9.243
 2409SOL    HW2 7914   1.717   2.379   9.206
 2410SOL     OW 7915   1.362   3.006   7.993
 2410SOL    HW1 7916   1.445   2.977   7.945
 2410SOL    HW2 7917   1.313   3.073   7.937
 2411SOL     OW 7918   0.550   2.058   8.333
 2411SOL    HW1 7919   0.545   2.053   8.433
 2411SOL    HW2 7920   0.552   2.154   8.304
 2412SOL     OW 7921   1.008   3.318   7.925
 2412SOL    HW1 7922   0.962   3.390   7.873
 2412SOL    HW2 7923   1.004   3.338   8.023
 2413SOL     OW 7924   0.351   3.663   8.301
 2413SOL    HW1 7925   0.401   3.577   8.307
 2413SOL    HW2 7926   0.416   3.740   8.298
 2414SOL     OW 7927   1.795   2.928   8.321
 2414SOL    HW1 7928   1.733   2.913   8.245
 2414SOL    HW2 7929   1.743   2.939   8.406
 2415SOL     OW 7930   1.227   3.412   8.954
 2415SOL    HW1 7931   1.233   3.335   9.018
 2415SOL    HW2 7932   1.175   3.386   8.874
 2416SOL     OW 7933   0.321   2.805   7.690
 2416SOL    HW1 7934   0.403   2.844   7.648
 2416SOL    HW2 7935   0.294   2.723   7.641
 2417SOL     OW 7936   1.458   2.597   8.176
 2417SOL    HW1 7937   1.453   2.532   8.251
 2417SOL    HW2 7938   1.538   2.656   8.189
 2418SOL     OW 7939   0.461   3.128   9.175
 2418SOL    HW1 7940   0.411   3.129   9.089
 2418SOL    HW2 7941   0.398   3.110   9.251
 2419SOL     OW 7942   1.111   3.638   7.685
 2419SOL    HW1 7943   1.051   3.576   7.735
 2419SOL    HW2 7944   1.142   3.594   7.600
 2420SOL     OW 7945   0.202   2.147   8.946
 2420SOL    HW1 7946   0.122   2.207   8.933
 2420SOL    HW2 7947   0.192   2.098   9.032
 2421SOL     OW 7948   1.632   3.239   7.529
 2421SOL    HW1 7949   1.600   3.333   7.519
 2421SOL    HW2 7950   1.556   3.176   7.517
 2422SOL     OW 7951   0.464   3.605   7.771
 2422SOL    HW1 7952   0.497   3.644   7.857
 2422SOL    HW2 7953   0.540   3.598   7.706
 2423SOL     OW 7954   0.249   3.647   8.689
 2423SOL    HW1 7955   0.306   3.582   8.739
 2423SOL    HW2 7956   0.233   3.614   8.596
 2424SOL     OW 7957   0.940   3.560   8.352
 2424SOL    HW1 7958   1.020   3.503   8.373
 2424SOL    HW2 7959   0.891   3.520   8.275
 2425SOL     OW 7960   0.382   2.562   7.928
 2425SOL    HW1 7961   0.427   2.472   7.925
 2425SOL    HW2 7962   0.288   2.551   7.961
 2426SOL     OW 7963   1.547   2.084   9.177
 2426SOL    HW1 7964   1.542   2.121   9.269
 2426SOL    HW2 7965   1.475   2.015   9.165
 2427SOL     OW 7966   0.614   1.984   7.565
 2427SOL    HW1 7967   0.712   1.962   7.572
 2427SOL    HW2 7968   0.583   1.967   7.472
 2428SOL     OW 7969   0.781   2.126   9.197
 2428SOL    HW1 7970   0.848   2.065   9.240
 2428SOL    HW2 7971   0.708   2.145   9.262
 2429SOL     OW 7972   0.888   3.376   8.643
 2429SOL    HW1 7973   0.865   3.351   8.549
 2429SOL    HW2 7974   0.949   3.307   8.682
 2430SOL     OW 7975   1.351   2.452   8.881
 2430SOL    HW1 7976   1.379   2.409   8.966
 2430SOL    HW2 7977   1.376   2.548   8.882
 2431SOL     OW 7978   0.803   3.264   8.372
 2431SOL    HW1 7979   0.893   3.278   8.330
 2431SOL    HW2 7980   0.732   3.266   8.301
 2432SOL     OW 7981   0.922   2.365   8.347
 2432SOL    HW1 7982   0.897   2.356   8.251
 2432SOL    HW2 7983   0.970   2.283   8.378
 2433SOL     OW 7984   0.539   1.926   7.960
 2433SOL    HW1 7985   0.458   1.927   8.018
 2433SOL    HW2 7986   0.542   2.009   7.905
 2434SOL     OW 7987   1.434   3.050   7.489
 2434SOL    HW1 7988   1.466   2.974   7.546
 2434SOL    HW2 7989   1.342   3.077   7.519
 2435SOL     OW 7990   0.297   1.897   7.619
 2435SOL    HW1 7991   0.346   1.981   7.598
 2435SOL    HW2 7992   0.359   1.832   7.664
 2436SOL     OW 7993   0.935   2.098   7.928
 2436SOL    HW1 7994   0.887   2.139   7.850
 2436SOL    HW2 7995   1.034   2.096   7.909
 2437SOL     OW 7996   1.076   2.545   8.912
 2437SOL    HW1 7997   0.996   2.484   8.915
 2437SOL    HW2 7998   1.157   2.492   8.888
 2438SOL     OW 7999   1.227   3.432   8.241
 2438SOL    HW1 8000   1.248   3.506   8.176
 2438SOL    HW2 8001   1.295   3.432   8.314
 2439SOL     OW 8002   0.459   3.014   8.189
 2439SOL    HW1 8003   0.388   2.987   8.254
 2439SOL    HW2 8004   0.433   2.986   8.096
 2440SOL     OW 8005   1.271   3.659   8.039
 2440SOL    HW1 8006   1.315   3.723   7.975
 2440SOL    HW2 8007   1.221   3.711   8.109
 2441SOL     OW 8008   1.032   2.411   7.464
 2441SOL    HW1 8009   0.991   2.493   7.425
 2441SOL    HW2 8010   1.096   2.437   7.537
 2442SOL     OW 8011   0.078   2.418   8.834
 2442SOL    HW1 8012   0.170   2.417   8.793
 2442SOL    HW2 8013   0.072   2.492   8.901
 2443SOL     OW 8014   0.561   2.084   8.595
 2443SOL    HW1 8015   0.599   2.000   8.632
 2443SOL    HW2 8016   0.473   2.103   8.639
 2444SOL     OW 8017   0.866   2.316   8.090
 2444SOL    HW1 8018   0.834   2.388   8.028
 2444SOL    HW2 8019   0.890   2.235   8.037
 2445SOL     OW 8020   1.017   1.901   8.201
 2445SOL    HW1 8021   0.945   1.906   8.132
 2445SOL    HW2 8022   0.993   1.832   8.270
 2446SOL     OW 8023   1.429   3.035   8.315
 2446SOL    HW1 8024   1.374   2.951   8.308
 2446SOL    HW2 8025   1.455   3.064   8.223
 2447SOL     OW 8026   1.466   2.452   8.440
 2447SOL    HW1 8027   1.436   2.357   8.447
 2447SOL    HW2 8028   1.539   2.468   8.506
 2448SOL     OW 8029   0.488   3.247   7.622
 2448SOL    HW1 8030   0.401   3.232   7.669
 2448SOL    HW2 8031   0.471   3.273   7.527
 2449SOL     OW 8032   1.664   3.142   8.105
 2449SOL    HW1 8033   1.763   3.150   8.119
 2449SOL    HW2 8034   1.619   3.226   8.136
 2450SOL     OW 8035   0.527   2.118   7.776
 2450SOL    HW1 8036   0.554   2.059   7.701
 2450SOL    HW2 8037   0.527   2.213   7.745
 2451SOL     OW 8038   1.754   3.085   9.036
 2451SOL    HW1 8039   1.845   3.046   9.023
 2451SOL    HW2 8040   1.762   3.181   9.060
 2452SOL     OW 8041   1.064   3.209   8.788
 2452SOL    HW1 8042   0.984   3.186   8.843
 2452SOL    HW2 8043   1.147   3.183   8.837
 2453SOL     OW 8044   1.592   3.491   9.073
 2453SOL    HW1 8045   1.619   3.525   8.983
 2453SOL    HW2 8046   1.671   3.453   9.119
 2454SOL     OW 8047   1.111   3.057   8.548
 2454SOL    HW1 8048   1.071   3.101   8.629
 2454SOL    HW2 8049   1.070   3.094   8.465
 2455SOL     OW 8050   1.638   2.961   8.527
 2455SOL    HW1 8051   1.643   3.042   8.586
 2455SOL    HW2 8052   1.552   2.963   8.476
 2456SOL     OW 8053   0.915   1.951   8.850
 2456SOL    HW1 8054   0.940   1.931   8.755
 2456SOL    HW2 8055   0.987   2.007   8.892
 2457SOL     OW 8056   0.980   2.978   9.167
 2457SOL    HW1 8057   0.881   2.984   9.177
 2457SOL    HW2 8058   1.003   2.898   9.111
 2458SOL     OW 8059   0.705   2.912   7.816
 2458SOL    HW1 8060   0.691   2.919   7.915
 2458SOL    HW2 8061   0.789   2.861   7.798
 2459SOL     OW 8062   0.410   2.675   8.699
 2459SOL    HW1 8063   0.496   2.687   8.749
 2459SOL    HW2 8064   0.368   2.588   8.726
 2460SOL     OW 8065   1.274   2.248   8.710
 2460SOL    HW1 8066   1.295   2.322   8.774
 2460SOL    HW2 8067   1.185   2.265   8.667
 2461SOL     OW 8068   0.064   3.426   8.779
 2461SOL    HW1 8069   0.018   3.508   8.745
 2461SOL    HW2 8070   0.162   3.445   8.788
 2462SOL     OW 8071   0.367   2.962   7.949
 2462SOL    HW1 8072   0.360   3.045   7.893
 2462SOL    HW2 8073   0.371   2.882   7.889
 2463SOL     OW 8074   0.566   2.399   8.313
 2463SOL    HW1 8075   0.578   2.465   8.239
 2463SOL    HW2 8076   0.612   2.433   8.396
 2464SOL     OW 8077   1.252   3.210   7.836
 2464SOL    HW1 8078   1.302   3.287   7.876
 2464SOL    HW2 8079   1.157   3.212   7.868
 2465SOL     OW 8080   1.272   3.307   8.590
 2465SOL    HW1 8081   1.319   3.320   8.677
 2465SOL    HW2 8082   1.206   3.233   8.599
 2466SOL     OW 8083   0.354   3.372   8.777
 2466SOL    HW1 8084   0.333   3.328   8.690
 2466SOL    HW2 8085   0.451   3.398   8.780
 2467SOL     OW 8086   0.402   2.613   9.046
 2467SOL    HW1 8087   0.470   2.668   8.999
 2467SOL    HW2 8088   0.442   2.525   9.073
 2468SOL     OW 8089   1.587   2.641   9.118
 2468SOL    HW1 8090   1.495   2.679   9.113
 2468SOL    HW2 8091   1.647   2.688   9.053
 2469SOL     OW 8092   1.013   1.967   9.218
 2469SOL    HW1 8093   1.019   2.052   9.166
 2469SOL    HW2 8094   1.045   1.891   9.161
 2470SOL     OW 8095   0.504   1.912   9.188
 2470SOL    HW1 8096   0.462   1.855   9.118
 2470SOL    HW2 8097   0.438   1.981   9.220
 2471SOL     OW 8098   0.573   2.732   8.477
 2471SOL    HW1 8099   0.617   2.821   8.468
 2471SOL    HW2 8100   0.510   2.732   8.554
 2472SOL     OW 8101   1.360   2.724   8.493
 2472SOL    HW1 8102   1.285   2.724   8.427
 2472SOL    HW2 8103   1.397   2.632   8.502
 2473SOL     OW 8104   1.209   2.387   7.723
 2473SOL    HW1 8105   1.222   2.303   7.777
 2473SOL    HW2 8106   1.180   2.461   7.783
 2474SOL     OW 8107   0.307   2.075   8.679
 2474SOL    HW1 8108   0.284   2.112   8.769
 2474SOL    HW2 8109   0.277   1.980   8.673
 2475SOL     OW 8110   0.037   3.172   8.730
 2475SOL    HW1 8111   0.090   3.123   8.798
 2475SOL    HW2 8112   0.059   3.270   8.735
 2476SOL     OW 8113   0.732   2.496   8.512
 2476SOL    HW1 8114   0.791   2.470   8.436
 2476SOL    HW2 8115   0.704   2.592   8.501
 2477SOL     OW 8116   1.728   2.797   9.302
 2477SOL    HW1 8117   1.682   2.790   9.213
 2477SOL    HW2 8118   1.666   2.841   9.368
 2478SOL     OW 8119   0.307   1.925   8.066
 2478SOL    HW1 8120   0.296   2.019   8.099
 2478SOL    HW2 8121   0.302   1.862   8.143
 2479SOL     OW 8122   1.023   2.628   8.414
 2479SOL    HW1 8123   1.038   2.649   8.510
 2479SOL    HW2 8124   0.993   2.533   8.405
 2480SOL     OW 8125   0.980   3.435   9.148
 2480SOL    HW1 8126   0.960   3.479   9.060
 2480SOL    HW2 8127   1.019   3.344   9.132
 2481SOL     OW 8128   1.859   3.380   9.053
 2481SOL    HW1 8129   1.873   3.407   8.958
 2481SOL    HW2 8130   1.942   3.402   9.106
 2482SOL     OW 8131   0.350   2.760   9.252
 2482SOL    HW1 8132   0.426   2.804   9.300
 2482SOL    HW2 8133   0.385   2.713   9.170
 2483SOL     OW 8134   1.303   2.700   7.490
 2483SOL    HW1 8135   1.337   2.607   7.505
 2483SOL    HW2 8136   1.321   2.727   7.395
 2484SOL     OW 8137   1.068   3.195   8.297
 2484SOL    HW1 8138   1.075   3.111   8.242
 2484SOL    HW2 8139   1.130   3.264   8.261
 2485SOL     OW 8140   0.319   2.672   8.397
 2485SOL    HW1 8141   0.412   2.708   8.402
 2485SOL    HW2 8142   0.313   2.587   8.449
 2486SOL     OW 8143   0.339   2.371   8.454
 2486SOL    HW1 8144   0.287   2.288   8.437
 2486SOL    HW2 8145   0.416   2.376   8.390
 2487SOL     OW 8146   1.138   2.242   9.126
 2487SOL    HW1 8147   1.093   2.305   9.190
 2487SOL    HW2 8148   1.231   2.273   9.109
 2488SOL     OW 8149   1.160   2.069   8.925
 2488SOL    HW1 8150   1.160   2.133   9.002
 2488SOL    HW2 8151   1.188   2.117   8.842
 2489SOL     OW 8152   0.008   3.188   7.648
 2489SOL    HW1 8153  -0.085   3.209   7.617
 2489SOL    HW2 8154   0.018   3.089   7.661
 2490SOL     OW 8155   0.088   3.663   8.375
 2490SOL    HW1 8156   0.046   3.577   8.348
 2490SOL    HW2 8157   0.182   3.666   8.341
 2491SOL     OW 8158   0.504   3.430   8.358
 2491SOL    HW1 8159   0.570   3.504   8.367
 2491SOL    HW2 8160   0.548   3.351   8.316
 2492SOL     OW 8161   1.002   2.658   8.686
 2492SOL    HW1 8162   1.043   2.626   8.772
 2492SOL    HW2 8163   0.906   2.631   8.683
 2493SOL     OW 8164   0.040   2.406   8.562
 2493SOL    HW1 8165   0.125   2.373   8.521
 2493SOL    HW2 8166   0.053   2.421   8.660
 2494SOL     OW 8167   0.189   2.382   9.170
 2494SOL    HW1 8168   0.248   2.342   9.100
 2494SOL    HW2 8169   0.131   2.453   9.129
 2495SOL     OW 8170   1.369   2.812   9.108
 2495SOL    HW1 8171   1.408   2.901   9.128
 2495SOL    HW2 8172   1.379   2.792   9.011
 2496SOL     OW 8173   0.815   2.434   7.773
 2496SOL    HW1 8174   0.822   2.345   7.727
 2496SOL    HW2 8175   0.721   2.468   7.765
 2497SOL     OW 8176   1.657   2.466   8.654
 2497SOL    HW1 8177   1.619   2.397   8.716
 2497SOL    HW2 8178   1.739   2.430   8.610
 2498SOL     OW 8179   0.252   3.426   9.192
 2498SOL    HW1 8180   0.222   3.483   9.268
 2498SOL    HW2 8181   0.245   3.329   9.218
 2499SOL     OW 8182   0.671   2.326   8.717
 2499SOL    HW1 8183   0.637   2.237   8.687
 2499SOL    HW2 8184   0.697   2.380   8.637
 2500SOL     OW 8185   0.930   3.540   8.913
 2500SOL    HW1 8186   0.906   3.522   8.818
 2500SOL    HW2 8187   0.960   3.634   8.923
 2501SOL     OW 8188   0.473   2.362   7.639
 2501SOL    HW1 8189   0.534   2.442   7.643
 2501SOL    HW2 8190   0.378   2.393   7.646
 2502SOL     OW 8191   0.159   2.999   8.914
 2502SOL    HW1 8192   0.181   2.938   8.990
 2502SOL    HW2 8193   0.169   2.950   8.828
 2503SOL     OW 8194   1.347   2.921   8.682
 2503SOL    HW1 8195   1.371   2.858   8.608
 2503SOL    HW2 8196   1.257   2.961   8.664
 2504SOL     OW 8197   1.759   3.609   8.602
 2504SOL    HW1 8198   1.820   3.639   8.529
 2504SOL    HW2 8199   1.721   3.520   8.580
 2505SOL     OW 8200   1.252   3.593   8.576
 2505SOL    HW1 8201   1.336   3.598   8.522
 2505SOL    HW2 8202   1.229   3.497   8.594
 2506SOL     OW 8203   0.083   3.120   8.470
 2506SOL    HW1 8204   0.078   3.119   8.570
 2506SOL    HW2 8205   0.000   3.079   8.432
 2507SOL     OW 8206   0.688   3.524   9.164
 2507SOL    HW1 8207   0.632   3.605   9.173
 2507SOL    HW2 8208   0.740   3.528   9.078
 2508SOL     OW 8209   1.726   1.997   7.971
 2508SOL    HW1 8210   1.799   1.980   7.904
 2508SOL    HW2 8211   1.695   1.910   8.009
 2509SOL     OW 8212   1.388   3.435   7.925
 2509SOL    HW1 8213   1.455   3.447   7.851
 2509SOL    HW2 8214   1.348   3.524   7.948
 2510SOL     OW 8215   0.130   3.656   9.299
 2510SOL    HW1 8216   0.089   3.582   9.352
 2510SOL    HW2 8217   0.194   3.707   9.357
 2511SOL     OW 8218   1.280   2.789   8.120
 2511SOL    HW1 8219   1.340   2.708   8.122
 2511SOL    HW2 8220   1.320   2.858   8.060
 2512SOL     OW 8221   0.830   3.135   8.870
 2512SOL    HW1 8222   0.825   3.168   8.965
 2512SOL    HW2 8223   0.744   3.154   8.824
 2513SOL     OW 8224   0.672   3.478   7.602
 2513SOL    HW1 8225   0.681   3.488   7.503
 2513SOL    HW2 8226   0.632   3.389   7.623
 2514SOL     OW 8227   1.650   3.582   8.842
 2514SOL    HW1 8228   1.703   3.592   8.758
 2514SOL    HW2 8229   1.623   3.672   8.876
 2515SOL     OW 8230   0.263   2.188   8.168
 2515SOL    HW1 8231   0.184   2.239   8.134
 2515SOL    HW2 8232   0.254   2.173   8.266
 2516SOL     OW 8233   1.194   3.474   7.479
 2516SOL    HW1 8234   1.200   3.381   7.516
 2516SOL    HW2 8235   1.135   3.474   7.399
 2517SOL     OW 8236   0.822   2.864   8.820
 2517SOL    HW1 8237   0.862   2.863   8.728
 2517SOL    HW2 8238   0.832   2.956   8.860
 2518SOL     OW 8239   0.916   2.772   7.739
 2518SOL    HW1 8240   0.979   2.810   7.671
 2518SOL    HW2 8241   0.956   2.689   7.778
 2519SOL     OW 8242   1.504   3.469   7.492
 2519SOL    HW1 8243   1.412   3.506   7.499
 2519SOL    HW2 8244   1.542   3.489   7.402
 2520SOL     OW 8245   0.372   3.150   8.938
 2520SOL    HW1 8246   0.359   3.243   8.904
 2520SOL    HW2 8247   0.288   3.098   8.925
 2521SOL     OW 8248   1.614   3.154   8.737
 2521SOL    HW1 8249   1.674   3.157   8.817
 2521SOL    HW2 8250   1.539   3.218   8.750
 2522SOL     OW 8251   1.039   2.960   8.144
 2522SOL    HW1 8252   0.969   2.913   8.198
 2522SOL    HW2 8253   1.098   2.892   8.101
 2523SOL     OW 8254   1.014   2.098   8.419
 2523SOL    HW1 8255   1.006   2.062   8.326
 2523SOL    HW2 8256   1.012   2.022   8.484
 2524SOL     OW 8257   0.590   3.349   7.939
 2524SOL    HW1 8258   0.632   3.291   7.869
 2524SOL    HW2 8259   0.546   3.428   7.895
 2525SOL     OW 8260   1.709   2.247   8.829
 2525SOL    HW1 8261   1.782   2.316   8.833
 2525SOL    HW2 8262   1.737   2.172   8.770
 2526SOL     OW 8263   0.255   3.210   7.738
 2526SOL    HW1 8264   0.159   3.211   7.711
 2526SOL    HW2 8265   0.267   3.263   7.822
 2527SOL     OW 8266   0.105   2.875   9.174
 2527SOL    HW1 8267   0.028   2.842   9.228
 2527SOL    HW2 8268   0.190   2.845   9.216
 2528SOL     OW 8269   0.672   2.065   8.937
 2528SOL    HW1 8270   0.762   2.049   8.897
 2528SOL    HW2 8271   0.680   2.070   9.036
 2529SOL     OW 8272   0.075   2.207   7.481
 2529SOL    HW1 8273  -0.017   2.179   7.452
 2529SOL    HW2 8274   0.106   2.284   7.425
 2530SOL     OW 8275   1.440   2.718   8.846
 2530SOL    HW1 8276   1.383   2.770   8.783
 2530SOL    HW2 8277   1.536   2.730   8.822
 2531SOL     OW 8278   0.072   2.028   7.766
 2531SOL    HW1 8279   0.055   2.111   7.712
 2531SOL    HW2 8280   0.162   1.991   7.744
 2532SOL     OW 8281   1.183   3.197   7.567
 2532SOL    HW1 8282   1.084   3.186   7.569
 2532SOL    HW2 8283   1.217   3.212   7.660
 2533SOL     OW 8284   0.613   2.704   8.879
 2533SOL    HW1 8285   0.669   2.785   8.862
 2533SOL    HW2 8286   0.672   2.624   8.882
 2534SOL     OW 8287   1.493   3.629   8.407
 2534SOL    HW1 8288   1.526   3.693   8.338
 2534SOL    HW2 8289   1.559   3.623   8.482
 2535SOL     OW 8290   0.716   2.427   9.156
 2535SOL    HW1 8291   0.735   2.492   9.230
 2535SOL    HW2 8292   0.776   2.347   9.165
 2536SOL     OW 8293   1.450   3.082   9.081
 2536SOL    HW1 8294   1.441   3.072   9.180
 2536SOL    HW2 8295   1.546   3.075   9.055
 2537SOL     OW 8296   0.390   3.603   9.008
 2537SOL    HW1 8297   0.299   3.644   9.006
 2537SOL    HW2 8298   0.383   3.509   9.040
 2538SOL     OW 8299   1.674   2.745   8.702
 2538SOL    HW1 8300   1.647   2.656   8.665
 2538SOL    HW2 8301   1.675   2.813   8.629
 2539SOL     OW 8302   0.594   2.607   8.100
 2539SOL    HW1 8303   0.644   2.692   8.081
 2539SOL    HW2 8304   0.506   2.609   8.052
 2540SOL     OW 8305   1.777   2.204   9.090
 2540SOL    HW1 8306   1.760   2.235   8.996
 2540SOL    HW2 8307   1.693   2.167   9.128
 2541SOL     OW 8308   1.730   2.796   8.965
 2541SOL    HW1 8309   1.768   2.887   8.980
 2541SOL    HW2 8310   1.722   2.779   8.866
 2542SOL     OW 8311   0.859   3.236   7.464
 2542SOL    HW1 8312   0.813   3.251   7.552
 2542SOL    HW2 8313   0.903   3.321   7.434
 2543SOL     OW 8314   0.661   3.652   8.401
 2543SOL    HW1 8315   0.615   3.740   8.388
 2543SOL    HW2 8316   0.760   3.664   8.394
 2544SOL     OW 8317   0.859   2.818   8.309
 2544SOL    HW1 8318   0.913   2.749   8.357
 2544SOL    HW2 8319   0.827   2.887   8.375
 2545SOL     OW 8320   1.083   2.846   7.535
 2545SOL    HW1 8321   1.060   2.899   7.453
 2545SOL    HW2 8322   1.164   2.790   7.516
 2546SOL     OW 8323   1.861   3.431   8.299
 2546SOL    HW1 8324   1.790   3.419   8.229
 2546SOL    HW2 8325   1.862   3.352   8.359
 2547SOL     OW 8326   0.221   3.176   9.292
 2547SOL    HW1 8327   0.156   3.103   9.271
 2547SOL    HW2 8328   0.225   3.190   9.390
 2548SOL     OW 8329   0.079   3.102   8.101
 2548SOL    HW1 8330   0.078   3.055   8.189
 2548SOL    HW2 8331   0.161   3.074   8.050
 2549SOL     OW 8332   0.672   3.253   9.072
 2549SOL    HW1 8333   0.594   3.203   9.110
 2549SOL    HW2 8334   0.669   3.348   9.103
 2550SOL     OW 8335   0.428   2.286   7.968
 2550SOL    HW1 8336   0.458   2.214   7.906
 2550SOL    HW2 8337   0.389   2.246   8.051
 2551SOL     OW 8338   1.705   3.349   8.552
 2551SOL    HW1 8339   1.612   3.324   8.525
 2551SOL    HW2 8340   1.731   3.299   8.634
 2552SOL     OW 8341   0.317   2.409   8.728
 2552SOL    HW1 8342   0.355   2.350   8.800
 2552SOL    HW2 8343   0.357   2.383   8.640
 2553SOL     OW 8344   0.812   3.448   8.135
 2553SOL    HW1 8345   0.844   3.458   8.041
 2553SOL    HW2 8346   0.733   3.386   8.137
 2554SOL     OW 8347   1.424   2.076   8.560
 2554SOL    HW1 8348   1.476   2.011   8.615
 2554SOL    HW2 8349   1.375   2.139   8.621
 2555SOL     OW 8350   1.001   1.896   8.602
 2555SOL    HW1 8351   0.938   1.824   8.571
 2555SOL    HW2 8352   1.094   1.860   8.602
 2556SOL     OW 8353   0.770   3.192   7.749
 2556SOL    HW1 8354   0.724   3.105   7.766
 2556SOL    HW2 8355   0.861   3.189   7.790
 2557SOL     OW 8356   0.618   3.429   8.732
 2557SOL    HW1 8357   0.613   3.511   8.789
 2557SOL    HW2 8358   0.707   3.426   8.687
 2558SOL     OW 8359   1.300   2.315   8.139
 2558SOL    HW1 8360   1.241   2.395   8.143
 2558SOL    HW2 8361   1.315   2.280   8.232
 2559SOL     OW 8362   1.593   2.083   8.330
 2559SOL    HW1 8363   1.509   2.082   8.384
 2559SOL    HW2 8364   1.595   2.166   8.274
 2560SOL     OW 8365   0.039   2.939   7.748
 2560SOL    HW1 8366   0.138   2.928   7.739
 2560SOL    HW2 8367  -0.001   2.853   7.780
 2561SOL     OW 8368   0.875   3.508   7.785
 2561SOL    HW1 8369   0.798   3.473   7.731
 2561SOL    HW2 8370   0.843   3.579   7.847
 2562SOL     OW 8371   0.230   2.490   9.423
 2562SOL    HW1 8372   0.137   2.488   9.460
 2562SOL    HW2 8373   0.231   2.451   9.331
 2563SOL     OW 8374   0.225   2.137  10.306
 2563SOL    HW1 8375   0.260   2.120  10.398
 2563SOL    HW2 8376   0.137   2.092  10.294
 2564SOL     OW 8377   0.019   2.230   9.957
 2564SOL    HW1 8378  -0.063   2.273   9.996
 2564SOL    HW2 8379  -0.009   2.157   9.894
 2565SOL     OW 8380   0.569   3.137  10.475
 2565SOL    HW1 8381   0.476   3.130  10.438
 2565SOL    HW2 8382   0.580   3.226  10.519
 2566SOL     OW 8383   1.555   3.373  10.013
 2566SOL    HW1 8384   1.498   3.357  10.094
 2566SOL    HW2 8385   1.496   3.383   9.933
 2567SOL     OW 8386   1.135   2.565  10.027
 2567SOL    HW1 8387   1.192   2.643  10.002
 2567SOL    HW2 8388   1.075   2.591  10.103
 2568SOL     OW 8389   1.755   2.469   9.541
 2568SOL    HW1 8390   1.743   2.456   9.442
 2568SOL    HW2 8391   1.725   2.388   9.590
 2569SOL     OW 8392   0.768   3.006  10.333
 2569SOL    HW1 8393   0.690   3.023  10.393
 2569SOL    HW2 8394   0.802   3.093  10.297
 2570SOL     OW 8395   0.850   2.660  11.133
 2570SOL    HW1 8396   0.846   2.736  11.198
 2570SOL    HW2 8397   0.872   2.696  11.042
 2571SOL     OW 8398   0.685   2.874   9.975
 2571SOL    HW1 8399   0.754   2.858  10.045
 2571SOL    HW2 8400   0.612   2.931  10.013
 2572SOL     OW 8401   0.686   3.023  11.113
 2572SOL    HW1 8402   0.746   3.102  11.127
 2572SOL    HW2 8403   0.600   3.054  11.072
 2573SOL     OW 8404   0.335   3.297  10.371
 2573SOL    HW1 8405   0.257   3.266  10.318
 2573SOL    HW2 8406   0.393   3.355  10.314
 2574SOL     OW 8407   1.460   3.367  10.649
 2574SOL    HW1 8408   1.484   3.461  10.675
 2574SOL    HW2 8409   1.444   3.313  10.731
 2575SOL     OW 8410   0.438   2.254  10.809
 2575SOL    HW1 8411   0.520   2.198  10.818
 2575SOL    HW2 8412   0.357   2.196  10.813
 2576SOL     OW 8413   1.603   2.309  10.047
 2576SOL    HW1 8414   1.529   2.355   9.997
 2576SOL    HW2 8415   1.654   2.377  10.100
 2577SOL     OW 8416   0.231   3.575   9.793
 2577SOL    HW1 8417   0.265   3.652   9.847
 2577SOL    HW2 8418   0.275   3.575   9.703
 2578SOL     OW 8419   1.127   3.203  11.000
 2578SOL    HW1 8420   1.174   3.203  11.088
 2578SOL    HW2 8421   1.079   3.116  10.989
 2579SOL     OW 8422   0.230   3.296   9.848
 2579SOL    HW1 8423   0.204   3.392   9.848
 2579SOL    HW2 8424   0.159   3.242   9.893
 2580SOL     OW 8425   0.240   2.953  10.196
 2580SOL    HW1 8426   0.254   2.869  10.248
 2580SOL    HW2 8427   0.185   3.017  10.251
 2581SOL     OW 8428   0.620   3.648  10.749
 2581SOL    HW1 8429   0.528   3.631  10.784
 2581SOL    HW2 8430   0.648   3.740  10.775
 2582SOL     OW 8431   0.606   2.826   9.433
 2582SOL    HW1 8432   0.613   2.910   9.379
 2582SOL    HW2 8433   0.652   2.839   9.521
 2583SOL     OW 8434   1.594   1.976  10.790
 2583SOL    HW1 8435   1.576   2.043  10.718
 2583SOL    HW2 8436   1.591   2.022  10.879
 2584SOL     OW 8437   0.122   2.505   9.873
 2584SOL    HW1 8438   0.077   2.417   9.890
 2584SOL    HW2 8439   0.121   2.559   9.957
 2585SOL     OW 8440   1.842   3.629   9.669
 2585SOL    HW1 8441   1.896   3.600   9.749
 2585SOL    HW2 8442   1.872   3.719   9.640
 2586SOL     OW 8443   0.027   3.458   9.427
 2586SOL    HW1 8444   0.008   3.362   9.448
 2586SOL    HW2 8445  -0.006   3.516   9.502
 2587SOL     OW 8446   1.689   2.784   9.922
 2587SOL    HW1 8447   1.784   2.755   9.930
 2587SOL    HW2 8448   1.681   2.849   9.847
 2588SOL     OW 8449   1.641   2.970   9.742
 2588SOL    HW1 8450   1.727   2.972   9.690
 2588SOL    HW2 8451   1.655   3.017   9.830
 2589SOL     OW 8452   0.113   2.599  10.907
 2589SOL    HW1 8453   0.201   2.586  10.952
 2589SOL    HW2 8454   0.100   2.696  10.885
 2590SOL     OW 8455   0.613   3.227  10.036
 2590SOL    HW1 8456   0.564   3.140  10.045
 2590SOL    HW2 8457   0.590   3.270   9.949
 2591SOL     OW 8458   1.293   3.090  10.733
 2591SOL    HW1 8459   1.330   3.017  10.675
 2591SOL    HW2 8460   1.345   3.095  10.818
 2592SOL     OW 8461   0.809   1.866   9.812
 2592SOL    HW1 8462   0.849   1.957   9.803
 2592SOL    HW2 8463   0.709   1.874   9.818
 2593SOL     OW 8464   0.197   2.838  10.574
 2593SOL    HW1 8465   0.286   2.793  10.560
 2593SOL    HW2 8466   0.124   2.773  10.555
 2594SOL     OW 8467   1.525   2.861   9.500
 2594SOL    HW1 8468   1.462   2.785   9.513
 2594SOL    HW2 8469   1.573   2.879   9.586
 2595SOL     OW 8470   1.187   3.654  10.926
 2595SOL    HW1 8471   1.211   3.714  10.850
 2595SOL    HW2 8472   1.194   3.559  10.896
 2596SOL     OW 8473   0.317   2.113  11.111
 2596SOL    HW1 8474   0.388   2.184  11.117
 2596SOL    HW2 8475   0.229   2.152  11.139
 2597SOL     OW 8476   1.466   3.279  10.263
 2597SOL    HW1 8477   1.407   3.285  10.343
 2597SOL    HW2 8478   1.451   3.191  10.217
 2598SOL     OW 8479   1.667   3.576   9.882
 2598SOL    HW1 8480   1.626   3.553   9.794
 2598SOL    HW2 8481   1.649   3.502   9.947
 2599SOL     OW 8482   0.598   2.591   9.580
 2599SOL    HW1 8483   0.622   2.660   9.512
 2599SOL    HW2 8484   0.520   2.624   9.634
 2600SOL     OW 8485   1.281   2.207  10.254
 2600SOL    HW1 8486   1.195   2.157  10.241
 2600SOL    HW2 8487   1.343   2.153  10.310
 2601SOL     OW 8488   1.576   3.524   9.617
 2601SOL    HW1 8489   1.665   3.570   9.620
 2601SOL    HW2 8490   1.555   3.500   9.522
 2602SOL     OW 8491   0.807   2.467  10.775
 2602SOL    HW1 8492   0.760   2.464  10.864
 2602SOL    HW2 8493   0.756   2.412  10.709
 2603SOL     OW 8494   1.394   2.331  10.984
 2603SOL    HW1 8495   1.374   2.374  11.072
 2603SOL    HW2 8496   1.472   2.269  10.993
 2604SOL     OW 8497   0.973   2.752  10.882
 2604SOL    HW1 8498   1.019   2.668  10.853
 2604SOL    HW2 8499   0.917   2.786  10.807
 2605SOL     OW 8500   0.991   2.272  10.552
 2605SOL    HW1 8501   0.914   2.306  10.606
 2605SOL    HW2 8502   0.957   2.221  10.473
 2606SOL     OW 8503   1.041   2.563   9.739
 2606SOL    HW1 8504   1.067   2.559   9.835
 2606SOL    HW2 8505   0.956   2.512   9.725
 2607SOL     OW 8506   0.076   2.673  10.099
 2607SOL    HW1 8507   0.175   2.661  10.108
 2607SOL    HW2 8508   0.052   2.768  10.120
 2608SOL     OW 8509   0.130   3.683  10.881
 2608SOL    HW1 8510   0.120   3.668  10.980
 2608SOL    HW2 8511   0.044   3.719  10.845
 2609SOL     OW 8512   0.865   2.210   9.505
 2609SOL    HW1 8513   0.924   2.273   9.456
 2609SOL    HW2 8514   0.884   2.116   9.476
 2610SOL     OW 8515   1.719   2.447  11.141
 2610SOL    HW1 8516   1.693   2.536  11.105
 2610SOL    HW2 8517   1.717   2.379  11.068
 2611SOL     OW 8518   1.362   3.006   9.855
 2611SOL    HW1 8519   1.445   2.977   9.807
 2611SOL    HW2 8520   1.313   3.073   9.799
 2612SOL     OW 8521   0.550   2.058  10.195
 2612SOL    HW1 8522   0.545   2.053  10.295
 2612SOL    HW2 8523   0.552   2.154  10.166
 2613SOL     OW 8524   1.008   3.318   9.787
 2613SOL    HW1 8525   0.962   3.390   9.735
 2613SOL    HW2 8526   1.004   3.338   9.885
 2614SOL     OW 8527   0.351   3.663  10.163
 2614SOL    HW1 8528   0.401   3.577  10.169
 2614SOL    HW2 8529   0.416   3.740  10.160
 2615SOL     OW 8530   1.795   2.928  10.183
 2615SOL    HW1 8531   1.733   2.913  10.107
 2615SOL    HW2 8532   1.743   2.939  10.268
 2616SOL     OW 8533   1.227   3.412  10.816
 2616SOL    HW1 8534   1.233   3.335  10.880
 2616SOL    HW2 8535   1.175   3.386  10.736
 2617SOL     OW 8536   0.321   2.805   9.552
 2617SOL    HW1 8537   0.403   2.844   9.510
 2617SOL    HW2 8538   0.294   2.723   9.503
 2618SOL     OW 8539   1.458   2.597  10.038
 2618SOL    HW1 8540   1.453   2.532  10.113
 2618SOL    HW2 8541   1.538   2.656  10.051
 2619SOL     OW 8542   0.461   3.128  11.037
 2619SOL    HW1 8543   0.411   3.129  10.951
 2619SOL    HW2 8544   0.398   3.110  11.113
 2620SOL     OW 8545   1.111   3.638   9.547
 2620SOL    HW1 8546   1.051   3.576   9.597
 2620SOL    HW2 8547   1.142   3.594   9.462
 2621SOL     OW 8548   0.202   2.147  10.808
 2621SOL    HW1 8549   0.122   2.207  10.795
 2621SOL    HW2 8550   0.192   2.098  10.894
 2622SOL     OW 8551   1.632   3.239   9.391
 2622SOL    HW1 8552   1.600   3.333   9.381
 2622SOL    HW2 8553   1.556   3.176   9.379
 2623SOL     OW 8554   0.464   3.605   9.633
 2623SOL    HW1 8555   0.497   3.644   9.719
 2623SOL    HW2 8556   0.540   3.598   9.568
 2624SOL     OW 8557   1.400   1.969   9.736
 2624SOL    HW1 8558   1.376   1.932   9.646
 2624SOL    HW2 8559   1.499   1.985   9.740
 2625SOL     OW 8560   0.249   3.647  10.551
 2625SOL    HW1 8561   0.306   3.582  10.601
 2625SOL    HW2 8562   0.233   3.614  10.458
 2626SOL     OW 8563   0.940   3.560  10.214
 2626SOL    HW1 8564   1.020   3.503  10.235
 2626SOL    HW2 8565   0.891   3.520  10.137
 2627SOL     OW 8566   0.382   2.562   9.790
 2627SOL    HW1 8567   0.427   2.472   9.787
 2627SOL    HW2 8568   0.288   2.551   9.823
 2628SOL     OW 8569   1.547   2.084  11.039
 2628SOL    HW1 8570   1.542   2.121  11.131
 2628SOL    HW2 8571   1.475   2.015  11.027
 2629SOL     OW 8572   0.614   1.984   9.427
 2629SOL    HW1 8573   0.712   1.962   9.434
 2629SOL    HW2 8574   0.583   1.967   9.334
 2630SOL     OW 8575   0.781   2.126  11.059
 2630SOL    HW1 8576   0.848   2.065  11.102
 2630SOL    HW2 8577   0.708   2.145  11.124
 2631SOL     OW 8578   0.888   3.376  10.505
 2631SOL    HW1 8579   0.865   3.351  10.411
 2631SOL    HW2 8580   0.949   3.307  10.544
 2632SOL     OW 8581   1.351   2.452  10.743
 2632SOL    HW1 8582   1.379   2.409  10.828
 2632SOL    HW2 8583   1.376   2.548  10.744
 2633SOL     OW 8584   0.803   3.264  10.234
 2633SOL    HW1 8585   0.893   3.278  10.192
 2633SOL    HW2 8586   0.732   3.266  10.163
 2634SOL     OW 8587   0.922   2.365  10.209
 2634SOL    HW1 8588   0.897   2.356  10.113
 2634SOL    HW2 8589   0.970   2.283  10.240
 2635SOL     OW 8590   0.539   1.926   9.822
 2635SOL    HW1 8591   0.458   1.927   9.880
 2635SOL    HW2 8592   0.542   2.009   9.767
 2636SOL     OW 8593   1.434   3.050   9.351
 2636SOL    HW1 8594   1.466   2.974   9.408
 2636SOL    HW2 8595   1.342   3.077   9.381
 2637SOL     OW 8596   0.297   1.897   9.481
 2637SOL    HW1 8597   0.346   1.981   9.460
 2637SOL    HW2 8598   0.359   1.832   9.526
 2638SOL     OW 8599   0.935   2.098   9.790
 2638SOL    HW1 8600   0.887   2.139   9.712
 2638SOL    HW2 8601   1.034   2.096   9.771
 2639SOL     OW 8602   1.076   2.545  10.774
 2639SOL    HW1 8603   0.996   2.484  10.777
 2639SOL    HW2 8604   1.157   2.492  10.750
 2640SOL     OW 8605   1.227   3.432  10.103
 2640SOL    HW1 8606   1.248   3.506  10.038
 2640SOL    HW2 8607   1.295   3.432  10.176
 2641SOL     OW 8608   0.459   3.014  10.051
 2641SOL    HW1 8609   0.388   2.987  10.116
 2641SOL    HW2 8610   0.433   2.986   9.958
 2642SOL     OW 8611   1.271   3.659   9.901
 2642SOL    HW1 8612   1.315   3.723   9.837
 2642SOL    HW2 8613   1.221   3.711   9.971
 2643SOL     OW 8614   1.032   2.411   9.326
 2643SOL    HW1 8615   0.991   2.493   9.287
 2643SOL    HW2 8616   1.096   2.437   9.399
 2644SOL     OW 8617   0.078   2.418  10.696
 2644SOL    HW1 8618   0.170   2.417  10.655
 2644SOL    HW2 8619   0.072   2.492  10.763
 2645SOL     OW 8620   0.561   2.084  10.457
 2645SOL    HW1 8621   0.599   2.000  10.494
 2645SOL    HW2 8622   0.473   2.103  10.501
 2646SOL     OW 8623   0.866   2.316   9.952
 2646SOL    HW1 8624   0.834   2.388   9.890
 2646SOL    HW2 8625   0.890   2.235   9.899
 2647SOL     OW 8626   1.017   1.901  10.063
 2647SOL    HW1 8627   0.945   1.906   9.994
 2647SOL    HW2 8628   0.993   1.832  10.132
 2648SOL     OW 8629   1.429   3.035  10.177
 2648SOL    HW1 8630   1.374   2.951  10.170
 2648SOL    HW2 8631   1.455   3.064  10.085
 2649SOL     OW 8632   1.466   2.452  10.302
 2649SOL    HW1 8633   1.436   2.357  10.309
 2649SOL    HW2 8634   1.539   2.468  10.368
 2650SOL     OW 8635   1.857   2.695   9.687
 2650SOL    HW1 8636   1.899   2.631   9.751
 2650SOL    HW2 8637   1.819   2.644   9.609
 2651SOL     OW 8638   0.488   3.247   9.484
 2651SOL    HW1 8639   0.401   3.232   9.531
 2651SOL    HW2 8640   0.471   3.273   9.389
 2652SOL     OW 8641   1.664   3.142   9.967
 2652SOL    HW1 8642   1.763   3.150   9.981
 2652SOL    HW2 8643   1.619   3.226   9.998
 2653SOL     OW 8644   1.390   2.437   9.388
 2653SOL    HW1 8645   1.336   2.416   9.469
 2653SOL    HW2 8646   1.481   2.396   9.397
 2654SOL     OW 8647   0.527   2.118   9.638
 2654SOL    HW1 8648   0.554   2.059   9.563
 2654SOL    HW2 8649   0.527   2.213   9.607
 2655SOL     OW 8650   1.754   3.085  10.898
 2655SOL    HW1 8651   1.845   3.046  10.885
 2655SOL    HW2 8652   1.762   3.181  10.922
 2656SOL     OW 8653   1.064   3.209  10.650
 2656SOL    HW1 8654   0.984   3.186  10.705
 2656SOL    HW2 8655   1.147   3.183  10.699
 2657SOL     OW 8656   1.592   3.491  10.935
 2657SOL    HW1 8657   1.619   3.525  10.845
 2657SOL    HW2 8658   1.671   3.453  10.981
 2658SOL     OW 8659   1.111   3.057  10.410
 2658SOL    HW1 8660   1.071   3.101  10.491
 2658SOL    HW2 8661   1.070   3.094  10.327
 2659SOL     OW 8662   1.638   2.961  10.389
 2659SOL    HW1 8663   1.643   3.042  10.448
 2659SOL    HW2 8664   1.552   2.963  10.338
 2660SOL     OW 8665   0.915   1.951  10.712
 2660SOL    HW1 8666   0.940   1.931  10.617
 2660SOL    HW2 8667   0.987   2.007  10.754
 2661SOL     OW 8668   0.980   2.978  11.029
 2661SOL    HW1 8669   0.881   2.984  11.039
 2661SOL    HW2 8670   1.003   2.898  10.973
 2662SOL     OW 8671   0.705   2.912   9.678
 2662SOL    HW1 8672   0.691   2.919   9.777
 2662SOL    HW2 8673   0.789   2.861   9.660
 2663SOL     OW 8674   0.410   2.675  10.561
 2663SOL    HW1 8675   0.496   2.687  10.611
 2663SOL    HW2 8676   0.368   2.588  10.588
 2664SOL     OW 8677   1.274   2.248  10.572
 2664SOL    HW1 8678   1.295   2.322  10.636
 2664SOL    HW2 8679   1.185   2.265  10.529
 2665SOL     OW 8680   0.064   3.426  10.641
 2665SOL    HW1 8681   0.018   3.508  10.607
 2665SOL    HW2 8682   0.162   3.445  10.650
 2666SOL     OW 8683   0.367   2.962   9.811
 2666SOL    HW1 8684   0.360   3.045   9.755
 2666SOL    HW2 8685   0.371   2.882   9.751
 2667SOL     OW 8686   0.566   2.399  10.175
 2667SOL    HW1 8687   0.578   2.465  10.101
 2667SOL    HW2 8688   0.612   2.433  10.258
 2668SOL     OW 8689   1.252   3.210   9.698
 2668SOL    HW1 8690   1.302   3.287   9.738
 2668SOL    HW2 8691   1.157   3.212   9.730
 2669SOL     OW 8692   1.272   3.307  10.452
 2669SOL    HW1 8693   1.319   3.320  10.539
 2669SOL    HW2 8694   1.206   3.233  10.461
 2670SOL     OW 8695   1.582   2.501   9.782
 2670SOL    HW1 8696   1.551   2.562   9.855
 2670SOL    HW2 8697   1.632   2.553   9.713
 2671SOL     OW 8698   0.354   3.372  10.639
 2671SOL    HW1 8699   0.333   3.328  10.552
 2671SOL    HW2 8700   0.451   3.398  10.642
 2672SOL     OW 8701   0.402   2.613  10.908
 2672SOL    HW1 8702   0.470   2.668  10.861
 2672SOL    HW2 8703   0.442   2.525  10.935
 2673SOL     OW 8704   1.587   2.641  10.980
 2673SOL    HW1 8705   1.495   2.679  10.975
 2673SOL    HW2 8706   1.647   2.688  10.915
 2674SOL     OW 8707   1.013   1.967  11.080
 2674SOL    HW1 8708   1.019   2.052  11.028
 2674SOL    HW2 8709   1.045   1.891  11.023
 2675SOL     OW 8710   0.504   1.912  11.050
 2675SOL    HW1 8711   0.462   1.855  10.980
 2675SOL    HW2 8712   0.438   1.981  11.082
 2676SOL     OW 8713   0.573   2.732  10.339
 2676SOL    HW1 8714   0.617   2.821  10.330
 2676SOL    HW2 8715   0.510   2.732  10.416
 2677SOL     OW 8716   1.360   2.724  10.355
 2677SOL    HW1 8717   1.285   2.724  10.289
 2677SOL    HW2 8718   1.397   2.632  10.364
 2678SOL     OW 8719   1.209   2.387   9.585
 2678SOL    HW1 8720   1.222   2.303   9.639
 2678SOL    HW2 8721   1.180   2.461   9.645
 2679SOL     OW 8722   0.307   2.075  10.541
 2679SOL    HW1 8723   0.284   2.112  10.631
 2679SOL    HW2 8724   0.277   1.980  10.535
 2680SOL     OW 8725   0.037   3.172  10.592
 2680SOL    HW1 8726   0.090   3.123  10.660
 2680SOL    HW2 8727   0.059   3.270  10.597
 2681SOL     OW 8728   0.732   2.496  10.374
 2681SOL    HW1 8729   0.791   2.470  10.298
 2681SOL    HW2 8730   0.704   2.592  10.363
 2682SOL     OW 8731   1.728   2.797  11.164
 2682SOL    HW1 8732   1.682   2.790  11.075
 2682SOL    HW2 8733   1.666   2.841  11.230
 2683SOL     OW 8734   0.307   1.925   9.928
 2683SOL    HW1 8735   0.296   2.019   9.961
 2683SOL    HW2 8736   0.302   1.862  10.005
 2684SOL     OW 8737   1.622   2.229   9.684
 2684SOL    HW1 8738   1.624   2.153   9.748
 2684SOL    HW2 8739   1.574   2.306   9.724
 2685SOL     OW 8740   1.023   2.628  10.276
 2685SOL    HW1 8741   1.038   2.649  10.372
 2685SOL    HW2 8742   0.993   2.533  10.267
 2686SOL     OW 8743   0.980   3.435  11.010
 2686SOL    HW1 8744   0.960   3.479  10.922
 2686SOL    HW2 8745   1.019   3.344  10.994
 2687SOL     OW 8746   1.859   3.380  10.915
 2687SOL    HW1 8747   1.873   3.407  10.820
 2687SOL    HW2 8748   1.942   3.402  10.968
 2688SOL     OW 8749   0.350   2.760  11.114
 2688SOL    HW1 8750   0.426   2.804  11.162
 2688SOL    HW2 8751   0.385   2.713  11.032
 2689SOL     OW 8752   1.540   2.136   9.435
 2689SOL    HW1 8753   1.479   2.061   9.458
 2689SOL    HW2 8754   1.562   2.188   9.518
 2690SOL     OW 8755   1.303   2.700   9.352
 2690SOL    HW1 8756   1.337   2.607   9.367
 2690SOL    HW2 8757   1.321   2.727   9.257
 2691SOL     OW 8758   1.068   3.195  10.159
 2691SOL    HW1 8759   1.075   3.111  10.104
 2691SOL    HW2 8760   1.130   3.264  10.123
 2692SOL     OW 8761   0.319   2.672  10.259
 2692SOL    HW1 8762   0.412   2.708  10.264
 2692SOL    HW2 8763   0.313   2.587  10.311
 2693SOL     OW 8764   0.339   2.371  10.316
 2693SOL    HW1 8765   0.287   2.288  10.299
 2693SOL    HW2 8766   0.416   2.376  10.252
 2694SOL     OW 8767   1.138   2.242  10.988
 2694SOL    HW1 8768   1.093   2.305  11.052
 2694SOL    HW2 8769   1.231   2.273  10.971
 2695SOL     OW 8770   1.160   2.069  10.787
 2695SOL    HW1 8771   1.160   2.133  10.864
 2695SOL    HW2 8772   1.188   2.117  10.704
 2696SOL     OW 8773   0.008   3.188   9.510
 2696SOL    HW1 8774  -0.085   3.209   9.479
 2696SOL    HW2 8775   0.018   3.089   9.523
 2697SOL     OW 8776   0.088   3.663  10.237
 2697SOL    HW1 8777   0.046   3.577  10.210
 2697SOL    HW2 8778   0.182   3.666  10.203
 2698SOL     OW 8779   0.504   3.430  10.220
 2698SOL    HW1 8780   0.570   3.504  10.229
 2698SOL    HW2 8781   0.548   3.351  10.178
 2699SOL     OW 8782   1.002   2.658  10.548
 2699SOL    HW1 8783   1.043   2.626  10.634
 2699SOL    HW2 8784   0.906   2.631  10.545
 2700SOL     OW 8785   0.040   2.406  10.424
 2700SOL    HW1 8786   0.125   2.373  10.383
 2700SOL    HW2 8787   0.053   2.421  10.522
 2701SOL     OW 8788   0.189   2.382  11.032
 2701SOL    HW1 8789   0.248   2.342  10.962
 2701SOL    HW2 8790   0.131   2.453  10.991
 2702SOL     OW 8791   1.369   2.812  10.970
 2702SOL    HW1 8792   1.408   2.901  10.990
 2702SOL    HW2 8793   1.379   2.792  10.873
 2703SOL     OW 8794   0.815   2.434   9.635
 2703SOL    HW1 8795   0.822   2.345   9.589
 2703SOL    HW2 8796   0.721   2.468   9.627
 2704SOL     OW 8797   1.657   2.466  10.516
 2704SOL    HW1 8798   1.619   2.397  10.578
 2704SOL    HW2 8799   1.739   2.430  10.472
 2705SOL     OW 8800   0.252   3.426  11.054
 2705SOL    HW1 8801   0.222   3.483  11.130
 2705SOL    HW2 8802   0.245   3.329  11.080
 2706SOL     OW 8803   0.671   2.326  10.579
 2706SOL    HW1 8804   0.637   2.237  10.549
 2706SOL    HW2 8805   0.697   2.380  10.499
 2707SOL     OW 8806   0.930   3.540  10.775
 2707SOL    HW1 8807   0.906   3.522  10.680
 2707SOL    HW2 8808   0.960   3.634  10.785
 2708SOL     OW 8809   0.473   2.362   9.501
 2708SOL    HW1 8810   0.534   2.442   9.505
 2708SOL    HW2 8811   0.378   2.393   9.508
 2709SOL     OW 8812   0.159   2.999  10.776
 2709SOL    HW1 8813   0.181   2.938  10.852
 2709SOL    HW2 8814   0.169   2.950  10.690
 2710SOL     OW 8815   1.347   2.921  10.544
 2710SOL    HW1 8816   1.371   2.858  10.470
 2710SOL    HW2 8817   1.257   2.961  10.526
 2711SOL     OW 8818   1.302   2.717   9.619
 2711SOL    HW1 8819   1.216   2.686   9.661
 2711SOL    HW2 8820   1.298   2.703   9.520
 2712SOL     OW 8821   1.759   3.609  10.464
 2712SOL    HW1 8822   1.820   3.639  10.391
 2712SOL    HW2 8823   1.721   3.520  10.442
 2713SOL     OW 8824   1.252   3.593  10.438
 2713SOL    HW1 8825   1.336   3.598  10.384
 2713SOL    HW2 8826   1.229   3.497  10.456
 2714SOL     OW 8827   0.083   3.120  10.332
 2714SOL    HW1 8828   0.078   3.119  10.432
 2714SOL    HW2 8829   0.000   3.079  10.294
 2715SOL     OW 8830   0.688   3.524  11.026
 2715SOL    HW1 8831   0.632   3.605  11.035
 2715SOL    HW2 8832   0.740   3.528  10.940
 2716SOL     OW 8833   1.388   3.435   9.787
 2716SOL    HW1 8834   1.455   3.447   9.713
 2716SOL    HW2 8835   1.348   3.524   9.810
 2717SOL     OW 8836   0.130   3.656  11.161
 2717SOL    HW1 8837   0.089   3.582  11.214
 2717SOL    HW2 8838   0.194   3.707  11.219
 2718SOL     OW 8839   1.280   2.789   9.982
 2718SOL    HW1 8840   1.340   2.708   9.984
 2718SOL    HW2 8841   1.320   2.858   9.922
 2719SOL     OW 8842   0.830   3.135  10.732
 2719SOL    HW1 8843   0.825   3.168  10.827
 2719SOL    HW2 8844   0.744   3.154  10.686
 2720SOL     OW 8845   0.672   3.478   9.464
 2720SOL    HW1 8846   0.681   3.488   9.365
 2720SOL    HW2 8847   0.632   3.389   9.485
 2721SOL     OW 8848   1.650   3.582  10.704
 2721SOL    HW1 8849   1.703   3.592  10.620
 2721SOL    HW2 8850   1.623   3.672  10.738
 2722SOL     OW 8851   0.263   2.188  10.030
 2722SOL    HW1 8852   0.184   2.239   9.996
 2722SOL    HW2 8853   0.254   2.173  10.128
 2723SOL     OW 8854   1.194   3.474   9.341
 2723SOL    HW1 8855   1.200   3.381   9.378
 2723SOL    HW2 8856   1.135   3.474   9.261
 2724SOL     OW 8857   0.822   2.864  10.682
 2724SOL    HW1 8858   0.862   2.863  10.590
 2724SOL    HW2 8859   0.832   2.956  10.722
 2725SOL     OW 8860   0.916   2.772   9.601
 2725SOL    HW1 8861   0.979   2.810   9.533
 2725SOL    HW2 8862   0.956   2.689   9.640
 2726SOL     OW 8863   1.504   3.469   9.354
 2726SOL    HW1 8864   1.412   3.506   9.361
 2726SOL    HW2 8865   1.542   3.489   9.264
 2727SOL     OW 8866   0.372   3.150  10.800
 2727SOL    HW1 8867   0.359   3.243  10.766
 2727SOL    HW2 8868   0.288   3.098  10.787
 2728SOL     OW 8869   1.614   3.154  10.599
 2728SOL    HW1 8870   1.674   3.157  10.679
 2728SOL    HW2 8871   1.539   3.218  10.612
 2729SOL     OW 8872   1.039   2.960  10.006
 2729SOL    HW1 8873   0.969   2.913  10.060
 2729SOL    HW2 8874   1.098   2.892   9.963
 2730SOL     OW 8875   1.014   2.098  10.281
 2730SOL    HW1 8876   1.006   2.062  10.188
 2730SOL    HW2 8877   1.012   2.022  10.346
 2731SOL     OW 8878   0.590   3.349   9.801
 2731SOL    HW1 8879   0.632   3.291   9.731
 2731SOL    HW2 8880   0.546   3.428   9.757
 2732SOL     OW 8881   1.709   2.247  10.691
 2732SOL    HW1 8882   1.782   2.316  10.695
 2732SOL    HW2 8883   1.737   2.172  10.632
 2733SOL     OW 8884   0.255   3.210   9.600
 2733SOL    HW1 8885   0.159   3.211   9.573
 2733SOL    HW2 8886   0.267   3.263   9.684
 2734SOL     OW 8887   0.105   2.875  11.036
 2734SOL    HW1 8888   0.028   2.842  11.090
 2734SOL    HW2 8889   0.190   2.845  11.078
 2735SOL     OW 8890   0.672   2.065  10.799
 2735SOL    HW1 8891   0.762   2.049  10.759
 2735SOL    HW2 8892   0.680   2.070  10.898
 2736SOL     OW 8893   0.075   2.207   9.343
 2736SOL    HW1 8894  -0.017   2.179   9.314
 2736SOL    HW2 8895   0.106   2.284   9.287
 2737SOL     OW 8896   1.440   2.718  10.708
 2737SOL    HW1 8897   1.383   2.770  10.645
 2737SOL    HW2 8898   1.536   2.730  10.684
 2738SOL     OW 8899   0.072   2.028   9.628
 2738SOL    HW1 8900   0.055   2.111   9.574
 2738SOL    HW2 8901   0.162   1.991   9.606
 2739SOL     OW 8902   1.183   3.197   9.429
 2739SOL    HW1 8903   1.084   3.186   9.431
 2739SOL    HW2 8904   1.217   3.212   9.522
 2740SOL     OW 8905   0.613   2.704  10.741
 2740SOL    HW1 8906   0.669   2.785  10.724
 2740SOL    HW2 8907   0.672   2.624  10.744
 2741SOL     OW 8908   1.493   3.629  10.269
 2741SOL    HW1 8909   1.526   3.693  10.200
 2741SOL    HW2 8910   1.559   3.623  10.344
 2742SOL     OW 8911   0.716   2.427  11.018
 2742SOL    HW1 8912   0.735   2.492  11.092
 2742SOL    HW2 8913   0.776   2.347  11.027
 2743SOL     OW 8914   1.450   3.082  10.943
 2743SOL    HW1 8915   1.441   3.072  11.042
 2743SOL    HW2 8916   1.546   3.075  10.917
 2744SOL     OW 8917   0.390   3.603  10.870
 2744SOL    HW1 8918   0.299   3.644  10.868
 2744SOL    HW2 8919   0.383   3.509  10.902
 2745SOL     OW 8920   1.674   2.745  10.564
 2745SOL    HW1 8921   1.647   2.656  10.527
 2745SOL    HW2 8922   1.675   2.813  10.491
 2746SOL     OW 8923   1.225   2.187   9.759
 2746SOL    HW1 8924   1.290   2.113   9.748
 2746SOL    HW2 8925   1.245   2.237   9.843
 2747SOL     OW 8926   0.594   2.607   9.962
 2747SOL    HW1 8927   0.644   2.692   9.943
 2747SOL    HW2 8928   0.506   2.609   9.914
 2748SOL     OW 8929   1.777   2.204  10.952
 2748SOL    HW1 8930   1.760   2.235  10.858
 2748SOL    HW2 8931   1.693   2.167  10.990
 2749SOL     OW 8932   1.730   2.796  10.827
 2749SOL    HW1 8933   1.768   2.887  10.842
 2749SOL    HW2 8934   1.722   2.779  10.728
 2750SOL     OW 8935   0.859   3.236   9.326
 2750SOL    HW1 8936   0.813   3.251   9.414
 2750SOL    HW2 8937   0.903   3.321   9.296
 2751SOL     OW 8938   0.661   3.652  10.263
 2751SOL    HW1 8939   0.615   3.740  10.250
 2751SOL    HW2 8940   0.760   3.664  10.256
 2752SOL     OW 8941   0.859   2.818  10.171
 2752SOL    HW1 8942   0.913   2.749  10.219
 2752SOL    HW2 8943   0.827   2.887  10.237
 2753SOL     OW 8944   1.083   2.846   9.397
 2753SOL    HW1 8945   1.060   2.899   9.315
 2753SOL    HW2 8946   1.164   2.790   9.378
 2754SOL     OW 8947   1.861   3.431  10.161
 2754SOL    HW1 8948   1.790   3.419  10.091
 2754SOL    HW2 8949   1.862   3.352  10.221
 2755SOL     OW 8950   0.221   3.176  11.154
 2755SOL    HW1 8951   0.156   3.103  11.133
 2755SOL    HW2 8952   0.225   3.190  11.252
 2756SOL     OW 8953   0.079   3.102   9.963
 2756SOL    HW1 8954   0.078   3.055  10.051
 2756SOL    HW2 8955   0.161   3.074   9.912
 2757SOL     OW 8956   0.672   3.253  10.934
 2757SOL    HW1 8957   0.594   3.203  10.972
 2757SOL    HW2 8958   0.669   3.348  10.965
 2758SOL     OW 8959   0.428   2.286   9.830
 2758SOL    HW1 8960   0.458   2.214   9.768
 2758SOL    HW2 8961   0.389   2.246   9.913
 2759SOL     OW 8962   1.705   3.349  10.414
 2759SOL    HW1 8963   1.612   3.324  10.387
 2759SOL    HW2 8964   1.731   3.299  10.496
 2760SOL     OW 8965   0.317   2.409  10.590
 2760SOL    HW1 8966   0.355   2.350  10.662
 2760SOL    HW2 8967   0.357   2.383  10.502
 2761SOL     OW 8968   0.812   3.448   9.997
 2761SOL    HW1 8969   0.844   3.458   9.903
 2761SOL    HW2 8970   0.733   3.386   9.999
 2762SOL     OW 8971   1.424   2.076  10.422
 2762SOL    HW1 8972   1.476   2.011  10.477
 2762SOL    HW2 8973   1.375   2.139  10.483
 2763SOL     OW 8974   1.001   1.896  10.464
 2763SOL    HW1 8975   0.938   1.824  10.433
 2763SOL    HW2 8976   1.094   1.860  10.464
 2764SOL     OW 8977   0.770   3.192   9.611
 2764SOL    HW1 8978   0.724   3.105   9.628
 2764SOL    HW2 8979   0.861   3.189   9.652
 2765SOL     OW 8980   0.618   3.429  10.594
 2765SOL    HW1 8981   0.613   3.511  10.651
 2765SOL    HW2 8982   0.707   3.426  10.549
 2766SOL     OW 8983   1.352   1.914   9.478
 2766SOL    HW1 8984   1.387   1.873   9.394
 2766SOL    HW2 8985   1.262   1.876   9.498
 2767SOL     OW 8986   1.300   2.315  10.001
 2767SOL    HW1 8987   1.241   2.395  10.005
 2767SOL    HW2 8988   1.315   2.280  10.094
 2768SOL     OW 8989   1.593   2.083  10.192
 2768SOL    HW1 8990   1.509   2.082  10.246
 2768SOL    HW2 8991   1.595   2.166  10.136
 2769SOL     OW 8992   0.039   2.939   9.610
 2769SOL    HW1 8993   0.138   2.928   9.601
 2769SOL    HW2 8994  -0.001   2.853   9.642
 2770SOL     OW 8995   0.875   3.508   9.647
 2770SOL    HW1 8996   0.798   3.473   9.593
 2770SOL    HW2 8997   0.843   3.579   9.709
 2771SOL     OW 8998   0.230   2.490  11.285
 2771SOL    HW1 8999   0.137   2.488  11.322
 2771SOL    HW2 9000   0.231   2.451  11.193
 2772SOL     OW 9001   0.225   2.137  12.168
 2772SOL    HW1 9002   0.260   2.120  12.260
 2772SOL    HW2 9003   0.137   2.092  12.156
 2773SOL     OW 9004   0.019   2.230  11.819
 2773SOL    HW1 9005  -0.063   2.273  11.858
 2773SOL    HW2 9006  -0.009   2.157  11.756
 2774SOL     OW 9007   0.569   3.137  12.337
 2774SOL    HW1 9008   0.476   3.130  12.300
 2774SOL    HW2 9009   0.580   3.226  12.381
 2775SOL     OW 9010   1.555   3.373  11.875
 2775SOL    HW1 9011   1.498   3.357  11.956
 2775SOL    HW2 9012   1.496   3.383  11.795
 2776SOL     OW 9013   1.135   2.565  11.889
 2776SOL    HW1 9014   1.192   2.643  11.864
 2776SOL    HW2 9015   1.075   2.591  11.965
 2777SOL     OW 9016   1.755   2.469  11.403
 2777SOL    HW1 9017   1.743   2.456  11.304
 2777SOL    HW2 9018   1.725   2.388  11.452
 2778SOL     OW 9019   0.768   3.006  12.195
 2778SOL    HW1 9020   0.690   3.023  12.255
 2778SOL    HW2 9021   0.802   3.093  12.159
 2779SOL     OW 9022   0.850   2.660  12.995
 2779SOL    HW1 9023   0.846   2.736  13.060
 2779SOL    HW2 9024   0.872   2.696  12.904
 2780SOL     OW 9025   0.685   2.874  11.837
 2780SOL    HW1 9026   0.754   2.858  11.907
 2780SOL    HW2 9027   0.612   2.931  11.875
 2781SOL     OW 9028   0.686   3.023  12.975
 2781SOL    HW1 9029   0.746   3.102  12.989
 2781SOL    HW2 9030   0.600   3.054  12.934
 2782SOL     OW 9031   0.335   3.297  12.233
 2782SOL    HW1 9032   0.257   3.266  12.180
 2782SOL    HW2 9033   0.393   3.355  12.176
 2783SOL     OW 9034   1.460   3.367  12.511
 2783SOL    HW1 9035   1.484   3.461  12.537
 2783SOL    HW2 9036   1.444   3.313  12.593
 2784SOL     OW 9037   0.438   2.254  12.671
 2784SOL    HW1 9038   0.520   2.198  12.680
 2784SOL    HW2 9039   0.357   2.196  12.675
 2785SOL     OW 9040   1.603   2.309  11.909
 2785SOL    HW1 9041   1.529   2.355  11.859
 2785SOL    HW2 9042   1.654   2.377  11.962
 2786SOL     OW 9043   0.231   3.575  11.655
 2786SOL    HW1 9044   0.265   3.652  11.709
 2786SOL    HW2 9045   0.275   3.575  11.565
 2787SOL     OW 9046   1.127   3.203  12.862
 2787SOL    HW1 9047   1.174   3.203  12.950
 2787SOL    HW2 9048   1.079   3.116  12.851
 2788SOL     OW 9049   0.230   3.296  11.710
 2788SOL    HW1 9050   0.204   3.392  11.710
 2788SOL    HW2 9051   0.159   3.242  11.755
 2789SOL     OW 9052   0.240   2.953  12.058
 2789SOL    HW1 9053   0.254   2.869  12.110
 2789SOL    HW2 9054   0.185   3.017  12.113
 2790SOL     OW 9055   0.620   3.648  12.611
 2790SOL    HW1 9056   0.528   3.631  12.646
 2790SOL    HW2 9057   0.648   3.740  12.637
 2791SOL     OW 9058   0.606   2.826  11.295
 2791SOL    HW1 9059   0.613   2.910  11.241
 2791SOL    HW2 9060   0.652   2.839  11.383
 2792SOL     OW 9061   1.594   1.976  12.652
 2792SOL    HW1 9062   1.576   2.043  12.580
 2792SOL    HW2 9063   1.591   2.022  12.741
 2793SOL     OW 9064   0.122   2.505  11.735
 2793SOL    HW1 9065   0.077   2.417  11.752
 2793SOL    HW2 9066   0.121   2.559  11.819
 2794SOL     OW 9067   1.842   3.629  11.531
 2794SOL    HW1 9068   1.896   3.600  11.611
 2794SOL    HW2 9069   1.872   3.719  11.502
 2795SOL     OW 9070   0.027   3.458  11.289
 2795SOL    HW1 9071   0.008   3.362  11.310
 2795SOL    HW2 9072  -0.006   3.516  11.364
 2796SOL     OW 9073   1.689   2.784  11.784
 2796SOL    HW1 9074   1.784   2.755  11.792
 2796SOL    HW2 9075   1.681   2.849  11.709
 2797SOL     OW 9076   1.641   2.970  11.604
 2797SOL    HW1 9077   1.727   2.972  11.552
 2797SOL    HW2 9078   1.655   3.017  11.692
 2798SOL     OW 9079   0.113   2.599  12.769
 2798SOL    HW1 9080   0.201   2.586  12.814
 2798SOL    HW2 9081   0.100   2.696  12.747
 2799SOL     OW 9082   0.613   3.227  11.898
 2799SOL    HW1 9083   0.564   3.140  11.907
 2799SOL    HW2 9084   0.590   3.270  11.811
 2800SOL     OW 9085   1.293   3.090  12.595
 2800SOL    HW1 9086   1.330   3.017  12.537
 2800SOL    HW2 9087   1.345   3.095  12.680
 2801SOL     OW 9088   0.809   1.866  11.674
 2801SOL    HW1 9089   0.849   1.957  11.665
 2801SOL    HW2 9090   0.709   1.874  11.680
 2802SOL     OW 9091   0.197   2.838  12.436
 2802SOL    HW1 9092   0.286   2.793  12.422
 2802SOL    HW2 9093   0.124   2.773  12.417
 2803SOL     OW 9094   1.525   2.861  11.362
 2803SOL    HW1 9095   1.462   2.785  11.375
 2803SOL    HW2 9096   1.573   2.879  11.448
 2804SOL     OW 9097   1.187   3.654  12.788
 2804SOL    HW1 9098   1.211   3.714  12.712
 2804SOL    HW2 9099   1.194   3.559  12.758
 2805SOL     OW 9100   0.317   2.113  12.973
 2805SOL    HW1 9101   0.388   2.184  12.979
 2805SOL    HW2 9102   0.229   2.152  13.001
 2806SOL     OW 9103   1.466   3.279  12.125
 2806SOL    HW1 9104   1.407   3.285  12.205
 2806SOL    HW2 9105   1.451   3.191  12.079
 2807SOL     OW 9106   1.667   3.576  11.744
 2807SOL    HW1 9107   1.626   3.553  11.656
 2807SOL    HW2 9108   1.649   3.502  11.809
 2808SOL     OW 9109   0.598   2.591  11.442
 2808SOL    HW1 9110   0.622   2.660  11.374
 2808SOL    HW2 9111   0.520   2.624  11.496
 2809SOL     OW 9112   1.281   2.207  12.116
 2809SOL    HW1 9113   1.195   2.157  12.103
 2809SOL    HW2 9114   1.343   2.153  12.172
 2810SOL     OW 9115   1.576   3.524  11.479
 2810SOL    HW1 9116   1.665   3.570  11.482
 2810SOL    HW2 9117   1.555   3.500  11.384
 2811SOL     OW 9118   0.807   2.467  12.637
 2811SOL    HW1 9119   0.760   2.464  12.726
 2811SOL    HW2 9120   0.756   2.412  12.571
 2812SOL     OW 9121   1.394   2.331  12.846
 2812SOL    HW1 9122   1.374   2.374  12.934
 2812SOL    HW2 9123   1.472   2.269  12.855
 2813SOL     OW 9124   0.973   2.752  12.744
 2813SOL    HW1 9125   1.019   2.668  12.715
 2813SOL    HW2 9126   0.917   2.786  12.669
 2814SOL     OW 9127   0.991   2.272  12.414
 2814SOL    HW1 9128   0.914   2.306  12.468
 2814SOL    HW2 9129   0.957   2.221  12.335
 2815SOL     OW 9130   1.041   2.563  11.601
 2815SOL    HW1 9131   1.067   2.559  11.697
 2815SOL    HW2 9132   0.956   2.512  11.587
 2816SOL     OW 9133   0.076   2.673  11.961
 2816SOL    HW1 9134   0.175   2.661  11.970
 2816SOL    HW2 9135   0.052   2.768  11.982
 2817SOL     OW 9136   0.130   3.683  12.743
 2817SOL    HW1 9137   0.120   3.668  12.842
 2817SOL    HW2 9138   0.044   3.719  12.707
 2818SOL     OW 9139   0.865   2.210  11.367
 2818SOL    HW1 9140   0.924   2.273  11.318
 2818SOL    HW2 9141   0.884   2.116  11.338
 2819SOL     OW 9142   1.719   2.447  13.003
 2819SOL    HW1 9143   1.693   2.536  12.967
 2819SOL    HW2 9144   1.717   2.379  12.930
 2820SOL     OW 9145   1.362   3.006  11.717
 2820SOL    HW1 9146   1.445   2.977  11.669
 2820SOL    HW2 9147   1.313   3.073  11.661
 2821SOL     OW 9148   0.550   2.058  12.057
 2821SOL    HW1 9149   0.545   2.053  12.157
 2821SOL    HW2 9150   0.552   2.154  12.028
 2822SOL     OW 9151   1.008   3.318  11.649
 2822SOL    HW1 9152   0.962   3.390  11.597
 2822SOL    HW2 9153   1.004   3.338  11.747
 2823SOL     OW 9154   0.351   3.663  12.025
 2823SOL    HW1 9155   0.401   3.577  12.031
 2823SOL    HW2 9156   0.416   3.740  12.022
 2824SOL     OW 9157   1.795   2.928  12.045
 2824SOL    HW1 9158   1.733   2.913  11.969
 2824SOL    HW2 9159   1.743   2.939  12.130
 2825SOL     OW 9160   1.227   3.412  12.678
 2825SOL    HW1 9161   1.233   3.335  12.742
 2825SOL    HW2 9162   1.175   3.386  12.598
 2826SOL     OW 9163   0.321   2.805  11.414
 2826SOL    HW1 9164   0.403   2.844  11.372
 2826SOL    HW2 9165   0.294   2.723  11.365
 2827SOL     OW 9166   1.458   2.597  11.900
 2827SOL    HW1 9167   1.453   2.532  11.975
 2827SOL    HW2 9168   1.538   2.656  11.913
 2828SOL     OW 9169   0.461   3.128  12.899
 2828SOL    HW1 9170   0.411   3.129  12.813
 2828SOL    HW2 9171   0.398   3.110  12.975
 2829SOL     OW 9172   1.111   3.638  11.409
 2829SOL    HW1 9173   1.051   3.576  11.459
 2829SOL    HW2 9174   1.142   3.594  11.324
 2830SOL     OW 9175   0.202   2.147  12.670
 2830SOL    HW1 9176   0.122   2.207  12.657
 2830SOL    HW2 9177   0.192   2.098  12.756
 2831SOL     OW 9178   1.632   3.239  11.253
 2831SOL    HW1 9179   1.600   3.333  11.243
 2831SOL    HW2 9180   1.556   3.176  11.241
 2832SOL     OW 9181   0.464   3.605  11.495
 2832SOL    HW1 9182   0.497   3.644  11.581
 2832SOL    HW2 9183   0.540   3.598  11.430
 2833SOL     OW 9184   1.400   1.969  11.598
 2833SOL    HW1 9185   1.376   1.932  11.508
 2833SOL    HW2 9186   1.499   1.985  11.602
 2834SOL     OW 9187   0.249   3.647  12.413
 2834SOL    HW1 9188   0.306   3.582  12.463
 2834SOL    HW2 9189   0.233   3.614  12.320
 2835SOL     OW 9190   0.940   3.560  12.076
 2835SOL    HW1 9191   1.020   3.503  12.097
 2835SOL    HW2 9192   0.891   3.520  11.999
 2836SOL     OW 9193   0.382   2.562  11.652
 2836SOL    HW1 9194   0.427   2.472  11.649
 2836SOL    HW2 9195   0.288   2.551  11.685
 2837SOL     OW 9196   1.547   2.084  12.901
 2837SOL    HW1 9197   1.542   2.121  12.993
 2837SOL    HW2 9198   1.475   2.015  12.889
 2838SOL     OW 9199   0.614   1.984  11.289
 2838SOL    HW1 9200   0.712   1.962  11.296
 2838SOL    HW2 9201   0.583   1.967  11.196
 2839SOL     OW 9202   0.781   2.126  12.921
 2839SOL    HW1 9203   0.848   2.065  12.964
 2839SOL    HW2 9204   0.708   2.145  12.986
 2840SOL     OW 9205   0.888   3.376  12.367
 2840SOL    HW1 9206   0.865   3.351  12.273
 2840SOL    HW2 9207   0.949   3.307  12.406
 2841SOL     OW 9208   1.351   2.452  12.605
 2841SOL    HW1 9209   1.379   2.409  12.690
 2841SOL    HW2 9210   1.376   2.548  12.606
 2842SOL     OW 9211   0.803   3.264  12.096
 2842SOL    HW1 9212   0.893   3.278  12.054
 2842SOL    HW2 9213   0.732   3.266  12.025
 2843SOL     OW 9214   0.922   2.365  12.071
 2843SOL    HW1 9215   0.897   2.356  11.975
 2843SOL    HW2 9216   0.970   2.283  12.102
 2844SOL     OW 9217   0.539   1.926  11.684
 2844SOL    HW1 9218   0.458   1.927  11.742
 2844SOL    HW2 9219   0.542   2.009  11.629
 2845SOL     OW 9220   1.434   3.050  11.213
 2845SOL    HW1 9221   1.466   2.974  11.270
 2845SOL    HW2 9222   1.342   3.077  11.243
 2846SOL     OW 9223   0.297   1.897  11.343
 2846SOL    HW1 9224   0.346   1.981  11.322
 2846SOL    HW2 9225   0.359   1.832  11.388
 2847SOL     OW 9226   0.935   2.098  11.652
 2847SOL    HW1 9227   0.887   2.139  11.574
 2847SOL    HW2 9228   1.034   2.096  11.633
 2848SOL     OW 9229   1.076   2.545  12.636
 2848SOL    HW1 9230   0.996   2.484  12.639
 2848SOL    HW2 9231   1.157   2.492  12.612
 2849SOL     OW 9232   1.227   3.432  11.965
 2849SOL    HW1 9233   1.248   3.506  11.900
 2849SOL    HW2 9234   1.295   3.432  12.038
 2850SOL     OW 9235   0.459   3.014  11.913
 2850SOL    HW1 9236   0.388   2.987  11.978
 2850SOL    HW2 9237   0.433   2.986  11.820
 2851SOL     OW 9238   1.271   3.659  11.763
 2851SOL    HW1 9239   1.315   3.723  11.699
 2851SOL    HW2 9240   1.221   3.711  11.833
 2852SOL     OW 9241   1.032   2.411  11.188
 2852SOL    HW1 9242   0.991   2.493  11.149
 2852SOL    HW2 9243   1.096   2.437  11.261
 2853SOL     OW 9244   0.078   2.418  12.558
 2853SOL    HW1 9245   0.170   2.417  12.517
 2853SOL    HW2 9246   0.072   2.492  12.625
 2854SOL     OW 9247   0.561   2.084  12.319
 2854SOL    HW1 9248   0.599   2.000  12.356
 2854SOL    HW2 9249   0.473   2.103  12.363
 2855SOL     OW 9250   0.866   2.316  11.814
 2855SOL    HW1 9251   0.834   2.388  11.752
 2855SOL    HW2 9252   0.890   2.235  11.761
 2856SOL     OW 9253   1.017   1.901  11.925
 2856SOL    HW1 9254   0.945   1.906  11.856
 2856SOL    HW2 9255   0.993   1.832  11.994
 2857SOL     OW 9256   1.429   3.035  12.039
 2857SOL    HW1 9257   1.374   2.951  12.032
 2857SOL    HW2 9258   1.455   3.064  11.947
 2858SOL     OW 9259   1.466   2.452  12.164
 2858SOL    HW1 9260   1.436   2.357  12.171
 2858SOL    HW2 9261   1.539   2.468  12.230
 2859SOL     OW 9262   1.857   2.695  11.549
 2859SOL    HW1 9263   1.899   2.631  11.613
 2859SOL    HW2 9264   1.819   2.644  11.471
 2860SOL     OW 9265   0.488   3.247  11.346
 2860SOL    HW1 9266   0.401   3.232  11.393
 2860SOL    HW2 9267   0.471   3.273  11.251
 2861SOL     OW 9268   1.664   3.142  11.829
 2861SOL    HW1 9269   1.763   3.150  11.843
 2861SOL    HW2 9270   1.619   3.226  11.860
 2862SOL     OW 9271   1.390   2.437  11.250
 2862SOL    HW1 9272   1.336   2.416  11.331
 2862SOL    HW2 9273   1.481   2.396  11.259
 2863SOL     OW 9274   0.527   2.118  11.500
 2863SOL    HW1 9275   0.554   2.059  11.425
 2863SOL    HW2 9276   0.527   2.213  11.469
 2864SOL     OW 9277   1.754   3.085  12.760
 2864SOL    HW1 9278   1.845   3.046  12.747
 2864SOL    HW2 9279   1.762   3.181  12.784
 2865SOL     OW 9280   1.064   3.209  12.512
 2865SOL    HW1 9281   0.984   3.186  12.567
 2865SOL    HW2 9282   1.147   3.183  12.561
 2866SOL     OW 9283   1.592   3.491  12.797
 2866SOL    HW1 9284   1.619   3.525  12.707
 2866SOL    HW2 9285   1.671   3.453  12.843
 2867SOL     OW 9286   1.111   3.057  12.272
 2867SOL    HW1 9287   1.071   3.101  12.353
 2867SOL    HW2 9288   1.070   3.094  12.189
 2868SOL     OW 9289   1.638   2.961  12.251
 2868SOL    HW1 9290   1.643   3.042  12.310
 2868SOL    HW2 9291   1.552   2.963  12.200
 2869SOL     OW 9292   0.915   1.951  12.574
 2869SOL    HW1 9293   0.940   1.931  12.479
 2869SOL    HW2 9294   0.987   2.007  12.616
 2870SOL     OW 9295   0.980   2.978  12.891
 2870SOL    HW1 9296   0.881   2.984  12.901
 2870SOL    HW2 9297   1.003   2.898  12.835
 2871SOL     OW 9298   0.705   2.912  11.540
 2871SOL    HW1 9299   0.691   2.919  11.639
 2871SOL    HW2 9300   0.789   2.861  11.522
 2872SOL     OW 9301   0.410   2.675  12.423
 2872SOL    HW1 9302   0.496   2.687  12.473
 2872SOL    HW2 9303   0.368   2.588  12.450
 2873SOL     OW 9304   1.274   2.248  12.434
 2873SOL    HW1 9305   1.295   2.322  12.498
 2873SOL    HW2 9306   1.185   2.265  12.391
 2874SOL     OW 9307   0.064   3.426  12.503
 2874SOL    HW1 9308   0.018   3.508  12.469
 2874SOL    HW2 9309   0.162   3.445  12.512
 2875SOL     OW 9310   0.367   2.962  11.673
 2875SOL    HW1 9311   0.360   3.045  11.617
 2875SOL    HW2 9312   0.371   2.882  11.613
 2876SOL     OW 9313   0.566   2.399  12.037
 2876SOL    HW1 9314   0.578   2.465  11.963
 2876SOL    HW2 9315   0.612   2.433  12.120
 2877SOL     OW 9316   1.252   3.210  11.560
 2877SOL    HW1 9317   1.302   3.287  11.600
 2877SOL    HW2 9318   1.157   3.212  11.592
 2878SOL     OW 9319   1.272   3.307  12.314
 2878SOL    HW1 9320   1.319   3.320  12.401
 2878SOL    HW2 9321   1.206   3.233  12.323
 2879SOL     OW 9322   1.582   2.501  11.644
 2879SOL    HW1 9323   1.551   2.562  11.717
 2879SOL    HW2 9324   1.632   2.553  11.575
 2880SOL     OW 9325   0.354   3.372  12.501
 2880SOL    HW1 9326   0.333   3.328  12.414
 2880SOL    HW2 9327   0.451   3.398  12.504
 2881SOL     OW 9328   0.402   2.613  12.770
 2881SOL    HW1 9329   0.470   2.668  12.723
 2881SOL    HW2 9330   0.442   2.525  12.797
 2882SOL     OW 9331   1.587   2.641  12.842
 2882SOL    HW1 9332   1.495   2.679  12.837
 2882SOL    HW2 9333   1.647   2.688  12.777
 2883SOL     OW 9334   1.013   1.967  12.942
 2883SOL    HW1 9335   1.019   2.052  12.890
 2883SOL    HW2 9336   1.045   1.891  12.885
 2884SOL     OW 9337   0.504   1.912  12.912
 2884SOL    HW1 9338   0.462   1.855  12.842
 2884SOL    HW2 9339   0.438   1.981  12.944
 2885SOL     OW 9340   0.573   2.732  12.201
 2885SOL    HW1 9341   0.617   2.821  12.192
 2885SOL    HW2 9342   0.510   2.732  12.278
 2886SOL     OW 9343   1.360   2.724  12.217
 2886SOL    HW1 9344   1.285   2.724  12.151
 2886SOL    HW2 9345   1.397   2.632  12.226
 2887SOL     OW 9346   1.209   2.387  11.447
 2887SOL    HW1 9347   1.222   2.303  11.501
 2887SOL    HW2 9348   1.180   2.461  11.507
 2888SOL     OW 9349   0.307   2.075  12.403
 2888SOL    HW1 9350   0.284   2.112  12.493
 2888SOL    HW2 9351   0.277   1.980  12.397
 2889SOL     OW 9352   0.037   3.172  12.454
 2889SOL    HW1 9353   0.090   3.123  12.522
 2889SOL    HW2 9354   0.059   3.270  12.459
 2890SOL     OW 9355   0.732   2.496  12.236
 2890SOL    HW1 9356   0.791   2.470  12.160
 2890SOL    HW2 9357   0.704   2.592  12.225
 2891SOL     OW 9358   1.728   2.797  13.026
 2891SOL    HW1 9359   1.682   2.790  12.937
 2891SOL    HW2 9360   1.666   2.841  13.092
 2892SOL     OW 9361   0.307   1.925  11.790
 2892SOL    HW1 9362   0.296   2.019  11.823
 2892SOL    HW2 9363   0.302   1.862  11.867
 2893SOL     OW 9364   1.622   2.229  11.546
 2893SOL    HW1 9365   1.624   2.153  11.610
 2893SOL    HW2 9366   1.574   2.306  11.586
 2894SOL     OW 9367   1.023   2.628  12.138
 2894SOL    HW1 9368   1.038   2.649  12.234
 2894SOL    HW2 9369   0.993   2.533  12.129
 2895SOL     OW 9370   0.980   3.435  12.872
 2895SOL    HW1 9371   0.960   3.479  12.784
 2895SOL    HW2 9372   1.019   3.344  12.856
 2896SOL     OW 9373   1.859   3.380  12.777
 2896SOL    HW1 9374   1.873   3.407  12.682
 2896SOL    HW2 9375   1.942   3.402  12.830
 2897SOL     OW 9376   0.350   2.760  12.976
 2897SOL    HW1 9377   0.426   2.804  13.024
 2897SOL    HW2 9378   0.385   2.713  12.894
 2898SOL     OW 9379   1.540   2.136  11.297
 2898SOL    HW1 9380   1.479   2.061  11.320
 2898SOL    HW2 9381   1.562   2.188  11.380
 2899SOL     OW 9382   1.303   2.700  11.214
 2899SOL    HW1 9383   1.337   2.607  11.229
 2899SOL    HW2 9384   1.321   2.727  11.119
 2900SOL     OW 9385   1.068   3.195  12.021
 2900SOL    HW1 9386   1.075   3.111  11.966
 2900SOL    HW2 9387   1.130   3.264  11.985
 2901SOL     OW 9388   0.319   2.672  12.121
 2901SOL    HW1 9389   0.412   2.708  12.126
 2901SOL    HW2 9390   0.313   2.587  12.173
 2902SOL     OW 9391   0.339   2.371  12.178
 2902SOL    HW1 9392   0.287   2.288  12.161
 2902SOL    HW2 9393   0.416   2.376  12.114
 2903SOL     OW 9394   1.138   2.242  12.850
 2903SOL    HW1 9395   1.093   2.305  12.914
 2903SOL    HW2 9396   1.231   2.273  12.833
 2904SOL     OW 9397   1.160   2.069  12.649
 2904SOL    HW1 9398   1.160   2.133  12.726
 2904SOL    HW2 9399   1.188   2.117  12.566
 2905SOL     OW 9400   0.008   3.188  11.372
 2905SOL    HW1 9401  -0.085   3.209  11.341
 2905SOL    HW2 9402   0.018   3.089  11.385
 2906SOL     OW 9403   0.088   3.663  12.099
 2906SOL    HW1 9404   0.046   3.577  12.072
 2906SOL    HW2 9405   0.182   3.666  12.065
 2907SOL     OW 9406   0.504   3.430  12.082
 2907SOL    HW1 9407   0.570   3.504  12.091
 2907SOL    HW2 9408   0.548   3.351  12.040
 2908SOL     OW 9409   1.002   2.658  12.410
 2908SOL    HW1 9410   1.043   2.626  12.496
 2908SOL    HW2 9411   0.906   2.631  12.407
 2909SOL     OW 9412   0.040   2.406  12.286
 2909SOL    HW1 9413   0.125   2.373  12.245
 2909SOL    HW2 9414   0.053   2.421  12.384
 2910SOL     OW 9415   0.189   2.382  12.894
 2910SOL    HW1 9416   0.248   2.342  12.824
 2910SOL    HW2 9417   0.131   2.453  12.853
 2911SOL     OW 9418   1.369   2.812  12.832
 2911SOL    HW1 9419   1.408   2.901  12.852
 2911SOL    HW2 9420   1.379   2.792  12.735
 2912SOL     OW 9421   0.815   2.434  11.497
 2912SOL    HW1 9422   0.822   2.345  11.451
 2912SOL    HW2 9423   0.721   2.468  11.489
 2913SOL     OW 9424   1.657   2.466  12.378
 2913SOL    HW1 9425   1.619   2.397  12.440
 2913SOL    HW2 9426   1.739   2.430  12.334
 2914SOL     OW 9427   0.252   3.426  12.916
 2914SOL    HW1 9428   0.222   3.483  12.992
 2914SOL    HW2 9429   0.245   3.329  12.942
 2915SOL     OW 9430   0.671   2.326  12.441
 2915SOL    HW1 9431   0.637   2.237  12.411
 2915SOL    HW2 9432   0.697   2.380  12.361
 2916SOL     OW 9433   0.930   3.540  12.637
 2916SOL    HW1 9434   0.906   3.522  12.542
 2916SOL    HW2 9435   0.960   3.634  12.647
 2917SOL     OW 9436   0.473   2.362  11.363
 2917SOL    HW1 9437   0.534   2.442  11.367
 2917SOL    HW2 9438   0.378   2.393  11.370
 2918SOL     OW 9439   0.159   2.999  12.638
 2918SOL    HW1 9440   0.181   2.938  12.714
 2918SOL    HW2 9441   0.169   2.950  12.552
 2919SOL     OW 9442   1.347   2.921  12.406
 2919SOL    HW1 9443   1.371   2.858  12.332
 2919SOL    HW2 9444   1.257   2.961  12.388
 2920SOL     OW 9445   1.302   2.717  11.481
 2920SOL    HW1 9446   1.216   2.686  11.523
 2920SOL    HW2 9447   1.298   2.703  11.382
 2921SOL     OW 9448   1.759   3.609  12.326
 2921SOL    HW1 9449   1.820   3.639  12.253
 2921SOL    HW2 9450   1.721   3.520  12.304
 2922SOL     OW 9451   1.252   3.593  12.300
 2922SOL    HW1 9452   1.336   3.598  12.246
 2922SOL    HW2 9453   1.229   3.497  12.318
 2923SOL     OW 9454   0.083   3.120  12.194
 2923SOL    HW1 9455   0.078   3.119  12.294
 2923SOL    HW2 9456   0.000   3.079  12.156
 2924SOL     OW 9457   0.688   3.524  12.888
 2924SOL    HW1 9458   0.632   3.605  12.897
 2924SOL    HW2 9459   0.740   3.528  12.802
 2925SOL     OW 9460   1.388   3.435  11.649
 2925SOL    HW1 9461   1.455   3.447  11.575
 2925SOL    HW2 9462   1.348   3.524  11.672
 2926SOL     OW 9463   0.130   3.656  13.023
 2926SOL    HW1 9464   0.089   3.582  13.076
 2926SOL    HW2 9465   0.194   3.707  13.081
 2927SOL     OW 9466   1.280   2.789  11.844
 2927SOL    HW1 9467   1.340   2.708  11.846
 2927SOL    HW2 9468   1.320   2.858  11.784
 2928SOL     OW 9469   0.830   3.135  12.594
 2928SOL    HW1 9470   0.825   3.168  12.689
 2928SOL    HW2 9471   0.744   3.154  12.548
 2929SOL     OW 9472   0.672   3.478  11.326
 2929SOL    HW1 9473   0.681   3.488  11.227
 2929SOL    HW2 9474   0.632   3.389  11.347
 2930SOL     OW 9475   1.650   3.582  12.566
 2930SOL    HW1 9476   1.703   3.592  12.482
 2930SOL    HW2 9477   1.623   3.672  12.600
 2931SOL     OW 9478   0.263   2.188  11.892
 2931SOL    HW1 9479   0.184   2.239  11.858
 2931SOL    HW2 9480   0.254   2.173  11.990
 2932SOL     OW 9481   1.194   3.474  11.203
 2932SOL    HW1 9482   1.200   3.381  11.240
 2932SOL    HW2 9483   1.135   3.474  11.123
 2933SOL     OW 9484   0.822   2.864  12.544
 2933SOL    HW1 9485   0.862   2.863  12.452
 2933SOL    HW2 9486   0.832   2.956  12.584
 2934SOL     OW 9487   0.916   2.772  11.463
 2934SOL    HW1 9488   0.979   2.810  11.395
 2934SOL    HW2 9489   0.956   2.689  11.502
 2935SOL     OW 9490   1.504   3.469  11.216
 2935SOL    HW1 9491   1.412   3.506  11.223
 2935SOL    HW2 9492   1.542   3.489  11.126
 2936SOL     OW 9493   0.372   3.150  12.662
 2936SOL    HW1 9494   0.359   3.243  12.628
 2936SOL    HW2 9495   0.288   3.098  12.649
 2937SOL     OW 9496   1.614   3.154  12.461
 2937SOL    HW1 9497   1.674   3.157  12.541
 2937SOL    HW2 9498   1.539   3.218  12.474
 2938SOL     OW 9499   1.039   2.960  11.868
 2938SOL    HW1 9500   0.969   2.913  11.922
 2938SOL    HW2 9501   1.098   2.892  11.825
 2939SOL     OW 9502   1.014   2.098  12.143
 2939SOL    HW1 9503   1.006   2.062  12.050
 2939SOL    HW2 9504   1.012   2.022  12.208
 2940SOL     OW 9505   0.590   3.349  11.663
 2940SOL    HW1 9506   0.632   3.291  11.593
 2940SOL    HW2 9507   0.546   3.428  11.619
 2941SOL     OW 9508   1.709   2.247  12.553
 2941SOL    HW1 9509   1.782   2.316  12.557
 2941SOL    HW2 9510   1.737   2.172  12.494
 2942SOL     OW 9511   0.255   3.210  11.462
 2942SOL    HW1 9512   0.159   3.211  11.435
 2942SOL    HW2 9513   0.267   3.263  11.546
 2943SOL     OW 9514   0.105   2.875  12.898
 2943SOL    HW1 9515   0.028   2.842  12.952
 2943SOL    HW2 9516   0.190   2.845  12.940
 2944SOL     OW 9517   0.672   2.065  12.661
 2944SOL    HW1 9518   0.762   2.049  12.621
 2944SOL    HW2 9519   0.680   2.070  12.760
 2945SOL     OW 9520   0.075   2.207  11.205
 2945SOL    HW1 9521  -0.017   2.179  11.176
 2945SOL    HW2 9522   0.106   2.284  11.149
 2946SOL     OW 9523   1.440   2.718  12.570
 2946SOL    HW1 9524   1.383   2.770  12.507
 2946SOL    HW2 9525   1.536   2.730  12.546
 2947SOL     OW 9526   0.072   2.028  11.490
 2947SOL    HW1 9527   0.055   2.111  11.436
 2947SOL    HW2 9528   0.162   1.991  11.468
 2948SOL     OW 9529   1.183   3.197  11.291
 2948SOL    HW1 9530   1.084   3.186  11.293
 2948SOL    HW2 9531   1.217   3.212  11.384
 2949SOL     OW 9532   0.613   2.704  12.603
 2949SOL    HW1 9533   0.669   2.785  12.586
 2949SOL    HW2 9534   0.672   2.624  12.606
 2950SOL     OW 9535   1.493   3.629  12.131
 2950SOL    HW1 9536   1.526   3.693  12.062
 2950SOL    HW2 9537   1.559   3.623  12.206
 2951SOL     OW 9538   0.716   2.427  12.880
 2951SOL    HW1 9539   0.735   2.492  12.954
 2951SOL    HW2 9540   0.776   2.347  12.889
 2952SOL     OW 9541   1.450   3.082  12.805
 2952SOL    HW1 9542   1.441   3.072  12.904
 2952SOL    HW2 9543   1.546   3.075  12.779
 2953SOL     OW 9544   0.390   3.603  12.732
 2953SOL    HW1 9545   0.299   3.644  12.730
 2953SOL    HW2 9546   0.383   3.509  12.764
 2954SOL     OW 9547   1.674   2.745  12.426
 2954SOL    HW1 9548   1.647   2.656  12.389
 2954SOL    HW2 9549   1.675   2.813  12.353
 2955SOL     OW 9550   1.225   2.187  11.621
 2955SOL    HW1 9551   1.290   2.113  11.610
 2955SOL    HW2 9552   1.245   2.237  11.705
 2956SOL     OW 9553   0.594   2.607  11.824
 2956SOL    HW1 9554   0.644   2.692  11.805
 2956SOL    HW2 9555   0.506   2.609  11.776
 2957SOL     OW 9556   1.777   2.204  12.814
 2957SOL    HW1 9557   1.760   2.235  12.720
 2957SOL    HW2 9558   1.693   2.167  12.852
 2958SOL     OW 9559   1.730   2.796  12.689
 2958SOL    HW1 9560   1.768   2.887  12.704
 2958SOL    HW2 9561   1.722   2.779  12.590
 2959SOL     OW 9562   0.859   3.236  11.188
 2959SOL    HW1 9563   0.813   3.251  11.276
 2959SOL    HW2 9564   0.903   3.321  11.158
 2960SOL     OW 9565   0.661   3.652  12.125
 2960SOL    HW1 9566   0.615   3.740  12.112
 2960SOL    HW2 9567   0.760   3.664  12.118
 2961SOL     OW 9568   0.859   2.818  12.033
 2961SOL    HW1 9569   0.913   2.749  12.081
 2961SOL    HW2 9570   0.827   2.887  12.099
 2962SOL     OW 9571   1.083   2.846  11.259
 2962SOL    HW1 9572   1.060   2.899  11.177
 2962SOL    HW2 9573   1.164   2.790  11.240
 2963SOL     OW 9574   1.861   3.431  12.023
 2963SOL    HW1 9575   1.790   3.419  11.953
 2963SOL    HW2 9576   1.862   3.352  12.083
 2964SOL     OW 9577   0.221   3.176  13.016
 2964SOL    HW1 9578   0.156   3.103  12.995
 2964SOL    HW2 9579   0.225   3.190  13.114
 2965SOL     OW 9580   0.079   3.102  11.825
 2965SOL    HW1 9581   0.078   3.055  11.913
 2965SOL    HW2 9582   0.161   3.074  11.774
 2966SOL     OW 9583   0.672   3.253  12.796
 2966SOL    HW1 9584   0.594   3.203  12.834
 2966SOL    HW2 9585   0.669   3.348  12.827
 2967SOL     OW 9586   0.428   2.286  11.692
 2967SOL    HW1 9587   0.458   2.214  11.630
 2967SOL    HW2 9588   0.389   2.246  11.775
 2968SOL     OW 9589   1.705   3.349  12.276
 2968SOL    HW1 9590   1.612   3.324  12.249
 2968SOL    HW2 9591   1.731   3.299  12.358
 2969SOL     OW 9592   0.317   2.409  12.452
 2969SOL    HW1 9593   0.355   2.350  12.524
 2969SOL    HW2 9594   0.357   2.383  12.364
 2970SOL     OW 9595   0.812   3.448  11.859
 2970SOL    HW1 9596   0.844   3.458  11.765
 2970SOL    HW2 9597   0.733   3.386  11.861
 2971SOL     OW 9598   1.424   2.076  12.284
 2971SOL    HW1 9599   1.476   2.011  12.339
 2971SOL    HW2 9600   1.375   2.139  12.345
 2972SOL     OW 9601   1.001   1.896  12.326
 2972SOL    HW1 9602   0.938   1.824  12.295
 2972SOL    HW2 9603   1.094   1.860  12.326
 2973SOL     OW 9604   0.770   3.192  11.473
 2973SOL    HW1 9605   0.724   3.105  11.490
 2973SOL    HW2 9606   0.861   3.189  11.514
 2974SOL     OW 9607   0.618   3.429  12.456
 2974SOL    HW1 9608   0.613   3.511  12.513
 2974SOL    HW2 9609   0.707   3.426  12.411
 2975SOL     OW 9610   1.352   1.914  11.340
 2975SOL    HW1 9611   1.387   1.873  11.256
 2975SOL    HW2 9612   1.262   1.876  11.360
 2976SOL     OW 9613   1.300   2.315  11.863
 2976SOL    HW1 9614   1.241   2.395  11.867
 2976SOL    HW2 9615   1.315   2.280  11.956
 2977SOL     OW 9616   1.593   2.083  12.054
 2977SOL    HW1 9617   1.509   2.082  12.108
 2977SOL    HW2 9618   1.595   2.166  11.998
 2978SOL     OW 9619   0.039   2.939  11.472
 2978SOL    HW1 9620   0.138   2.928  11.463
 2978SOL    HW2 9621  -0.001   2.853  11.504
 2979SOL     OW 9622   0.875   3.508  11.509
 2979SOL    HW1 9623   0.798   3.473  11.455
 2979SOL    HW2 9624   0.843   3.579  11.571
 2980SOL     OW 9625   0.230   2.490  13.147
 2980SOL    HW1 9626   0.137   2.488  13.184
 2980SOL    HW2 9627   0.231   2.451  13.055
 2981SOL     OW 9628   0.225   2.137  14.030
 2981SOL    HW1 9629   0.260   2.120  14.122
 2981SOL    HW2 9630   0.137   2.092  14.018
 2982SOL     OW 9631   0.019   2.230  13.681
 2982SOL    HW1 9632  -0.063   2.273  13.720
 2982SOL    HW2 9633  -0.009   2.157  13.618
 2983SOL     OW 9634   1.555   3.373  13.737
 2983SOL    HW1 9635   1.498   3.357  13.818
 2983SOL    HW2 9636   1.496   3.383  13.657
 2984SOL     OW 9637   1.135   2.565  13.751
 2984SOL    HW1 9638   1.192   2.643  13.726
 2984SOL    HW2 9639   1.075   2.591  13.827
 2985SOL     OW 9640   1.755   2.469  13.265
 2985SOL    HW1 9641   1.743   2.456  13.166
 2985SOL    HW2 9642   1.725   2.388  13.314
 2986SOL     OW 9643   0.685   2.874  13.699
 2986SOL    HW1 9644   0.754   2.858  13.769
 2986SOL    HW2 9645   0.612   2.931  13.737
 2987SOL     OW 9646   1.603   2.309  13.771
 2987SOL    HW1 9647   1.529   2.355  13.721
 2987SOL    HW2 9648   1.654   2.377  13.824
 2988SOL     OW 9649   0.231   3.575  13.517
 2988SOL    HW1 9650   0.265   3.652  13.571
 2988SOL    HW2 9651   0.275   3.575  13.427
 2989SOL     OW 9652   0.230   3.296  13.572
 2989SOL    HW1 9653   0.204   3.392  13.572
 2989SOL    HW2 9654   0.159   3.242  13.617
 2990SOL     OW 9655   0.240   2.953  13.920
 2990SOL    HW1 9656   0.254   2.869  13.972
 2990SOL    HW2 9657   0.185   3.017  13.975
 2991SOL     OW 9658   0.606   2.826  13.157
 2991SOL    HW1 9659   0.613   2.910  13.103
 2991SOL    HW2 9660   0.652   2.839  13.245
 2992SOL     OW 9661   0.122   2.505  13.597
 2992SOL    HW1 9662   0.077   2.417  13.614
 2992SOL    HW2 9663   0.121   2.559  13.681
 2993SOL     OW 9664   1.842   3.629  13.393
 2993SOL    HW1 9665   1.896   3.600  13.473
 2993SOL    HW2 9666   1.872   3.719  13.364
 2994SOL     OW 9667   0.027   3.458  13.151
 2994SOL    HW1 9668   0.008   3.362  13.172
 2994SOL    HW2 9669  -0.006   3.516  13.226
 2995SOL     OW 9670   1.689   2.784  13.646
 2995SOL    HW1 9671   1.784   2.755  13.654
 2995SOL    HW2 9672   1.681   2.849  13.571
 2996SOL     OW 9673   1.641   2.970  13.466
 2996SOL    HW1 9674   1.727   2.972  13.414
 2996SOL    HW2 9675   1.655   3.017  13.554
 2997SOL     OW 9676   0.613   3.227  13.760
 2997SOL    HW1 9677   0.564   3.140  13.769
 2997SOL    HW2 9678   0.590   3.270  13.673
 2998SOL     OW 9679   0.809   1.866  13.536
 2998SOL    HW1 9680   0.849   1.957  13.527
 2998SOL    HW2 9681   0.709   1.874  13.542
 2999SOL     OW 9682   1.525   2.861  13.224
 2999SOL    HW1 9683   1.462   2.785  13.237
 2999SOL    HW2 9684   1.573   2.879  13.310
 3000SOL     OW 9685   1.667   3.576  13.606
 3000SOL    HW1 9686   1.626   3.553  13.518
 3000SOL    HW2 9687   1.649   3.502  13.671
 3001SOL     OW 9688   0.598   2.591  13.304
 3001SOL    HW1 9689   0.622   2.660  13.236
 3001SOL    HW2 9690   0.520   2.624  13.358
 3002SOL     OW 9691   1.281   2.207  13.978
 3002SOL    HW1 9692   1.195   2.157  13.965
 3002SOL    HW2 9693   1.343   2.153  14.034
 3003SOL     OW 9694   1.576   3.524  13.341
 3003SOL    HW1 9695   1.665   3.570  13.344
 3003SOL    HW2 9696   1.555   3.500  13.246
 3004SOL     OW 9697   1.041   2.563  13.463
 3004SOL    HW1 9698   1.067   2.559  13.559
 3004SOL    HW2 9699   0.956   2.512  13.449
 3005SOL     OW 9700   0.076   2.673  13.823
 3005SOL    HW1 9701   0.175   2.661  13.832
 3005SOL    HW2 9702   0.052   2.768  13.844
 3006SOL     OW 9703   0.865   2.210  13.229
 3006SOL    HW1 9704   0.924   2.273  13.180
 3006SOL    HW2 9705   0.884   2.116  13.200
 3007SOL     OW 9706   1.362   3.006  13.579
 3007SOL    HW1 9707   1.445   2.977  13.531
 3007SOL    HW2 9708   1.313   3.073  13.523
 3008SOL     OW 9709   1.008   3.318  13.511
 3008SOL    HW1 9710   0.962   3.390  13.459
 3008SOL    HW2 9711   1.004   3.338  13.609
 3009SOL     OW 9712   0.351   3.663  13.887
 3009SOL    HW1 9713   0.401   3.577  13.893
 3009SOL    HW2 9714   0.416   3.740  13.884
 3010SOL     OW 9715   1.795   2.928  13.907
 3010SOL    HW1 9716   1.733   2.913  13.831
 3010SOL    HW2 9717   1.743   2.939  13.992
 3011SOL     OW 9718   0.321   2.805  13.276
 3011SOL    HW1 9719   0.403   2.844  13.234
 3011SOL    HW2 9720   0.294   2.723  13.227
 3012SOL     OW 9721   1.458   2.597  13.762
 3012SOL    HW1 9722   1.453   2.532  13.837
 3012SOL    HW2 9723   1.538   2.656  13.775
 3013SOL     OW 9724   1.111   3.638  13.271
 3013SOL    HW1 9725   1.051   3.576  13.321
 3013SOL    HW2 9726   1.142   3.594  13.186
 3014SOL     OW 9727   1.632   3.239  13.115
 3014SOL    HW1 9728   1.600   3.333  13.105
 3014SOL    HW2 9729   1.556   3.176  13.103
 3015SOL     OW 9730   0.464   3.605  13.357
 3015SOL    HW1 9731   0.497   3.644  13.443
 3015SOL    HW2 9732   0.540   3.598  13.292
 3016SOL     OW 9733   1.400   1.969  13.460
 3016SOL    HW1 9734   1.376   1.932  13.370
 3016SOL    HW2 9735   1.499   1.985  13.464
 3017SOL     OW 9736   0.940   3.560  13.938
 3017SOL    HW1 9737   1.020   3.503  13.959
 3017SOL    HW2 9738   0.891   3.520  13.861
 3018SOL     OW 9739   0.382   2.562  13.514
 3018SOL    HW1 9740   0.427   2.472  13.511
 3018SOL    HW2 9741   0.288   2.551  13.547
 3019SOL     OW 9742   0.614   1.984  13.151
 3019SOL    HW1 9743   0.712   1.962  13.158
 3019SOL    HW2 9744   0.583   1.967  13.058
 3020SOL     OW 9745   0.539   1.926  13.546
 3020SOL    HW1 9746   0.458   1.927  13.604
 3020SOL    HW2 9747   0.542   2.009  13.491
 3021SOL     OW 9748   1.434   3.050  13.075
 3021SOL    HW1 9749   1.466   2.974  13.132
 3021SOL    HW2 9750   1.342   3.077  13.105
 3022SOL     OW 9751   0.297   1.897  13.205
 3022SOL    HW1 9752   0.346   1.981  13.184
 3022SOL    HW2 9753   0.359   1.832  13.250
 3023SOL     OW 9754   0.935   2.098  13.514
 3023SOL    HW1 9755   0.887   2.139  13.436
 3023SOL    HW2 9756   1.034   2.096  13.495
 3024SOL     OW 9757   0.459   3.014  13.775
 3024SOL    HW1 9758   0.388   2.987  13.840
 3024SOL    HW2 9759   0.433   2.986  13.682
 3025SOL     OW 9760   1.271   3.659  13.625
 3025SOL    HW1 9761   1.315   3.723  13.561
 3025SOL    HW2 9762   1.221   3.711  13.695
 3026SOL     OW 9763   1.032   2.411  13.050
 3026SOL    HW1 9764   0.991   2.493  13.011
 3026SOL    HW2 9765   1.096   2.437  13.123
 3027SOL     OW 9766   0.866   2.316  13.676
 3027SOL    HW1 9767   0.834   2.388  13.614
 3027SOL    HW2 9768   0.890   2.235  13.623
 3028SOL     OW 9769   1.017   1.901  13.787
 3028SOL    HW1 9770   0.945   1.906  13.718
 3028SOL    HW2 9771   0.993   1.832  13.856
 3029SOL     OW 9772   1.857   2.695  13.411
 3029SOL    HW1 9773   1.899   2.631  13.475
 3029SOL    HW2 9774   1.819   2.644  13.333
 3030SOL     OW 9775   0.488   3.247  13.208
 3030SOL    HW1 9776   0.401   3.232  13.255
 3030SOL    HW2 9777   0.471   3.273  13.113
 3031SOL     OW 9778   1.664   3.142  13.691
 3031SOL    HW1 9779   1.763   3.150  13.705
 3031SOL    HW2 9780   1.619   3.226  13.722
 3032SOL     OW 9781   1.390   2.437  13.112
 3032SOL    HW1 9782   1.336   2.416  13.193
 3032SOL    HW2 9783   1.481   2.396  13.121
 3033SOL     OW 9784   0.527   2.118  13.362
 3033SOL    HW1 9785   0.554   2.059  13.287
 3033SOL    HW2 9786   0.527   2.213  13.331
 3034SOL     OW 9787   0.705   2.912  13.402
 3034SOL    HW1 9788   0.691   2.919  13.501
 3034SOL    HW2 9789   0.789   2.861  13.384
 3035SOL     OW 9790   0.367   2.962  13.535
 3035SOL    HW1 9791   0.360   3.045  13.479
 3035SOL    HW2 9792   0.371   2.882  13.475
 3036SOL     OW 9793   0.566   2.399  13.899
 3036SOL    HW1 9794   0.578   2.465  13.825
 3036SOL    HW2 9795   0.612   2.433  13.982
 3037SOL     OW 9796   1.252   3.210  13.422
 3037SOL    HW1 9797   1.302   3.287  13.462
 3037SOL    HW2 9798   1.157   3.212  13.454
 3038SOL     OW 9799   1.582   2.501  13.506
 3038SOL    HW1 9800   1.551   2.562  13.579
 3038SOL    HW2 9801   1.632   2.553  13.437
 3039SOL     OW 9802   1.209   2.387  13.309
 3039SOL    HW1 9803   1.222   2.303  13.363
 3039SOL    HW2 9804   1.180   2.461  13.369
 3040SOL     OW 9805   0.307   1.925  13.652
 3040SOL    HW1 9806   0.296   2.019  13.685
 3040SOL    HW2 9807   0.302   1.862  13.729
 3041SOL     OW 9808   1.622   2.229  13.408
 3041SOL    HW1 9809   1.624   2.153  13.472
 3041SOL    HW2 9810   1.574   2.306  13.448
 3042SOL     OW 9811   1.540   2.136  13.159
 3042SOL    HW1 9812   1.479   2.061  13.182
 3042SOL    HW2 9813   1.562   2.188  13.242
 3043SOL     OW 9814   1.303   2.700  13.076
 3043SOL    HW1 9815   1.337   2.607  13.091
 3043SOL    HW2 9816   1.321   2.727  12.981
 3044SOL     OW 9817   0.008   3.188  13.234
 3044SOL    HW1 9818  -0.085   3.209  13.203
 3044SOL    HW2 9819   0.018   3.089  13.247
 3045SOL     OW 9820   0.815   2.434  13.359
 3045SOL    HW1 9821   0.822   2.345  13.313
 3045SOL    HW2 9822   0.721   2.468  13.351
 3046SOL     OW 9823   0.473   2.362  13.225
 3046SOL    HW1 9824   0.534   2.442  13.229
 3046SOL    HW2 9825   0.378   2.393  13.232
 3047SOL     OW 9826   1.302   2.717  13.343
 3047SOL    HW1 9827   1.216   2.686  13.385
 3047SOL    HW2 9828   1.298   2.703  13.244
 3048SOL     OW 9829   1.388   3.435  13.511
 3048SOL    HW1 9830   1.455   3.447  13.437
 3048SOL    HW2 9831   1.348   3.524  13.534
 3049SOL     OW 9832   1.280   2.789  13.706
 3049SOL    HW1 9833   1.340   2.708  13.708
 3049SOL    HW2 9834   1.320   2.858  13.646
 3050SOL     OW 9835   0.672   3.478  13.188
 3050SOL    HW1 9836   0.681   3.488  13.089
 3050SOL    HW2 9837   0.632   3.389  13.209
 3051SOL     OW 9838   0.263   2.188  13.754
 3051SOL    HW1 9839   0.184   2.239  13.720
 3051SOL    HW2 9840   0.254   2.173  13.852
 3052SOL     OW 9841   1.194   3.474  13.065
 3052SOL    HW1 9842   1.200   3.381  13.102
 3052SOL    HW2 9843   1.135   3.474  12.985
 3053SOL     OW 9844   0.916   2.772  13.325
 3053SOL    HW1 9845   0.979   2.810  13.257
 3053SOL    HW2 9846   0.956   2.689  13.364
 3054SOL     OW 9847   1.504   3.469  13.078
 3054SOL    HW1 9848   1.412   3.506  13.085
 3054SOL    HW2 9849   1.542   3.489  12.988
 3055SOL     OW 9850   1.039   2.960  13.730
 3055SOL    HW1 9851   0.969   2.913  13.784
 3055SOL    HW2 9852   1.098   2.892  13.687
 3056SOL     OW 9853   0.590   3.349  13.525
 3056SOL    HW1 9854   0.632   3.291  13.455
 3056SOL    HW2 9855   0.546   3.428  13.481
 3057SOL     OW 9856   0.255   3.210  13.324
 3057SOL    HW1 9857   0.159   3.211  13.297
 3057SOL    HW2 9858   0.267   3.263  13.408
 3058SOL     OW 9859   0.075   2.207  13.067
 3058SOL    HW1 9860  -0.017   2.179  13.038
 3058SOL    HW2 9861   0.106   2.284  13.011
 3059SOL     OW 9862   0.072   2.028  13.352
 3059SOL    HW1 9863   0.055   2.111  13.298
 3059SOL    HW2 9864   0.162   1.991  13.330
 3060SOL     OW 9865   1.183   3.197  13.153
 3060SOL    HW1 9866   1.084   3.186  13.155
 3060SOL    HW2 9867   1.217   3.212  13.246
 3061SOL     OW 9868   1.225   2.187  13.483
 3061SOL    HW1 9869   1.290   2.113  13.472
 3061SOL    HW2 9870   1.245   2.237  13.567
 3062SOL     OW 9871   0.594   2.607  13.686
 3062SOL    HW1 9872   0.644   2.692  13.667
 3062SOL    HW2 9873   0.506   2.609  13.638
 3063SOL     OW 9874   0.859   3.236  13.050
 3063SOL    HW1 9875   0.813   3.251  13.138
 3063SOL    HW2 9876   0.903   3.321  13.020
 3064SOL     OW 9877   0.661   3.652  13.987
 3064SOL    HW1 9878   0.615   3.740  13.974
 3064SOL    HW2 9879   0.760   3.664  13.980
 3065SOL     OW 9880   0.859   2.818  13.895
 3065SOL    HW1 9881   0.913   2.749  13.943
 3065SOL    HW2 9882   0.827   2.887  13.961
 3066SOL     OW 9883   1.083   2.846  13.121
 3066SOL    HW1 9884   1.060   2.899  13.039
 3066SOL    HW2 9885   1.164   2.790  13.102
 3067SOL     OW 9886   0.079   3.102  13.687
 3067SOL    HW1 9887   0.078   3.055  13.775
 3067SOL    HW2 9888   0.161   3.074  13.636
 3068SOL     OW 9889   0.428   2.286  13.554
 3068SOL    HW1 9890   0.458   2.214  13.492
 3068SOL    HW2 9891   0.389   2.246  13.637
 3069SOL     OW 9892   1.705   3.349  14.138
 3069SOL    HW1 9893   1.612   3.324  14.111
 3069SOL    HW2 9894   1.731   3.299  14.220
 3070SOL     OW 9895   0.812   3.448  13.721
 3070SOL    HW1 9896   0.844   3.458  13.627
 3070SOL    HW2 9897   0.733   3.386  13.723
 3071SOL     OW 9898   0.770   3.192  13.335
 3071SOL    HW1 9899   0.724   3.105  13.352
 3071SOL    HW2 9900   0.861   3.189  13.376
 3072SOL     OW 9901   1.352   1.914  13.202
 3072SOL    HW1 9902   1.387   1.873  13.118
 3072SOL    HW2 9903   1.262   1.876  13.222
 3073SOL     OW 9904   1.300   2.315  13.725
 3073SOL    HW1 9905   1.241   2.395  13.729
 3073SOL    HW2 9906   1.315   2.280  13.818
 3074SOL     OW 9907   0.039   2.939  13.334
 3074SOL    HW1 9908   0.138   2.928  13.325
 3074SOL    HW2 9909  -0.001   2.853  13.366
 3075SOL     OW 9910   0.875   3.508  13.371
 3075SOL    HW1 9911   0.798   3.473  13.317
 3075SOL    HW2 9912   0.843   3.579  13.433
 3076SOL     OW 9913   0.225   3.999   0.996
 3076SOL    HW1 9914   0.260   3.982   1.088
 3076SOL    HW2 9915   0.137   3.954   0.984
 3077SOL     OW 9916   0.019   4.092   0.647
 3077SOL    HW1 9917  -0.063   4.135   0.686
 3077SOL    HW2 9918  -0.009   4.019   0.584
 3078SOL     OW 9919   1.755   4.331   0.231
 3078SOL    HW1 9920   1.743   4.318   0.132
 3078SOL    HW2 9921   1.725   4.250   0.280
 3079SOL     OW 9922   0.438   4.116   1.499
 3079SOL    HW1 9923   0.520   4.060   1.508
 3079SOL    HW2 9924   0.357   4.058   1.503
 3080SOL     OW 9925   1.594   3.838   1.480
 3080SOL    HW1 9926   1.576   3.905   1.408
 3080SOL    HW2 9927   1.591   3.884   1.569
 3081SOL     OW 9928   0.809   3.728   0.502
 3081SOL    HW1 9929   0.849   3.819   0.493
 3081SOL    HW2 9930   0.709   3.736   0.508
 3082SOL     OW 9931   1.281   4.069   0.944
 3082SOL    HW1 9932   1.195   4.019   0.931
 3082SOL    HW2 9933   1.343   4.015   1.000
 3083SOL     OW 9934   0.550   3.920   0.885
 3083SOL    HW1 9935   0.545   3.915   0.985
 3083SOL    HW2 9936   0.552   4.016   0.856
 3084SOL     OW 9937   0.202   4.009   1.498
 3084SOL    HW1 9938   0.122   4.069   1.485
 3084SOL    HW2 9939   0.192   3.960   1.584
 3085SOL     OW 9940   1.400   3.831   0.426
 3085SOL    HW1 9941   1.376   3.794   0.336
 3085SOL    HW2 9942   1.499   3.847   0.430
 3086SOL     OW 9943   1.547   3.946   1.729
 3086SOL    HW1 9944   1.542   3.983   1.821
 3086SOL    HW2 9945   1.475   3.877   1.717
 3087SOL     OW 9946   0.781   3.988   1.749
 3087SOL    HW1 9947   0.848   3.927   1.792
 3087SOL    HW2 9948   0.708   4.007   1.814
 3088SOL     OW 9949   0.539   3.788   0.512
 3088SOL    HW1 9950   0.458   3.789   0.570
 3088SOL    HW2 9951   0.542   3.871   0.457
 3089SOL     OW 9952   0.297   3.759   0.171
 3089SOL    HW1 9953   0.346   3.843   0.150
 3089SOL    HW2 9954   0.359   3.694   0.216
 3090SOL     OW 9955   0.561   3.946   1.147
 3090SOL    HW1 9956   0.599   3.862   1.184
 3090SOL    HW2 9957   0.473   3.965   1.191
 3091SOL     OW 9958   1.017   3.763   0.753
 3091SOL    HW1 9959   0.945   3.768   0.684
 3091SOL    HW2 9960   0.993   3.694   0.822
 3092SOL     OW 9961   0.915   3.813   1.402
 3092SOL    HW1 9962   0.940   3.793   1.307
 3092SOL    HW2 9963   0.987   3.869   1.444
 3093SOL     OW 9964   1.274   4.110   1.262
 3093SOL    HW1 9965   1.295   4.184   1.326
 3093SOL    HW2 9966   1.185   4.127   1.219
 3094SOL     OW 9967   0.504   3.774   1.740
 3094SOL    HW1 9968   0.462   3.717   1.670
 3094SOL    HW2 9969   0.438   3.843   1.772
 3095SOL     OW 9970   0.307   3.937   1.231
 3095SOL    HW1 9971   0.284   3.974   1.321
 3095SOL    HW2 9972   0.277   3.842   1.225
 3096SOL     OW 9973   1.540   3.998   0.125
 3096SOL    HW1 9974   1.479   3.923   0.148
 3096SOL    HW2 9975   1.562   4.050   0.208
 3097SOL     OW 9976   1.160   3.931   1.477
 3097SOL    HW1 9977   1.160   3.995   1.554
 3097SOL    HW2 9978   1.188   3.979   1.394
 3098SOL     OW 9979   0.903   3.810   0.133
 3098SOL    HW1 9980   0.954   3.811   0.047
 3098SOL    HW2 9981   0.959   3.768   0.204
 3099SOL     OW 9982   1.726   3.859   0.523
 3099SOL    HW1 9983   1.799   3.842   0.456
 3099SOL    HW2 9984   1.695   3.772   0.561
 3100SOL     OW 9985   1.841   3.899   0.963
 3100SOL    HW1 9986   1.880   3.814   0.927
 3100SOL    HW2 9987   1.743   3.901   0.944
 3101SOL     OW 9988   0.672   3.927   1.489
 3101SOL    HW1 9989   0.762   3.911   1.449
 3101SOL    HW2 9990   0.680   3.932   1.588
 3102SOL     OW 9991   0.075   4.069   0.033
 3102SOL    HW1 9992  -0.017   4.041   0.004
 3102SOL    HW2 9993   0.106   4.146  -0.023
 3103SOL     OW 9994   0.072   3.890   0.318
 3103SOL    HW1 9995   0.055   3.973   0.264
 3103SOL    HW2 9996   0.162   3.853   0.296
 3104SOL     OW 9997   1.225   4.049   0.449
 3104SOL    HW1 9998   1.290   3.975   0.438
 3104SOL    HW2 9999   1.245   4.099   0.533
 3105SOL     OW10000   1.777   4.066   1.642
 3105SOL    HW110001   1.760   4.097   1.548
 3105SOL    HW210002   1.693   4.029   1.680
 3106SOL     OW10003   1.824   3.916   1.227
 3106SOL    HW110004   1.820   3.826   1.271
 3106SOL    HW210005   1.827   3.905   1.128
 3107SOL     OW10006   1.424   3.938   1.112
 3107SOL    HW110007   1.476   3.873   1.167
 3107SOL    HW210008   1.375   4.001   1.173
 3108SOL     OW10009   1.001   3.758   1.154
 3108SOL    HW110010   0.938   3.686   1.123
 3108SOL    HW210011   1.094   3.722   1.154
 3109SOL     OW10012   1.352   3.776   0.168
 3109SOL    HW110013   1.387   3.735   0.084
 3109SOL    HW210014   1.262   3.738   0.188
 3110SOL     OW10015   1.300   4.177   0.691
 3110SOL    HW110016   1.241   4.257   0.695
 3110SOL    HW210017   1.315   4.142   0.784
 3111SOL     OW10018   1.593   3.945   0.882
 3111SOL    HW110019   1.509   3.944   0.936
 3111SOL    HW210020   1.595   4.028   0.826
 3112SOL     OW10021   0.225   3.999   2.858
 3112SOL    HW110022   0.260   3.982   2.950
 3112SOL    HW210023   0.137   3.954   2.846
 3113SOL     OW10024   0.019   4.092   2.509
 3113SOL    HW110025  -0.063   4.135   2.548
 3113SOL    HW210026  -0.009   4.019   2.446
 3114SOL     OW10027   1.755   4.331   2.093
 3114SOL    HW110028   1.743   4.318   1.994
 3114SOL    HW210029   1.725   4.250   2.142
 3115SOL     OW10030   0.438   4.116   3.361
 3115SOL    HW110031   0.520   4.060   3.370
 3115SOL    HW210032   0.357   4.058   3.365
 3116SOL     OW10033   1.594   3.838   3.342
 3116SOL    HW110034   1.576   3.905   3.270
 3116SOL    HW210035   1.591   3.884   3.431
 3117SOL     OW10036   0.809   3.728   2.364
 3117SOL    HW110037   0.849   3.819   2.355
 3117SOL    HW210038   0.709   3.736   2.370
 3118SOL     OW10039   1.281   4.069   2.806
 3118SOL    HW110040   1.195   4.019   2.793
 3118SOL    HW210041   1.343   4.015   2.862
 3119SOL     OW10042   0.550   3.920   2.747
 3119SOL    HW110043   0.545   3.915   2.847
 3119SOL    HW210044   0.552   4.016   2.718
 3120SOL     OW10045   0.202   4.009   3.360
 3120SOL    HW110046   0.122   4.069   3.347
 3120SOL    HW210047   0.192   3.960   3.446
 3121SOL     OW10048   1.400   3.831   2.288
 3121SOL    HW110049   1.376   3.794   2.198
 3121SOL    HW210050   1.499   3.847   2.292
 3122SOL     OW10051   1.547   3.946   3.591
 3122SOL    HW110052   1.542   3.983   3.683
 3122SOL    HW210053   1.475   3.877   3.579
 3123SOL     OW10054   0.614   3.846   1.979
 3123SOL    HW110055   0.712   3.824   1.986
 3123SOL    HW210056   0.583   3.829   1.886
 3124SOL     OW10057   0.781   3.988   3.611
 3124SOL    HW110058   0.848   3.927   3.654
 3124SOL    HW210059   0.708   4.007   3.676
 3125SOL     OW10060   0.539   3.788   2.374
 3125SOL    HW110061   0.458   3.789   2.432
 3125SOL    HW210062   0.542   3.871   2.319
 3126SOL     OW10063   0.297   3.759   2.033
 3126SOL    HW110064   0.346   3.843   2.012
 3126SOL    HW210065   0.359   3.694   2.078
 3127SOL     OW10066   0.561   3.946   3.009
 3127SOL    HW110067   0.599   3.862   3.046
 3127SOL    HW210068   0.473   3.965   3.053
 3128SOL     OW10069   1.017   3.763   2.615
 3128SOL    HW110070   0.945   3.768   2.546
 3128SOL    HW210071   0.993   3.694   2.684
 3129SOL     OW10072   0.915   3.813   3.264
 3129SOL    HW110073   0.940   3.793   3.169
 3129SOL    HW210074   0.987   3.869   3.306
 3130SOL     OW10075   1.274   4.110   3.124
 3130SOL    HW110076   1.295   4.184   3.188
 3130SOL    HW210077   1.185   4.127   3.081
 3131SOL     OW10078   0.504   3.774   3.602
 3131SOL    HW110079   0.462   3.717   3.532
 3131SOL    HW210080   0.438   3.843   3.634
 3132SOL     OW10081   0.307   3.937   3.093
 3132SOL    HW110082   0.284   3.974   3.183
 3132SOL    HW210083   0.277   3.842   3.087
 3133SOL     OW10084   1.540   3.998   1.987
 3133SOL    HW110085   1.479   3.923   2.010
 3133SOL    HW210086   1.562   4.050   2.070
 3134SOL     OW10087   1.160   3.931   3.339
 3134SOL    HW110088   1.160   3.995   3.416
 3134SOL    HW210089   1.188   3.979   3.256
 3135SOL     OW10090   0.903   3.810   1.995
 3135SOL    HW110091   0.954   3.811   1.909
 3135SOL    HW210092   0.959   3.768   2.066
 3136SOL     OW10093   1.726   3.859   2.385
 3136SOL    HW110094   1.799   3.842   2.318
 3136SOL    HW210095   1.695   3.772   2.423
 3137SOL     OW10096   1.841   3.899   2.825
 3137SOL    HW110097   1.880   3.814   2.789
 3137SOL    HW210098   1.743   3.901   2.806
 3138SOL     OW10099   0.672   3.927   3.351
 3138SOL    HW110100   0.762   3.911   3.311
 3138SOL    HW210101   0.680   3.932   3.450
 3139SOL     OW10102   0.075   4.069   1.895
 3139SOL    HW110103  -0.017   4.041   1.866
 3139SOL    HW210104   0.106   4.146   1.839
 3140SOL     OW10105   0.072   3.890   2.180
 3140SOL    HW110106   0.055   3.973   2.126
 3140SOL    HW210107   0.162   3.853   2.158
 3141SOL     OW10108   1.225   4.049   2.311
 3141SOL    HW110109   1.290   3.975   2.300
 3141SOL    HW210110   1.245   4.099   2.395
 3142SOL     OW10111   1.777   4.066   3.504
 3142SOL    HW110112   1.760   4.097   3.410
 3142SOL    HW210113   1.693   4.029   3.542
 3143SOL     OW10114   1.824   3.916   3.089
 3143SOL    HW110115   1.820   3.826   3.133
 3143SOL    HW210116   1.827   3.905   2.990
 3144SOL     OW10117   1.424   3.938   2.974
 3144SOL    HW110118   1.476   3.873   3.029
 3144SOL    HW210119   1.375   4.001   3.035
 3145SOL     OW10120   1.001   3.758   3.016
 3145SOL    HW110121   0.938   3.686   2.985
 3145SOL    HW210122   1.094   3.722   3.016
 3146SOL     OW10123   1.352   3.776   2.030
 3146SOL    HW110124   1.387   3.735   1.946
 3146SOL    HW210125   1.262   3.738   2.050
 3147SOL     OW10126   1.300   4.177   2.553
 3147SOL    HW110127   1.241   4.257   2.557
 3147SOL    HW210128   1.315   4.142   2.646
 3148SOL     OW10129   1.593   3.945   2.744
 3148SOL    HW110130   1.509   3.944   2.798
 3148SOL    HW210131   1.595   4.028   2.688
 3149SOL     OW10132   0.225   3.999   4.720
 3149SOL    HW110133   0.260   3.982   4.812
 3149SOL    HW210134   0.137   3.954   4.708
 3150SOL     OW10135   0.019   4.092   4.371
 3150SOL    HW110136  -0.063   4.135   4.410
 3150SOL    HW210137  -0.009   4.019   4.308
 3151SOL     OW10138   1.755   4.331   3.955
 3151SOL    HW110139   1.743   4.318   3.856
 3151SOL    HW210140   1.725   4.250   4.004
 3152SOL     OW10141   0.438   4.116   5.223
 3152SOL    HW110142   0.520   4.060   5.232
 3152SOL    HW210143   0.357   4.058   5.227
 3153SOL     OW10144   1.594   3.838   5.204
 3153SOL    HW110145   1.576   3.905   5.132
 3153SOL    HW210146   1.591   3.884   5.293
 3154SOL     OW10147   0.809   3.728   4.226
 3154SOL    HW110148   0.849   3.819   4.217
 3154SOL    HW210149   0.709   3.736   4.232
 3155SOL     OW10150   1.281   4.069   4.668
 3155SOL    HW110151   1.195   4.019   4.655
 3155SOL    HW210152   1.343   4.015   4.724
 3156SOL     OW10153   0.550   3.920   4.609
 3156SOL    HW110154   0.545   3.915   4.709
 3156SOL    HW210155   0.552   4.016   4.580
 3157SOL     OW10156   0.202   4.009   5.222
 3157SOL    HW110157   0.122   4.069   5.209
 3157SOL    HW210158   0.192   3.960   5.308
 3158SOL     OW10159   1.400   3.831   4.150
 3158SOL    HW110160   1.376   3.794   4.060
 3158SOL    HW210161   1.499   3.847   4.154
 3159SOL     OW10162   1.547   3.946   5.453
 3159SOL    HW110163   1.542   3.983   5.545
 3159SOL    HW210164   1.475   3.877   5.441
 3160SOL     OW10165   0.614   3.846   3.841
 3160SOL    HW110166   0.712   3.824   3.848
 3160SOL    HW210167   0.583   3.829   3.748
 3161SOL     OW10168   0.781   3.988   5.473
 3161SOL    HW110169   0.848   3.927   5.516
 3161SOL    HW210170   0.708   4.007   5.538
 3162SOL     OW10171   0.539   3.788   4.236
 3162SOL    HW110172   0.458   3.789   4.294
 3162SOL    HW210173   0.542   3.871   4.181
 3163SOL     OW10174   0.297   3.759   3.895
 3163SOL    HW110175   0.346   3.843   3.874
 3163SOL    HW210176   0.359   3.694   3.940
 3164SOL     OW10177   0.561   3.946   4.871
 3164SOL    HW110178   0.599   3.862   4.908
 3164SOL    HW210179   0.473   3.965   4.915
 3165SOL     OW10180   1.017   3.763   4.477
 3165SOL    HW110181   0.945   3.768   4.408
 3165SOL    HW210182   0.993   3.694   4.546
 3166SOL     OW10183   0.915   3.813   5.126
 3166SOL    HW110184   0.940   3.793   5.031
 3166SOL    HW210185   0.987   3.869   5.168
 3167SOL     OW10186   1.274   4.110   4.986
 3167SOL    HW110187   1.295   4.184   5.050
 3167SOL    HW210188   1.185   4.127   4.943
 3168SOL     OW10189   0.504   3.774   5.464
 3168SOL    HW110190   0.462   3.717   5.394
 3168SOL    HW210191   0.438   3.843   5.496
 3169SOL     OW10192   0.307   3.937   4.955
 3169SOL    HW110193   0.284   3.974   5.045
 3169SOL    HW210194   0.277   3.842   4.949
 3170SOL     OW10195   1.540   3.998   3.849
 3170SOL    HW110196   1.479   3.923   3.872
 3170SOL    HW210197   1.562   4.050   3.932
 3171SOL     OW10198   1.160   3.931   5.201
 3171SOL    HW110199   1.160   3.995   5.278
 3171SOL    HW210200   1.188   3.979   5.118
 3172SOL     OW10201   0.903   3.810   3.857
 3172SOL    HW110202   0.954   3.811   3.771
 3172SOL    HW210203   0.959   3.768   3.928
 3173SOL     OW10204   1.726   3.859   4.247
 3173SOL    HW110205   1.799   3.842   4.180
 3173SOL    HW210206   1.695   3.772   4.285
 3174SOL     OW10207   1.841   3.899   4.687
 3174SOL    HW110208   1.880   3.814   4.651
 3174SOL    HW210209   1.743   3.901   4.668
 3175SOL     OW10210   0.672   3.927   5.213
 3175SOL    HW110211   0.762   3.911   5.173
 3175SOL    HW210212   0.680   3.932   5.312
 3176SOL     OW10213   0.075   4.069   3.757
 3176SOL    HW110214  -0.017   4.041   3.728
 3176SOL    HW210215   0.106   4.146   3.701
 3177SOL     OW10216   0.072   3.890   4.042
 3177SOL    HW110217   0.055   3.973   3.988
 3177SOL    HW210218   0.162   3.853   4.020
 3178SOL     OW10219   1.225   4.049   4.173
 3178SOL    HW110220   1.290   3.975   4.162
 3178SOL    HW210221   1.245   4.099   4.257
 3179SOL     OW10222   1.777   4.066   5.366
 3179SOL    HW110223   1.760   4.097   5.272
 3179SOL    HW210224   1.693   4.029   5.404
 3180SOL     OW10225   1.824   3.916   4.951
 3180SOL    HW110226   1.820   3.826   4.995
 3180SOL    HW210227   1.827   3.905   4.852
 3181SOL     OW10228   1.424   3.938   4.836
 3181SOL    HW110229   1.476   3.873   4.891
 3181SOL    HW210230   1.375   4.001   4.897
 3182SOL     OW10231   1.001   3.758   4.878
 3182SOL    HW110232   0.938   3.686   4.847
 3182SOL    HW210233   1.094   3.722   4.878
 3183SOL     OW10234   1.352   3.776   3.892
 3183SOL    HW110235   1.387   3.735   3.808
 3183SOL    HW210236   1.262   3.738   3.912
 3184SOL     OW10237   1.300   4.177   4.415
 3184SOL    HW110238   1.241   4.257   4.419
 3184SOL    HW210239   1.315   4.142   4.508
 3185SOL     OW10240   1.593   3.945   4.606
 3185SOL    HW110241   1.509   3.944   4.660
 3185SOL    HW210242   1.595   4.028   4.550
 3186SOL     OW10243   0.225   3.999   6.582
 3186SOL    HW110244   0.260   3.982   6.674
 3186SOL    HW210245   0.137   3.954   6.570
 3187SOL     OW10246   0.019   4.092   6.233
 3187SOL    HW110247  -0.063   4.135   6.272
 3187SOL    HW210248  -0.009   4.019   6.170
 3188SOL     OW10249   1.755   4.331   5.817
 3188SOL    HW110250   1.743   4.318   5.718
 3188SOL    HW210251   1.725   4.250   5.866
 3189SOL     OW10252   0.438   4.116   7.085
 3189SOL    HW110253   0.520   4.060   7.094
 3189SOL    HW210254   0.357   4.058   7.089
 3190SOL     OW10255   1.594   3.838   7.066
 3190SOL    HW110256   1.576   3.905   6.994
 3190SOL    HW210257   1.591   3.884   7.155
 3191SOL     OW10258   0.809   3.728   6.088
 3191SOL    HW110259   0.849   3.819   6.079
 3191SOL    HW210260   0.709   3.736   6.094
 3192SOL     OW10261   1.281   4.069   6.530
 3192SOL    HW110262   1.195   4.019   6.517
 3192SOL    HW210263   1.343   4.015   6.586
 3193SOL     OW10264   0.550   3.920   6.471
 3193SOL    HW110265   0.545   3.915   6.571
 3193SOL    HW210266   0.552   4.016   6.442
 3194SOL     OW10267   0.202   4.009   7.084
 3194SOL    HW110268   0.122   4.069   7.071
 3194SOL    HW210269   0.192   3.960   7.170
 3195SOL     OW10270   1.400   3.831   6.012
 3195SOL    HW110271   1.376   3.794   5.922
 3195SOL    HW210272   1.499   3.847   6.016
 3196SOL     OW10273   1.547   3.946   7.315
 3196SOL    HW110274   1.542   3.983   7.407
 3196SOL    HW210275   1.475   3.877   7.303
 3197SOL     OW10276   0.614   3.846   5.703
 3197SOL    HW110277   0.712   3.824   5.710
 3197SOL    HW210278   0.583   3.829   5.610
 3198SOL     OW10279   0.781   3.988   7.335
 3198SOL    HW110280   0.848   3.927   7.378
 3198SOL    HW210281   0.708   4.007   7.400
 3199SOL     OW10282   0.539   3.788   6.098
 3199SOL    HW110283   0.458   3.789   6.156
 3199SOL    HW210284   0.542   3.871   6.043
 3200SOL     OW10285   0.297   3.759   5.757
 3200SOL    HW110286   0.346   3.843   5.736
 3200SOL    HW210287   0.359   3.694   5.802
 3201SOL     OW10288   0.561   3.946   6.733
 3201SOL    HW110289   0.599   3.862   6.770
 3201SOL    HW210290   0.473   3.965   6.777
 3202SOL     OW10291   1.017   3.763   6.339
 3202SOL    HW110292   0.945   3.768   6.270
 3202SOL    HW210293   0.993   3.694   6.408
 3203SOL     OW10294   0.915   3.813   6.988
 3203SOL    HW110295   0.940   3.793   6.893
 3203SOL    HW210296   0.987   3.869   7.030
 3204SOL     OW10297   1.274   4.110   6.848
 3204SOL    HW110298   1.295   4.184   6.912
 3204SOL    HW210299   1.185   4.127   6.805
 3205SOL     OW10300   0.504   3.774   7.326
 3205SOL    HW110301   0.462   3.717   7.256
 3205SOL    HW210302   0.438   3.843   7.358
 3206SOL     OW10303   0.307   3.937   6.817
 3206SOL    HW110304   0.284   3.974   6.907
 3206SOL    HW210305   0.277   3.842   6.811
 3207SOL     OW10306   1.540   3.998   5.711
 3207SOL    HW110307   1.479   3.923   5.734
 3207SOL    HW210308   1.562   4.050   5.794
 3208SOL     OW10309   1.160   3.931   7.063
 3208SOL    HW110310   1.160   3.995   7.140
 3208SOL    HW210311   1.188   3.979   6.980
 3209SOL     OW10312   0.903   3.810   5.719
 3209SOL    HW110313   0.954   3.811   5.633
 3209SOL    HW210314   0.959   3.768   5.790
 3210SOL     OW10315   1.726   3.859   6.109
 3210SOL    HW110316   1.799   3.842   6.042
 3210SOL    HW210317   1.695   3.772   6.147
 3211SOL     OW10318   1.841   3.899   6.549
 3211SOL    HW110319   1.880   3.814   6.513
 3211SOL    HW210320   1.743   3.901   6.530
 3212SOL     OW10321   0.672   3.927   7.075
 3212SOL    HW110322   0.762   3.911   7.035
 3212SOL    HW210323   0.680   3.932   7.174
 3213SOL     OW10324   0.075   4.069   5.619
 3213SOL    HW110325  -0.017   4.041   5.590
 3213SOL    HW210326   0.106   4.146   5.563
 3214SOL     OW10327   0.072   3.890   5.904
 3214SOL    HW110328   0.055   3.973   5.850
 3214SOL    HW210329   0.162   3.853   5.882
 3215SOL     OW10330   1.225   4.049   6.035
 3215SOL    HW110331   1.290   3.975   6.024
 3215SOL    HW210332   1.245   4.099   6.119
 3216SOL     OW10333   1.777   4.066   7.228
 3216SOL    HW110334   1.760   4.097   7.134
 3216SOL    HW210335   1.693   4.029   7.266
 3217SOL     OW10336   1.824   3.916   6.813
 3217SOL    HW110337   1.820   3.826   6.857
 3217SOL    HW210338   1.827   3.905   6.714
 3218SOL     OW10339   1.424   3.938   6.698
 3218SOL    HW110340   1.476   3.873   6.753
 3218SOL    HW210341   1.375   4.001   6.759
 3219SOL     OW10342   1.001   3.758   6.740
 3219SOL    HW110343   0.938   3.686   6.709
 3219SOL    HW210344   1.094   3.722   6.740
 3220SOL     OW10345   1.352   3.776   5.754
 3220SOL    HW110346   1.387   3.735   5.670
 3220SOL    HW210347   1.262   3.738   5.774
 3221SOL     OW10348   1.300   4.177   6.277
 3221SOL    HW110349   1.241   4.257   6.281
 3221SOL    HW210350   1.315   4.142   6.370
 3222SOL     OW10351   1.593   3.945   6.468
 3222SOL    HW110352   1.509   3.944   6.522
 3222SOL    HW210353   1.595   4.028   6.412
 3223SOL     OW10354   0.225   3.999   8.444
 3223SOL    HW110355   0.260   3.982   8.536
 3223SOL    HW210356   0.137   3.954   8.432
 3224SOL     OW10357   0.019   4.092   8.095
 3224SOL    HW110358  -0.063   4.135   8.134
 3224SOL    HW210359  -0.009   4.019   8.032
 3225SOL     OW10360   1.755   4.331   7.679
 3225SOL    HW110361   1.743   4.318   7.580
 3225SOL    HW210362   1.725   4.250   7.728
 3226SOL     OW10363   0.438   4.116   8.947
 3226SOL    HW110364   0.520   4.060   8.956
 3226SOL    HW210365   0.357   4.058   8.951
 3227SOL     OW10366   1.594   3.838   8.928
 3227SOL    HW110367   1.576   3.905   8.856
 3227SOL    HW210368   1.591   3.884   9.017
 3228SOL     OW10369   0.809   3.728   7.950
 3228SOL    HW110370   0.849   3.819   7.941
 3228SOL    HW210371   0.709   3.736   7.956
 3229SOL     OW10372   1.281   4.069   8.392
 3229SOL    HW110373   1.195   4.019   8.379
 3229SOL    HW210374   1.343   4.015   8.448
 3230SOL     OW10375   0.550   3.920   8.333
 3230SOL    HW110376   0.545   3.915   8.433
 3230SOL    HW210377   0.552   4.016   8.304
 3231SOL     OW10378   0.202   4.009   8.946
 3231SOL    HW110379   0.122   4.069   8.933
 3231SOL    HW210380   0.192   3.960   9.032
 3232SOL     OW10381   1.400   3.831   7.874
 3232SOL    HW110382   1.376   3.794   7.784
 3232SOL    HW210383   1.499   3.847   7.878
 3233SOL     OW10384   1.547   3.946   9.177
 3233SOL    HW110385   1.542   3.983   9.269
 3233SOL    HW210386   1.475   3.877   9.165
 3234SOL     OW10387   0.614   3.846   7.565
 3234SOL    HW110388   0.712   3.824   7.572
 3234SOL    HW210389   0.583   3.829   7.472
 3235SOL     OW10390   0.781   3.988   9.197
 3235SOL    HW110391   0.848   3.927   9.240
 3235SOL    HW210392   0.708   4.007   9.262
 3236SOL     OW10393   0.539   3.788   7.960
 3236SOL    HW110394   0.458   3.789   8.018
 3236SOL    HW210395   0.542   3.871   7.905
 3237SOL     OW10396   0.297   3.759   7.619
 3237SOL    HW110397   0.346   3.843   7.598
 3237SOL    HW210398   0.359   3.694   7.664
 3238SOL     OW10399   0.561   3.946   8.595
 3238SOL    HW110400   0.599   3.862   8.632
 3238SOL    HW210401   0.473   3.965   8.639
 3239SOL     OW10402   1.017   3.763   8.201
 3239SOL    HW110403   0.945   3.768   8.132
 3239SOL    HW210404   0.993   3.694   8.270
 3240SOL     OW10405   0.915   3.813   8.850
 3240SOL    HW110406   0.940   3.793   8.755
 3240SOL    HW210407   0.987   3.869   8.892
 3241SOL     OW10408   1.274   4.110   8.710
 3241SOL    HW110409   1.295   4.184   8.774
 3241SOL    HW210410   1.185   4.127   8.667
 3242SOL     OW10411   0.504   3.774   9.188
 3242SOL    HW110412   0.462   3.717   9.118
 3242SOL    HW210413   0.438   3.843   9.220
 3243SOL     OW10414   0.307   3.937   8.679
 3243SOL    HW110415   0.284   3.974   8.769
 3243SOL    HW210416   0.277   3.842   8.673
 3244SOL     OW10417   1.540   3.998   7.573
 3244SOL    HW110418   1.479   3.923   7.596
 3244SOL    HW210419   1.562   4.050   7.656
 3245SOL     OW10420   1.160   3.931   8.925
 3245SOL    HW110421   1.160   3.995   9.002
 3245SOL    HW210422   1.188   3.979   8.842
 3246SOL     OW10423   0.903   3.810   7.581
 3246SOL    HW110424   0.954   3.811   7.495
 3246SOL    HW210425   0.959   3.768   7.652
 3247SOL     OW10426   1.726   3.859   7.971
 3247SOL    HW110427   1.799   3.842   7.904
 3247SOL    HW210428   1.695   3.772   8.009
 3248SOL     OW10429   1.841   3.899   8.411
 3248SOL    HW110430   1.880   3.814   8.375
 3248SOL    HW210431   1.743   3.901   8.392
 3249SOL     OW10432   0.672   3.927   8.937
 3249SOL    HW110433   0.762   3.911   8.897
 3249SOL    HW210434   0.680   3.932   9.036
 3250SOL     OW10435   0.075   4.069   7.481
 3250SOL    HW110436  -0.017   4.041   7.452
 3250SOL    HW210437   0.106   4.146   7.425
 3251SOL     OW10438   0.072   3.890   7.766
 3251SOL    HW110439   0.055   3.973   7.712
 3251SOL    HW210440   0.162   3.853   7.744
 3252SOL     OW10441   1.225   4.049   7.897
 3252SOL    HW110442   1.290   3.975   7.886
 3252SOL    HW210443   1.245   4.099   7.981
 3253SOL     OW10444   1.777   4.066   9.090
 3253SOL    HW110445   1.760   4.097   8.996
 3253SOL    HW210446   1.693   4.029   9.128
 3254SOL     OW10447   1.824   3.916   8.675
 3254SOL    HW110448   1.820   3.826   8.719
 3254SOL    HW210449   1.827   3.905   8.576
 3255SOL     OW10450   1.424   3.938   8.560
 3255SOL    HW110451   1.476   3.873   8.615
 3255SOL    HW210452   1.375   4.001   8.621
 3256SOL     OW10453   1.001   3.758   8.602
 3256SOL    HW110454   0.938   3.686   8.571
 3256SOL    HW210455   1.094   3.722   8.602
 3257SOL     OW10456   1.352   3.776   7.616
 3257SOL    HW110457   1.387   3.735   7.532
 3257SOL    HW210458   1.262   3.738   7.636
 3258SOL     OW10459   1.300   4.177   8.139
 3258SOL    HW110460   1.241   4.257   8.143
 3258SOL    HW210461   1.315   4.142   8.232
 3259SOL     OW10462   1.593   3.945   8.330
 3259SOL    HW110463   1.509   3.944   8.384
 3259SOL    HW210464   1.595   4.028   8.274
 3260SOL     OW10465   0.225   3.999  10.306
 3260SOL    HW110466   0.260   3.982  10.398
 3260SOL    HW210467   0.137   3.954  10.294
 3261SOL     OW10468   0.019   4.092   9.957
 3261SOL    HW110469  -0.063   4.135   9.996
 3261SOL    HW210470  -0.009   4.019   9.894
 3262SOL     OW10471   1.755   4.331   9.541
 3262SOL    HW110472   1.743   4.318   9.442
 3262SOL    HW210473   1.725   4.250   9.590
 3263SOL     OW10474   0.438   4.116  10.809
 3263SOL    HW110475   0.520   4.060  10.818
 3263SOL    HW210476   0.357   4.058  10.813
 3264SOL     OW10477   1.594   3.838  10.790
 3264SOL    HW110478   1.576   3.905  10.718
 3264SOL    HW210479   1.591   3.884  10.879
 3265SOL     OW10480   0.809   3.728   9.812
 3265SOL    HW110481   0.849   3.819   9.803
 3265SOL    HW210482   0.709   3.736   9.818
 3266SOL     OW10483   1.281   4.069  10.254
 3266SOL    HW110484   1.195   4.019  10.241
 3266SOL    HW210485   1.343   4.015  10.310
 3267SOL     OW10486   0.550   3.920  10.195
 3267SOL    HW110487   0.545   3.915  10.295
 3267SOL    HW210488   0.552   4.016  10.166
 3268SOL     OW10489   0.202   4.009  10.808
 3268SOL    HW110490   0.122   4.069  10.795
 3268SOL    HW210491   0.192   3.960  10.894
 3269SOL     OW10492   1.400   3.831   9.736
 3269SOL    HW110493   1.376   3.794   9.646
 3269SOL    HW210494   1.499   3.847   9.740
 3270SOL     OW10495   1.547   3.946  11.039
 3270SOL    HW110496   1.542   3.983  11.131
 3270SOL    HW210497   1.475   3.877  11.027
 3271SOL     OW10498   0.614   3.846   9.427
 3271SOL    HW110499   0.712   3.824   9.434
 3271SOL    HW210500   0.583   3.829   9.334
 3272SOL     OW10501   0.781   3.988  11.059
 3272SOL    HW110502   0.848   3.927  11.102
 3272SOL    HW210503   0.708   4.007  11.124
 3273SOL     OW10504   0.539   3.788   9.822
 3273SOL    HW110505   0.458   3.789   9.880
 3273SOL    HW210506   0.542   3.871   9.767
 3274SOL     OW10507   0.297   3.759   9.481
 3274SOL    HW110508   0.346   3.843   9.460
 3274SOL    HW210509   0.359   3.694   9.526
 3275SOL     OW10510   0.561   3.946  10.457
 3275SOL    HW110511   0.599   3.862  10.494
 3275SOL    HW210512   0.473   3.965  10.501
 3276SOL     OW10513   1.017   3.763  10.063
 3276SOL    HW110514   0.945   3.768   9.994
 3276SOL    HW210515   0.993   3.694  10.132
 3277SOL     OW10516   0.915   3.813  10.712
 3277SOL    HW110517   0.940   3.793  10.617
 3277SOL    HW210518   0.987   3.869  10.754
 3278SOL     OW10519   1.274   4.110  10.572
 3278SOL    HW110520   1.295   4.184  10.636
 3278SOL    HW210521   1.185   4.127  10.529
 3279SOL     OW10522   0.504   3.774  11.050
 3279SOL    HW110523   0.462   3.717  10.980
 3279SOL    HW210524   0.438   3.843  11.082
 3280SOL     OW10525   0.307   3.937  10.541
 3280SOL    HW110526   0.284   3.974  10.631
 3280SOL    HW210527   0.277   3.842  10.535
 3281SOL     OW10528   1.540   3.998   9.435
 3281SOL    HW110529   1.479   3.923   9.458
 3281SOL    HW210530   1.562   4.050   9.518
 3282SOL     OW10531   1.160   3.931  10.787
 3282SOL    HW110532   1.160   3.995  10.864
 3282SOL    HW210533   1.188   3.979  10.704
 3283SOL     OW10534   0.903   3.810   9.443
 3283SOL    HW110535   0.954   3.811   9.357
 3283SOL    HW210536   0.959   3.768   9.514
 3284SOL     OW10537   1.726   3.859   9.833
 3284SOL    HW110538   1.799   3.842   9.766
 3284SOL    HW210539   1.695   3.772   9.871
 3285SOL     OW10540   1.841   3.899  10.273
 3285SOL    HW110541   1.880   3.814  10.237
 3285SOL    HW210542   1.743   3.901  10.254
 3286SOL     OW10543   0.672   3.927  10.799
 3286SOL    HW110544   0.762   3.911  10.759
 3286SOL    HW210545   0.680   3.932  10.898
 3287SOL     OW10546   0.075   4.069   9.343
 3287SOL    HW110547  -0.017   4.041   9.314
 3287SOL    HW210548   0.106   4.146   9.287
 3288SOL     OW10549   0.072   3.890   9.628
 3288SOL    HW110550   0.055   3.973   9.574
 3288SOL    HW210551   0.162   3.853   9.606
 3289SOL     OW10552   1.225   4.049   9.759
 3289SOL    HW110553   1.290   3.975   9.748
 3289SOL    HW210554   1.245   4.099   9.843
 3290SOL     OW10555   1.777   4.066  10.952
 3290SOL    HW110556   1.760   4.097  10.858
 3290SOL    HW210557   1.693   4.029  10.990
 3291SOL     OW10558   1.824   3.916  10.537
 3291SOL    HW110559   1.820   3.826  10.581
 3291SOL    HW210560   1.827   3.905  10.438
 3292SOL     OW10561   1.424   3.938  10.422
 3292SOL    HW110562   1.476   3.873  10.477
 3292SOL    HW210563   1.375   4.001  10.483
 3293SOL     OW10564   1.001   3.758  10.464
 3293SOL    HW110565   0.938   3.686  10.433
 3293SOL    HW210566   1.094   3.722  10.464
 3294SOL     OW10567   1.352   3.776   9.478
 3294SOL    HW110568   1.387   3.735   9.394
 3294SOL    HW210569   1.262   3.738   9.498
 3295SOL     OW10570   1.300   4.177  10.001
 3295SOL    HW110571   1.241   4.257  10.005
 3295SOL    HW210572   1.315   4.142  10.094
 3296SOL     OW10573   1.593   3.945  10.192
 3296SOL    HW110574   1.509   3.944  10.246
 3296SOL    HW210575   1.595   4.028  10.136
 3297SOL     OW10576   0.225   3.999  12.168
 3297SOL    HW110577   0.260   3.982  12.260
 3297SOL    HW210578   0.137   3.954  12.156
 3298SOL     OW10579   0.019   4.092  11.819
 3298SOL    HW110580  -0.063   4.135  11.858
 3298SOL    HW210581  -0.009   4.019  11.756
 3299SOL     OW10582   1.755   4.331  11.403
 3299SOL    HW110583   1.743   4.318  11.304
 3299SOL    HW210584   1.725   4.250  11.452
 3300SOL     OW10585   0.438   4.116  12.671
 3300SOL    HW110586   0.520   4.060  12.680
 3300SOL    HW210587   0.357   4.058  12.675
 3301SOL     OW10588   1.594   3.838  12.652
 3301SOL    HW110589   1.576   3.905  12.580
 3301SOL    HW210590   1.591   3.884  12.741
 3302SOL     OW10591   0.809   3.728  11.674
 3302SOL    HW110592   0.849   3.819  11.665
 3302SOL    HW210593   0.709   3.736  11.680
 3303SOL     OW10594   1.281   4.069  12.116
 3303SOL    HW110595   1.195   4.019  12.103
 3303SOL    HW210596   1.343   4.015  12.172
 3304SOL     OW10597   0.550   3.920  12.057
 3304SOL    HW110598   0.545   3.915  12.157
 3304SOL    HW210599   0.552   4.016  12.028
 3305SOL     OW10600   0.202   4.009  12.670
 3305SOL    HW110601   0.122   4.069  12.657
 3305SOL    HW210602   0.192   3.960  12.756
 3306SOL     OW10603   1.400   3.831  11.598
 3306SOL    HW110604   1.376   3.794  11.508
 3306SOL    HW210605   1.499   3.847  11.602
 3307SOL     OW10606   1.547   3.946  12.901
 3307SOL    HW110607   1.542   3.983  12.993
 3307SOL    HW210608   1.475   3.877  12.889
 3308SOL     OW10609   0.614   3.846  11.289
 3308SOL    HW110610   0.712   3.824  11.296
 3308SOL    HW210611   0.583   3.829  11.196
 3309SOL     OW10612   0.781   3.988  12.921
 3309SOL    HW110613   0.848   3.927  12.964
 3309SOL    HW210614   0.708   4.007  12.986
 3310SOL     OW10615   0.539   3.788  11.684
 3310SOL    HW110616   0.458   3.789  11.742
 3310SOL    HW210617   0.542   3.871  11.629
 3311SOL     OW10618   0.297   3.759  11.343
 3311SOL    HW110619   0.346   3.843  11.322
 3311SOL    HW210620   0.359   3.694  11.388
 3312SOL     OW10621   0.561   3.946  12.319
 3312SOL    HW110622   0.599   3.862  12.356
 3312SOL    HW210623   0.473   3.965  12.363
 3313SOL     OW10624   1.017   3.763  11.925
 3313SOL    HW110625   0.945   3.768  11.856
 3313SOL    HW210626   0.993   3.694  11.994
 3314SOL     OW10627   0.915   3.813  12.574
 3314SOL    HW110628   0.940   3.793  12.479
 3314SOL    HW210629   0.987   3.869  12.616
 3315SOL     OW10630   1.274   4.110  12.434
 3315SOL    HW110631   1.295   4.184  12.498
 3315SOL    HW210632   1.185   4.127  12.391
 3316SOL     OW10633   0.504   3.774  12.912
 3316SOL    HW110634   0.462   3.717  12.842
 3316SOL    HW210635   0.438   3.843  12.944
 3317SOL     OW10636   0.307   3.937  12.403
 3317SOL    HW110637   0.284   3.974  12.493
 3317SOL    HW210638   0.277   3.842  12.397
 3318SOL     OW10639   1.540   3.998  11.297
 3318SOL    HW110640   1.479   3.923  11.320
 3318SOL    HW210641   1.562   4.050  11.380
 3319SOL     OW10642   1.160   3.931  12.649
 3319SOL    HW110643   1.160   3.995  12.726
 3319SOL    HW210644   1.188   3.979  12.566
 3320SOL     OW10645   0.903   3.810  11.305
 3320SOL    HW110646   0.954   3.811  11.219
 3320SOL    HW210647   0.959   3.768  11.376
 3321SOL     OW10648   1.726   3.859  11.695
 3321SOL    HW110649   1.799   3.842  11.628
 3321SOL    HW210650   1.695   3.772  11.733
 3322SOL     OW10651   1.841   3.899  12.135
 3322SOL    HW110652   1.880   3.814  12.099
 3322SOL    HW210653   1.743   3.901  12.116
 3323SOL     OW10654   0.672   3.927  12.661
 3323SOL    HW110655   0.762   3.911  12.621
 3323SOL    HW210656   0.680   3.932  12.760
 3324SOL     OW10657   0.075   4.069  11.205
 3324SOL    HW110658  -0.017   4.041  11.176
 3324SOL    HW210659   0.106   4.146  11.149
 3325SOL     OW10660   0.072   3.890  11.490
 3325SOL    HW110661   0.055   3.973  11.436
 3325SOL    HW210662   0.162   3.853  11.468
 3326SOL     OW10663   1.225   4.049  11.621
 3326SOL    HW110664   1.290   3.975  11.610
 3326SOL    HW210665   1.245   4.099  11.705
 3327SOL     OW10666   1.777   4.066  12.814
 3327SOL    HW110667   1.760   4.097  12.720
 3327SOL    HW210668   1.693   4.029  12.852
 3328SOL     OW10669   1.824   3.916  12.399
 3328SOL    HW110670   1.820   3.826  12.443
 3328SOL    HW210671   1.827   3.905  12.300
 3329SOL     OW10672   1.424   3.938  12.284
 3329SOL    HW110673   1.476   3.873  12.339
 3329SOL    HW210674   1.375   4.001  12.345
 3330SOL     OW10675   1.001   3.758  12.326
 3330SOL    HW110676   0.938   3.686  12.295
 3330SOL    HW210677   1.094   3.722  12.326
 3331SOL     OW10678   1.352   3.776  11.340
 3331SOL    HW110679   1.387   3.735  11.256
 3331SOL    HW210680   1.262   3.738  11.360
 3332SOL     OW10681   1.300   4.177  11.863
 3332SOL    HW110682   1.241   4.257  11.867
 3332SOL    HW210683   1.315   4.142  11.956
 3333SOL     OW10684   1.593   3.945  12.054
 3333SOL    HW110685   1.509   3.944  12.108
 3333SOL    HW210686   1.595   4.028  11.998
 3334SOL     OW10687   0.019   4.092  13.681
 3334SOL    HW110688  -0.063   4.135  13.720
 3334SOL    HW210689  -0.009   4.019  13.618
 3335SOL     OW10690   1.755   4.331  13.265
 3335SOL    HW110691   1.743   4.318  13.166
 3335SOL    HW210692   1.725   4.250  13.314
 3336SOL     OW10693   1.603   4.171  13.771
 3336SOL    HW110694   1.529   4.217  13.721
 3336SOL    HW210695   1.654   4.239  13.824
 3337SOL     OW10696   0.809   3.728  13.536
 3337SOL    HW110697   0.849   3.819  13.527
 3337SOL    HW210698   0.709   3.736  13.542
 3338SOL     OW10699   1.400   3.831  13.460
 3338SOL    HW110700   1.376   3.794  13.370
 3338SOL    HW210701   1.499   3.847  13.464
 3339SOL     OW10702   0.614   3.846  13.151
 3339SOL    HW110703   0.712   3.824  13.158
 3339SOL    HW210704   0.583   3.829  13.058
 3340SOL     OW10705   0.539   3.788  13.546
 3340SOL    HW110706   0.458   3.789  13.604
 3340SOL    HW210707   0.542   3.871  13.491
 3341SOL     OW10708   0.297   3.759  13.205
 3341SOL    HW110709   0.346   3.843  13.184
 3341SOL    HW210710   0.359   3.694  13.250
 3342SOL     OW10711   1.017   3.763  13.787
 3342SOL    HW110712   0.945   3.768  13.718
 3342SOL    HW210713   0.993   3.694  13.856
 3343SOL     OW10714   1.540   3.998  13.159
 3343SOL    HW110715   1.479   3.923  13.182
 3343SOL    HW210716   1.562   4.050  13.242
 3344SOL     OW10717   0.903   3.810  13.167
 3344SOL    HW110718   0.954   3.811  13.081
 3344SOL    HW210719   0.959   3.768  13.238
 3345SOL     OW10720   1.726   3.859  13.557
 3345SOL    HW110721   1.799   3.842  13.490
 3345SOL    HW210722   1.695   3.772  13.595
 3346SOL     OW10723   1.841   3.899  13.997
 3346SOL    HW110724   1.880   3.814  13.961
 3346SOL    HW210725   1.743   3.901  13.978
 3347SOL     OW10726   0.075   4.069  13.067
 3347SOL    HW110727  -0.017   4.041  13.038
 3347SOL    HW210728   0.106   4.146  13.011
 3348SOL     OW10729   0.072   3.890  13.352
 3348SOL    HW110730   0.055   3.973  13.298
 3348SOL    HW210731   0.162   3.853  13.330
 3349SOL     OW10732   1.225   4.049  13.483
 3349SOL    HW110733   1.290   3.975  13.472
 3349SOL    HW210734   1.245   4.099  13.567
 3350SOL     OW10735   1.352   3.776  13.202
 3350SOL    HW110736   1.387   3.735  13.118
 3350SOL    HW210737   1.262   3.738  13.222
 3351SOL     OW10738   1.300   4.177  13.725
 3351SOL    HW110739   1.241   4.257  13.729
 3351SOL    HW210740   1.315   4.142  13.818
 3352SOL     OW10741   2.092   0.628   0.113
 3352SOL    HW110742   1.999   0.626   0.150
 3352SOL    HW210743   2.093   0.589   0.021
 3353SOL     OW10744   2.087   0.275   0.996
 3353SOL    HW110745   2.122   0.258   1.088
 3353SOL    HW210746   1.999   0.230   0.984
 3354SOL     OW10747   1.881   0.368   0.647
 3354SOL    HW110748   1.799   0.411   0.686
 3354SOL    HW210749   1.853   0.295   0.584
 3355SOL     OW10750   2.431   1.275   1.165
 3355SOL    HW110751   2.338   1.268   1.128
 3355SOL    HW210752   2.442   1.364   1.209
 3356SOL     OW10753   3.417   1.511   0.703
 3356SOL    HW110754   3.360   1.495   0.784
 3356SOL    HW210755   3.358   1.521   0.623
 3357SOL     OW10756   2.997   0.703   0.717
 3357SOL    HW110757   3.054   0.781   0.692
 3357SOL    HW210758   2.937   0.729   0.793
 3358SOL     OW10759   3.617   0.607   0.231
 3358SOL    HW110760   3.605   0.594   0.132
 3358SOL    HW210761   3.587   0.526   0.280
 3359SOL     OW10762   2.630   1.144   1.023
 3359SOL    HW110763   2.552   1.161   1.083
 3359SOL    HW210764   2.664   1.231   0.987
 3360SOL     OW10765   2.712   0.798   1.823
 3360SOL    HW110766   2.708   0.874   1.888
 3360SOL    HW210767   2.734   0.834   1.732
 3361SOL     OW10768   2.547   1.012   0.665
 3361SOL    HW110769   2.616   0.996   0.735
 3361SOL    HW210770   2.474   1.069   0.703
 3362SOL     OW10771   2.548   1.161   1.803
 3362SOL    HW110772   2.608   1.240   1.817
 3362SOL    HW210773   2.462   1.192   1.762
 3363SOL     OW10774   2.197   1.435   1.061
 3363SOL    HW110775   2.119   1.404   1.008
 3363SOL    HW210776   2.255   1.493   1.004
 3364SOL     OW10777   3.322   1.505   1.339
 3364SOL    HW110778   3.346   1.599   1.365
 3364SOL    HW210779   3.306   1.451   1.421
 3365SOL     OW10780   2.300   0.392   1.499
 3365SOL    HW110781   2.382   0.336   1.508
 3365SOL    HW210782   2.219   0.334   1.503
 3366SOL     OW10783   3.465   0.447   0.737
 3366SOL    HW110784   3.391   0.493   0.687
 3366SOL    HW210785   3.516   0.515   0.790
 3367SOL     OW10786   2.093   1.713   0.483
 3367SOL    HW110787   2.127   1.790   0.537
 3367SOL    HW210788   2.137   1.713   0.393
 3368SOL     OW10789   2.989   1.341   1.690
 3368SOL    HW110790   3.036   1.341   1.778
 3368SOL    HW210791   2.941   1.254   1.679
 3369SOL     OW10792   2.092   1.434   0.538
 3369SOL    HW110793   2.066   1.530   0.538
 3369SOL    HW210794   2.021   1.380   0.583
 3370SOL     OW10795   2.102   1.091   0.886
 3370SOL    HW110796   2.116   1.007   0.938
 3370SOL    HW210797   2.047   1.155   0.941
 3371SOL     OW10798   2.482   1.786   1.439
 3371SOL    HW110799   2.390   1.769   1.474
 3371SOL    HW210800   2.510   1.878   1.465
 3372SOL     OW10801   2.468   0.964   0.123
 3372SOL    HW110802   2.475   1.048   0.069
 3372SOL    HW210803   2.514   0.977   0.211
 3373SOL     OW10804   3.456   0.114   1.480
 3373SOL    HW110805   3.438   0.181   1.408
 3373SOL    HW210806   3.453   0.160   1.569
 3374SOL     OW10807   1.984   0.643   0.563
 3374SOL    HW110808   1.939   0.555   0.580
 3374SOL    HW210809   1.983   0.697   0.647
 3375SOL     OW10810   3.704   1.767   0.359
 3375SOL    HW110811   3.758   1.738   0.439
 3375SOL    HW210812   3.734   1.857   0.330
 3376SOL     OW10813   1.889   1.596   0.117
 3376SOL    HW110814   1.870   1.500   0.138
 3376SOL    HW210815   1.856   1.654   0.192
 3377SOL     OW10816   3.551   0.922   0.612
 3377SOL    HW110817   3.646   0.893   0.620
 3377SOL    HW210818   3.543   0.987   0.537
 3378SOL     OW10819   3.503   1.108   0.432
 3378SOL    HW110820   3.589   1.110   0.380
 3378SOL    HW210821   3.517   1.155   0.520
 3379SOL     OW10822   1.975   0.737   1.597
 3379SOL    HW110823   2.063   0.724   1.642
 3379SOL    HW210824   1.962   0.834   1.575
 3380SOL     OW10825   2.475   1.365   0.726
 3380SOL    HW110826   2.426   1.278   0.735
 3380SOL    HW210827   2.452   1.408   0.639
 3381SOL     OW10828   3.155   1.228   1.423
 3381SOL    HW110829   3.192   1.155   1.365
 3381SOL    HW210830   3.207   1.233   1.508
 3382SOL     OW10831   2.671   0.004   0.502
 3382SOL    HW110832   2.711   0.095   0.493
 3382SOL    HW210833   2.571   0.012   0.508
 3383SOL     OW10834   2.059   0.976   1.264
 3383SOL    HW110835   2.148   0.931   1.250
 3383SOL    HW210836   1.986   0.911   1.245
 3384SOL     OW10837   3.387   0.999   0.190
 3384SOL    HW110838   3.324   0.923   0.203
 3384SOL    HW210839   3.435   1.017   0.276
 3385SOL     OW10840   3.049   1.792   1.616
 3385SOL    HW110841   3.073   1.852   1.540
 3385SOL    HW210842   3.056   1.697   1.586
 3386SOL     OW10843   2.179   0.251   1.801
 3386SOL    HW110844   2.250   0.322   1.807
 3386SOL    HW210845   2.091   0.290   1.829
 3387SOL     OW10846   3.328   1.417   0.953
 3387SOL    HW110847   3.269   1.423   1.033
 3387SOL    HW210848   3.313   1.329   0.907
 3388SOL     OW10849   3.529   1.714   0.572
 3388SOL    HW110850   3.488   1.691   0.484
 3388SOL    HW210851   3.511   1.640   0.637
 3389SOL     OW10852   2.460   0.729   0.270
 3389SOL    HW110853   2.484   0.798   0.202
 3389SOL    HW210854   2.382   0.762   0.324
 3390SOL     OW10855   3.143   0.345   0.944
 3390SOL    HW110856   3.057   0.295   0.931
 3390SOL    HW210857   3.205   0.291   1.000
 3391SOL     OW10858   3.438   1.662   0.307
 3391SOL    HW110859   3.527   1.708   0.310
 3391SOL    HW210860   3.417   1.638   0.212
 3392SOL     OW10861   2.669   0.605   1.465
 3392SOL    HW110862   2.622   0.602   1.554
 3392SOL    HW210863   2.618   0.550   1.399
 3393SOL     OW10864   3.256   0.469   1.674
 3393SOL    HW110865   3.236   0.512   1.762
 3393SOL    HW210866   3.334   0.407   1.683
 3394SOL     OW10867   2.835   0.890   1.572
 3394SOL    HW110868   2.881   0.806   1.543
 3394SOL    HW210869   2.779   0.924   1.497
 3395SOL     OW10870   2.853   0.410   1.242
 3395SOL    HW110871   2.776   0.444   1.296
 3395SOL    HW210872   2.819   0.359   1.163
 3396SOL     OW10873   2.903   0.701   0.429
 3396SOL    HW110874   2.929   0.697   0.525
 3396SOL    HW210875   2.818   0.650   0.415
 3397SOL     OW10876   1.938   0.811   0.789
 3397SOL    HW110877   2.037   0.799   0.798
 3397SOL    HW210878   1.914   0.906   0.810
 3398SOL     OW10879   2.727   0.348   0.195
 3398SOL    HW110880   2.786   0.411   0.146
 3398SOL    HW210881   2.746   0.254   0.166
 3399SOL     OW10882   3.581   0.585   1.831
 3399SOL    HW110883   3.555   0.674   1.795
 3399SOL    HW210884   3.579   0.517   1.758
 3400SOL     OW10885   3.224   1.144   0.545
 3400SOL    HW110886   3.307   1.115   0.497
 3400SOL    HW210887   3.175   1.211   0.489
 3401SOL     OW10888   2.412   0.196   0.885
 3401SOL    HW110889   2.407   0.191   0.985
 3401SOL    HW210890   2.414   0.292   0.856
 3402SOL     OW10891   2.870   1.456   0.477
 3402SOL    HW110892   2.824   1.528   0.425
 3402SOL    HW210893   2.866   1.476   0.575
 3403SOL     OW10894   2.213   1.801   0.853
 3403SOL    HW110895   2.263   1.715   0.859
 3403SOL    HW210896   2.278   1.878   0.850
 3404SOL     OW10897   3.657   1.066   0.873
 3404SOL    HW110898   3.595   1.051   0.797
 3404SOL    HW210899   3.605   1.077   0.958
 3405SOL     OW10900   3.089   1.550   1.506
 3405SOL    HW110901   3.095   1.473   1.570
 3405SOL    HW210902   3.037   1.524   1.426
 3406SOL     OW10903   2.183   0.943   0.242
 3406SOL    HW110904   2.265   0.982   0.200
 3406SOL    HW210905   2.156   0.861   0.193
 3407SOL     OW10906   3.320   0.735   0.728
 3407SOL    HW110907   3.315   0.670   0.803
 3407SOL    HW210908   3.400   0.794   0.741
 3408SOL     OW10909   2.323   1.266   1.727
 3408SOL    HW110910   2.273   1.267   1.641
 3408SOL    HW210911   2.260   1.248   1.803
 3409SOL     OW10912   2.973   1.776   0.237
 3409SOL    HW110913   2.913   1.714   0.287
 3409SOL    HW210914   3.004   1.732   0.152
 3410SOL     OW10915   2.064   0.285   1.498
 3410SOL    HW110916   1.984   0.345   1.485
 3410SOL    HW210917   2.054   0.236   1.584
 3411SOL     OW10918   3.494   1.377   0.081
 3411SOL    HW110919   3.462   1.471   0.071
 3411SOL    HW210920   3.418   1.314   0.069
 3412SOL     OW10921   2.326   1.743   0.323
 3412SOL    HW110922   2.359   1.782   0.409
 3412SOL    HW210923   2.402   1.736   0.258
 3413SOL     OW10924   3.262   0.107   0.426
 3413SOL    HW110925   3.238   0.070   0.336
 3413SOL    HW210926   3.361   0.123   0.430
 3414SOL     OW10927   2.111   1.785   1.241
 3414SOL    HW110928   2.168   1.720   1.291
 3414SOL    HW210929   2.095   1.752   1.148
 3415SOL     OW10930   2.802   1.698   0.904
 3415SOL    HW110931   2.882   1.641   0.925
 3415SOL    HW210932   2.753   1.658   0.827
 3416SOL     OW10933   2.244   0.700   0.480
 3416SOL    HW110934   2.289   0.610   0.477
 3416SOL    HW210935   2.150   0.689   0.513
 3417SOL     OW10936   3.409   0.222   1.729
 3417SOL    HW110937   3.404   0.259   1.821
 3417SOL    HW210938   3.337   0.153   1.717
 3418SOL     OW10939   2.476   0.122   0.117
 3418SOL    HW110940   2.574   0.100   0.124
 3418SOL    HW210941   2.445   0.105   0.024
 3419SOL     OW10942   2.643   0.264   1.749
 3419SOL    HW110943   2.710   0.203   1.792
 3419SOL    HW210944   2.570   0.283   1.814
 3420SOL     OW10945   2.750   1.514   1.195
 3420SOL    HW110946   2.727   1.489   1.101
 3420SOL    HW210947   2.811   1.445   1.234
 3421SOL     OW10948   3.213   0.590   1.433
 3421SOL    HW110949   3.241   0.547   1.518
 3421SOL    HW210950   3.238   0.686   1.434
 3422SOL     OW10951   2.665   1.402   0.924
 3422SOL    HW110952   2.755   1.416   0.882
 3422SOL    HW210953   2.594   1.404   0.853
 3423SOL     OW10954   2.784   0.503   0.899
 3423SOL    HW110955   2.759   0.494   0.803
 3423SOL    HW210956   2.832   0.421   0.930
 3424SOL     OW10957   2.401   0.064   0.512
 3424SOL    HW110958   2.320   0.065   0.570
 3424SOL    HW210959   2.404   0.147   0.457
 3425SOL     OW10960   3.296   1.188   0.041
 3425SOL    HW110961   3.328   1.112   0.098
 3425SOL    HW210962   3.204   1.215   0.071
 3426SOL     OW10963   2.159   0.035   0.171
 3426SOL    HW110964   2.208   0.119   0.150
 3426SOL    HW210965   2.221  -0.030   0.216
 3427SOL     OW10966   2.797   0.236   0.480
 3427SOL    HW110967   2.749   0.277   0.402
 3427SOL    HW210968   2.896   0.234   0.461
 3428SOL     OW10969   2.938   0.683   1.464
 3428SOL    HW110970   2.858   0.622   1.467
 3428SOL    HW210971   3.019   0.630   1.440
 3429SOL     OW10972   3.089   1.570   0.793
 3429SOL    HW110973   3.110   1.644   0.728
 3429SOL    HW210974   3.157   1.570   0.866
 3430SOL     OW10975   2.321   1.152   0.741
 3430SOL    HW110976   2.250   1.125   0.806
 3430SOL    HW210977   2.295   1.124   0.648
 3431SOL     OW10978   3.133   1.797   0.591
 3431SOL    HW110979   3.177   1.861   0.527
 3431SOL    HW210980   3.083   1.849   0.661
 3432SOL     OW10981   2.894   0.549   0.016
 3432SOL    HW110982   2.853   0.631  -0.023
 3432SOL    HW210983   2.958   0.575   0.089
 3433SOL     OW10984   1.940   0.556   1.386
 3433SOL    HW110985   2.032   0.555   1.345
 3433SOL    HW210986   1.934   0.630   1.453
 3434SOL     OW10987   2.423   0.222   1.147
 3434SOL    HW110988   2.461   0.138   1.184
 3434SOL    HW210989   2.335   0.241   1.191
 3435SOL     OW10990   2.728   0.454   0.642
 3435SOL    HW110991   2.696   0.526   0.580
 3435SOL    HW210992   2.752   0.373   0.589
 3436SOL     OW10993   2.879   0.039   0.753
 3436SOL    HW110994   2.807   0.044   0.684
 3436SOL    HW210995   2.855  -0.030   0.822
 3437SOL     OW10996   3.291   1.173   0.867
 3437SOL    HW110997   3.236   1.089   0.860
 3437SOL    HW210998   3.317   1.202   0.775
 3438SOL     OW10999   3.328   0.590   0.992
 3438SOL    HW111000   3.298   0.495   0.999
 3438SOL    HW211001   3.401   0.606   1.058
 3439SOL     OW11002   3.719   0.833   0.377
 3439SOL    HW111003   3.761   0.769   0.441
 3439SOL    HW211004   3.681   0.782   0.299
 3440SOL     OW11005   2.350   1.385   0.174
 3440SOL    HW111006   2.263   1.370   0.221
 3440SOL    HW211007   2.333   1.411   0.079
 3441SOL     OW11008   3.526   1.280   0.657
 3441SOL    HW111009   3.625   1.288   0.671
 3441SOL    HW211010   3.481   1.364   0.688
 3442SOL     OW11011   3.252   0.575   0.078
 3442SOL    HW111012   3.198   0.554   0.159
 3442SOL    HW211013   3.343   0.534   0.087
 3443SOL     OW11014   2.389   0.256   0.328
 3443SOL    HW111015   2.416   0.197   0.253
 3443SOL    HW211016   2.389   0.351   0.297
 3444SOL     OW11017   3.616   1.223   1.588
 3444SOL    HW111018   3.707   1.184   1.575
 3444SOL    HW211019   3.624   1.319   1.612
 3445SOL     OW11020   2.926   1.347   1.340
 3445SOL    HW111021   2.846   1.324   1.395
 3445SOL    HW211022   3.009   1.321   1.389
 3446SOL     OW11023   3.454   1.629   1.625
 3446SOL    HW111024   3.481   1.663   1.535
 3446SOL    HW211025   3.533   1.591   1.671
 3447SOL     OW11026   2.973   1.195   1.100
 3447SOL    HW111027   2.933   1.239   1.181
 3447SOL    HW211028   2.932   1.232   1.017
 3448SOL     OW11029   3.500   1.099   1.079
 3448SOL    HW111030   3.505   1.180   1.138
 3448SOL    HW211031   3.414   1.101   1.028
 3449SOL     OW11032   2.777   0.089   1.402
 3449SOL    HW111033   2.802   0.069   1.307
 3449SOL    HW211034   2.849   0.145   1.444
 3450SOL     OW11035   2.842   1.116   1.719
 3450SOL    HW111036   2.743   1.122   1.729
 3450SOL    HW211037   2.865   1.036   1.663
 3451SOL     OW11038   2.567   1.050   0.368
 3451SOL    HW111039   2.553   1.057   0.467
 3451SOL    HW211040   2.651   0.999   0.350
 3452SOL     OW11041   2.272   0.813   1.251
 3452SOL    HW111042   2.358   0.825   1.301
 3452SOL    HW211043   2.230   0.726   1.278
 3453SOL     OW11044   3.136   0.386   1.262
 3453SOL    HW111045   3.157   0.460   1.326
 3453SOL    HW211046   3.047   0.403   1.219
 3454SOL     OW11047   1.926   1.564   1.331
 3454SOL    HW111048   1.880   1.646   1.297
 3454SOL    HW211049   2.024   1.583   1.340
 3455SOL     OW11050   2.229   1.100   0.501
 3455SOL    HW111051   2.222   1.183   0.445
 3455SOL    HW211052   2.233   1.020   0.441
 3456SOL     OW11053   2.428   0.537   0.865
 3456SOL    HW111054   2.440   0.603   0.791
 3456SOL    HW211055   2.474   0.571   0.948
 3457SOL     OW11056   3.114   1.348   0.388
 3457SOL    HW111057   3.164   1.425   0.428
 3457SOL    HW211058   3.019   1.350   0.420
 3458SOL     OW11059   3.134   1.445   1.142
 3458SOL    HW111060   3.181   1.458   1.229
 3458SOL    HW211061   3.068   1.371   1.151
 3459SOL     OW11062   3.444   0.639   0.472
 3459SOL    HW111063   3.413   0.700   0.545
 3459SOL    HW211064   3.494   0.691   0.403
 3460SOL     OW11065   2.216   1.510   1.329
 3460SOL    HW111066   2.195   1.466   1.242
 3460SOL    HW211067   2.313   1.536   1.332
 3461SOL     OW11068   2.264   0.751   1.598
 3461SOL    HW111069   2.332   0.806   1.551
 3461SOL    HW211070   2.304   0.663   1.625
 3462SOL     OW11071   3.449   0.779   1.670
 3462SOL    HW111072   3.357   0.817   1.665
 3462SOL    HW211073   3.509   0.826   1.605
 3463SOL     OW11074   2.875   0.105   1.770
 3463SOL    HW111075   2.881   0.190   1.718
 3463SOL    HW211076   2.907   0.029   1.713
 3464SOL     OW11077   2.366   0.050   1.740
 3464SOL    HW111078   2.324  -0.007   1.670
 3464SOL    HW211079   2.300   0.119   1.772
 3465SOL     OW11080   2.435   0.870   1.029
 3465SOL    HW111081   2.479   0.959   1.020
 3465SOL    HW211082   2.372   0.870   1.106
 3466SOL     OW11083   3.222   0.862   1.045
 3466SOL    HW111084   3.147   0.862   0.979
 3466SOL    HW211085   3.259   0.770   1.054
 3467SOL     OW11086   3.071   0.525   0.275
 3467SOL    HW111087   3.084   0.441   0.329
 3467SOL    HW211088   3.042   0.599   0.335
 3468SOL     OW11089   2.169   0.213   1.231
 3468SOL    HW111090   2.146   0.250   1.321
 3468SOL    HW211091   2.139   0.118   1.225
 3469SOL     OW11092   1.899   1.310   1.282
 3469SOL    HW111093   1.952   1.261   1.350
 3469SOL    HW211094   1.921   1.408   1.287
 3470SOL     OW11095   2.594   0.634   1.064
 3470SOL    HW111096   2.653   0.608   0.988
 3470SOL    HW211097   2.566   0.730   1.053
 3471SOL     OW11098   3.590   0.935   1.854
 3471SOL    HW111099   3.544   0.928   1.765
 3471SOL    HW211100   3.528   0.979   1.920
 3472SOL     OW11101   2.169   0.063   0.618
 3472SOL    HW111102   2.158   0.157   0.651
 3472SOL    HW211103   2.164   0.000   0.695
 3473SOL     OW11104   3.484   0.367   0.374
 3473SOL    HW111105   3.486   0.291   0.438
 3473SOL    HW211106   3.436   0.444   0.414
 3474SOL     OW11107   2.885   0.766   0.966
 3474SOL    HW111108   2.900   0.787   1.062
 3474SOL    HW211109   2.855   0.671   0.957
 3475SOL     OW11110   2.842   1.573   1.700
 3475SOL    HW111111   2.822   1.617   1.612
 3475SOL    HW211112   2.881   1.482   1.684
 3476SOL     OW11113   3.721   1.518   1.605
 3476SOL    HW111114   3.735   1.545   1.510
 3476SOL    HW211115   3.804   1.540   1.658
 3477SOL     OW11116   2.212   0.898   1.804
 3477SOL    HW111117   2.288   0.942   1.852
 3477SOL    HW211118   2.247   0.851   1.722
 3478SOL     OW11119   3.402   0.274   0.125
 3478SOL    HW111120   3.341   0.199   0.148
 3478SOL    HW211121   3.424   0.326   0.208
 3479SOL     OW11122   3.165   0.838   0.042
 3479SOL    HW111123   3.199   0.745   0.057
 3479SOL    HW211124   3.183   0.865  -0.053
 3480SOL     OW11125   2.930   1.333   0.849
 3480SOL    HW111126   2.937   1.249   0.794
 3480SOL    HW211127   2.992   1.402   0.813
 3481SOL     OW11128   2.181   0.810   0.949
 3481SOL    HW111129   2.274   0.846   0.954
 3481SOL    HW211130   2.175   0.725   1.001
 3482SOL     OW11131   2.201   0.509   1.006
 3482SOL    HW111132   2.149   0.426   0.989
 3482SOL    HW211133   2.278   0.514   0.942
 3483SOL     OW11134   3.000   0.380   1.678
 3483SOL    HW111135   2.955   0.443   1.742
 3483SOL    HW211136   3.093   0.411   1.661
 3484SOL     OW11137   3.022   0.207   1.477
 3484SOL    HW111138   3.022   0.271   1.554
 3484SOL    HW211139   3.050   0.255   1.394
 3485SOL     OW11140   1.870   1.326   0.200
 3485SOL    HW111141   1.777   1.347   0.169
 3485SOL    HW211142   1.880   1.227   0.213
 3486SOL     OW11143   1.950   1.801   0.927
 3486SOL    HW111144   1.908   1.715   0.900
 3486SOL    HW211145   2.044   1.804   0.893
 3487SOL     OW11146   2.366   1.568   0.910
 3487SOL    HW111147   2.432   1.642   0.919
 3487SOL    HW211148   2.410   1.489   0.868
 3488SOL     OW11149   2.864   0.796   1.238
 3488SOL    HW111150   2.905   0.764   1.324
 3488SOL    HW211151   2.768   0.769   1.235
 3489SOL     OW11152   1.902   0.544   1.114
 3489SOL    HW111153   1.987   0.511   1.073
 3489SOL    HW211154   1.915   0.559   1.212
 3490SOL     OW11155   2.051   0.520   1.722
 3490SOL    HW111156   2.110   0.480   1.652
 3490SOL    HW211157   1.993   0.591   1.681
 3491SOL     OW11158   3.231   0.950   1.660
 3491SOL    HW111159   3.270   1.039   1.680
 3491SOL    HW211160   3.241   0.930   1.563
 3492SOL     OW11161   2.677   0.572   0.325
 3492SOL    HW111162   2.684   0.483   0.279
 3492SOL    HW211163   2.583   0.606   0.317
 3493SOL     OW11164   3.519   0.604   1.206
 3493SOL    HW111165   3.481   0.535   1.268
 3493SOL    HW211166   3.601   0.568   1.162
 3494SOL     OW11167   2.114   1.564   1.744
 3494SOL    HW111168   2.084   1.621   1.820
 3494SOL    HW211169   2.107   1.467   1.770
 3495SOL     OW11170   2.533   0.464   1.269
 3495SOL    HW111171   2.499   0.375   1.239
 3495SOL    HW211172   2.559   0.518   1.189
 3496SOL     OW11173   2.792   1.678   1.465
 3496SOL    HW111174   2.768   1.660   1.370
 3496SOL    HW211175   2.822   1.772   1.475
 3497SOL     OW11176   2.335   0.500   0.191
 3497SOL    HW111177   2.396   0.580   0.195
 3497SOL    HW211178   2.240   0.531   0.198
 3498SOL     OW11179   2.021   1.137   1.466
 3498SOL    HW111180   2.043   1.076   1.542
 3498SOL    HW211181   2.031   1.088   1.380
 3499SOL     OW11182   3.209   1.059   1.234
 3499SOL    HW111183   3.233   0.996   1.160
 3499SOL    HW211184   3.119   1.099   1.216
 3500SOL     OW11185   3.164   0.855   0.309
 3500SOL    HW111186   3.078   0.824   0.351
 3500SOL    HW211187   3.160   0.841   0.210
 3501SOL     OW11188   3.621   1.747   1.154
 3501SOL    HW111189   3.682   1.777   1.081
 3501SOL    HW211190   3.583   1.658   1.132
 3502SOL     OW11191   3.114   1.731   1.128
 3502SOL    HW111192   3.198   1.736   1.074
 3502SOL    HW211193   3.091   1.635   1.146
 3503SOL     OW11194   1.945   1.258   1.022
 3503SOL    HW111195   1.940   1.257   1.122
 3503SOL    HW211196   1.862   1.217   0.984
 3504SOL     OW11197   2.550   1.662   1.716
 3504SOL    HW111198   2.494   1.743   1.725
 3504SOL    HW211199   2.602   1.666   1.630
 3505SOL     OW11200   2.765   0.086   0.133
 3505SOL    HW111201   2.816   0.087   0.047
 3505SOL    HW211202   2.821   0.044   0.204
 3506SOL     OW11203   3.588   0.135   0.523
 3506SOL    HW111204   3.661   0.118   0.456
 3506SOL    HW211205   3.557   0.048   0.561
 3507SOL     OW11206   3.250   1.573   0.477
 3507SOL    HW111207   3.317   1.585   0.403
 3507SOL    HW211208   3.210   1.662   0.500
 3508SOL     OW11209   1.992   1.794   1.851
 3508SOL    HW111210   1.951   1.720   1.904
 3508SOL    HW211211   2.056   1.845   1.909
 3509SOL     OW11212   3.142   0.927   0.672
 3509SOL    HW111213   3.202   0.846   0.674
 3509SOL    HW211214   3.182   0.996   0.612
 3510SOL     OW11215   2.692   1.273   1.422
 3510SOL    HW111216   2.687   1.306   1.517
 3510SOL    HW211217   2.606   1.292   1.376
 3511SOL     OW11218   2.534   1.616   0.154
 3511SOL    HW111219   2.543   1.626   0.055
 3511SOL    HW211220   2.494   1.527   0.175
 3512SOL     OW11221   3.512   1.720   1.394
 3512SOL    HW111222   3.565   1.730   1.310
 3512SOL    HW211223   3.485   1.810   1.428
 3513SOL     OW11224   3.703   0.175   0.963
 3513SOL    HW111225   3.742   0.090   0.927
 3513SOL    HW211226   3.605   0.177   0.944
 3514SOL     OW11227   2.125   0.326   0.720
 3514SOL    HW111228   2.046   0.377   0.686
 3514SOL    HW211229   2.116   0.311   0.818
 3515SOL     OW11230   3.056   1.612   0.031
 3515SOL    HW111231   3.062   1.519   0.068
 3515SOL    HW211232   2.997   1.612  -0.049
 3516SOL     OW11233   2.684   1.002   1.372
 3516SOL    HW111234   2.724   1.001   1.280
 3516SOL    HW211235   2.694   1.094   1.412
 3517SOL     OW11236   2.778   0.910   0.291
 3517SOL    HW111237   2.841   0.948   0.223
 3517SOL    HW211238   2.818   0.827   0.330
 3518SOL     OW11239   3.366   1.607   0.044
 3518SOL    HW111240   3.274   1.644   0.051
 3518SOL    HW211241   3.404   1.627  -0.046
 3519SOL     OW11242   2.234   1.288   1.490
 3519SOL    HW111243   2.221   1.381   1.456
 3519SOL    HW211244   2.150   1.236   1.477
 3520SOL     OW11245   3.476   1.292   1.289
 3520SOL    HW111246   3.536   1.295   1.369
 3520SOL    HW211247   3.401   1.356   1.302
 3521SOL     OW11248   2.901   1.098   0.696
 3521SOL    HW111249   2.831   1.051   0.750
 3521SOL    HW211250   2.960   1.030   0.653
 3522SOL     OW11251   2.876   0.236   0.971
 3522SOL    HW111252   2.868   0.200   0.878
 3522SOL    HW211253   2.874   0.160   1.036
 3523SOL     OW11254   2.452   1.487   0.491
 3523SOL    HW111255   2.494   1.429   0.421
 3523SOL    HW211256   2.408   1.566   0.447
 3524SOL     OW11257   3.571   0.385   1.381
 3524SOL    HW111258   3.644   0.454   1.385
 3524SOL    HW211259   3.599   0.310   1.322
 3525SOL     OW11260   2.117   1.348   0.290
 3525SOL    HW111261   2.021   1.349   0.263
 3525SOL    HW211262   2.129   1.401   0.374
 3526SOL     OW11263   1.967   1.013   1.726
 3526SOL    HW111264   1.890   0.980   1.780
 3526SOL    HW211265   2.052   0.983   1.768
 3527SOL     OW11266   2.534   0.203   1.489
 3527SOL    HW111267   2.624   0.187   1.449
 3527SOL    HW211268   2.542   0.208   1.588
 3528SOL     OW11269   1.937   0.345   0.033
 3528SOL    HW111270   1.845   0.317   0.004
 3528SOL    HW211271   1.968   0.422  -0.023
 3529SOL     OW11272   3.302   0.856   1.398
 3529SOL    HW111273   3.245   0.908   1.335
 3529SOL    HW211274   3.398   0.868   1.374
 3530SOL     OW11275   1.934   0.166   0.318
 3530SOL    HW111276   1.917   0.249   0.264
 3530SOL    HW211277   2.024   0.129   0.296
 3531SOL     OW11278   3.045   1.335   0.119
 3531SOL    HW111279   2.946   1.324   0.121
 3531SOL    HW211280   3.079   1.350   0.212
 3532SOL     OW11281   2.475   0.842   1.431
 3532SOL    HW111282   2.531   0.923   1.414
 3532SOL    HW211283   2.534   0.762   1.434
 3533SOL     OW11284   3.355   1.767   0.959
 3533SOL    HW111285   3.388   1.831   0.890
 3533SOL    HW211286   3.421   1.761   1.034
 3534SOL     OW11287   2.578   0.565   1.708
 3534SOL    HW111288   2.597   0.630   1.782
 3534SOL    HW211289   2.638   0.485   1.717
 3535SOL     OW11290   3.312   1.220   1.633
 3535SOL    HW111291   3.303   1.210   1.732
 3535SOL    HW211292   3.408   1.213   1.607
 3536SOL     OW11293   2.252   1.741   1.560
 3536SOL    HW111294   2.161   1.782   1.558
 3536SOL    HW211295   2.245   1.647   1.592
 3537SOL     OW11296   3.536   0.883   1.254
 3537SOL    HW111297   3.509   0.794   1.217
 3537SOL    HW211298   3.537   0.951   1.181
 3538SOL     OW11299   3.087   0.325   0.449
 3538SOL    HW111300   3.152   0.251   0.438
 3538SOL    HW211301   3.107   0.375   0.533
 3539SOL     OW11302   2.456   0.745   0.652
 3539SOL    HW111303   2.506   0.830   0.633
 3539SOL    HW211304   2.368   0.747   0.604
 3540SOL     OW11305   3.639   0.342   1.642
 3540SOL    HW111306   3.622   0.373   1.548
 3540SOL    HW211307   3.555   0.305   1.680
 3541SOL     OW11308   3.592   0.934   1.517
 3541SOL    HW111309   3.630   1.025   1.532
 3541SOL    HW211310   3.584   0.917   1.418
 3542SOL     OW11311   2.721   1.374   0.016
 3542SOL    HW111312   2.675   1.389   0.104
 3542SOL    HW211313   2.765   1.459  -0.014
 3543SOL     OW11314   2.523   1.790   0.953
 3543SOL    HW111315   2.477   1.878   0.940
 3543SOL    HW211316   2.622   1.802   0.946
 3544SOL     OW11317   2.721   0.956   0.861
 3544SOL    HW111318   2.775   0.887   0.909
 3544SOL    HW211319   2.689   1.025   0.927
 3545SOL     OW11320   2.945   0.984   0.087
 3545SOL    HW111321   2.922   1.037   0.005
 3545SOL    HW211322   3.026   0.928   0.068
 3546SOL     OW11323   3.723   1.569   0.851
 3546SOL    HW111324   3.652   1.557   0.781
 3546SOL    HW211325   3.724   1.490   0.911
 3547SOL     OW11326   2.083   1.314   1.844
 3547SOL    HW111327   2.018   1.241   1.823
 3547SOL    HW211328   2.087   1.328   1.942
 3548SOL     OW11329   1.941   1.240   0.653
 3548SOL    HW111330   1.940   1.193   0.741
 3548SOL    HW211331   2.023   1.212   0.602
 3549SOL     OW11332   2.534   1.391   1.624
 3549SOL    HW111333   2.456   1.341   1.662
 3549SOL    HW211334   2.531   1.486   1.655
 3550SOL     OW11335   3.686   0.192   1.227
 3550SOL    HW111336   3.682   0.102   1.271
 3550SOL    HW211337   3.689   0.181   1.128
 3551SOL     OW11338   2.290   0.424   0.520
 3551SOL    HW111339   2.320   0.352   0.458
 3551SOL    HW211340   2.251   0.384   0.603
 3552SOL     OW11341   3.567   1.487   1.104
 3552SOL    HW111342   3.474   1.462   1.077
 3552SOL    HW211343   3.593   1.437   1.186
 3553SOL     OW11344   2.179   0.547   1.280
 3553SOL    HW111345   2.217   0.488   1.352
 3553SOL    HW211346   2.219   0.521   1.192
 3554SOL     OW11347   2.674   1.586   0.687
 3554SOL    HW111348   2.706   1.596   0.593
 3554SOL    HW211349   2.595   1.524   0.689
 3555SOL     OW11350   3.286   0.214   1.112
 3555SOL    HW111351   3.338   0.149   1.167
 3555SOL    HW211352   3.237   0.277   1.173
 3556SOL     OW11353   2.863   0.034   1.154
 3556SOL    HW111354   2.800  -0.038   1.123
 3556SOL    HW211355   2.956  -0.002   1.154
 3557SOL     OW11356   2.632   1.330   0.301
 3557SOL    HW111357   2.586   1.243   0.318
 3557SOL    HW211358   2.723   1.327   0.342
 3558SOL     OW11359   2.480   1.567   1.284
 3558SOL    HW111360   2.475   1.649   1.341
 3558SOL    HW211361   2.569   1.564   1.239
 3559SOL     OW11362   3.214   0.052   0.168
 3559SOL    HW111363   3.249   0.011   0.084
 3559SOL    HW211364   3.124   0.014   0.188
 3560SOL     OW11365   3.162   0.453   0.691
 3560SOL    HW111366   3.103   0.533   0.695
 3560SOL    HW211367   3.177   0.418   0.784
 3561SOL     OW11368   3.455   0.221   0.882
 3561SOL    HW111369   3.371   0.220   0.936
 3561SOL    HW211370   3.457   0.304   0.826
 3562SOL     OW11371   1.901   1.077   0.300
 3562SOL    HW111372   2.000   1.066   0.291
 3562SOL    HW211373   1.861   0.991   0.332
 3563SOL     OW11374   2.737   1.646   0.337
 3563SOL    HW111375   2.660   1.611   0.283
 3563SOL    HW211376   2.705   1.717   0.399
 3564SOL     OW11377   2.092   0.628   1.975
 3564SOL    HW111378   1.999   0.626   2.012
 3564SOL    HW211379   2.093   0.589   1.883
 3565SOL     OW11380   2.087   0.275   2.858
 3565SOL    HW111381   2.122   0.258   2.950
 3565SOL    HW211382   1.999   0.230   2.846
 3566SOL     OW11383   1.881   0.368   2.509
 3566SOL    HW111384   1.799   0.411   2.548
 3566SOL    HW211385   1.853   0.295   2.446
 3567SOL     OW11386   2.431   1.275   3.027
 3567SOL    HW111387   2.338   1.268   2.990
 3567SOL    HW211388   2.442   1.364   3.071
 3568SOL     OW11389   3.417   1.511   2.565
 3568SOL    HW111390   3.360   1.495   2.646
 3568SOL    HW211391   3.358   1.521   2.485
 3569SOL     OW11392   2.997   0.703   2.579
 3569SOL    HW111393   3.054   0.781   2.554
 3569SOL    HW211394   2.937   0.729   2.655
 3570SOL     OW11395   3.617   0.607   2.093
 3570SOL    HW111396   3.605   0.594   1.994
 3570SOL    HW211397   3.587   0.526   2.142
 3571SOL     OW11398   2.630   1.144   2.885
 3571SOL    HW111399   2.552   1.161   2.945
 3571SOL    HW211400   2.664   1.231   2.849
 3572SOL     OW11401   2.712   0.798   3.685
 3572SOL    HW111402   2.708   0.874   3.750
 3572SOL    HW211403   2.734   0.834   3.594
 3573SOL     OW11404   2.547   1.012   2.527
 3573SOL    HW111405   2.616   0.996   2.597
 3573SOL    HW211406   2.474   1.069   2.565
 3574SOL     OW11407   2.548   1.161   3.665
 3574SOL    HW111408   2.608   1.240   3.679
 3574SOL    HW211409   2.462   1.192   3.624
 3575SOL     OW11410   2.197   1.435   2.923
 3575SOL    HW111411   2.119   1.404   2.870
 3575SOL    HW211412   2.255   1.493   2.866
 3576SOL     OW11413   3.322   1.505   3.201
 3576SOL    HW111414   3.346   1.599   3.227
 3576SOL    HW211415   3.306   1.451   3.283
 3577SOL     OW11416   2.300   0.392   3.361
 3577SOL    HW111417   2.382   0.336   3.370
 3577SOL    HW211418   2.219   0.334   3.365
 3578SOL     OW11419   3.465   0.447   2.599
 3578SOL    HW111420   3.391   0.493   2.549
 3578SOL    HW211421   3.516   0.515   2.652
 3579SOL     OW11422   2.093   1.713   2.345
 3579SOL    HW111423   2.127   1.790   2.399
 3579SOL    HW211424   2.137   1.713   2.255
 3580SOL     OW11425   2.989   1.341   3.552
 3580SOL    HW111426   3.036   1.341   3.640
 3580SOL    HW211427   2.941   1.254   3.541
 3581SOL     OW11428   2.092   1.434   2.400
 3581SOL    HW111429   2.066   1.530   2.400
 3581SOL    HW211430   2.021   1.380   2.445
 3582SOL     OW11431   2.102   1.091   2.748
 3582SOL    HW111432   2.116   1.007   2.800
 3582SOL    HW211433   2.047   1.155   2.803
 3583SOL     OW11434   2.482   1.786   3.301
 3583SOL    HW111435   2.390   1.769   3.336
 3583SOL    HW211436   2.510   1.878   3.327
 3584SOL     OW11437   2.468   0.964   1.985
 3584SOL    HW111438   2.475   1.048   1.931
 3584SOL    HW211439   2.514   0.977   2.073
 3585SOL     OW11440   3.456   0.114   3.342
 3585SOL    HW111441   3.438   0.181   3.270
 3585SOL    HW211442   3.453   0.160   3.431
 3586SOL     OW11443   1.984   0.643   2.425
 3586SOL    HW111444   1.939   0.555   2.442
 3586SOL    HW211445   1.983   0.697   2.509
 3587SOL     OW11446   3.704   1.767   2.221
 3587SOL    HW111447   3.758   1.738   2.301
 3587SOL    HW211448   3.734   1.857   2.192
 3588SOL     OW11449   1.889   1.596   1.979
 3588SOL    HW111450   1.870   1.500   2.000
 3588SOL    HW211451   1.856   1.654   2.054
 3589SOL     OW11452   3.551   0.922   2.474
 3589SOL    HW111453   3.646   0.893   2.482
 3589SOL    HW211454   3.543   0.987   2.399
 3590SOL     OW11455   3.503   1.108   2.294
 3590SOL    HW111456   3.589   1.110   2.242
 3590SOL    HW211457   3.517   1.155   2.382
 3591SOL     OW11458   1.975   0.737   3.459
 3591SOL    HW111459   2.063   0.724   3.504
 3591SOL    HW211460   1.962   0.834   3.437
 3592SOL     OW11461   2.475   1.365   2.588
 3592SOL    HW111462   2.426   1.278   2.597
 3592SOL    HW211463   2.452   1.408   2.501
 3593SOL     OW11464   3.155   1.228   3.285
 3593SOL    HW111465   3.192   1.155   3.227
 3593SOL    HW211466   3.207   1.233   3.370
 3594SOL     OW11467   2.671   0.004   2.364
 3594SOL    HW111468   2.711   0.095   2.355
 3594SOL    HW211469   2.571   0.012   2.370
 3595SOL     OW11470   2.059   0.976   3.126
 3595SOL    HW111471   2.148   0.931   3.112
 3595SOL    HW211472   1.986   0.911   3.107
 3596SOL     OW11473   3.387   0.999   2.052
 3596SOL    HW111474   3.324   0.923   2.065
 3596SOL    HW211475   3.435   1.017   2.138
 3597SOL     OW11476   3.049   1.792   3.478
 3597SOL    HW111477   3.073   1.852   3.402
 3597SOL    HW211478   3.056   1.697   3.448
 3598SOL     OW11479   2.179   0.251   3.663
 3598SOL    HW111480   2.250   0.322   3.669
 3598SOL    HW211481   2.091   0.290   3.691
 3599SOL     OW11482   3.328   1.417   2.815
 3599SOL    HW111483   3.269   1.423   2.895
 3599SOL    HW211484   3.313   1.329   2.769
 3600SOL     OW11485   3.529   1.714   2.434
 3600SOL    HW111486   3.488   1.691   2.346
 3600SOL    HW211487   3.511   1.640   2.499
 3601SOL     OW11488   2.460   0.729   2.132
 3601SOL    HW111489   2.484   0.798   2.064
 3601SOL    HW211490   2.382   0.762   2.186
 3602SOL     OW11491   3.143   0.345   2.806
 3602SOL    HW111492   3.057   0.295   2.793
 3602SOL    HW211493   3.205   0.291   2.862
 3603SOL     OW11494   3.438   1.662   2.169
 3603SOL    HW111495   3.527   1.708   2.172
 3603SOL    HW211496   3.417   1.638   2.074
 3604SOL     OW11497   2.669   0.605   3.327
 3604SOL    HW111498   2.622   0.602   3.416
 3604SOL    HW211499   2.618   0.550   3.261
 3605SOL     OW11500   3.256   0.469   3.536
 3605SOL    HW111501   3.236   0.512   3.624
 3605SOL    HW211502   3.334   0.407   3.545
 3606SOL     OW11503   2.835   0.890   3.434
 3606SOL    HW111504   2.881   0.806   3.405
 3606SOL    HW211505   2.779   0.924   3.359
 3607SOL     OW11506   2.853   0.410   3.104
 3607SOL    HW111507   2.776   0.444   3.158
 3607SOL    HW211508   2.819   0.359   3.025
 3608SOL     OW11509   2.903   0.701   2.291
 3608SOL    HW111510   2.929   0.697   2.387
 3608SOL    HW211511   2.818   0.650   2.277
 3609SOL     OW11512   1.938   0.811   2.651
 3609SOL    HW111513   2.037   0.799   2.660
 3609SOL    HW211514   1.914   0.906   2.672
 3610SOL     OW11515   2.727   0.348   2.057
 3610SOL    HW111516   2.786   0.411   2.008
 3610SOL    HW211517   2.746   0.254   2.028
 3611SOL     OW11518   3.581   0.585   3.693
 3611SOL    HW111519   3.555   0.674   3.657
 3611SOL    HW211520   3.579   0.517   3.620
 3612SOL     OW11521   3.224   1.144   2.407
 3612SOL    HW111522   3.307   1.115   2.359
 3612SOL    HW211523   3.175   1.211   2.351
 3613SOL     OW11524   2.412   0.196   2.747
 3613SOL    HW111525   2.407   0.191   2.847
 3613SOL    HW211526   2.414   0.292   2.718
 3614SOL     OW11527   2.870   1.456   2.339
 3614SOL    HW111528   2.824   1.528   2.287
 3614SOL    HW211529   2.866   1.476   2.437
 3615SOL     OW11530   2.213   1.801   2.715
 3615SOL    HW111531   2.263   1.715   2.721
 3615SOL    HW211532   2.278   1.878   2.712
 3616SOL     OW11533   3.657   1.066   2.735
 3616SOL    HW111534   3.595   1.051   2.659
 3616SOL    HW211535   3.605   1.077   2.820
 3617SOL     OW11536   3.089   1.550   3.368
 3617SOL    HW111537   3.095   1.473   3.432
 3617SOL    HW211538   3.037   1.524   3.288
 3618SOL     OW11539   2.183   0.943   2.104
 3618SOL    HW111540   2.265   0.982   2.062
 3618SOL    HW211541   2.156   0.861   2.055
 3619SOL     OW11542   3.320   0.735   2.590
 3619SOL    HW111543   3.315   0.670   2.665
 3619SOL    HW211544   3.400   0.794   2.603
 3620SOL     OW11545   2.323   1.266   3.589
 3620SOL    HW111546   2.273   1.267   3.503
 3620SOL    HW211547   2.260   1.248   3.665
 3621SOL     OW11548   2.973   1.776   2.099
 3621SOL    HW111549   2.913   1.714   2.149
 3621SOL    HW211550   3.004   1.732   2.014
 3622SOL     OW11551   2.064   0.285   3.360
 3622SOL    HW111552   1.984   0.345   3.347
 3622SOL    HW211553   2.054   0.236   3.446
 3623SOL     OW11554   3.494   1.377   1.943
 3623SOL    HW111555   3.462   1.471   1.933
 3623SOL    HW211556   3.418   1.314   1.931
 3624SOL     OW11557   2.326   1.743   2.185
 3624SOL    HW111558   2.359   1.782   2.271
 3624SOL    HW211559   2.402   1.736   2.120
 3625SOL     OW11560   3.262   0.107   2.288
 3625SOL    HW111561   3.238   0.070   2.198
 3625SOL    HW211562   3.361   0.123   2.292
 3626SOL     OW11563   2.111   1.785   3.103
 3626SOL    HW111564   2.168   1.720   3.153
 3626SOL    HW211565   2.095   1.752   3.010
 3627SOL     OW11566   2.802   1.698   2.766
 3627SOL    HW111567   2.882   1.641   2.787
 3627SOL    HW211568   2.753   1.658   2.689
 3628SOL     OW11569   2.244   0.700   2.342
 3628SOL    HW111570   2.289   0.610   2.339
 3628SOL    HW211571   2.150   0.689   2.375
 3629SOL     OW11572   3.409   0.222   3.591
 3629SOL    HW111573   3.404   0.259   3.683
 3629SOL    HW211574   3.337   0.153   3.579
 3630SOL     OW11575   2.476   0.122   1.979
 3630SOL    HW111576   2.574   0.100   1.986
 3630SOL    HW211577   2.445   0.105   1.886
 3631SOL     OW11578   2.643   0.264   3.611
 3631SOL    HW111579   2.710   0.203   3.654
 3631SOL    HW211580   2.570   0.283   3.676
 3632SOL     OW11581   2.750   1.514   3.057
 3632SOL    HW111582   2.727   1.489   2.963
 3632SOL    HW211583   2.811   1.445   3.096
 3633SOL     OW11584   3.213   0.590   3.295
 3633SOL    HW111585   3.241   0.547   3.380
 3633SOL    HW211586   3.238   0.686   3.296
 3634SOL     OW11587   2.665   1.402   2.786
 3634SOL    HW111588   2.755   1.416   2.744
 3634SOL    HW211589   2.594   1.404   2.715
 3635SOL     OW11590   2.784   0.503   2.761
 3635SOL    HW111591   2.759   0.494   2.665
 3635SOL    HW211592   2.832   0.421   2.792
 3636SOL     OW11593   2.401   0.064   2.374
 3636SOL    HW111594   2.320   0.065   2.432
 3636SOL    HW211595   2.404   0.147   2.319
 3637SOL     OW11596   3.296   1.188   1.903
 3637SOL    HW111597   3.328   1.112   1.960
 3637SOL    HW211598   3.204   1.215   1.933
 3638SOL     OW11599   2.159   0.035   2.033
 3638SOL    HW111600   2.208   0.119   2.012
 3638SOL    HW211601   2.221  -0.030   2.078
 3639SOL     OW11602   2.797   0.236   2.342
 3639SOL    HW111603   2.749   0.277   2.264
 3639SOL    HW211604   2.896   0.234   2.323
 3640SOL     OW11605   2.938   0.683   3.326
 3640SOL    HW111606   2.858   0.622   3.329
 3640SOL    HW211607   3.019   0.630   3.302
 3641SOL     OW11608   3.089   1.570   2.655
 3641SOL    HW111609   3.110   1.644   2.590
 3641SOL    HW211610   3.157   1.570   2.728
 3642SOL     OW11611   2.321   1.152   2.603
 3642SOL    HW111612   2.250   1.125   2.668
 3642SOL    HW211613   2.295   1.124   2.510
 3643SOL     OW11614   3.133   1.797   2.453
 3643SOL    HW111615   3.177   1.861   2.389
 3643SOL    HW211616   3.083   1.849   2.523
 3644SOL     OW11617   2.894   0.549   1.878
 3644SOL    HW111618   2.853   0.631   1.839
 3644SOL    HW211619   2.958   0.575   1.951
 3645SOL     OW11620   1.940   0.556   3.248
 3645SOL    HW111621   2.032   0.555   3.207
 3645SOL    HW211622   1.934   0.630   3.315
 3646SOL     OW11623   2.423   0.222   3.009
 3646SOL    HW111624   2.461   0.138   3.046
 3646SOL    HW211625   2.335   0.241   3.053
 3647SOL     OW11626   2.728   0.454   2.504
 3647SOL    HW111627   2.696   0.526   2.442
 3647SOL    HW211628   2.752   0.373   2.451
 3648SOL     OW11629   2.879   0.039   2.615
 3648SOL    HW111630   2.807   0.044   2.546
 3648SOL    HW211631   2.855  -0.030   2.684
 3649SOL     OW11632   3.291   1.173   2.729
 3649SOL    HW111633   3.236   1.089   2.722
 3649SOL    HW211634   3.317   1.202   2.637
 3650SOL     OW11635   3.328   0.590   2.854
 3650SOL    HW111636   3.298   0.495   2.861
 3650SOL    HW211637   3.401   0.606   2.920
 3651SOL     OW11638   3.719   0.833   2.239
 3651SOL    HW111639   3.761   0.769   2.303
 3651SOL    HW211640   3.681   0.782   2.161
 3652SOL     OW11641   2.350   1.385   2.036
 3652SOL    HW111642   2.263   1.370   2.083
 3652SOL    HW211643   2.333   1.411   1.941
 3653SOL     OW11644   3.526   1.280   2.519
 3653SOL    HW111645   3.625   1.288   2.533
 3653SOL    HW211646   3.481   1.364   2.550
 3654SOL     OW11647   3.252   0.575   1.940
 3654SOL    HW111648   3.198   0.554   2.021
 3654SOL    HW211649   3.343   0.534   1.949
 3655SOL     OW11650   2.389   0.256   2.190
 3655SOL    HW111651   2.416   0.197   2.115
 3655SOL    HW211652   2.389   0.351   2.159
 3656SOL     OW11653   3.616   1.223   3.450
 3656SOL    HW111654   3.707   1.184   3.437
 3656SOL    HW211655   3.624   1.319   3.474
 3657SOL     OW11656   2.926   1.347   3.202
 3657SOL    HW111657   2.846   1.324   3.257
 3657SOL    HW211658   3.009   1.321   3.251
 3658SOL     OW11659   3.454   1.629   3.487
 3658SOL    HW111660   3.481   1.663   3.397
 3658SOL    HW211661   3.533   1.591   3.533
 3659SOL     OW11662   2.973   1.195   2.962
 3659SOL    HW111663   2.933   1.239   3.043
 3659SOL    HW211664   2.932   1.232   2.879
 3660SOL     OW11665   3.500   1.099   2.941
 3660SOL    HW111666   3.505   1.180   3.000
 3660SOL    HW211667   3.414   1.101   2.890
 3661SOL     OW11668   2.777   0.089   3.264
 3661SOL    HW111669   2.802   0.069   3.169
 3661SOL    HW211670   2.849   0.145   3.306
 3662SOL     OW11671   2.842   1.116   3.581
 3662SOL    HW111672   2.743   1.122   3.591
 3662SOL    HW211673   2.865   1.036   3.525
 3663SOL     OW11674   2.567   1.050   2.230
 3663SOL    HW111675   2.553   1.057   2.329
 3663SOL    HW211676   2.651   0.999   2.212
 3664SOL     OW11677   2.272   0.813   3.113
 3664SOL    HW111678   2.358   0.825   3.163
 3664SOL    HW211679   2.230   0.726   3.140
 3665SOL     OW11680   3.136   0.386   3.124
 3665SOL    HW111681   3.157   0.460   3.188
 3665SOL    HW211682   3.047   0.403   3.081
 3666SOL     OW11683   1.926   1.564   3.193
 3666SOL    HW111684   1.880   1.646   3.159
 3666SOL    HW211685   2.024   1.583   3.202
 3667SOL     OW11686   2.229   1.100   2.363
 3667SOL    HW111687   2.222   1.183   2.307
 3667SOL    HW211688   2.233   1.020   2.303
 3668SOL     OW11689   2.428   0.537   2.727
 3668SOL    HW111690   2.440   0.603   2.653
 3668SOL    HW211691   2.474   0.571   2.810
 3669SOL     OW11692   3.114   1.348   2.250
 3669SOL    HW111693   3.164   1.425   2.290
 3669SOL    HW211694   3.019   1.350   2.282
 3670SOL     OW11695   3.134   1.445   3.004
 3670SOL    HW111696   3.181   1.458   3.091
 3670SOL    HW211697   3.068   1.371   3.013
 3671SOL     OW11698   3.444   0.639   2.334
 3671SOL    HW111699   3.413   0.700   2.407
 3671SOL    HW211700   3.494   0.691   2.265
 3672SOL     OW11701   2.216   1.510   3.191
 3672SOL    HW111702   2.195   1.466   3.104
 3672SOL    HW211703   2.313   1.536   3.194
 3673SOL     OW11704   2.264   0.751   3.460
 3673SOL    HW111705   2.332   0.806   3.413
 3673SOL    HW211706   2.304   0.663   3.487
 3674SOL     OW11707   3.449   0.779   3.532
 3674SOL    HW111708   3.357   0.817   3.527
 3674SOL    HW211709   3.509   0.826   3.467
 3675SOL     OW11710   2.875   0.105   3.632
 3675SOL    HW111711   2.881   0.190   3.580
 3675SOL    HW211712   2.907   0.029   3.575
 3676SOL     OW11713   2.366   0.050   3.602
 3676SOL    HW111714   2.324  -0.007   3.532
 3676SOL    HW211715   2.300   0.119   3.634
 3677SOL     OW11716   2.435   0.870   2.891
 3677SOL    HW111717   2.479   0.959   2.882
 3677SOL    HW211718   2.372   0.870   2.968
 3678SOL     OW11719   3.222   0.862   2.907
 3678SOL    HW111720   3.147   0.862   2.841
 3678SOL    HW211721   3.259   0.770   2.916
 3679SOL     OW11722   3.071   0.525   2.137
 3679SOL    HW111723   3.084   0.441   2.191
 3679SOL    HW211724   3.042   0.599   2.197
 3680SOL     OW11725   2.169   0.213   3.093
 3680SOL    HW111726   2.146   0.250   3.183
 3680SOL    HW211727   2.139   0.118   3.087
 3681SOL     OW11728   1.899   1.310   3.144
 3681SOL    HW111729   1.952   1.261   3.212
 3681SOL    HW211730   1.921   1.408   3.149
 3682SOL     OW11731   2.594   0.634   2.926
 3682SOL    HW111732   2.653   0.608   2.850
 3682SOL    HW211733   2.566   0.730   2.915
 3683SOL     OW11734   3.590   0.935   3.716
 3683SOL    HW111735   3.544   0.928   3.627
 3683SOL    HW211736   3.528   0.979   3.782
 3684SOL     OW11737   2.169   0.063   2.480
 3684SOL    HW111738   2.158   0.157   2.513
 3684SOL    HW211739   2.164   0.000   2.557
 3685SOL     OW11740   3.484   0.367   2.236
 3685SOL    HW111741   3.486   0.291   2.300
 3685SOL    HW211742   3.436   0.444   2.276
 3686SOL     OW11743   2.885   0.766   2.828
 3686SOL    HW111744   2.900   0.787   2.924
 3686SOL    HW211745   2.855   0.671   2.819
 3687SOL     OW11746   2.842   1.573   3.562
 3687SOL    HW111747   2.822   1.617   3.474
 3687SOL    HW211748   2.881   1.482   3.546
 3688SOL     OW11749   3.721   1.518   3.467
 3688SOL    HW111750   3.735   1.545   3.372
 3688SOL    HW211751   3.804   1.540   3.520
 3689SOL     OW11752   2.212   0.898   3.666
 3689SOL    HW111753   2.288   0.942   3.714
 3689SOL    HW211754   2.247   0.851   3.584
 3690SOL     OW11755   3.402   0.274   1.987
 3690SOL    HW111756   3.341   0.199   2.010
 3690SOL    HW211757   3.424   0.326   2.070
 3691SOL     OW11758   3.165   0.838   1.904
 3691SOL    HW111759   3.199   0.745   1.919
 3691SOL    HW211760   3.183   0.865   1.809
 3692SOL     OW11761   2.930   1.333   2.711
 3692SOL    HW111762   2.937   1.249   2.656
 3692SOL    HW211763   2.992   1.402   2.675
 3693SOL     OW11764   2.181   0.810   2.811
 3693SOL    HW111765   2.274   0.846   2.816
 3693SOL    HW211766   2.175   0.725   2.863
 3694SOL     OW11767   2.201   0.509   2.868
 3694SOL    HW111768   2.149   0.426   2.851
 3694SOL    HW211769   2.278   0.514   2.804
 3695SOL     OW11770   3.000   0.380   3.540
 3695SOL    HW111771   2.955   0.443   3.604
 3695SOL    HW211772   3.093   0.411   3.523
 3696SOL     OW11773   3.022   0.207   3.339
 3696SOL    HW111774   3.022   0.271   3.416
 3696SOL    HW211775   3.050   0.255   3.256
 3697SOL     OW11776   1.870   1.326   2.062
 3697SOL    HW111777   1.777   1.347   2.031
 3697SOL    HW211778   1.880   1.227   2.075
 3698SOL     OW11779   1.950   1.801   2.789
 3698SOL    HW111780   1.908   1.715   2.762
 3698SOL    HW211781   2.044   1.804   2.755
 3699SOL     OW11782   2.366   1.568   2.772
 3699SOL    HW111783   2.432   1.642   2.781
 3699SOL    HW211784   2.410   1.489   2.730
 3700SOL     OW11785   2.864   0.796   3.100
 3700SOL    HW111786   2.905   0.764   3.186
 3700SOL    HW211787   2.768   0.769   3.097
 3701SOL     OW11788   1.902   0.544   2.976
 3701SOL    HW111789   1.987   0.511   2.935
 3701SOL    HW211790   1.915   0.559   3.074
 3702SOL     OW11791   2.051   0.520   3.584
 3702SOL    HW111792   2.110   0.480   3.514
 3702SOL    HW211793   1.993   0.591   3.543
 3703SOL     OW11794   3.231   0.950   3.522
 3703SOL    HW111795   3.270   1.039   3.542
 3703SOL    HW211796   3.241   0.930   3.425
 3704SOL     OW11797   2.677   0.572   2.187
 3704SOL    HW111798   2.684   0.483   2.141
 3704SOL    HW211799   2.583   0.606   2.179
 3705SOL     OW11800   3.519   0.604   3.068
 3705SOL    HW111801   3.481   0.535   3.130
 3705SOL    HW211802   3.601   0.568   3.024
 3706SOL     OW11803   2.114   1.564   3.606
 3706SOL    HW111804   2.084   1.621   3.682
 3706SOL    HW211805   2.107   1.467   3.632
 3707SOL     OW11806   2.533   0.464   3.131
 3707SOL    HW111807   2.499   0.375   3.101
 3707SOL    HW211808   2.559   0.518   3.051
 3708SOL     OW11809   2.792   1.678   3.327
 3708SOL    HW111810   2.768   1.660   3.232
 3708SOL    HW211811   2.822   1.772   3.337
 3709SOL     OW11812   2.335   0.500   2.053
 3709SOL    HW111813   2.396   0.580   2.057
 3709SOL    HW211814   2.240   0.531   2.060
 3710SOL     OW11815   2.021   1.137   3.328
 3710SOL    HW111816   2.043   1.076   3.404
 3710SOL    HW211817   2.031   1.088   3.242
 3711SOL     OW11818   3.209   1.059   3.096
 3711SOL    HW111819   3.233   0.996   3.022
 3711SOL    HW211820   3.119   1.099   3.078
 3712SOL     OW11821   3.164   0.855   2.171
 3712SOL    HW111822   3.078   0.824   2.213
 3712SOL    HW211823   3.160   0.841   2.072
 3713SOL     OW11824   3.621   1.747   3.016
 3713SOL    HW111825   3.682   1.777   2.943
 3713SOL    HW211826   3.583   1.658   2.994
 3714SOL     OW11827   3.114   1.731   2.990
 3714SOL    HW111828   3.198   1.736   2.936
 3714SOL    HW211829   3.091   1.635   3.008
 3715SOL     OW11830   1.945   1.258   2.884
 3715SOL    HW111831   1.940   1.257   2.984
 3715SOL    HW211832   1.862   1.217   2.846
 3716SOL     OW11833   2.550   1.662   3.578
 3716SOL    HW111834   2.494   1.743   3.587
 3716SOL    HW211835   2.602   1.666   3.492
 3717SOL     OW11836   3.588   0.135   2.385
 3717SOL    HW111837   3.661   0.118   2.318
 3717SOL    HW211838   3.557   0.048   2.423
 3718SOL     OW11839   3.250   1.573   2.339
 3718SOL    HW111840   3.317   1.585   2.265
 3718SOL    HW211841   3.210   1.662   2.362
 3719SOL     OW11842   1.992   1.794   3.713
 3719SOL    HW111843   1.951   1.720   3.766
 3719SOL    HW211844   2.056   1.845   3.771
 3720SOL     OW11845   3.142   0.927   2.534
 3720SOL    HW111846   3.202   0.846   2.536
 3720SOL    HW211847   3.182   0.996   2.474
 3721SOL     OW11848   2.692   1.273   3.284
 3721SOL    HW111849   2.687   1.306   3.379
 3721SOL    HW211850   2.606   1.292   3.238
 3722SOL     OW11851   2.534   1.616   2.016
 3722SOL    HW111852   2.543   1.626   1.917
 3722SOL    HW211853   2.494   1.527   2.037
 3723SOL     OW11854   3.512   1.720   3.256
 3723SOL    HW111855   3.565   1.730   3.172
 3723SOL    HW211856   3.485   1.810   3.290
 3724SOL     OW11857   3.703   0.175   2.825
 3724SOL    HW111858   3.742   0.090   2.789
 3724SOL    HW211859   3.605   0.177   2.806
 3725SOL     OW11860   2.125   0.326   2.582
 3725SOL    HW111861   2.046   0.377   2.548
 3725SOL    HW211862   2.116   0.311   2.680
 3726SOL     OW11863   3.056   1.612   1.893
 3726SOL    HW111864   3.062   1.519   1.930
 3726SOL    HW211865   2.997   1.612   1.813
 3727SOL     OW11866   2.684   1.002   3.234
 3727SOL    HW111867   2.724   1.001   3.142
 3727SOL    HW211868   2.694   1.094   3.274
 3728SOL     OW11869   2.778   0.910   2.153
 3728SOL    HW111870   2.841   0.948   2.085
 3728SOL    HW211871   2.818   0.827   2.192
 3729SOL     OW11872   3.366   1.607   1.906
 3729SOL    HW111873   3.274   1.644   1.913
 3729SOL    HW211874   3.404   1.627   1.816
 3730SOL     OW11875   2.234   1.288   3.352
 3730SOL    HW111876   2.221   1.381   3.318
 3730SOL    HW211877   2.150   1.236   3.339
 3731SOL     OW11878   3.476   1.292   3.151
 3731SOL    HW111879   3.536   1.295   3.231
 3731SOL    HW211880   3.401   1.356   3.164
 3732SOL     OW11881   2.901   1.098   2.558
 3732SOL    HW111882   2.831   1.051   2.612
 3732SOL    HW211883   2.960   1.030   2.515
 3733SOL     OW11884   2.876   0.236   2.833
 3733SOL    HW111885   2.868   0.200   2.740
 3733SOL    HW211886   2.874   0.160   2.898
 3734SOL     OW11887   2.452   1.487   2.353
 3734SOL    HW111888   2.494   1.429   2.283
 3734SOL    HW211889   2.408   1.566   2.309
 3735SOL     OW11890   3.571   0.385   3.243
 3735SOL    HW111891   3.644   0.454   3.247
 3735SOL    HW211892   3.599   0.310   3.184
 3736SOL     OW11893   2.117   1.348   2.152
 3736SOL    HW111894   2.021   1.349   2.125
 3736SOL    HW211895   2.129   1.401   2.236
 3737SOL     OW11896   1.967   1.013   3.588
 3737SOL    HW111897   1.890   0.980   3.642
 3737SOL    HW211898   2.052   0.983   3.630
 3738SOL     OW11899   2.534   0.203   3.351
 3738SOL    HW111900   2.624   0.187   3.311
 3738SOL    HW211901   2.542   0.208   3.450
 3739SOL     OW11902   1.937   0.345   1.895
 3739SOL    HW111903   1.845   0.317   1.866
 3739SOL    HW211904   1.968   0.422   1.839
 3740SOL     OW11905   3.302   0.856   3.260
 3740SOL    HW111906   3.245   0.908   3.197
 3740SOL    HW211907   3.398   0.868   3.236
 3741SOL     OW11908   1.934   0.166   2.180
 3741SOL    HW111909   1.917   0.249   2.126
 3741SOL    HW211910   2.024   0.129   2.158
 3742SOL     OW11911   3.045   1.335   1.981
 3742SOL    HW111912   2.946   1.324   1.983
 3742SOL    HW211913   3.079   1.350   2.074
 3743SOL     OW11914   2.475   0.842   3.293
 3743SOL    HW111915   2.531   0.923   3.276
 3743SOL    HW211916   2.534   0.762   3.296
 3744SOL     OW11917   3.355   1.767   2.821
 3744SOL    HW111918   3.388   1.831   2.752
 3744SOL    HW211919   3.421   1.761   2.896
 3745SOL     OW11920   2.578   0.565   3.570
 3745SOL    HW111921   2.597   0.630   3.644
 3745SOL    HW211922   2.638   0.485   3.579
 3746SOL     OW11923   3.312   1.220   3.495
 3746SOL    HW111924   3.303   1.210   3.594
 3746SOL    HW211925   3.408   1.213   3.469
 3747SOL     OW11926   2.252   1.741   3.422
 3747SOL    HW111927   2.161   1.782   3.420
 3747SOL    HW211928   2.245   1.647   3.454
 3748SOL     OW11929   3.536   0.883   3.116
 3748SOL    HW111930   3.509   0.794   3.079
 3748SOL    HW211931   3.537   0.951   3.043
 3749SOL     OW11932   3.087   0.325   2.311
 3749SOL    HW111933   3.152   0.251   2.300
 3749SOL    HW211934   3.107   0.375   2.395
 3750SOL     OW11935   2.456   0.745   2.514
 3750SOL    HW111936   2.506   0.830   2.495
 3750SOL    HW211937   2.368   0.747   2.466
 3751SOL     OW11938   3.639   0.342   3.504
 3751SOL    HW111939   3.622   0.373   3.410
 3751SOL    HW211940   3.555   0.305   3.542
 3752SOL     OW11941   3.592   0.934   3.379
 3752SOL    HW111942   3.630   1.025   3.394
 3752SOL    HW211943   3.584   0.917   3.280
 3753SOL     OW11944   2.721   1.374   1.878
 3753SOL    HW111945   2.675   1.389   1.966
 3753SOL    HW211946   2.765   1.459   1.848
 3754SOL     OW11947   2.523   1.790   2.815
 3754SOL    HW111948   2.477   1.878   2.802
 3754SOL    HW211949   2.622   1.802   2.808
 3755SOL     OW11950   2.721   0.956   2.723
 3755SOL    HW111951   2.775   0.887   2.771
 3755SOL    HW211952   2.689   1.025   2.789
 3756SOL     OW11953   2.945   0.984   1.949
 3756SOL    HW111954   2.922   1.037   1.867
 3756SOL    HW211955   3.026   0.928   1.930
 3757SOL     OW11956   3.723   1.569   2.713
 3757SOL    HW111957   3.652   1.557   2.643
 3757SOL    HW211958   3.724   1.490   2.773
 3758SOL     OW11959   2.083   1.314   3.706
 3758SOL    HW111960   2.018   1.241   3.685
 3758SOL    HW211961   2.087   1.328   3.804
 3759SOL     OW11962   1.941   1.240   2.515
 3759SOL    HW111963   1.940   1.193   2.603
 3759SOL    HW211964   2.023   1.212   2.464
 3760SOL     OW11965   2.534   1.391   3.486
 3760SOL    HW111966   2.456   1.341   3.524
 3760SOL    HW211967   2.531   1.486   3.517
 3761SOL     OW11968   3.686   0.192   3.089
 3761SOL    HW111969   3.682   0.102   3.133
 3761SOL    HW211970   3.689   0.181   2.990
 3762SOL     OW11971   2.290   0.424   2.382
 3762SOL    HW111972   2.320   0.352   2.320
 3762SOL    HW211973   2.251   0.384   2.465
 3763SOL     OW11974   3.567   1.487   2.966
 3763SOL    HW111975   3.474   1.462   2.939
 3763SOL    HW211976   3.593   1.437   3.048
 3764SOL     OW11977   2.179   0.547   3.142
 3764SOL    HW111978   2.217   0.488   3.214
 3764SOL    HW211979   2.219   0.521   3.054
 3765SOL     OW11980   2.674   1.586   2.549
 3765SOL    HW111981   2.706   1.596   2.455
 3765SOL    HW211982   2.595   1.524   2.551
 3766SOL     OW11983   3.286   0.214   2.974
 3766SOL    HW111984   3.338   0.149   3.029
 3766SOL    HW211985   3.237   0.277   3.035
 3767SOL     OW11986   2.863   0.034   3.016
 3767SOL    HW111987   2.800  -0.038   2.985
 3767SOL    HW211988   2.956  -0.002   3.016
 3768SOL     OW11989   2.632   1.330   2.163
 3768SOL    HW111990   2.586   1.243   2.180
 3768SOL    HW211991   2.723   1.327   2.204
 3769SOL     OW11992   2.480   1.567   3.146
 3769SOL    HW111993   2.475   1.649   3.203
 3769SOL    HW211994   2.569   1.564   3.101
 3770SOL     OW11995   3.214   0.052   2.030
 3770SOL    HW111996   3.249   0.011   1.946
 3770SOL    HW211997   3.124   0.014   2.050
 3771SOL     OW11998   3.162   0.453   2.553
 3771SOL    HW111999   3.103   0.533   2.557
 3771SOL    HW212000   3.177   0.418   2.646
 3772SOL     OW12001   3.455   0.221   2.744
 3772SOL    HW112002   3.371   0.220   2.798
 3772SOL    HW212003   3.457   0.304   2.688
 3773SOL     OW12004   1.901   1.077   2.162
 3773SOL    HW112005   2.000   1.066   2.153
 3773SOL    HW212006   1.861   0.991   2.194
 3774SOL     OW12007   2.737   1.646   2.199
 3774SOL    HW112008   2.660   1.611   2.145
 3774SOL    HW212009   2.705   1.717   2.261
 3775SOL     OW12010   2.092   0.628   3.837
 3775SOL    HW112011   1.999   0.626   3.874
 3775SOL    HW212012   2.093   0.589   3.745
 3776SOL     OW12013   2.087   0.275   4.720
 3776SOL    HW112014   2.122   0.258   4.812
 3776SOL    HW212015   1.999   0.230   4.708
 3777SOL     OW12016   1.881   0.368   4.371
 3777SOL    HW112017   1.799   0.411   4.410
 3777SOL    HW212018   1.853   0.295   4.308
 3778SOL     OW12019   2.431   1.275   4.889
 3778SOL    HW112020   2.338   1.268   4.852
 3778SOL    HW212021   2.442   1.364   4.933
 3779SOL     OW12022   3.417   1.511   4.427
 3779SOL    HW112023   3.360   1.495   4.508
 3779SOL    HW212024   3.358   1.521   4.347
 3780SOL     OW12025   2.997   0.703   4.441
 3780SOL    HW112026   3.054   0.781   4.416
 3780SOL    HW212027   2.937   0.729   4.517
 3781SOL     OW12028   3.617   0.607   3.955
 3781SOL    HW112029   3.605   0.594   3.856
 3781SOL    HW212030   3.587   0.526   4.004
 3782SOL     OW12031   2.630   1.144   4.747
 3782SOL    HW112032   2.552   1.161   4.807
 3782SOL    HW212033   2.664   1.231   4.711
 3783SOL     OW12034   2.712   0.798   5.547
 3783SOL    HW112035   2.708   0.874   5.612
 3783SOL    HW212036   2.734   0.834   5.456
 3784SOL     OW12037   2.547   1.012   4.389
 3784SOL    HW112038   2.616   0.996   4.459
 3784SOL    HW212039   2.474   1.069   4.427
 3785SOL     OW12040   2.548   1.161   5.527
 3785SOL    HW112041   2.608   1.240   5.541
 3785SOL    HW212042   2.462   1.192   5.486
 3786SOL     OW12043   2.197   1.435   4.785
 3786SOL    HW112044   2.119   1.404   4.732
 3786SOL    HW212045   2.255   1.493   4.728
 3787SOL     OW12046   3.322   1.505   5.063
 3787SOL    HW112047   3.346   1.599   5.089
 3787SOL    HW212048   3.306   1.451   5.145
 3788SOL     OW12049   2.300   0.392   5.223
 3788SOL    HW112050   2.382   0.336   5.232
 3788SOL    HW212051   2.219   0.334   5.227
 3789SOL     OW12052   3.465   0.447   4.461
 3789SOL    HW112053   3.391   0.493   4.411
 3789SOL    HW212054   3.516   0.515   4.514
 3790SOL     OW12055   2.093   1.713   4.207
 3790SOL    HW112056   2.127   1.790   4.261
 3790SOL    HW212057   2.137   1.713   4.117
 3791SOL     OW12058   2.989   1.341   5.414
 3791SOL    HW112059   3.036   1.341   5.502
 3791SOL    HW212060   2.941   1.254   5.403
 3792SOL     OW12061   2.092   1.434   4.262
 3792SOL    HW112062   2.066   1.530   4.262
 3792SOL    HW212063   2.021   1.380   4.307
 3793SOL     OW12064   2.102   1.091   4.610
 3793SOL    HW112065   2.116   1.007   4.662
 3793SOL    HW212066   2.047   1.155   4.665
 3794SOL     OW12067   2.482   1.786   5.163
 3794SOL    HW112068   2.390   1.769   5.198
 3794SOL    HW212069   2.510   1.878   5.189
 3795SOL     OW12070   2.468   0.964   3.847
 3795SOL    HW112071   2.475   1.048   3.793
 3795SOL    HW212072   2.514   0.977   3.935
 3796SOL     OW12073   3.456   0.114   5.204
 3796SOL    HW112074   3.438   0.181   5.132
 3796SOL    HW212075   3.453   0.160   5.293
 3797SOL     OW12076   1.984   0.643   4.287
 3797SOL    HW112077   1.939   0.555   4.304
 3797SOL    HW212078   1.983   0.697   4.371
 3798SOL     OW12079   3.704   1.767   4.083
 3798SOL    HW112080   3.758   1.738   4.163
 3798SOL    HW212081   3.734   1.857   4.054
 3799SOL     OW12082   1.889   1.596   3.841
 3799SOL    HW112083   1.870   1.500   3.862
 3799SOL    HW212084   1.856   1.654   3.916
 3800SOL     OW12085   3.551   0.922   4.336
 3800SOL    HW112086   3.646   0.893   4.344
 3800SOL    HW212087   3.543   0.987   4.261
 3801SOL     OW12088   3.503   1.108   4.156
 3801SOL    HW112089   3.589   1.110   4.104
 3801SOL    HW212090   3.517   1.155   4.244
 3802SOL     OW12091   1.975   0.737   5.321
 3802SOL    HW112092   2.063   0.724   5.366
 3802SOL    HW212093   1.962   0.834   5.299
 3803SOL     OW12094   2.475   1.365   4.450
 3803SOL    HW112095   2.426   1.278   4.459
 3803SOL    HW212096   2.452   1.408   4.363
 3804SOL     OW12097   3.155   1.228   5.147
 3804SOL    HW112098   3.192   1.155   5.089
 3804SOL    HW212099   3.207   1.233   5.232
 3805SOL     OW12100   2.671   0.004   4.226
 3805SOL    HW112101   2.711   0.095   4.217
 3805SOL    HW212102   2.571   0.012   4.232
 3806SOL     OW12103   2.059   0.976   4.988
 3806SOL    HW112104   2.148   0.931   4.974
 3806SOL    HW212105   1.986   0.911   4.969
 3807SOL     OW12106   3.387   0.999   3.914
 3807SOL    HW112107   3.324   0.923   3.927
 3807SOL    HW212108   3.435   1.017   4.000
 3808SOL     OW12109   3.049   1.792   5.340
 3808SOL    HW112110   3.073   1.852   5.264
 3808SOL    HW212111   3.056   1.697   5.310
 3809SOL     OW12112   2.179   0.251   5.525
 3809SOL    HW112113   2.250   0.322   5.531
 3809SOL    HW212114   2.091   0.290   5.553
 3810SOL     OW12115   3.328   1.417   4.677
 3810SOL    HW112116   3.269   1.423   4.757
 3810SOL    HW212117   3.313   1.329   4.631
 3811SOL     OW12118   3.529   1.714   4.296
 3811SOL    HW112119   3.488   1.691   4.208
 3811SOL    HW212120   3.511   1.640   4.361
 3812SOL     OW12121   2.460   0.729   3.994
 3812SOL    HW112122   2.484   0.798   3.926
 3812SOL    HW212123   2.382   0.762   4.048
 3813SOL     OW12124   3.143   0.345   4.668
 3813SOL    HW112125   3.057   0.295   4.655
 3813SOL    HW212126   3.205   0.291   4.724
 3814SOL     OW12127   3.438   1.662   4.031
 3814SOL    HW112128   3.527   1.708   4.034
 3814SOL    HW212129   3.417   1.638   3.936
 3815SOL     OW12130   2.669   0.605   5.189
 3815SOL    HW112131   2.622   0.602   5.278
 3815SOL    HW212132   2.618   0.550   5.123
 3816SOL     OW12133   3.256   0.469   5.398
 3816SOL    HW112134   3.236   0.512   5.486
 3816SOL    HW212135   3.334   0.407   5.407
 3817SOL     OW12136   2.835   0.890   5.296
 3817SOL    HW112137   2.881   0.806   5.267
 3817SOL    HW212138   2.779   0.924   5.221
 3818SOL     OW12139   2.853   0.410   4.966
 3818SOL    HW112140   2.776   0.444   5.020
 3818SOL    HW212141   2.819   0.359   4.887
 3819SOL     OW12142   2.903   0.701   4.153
 3819SOL    HW112143   2.929   0.697   4.249
 3819SOL    HW212144   2.818   0.650   4.139
 3820SOL     OW12145   1.938   0.811   4.513
 3820SOL    HW112146   2.037   0.799   4.522
 3820SOL    HW212147   1.914   0.906   4.534
 3821SOL     OW12148   2.727   0.348   3.919
 3821SOL    HW112149   2.786   0.411   3.870
 3821SOL    HW212150   2.746   0.254   3.890
 3822SOL     OW12151   3.581   0.585   5.555
 3822SOL    HW112152   3.555   0.674   5.519
 3822SOL    HW212153   3.579   0.517   5.482
 3823SOL     OW12154   3.224   1.144   4.269
 3823SOL    HW112155   3.307   1.115   4.221
 3823SOL    HW212156   3.175   1.211   4.213
 3824SOL     OW12157   2.412   0.196   4.609
 3824SOL    HW112158   2.407   0.191   4.709
 3824SOL    HW212159   2.414   0.292   4.580
 3825SOL     OW12160   2.870   1.456   4.201
 3825SOL    HW112161   2.824   1.528   4.149
 3825SOL    HW212162   2.866   1.476   4.299
 3826SOL     OW12163   2.213   1.801   4.577
 3826SOL    HW112164   2.263   1.715   4.583
 3826SOL    HW212165   2.278   1.878   4.574
 3827SOL     OW12166   3.657   1.066   4.597
 3827SOL    HW112167   3.595   1.051   4.521
 3827SOL    HW212168   3.605   1.077   4.682
 3828SOL     OW12169   3.089   1.550   5.230
 3828SOL    HW112170   3.095   1.473   5.294
 3828SOL    HW212171   3.037   1.524   5.150
 3829SOL     OW12172   2.183   0.943   3.966
 3829SOL    HW112173   2.265   0.982   3.924
 3829SOL    HW212174   2.156   0.861   3.917
 3830SOL     OW12175   3.320   0.735   4.452
 3830SOL    HW112176   3.315   0.670   4.527
 3830SOL    HW212177   3.400   0.794   4.465
 3831SOL     OW12178   2.323   1.266   5.451
 3831SOL    HW112179   2.273   1.267   5.365
 3831SOL    HW212180   2.260   1.248   5.527
 3832SOL     OW12181   2.973   1.776   3.961
 3832SOL    HW112182   2.913   1.714   4.011
 3832SOL    HW212183   3.004   1.732   3.876
 3833SOL     OW12184   2.064   0.285   5.222
 3833SOL    HW112185   1.984   0.345   5.209
 3833SOL    HW212186   2.054   0.236   5.308
 3834SOL     OW12187   3.494   1.377   3.805
 3834SOL    HW112188   3.462   1.471   3.795
 3834SOL    HW212189   3.418   1.314   3.793
 3835SOL     OW12190   2.326   1.743   4.047
 3835SOL    HW112191   2.359   1.782   4.133
 3835SOL    HW212192   2.402   1.736   3.982
 3836SOL     OW12193   3.262   0.107   4.150
 3836SOL    HW112194   3.238   0.070   4.060
 3836SOL    HW212195   3.361   0.123   4.154
 3837SOL     OW12196   2.111   1.785   4.965
 3837SOL    HW112197   2.168   1.720   5.015
 3837SOL    HW212198   2.095   1.752   4.872
 3838SOL     OW12199   2.802   1.698   4.628
 3838SOL    HW112200   2.882   1.641   4.649
 3838SOL    HW212201   2.753   1.658   4.551
 3839SOL     OW12202   2.244   0.700   4.204
 3839SOL    HW112203   2.289   0.610   4.201
 3839SOL    HW212204   2.150   0.689   4.237
 3840SOL     OW12205   3.409   0.222   5.453
 3840SOL    HW112206   3.404   0.259   5.545
 3840SOL    HW212207   3.337   0.153   5.441
 3841SOL     OW12208   2.476   0.122   3.841
 3841SOL    HW112209   2.574   0.100   3.848
 3841SOL    HW212210   2.445   0.105   3.748
 3842SOL     OW12211   2.643   0.264   5.473
 3842SOL    HW112212   2.710   0.203   5.516
 3842SOL    HW212213   2.570   0.283   5.538
 3843SOL     OW12214   2.750   1.514   4.919
 3843SOL    HW112215   2.727   1.489   4.825
 3843SOL    HW212216   2.811   1.445   4.958
 3844SOL     OW12217   3.213   0.590   5.157
 3844SOL    HW112218   3.241   0.547   5.242
 3844SOL    HW212219   3.238   0.686   5.158
 3845SOL     OW12220   2.665   1.402   4.648
 3845SOL    HW112221   2.755   1.416   4.606
 3845SOL    HW212222   2.594   1.404   4.577
 3846SOL     OW12223   2.784   0.503   4.623
 3846SOL    HW112224   2.759   0.494   4.527
 3846SOL    HW212225   2.832   0.421   4.654
 3847SOL     OW12226   2.401   0.064   4.236
 3847SOL    HW112227   2.320   0.065   4.294
 3847SOL    HW212228   2.404   0.147   4.181
 3848SOL     OW12229   3.296   1.188   3.765
 3848SOL    HW112230   3.328   1.112   3.822
 3848SOL    HW212231   3.204   1.215   3.795
 3849SOL     OW12232   2.159   0.035   3.895
 3849SOL    HW112233   2.208   0.119   3.874
 3849SOL    HW212234   2.221  -0.030   3.940
 3850SOL     OW12235   2.797   0.236   4.204
 3850SOL    HW112236   2.749   0.277   4.126
 3850SOL    HW212237   2.896   0.234   4.185
 3851SOL     OW12238   2.938   0.683   5.188
 3851SOL    HW112239   2.858   0.622   5.191
 3851SOL    HW212240   3.019   0.630   5.164
 3852SOL     OW12241   3.089   1.570   4.517
 3852SOL    HW112242   3.110   1.644   4.452
 3852SOL    HW212243   3.157   1.570   4.590
 3853SOL     OW12244   2.321   1.152   4.465
 3853SOL    HW112245   2.250   1.125   4.530
 3853SOL    HW212246   2.295   1.124   4.372
 3854SOL     OW12247   3.133   1.797   4.315
 3854SOL    HW112248   3.177   1.861   4.251
 3854SOL    HW212249   3.083   1.849   4.385
 3855SOL     OW12250   2.894   0.549   3.740
 3855SOL    HW112251   2.853   0.631   3.701
 3855SOL    HW212252   2.958   0.575   3.813
 3856SOL     OW12253   1.940   0.556   5.110
 3856SOL    HW112254   2.032   0.555   5.069
 3856SOL    HW212255   1.934   0.630   5.177
 3857SOL     OW12256   2.423   0.222   4.871
 3857SOL    HW112257   2.461   0.138   4.908
 3857SOL    HW212258   2.335   0.241   4.915
 3858SOL     OW12259   2.728   0.454   4.366
 3858SOL    HW112260   2.696   0.526   4.304
 3858SOL    HW212261   2.752   0.373   4.313
 3859SOL     OW12262   2.879   0.039   4.477
 3859SOL    HW112263   2.807   0.044   4.408
 3859SOL    HW212264   2.855  -0.030   4.546
 3860SOL     OW12265   3.291   1.173   4.591
 3860SOL    HW112266   3.236   1.089   4.584
 3860SOL    HW212267   3.317   1.202   4.499
 3861SOL     OW12268   3.328   0.590   4.716
 3861SOL    HW112269   3.298   0.495   4.723
 3861SOL    HW212270   3.401   0.606   4.782
 3862SOL     OW12271   3.719   0.833   4.101
 3862SOL    HW112272   3.761   0.769   4.165
 3862SOL    HW212273   3.681   0.782   4.023
 3863SOL     OW12274   2.350   1.385   3.898
 3863SOL    HW112275   2.263   1.370   3.945
 3863SOL    HW212276   2.333   1.411   3.803
 3864SOL     OW12277   3.526   1.280   4.381
 3864SOL    HW112278   3.625   1.288   4.395
 3864SOL    HW212279   3.481   1.364   4.412
 3865SOL     OW12280   3.252   0.575   3.802
 3865SOL    HW112281   3.198   0.554   3.883
 3865SOL    HW212282   3.343   0.534   3.811
 3866SOL     OW12283   2.389   0.256   4.052
 3866SOL    HW112284   2.416   0.197   3.977
 3866SOL    HW212285   2.389   0.351   4.021
 3867SOL     OW12286   3.616   1.223   5.312
 3867SOL    HW112287   3.707   1.184   5.299
 3867SOL    HW212288   3.624   1.319   5.336
 3868SOL     OW12289   2.926   1.347   5.064
 3868SOL    HW112290   2.846   1.324   5.119
 3868SOL    HW212291   3.009   1.321   5.113
 3869SOL     OW12292   3.454   1.629   5.349
 3869SOL    HW112293   3.481   1.663   5.259
 3869SOL    HW212294   3.533   1.591   5.395
 3870SOL     OW12295   2.973   1.195   4.824
 3870SOL    HW112296   2.933   1.239   4.905
 3870SOL    HW212297   2.932   1.232   4.741
 3871SOL     OW12298   3.500   1.099   4.803
 3871SOL    HW112299   3.505   1.180   4.862
 3871SOL    HW212300   3.414   1.101   4.752
 3872SOL     OW12301   2.777   0.089   5.126
 3872SOL    HW112302   2.802   0.069   5.031
 3872SOL    HW212303   2.849   0.145   5.168
 3873SOL     OW12304   2.842   1.116   5.443
 3873SOL    HW112305   2.743   1.122   5.453
 3873SOL    HW212306   2.865   1.036   5.387
 3874SOL     OW12307   2.567   1.050   4.092
 3874SOL    HW112308   2.553   1.057   4.191
 3874SOL    HW212309   2.651   0.999   4.074
 3875SOL     OW12310   2.272   0.813   4.975
 3875SOL    HW112311   2.358   0.825   5.025
 3875SOL    HW212312   2.230   0.726   5.002
 3876SOL     OW12313   3.136   0.386   4.986
 3876SOL    HW112314   3.157   0.460   5.050
 3876SOL    HW212315   3.047   0.403   4.943
 3877SOL     OW12316   1.926   1.564   5.055
 3877SOL    HW112317   1.880   1.646   5.021
 3877SOL    HW212318   2.024   1.583   5.064
 3878SOL     OW12319   2.229   1.100   4.225
 3878SOL    HW112320   2.222   1.183   4.169
 3878SOL    HW212321   2.233   1.020   4.165
 3879SOL     OW12322   2.428   0.537   4.589
 3879SOL    HW112323   2.440   0.603   4.515
 3879SOL    HW212324   2.474   0.571   4.672
 3880SOL     OW12325   3.114   1.348   4.112
 3880SOL    HW112326   3.164   1.425   4.152
 3880SOL    HW212327   3.019   1.350   4.144
 3881SOL     OW12328   3.134   1.445   4.866
 3881SOL    HW112329   3.181   1.458   4.953
 3881SOL    HW212330   3.068   1.371   4.875
 3882SOL     OW12331   3.444   0.639   4.196
 3882SOL    HW112332   3.413   0.700   4.269
 3882SOL    HW212333   3.494   0.691   4.127
 3883SOL     OW12334   2.216   1.510   5.053
 3883SOL    HW112335   2.195   1.466   4.966
 3883SOL    HW212336   2.313   1.536   5.056
 3884SOL     OW12337   2.264   0.751   5.322
 3884SOL    HW112338   2.332   0.806   5.275
 3884SOL    HW212339   2.304   0.663   5.349
 3885SOL     OW12340   3.449   0.779   5.394
 3885SOL    HW112341   3.357   0.817   5.389
 3885SOL    HW212342   3.509   0.826   5.329
 3886SOL     OW12343   2.875   0.105   5.494
 3886SOL    HW112344   2.881   0.190   5.442
 3886SOL    HW212345   2.907   0.029   5.437
 3887SOL     OW12346   2.366   0.050   5.464
 3887SOL    HW112347   2.324  -0.007   5.394
 3887SOL    HW212348   2.300   0.119   5.496
 3888SOL     OW12349   2.435   0.870   4.753
 3888SOL    HW112350   2.479   0.959   4.744
 3888SOL    HW212351   2.372   0.870   4.830
 3889SOL     OW12352   3.222   0.862   4.769
 3889SOL    HW112353   3.147   0.862   4.703
 3889SOL    HW212354   3.259   0.770   4.778
 3890SOL     OW12355   3.071   0.525   3.999
 3890SOL    HW112356   3.084   0.441   4.053
 3890SOL    HW212357   3.042   0.599   4.059
 3891SOL     OW12358   2.169   0.213   4.955
 3891SOL    HW112359   2.146   0.250   5.045
 3891SOL    HW212360   2.139   0.118   4.949
 3892SOL     OW12361   1.899   1.310   5.006
 3892SOL    HW112362   1.952   1.261   5.074
 3892SOL    HW212363   1.921   1.408   5.011
 3893SOL     OW12364   2.594   0.634   4.788
 3893SOL    HW112365   2.653   0.608   4.712
 3893SOL    HW212366   2.566   0.730   4.777
 3894SOL     OW12367   3.590   0.935   5.578
 3894SOL    HW112368   3.544   0.928   5.489
 3894SOL    HW212369   3.528   0.979   5.644
 3895SOL     OW12370   2.169   0.063   4.342
 3895SOL    HW112371   2.158   0.157   4.375
 3895SOL    HW212372   2.164   0.000   4.419
 3896SOL     OW12373   3.484   0.367   4.098
 3896SOL    HW112374   3.486   0.291   4.162
 3896SOL    HW212375   3.436   0.444   4.138
 3897SOL     OW12376   2.885   0.766   4.690
 3897SOL    HW112377   2.900   0.787   4.786
 3897SOL    HW212378   2.855   0.671   4.681
 3898SOL     OW12379   2.842   1.573   5.424
 3898SOL    HW112380   2.822   1.617   5.336
 3898SOL    HW212381   2.881   1.482   5.408
 3899SOL     OW12382   3.721   1.518   5.329
 3899SOL    HW112383   3.735   1.545   5.234
 3899SOL    HW212384   3.804   1.540   5.382
 3900SOL     OW12385   2.212   0.898   5.528
 3900SOL    HW112386   2.288   0.942   5.576
 3900SOL    HW212387   2.247   0.851   5.446
 3901SOL     OW12388   3.402   0.274   3.849
 3901SOL    HW112389   3.341   0.199   3.872
 3901SOL    HW212390   3.424   0.326   3.932
 3902SOL     OW12391   3.165   0.838   3.766
 3902SOL    HW112392   3.199   0.745   3.781
 3902SOL    HW212393   3.183   0.865   3.671
 3903SOL     OW12394   2.930   1.333   4.573
 3903SOL    HW112395   2.937   1.249   4.518
 3903SOL    HW212396   2.992   1.402   4.537
 3904SOL     OW12397   2.181   0.810   4.673
 3904SOL    HW112398   2.274   0.846   4.678
 3904SOL    HW212399   2.175   0.725   4.725
 3905SOL     OW12400   2.201   0.509   4.730
 3905SOL    HW112401   2.149   0.426   4.713
 3905SOL    HW212402   2.278   0.514   4.666
 3906SOL     OW12403   3.000   0.380   5.402
 3906SOL    HW112404   2.955   0.443   5.466
 3906SOL    HW212405   3.093   0.411   5.385
 3907SOL     OW12406   3.022   0.207   5.201
 3907SOL    HW112407   3.022   0.271   5.278
 3907SOL    HW212408   3.050   0.255   5.118
 3908SOL     OW12409   1.870   1.326   3.924
 3908SOL    HW112410   1.777   1.347   3.893
 3908SOL    HW212411   1.880   1.227   3.937
 3909SOL     OW12412   1.950   1.801   4.651
 3909SOL    HW112413   1.908   1.715   4.624
 3909SOL    HW212414   2.044   1.804   4.617
 3910SOL     OW12415   2.366   1.568   4.634
 3910SOL    HW112416   2.432   1.642   4.643
 3910SOL    HW212417   2.410   1.489   4.592
 3911SOL     OW12418   2.864   0.796   4.962
 3911SOL    HW112419   2.905   0.764   5.048
 3911SOL    HW212420   2.768   0.769   4.959
 3912SOL     OW12421   1.902   0.544   4.838
 3912SOL    HW112422   1.987   0.511   4.797
 3912SOL    HW212423   1.915   0.559   4.936
 3913SOL     OW12424   2.051   0.520   5.446
 3913SOL    HW112425   2.110   0.480   5.376
 3913SOL    HW212426   1.993   0.591   5.405
 3914SOL     OW12427   3.231   0.950   5.384
 3914SOL    HW112428   3.270   1.039   5.404
 3914SOL    HW212429   3.241   0.930   5.287
 3915SOL     OW12430   2.677   0.572   4.049
 3915SOL    HW112431   2.684   0.483   4.003
 3915SOL    HW212432   2.583   0.606   4.041
 3916SOL     OW12433   3.519   0.604   4.930
 3916SOL    HW112434   3.481   0.535   4.992
 3916SOL    HW212435   3.601   0.568   4.886
 3917SOL     OW12436   2.114   1.564   5.468
 3917SOL    HW112437   2.084   1.621   5.544
 3917SOL    HW212438   2.107   1.467   5.494
 3918SOL     OW12439   2.533   0.464   4.993
 3918SOL    HW112440   2.499   0.375   4.963
 3918SOL    HW212441   2.559   0.518   4.913
 3919SOL     OW12442   2.792   1.678   5.189
 3919SOL    HW112443   2.768   1.660   5.094
 3919SOL    HW212444   2.822   1.772   5.199
 3920SOL     OW12445   2.335   0.500   3.915
 3920SOL    HW112446   2.396   0.580   3.919
 3920SOL    HW212447   2.240   0.531   3.922
 3921SOL     OW12448   2.021   1.137   5.190
 3921SOL    HW112449   2.043   1.076   5.266
 3921SOL    HW212450   2.031   1.088   5.104
 3922SOL     OW12451   3.209   1.059   4.958
 3922SOL    HW112452   3.233   0.996   4.884
 3922SOL    HW212453   3.119   1.099   4.940
 3923SOL     OW12454   3.164   0.855   4.033
 3923SOL    HW112455   3.078   0.824   4.075
 3923SOL    HW212456   3.160   0.841   3.934
 3924SOL     OW12457   3.621   1.747   4.878
 3924SOL    HW112458   3.682   1.777   4.805
 3924SOL    HW212459   3.583   1.658   4.856
 3925SOL     OW12460   3.114   1.731   4.852
 3925SOL    HW112461   3.198   1.736   4.798
 3925SOL    HW212462   3.091   1.635   4.870
 3926SOL     OW12463   1.945   1.258   4.746
 3926SOL    HW112464   1.940   1.257   4.846
 3926SOL    HW212465   1.862   1.217   4.708
 3927SOL     OW12466   2.550   1.662   5.440
 3927SOL    HW112467   2.494   1.743   5.449
 3927SOL    HW212468   2.602   1.666   5.354
 3928SOL     OW12469   3.588   0.135   4.247
 3928SOL    HW112470   3.661   0.118   4.180
 3928SOL    HW212471   3.557   0.048   4.285
 3929SOL     OW12472   3.250   1.573   4.201
 3929SOL    HW112473   3.317   1.585   4.127
 3929SOL    HW212474   3.210   1.662   4.224
 3930SOL     OW12475   1.992   1.794   5.575
 3930SOL    HW112476   1.951   1.720   5.628
 3930SOL    HW212477   2.056   1.845   5.633
 3931SOL     OW12478   3.142   0.927   4.396
 3931SOL    HW112479   3.202   0.846   4.398
 3931SOL    HW212480   3.182   0.996   4.336
 3932SOL     OW12481   2.692   1.273   5.146
 3932SOL    HW112482   2.687   1.306   5.241
 3932SOL    HW212483   2.606   1.292   5.100
 3933SOL     OW12484   2.534   1.616   3.878
 3933SOL    HW112485   2.543   1.626   3.779
 3933SOL    HW212486   2.494   1.527   3.899
 3934SOL     OW12487   3.512   1.720   5.118
 3934SOL    HW112488   3.565   1.730   5.034
 3934SOL    HW212489   3.485   1.810   5.152
 3935SOL     OW12490   3.703   0.175   4.687
 3935SOL    HW112491   3.742   0.090   4.651
 3935SOL    HW212492   3.605   0.177   4.668
 3936SOL     OW12493   2.125   0.326   4.444
 3936SOL    HW112494   2.046   0.377   4.410
 3936SOL    HW212495   2.116   0.311   4.542
 3937SOL     OW12496   3.056   1.612   3.755
 3937SOL    HW112497   3.062   1.519   3.792
 3937SOL    HW212498   2.997   1.612   3.675
 3938SOL     OW12499   2.684   1.002   5.096
 3938SOL    HW112500   2.724   1.001   5.004
 3938SOL    HW212501   2.694   1.094   5.136
 3939SOL     OW12502   2.778   0.910   4.015
 3939SOL    HW112503   2.841   0.948   3.947
 3939SOL    HW212504   2.818   0.827   4.054
 3940SOL     OW12505   3.366   1.607   3.768
 3940SOL    HW112506   3.274   1.644   3.775
 3940SOL    HW212507   3.404   1.627   3.678
 3941SOL     OW12508   2.234   1.288   5.214
 3941SOL    HW112509   2.221   1.381   5.180
 3941SOL    HW212510   2.150   1.236   5.201
 3942SOL     OW12511   3.476   1.292   5.013
 3942SOL    HW112512   3.536   1.295   5.093
 3942SOL    HW212513   3.401   1.356   5.026
 3943SOL     OW12514   2.901   1.098   4.420
 3943SOL    HW112515   2.831   1.051   4.474
 3943SOL    HW212516   2.960   1.030   4.377
 3944SOL     OW12517   2.876   0.236   4.695
 3944SOL    HW112518   2.868   0.200   4.602
 3944SOL    HW212519   2.874   0.160   4.760
 3945SOL     OW12520   2.452   1.487   4.215
 3945SOL    HW112521   2.494   1.429   4.145
 3945SOL    HW212522   2.408   1.566   4.171
 3946SOL     OW12523   3.571   0.385   5.105
 3946SOL    HW112524   3.644   0.454   5.109
 3946SOL    HW212525   3.599   0.310   5.046
 3947SOL     OW12526   2.117   1.348   4.014
 3947SOL    HW112527   2.021   1.349   3.987
 3947SOL    HW212528   2.129   1.401   4.098
 3948SOL     OW12529   1.967   1.013   5.450
 3948SOL    HW112530   1.890   0.980   5.504
 3948SOL    HW212531   2.052   0.983   5.492
 3949SOL     OW12532   2.534   0.203   5.213
 3949SOL    HW112533   2.624   0.187   5.173
 3949SOL    HW212534   2.542   0.208   5.312
 3950SOL     OW12535   1.937   0.345   3.757
 3950SOL    HW112536   1.845   0.317   3.728
 3950SOL    HW212537   1.968   0.422   3.701
 3951SOL     OW12538   3.302   0.856   5.122
 3951SOL    HW112539   3.245   0.908   5.059
 3951SOL    HW212540   3.398   0.868   5.098
 3952SOL     OW12541   1.934   0.166   4.042
 3952SOL    HW112542   1.917   0.249   3.988
 3952SOL    HW212543   2.024   0.129   4.020
 3953SOL     OW12544   3.045   1.335   3.843
 3953SOL    HW112545   2.946   1.324   3.845
 3953SOL    HW212546   3.079   1.350   3.936
 3954SOL     OW12547   2.475   0.842   5.155
 3954SOL    HW112548   2.531   0.923   5.138
 3954SOL    HW212549   2.534   0.762   5.158
 3955SOL     OW12550   3.355   1.767   4.683
 3955SOL    HW112551   3.388   1.831   4.614
 3955SOL    HW212552   3.421   1.761   4.758
 3956SOL     OW12553   2.578   0.565   5.432
 3956SOL    HW112554   2.597   0.630   5.506
 3956SOL    HW212555   2.638   0.485   5.441
 3957SOL     OW12556   3.312   1.220   5.357
 3957SOL    HW112557   3.303   1.210   5.456
 3957SOL    HW212558   3.408   1.213   5.331
 3958SOL     OW12559   2.252   1.741   5.284
 3958SOL    HW112560   2.161   1.782   5.282
 3958SOL    HW212561   2.245   1.647   5.316
 3959SOL     OW12562   3.536   0.883   4.978
 3959SOL    HW112563   3.509   0.794   4.941
 3959SOL    HW212564   3.537   0.951   4.905
 3960SOL     OW12565   3.087   0.325   4.173
 3960SOL    HW112566   3.152   0.251   4.162
 3960SOL    HW212567   3.107   0.375   4.257
 3961SOL     OW12568   2.456   0.745   4.376
 3961SOL    HW112569   2.506   0.830   4.357
 3961SOL    HW212570   2.368   0.747   4.328
 3962SOL     OW12571   3.639   0.342   5.366
 3962SOL    HW112572   3.622   0.373   5.272
 3962SOL    HW212573   3.555   0.305   5.404
 3963SOL     OW12574   3.592   0.934   5.241
 3963SOL    HW112575   3.630   1.025   5.256
 3963SOL    HW212576   3.584   0.917   5.142
 3964SOL     OW12577   2.721   1.374   3.740
 3964SOL    HW112578   2.675   1.389   3.828
 3964SOL    HW212579   2.765   1.459   3.710
 3965SOL     OW12580   2.523   1.790   4.677
 3965SOL    HW112581   2.477   1.878   4.664
 3965SOL    HW212582   2.622   1.802   4.670
 3966SOL     OW12583   2.721   0.956   4.585
 3966SOL    HW112584   2.775   0.887   4.633
 3966SOL    HW212585   2.689   1.025   4.651
 3967SOL     OW12586   2.945   0.984   3.811
 3967SOL    HW112587   2.922   1.037   3.729
 3967SOL    HW212588   3.026   0.928   3.792
 3968SOL     OW12589   3.723   1.569   4.575
 3968SOL    HW112590   3.652   1.557   4.505
 3968SOL    HW212591   3.724   1.490   4.635
 3969SOL     OW12592   2.083   1.314   5.568
 3969SOL    HW112593   2.018   1.241   5.547
 3969SOL    HW212594   2.087   1.328   5.666
 3970SOL     OW12595   1.941   1.240   4.377
 3970SOL    HW112596   1.940   1.193   4.465
 3970SOL    HW212597   2.023   1.212   4.326
 3971SOL     OW12598   2.534   1.391   5.348
 3971SOL    HW112599   2.456   1.341   5.386
 3971SOL    HW212600   2.531   1.486   5.379
 3972SOL     OW12601   3.686   0.192   4.951
 3972SOL    HW112602   3.682   0.102   4.995
 3972SOL    HW212603   3.689   0.181   4.852
 3973SOL     OW12604   2.290   0.424   4.244
 3973SOL    HW112605   2.320   0.352   4.182
 3973SOL    HW212606   2.251   0.384   4.327
 3974SOL     OW12607   3.567   1.487   4.828
 3974SOL    HW112608   3.474   1.462   4.801
 3974SOL    HW212609   3.593   1.437   4.910
 3975SOL     OW12610   2.179   0.547   5.004
 3975SOL    HW112611   2.217   0.488   5.076
 3975SOL    HW212612   2.219   0.521   4.916
 3976SOL     OW12613   2.674   1.586   4.411
 3976SOL    HW112614   2.706   1.596   4.317
 3976SOL    HW212615   2.595   1.524   4.413
 3977SOL     OW12616   3.286   0.214   4.836
 3977SOL    HW112617   3.338   0.149   4.891
 3977SOL    HW212618   3.237   0.277   4.897
 3978SOL     OW12619   2.863   0.034   4.878
 3978SOL    HW112620   2.800  -0.038   4.847
 3978SOL    HW212621   2.956  -0.002   4.878
 3979SOL     OW12622   2.632   1.330   4.025
 3979SOL    HW112623   2.586   1.243   4.042
 3979SOL    HW212624   2.723   1.327   4.066
 3980SOL     OW12625   2.480   1.567   5.008
 3980SOL    HW112626   2.475   1.649   5.065
 3980SOL    HW212627   2.569   1.564   4.963
 3981SOL     OW12628   3.214   0.052   3.892
 3981SOL    HW112629   3.249   0.011   3.808
 3981SOL    HW212630   3.124   0.014   3.912
 3982SOL     OW12631   3.162   0.453   4.415
 3982SOL    HW112632   3.103   0.533   4.419
 3982SOL    HW212633   3.177   0.418   4.508
 3983SOL     OW12634   3.455   0.221   4.606
 3983SOL    HW112635   3.371   0.220   4.660
 3983SOL    HW212636   3.457   0.304   4.550
 3984SOL     OW12637   1.901   1.077   4.024
 3984SOL    HW112638   2.000   1.066   4.015
 3984SOL    HW212639   1.861   0.991   4.056
 3985SOL     OW12640   2.737   1.646   4.061
 3985SOL    HW112641   2.660   1.611   4.007
 3985SOL    HW212642   2.705   1.717   4.123
 3986SOL     OW12643   2.092   0.628   5.699
 3986SOL    HW112644   1.999   0.626   5.736
 3986SOL    HW212645   2.093   0.589   5.607
 3987SOL     OW12646   2.087   0.275   6.582
 3987SOL    HW112647   2.122   0.258   6.674
 3987SOL    HW212648   1.999   0.230   6.570
 3988SOL     OW12649   1.881   0.368   6.233
 3988SOL    HW112650   1.799   0.411   6.272
 3988SOL    HW212651   1.853   0.295   6.170
 3989SOL     OW12652   2.431   1.275   6.751
 3989SOL    HW112653   2.338   1.268   6.714
 3989SOL    HW212654   2.442   1.364   6.795
 3990SOL     OW12655   3.417   1.511   6.289
 3990SOL    HW112656   3.360   1.495   6.370
 3990SOL    HW212657   3.358   1.521   6.209
 3991SOL     OW12658   2.997   0.703   6.303
 3991SOL    HW112659   3.054   0.781   6.278
 3991SOL    HW212660   2.937   0.729   6.379
 3992SOL     OW12661   3.617   0.607   5.817
 3992SOL    HW112662   3.605   0.594   5.718
 3992SOL    HW212663   3.587   0.526   5.866
 3993SOL     OW12664   2.712   0.798   7.409
 3993SOL    HW112665   2.708   0.874   7.474
 3993SOL    HW212666   2.734   0.834   7.318
 3994SOL     OW12667   2.547   1.012   6.251
 3994SOL    HW112668   2.616   0.996   6.321
 3994SOL    HW212669   2.474   1.069   6.289
 3995SOL     OW12670   2.548   1.161   7.389
 3995SOL    HW112671   2.608   1.240   7.403
 3995SOL    HW212672   2.462   1.192   7.348
 3996SOL     OW12673   3.322   1.505   6.925
 3996SOL    HW112674   3.346   1.599   6.951
 3996SOL    HW212675   3.306   1.451   7.007
 3997SOL     OW12676   2.300   0.392   7.085
 3997SOL    HW112677   2.382   0.336   7.094
 3997SOL    HW212678   2.219   0.334   7.089
 3998SOL     OW12679   3.465   0.447   6.323
 3998SOL    HW112680   3.391   0.493   6.273
 3998SOL    HW212681   3.516   0.515   6.376
 3999SOL     OW12682   2.093   1.713   6.069
 3999SOL    HW112683   2.127   1.790   6.123
 3999SOL    HW212684   2.137   1.713   5.979
 4000SOL     OW12685   2.989   1.341   7.276
 4000SOL    HW112686   3.036   1.341   7.364
 4000SOL    HW212687   2.941   1.254   7.265
 4001SOL     OW12688   2.102   1.091   6.472
 4001SOL    HW112689   2.116   1.007   6.524
 4001SOL    HW212690   2.047   1.155   6.527
 4002SOL     OW12691   2.468   0.964   5.709
 4002SOL    HW112692   2.475   1.048   5.655
 4002SOL    HW212693   2.514   0.977   5.797
 4003SOL     OW12694   3.456   0.114   7.066
 4003SOL    HW112695   3.438   0.181   6.994
 4003SOL    HW212696   3.453   0.160   7.155
 4004SOL     OW12697   1.984   0.643   6.149
 4004SOL    HW112698   1.939   0.555   6.166
 4004SOL    HW212699   1.983   0.697   6.233
 4005SOL     OW12700   3.704   1.767   5.945
 4005SOL    HW112701   3.758   1.738   6.025
 4005SOL    HW212702   3.734   1.857   5.916
 4006SOL     OW12703   1.889   1.596   5.703
 4006SOL    HW112704   1.870   1.500   5.724
 4006SOL    HW212705   1.856   1.654   5.778
 4007SOL     OW12706   3.551   0.922   6.198
 4007SOL    HW112707   3.646   0.893   6.206
 4007SOL    HW212708   3.543   0.987   6.123
 4008SOL     OW12709   3.503   1.108   6.018
 4008SOL    HW112710   3.589   1.110   5.966
 4008SOL    HW212711   3.517   1.155   6.106
 4009SOL     OW12712   1.975   0.737   7.183
 4009SOL    HW112713   2.063   0.724   7.228
 4009SOL    HW212714   1.962   0.834   7.161
 4010SOL     OW12715   3.155   1.228   7.009
 4010SOL    HW112716   3.192   1.155   6.951
 4010SOL    HW212717   3.207   1.233   7.094
 4011SOL     OW12718   2.671   0.004   6.088
 4011SOL    HW112719   2.711   0.095   6.079
 4011SOL    HW212720   2.571   0.012   6.094
 4012SOL     OW12721   2.059   0.976   6.850
 4012SOL    HW112722   2.148   0.931   6.836
 4012SOL    HW212723   1.986   0.911   6.831
 4013SOL     OW12724   3.387   0.999   5.776
 4013SOL    HW112725   3.324   0.923   5.789
 4013SOL    HW212726   3.435   1.017   5.862
 4014SOL     OW12727   3.049   1.792   7.202
 4014SOL    HW112728   3.073   1.852   7.126
 4014SOL    HW212729   3.056   1.697   7.172
 4015SOL     OW12730   2.179   0.251   7.387
 4015SOL    HW112731   2.250   0.322   7.393
 4015SOL    HW212732   2.091   0.290   7.415
 4016SOL     OW12733   3.328   1.417   6.539
 4016SOL    HW112734   3.269   1.423   6.619
 4016SOL    HW212735   3.313   1.329   6.493
 4017SOL     OW12736   3.529   1.714   6.158
 4017SOL    HW112737   3.488   1.691   6.070
 4017SOL    HW212738   3.511   1.640   6.223
 4018SOL     OW12739   2.460   0.729   5.856
 4018SOL    HW112740   2.484   0.798   5.788
 4018SOL    HW212741   2.382   0.762   5.910
 4019SOL     OW12742   3.143   0.345   6.530
 4019SOL    HW112743   3.057   0.295   6.517
 4019SOL    HW212744   3.205   0.291   6.586
 4020SOL     OW12745   3.438   1.662   5.893
 4020SOL    HW112746   3.527   1.708   5.896
 4020SOL    HW212747   3.417   1.638   5.798
 4021SOL     OW12748   2.669   0.605   7.051
 4021SOL    HW112749   2.622   0.602   7.140
 4021SOL    HW212750   2.618   0.550   6.985
 4022SOL     OW12751   3.256   0.469   7.260
 4022SOL    HW112752   3.236   0.512   7.348
 4022SOL    HW212753   3.334   0.407   7.269
 4023SOL     OW12754   2.835   0.890   7.158
 4023SOL    HW112755   2.881   0.806   7.129
 4023SOL    HW212756   2.779   0.924   7.083
 4024SOL     OW12757   2.853   0.410   6.828
 4024SOL    HW112758   2.776   0.444   6.882
 4024SOL    HW212759   2.819   0.359   6.749
 4025SOL     OW12760   2.903   0.701   6.015
 4025SOL    HW112761   2.929   0.697   6.111
 4025SOL    HW212762   2.818   0.650   6.001
 4026SOL     OW12763   1.938   0.811   6.375
 4026SOL    HW112764   2.037   0.799   6.384
 4026SOL    HW212765   1.914   0.906   6.396
 4027SOL     OW12766   2.727   0.348   5.781
 4027SOL    HW112767   2.786   0.411   5.732
 4027SOL    HW212768   2.746   0.254   5.752
 4028SOL     OW12769   3.581   0.585   7.417
 4028SOL    HW112770   3.555   0.674   7.381
 4028SOL    HW212771   3.579   0.517   7.344
 4029SOL     OW12772   3.224   1.144   6.131
 4029SOL    HW112773   3.307   1.115   6.083
 4029SOL    HW212774   3.175   1.211   6.075
 4030SOL     OW12775   2.412   0.196   6.471
 4030SOL    HW112776   2.407   0.191   6.571
 4030SOL    HW212777   2.414   0.292   6.442
 4031SOL     OW12778   2.213   1.801   6.439
 4031SOL    HW112779   2.263   1.715   6.445
 4031SOL    HW212780   2.278   1.878   6.436
 4032SOL     OW12781   3.657   1.066   6.459
 4032SOL    HW112782   3.595   1.051   6.383
 4032SOL    HW212783   3.605   1.077   6.544
 4033SOL     OW12784   3.089   1.550   7.092
 4033SOL    HW112785   3.095   1.473   7.156
 4033SOL    HW212786   3.037   1.524   7.012
 4034SOL     OW12787   2.183   0.943   5.828
 4034SOL    HW112788   2.265   0.982   5.786
 4034SOL    HW212789   2.156   0.861   5.779
 4035SOL     OW12790   3.320   0.735   6.314
 4035SOL    HW112791   3.315   0.670   6.389
 4035SOL    HW212792   3.400   0.794   6.327
 4036SOL     OW12793   2.973   1.776   5.823
 4036SOL    HW112794   2.913   1.714   5.873
 4036SOL    HW212795   3.004   1.732   5.738
 4037SOL     OW12796   2.064   0.285   7.084
 4037SOL    HW112797   1.984   0.345   7.071
 4037SOL    HW212798   2.054   0.236   7.170
 4038SOL     OW12799   3.494   1.377   5.667
 4038SOL    HW112800   3.462   1.471   5.657
 4038SOL    HW212801   3.418   1.314   5.655
 4039SOL     OW12802   2.326   1.743   5.909
 4039SOL    HW112803   2.359   1.782   5.995
 4039SOL    HW212804   2.402   1.736   5.844
 4040SOL     OW12805   3.262   0.107   6.012
 4040SOL    HW112806   3.238   0.070   5.922
 4040SOL    HW212807   3.361   0.123   6.016
 4041SOL     OW12808   2.244   0.700   6.066
 4041SOL    HW112809   2.289   0.610   6.063
 4041SOL    HW212810   2.150   0.689   6.099
 4042SOL     OW12811   3.409   0.222   7.315
 4042SOL    HW112812   3.404   0.259   7.407
 4042SOL    HW212813   3.337   0.153   7.303
 4043SOL     OW12814   2.476   0.122   5.703
 4043SOL    HW112815   2.574   0.100   5.710
 4043SOL    HW212816   2.445   0.105   5.610
 4044SOL     OW12817   2.643   0.264   7.335
 4044SOL    HW112818   2.710   0.203   7.378
 4044SOL    HW212819   2.570   0.283   7.400
 4045SOL     OW12820   2.750   1.514   6.781
 4045SOL    HW112821   2.727   1.489   6.687
 4045SOL    HW212822   2.811   1.445   6.820
 4046SOL     OW12823   3.213   0.590   7.019
 4046SOL    HW112824   3.241   0.547   7.104
 4046SOL    HW212825   3.238   0.686   7.020
 4047SOL     OW12826   2.784   0.503   6.485
 4047SOL    HW112827   2.759   0.494   6.389
 4047SOL    HW212828   2.832   0.421   6.516
 4048SOL     OW12829   2.401   0.064   6.098
 4048SOL    HW112830   2.320   0.065   6.156
 4048SOL    HW212831   2.404   0.147   6.043
 4049SOL     OW12832   3.296   1.188   5.627
 4049SOL    HW112833   3.328   1.112   5.684
 4049SOL    HW212834   3.204   1.215   5.657
 4050SOL     OW12835   2.159   0.035   5.757
 4050SOL    HW112836   2.208   0.119   5.736
 4050SOL    HW212837   2.221  -0.030   5.802
 4051SOL     OW12838   2.797   0.236   6.066
 4051SOL    HW112839   2.749   0.277   5.988
 4051SOL    HW212840   2.896   0.234   6.047
 4052SOL     OW12841   2.938   0.683   7.050
 4052SOL    HW112842   2.858   0.622   7.053
 4052SOL    HW212843   3.019   0.630   7.026
 4053SOL     OW12844   3.089   1.570   6.379
 4053SOL    HW112845   3.110   1.644   6.314
 4053SOL    HW212846   3.157   1.570   6.452
 4054SOL     OW12847   3.133   1.797   6.177
 4054SOL    HW112848   3.177   1.861   6.113
 4054SOL    HW212849   3.083   1.849   6.247
 4055SOL     OW12850   2.894   0.549   5.602
 4055SOL    HW112851   2.853   0.631   5.563
 4055SOL    HW212852   2.958   0.575   5.675
 4056SOL     OW12853   1.940   0.556   6.972
 4056SOL    HW112854   2.032   0.555   6.931
 4056SOL    HW212855   1.934   0.630   7.039
 4057SOL     OW12856   2.423   0.222   6.733
 4057SOL    HW112857   2.461   0.138   6.770
 4057SOL    HW212858   2.335   0.241   6.777
 4058SOL     OW12859   2.728   0.454   6.228
 4058SOL    HW112860   2.696   0.526   6.166
 4058SOL    HW212861   2.752   0.373   6.175
 4059SOL     OW12862   2.879   0.039   6.339
 4059SOL    HW112863   2.807   0.044   6.270
 4059SOL    HW212864   2.855  -0.030   6.408
 4060SOL     OW12865   3.291   1.173   6.453
 4060SOL    HW112866   3.236   1.089   6.446
 4060SOL    HW212867   3.317   1.202   6.361
 4061SOL     OW12868   3.328   0.590   6.578
 4061SOL    HW112869   3.298   0.495   6.585
 4061SOL    HW212870   3.401   0.606   6.644
 4062SOL     OW12871   3.719   0.833   5.963
 4062SOL    HW112872   3.761   0.769   6.027
 4062SOL    HW212873   3.681   0.782   5.885
 4063SOL     OW12874   2.350   1.385   5.760
 4063SOL    HW112875   2.263   1.370   5.807
 4063SOL    HW212876   2.333   1.411   5.665
 4064SOL     OW12877   3.526   1.280   6.243
 4064SOL    HW112878   3.625   1.288   6.257
 4064SOL    HW212879   3.481   1.364   6.274
 4065SOL     OW12880   3.252   0.575   5.664
 4065SOL    HW112881   3.198   0.554   5.745
 4065SOL    HW212882   3.343   0.534   5.673
 4066SOL     OW12883   2.389   0.256   5.914
 4066SOL    HW112884   2.416   0.197   5.839
 4066SOL    HW212885   2.389   0.351   5.883
 4067SOL     OW12886   3.616   1.223   7.174
 4067SOL    HW112887   3.707   1.184   7.161
 4067SOL    HW212888   3.624   1.319   7.198
 4068SOL     OW12889   2.926   1.347   6.926
 4068SOL    HW112890   2.846   1.324   6.981
 4068SOL    HW212891   3.009   1.321   6.975
 4069SOL     OW12892   3.454   1.629   7.211
 4069SOL    HW112893   3.481   1.663   7.121
 4069SOL    HW212894   3.533   1.591   7.257
 4070SOL     OW12895   2.973   1.195   6.686
 4070SOL    HW112896   2.933   1.239   6.767
 4070SOL    HW212897   2.932   1.232   6.603
 4071SOL     OW12898   3.500   1.099   6.665
 4071SOL    HW112899   3.505   1.180   6.724
 4071SOL    HW212900   3.414   1.101   6.614
 4072SOL     OW12901   2.777   0.089   6.988
 4072SOL    HW112902   2.802   0.069   6.893
 4072SOL    HW212903   2.849   0.145   7.030
 4073SOL     OW12904   2.842   1.116   7.305
 4073SOL    HW112905   2.743   1.122   7.315
 4073SOL    HW212906   2.865   1.036   7.249
 4074SOL     OW12907   2.567   1.050   5.954
 4074SOL    HW112908   2.553   1.057   6.053
 4074SOL    HW212909   2.651   0.999   5.936
 4075SOL     OW12910   2.272   0.813   6.837
 4075SOL    HW112911   2.358   0.825   6.887
 4075SOL    HW212912   2.230   0.726   6.864
 4076SOL     OW12913   3.136   0.386   6.848
 4076SOL    HW112914   3.157   0.460   6.912
 4076SOL    HW212915   3.047   0.403   6.805
 4077SOL     OW12916   2.428   0.537   6.451
 4077SOL    HW112917   2.440   0.603   6.377
 4077SOL    HW212918   2.474   0.571   6.534
 4078SOL     OW12919   3.114   1.348   5.974
 4078SOL    HW112920   3.164   1.425   6.014
 4078SOL    HW212921   3.019   1.350   6.006
 4079SOL     OW12922   3.134   1.445   6.728
 4079SOL    HW112923   3.181   1.458   6.815
 4079SOL    HW212924   3.068   1.371   6.737
 4080SOL     OW12925   3.444   0.639   6.058
 4080SOL    HW112926   3.413   0.700   6.131
 4080SOL    HW212927   3.494   0.691   5.989
 4081SOL     OW12928   2.264   0.751   7.184
 4081SOL    HW112929   2.332   0.806   7.137
 4081SOL    HW212930   2.304   0.663   7.211
 4082SOL     OW12931   3.449   0.779   7.256
 4082SOL    HW112932   3.357   0.817   7.251
 4082SOL    HW212933   3.509   0.826   7.191
 4083SOL     OW12934   2.875   0.105   7.356
 4083SOL    HW112935   2.881   0.190   7.304
 4083SOL    HW212936   2.907   0.029   7.299
 4084SOL     OW12937   2.366   0.050   7.326
 4084SOL    HW112938   2.324  -0.007   7.256
 4084SOL    HW212939   2.300   0.119   7.358
 4085SOL     OW12940   2.435   0.870   6.615
 4085SOL    HW112941   2.479   0.959   6.606
 4085SOL    HW212942   2.372   0.870   6.692
 4086SOL     OW12943   3.222   0.862   6.631
 4086SOL    HW112944   3.147   0.862   6.565
 4086SOL    HW212945   3.259   0.770   6.640
 4087SOL     OW12946   3.071   0.525   5.861
 4087SOL    HW112947   3.084   0.441   5.915
 4087SOL    HW212948   3.042   0.599   5.921
 4088SOL     OW12949   2.169   0.213   6.817
 4088SOL    HW112950   2.146   0.250   6.907
 4088SOL    HW212951   2.139   0.118   6.811
 4089SOL     OW12952   1.899   1.310   6.868
 4089SOL    HW112953   1.952   1.261   6.936
 4089SOL    HW212954   1.921   1.408   6.873
 4090SOL     OW12955   2.594   0.634   6.650
 4090SOL    HW112956   2.653   0.608   6.574
 4090SOL    HW212957   2.566   0.730   6.639
 4091SOL     OW12958   3.590   0.935   7.440
 4091SOL    HW112959   3.544   0.928   7.351
 4091SOL    HW212960   3.528   0.979   7.506
 4092SOL     OW12961   2.169   0.063   6.204
 4092SOL    HW112962   2.158   0.157   6.237
 4092SOL    HW212963   2.164   0.000   6.281
 4093SOL     OW12964   3.484   0.367   5.960
 4093SOL    HW112965   3.486   0.291   6.024
 4093SOL    HW212966   3.436   0.444   6.000
 4094SOL     OW12967   2.885   0.766   6.552
 4094SOL    HW112968   2.900   0.787   6.648
 4094SOL    HW212969   2.855   0.671   6.543
 4095SOL     OW12970   3.721   1.518   7.191
 4095SOL    HW112971   3.735   1.545   7.096
 4095SOL    HW212972   3.804   1.540   7.244
 4096SOL     OW12973   2.212   0.898   7.390
 4096SOL    HW112974   2.288   0.942   7.438
 4096SOL    HW212975   2.247   0.851   7.308
 4097SOL     OW12976   3.402   0.274   5.711
 4097SOL    HW112977   3.341   0.199   5.734
 4097SOL    HW212978   3.424   0.326   5.794
 4098SOL     OW12979   3.165   0.838   5.628
 4098SOL    HW112980   3.199   0.745   5.643
 4098SOL    HW212981   3.183   0.865   5.533
 4099SOL     OW12982   2.930   1.333   6.435
 4099SOL    HW112983   2.937   1.249   6.380
 4099SOL    HW212984   2.992   1.402   6.399
 4100SOL     OW12985   2.181   0.810   6.535
 4100SOL    HW112986   2.274   0.846   6.540
 4100SOL    HW212987   2.175   0.725   6.587
 4101SOL     OW12988   2.201   0.509   6.592
 4101SOL    HW112989   2.149   0.426   6.575
 4101SOL    HW212990   2.278   0.514   6.528
 4102SOL     OW12991   3.000   0.380   7.264
 4102SOL    HW112992   2.955   0.443   7.328
 4102SOL    HW212993   3.093   0.411   7.247
 4103SOL     OW12994   3.022   0.207   7.063
 4103SOL    HW112995   3.022   0.271   7.140
 4103SOL    HW212996   3.050   0.255   6.980
 4104SOL     OW12997   1.870   1.326   5.786
 4104SOL    HW112998   1.777   1.347   5.755
 4104SOL    HW212999   1.880   1.227   5.799
 4105SOL     OW13000   1.950   1.801   6.513
 4105SOL    HW113001   1.908   1.715   6.486
 4105SOL    HW213002   2.044   1.804   6.479
 4106SOL     OW13003   2.864   0.796   6.824
 4106SOL    HW113004   2.905   0.764   6.910
 4106SOL    HW213005   2.768   0.769   6.821
 4107SOL     OW13006   1.902   0.544   6.700
 4107SOL    HW113007   1.987   0.511   6.659
 4107SOL    HW213008   1.915   0.559   6.798
 4108SOL     OW13009   2.051   0.520   7.308
 4108SOL    HW113010   2.110   0.480   7.238
 4108SOL    HW213011   1.993   0.591   7.267
 4109SOL     OW13012   3.231   0.950   7.246
 4109SOL    HW113013   3.270   1.039   7.266
 4109SOL    HW213014   3.241   0.930   7.149
 4110SOL     OW13015   2.677   0.572   5.911
 4110SOL    HW113016   2.684   0.483   5.865
 4110SOL    HW213017   2.583   0.606   5.903
 4111SOL     OW13018   3.519   0.604   6.792
 4111SOL    HW113019   3.481   0.535   6.854
 4111SOL    HW213020   3.601   0.568   6.748
 4112SOL     OW13021   2.533   0.464   6.855
 4112SOL    HW113022   2.499   0.375   6.825
 4112SOL    HW213023   2.559   0.518   6.775
 4113SOL     OW13024   2.335   0.500   5.777
 4113SOL    HW113025   2.396   0.580   5.781
 4113SOL    HW213026   2.240   0.531   5.784
 4114SOL     OW13027   2.021   1.137   7.052
 4114SOL    HW113028   2.043   1.076   7.128
 4114SOL    HW213029   2.031   1.088   6.966
 4115SOL     OW13030   3.209   1.059   6.820
 4115SOL    HW113031   3.233   0.996   6.746
 4115SOL    HW213032   3.119   1.099   6.802
 4116SOL     OW13033   3.164   0.855   5.895
 4116SOL    HW113034   3.078   0.824   5.937
 4116SOL    HW213035   3.160   0.841   5.796
 4117SOL     OW13036   3.621   1.747   6.740
 4117SOL    HW113037   3.682   1.777   6.667
 4117SOL    HW213038   3.583   1.658   6.718
 4118SOL     OW13039   3.114   1.731   6.714
 4118SOL    HW113040   3.198   1.736   6.660
 4118SOL    HW213041   3.091   1.635   6.732
 4119SOL     OW13042   1.945   1.258   6.608
 4119SOL    HW113043   1.940   1.257   6.708
 4119SOL    HW213044   1.862   1.217   6.570
 4120SOL     OW13045   3.588   0.135   6.109
 4120SOL    HW113046   3.661   0.118   6.042
 4120SOL    HW213047   3.557   0.048   6.147
 4121SOL     OW13048   3.250   1.573   6.063
 4121SOL    HW113049   3.317   1.585   5.989
 4121SOL    HW213050   3.210   1.662   6.086
 4122SOL     OW13051   1.992   1.794   7.437
 4122SOL    HW113052   1.951   1.720   7.490
 4122SOL    HW213053   2.056   1.845   7.495
 4123SOL     OW13054   3.142   0.927   6.258
 4123SOL    HW113055   3.202   0.846   6.260
 4123SOL    HW213056   3.182   0.996   6.198
 4124SOL     OW13057   2.692   1.273   7.008
 4124SOL    HW113058   2.687   1.306   7.103
 4124SOL    HW213059   2.606   1.292   6.962
 4125SOL     OW13060   2.534   1.616   5.740
 4125SOL    HW113061   2.543   1.626   5.641
 4125SOL    HW213062   2.494   1.527   5.761
 4126SOL     OW13063   3.512   1.720   6.980
 4126SOL    HW113064   3.565   1.730   6.896
 4126SOL    HW213065   3.485   1.810   7.014
 4127SOL     OW13066   3.703   0.175   6.549
 4127SOL    HW113067   3.742   0.090   6.513
 4127SOL    HW213068   3.605   0.177   6.530
 4128SOL     OW13069   2.125   0.326   6.306
 4128SOL    HW113070   2.046   0.377   6.272
 4128SOL    HW213071   2.116   0.311   6.404
 4129SOL     OW13072   3.056   1.612   5.617
 4129SOL    HW113073   3.062   1.519   5.654
 4129SOL    HW213074   2.997   1.612   5.537
 4130SOL     OW13075   2.684   1.002   6.958
 4130SOL    HW113076   2.724   1.001   6.866
 4130SOL    HW213077   2.694   1.094   6.998
 4131SOL     OW13078   2.778   0.910   5.877
 4131SOL    HW113079   2.841   0.948   5.809
 4131SOL    HW213080   2.818   0.827   5.916
 4132SOL     OW13081   3.366   1.607   5.630
 4132SOL    HW113082   3.274   1.644   5.637
 4132SOL    HW213083   3.404   1.627   5.540
 4133SOL     OW13084   3.476   1.292   6.875
 4133SOL    HW113085   3.536   1.295   6.955
 4133SOL    HW213086   3.401   1.356   6.888
 4134SOL     OW13087   2.901   1.098   6.282
 4134SOL    HW113088   2.831   1.051   6.336
 4134SOL    HW213089   2.960   1.030   6.239
 4135SOL     OW13090   2.876   0.236   6.557
 4135SOL    HW113091   2.868   0.200   6.464
 4135SOL    HW213092   2.874   0.160   6.622
 4136SOL     OW13093   2.452   1.487   6.077
 4136SOL    HW113094   2.494   1.429   6.007
 4136SOL    HW213095   2.408   1.566   6.033
 4137SOL     OW13096   3.571   0.385   6.967
 4137SOL    HW113097   3.644   0.454   6.971
 4137SOL    HW213098   3.599   0.310   6.908
 4138SOL     OW13099   1.967   1.013   7.312
 4138SOL    HW113100   1.890   0.980   7.366
 4138SOL    HW213101   2.052   0.983   7.354
 4139SOL     OW13102   2.534   0.203   7.075
 4139SOL    HW113103   2.624   0.187   7.035
 4139SOL    HW213104   2.542   0.208   7.174
 4140SOL     OW13105   1.937   0.345   5.619
 4140SOL    HW113106   1.845   0.317   5.590
 4140SOL    HW213107   1.968   0.422   5.563
 4141SOL     OW13108   3.302   0.856   6.984
 4141SOL    HW113109   3.245   0.908   6.921
 4141SOL    HW213110   3.398   0.868   6.960
 4142SOL     OW13111   1.934   0.166   5.904
 4142SOL    HW113112   1.917   0.249   5.850
 4142SOL    HW213113   2.024   0.129   5.882
 4143SOL     OW13114   3.045   1.335   5.705
 4143SOL    HW113115   2.946   1.324   5.707
 4143SOL    HW213116   3.079   1.350   5.798
 4144SOL     OW13117   2.475   0.842   7.017
 4144SOL    HW113118   2.531   0.923   7.000
 4144SOL    HW213119   2.534   0.762   7.020
 4145SOL     OW13120   3.355   1.767   6.545
 4145SOL    HW113121   3.388   1.831   6.476
 4145SOL    HW213122   3.421   1.761   6.620
 4146SOL     OW13123   2.578   0.565   7.294
 4146SOL    HW113124   2.597   0.630   7.368
 4146SOL    HW213125   2.638   0.485   7.303
 4147SOL     OW13126   3.312   1.220   7.219
 4147SOL    HW113127   3.303   1.210   7.318
 4147SOL    HW213128   3.408   1.213   7.193
 4148SOL     OW13129   2.252   1.741   7.146
 4148SOL    HW113130   2.161   1.782   7.144
 4148SOL    HW213131   2.245   1.647   7.178
 4149SOL     OW13132   3.536   0.883   6.840
 4149SOL    HW113133   3.509   0.794   6.803
 4149SOL    HW213134   3.537   0.951   6.767
 4150SOL     OW13135   3.087   0.325   6.035
 4150SOL    HW113136   3.152   0.251   6.024
 4150SOL    HW213137   3.107   0.375   6.119
 4151SOL     OW13138   2.456   0.745   6.238
 4151SOL    HW113139   2.506   0.830   6.219
 4151SOL    HW213140   2.368   0.747   6.190
 4152SOL     OW13141   3.639   0.342   7.228
 4152SOL    HW113142   3.622   0.373   7.134
 4152SOL    HW213143   3.555   0.305   7.266
 4153SOL     OW13144   3.592   0.934   7.103
 4153SOL    HW113145   3.630   1.025   7.118
 4153SOL    HW213146   3.584   0.917   7.004
 4154SOL     OW13147   2.721   1.374   5.602
 4154SOL    HW113148   2.675   1.389   5.690
 4154SOL    HW213149   2.765   1.459   5.572
 4155SOL     OW13150   2.721   0.956   6.447
 4155SOL    HW113151   2.775   0.887   6.495
 4155SOL    HW213152   2.689   1.025   6.513
 4156SOL     OW13153   2.945   0.984   5.673
 4156SOL    HW113154   2.922   1.037   5.591
 4156SOL    HW213155   3.026   0.928   5.654
 4157SOL     OW13156   3.723   1.569   6.437
 4157SOL    HW113157   3.652   1.557   6.367
 4157SOL    HW213158   3.724   1.490   6.497
 4158SOL     OW13159   3.686   0.192   6.813
 4158SOL    HW113160   3.682   0.102   6.857
 4158SOL    HW213161   3.689   0.181   6.714
 4159SOL     OW13162   2.290   0.424   6.106
 4159SOL    HW113163   2.320   0.352   6.044
 4159SOL    HW213164   2.251   0.384   6.189
 4160SOL     OW13165   3.567   1.487   6.690
 4160SOL    HW113166   3.474   1.462   6.663
 4160SOL    HW213167   3.593   1.437   6.772
 4161SOL     OW13168   2.179   0.547   6.866
 4161SOL    HW113169   2.217   0.488   6.938
 4161SOL    HW213170   2.219   0.521   6.778
 4162SOL     OW13171   3.286   0.214   6.698
 4162SOL    HW113172   3.338   0.149   6.753
 4162SOL    HW213173   3.237   0.277   6.759
 4163SOL     OW13174   2.863   0.034   6.740
 4163SOL    HW113175   2.800  -0.038   6.709
 4163SOL    HW213176   2.956  -0.002   6.740
 4164SOL     OW13177   2.632   1.330   5.887
 4164SOL    HW113178   2.586   1.243   5.904
 4164SOL    HW213179   2.723   1.327   5.928
 4165SOL     OW13180   3.214   0.052   5.754
 4165SOL    HW113181   3.249   0.011   5.670
 4165SOL    HW213182   3.124   0.014   5.774
 4166SOL     OW13183   3.162   0.453   6.277
 4166SOL    HW113184   3.103   0.533   6.281
 4166SOL    HW213185   3.177   0.418   6.370
 4167SOL     OW13186   3.455   0.221   6.468
 4167SOL    HW113187   3.371   0.220   6.522
 4167SOL    HW213188   3.457   0.304   6.412
 4168SOL     OW13189   1.901   1.077   5.886
 4168SOL    HW113190   2.000   1.066   5.877
 4168SOL    HW213191   1.861   0.991   5.918
 4169SOL     OW13192   2.737   1.646   5.923
 4169SOL    HW113193   2.660   1.611   5.869
 4169SOL    HW213194   2.705   1.717   5.985
 4170SOL     OW13195   2.092   0.628   7.561
 4170SOL    HW113196   1.999   0.626   7.598
 4170SOL    HW213197   2.093   0.589   7.469
 4171SOL     OW13198   2.087   0.275   8.444
 4171SOL    HW113199   2.122   0.258   8.536
 4171SOL    HW213200   1.999   0.230   8.432
 4172SOL     OW13201   1.881   0.368   8.095
 4172SOL    HW113202   1.799   0.411   8.134
 4172SOL    HW213203   1.853   0.295   8.032
 4173SOL     OW13204   2.431   1.275   8.613
 4173SOL    HW113205   2.338   1.268   8.576
 4173SOL    HW213206   2.442   1.364   8.657
 4174SOL     OW13207   3.417   1.511   8.151
 4174SOL    HW113208   3.360   1.495   8.232
 4174SOL    HW213209   3.358   1.521   8.071
 4175SOL     OW13210   2.997   0.703   8.165
 4175SOL    HW113211   3.054   0.781   8.140
 4175SOL    HW213212   2.937   0.729   8.241
 4176SOL     OW13213   3.617   0.607   7.679
 4176SOL    HW113214   3.605   0.594   7.580
 4176SOL    HW213215   3.587   0.526   7.728
 4177SOL     OW13216   2.630   1.144   8.471
 4177SOL    HW113217   2.552   1.161   8.531
 4177SOL    HW213218   2.664   1.231   8.435
 4178SOL     OW13219   2.712   0.798   9.271
 4178SOL    HW113220   2.708   0.874   9.336
 4178SOL    HW213221   2.734   0.834   9.180
 4179SOL     OW13222   2.547   1.012   8.113
 4179SOL    HW113223   2.616   0.996   8.183
 4179SOL    HW213224   2.474   1.069   8.151
 4180SOL     OW13225   2.548   1.161   9.251
 4180SOL    HW113226   2.608   1.240   9.265
 4180SOL    HW213227   2.462   1.192   9.210
 4181SOL     OW13228   2.197   1.435   8.509
 4181SOL    HW113229   2.119   1.404   8.456
 4181SOL    HW213230   2.255   1.493   8.452
 4182SOL     OW13231   3.322   1.505   8.787
 4182SOL    HW113232   3.346   1.599   8.813
 4182SOL    HW213233   3.306   1.451   8.869
 4183SOL     OW13234   2.300   0.392   8.947
 4183SOL    HW113235   2.382   0.336   8.956
 4183SOL    HW213236   2.219   0.334   8.951
 4184SOL     OW13237   3.465   0.447   8.185
 4184SOL    HW113238   3.391   0.493   8.135
 4184SOL    HW213239   3.516   0.515   8.238
 4185SOL     OW13240   2.989   1.341   9.138
 4185SOL    HW113241   3.036   1.341   9.226
 4185SOL    HW213242   2.941   1.254   9.127
 4186SOL     OW13243   2.102   1.091   8.334
 4186SOL    HW113244   2.116   1.007   8.386
 4186SOL    HW213245   2.047   1.155   8.389
 4187SOL     OW13246   2.482   1.786   8.887
 4187SOL    HW113247   2.390   1.769   8.922
 4187SOL    HW213248   2.510   1.878   8.913
 4188SOL     OW13249   2.468   0.964   7.571
 4188SOL    HW113250   2.475   1.048   7.517
 4188SOL    HW213251   2.514   0.977   7.659
 4189SOL     OW13252   3.456   0.114   8.928
 4189SOL    HW113253   3.438   0.181   8.856
 4189SOL    HW213254   3.453   0.160   9.017
 4190SOL     OW13255   1.984   0.643   8.011
 4190SOL    HW113256   1.939   0.555   8.028
 4190SOL    HW213257   1.983   0.697   8.095
 4191SOL     OW13258   3.704   1.767   7.807
 4191SOL    HW113259   3.758   1.738   7.887
 4191SOL    HW213260   3.734   1.857   7.778
 4192SOL     OW13261   3.551   0.922   8.060
 4192SOL    HW113262   3.646   0.893   8.068
 4192SOL    HW213263   3.543   0.987   7.985
 4193SOL     OW13264   3.503   1.108   7.880
 4193SOL    HW113265   3.589   1.110   7.828
 4193SOL    HW213266   3.517   1.155   7.968
 4194SOL     OW13267   1.975   0.737   9.045
 4194SOL    HW113268   2.063   0.724   9.090
 4194SOL    HW213269   1.962   0.834   9.023
 4195SOL     OW13270   2.475   1.365   8.174
 4195SOL    HW113271   2.426   1.278   8.183
 4195SOL    HW213272   2.452   1.408   8.087
 4196SOL     OW13273   3.155   1.228   8.871
 4196SOL    HW113274   3.192   1.155   8.813
 4196SOL    HW213275   3.207   1.233   8.956
 4197SOL     OW13276   2.671   0.004   7.950
 4197SOL    HW113277   2.711   0.095   7.941
 4197SOL    HW213278   2.571   0.012   7.956
 4198SOL     OW13279   2.059   0.976   8.712
 4198SOL    HW113280   2.148   0.931   8.698
 4198SOL    HW213281   1.986   0.911   8.693
 4199SOL     OW13282   3.387   0.999   7.638
 4199SOL    HW113283   3.324   0.923   7.651
 4199SOL    HW213284   3.435   1.017   7.724
 4200SOL     OW13285   3.049   1.792   9.064
 4200SOL    HW113286   3.073   1.852   8.988
 4200SOL    HW213287   3.056   1.697   9.034
 4201SOL     OW13288   2.179   0.251   9.249
 4201SOL    HW113289   2.250   0.322   9.255
 4201SOL    HW213290   2.091   0.290   9.277
 4202SOL     OW13291   3.328   1.417   8.401
 4202SOL    HW113292   3.269   1.423   8.481
 4202SOL    HW213293   3.313   1.329   8.355
 4203SOL     OW13294   3.529   1.714   8.020
 4203SOL    HW113295   3.488   1.691   7.932
 4203SOL    HW213296   3.511   1.640   8.085
 4204SOL     OW13297   2.460   0.729   7.718
 4204SOL    HW113298   2.484   0.798   7.650
 4204SOL    HW213299   2.382   0.762   7.772
 4205SOL     OW13300   3.143   0.345   8.392
 4205SOL    HW113301   3.057   0.295   8.379
 4205SOL    HW213302   3.205   0.291   8.448
 4206SOL     OW13303   3.438   1.662   7.755
 4206SOL    HW113304   3.527   1.708   7.758
 4206SOL    HW213305   3.417   1.638   7.660
 4207SOL     OW13306   2.669   0.605   8.913
 4207SOL    HW113307   2.622   0.602   9.002
 4207SOL    HW213308   2.618   0.550   8.847
 4208SOL     OW13309   3.256   0.469   9.122
 4208SOL    HW113310   3.236   0.512   9.210
 4208SOL    HW213311   3.334   0.407   9.131
 4209SOL     OW13312   2.835   0.890   9.020
 4209SOL    HW113313   2.881   0.806   8.991
 4209SOL    HW213314   2.779   0.924   8.945
 4210SOL     OW13315   2.853   0.410   8.690
 4210SOL    HW113316   2.776   0.444   8.744
 4210SOL    HW213317   2.819   0.359   8.611
 4211SOL     OW13318   2.903   0.701   7.877
 4211SOL    HW113319   2.929   0.697   7.973
 4211SOL    HW213320   2.818   0.650   7.863
 4212SOL     OW13321   1.938   0.811   8.237
 4212SOL    HW113322   2.037   0.799   8.246
 4212SOL    HW213323   1.914   0.906   8.258
 4213SOL     OW13324   2.727   0.348   7.643
 4213SOL    HW113325   2.786   0.411   7.594
 4213SOL    HW213326   2.746   0.254   7.614
 4214SOL     OW13327   3.581   0.585   9.279
 4214SOL    HW113328   3.555   0.674   9.243
 4214SOL    HW213329   3.579   0.517   9.206
 4215SOL     OW13330   3.224   1.144   7.993
 4215SOL    HW113331   3.307   1.115   7.945
 4215SOL    HW213332   3.175   1.211   7.937
 4216SOL     OW13333   2.412   0.196   8.333
 4216SOL    HW113334   2.407   0.191   8.433
 4216SOL    HW213335   2.414   0.292   8.304
 4217SOL     OW13336   2.870   1.456   7.925
 4217SOL    HW113337   2.824   1.528   7.873
 4217SOL    HW213338   2.866   1.476   8.023
 4218SOL     OW13339   2.213   1.801   8.301
 4218SOL    HW113340   2.263   1.715   8.307
 4218SOL    HW213341   2.278   1.878   8.298
 4219SOL     OW13342   3.657   1.066   8.321
 4219SOL    HW113343   3.595   1.051   8.245
 4219SOL    HW213344   3.605   1.077   8.406
 4220SOL     OW13345   3.089   1.550   8.954
 4220SOL    HW113346   3.095   1.473   9.018
 4220SOL    HW213347   3.037   1.524   8.874
 4221SOL     OW13348   2.183   0.943   7.690
 4221SOL    HW113349   2.265   0.982   7.648
 4221SOL    HW213350   2.156   0.861   7.641
 4222SOL     OW13351   3.320   0.735   8.176
 4222SOL    HW113352   3.315   0.670   8.251
 4222SOL    HW213353   3.400   0.794   8.189
 4223SOL     OW13354   2.323   1.266   9.175
 4223SOL    HW113355   2.273   1.267   9.089
 4223SOL    HW213356   2.260   1.248   9.251
 4224SOL     OW13357   2.973   1.776   7.685
 4224SOL    HW113358   2.913   1.714   7.735
 4224SOL    HW213359   3.004   1.732   7.600
 4225SOL     OW13360   2.064   0.285   8.946
 4225SOL    HW113361   1.984   0.345   8.933
 4225SOL    HW213362   2.054   0.236   9.032
 4226SOL     OW13363   3.494   1.377   7.529
 4226SOL    HW113364   3.462   1.471   7.519
 4226SOL    HW213365   3.418   1.314   7.517
 4227SOL     OW13366   3.262   0.107   7.874
 4227SOL    HW113367   3.238   0.070   7.784
 4227SOL    HW213368   3.361   0.123   7.878
 4228SOL     OW13369   2.111   1.785   8.689
 4228SOL    HW113370   2.168   1.720   8.739
 4228SOL    HW213371   2.095   1.752   8.596
 4229SOL     OW13372   2.802   1.698   8.352
 4229SOL    HW113373   2.882   1.641   8.373
 4229SOL    HW213374   2.753   1.658   8.275
 4230SOL     OW13375   2.244   0.700   7.928
 4230SOL    HW113376   2.289   0.610   7.925
 4230SOL    HW213377   2.150   0.689   7.961
 4231SOL     OW13378   3.409   0.222   9.177
 4231SOL    HW113379   3.404   0.259   9.269
 4231SOL    HW213380   3.337   0.153   9.165
 4232SOL     OW13381   2.476   0.122   7.565
 4232SOL    HW113382   2.574   0.100   7.572
 4232SOL    HW213383   2.445   0.105   7.472
 4233SOL     OW13384   2.643   0.264   9.197
 4233SOL    HW113385   2.710   0.203   9.240
 4233SOL    HW213386   2.570   0.283   9.262
 4234SOL     OW13387   2.750   1.514   8.643
 4234SOL    HW113388   2.727   1.489   8.549
 4234SOL    HW213389   2.811   1.445   8.682
 4235SOL     OW13390   3.213   0.590   8.881
 4235SOL    HW113391   3.241   0.547   8.966
 4235SOL    HW213392   3.238   0.686   8.882
 4236SOL     OW13393   2.665   1.402   8.372
 4236SOL    HW113394   2.755   1.416   8.330
 4236SOL    HW213395   2.594   1.404   8.301
 4237SOL     OW13396   2.784   0.503   8.347
 4237SOL    HW113397   2.759   0.494   8.251
 4237SOL    HW213398   2.832   0.421   8.378
 4238SOL     OW13399   2.401   0.064   7.960
 4238SOL    HW113400   2.320   0.065   8.018
 4238SOL    HW213401   2.404   0.147   7.905
 4239SOL     OW13402   3.296   1.188   7.489
 4239SOL    HW113403   3.328   1.112   7.546
 4239SOL    HW213404   3.204   1.215   7.519
 4240SOL     OW13405   2.159   0.035   7.619
 4240SOL    HW113406   2.208   0.119   7.598
 4240SOL    HW213407   2.221  -0.030   7.664
 4241SOL     OW13408   2.797   0.236   7.928
 4241SOL    HW113409   2.749   0.277   7.850
 4241SOL    HW213410   2.896   0.234   7.909
 4242SOL     OW13411   2.938   0.683   8.912
 4242SOL    HW113412   2.858   0.622   8.915
 4242SOL    HW213413   3.019   0.630   8.888
 4243SOL     OW13414   3.089   1.570   8.241
 4243SOL    HW113415   3.110   1.644   8.176
 4243SOL    HW213416   3.157   1.570   8.314
 4244SOL     OW13417   2.321   1.152   8.189
 4244SOL    HW113418   2.250   1.125   8.254
 4244SOL    HW213419   2.295   1.124   8.096
 4245SOL     OW13420   3.133   1.797   8.039
 4245SOL    HW113421   3.177   1.861   7.975
 4245SOL    HW213422   3.083   1.849   8.109
 4246SOL     OW13423   2.894   0.549   7.464
 4246SOL    HW113424   2.853   0.631   7.425
 4246SOL    HW213425   2.958   0.575   7.537
 4247SOL     OW13426   1.940   0.556   8.834
 4247SOL    HW113427   2.032   0.555   8.793
 4247SOL    HW213428   1.934   0.630   8.901
 4248SOL     OW13429   2.423   0.222   8.595
 4248SOL    HW113430   2.461   0.138   8.632
 4248SOL    HW213431   2.335   0.241   8.639
 4249SOL     OW13432   2.728   0.454   8.090
 4249SOL    HW113433   2.696   0.526   8.028
 4249SOL    HW213434   2.752   0.373   8.037
 4250SOL     OW13435   2.879   0.039   8.201
 4250SOL    HW113436   2.807   0.044   8.132
 4250SOL    HW213437   2.855  -0.030   8.270
 4251SOL     OW13438   3.291   1.173   8.315
 4251SOL    HW113439   3.236   1.089   8.308
 4251SOL    HW213440   3.317   1.202   8.223
 4252SOL     OW13441   3.328   0.590   8.440
 4252SOL    HW113442   3.298   0.495   8.447
 4252SOL    HW213443   3.401   0.606   8.506
 4253SOL     OW13444   3.719   0.833   7.825
 4253SOL    HW113445   3.761   0.769   7.889
 4253SOL    HW213446   3.681   0.782   7.747
 4254SOL     OW13447   3.526   1.280   8.105
 4254SOL    HW113448   3.625   1.288   8.119
 4254SOL    HW213449   3.481   1.364   8.136
 4255SOL     OW13450   3.252   0.575   7.526
 4255SOL    HW113451   3.198   0.554   7.607
 4255SOL    HW213452   3.343   0.534   7.535
 4256SOL     OW13453   2.389   0.256   7.776
 4256SOL    HW113454   2.416   0.197   7.701
 4256SOL    HW213455   2.389   0.351   7.745
 4257SOL     OW13456   3.616   1.223   9.036
 4257SOL    HW113457   3.707   1.184   9.023
 4257SOL    HW213458   3.624   1.319   9.060
 4258SOL     OW13459   2.926   1.347   8.788
 4258SOL    HW113460   2.846   1.324   8.843
 4258SOL    HW213461   3.009   1.321   8.837
 4259SOL     OW13462   3.454   1.629   9.073
 4259SOL    HW113463   3.481   1.663   8.983
 4259SOL    HW213464   3.533   1.591   9.119
 4260SOL     OW13465   2.973   1.195   8.548
 4260SOL    HW113466   2.933   1.239   8.629
 4260SOL    HW213467   2.932   1.232   8.465
 4261SOL     OW13468   3.500   1.099   8.527
 4261SOL    HW113469   3.505   1.180   8.586
 4261SOL    HW213470   3.414   1.101   8.476
 4262SOL     OW13471   2.777   0.089   8.850
 4262SOL    HW113472   2.802   0.069   8.755
 4262SOL    HW213473   2.849   0.145   8.892
 4263SOL     OW13474   2.842   1.116   9.167
 4263SOL    HW113475   2.743   1.122   9.177
 4263SOL    HW213476   2.865   1.036   9.111
 4264SOL     OW13477   2.567   1.050   7.816
 4264SOL    HW113478   2.553   1.057   7.915
 4264SOL    HW213479   2.651   0.999   7.798
 4265SOL     OW13480   2.272   0.813   8.699
 4265SOL    HW113481   2.358   0.825   8.749
 4265SOL    HW213482   2.230   0.726   8.726
 4266SOL     OW13483   3.136   0.386   8.710
 4266SOL    HW113484   3.157   0.460   8.774
 4266SOL    HW213485   3.047   0.403   8.667
 4267SOL     OW13486   1.926   1.564   8.779
 4267SOL    HW113487   1.880   1.646   8.745
 4267SOL    HW213488   2.024   1.583   8.788
 4268SOL     OW13489   2.229   1.100   7.949
 4268SOL    HW113490   2.222   1.183   7.893
 4268SOL    HW213491   2.233   1.020   7.889
 4269SOL     OW13492   2.428   0.537   8.313
 4269SOL    HW113493   2.440   0.603   8.239
 4269SOL    HW213494   2.474   0.571   8.396
 4270SOL     OW13495   3.114   1.348   7.836
 4270SOL    HW113496   3.164   1.425   7.876
 4270SOL    HW213497   3.019   1.350   7.868
 4271SOL     OW13498   3.134   1.445   8.590
 4271SOL    HW113499   3.181   1.458   8.677
 4271SOL    HW213500   3.068   1.371   8.599
 4272SOL     OW13501   3.444   0.639   7.920
 4272SOL    HW113502   3.413   0.700   7.993
 4272SOL    HW213503   3.494   0.691   7.851
 4273SOL     OW13504   2.216   1.510   8.777
 4273SOL    HW113505   2.195   1.466   8.690
 4273SOL    HW213506   2.313   1.536   8.780
 4274SOL     OW13507   2.264   0.751   9.046
 4274SOL    HW113508   2.332   0.806   8.999
 4274SOL    HW213509   2.304   0.663   9.073
 4275SOL     OW13510   3.449   0.779   9.118
 4275SOL    HW113511   3.357   0.817   9.113
 4275SOL    HW213512   3.509   0.826   9.053
 4276SOL     OW13513   2.875   0.105   9.218
 4276SOL    HW113514   2.881   0.190   9.166
 4276SOL    HW213515   2.907   0.029   9.161
 4277SOL     OW13516   2.366   0.050   9.188
 4277SOL    HW113517   2.324  -0.007   9.118
 4277SOL    HW213518   2.300   0.119   9.220
 4278SOL     OW13519   2.435   0.870   8.477
 4278SOL    HW113520   2.479   0.959   8.468
 4278SOL    HW213521   2.372   0.870   8.554
 4279SOL     OW13522   3.222   0.862   8.493
 4279SOL    HW113523   3.147   0.862   8.427
 4279SOL    HW213524   3.259   0.770   8.502
 4280SOL     OW13525   3.071   0.525   7.723
 4280SOL    HW113526   3.084   0.441   7.777
 4280SOL    HW213527   3.042   0.599   7.783
 4281SOL     OW13528   2.169   0.213   8.679
 4281SOL    HW113529   2.146   0.250   8.769
 4281SOL    HW213530   2.139   0.118   8.673
 4282SOL     OW13531   1.899   1.310   8.730
 4282SOL    HW113532   1.952   1.261   8.798
 4282SOL    HW213533   1.921   1.408   8.735
 4283SOL     OW13534   2.594   0.634   8.512
 4283SOL    HW113535   2.653   0.608   8.436
 4283SOL    HW213536   2.566   0.730   8.501
 4284SOL     OW13537   3.590   0.935   9.302
 4284SOL    HW113538   3.544   0.928   9.213
 4284SOL    HW213539   3.528   0.979   9.368
 4285SOL     OW13540   2.169   0.063   8.066
 4285SOL    HW113541   2.158   0.157   8.099
 4285SOL    HW213542   2.164   0.000   8.143
 4286SOL     OW13543   3.484   0.367   7.822
 4286SOL    HW113544   3.486   0.291   7.886
 4286SOL    HW213545   3.436   0.444   7.862
 4287SOL     OW13546   2.885   0.766   8.414
 4287SOL    HW113547   2.900   0.787   8.510
 4287SOL    HW213548   2.855   0.671   8.405
 4288SOL     OW13549   2.842   1.573   9.148
 4288SOL    HW113550   2.822   1.617   9.060
 4288SOL    HW213551   2.881   1.482   9.132
 4289SOL     OW13552   3.721   1.518   9.053
 4289SOL    HW113553   3.735   1.545   8.958
 4289SOL    HW213554   3.804   1.540   9.106
 4290SOL     OW13555   2.212   0.898   9.252
 4290SOL    HW113556   2.288   0.942   9.300
 4290SOL    HW213557   2.247   0.851   9.170
 4291SOL     OW13558   3.402   0.274   7.573
 4291SOL    HW113559   3.341   0.199   7.596
 4291SOL    HW213560   3.424   0.326   7.656
 4292SOL     OW13561   3.165   0.838   7.490
 4292SOL    HW113562   3.199   0.745   7.505
 4292SOL    HW213563   3.183   0.865   7.395
 4293SOL     OW13564   2.930   1.333   8.297
 4293SOL    HW113565   2.937   1.249   8.242
 4293SOL    HW213566   2.992   1.402   8.261
 4294SOL     OW13567   2.181   0.810   8.397
 4294SOL    HW113568   2.274   0.846   8.402
 4294SOL    HW213569   2.175   0.725   8.449
 4295SOL     OW13570   2.201   0.509   8.454
 4295SOL    HW113571   2.149   0.426   8.437
 4295SOL    HW213572   2.278   0.514   8.390
 4296SOL     OW13573   3.000   0.380   9.126
 4296SOL    HW113574   2.955   0.443   9.190
 4296SOL    HW213575   3.093   0.411   9.109
 4297SOL     OW13576   3.022   0.207   8.925
 4297SOL    HW113577   3.022   0.271   9.002
 4297SOL    HW213578   3.050   0.255   8.842
 4298SOL     OW13579   1.950   1.801   8.375
 4298SOL    HW113580   1.908   1.715   8.348
 4298SOL    HW213581   2.044   1.804   8.341
 4299SOL     OW13582   2.366   1.568   8.358
 4299SOL    HW113583   2.432   1.642   8.367
 4299SOL    HW213584   2.410   1.489   8.316
 4300SOL     OW13585   2.864   0.796   8.686
 4300SOL    HW113586   2.905   0.764   8.772
 4300SOL    HW213587   2.768   0.769   8.683
 4301SOL     OW13588   1.902   0.544   8.562
 4301SOL    HW113589   1.987   0.511   8.521
 4301SOL    HW213590   1.915   0.559   8.660
 4302SOL     OW13591   2.051   0.520   9.170
 4302SOL    HW113592   2.110   0.480   9.100
 4302SOL    HW213593   1.993   0.591   9.129
 4303SOL     OW13594   3.231   0.950   9.108
 4303SOL    HW113595   3.270   1.039   9.128
 4303SOL    HW213596   3.241   0.930   9.011
 4304SOL     OW13597   2.677   0.572   7.773
 4304SOL    HW113598   2.684   0.483   7.727
 4304SOL    HW213599   2.583   0.606   7.765
 4305SOL     OW13600   3.519   0.604   8.654
 4305SOL    HW113601   3.481   0.535   8.716
 4305SOL    HW213602   3.601   0.568   8.610
 4306SOL     OW13603   2.114   1.564   9.192
 4306SOL    HW113604   2.084   1.621   9.268
 4306SOL    HW213605   2.107   1.467   9.218
 4307SOL     OW13606   2.533   0.464   8.717
 4307SOL    HW113607   2.499   0.375   8.687
 4307SOL    HW213608   2.559   0.518   8.637
 4308SOL     OW13609   2.792   1.678   8.913
 4308SOL    HW113610   2.768   1.660   8.818
 4308SOL    HW213611   2.822   1.772   8.923
 4309SOL     OW13612   2.335   0.500   7.639
 4309SOL    HW113613   2.396   0.580   7.643
 4309SOL    HW213614   2.240   0.531   7.646
 4310SOL     OW13615   2.021   1.137   8.914
 4310SOL    HW113616   2.043   1.076   8.990
 4310SOL    HW213617   2.031   1.088   8.828
 4311SOL     OW13618   3.209   1.059   8.682
 4311SOL    HW113619   3.233   0.996   8.608
 4311SOL    HW213620   3.119   1.099   8.664
 4312SOL     OW13621   3.164   0.855   7.757
 4312SOL    HW113622   3.078   0.824   7.799
 4312SOL    HW213623   3.160   0.841   7.658
 4313SOL     OW13624   3.621   1.747   8.602
 4313SOL    HW113625   3.682   1.777   8.529
 4313SOL    HW213626   3.583   1.658   8.580
 4314SOL     OW13627   3.114   1.731   8.576
 4314SOL    HW113628   3.198   1.736   8.522
 4314SOL    HW213629   3.091   1.635   8.594
 4315SOL     OW13630   1.945   1.258   8.470
 4315SOL    HW113631   1.940   1.257   8.570
 4315SOL    HW213632   1.862   1.217   8.432
 4316SOL     OW13633   2.550   1.662   9.164
 4316SOL    HW113634   2.494   1.743   9.173
 4316SOL    HW213635   2.602   1.666   9.078
 4317SOL     OW13636   3.588   0.135   7.971
 4317SOL    HW113637   3.661   0.118   7.904
 4317SOL    HW213638   3.557   0.048   8.009
 4318SOL     OW13639   3.250   1.573   7.925
 4318SOL    HW113640   3.317   1.585   7.851
 4318SOL    HW213641   3.210   1.662   7.948
 4319SOL     OW13642   1.992   1.794   9.299
 4319SOL    HW113643   1.951   1.720   9.352
 4319SOL    HW213644   2.056   1.845   9.357
 4320SOL     OW13645   3.142   0.927   8.120
 4320SOL    HW113646   3.202   0.846   8.122
 4320SOL    HW213647   3.182   0.996   8.060
 4321SOL     OW13648   2.692   1.273   8.870
 4321SOL    HW113649   2.687   1.306   8.965
 4321SOL    HW213650   2.606   1.292   8.824
 4322SOL     OW13651   3.512   1.720   8.842
 4322SOL    HW113652   3.565   1.730   8.758
 4322SOL    HW213653   3.485   1.810   8.876
 4323SOL     OW13654   3.703   0.175   8.411
 4323SOL    HW113655   3.742   0.090   8.375
 4323SOL    HW213656   3.605   0.177   8.392
 4324SOL     OW13657   2.125   0.326   8.168
 4324SOL    HW113658   2.046   0.377   8.134
 4324SOL    HW213659   2.116   0.311   8.266
 4325SOL     OW13660   3.056   1.612   7.479
 4325SOL    HW113661   3.062   1.519   7.516
 4325SOL    HW213662   2.997   1.612   7.399
 4326SOL     OW13663   2.684   1.002   8.820
 4326SOL    HW113664   2.724   1.001   8.728
 4326SOL    HW213665   2.694   1.094   8.860
 4327SOL     OW13666   2.778   0.910   7.739
 4327SOL    HW113667   2.841   0.948   7.671
 4327SOL    HW213668   2.818   0.827   7.778
 4328SOL     OW13669   3.366   1.607   7.492
 4328SOL    HW113670   3.274   1.644   7.499
 4328SOL    HW213671   3.404   1.627   7.402
 4329SOL     OW13672   2.234   1.288   8.938
 4329SOL    HW113673   2.221   1.381   8.904
 4329SOL    HW213674   2.150   1.236   8.925
 4330SOL     OW13675   3.476   1.292   8.737
 4330SOL    HW113676   3.536   1.295   8.817
 4330SOL    HW213677   3.401   1.356   8.750
 4331SOL     OW13678   2.901   1.098   8.144
 4331SOL    HW113679   2.831   1.051   8.198
 4331SOL    HW213680   2.960   1.030   8.101
 4332SOL     OW13681   2.876   0.236   8.419
 4332SOL    HW113682   2.868   0.200   8.326
 4332SOL    HW213683   2.874   0.160   8.484
 4333SOL     OW13684   3.571   0.385   8.829
 4333SOL    HW113685   3.644   0.454   8.833
 4333SOL    HW213686   3.599   0.310   8.770
 4334SOL     OW13687   1.967   1.013   9.174
 4334SOL    HW113688   1.890   0.980   9.228
 4334SOL    HW213689   2.052   0.983   9.216
 4335SOL     OW13690   2.534   0.203   8.937
 4335SOL    HW113691   2.624   0.187   8.897
 4335SOL    HW213692   2.542   0.208   9.036
 4336SOL     OW13693   1.937   0.345   7.481
 4336SOL    HW113694   1.845   0.317   7.452
 4336SOL    HW213695   1.968   0.422   7.425
 4337SOL     OW13696   3.302   0.856   8.846
 4337SOL    HW113697   3.245   0.908   8.783
 4337SOL    HW213698   3.398   0.868   8.822
 4338SOL     OW13699   1.934   0.166   7.766
 4338SOL    HW113700   1.917   0.249   7.712
 4338SOL    HW213701   2.024   0.129   7.744
 4339SOL     OW13702   3.045   1.335   7.567
 4339SOL    HW113703   2.946   1.324   7.569
 4339SOL    HW213704   3.079   1.350   7.660
 4340SOL     OW13705   2.475   0.842   8.879
 4340SOL    HW113706   2.531   0.923   8.862
 4340SOL    HW213707   2.534   0.762   8.882
 4341SOL     OW13708   3.355   1.767   8.407
 4341SOL    HW113709   3.388   1.831   8.338
 4341SOL    HW213710   3.421   1.761   8.482
 4342SOL     OW13711   2.578   0.565   9.156
 4342SOL    HW113712   2.597   0.630   9.230
 4342SOL    HW213713   2.638   0.485   9.165
 4343SOL     OW13714   3.312   1.220   9.081
 4343SOL    HW113715   3.303   1.210   9.180
 4343SOL    HW213716   3.408   1.213   9.055
 4344SOL     OW13717   2.252   1.741   9.008
 4344SOL    HW113718   2.161   1.782   9.006
 4344SOL    HW213719   2.245   1.647   9.040
 4345SOL     OW13720   3.536   0.883   8.702
 4345SOL    HW113721   3.509   0.794   8.665
 4345SOL    HW213722   3.537   0.951   8.629
 4346SOL     OW13723   3.087   0.325   7.897
 4346SOL    HW113724   3.152   0.251   7.886
 4346SOL    HW213725   3.107   0.375   7.981
 4347SOL     OW13726   2.456   0.745   8.100
 4347SOL    HW113727   2.506   0.830   8.081
 4347SOL    HW213728   2.368   0.747   8.052
 4348SOL     OW13729   3.639   0.342   9.090
 4348SOL    HW113730   3.622   0.373   8.996
 4348SOL    HW213731   3.555   0.305   9.128
 4349SOL     OW13732   3.592   0.934   8.965
 4349SOL    HW113733   3.630   1.025   8.980
 4349SOL    HW213734   3.584   0.917   8.866
 4350SOL     OW13735   2.721   1.374   7.464
 4350SOL    HW113736   2.675   1.389   7.552
 4350SOL    HW213737   2.765   1.459   7.434
 4351SOL     OW13738   2.523   1.790   8.401
 4351SOL    HW113739   2.477   1.878   8.388
 4351SOL    HW213740   2.622   1.802   8.394
 4352SOL     OW13741   2.721   0.956   8.309
 4352SOL    HW113742   2.775   0.887   8.357
 4352SOL    HW213743   2.689   1.025   8.375
 4353SOL     OW13744   2.945   0.984   7.535
 4353SOL    HW113745   2.922   1.037   7.453
 4353SOL    HW213746   3.026   0.928   7.516
 4354SOL     OW13747   3.723   1.569   8.299
 4354SOL    HW113748   3.652   1.557   8.229
 4354SOL    HW213749   3.724   1.490   8.359
 4355SOL     OW13750   2.083   1.314   9.292
 4355SOL    HW113751   2.018   1.241   9.271
 4355SOL    HW213752   2.087   1.328   9.390
 4356SOL     OW13753   1.941   1.240   8.101
 4356SOL    HW113754   1.940   1.193   8.189
 4356SOL    HW213755   2.023   1.212   8.050
 4357SOL     OW13756   2.534   1.391   9.072
 4357SOL    HW113757   2.456   1.341   9.110
 4357SOL    HW213758   2.531   1.486   9.103
 4358SOL     OW13759   3.686   0.192   8.675
 4358SOL    HW113760   3.682   0.102   8.719
 4358SOL    HW213761   3.689   0.181   8.576
 4359SOL     OW13762   2.290   0.424   7.968
 4359SOL    HW113763   2.320   0.352   7.906
 4359SOL    HW213764   2.251   0.384   8.051
 4360SOL     OW13765   3.567   1.487   8.552
 4360SOL    HW113766   3.474   1.462   8.525
 4360SOL    HW213767   3.593   1.437   8.634
 4361SOL     OW13768   2.179   0.547   8.728
 4361SOL    HW113769   2.217   0.488   8.800
 4361SOL    HW213770   2.219   0.521   8.640
 4362SOL     OW13771   2.674   1.586   8.135
 4362SOL    HW113772   2.706   1.596   8.041
 4362SOL    HW213773   2.595   1.524   8.137
 4363SOL     OW13774   3.286   0.214   8.560
 4363SOL    HW113775   3.338   0.149   8.615
 4363SOL    HW213776   3.237   0.277   8.621
 4364SOL     OW13777   2.863   0.034   8.602
 4364SOL    HW113778   2.800  -0.038   8.571
 4364SOL    HW213779   2.956  -0.002   8.602
 4365SOL     OW13780   2.480   1.567   8.732
 4365SOL    HW113781   2.475   1.649   8.789
 4365SOL    HW213782   2.569   1.564   8.687
 4366SOL     OW13783   3.214   0.052   7.616
 4366SOL    HW113784   3.249   0.011   7.532
 4366SOL    HW213785   3.124   0.014   7.636
 4367SOL     OW13786   3.162   0.453   8.139
 4367SOL    HW113787   3.103   0.533   8.143
 4367SOL    HW213788   3.177   0.418   8.232
 4368SOL     OW13789   3.455   0.221   8.330
 4368SOL    HW113790   3.371   0.220   8.384
 4368SOL    HW213791   3.457   0.304   8.274
 4369SOL     OW13792   1.901   1.077   7.748
 4369SOL    HW113793   2.000   1.066   7.739
 4369SOL    HW213794   1.861   0.991   7.780
 4370SOL     OW13795   2.092   0.628   9.423
 4370SOL    HW113796   1.999   0.626   9.460
 4370SOL    HW213797   2.093   0.589   9.331
 4371SOL     OW13798   2.087   0.275  10.306
 4371SOL    HW113799   2.122   0.258  10.398
 4371SOL    HW213800   1.999   0.230  10.294
 4372SOL     OW13801   1.881   0.368   9.957
 4372SOL    HW113802   1.799   0.411   9.996
 4372SOL    HW213803   1.853   0.295   9.894
 4373SOL     OW13804   2.431   1.275  10.475
 4373SOL    HW113805   2.338   1.268  10.438
 4373SOL    HW213806   2.442   1.364  10.519
 4374SOL     OW13807   3.417   1.511  10.013
 4374SOL    HW113808   3.360   1.495  10.094
 4374SOL    HW213809   3.358   1.521   9.933
 4375SOL     OW13810   2.997   0.703  10.027
 4375SOL    HW113811   3.054   0.781  10.002
 4375SOL    HW213812   2.937   0.729  10.103
 4376SOL     OW13813   3.617   0.607   9.541
 4376SOL    HW113814   3.605   0.594   9.442
 4376SOL    HW213815   3.587   0.526   9.590
 4377SOL     OW13816   2.630   1.144  10.333
 4377SOL    HW113817   2.552   1.161  10.393
 4377SOL    HW213818   2.664   1.231  10.297
 4378SOL     OW13819   2.712   0.798  11.133
 4378SOL    HW113820   2.708   0.874  11.198
 4378SOL    HW213821   2.734   0.834  11.042
 4379SOL     OW13822   2.547   1.012   9.975
 4379SOL    HW113823   2.616   0.996  10.045
 4379SOL    HW213824   2.474   1.069  10.013
 4380SOL     OW13825   2.548   1.161  11.113
 4380SOL    HW113826   2.608   1.240  11.127
 4380SOL    HW213827   2.462   1.192  11.072
 4381SOL     OW13828   2.197   1.435  10.371
 4381SOL    HW113829   2.119   1.404  10.318
 4381SOL    HW213830   2.255   1.493  10.314
 4382SOL     OW13831   3.322   1.505  10.649
 4382SOL    HW113832   3.346   1.599  10.675
 4382SOL    HW213833   3.306   1.451  10.731
 4383SOL     OW13834   2.300   0.392  10.809
 4383SOL    HW113835   2.382   0.336  10.818
 4383SOL    HW213836   2.219   0.334  10.813
 4384SOL     OW13837   3.465   0.447  10.047
 4384SOL    HW113838   3.391   0.493   9.997
 4384SOL    HW213839   3.516   0.515  10.100
 4385SOL     OW13840   2.093   1.713   9.793
 4385SOL    HW113841   2.127   1.790   9.847
 4385SOL    HW213842   2.137   1.713   9.703
 4386SOL     OW13843   2.989   1.341  11.000
 4386SOL    HW113844   3.036   1.341  11.088
 4386SOL    HW213845   2.941   1.254  10.989
 4387SOL     OW13846   2.092   1.434   9.848
 4387SOL    HW113847   2.066   1.530   9.848
 4387SOL    HW213848   2.021   1.380   9.893
 4388SOL     OW13849   2.102   1.091  10.196
 4388SOL    HW113850   2.116   1.007  10.248
 4388SOL    HW213851   2.047   1.155  10.251
 4389SOL     OW13852   2.482   1.786  10.749
 4389SOL    HW113853   2.390   1.769  10.784
 4389SOL    HW213854   2.510   1.878  10.775
 4390SOL     OW13855   2.468   0.964   9.433
 4390SOL    HW113856   2.475   1.048   9.379
 4390SOL    HW213857   2.514   0.977   9.521
 4391SOL     OW13858   3.456   0.114  10.790
 4391SOL    HW113859   3.438   0.181  10.718
 4391SOL    HW213860   3.453   0.160  10.879
 4392SOL     OW13861   1.984   0.643   9.873
 4392SOL    HW113862   1.939   0.555   9.890
 4392SOL    HW213863   1.983   0.697   9.957
 4393SOL     OW13864   3.704   1.767   9.669
 4393SOL    HW113865   3.758   1.738   9.749
 4393SOL    HW213866   3.734   1.857   9.640
 4394SOL     OW13867   1.889   1.596   9.427
 4394SOL    HW113868   1.870   1.500   9.448
 4394SOL    HW213869   1.856   1.654   9.502
 4395SOL     OW13870   3.551   0.922   9.922
 4395SOL    HW113871   3.646   0.893   9.930
 4395SOL    HW213872   3.543   0.987   9.847
 4396SOL     OW13873   3.503   1.108   9.742
 4396SOL    HW113874   3.589   1.110   9.690
 4396SOL    HW213875   3.517   1.155   9.830
 4397SOL     OW13876   1.975   0.737  10.907
 4397SOL    HW113877   2.063   0.724  10.952
 4397SOL    HW213878   1.962   0.834  10.885
 4398SOL     OW13879   2.475   1.365  10.036
 4398SOL    HW113880   2.426   1.278  10.045
 4398SOL    HW213881   2.452   1.408   9.949
 4399SOL     OW13882   3.155   1.228  10.733
 4399SOL    HW113883   3.192   1.155  10.675
 4399SOL    HW213884   3.207   1.233  10.818
 4400SOL     OW13885   2.671   0.004   9.812
 4400SOL    HW113886   2.711   0.095   9.803
 4400SOL    HW213887   2.571   0.012   9.818
 4401SOL     OW13888   2.059   0.976  10.574
 4401SOL    HW113889   2.148   0.931  10.560
 4401SOL    HW213890   1.986   0.911  10.555
 4402SOL     OW13891   3.387   0.999   9.500
 4402SOL    HW113892   3.324   0.923   9.513
 4402SOL    HW213893   3.435   1.017   9.586
 4403SOL     OW13894   3.049   1.792  10.926
 4403SOL    HW113895   3.073   1.852  10.850
 4403SOL    HW213896   3.056   1.697  10.896
 4404SOL     OW13897   2.179   0.251  11.111
 4404SOL    HW113898   2.250   0.322  11.117
 4404SOL    HW213899   2.091   0.290  11.139
 4405SOL     OW13900   3.328   1.417  10.263
 4405SOL    HW113901   3.269   1.423  10.343
 4405SOL    HW213902   3.313   1.329  10.217
 4406SOL     OW13903   3.529   1.714   9.882
 4406SOL    HW113904   3.488   1.691   9.794
 4406SOL    HW213905   3.511   1.640   9.947
 4407SOL     OW13906   2.460   0.729   9.580
 4407SOL    HW113907   2.484   0.798   9.512
 4407SOL    HW213908   2.382   0.762   9.634
 4408SOL     OW13909   3.143   0.345  10.254
 4408SOL    HW113910   3.057   0.295  10.241
 4408SOL    HW213911   3.205   0.291  10.310
 4409SOL     OW13912   3.438   1.662   9.617
 4409SOL    HW113913   3.527   1.708   9.620
 4409SOL    HW213914   3.417   1.638   9.522
 4410SOL     OW13915   2.669   0.605  10.775
 4410SOL    HW113916   2.622   0.602  10.864
 4410SOL    HW213917   2.618   0.550  10.709
 4411SOL     OW13918   3.256   0.469  10.984
 4411SOL    HW113919   3.236   0.512  11.072
 4411SOL    HW213920   3.334   0.407  10.993
 4412SOL     OW13921   2.835   0.890  10.882
 4412SOL    HW113922   2.881   0.806  10.853
 4412SOL    HW213923   2.779   0.924  10.807
 4413SOL     OW13924   2.853   0.410  10.552
 4413SOL    HW113925   2.776   0.444  10.606
 4413SOL    HW213926   2.819   0.359  10.473
 4414SOL     OW13927   2.903   0.701   9.739
 4414SOL    HW113928   2.929   0.697   9.835
 4414SOL    HW213929   2.818   0.650   9.725
 4415SOL     OW13930   1.938   0.811  10.099
 4415SOL    HW113931   2.037   0.799  10.108
 4415SOL    HW213932   1.914   0.906  10.120
 4416SOL     OW13933   2.727   0.348   9.505
 4416SOL    HW113934   2.786   0.411   9.456
 4416SOL    HW213935   2.746   0.254   9.476
 4417SOL     OW13936   3.581   0.585  11.141
 4417SOL    HW113937   3.555   0.674  11.105
 4417SOL    HW213938   3.579   0.517  11.068
 4418SOL     OW13939   3.224   1.144   9.855
 4418SOL    HW113940   3.307   1.115   9.807
 4418SOL    HW213941   3.175   1.211   9.799
 4419SOL     OW13942   2.412   0.196  10.195
 4419SOL    HW113943   2.407   0.191  10.295
 4419SOL    HW213944   2.414   0.292  10.166
 4420SOL     OW13945   2.870   1.456   9.787
 4420SOL    HW113946   2.824   1.528   9.735
 4420SOL    HW213947   2.866   1.476   9.885
 4421SOL     OW13948   2.213   1.801  10.163
 4421SOL    HW113949   2.263   1.715  10.169
 4421SOL    HW213950   2.278   1.878  10.160
 4422SOL     OW13951   3.657   1.066  10.183
 4422SOL    HW113952   3.595   1.051  10.107
 4422SOL    HW213953   3.605   1.077  10.268
 4423SOL     OW13954   3.089   1.550  10.816
 4423SOL    HW113955   3.095   1.473  10.880
 4423SOL    HW213956   3.037   1.524  10.736
 4424SOL     OW13957   2.183   0.943   9.552
 4424SOL    HW113958   2.265   0.982   9.510
 4424SOL    HW213959   2.156   0.861   9.503
 4425SOL     OW13960   3.320   0.735  10.038
 4425SOL    HW113961   3.315   0.670  10.113
 4425SOL    HW213962   3.400   0.794  10.051
 4426SOL     OW13963   2.323   1.266  11.037
 4426SOL    HW113964   2.273   1.267  10.951
 4426SOL    HW213965   2.260   1.248  11.113
 4427SOL     OW13966   2.973   1.776   9.547
 4427SOL    HW113967   2.913   1.714   9.597
 4427SOL    HW213968   3.004   1.732   9.462
 4428SOL     OW13969   2.064   0.285  10.808
 4428SOL    HW113970   1.984   0.345  10.795
 4428SOL    HW213971   2.054   0.236  10.894
 4429SOL     OW13972   3.494   1.377   9.391
 4429SOL    HW113973   3.462   1.471   9.381
 4429SOL    HW213974   3.418   1.314   9.379
 4430SOL     OW13975   2.326   1.743   9.633
 4430SOL    HW113976   2.359   1.782   9.719
 4430SOL    HW213977   2.402   1.736   9.568
 4431SOL     OW13978   3.262   0.107   9.736
 4431SOL    HW113979   3.238   0.070   9.646
 4431SOL    HW213980   3.361   0.123   9.740
 4432SOL     OW13981   2.111   1.785  10.551
 4432SOL    HW113982   2.168   1.720  10.601
 4432SOL    HW213983   2.095   1.752  10.458
 4433SOL     OW13984   2.802   1.698  10.214
 4433SOL    HW113985   2.882   1.641  10.235
 4433SOL    HW213986   2.753   1.658  10.137
 4434SOL     OW13987   2.244   0.700   9.790
 4434SOL    HW113988   2.289   0.610   9.787
 4434SOL    HW213989   2.150   0.689   9.823
 4435SOL     OW13990   3.409   0.222  11.039
 4435SOL    HW113991   3.404   0.259  11.131
 4435SOL    HW213992   3.337   0.153  11.027
 4436SOL     OW13993   2.476   0.122   9.427
 4436SOL    HW113994   2.574   0.100   9.434
 4436SOL    HW213995   2.445   0.105   9.334
 4437SOL     OW13996   2.643   0.264  11.059
 4437SOL    HW113997   2.710   0.203  11.102
 4437SOL    HW213998   2.570   0.283  11.124
 4438SOL     OW13999   2.750   1.514  10.505
 4438SOL    HW114000   2.727   1.489  10.411
 4438SOL    HW214001   2.811   1.445  10.544
 4439SOL     OW14002   3.213   0.590  10.743
 4439SOL    HW114003   3.241   0.547  10.828
 4439SOL    HW214004   3.238   0.686  10.744
 4440SOL     OW14005   2.665   1.402  10.234
 4440SOL    HW114006   2.755   1.416  10.192
 4440SOL    HW214007   2.594   1.404  10.163
 4441SOL     OW14008   2.784   0.503  10.209
 4441SOL    HW114009   2.759   0.494  10.113
 4441SOL    HW214010   2.832   0.421  10.240
 4442SOL     OW14011   2.401   0.064   9.822
 4442SOL    HW114012   2.320   0.065   9.880
 4442SOL    HW214013   2.404   0.147   9.767
 4443SOL     OW14014   3.296   1.188   9.351
 4443SOL    HW114015   3.328   1.112   9.408
 4443SOL    HW214016   3.204   1.215   9.381
 4444SOL     OW14017   2.159   0.035   9.481
 4444SOL    HW114018   2.208   0.119   9.460
 4444SOL    HW214019   2.221  -0.030   9.526
 4445SOL     OW14020   2.797   0.236   9.790
 4445SOL    HW114021   2.749   0.277   9.712
 4445SOL    HW214022   2.896   0.234   9.771
 4446SOL     OW14023   2.938   0.683  10.774
 4446SOL    HW114024   2.858   0.622  10.777
 4446SOL    HW214025   3.019   0.630  10.750
 4447SOL     OW14026   3.089   1.570  10.103
 4447SOL    HW114027   3.110   1.644  10.038
 4447SOL    HW214028   3.157   1.570  10.176
 4448SOL     OW14029   2.321   1.152  10.051
 4448SOL    HW114030   2.250   1.125  10.116
 4448SOL    HW214031   2.295   1.124   9.958
 4449SOL     OW14032   3.133   1.797   9.901
 4449SOL    HW114033   3.177   1.861   9.837
 4449SOL    HW214034   3.083   1.849   9.971
 4450SOL     OW14035   2.894   0.549   9.326
 4450SOL    HW114036   2.853   0.631   9.287
 4450SOL    HW214037   2.958   0.575   9.399
 4451SOL     OW14038   1.940   0.556  10.696
 4451SOL    HW114039   2.032   0.555  10.655
 4451SOL    HW214040   1.934   0.630  10.763
 4452SOL     OW14041   2.423   0.222  10.457
 4452SOL    HW114042   2.461   0.138  10.494
 4452SOL    HW214043   2.335   0.241  10.501
 4453SOL     OW14044   2.728   0.454   9.952
 4453SOL    HW114045   2.696   0.526   9.890
 4453SOL    HW214046   2.752   0.373   9.899
 4454SOL     OW14047   2.879   0.039  10.063
 4454SOL    HW114048   2.807   0.044   9.994
 4454SOL    HW214049   2.855  -0.030  10.132
 4455SOL     OW14050   3.291   1.173  10.177
 4455SOL    HW114051   3.236   1.089  10.170
 4455SOL    HW214052   3.317   1.202  10.085
 4456SOL     OW14053   3.328   0.590  10.302
 4456SOL    HW114054   3.298   0.495  10.309
 4456SOL    HW214055   3.401   0.606  10.368
 4457SOL     OW14056   3.719   0.833   9.687
 4457SOL    HW114057   3.761   0.769   9.751
 4457SOL    HW214058   3.681   0.782   9.609
 4458SOL     OW14059   2.350   1.385   9.484
 4458SOL    HW114060   2.263   1.370   9.531
 4458SOL    HW214061   2.333   1.411   9.389
 4459SOL     OW14062   3.526   1.280   9.967
 4459SOL    HW114063   3.625   1.288   9.981
 4459SOL    HW214064   3.481   1.364   9.998
 4460SOL     OW14065   3.252   0.575   9.388
 4460SOL    HW114066   3.198   0.554   9.469
 4460SOL    HW214067   3.343   0.534   9.397
 4461SOL     OW14068   2.389   0.256   9.638
 4461SOL    HW114069   2.416   0.197   9.563
 4461SOL    HW214070   2.389   0.351   9.607
 4462SOL     OW14071   3.616   1.223  10.898
 4462SOL    HW114072   3.707   1.184  10.885
 4462SOL    HW214073   3.624   1.319  10.922
 4463SOL     OW14074   2.926   1.347  10.650
 4463SOL    HW114075   2.846   1.324  10.705
 4463SOL    HW214076   3.009   1.321  10.699
 4464SOL     OW14077   3.454   1.629  10.935
 4464SOL    HW114078   3.481   1.663  10.845
 4464SOL    HW214079   3.533   1.591  10.981
 4465SOL     OW14080   2.973   1.195  10.410
 4465SOL    HW114081   2.933   1.239  10.491
 4465SOL    HW214082   2.932   1.232  10.327
 4466SOL     OW14083   3.500   1.099  10.389
 4466SOL    HW114084   3.505   1.180  10.448
 4466SOL    HW214085   3.414   1.101  10.338
 4467SOL     OW14086   2.777   0.089  10.712
 4467SOL    HW114087   2.802   0.069  10.617
 4467SOL    HW214088   2.849   0.145  10.754
 4468SOL     OW14089   2.842   1.116  11.029
 4468SOL    HW114090   2.743   1.122  11.039
 4468SOL    HW214091   2.865   1.036  10.973
 4469SOL     OW14092   2.567   1.050   9.678
 4469SOL    HW114093   2.553   1.057   9.777
 4469SOL    HW214094   2.651   0.999   9.660
 4470SOL     OW14095   2.272   0.813  10.561
 4470SOL    HW114096   2.358   0.825  10.611
 4470SOL    HW214097   2.230   0.726  10.588
 4471SOL     OW14098   3.136   0.386  10.572
 4471SOL    HW114099   3.157   0.460  10.636
 4471SOL    HW214100   3.047   0.403  10.529
 4472SOL     OW14101   1.926   1.564  10.641
 4472SOL    HW114102   1.880   1.646  10.607
 4472SOL    HW214103   2.024   1.583  10.650
 4473SOL     OW14104   2.229   1.100   9.811
 4473SOL    HW114105   2.222   1.183   9.755
 4473SOL    HW214106   2.233   1.020   9.751
 4474SOL     OW14107   2.428   0.537  10.175
 4474SOL    HW114108   2.440   0.603  10.101
 4474SOL    HW214109   2.474   0.571  10.258
 4475SOL     OW14110   3.114   1.348   9.698
 4475SOL    HW114111   3.164   1.425   9.738
 4475SOL    HW214112   3.019   1.350   9.730
 4476SOL     OW14113   3.134   1.445  10.452
 4476SOL    HW114114   3.181   1.458  10.539
 4476SOL    HW214115   3.068   1.371  10.461
 4477SOL     OW14116   3.444   0.639   9.782
 4477SOL    HW114117   3.413   0.700   9.855
 4477SOL    HW214118   3.494   0.691   9.713
 4478SOL     OW14119   2.216   1.510  10.639
 4478SOL    HW114120   2.195   1.466  10.552
 4478SOL    HW214121   2.313   1.536  10.642
 4479SOL     OW14122   2.264   0.751  10.908
 4479SOL    HW114123   2.332   0.806  10.861
 4479SOL    HW214124   2.304   0.663  10.935
 4480SOL     OW14125   3.449   0.779  10.980
 4480SOL    HW114126   3.357   0.817  10.975
 4480SOL    HW214127   3.509   0.826  10.915
 4481SOL     OW14128   2.875   0.105  11.080
 4481SOL    HW114129   2.881   0.190  11.028
 4481SOL    HW214130   2.907   0.029  11.023
 4482SOL     OW14131   2.366   0.050  11.050
 4482SOL    HW114132   2.324  -0.007  10.980
 4482SOL    HW214133   2.300   0.119  11.082
 4483SOL     OW14134   2.435   0.870  10.339
 4483SOL    HW114135   2.479   0.959  10.330
 4483SOL    HW214136   2.372   0.870  10.416
 4484SOL     OW14137   3.222   0.862  10.355
 4484SOL    HW114138   3.147   0.862  10.289
 4484SOL    HW214139   3.259   0.770  10.364
 4485SOL     OW14140   3.071   0.525   9.585
 4485SOL    HW114141   3.084   0.441   9.639
 4485SOL    HW214142   3.042   0.599   9.645
 4486SOL     OW14143   2.169   0.213  10.541
 4486SOL    HW114144   2.146   0.250  10.631
 4486SOL    HW214145   2.139   0.118  10.535
 4487SOL     OW14146   1.899   1.310  10.592
 4487SOL    HW114147   1.952   1.261  10.660
 4487SOL    HW214148   1.921   1.408  10.597
 4488SOL     OW14149   2.594   0.634  10.374
 4488SOL    HW114150   2.653   0.608  10.298
 4488SOL    HW214151   2.566   0.730  10.363
 4489SOL     OW14152   3.590   0.935  11.164
 4489SOL    HW114153   3.544   0.928  11.075
 4489SOL    HW214154   3.528   0.979  11.230
 4490SOL     OW14155   2.169   0.063   9.928
 4490SOL    HW114156   2.158   0.157   9.961
 4490SOL    HW214157   2.164   0.000  10.005
 4491SOL     OW14158   3.484   0.367   9.684
 4491SOL    HW114159   3.486   0.291   9.748
 4491SOL    HW214160   3.436   0.444   9.724
 4492SOL     OW14161   2.885   0.766  10.276
 4492SOL    HW114162   2.900   0.787  10.372
 4492SOL    HW214163   2.855   0.671  10.267
 4493SOL     OW14164   2.842   1.573  11.010
 4493SOL    HW114165   2.822   1.617  10.922
 4493SOL    HW214166   2.881   1.482  10.994
 4494SOL     OW14167   3.721   1.518  10.915
 4494SOL    HW114168   3.735   1.545  10.820
 4494SOL    HW214169   3.804   1.540  10.968
 4495SOL     OW14170   2.212   0.898  11.114
 4495SOL    HW114171   2.288   0.942  11.162
 4495SOL    HW214172   2.247   0.851  11.032
 4496SOL     OW14173   3.402   0.274   9.435
 4496SOL    HW114174   3.341   0.199   9.458
 4496SOL    HW214175   3.424   0.326   9.518
 4497SOL     OW14176   3.165   0.838   9.352
 4497SOL    HW114177   3.199   0.745   9.367
 4497SOL    HW214178   3.183   0.865   9.257
 4498SOL     OW14179   2.930   1.333  10.159
 4498SOL    HW114180   2.937   1.249  10.104
 4498SOL    HW214181   2.992   1.402  10.123
 4499SOL     OW14182   2.181   0.810  10.259
 4499SOL    HW114183   2.274   0.846  10.264
 4499SOL    HW214184   2.175   0.725  10.311
 4500SOL     OW14185   2.201   0.509  10.316
 4500SOL    HW114186   2.149   0.426  10.299
 4500SOL    HW214187   2.278   0.514  10.252
 4501SOL     OW14188   3.000   0.380  10.988
 4501SOL    HW114189   2.955   0.443  11.052
 4501SOL    HW214190   3.093   0.411  10.971
 4502SOL     OW14191   3.022   0.207  10.787
 4502SOL    HW114192   3.022   0.271  10.864
 4502SOL    HW214193   3.050   0.255  10.704
 4503SOL     OW14194   1.870   1.326   9.510
 4503SOL    HW114195   1.777   1.347   9.479
 4503SOL    HW214196   1.880   1.227   9.523
 4504SOL     OW14197   1.950   1.801  10.237
 4504SOL    HW114198   1.908   1.715  10.210
 4504SOL    HW214199   2.044   1.804  10.203
 4505SOL     OW14200   2.366   1.568  10.220
 4505SOL    HW114201   2.432   1.642  10.229
 4505SOL    HW214202   2.410   1.489  10.178
 4506SOL     OW14203   2.864   0.796  10.548
 4506SOL    HW114204   2.905   0.764  10.634
 4506SOL    HW214205   2.768   0.769  10.545
 4507SOL     OW14206   1.902   0.544  10.424
 4507SOL    HW114207   1.987   0.511  10.383
 4507SOL    HW214208   1.915   0.559  10.522
 4508SOL     OW14209   2.051   0.520  11.032
 4508SOL    HW114210   2.110   0.480  10.962
 4508SOL    HW214211   1.993   0.591  10.991
 4509SOL     OW14212   3.231   0.950  10.970
 4509SOL    HW114213   3.270   1.039  10.990
 4509SOL    HW214214   3.241   0.930  10.873
 4510SOL     OW14215   2.677   0.572   9.635
 4510SOL    HW114216   2.684   0.483   9.589
 4510SOL    HW214217   2.583   0.606   9.627
 4511SOL     OW14218   3.519   0.604  10.516
 4511SOL    HW114219   3.481   0.535  10.578
 4511SOL    HW214220   3.601   0.568  10.472
 4512SOL     OW14221   2.114   1.564  11.054
 4512SOL    HW114222   2.084   1.621  11.130
 4512SOL    HW214223   2.107   1.467  11.080
 4513SOL     OW14224   2.533   0.464  10.579
 4513SOL    HW114225   2.499   0.375  10.549
 4513SOL    HW214226   2.559   0.518  10.499
 4514SOL     OW14227   2.792   1.678  10.775
 4514SOL    HW114228   2.768   1.660  10.680
 4514SOL    HW214229   2.822   1.772  10.785
 4515SOL     OW14230   2.335   0.500   9.501
 4515SOL    HW114231   2.396   0.580   9.505
 4515SOL    HW214232   2.240   0.531   9.508
 4516SOL     OW14233   2.021   1.137  10.776
 4516SOL    HW114234   2.043   1.076  10.852
 4516SOL    HW214235   2.031   1.088  10.690
 4517SOL     OW14236   3.209   1.059  10.544
 4517SOL    HW114237   3.233   0.996  10.470
 4517SOL    HW214238   3.119   1.099  10.526
 4518SOL     OW14239   3.164   0.855   9.619
 4518SOL    HW114240   3.078   0.824   9.661
 4518SOL    HW214241   3.160   0.841   9.520
 4519SOL     OW14242   3.621   1.747  10.464
 4519SOL    HW114243   3.682   1.777  10.391
 4519SOL    HW214244   3.583   1.658  10.442
 4520SOL     OW14245   3.114   1.731  10.438
 4520SOL    HW114246   3.198   1.736  10.384
 4520SOL    HW214247   3.091   1.635  10.456
 4521SOL     OW14248   1.945   1.258  10.332
 4521SOL    HW114249   1.940   1.257  10.432
 4521SOL    HW214250   1.862   1.217  10.294
 4522SOL     OW14251   2.550   1.662  11.026
 4522SOL    HW114252   2.494   1.743  11.035
 4522SOL    HW214253   2.602   1.666  10.940
 4523SOL     OW14254   3.588   0.135   9.833
 4523SOL    HW114255   3.661   0.118   9.766
 4523SOL    HW214256   3.557   0.048   9.871
 4524SOL     OW14257   3.250   1.573   9.787
 4524SOL    HW114258   3.317   1.585   9.713
 4524SOL    HW214259   3.210   1.662   9.810
 4525SOL     OW14260   1.992   1.794  11.161
 4525SOL    HW114261   1.951   1.720  11.214
 4525SOL    HW214262   2.056   1.845  11.219
 4526SOL     OW14263   3.142   0.927   9.982
 4526SOL    HW114264   3.202   0.846   9.984
 4526SOL    HW214265   3.182   0.996   9.922
 4527SOL     OW14266   2.692   1.273  10.732
 4527SOL    HW114267   2.687   1.306  10.827
 4527SOL    HW214268   2.606   1.292  10.686
 4528SOL     OW14269   2.534   1.616   9.464
 4528SOL    HW114270   2.543   1.626   9.365
 4528SOL    HW214271   2.494   1.527   9.485
 4529SOL     OW14272   3.512   1.720  10.704
 4529SOL    HW114273   3.565   1.730  10.620
 4529SOL    HW214274   3.485   1.810  10.738
 4530SOL     OW14275   3.703   0.175  10.273
 4530SOL    HW114276   3.742   0.090  10.237
 4530SOL    HW214277   3.605   0.177  10.254
 4531SOL     OW14278   2.125   0.326  10.030
 4531SOL    HW114279   2.046   0.377   9.996
 4531SOL    HW214280   2.116   0.311  10.128
 4532SOL     OW14281   3.056   1.612   9.341
 4532SOL    HW114282   3.062   1.519   9.378
 4532SOL    HW214283   2.997   1.612   9.261
 4533SOL     OW14284   2.684   1.002  10.682
 4533SOL    HW114285   2.724   1.001  10.590
 4533SOL    HW214286   2.694   1.094  10.722
 4534SOL     OW14287   2.778   0.910   9.601
 4534SOL    HW114288   2.841   0.948   9.533
 4534SOL    HW214289   2.818   0.827   9.640
 4535SOL     OW14290   3.366   1.607   9.354
 4535SOL    HW114291   3.274   1.644   9.361
 4535SOL    HW214292   3.404   1.627   9.264
 4536SOL     OW14293   2.234   1.288  10.800
 4536SOL    HW114294   2.221   1.381  10.766
 4536SOL    HW214295   2.150   1.236  10.787
 4537SOL     OW14296   3.476   1.292  10.599
 4537SOL    HW114297   3.536   1.295  10.679
 4537SOL    HW214298   3.401   1.356  10.612
 4538SOL     OW14299   2.901   1.098  10.006
 4538SOL    HW114300   2.831   1.051  10.060
 4538SOL    HW214301   2.960   1.030   9.963
 4539SOL     OW14302   2.876   0.236  10.281
 4539SOL    HW114303   2.868   0.200  10.188
 4539SOL    HW214304   2.874   0.160  10.346
 4540SOL     OW14305   2.452   1.487   9.801
 4540SOL    HW114306   2.494   1.429   9.731
 4540SOL    HW214307   2.408   1.566   9.757
 4541SOL     OW14308   3.571   0.385  10.691
 4541SOL    HW114309   3.644   0.454  10.695
 4541SOL    HW214310   3.599   0.310  10.632
 4542SOL     OW14311   2.117   1.348   9.600
 4542SOL    HW114312   2.021   1.349   9.573
 4542SOL    HW214313   2.129   1.401   9.684
 4543SOL     OW14314   1.967   1.013  11.036
 4543SOL    HW114315   1.890   0.980  11.090
 4543SOL    HW214316   2.052   0.983  11.078
 4544SOL     OW14317   2.534   0.203  10.799
 4544SOL    HW114318   2.624   0.187  10.759
 4544SOL    HW214319   2.542   0.208  10.898
 4545SOL     OW14320   1.937   0.345   9.343
 4545SOL    HW114321   1.845   0.317   9.314
 4545SOL    HW214322   1.968   0.422   9.287
 4546SOL     OW14323   3.302   0.856  10.708
 4546SOL    HW114324   3.245   0.908  10.645
 4546SOL    HW214325   3.398   0.868  10.684
 4547SOL     OW14326   1.934   0.166   9.628
 4547SOL    HW114327   1.917   0.249   9.574
 4547SOL    HW214328   2.024   0.129   9.606
 4548SOL     OW14329   3.045   1.335   9.429
 4548SOL    HW114330   2.946   1.324   9.431
 4548SOL    HW214331   3.079   1.350   9.522
 4549SOL     OW14332   2.475   0.842  10.741
 4549SOL    HW114333   2.531   0.923  10.724
 4549SOL    HW214334   2.534   0.762  10.744
 4550SOL     OW14335   3.355   1.767  10.269
 4550SOL    HW114336   3.388   1.831  10.200
 4550SOL    HW214337   3.421   1.761  10.344
 4551SOL     OW14338   2.578   0.565  11.018
 4551SOL    HW114339   2.597   0.630  11.092
 4551SOL    HW214340   2.638   0.485  11.027
 4552SOL     OW14341   3.312   1.220  10.943
 4552SOL    HW114342   3.303   1.210  11.042
 4552SOL    HW214343   3.408   1.213  10.917
 4553SOL     OW14344   2.252   1.741  10.870
 4553SOL    HW114345   2.161   1.782  10.868
 4553SOL    HW214346   2.245   1.647  10.902
 4554SOL     OW14347   3.536   0.883  10.564
 4554SOL    HW114348   3.509   0.794  10.527
 4554SOL    HW214349   3.537   0.951  10.491
 4555SOL     OW14350   3.087   0.325   9.759
 4555SOL    HW114351   3.152   0.251   9.748
 4555SOL    HW214352   3.107   0.375   9.843
 4556SOL     OW14353   2.456   0.745   9.962
 4556SOL    HW114354   2.506   0.830   9.943
 4556SOL    HW214355   2.368   0.747   9.914
 4557SOL     OW14356   3.639   0.342  10.952
 4557SOL    HW114357   3.622   0.373  10.858
 4557SOL    HW214358   3.555   0.305  10.990
 4558SOL     OW14359   3.592   0.934  10.827
 4558SOL    HW114360   3.630   1.025  10.842
 4558SOL    HW214361   3.584   0.917  10.728
 4559SOL     OW14362   2.721   1.374   9.326
 4559SOL    HW114363   2.675   1.389   9.414
 4559SOL    HW214364   2.765   1.459   9.296
 4560SOL     OW14365   2.523   1.790  10.263
 4560SOL    HW114366   2.477   1.878  10.250
 4560SOL    HW214367   2.622   1.802  10.256
 4561SOL     OW14368   2.721   0.956  10.171
 4561SOL    HW114369   2.775   0.887  10.219
 4561SOL    HW214370   2.689   1.025  10.237
 4562SOL     OW14371   2.945   0.984   9.397
 4562SOL    HW114372   2.922   1.037   9.315
 4562SOL    HW214373   3.026   0.928   9.378
 4563SOL     OW14374   3.723   1.569  10.161
 4563SOL    HW114375   3.652   1.557  10.091
 4563SOL    HW214376   3.724   1.490  10.221
 4564SOL     OW14377   2.083   1.314  11.154
 4564SOL    HW114378   2.018   1.241  11.133
 4564SOL    HW214379   2.087   1.328  11.252
 4565SOL     OW14380   1.941   1.240   9.963
 4565SOL    HW114381   1.940   1.193  10.051
 4565SOL    HW214382   2.023   1.212   9.912
 4566SOL     OW14383   2.534   1.391  10.934
 4566SOL    HW114384   2.456   1.341  10.972
 4566SOL    HW214385   2.531   1.486  10.965
 4567SOL     OW14386   3.686   0.192  10.537
 4567SOL    HW114387   3.682   0.102  10.581
 4567SOL    HW214388   3.689   0.181  10.438
 4568SOL     OW14389   2.290   0.424   9.830
 4568SOL    HW114390   2.320   0.352   9.768
 4568SOL    HW214391   2.251   0.384   9.913
 4569SOL     OW14392   3.567   1.487  10.414
 4569SOL    HW114393   3.474   1.462  10.387
 4569SOL    HW214394   3.593   1.437  10.496
 4570SOL     OW14395   2.179   0.547  10.590
 4570SOL    HW114396   2.217   0.488  10.662
 4570SOL    HW214397   2.219   0.521  10.502
 4571SOL     OW14398   2.674   1.586   9.997
 4571SOL    HW114399   2.706   1.596   9.903
 4571SOL    HW214400   2.595   1.524   9.999
 4572SOL     OW14401   3.286   0.214  10.422
 4572SOL    HW114402   3.338   0.149  10.477
 4572SOL    HW214403   3.237   0.277  10.483
 4573SOL     OW14404   2.863   0.034  10.464
 4573SOL    HW114405   2.800  -0.038  10.433
 4573SOL    HW214406   2.956  -0.002  10.464
 4574SOL     OW14407   2.632   1.330   9.611
 4574SOL    HW114408   2.586   1.243   9.628
 4574SOL    HW214409   2.723   1.327   9.652
 4575SOL     OW14410   2.480   1.567  10.594
 4575SOL    HW114411   2.475   1.649  10.651
 4575SOL    HW214412   2.569   1.564  10.549
 4576SOL     OW14413   3.214   0.052   9.478
 4576SOL    HW114414   3.249   0.011   9.394
 4576SOL    HW214415   3.124   0.014   9.498
 4577SOL     OW14416   3.162   0.453  10.001
 4577SOL    HW114417   3.103   0.533  10.005
 4577SOL    HW214418   3.177   0.418  10.094
 4578SOL     OW14419   3.455   0.221  10.192
 4578SOL    HW114420   3.371   0.220  10.246
 4578SOL    HW214421   3.457   0.304  10.136
 4579SOL     OW14422   1.901   1.077   9.610
 4579SOL    HW114423   2.000   1.066   9.601
 4579SOL    HW214424   1.861   0.991   9.642
 4580SOL     OW14425   2.737   1.646   9.647
 4580SOL    HW114426   2.660   1.611   9.593
 4580SOL    HW214427   2.705   1.717   9.709
 4581SOL     OW14428   2.092   0.628  11.285
 4581SOL    HW114429   1.999   0.626  11.322
 4581SOL    HW214430   2.093   0.589  11.193
 4582SOL     OW14431   2.087   0.275  12.168
 4582SOL    HW114432   2.122   0.258  12.260
 4582SOL    HW214433   1.999   0.230  12.156
 4583SOL     OW14434   1.881   0.368  11.819
 4583SOL    HW114435   1.799   0.411  11.858
 4583SOL    HW214436   1.853   0.295  11.756
 4584SOL     OW14437   2.431   1.275  12.337
 4584SOL    HW114438   2.338   1.268  12.300
 4584SOL    HW214439   2.442   1.364  12.381
 4585SOL     OW14440   3.417   1.511  11.875
 4585SOL    HW114441   3.360   1.495  11.956
 4585SOL    HW214442   3.358   1.521  11.795
 4586SOL     OW14443   2.997   0.703  11.889
 4586SOL    HW114444   3.054   0.781  11.864
 4586SOL    HW214445   2.937   0.729  11.965
 4587SOL     OW14446   3.617   0.607  11.403
 4587SOL    HW114447   3.605   0.594  11.304
 4587SOL    HW214448   3.587   0.526  11.452
 4588SOL     OW14449   2.630   1.144  12.195
 4588SOL    HW114450   2.552   1.161  12.255
 4588SOL    HW214451   2.664   1.231  12.159
 4589SOL     OW14452   2.712   0.798  12.995
 4589SOL    HW114453   2.708   0.874  13.060
 4589SOL    HW214454   2.734   0.834  12.904
 4590SOL     OW14455   2.547   1.012  11.837
 4590SOL    HW114456   2.616   0.996  11.907
 4590SOL    HW214457   2.474   1.069  11.875
 4591SOL     OW14458   2.548   1.161  12.975
 4591SOL    HW114459   2.608   1.240  12.989
 4591SOL    HW214460   2.462   1.192  12.934
 4592SOL     OW14461   2.197   1.435  12.233
 4592SOL    HW114462   2.119   1.404  12.180
 4592SOL    HW214463   2.255   1.493  12.176
 4593SOL     OW14464   3.322   1.505  12.511
 4593SOL    HW114465   3.346   1.599  12.537
 4593SOL    HW214466   3.306   1.451  12.593
 4594SOL     OW14467   2.300   0.392  12.671
 4594SOL    HW114468   2.382   0.336  12.680
 4594SOL    HW214469   2.219   0.334  12.675
 4595SOL     OW14470   3.465   0.447  11.909
 4595SOL    HW114471   3.391   0.493  11.859
 4595SOL    HW214472   3.516   0.515  11.962
 4596SOL     OW14473   2.093   1.713  11.655
 4596SOL    HW114474   2.127   1.790  11.709
 4596SOL    HW214475   2.137   1.713  11.565
 4597SOL     OW14476   2.989   1.341  12.862
 4597SOL    HW114477   3.036   1.341  12.950
 4597SOL    HW214478   2.941   1.254  12.851
 4598SOL     OW14479   2.092   1.434  11.710
 4598SOL    HW114480   2.066   1.530  11.710
 4598SOL    HW214481   2.021   1.380  11.755
 4599SOL     OW14482   2.102   1.091  12.058
 4599SOL    HW114483   2.116   1.007  12.110
 4599SOL    HW214484   2.047   1.155  12.113
 4600SOL     OW14485   2.482   1.786  12.611
 4600SOL    HW114486   2.390   1.769  12.646
 4600SOL    HW214487   2.510   1.878  12.637
 4601SOL     OW14488   2.468   0.964  11.295
 4601SOL    HW114489   2.475   1.048  11.241
 4601SOL    HW214490   2.514   0.977  11.383
 4602SOL     OW14491   3.456   0.114  12.652
 4602SOL    HW114492   3.438   0.181  12.580
 4602SOL    HW214493   3.453   0.160  12.741
 4603SOL     OW14494   1.984   0.643  11.735
 4603SOL    HW114495   1.939   0.555  11.752
 4603SOL    HW214496   1.983   0.697  11.819
 4604SOL     OW14497   3.704   1.767  11.531
 4604SOL    HW114498   3.758   1.738  11.611
 4604SOL    HW214499   3.734   1.857  11.502
 4605SOL     OW14500   1.889   1.596  11.289
 4605SOL    HW114501   1.870   1.500  11.310
 4605SOL    HW214502   1.856   1.654  11.364
 4606SOL     OW14503   3.551   0.922  11.784
 4606SOL    HW114504   3.646   0.893  11.792
 4606SOL    HW214505   3.543   0.987  11.709
 4607SOL     OW14506   3.503   1.108  11.604
 4607SOL    HW114507   3.589   1.110  11.552
 4607SOL    HW214508   3.517   1.155  11.692
 4608SOL     OW14509   1.975   0.737  12.769
 4608SOL    HW114510   2.063   0.724  12.814
 4608SOL    HW214511   1.962   0.834  12.747
 4609SOL     OW14512   2.475   1.365  11.898
 4609SOL    HW114513   2.426   1.278  11.907
 4609SOL    HW214514   2.452   1.408  11.811
 4610SOL     OW14515   3.155   1.228  12.595
 4610SOL    HW114516   3.192   1.155  12.537
 4610SOL    HW214517   3.207   1.233  12.680
 4611SOL     OW14518   2.671   0.004  11.674
 4611SOL    HW114519   2.711   0.095  11.665
 4611SOL    HW214520   2.571   0.012  11.680
 4612SOL     OW14521   2.059   0.976  12.436
 4612SOL    HW114522   2.148   0.931  12.422
 4612SOL    HW214523   1.986   0.911  12.417
 4613SOL     OW14524   3.387   0.999  11.362
 4613SOL    HW114525   3.324   0.923  11.375
 4613SOL    HW214526   3.435   1.017  11.448
 4614SOL     OW14527   3.049   1.792  12.788
 4614SOL    HW114528   3.073   1.852  12.712
 4614SOL    HW214529   3.056   1.697  12.758
 4615SOL     OW14530   2.179   0.251  12.973
 4615SOL    HW114531   2.250   0.322  12.979
 4615SOL    HW214532   2.091   0.290  13.001
 4616SOL     OW14533   3.328   1.417  12.125
 4616SOL    HW114534   3.269   1.423  12.205
 4616SOL    HW214535   3.313   1.329  12.079
 4617SOL     OW14536   3.529   1.714  11.744
 4617SOL    HW114537   3.488   1.691  11.656
 4617SOL    HW214538   3.511   1.640  11.809
 4618SOL     OW14539   2.460   0.729  11.442
 4618SOL    HW114540   2.484   0.798  11.374
 4618SOL    HW214541   2.382   0.762  11.496
 4619SOL     OW14542   3.143   0.345  12.116
 4619SOL    HW114543   3.057   0.295  12.103
 4619SOL    HW214544   3.205   0.291  12.172
 4620SOL     OW14545   3.438   1.662  11.479
 4620SOL    HW114546   3.527   1.708  11.482
 4620SOL    HW214547   3.417   1.638  11.384
 4621SOL     OW14548   2.669   0.605  12.637
 4621SOL    HW114549   2.622   0.602  12.726
 4621SOL    HW214550   2.618   0.550  12.571
 4622SOL     OW14551   3.256   0.469  12.846
 4622SOL    HW114552   3.236   0.512  12.934
 4622SOL    HW214553   3.334   0.407  12.855
 4623SOL     OW14554   2.835   0.890  12.744
 4623SOL    HW114555   2.881   0.806  12.715
 4623SOL    HW214556   2.779   0.924  12.669
 4624SOL     OW14557   2.853   0.410  12.414
 4624SOL    HW114558   2.776   0.444  12.468
 4624SOL    HW214559   2.819   0.359  12.335
 4625SOL     OW14560   2.903   0.701  11.601
 4625SOL    HW114561   2.929   0.697  11.697
 4625SOL    HW214562   2.818   0.650  11.587
 4626SOL     OW14563   1.938   0.811  11.961
 4626SOL    HW114564   2.037   0.799  11.970
 4626SOL    HW214565   1.914   0.906  11.982
 4627SOL     OW14566   2.727   0.348  11.367
 4627SOL    HW114567   2.786   0.411  11.318
 4627SOL    HW214568   2.746   0.254  11.338
 4628SOL     OW14569   3.581   0.585  13.003
 4628SOL    HW114570   3.555   0.674  12.967
 4628SOL    HW214571   3.579   0.517  12.930
 4629SOL     OW14572   3.224   1.144  11.717
 4629SOL    HW114573   3.307   1.115  11.669
 4629SOL    HW214574   3.175   1.211  11.661
 4630SOL     OW14575   2.412   0.196  12.057
 4630SOL    HW114576   2.407   0.191  12.157
 4630SOL    HW214577   2.414   0.292  12.028
 4631SOL     OW14578   2.870   1.456  11.649
 4631SOL    HW114579   2.824   1.528  11.597
 4631SOL    HW214580   2.866   1.476  11.747
 4632SOL     OW14581   2.213   1.801  12.025
 4632SOL    HW114582   2.263   1.715  12.031
 4632SOL    HW214583   2.278   1.878  12.022
 4633SOL     OW14584   3.657   1.066  12.045
 4633SOL    HW114585   3.595   1.051  11.969
 4633SOL    HW214586   3.605   1.077  12.130
 4634SOL     OW14587   3.089   1.550  12.678
 4634SOL    HW114588   3.095   1.473  12.742
 4634SOL    HW214589   3.037   1.524  12.598
 4635SOL     OW14590   2.183   0.943  11.414
 4635SOL    HW114591   2.265   0.982  11.372
 4635SOL    HW214592   2.156   0.861  11.365
 4636SOL     OW14593   3.320   0.735  11.900
 4636SOL    HW114594   3.315   0.670  11.975
 4636SOL    HW214595   3.400   0.794  11.913
 4637SOL     OW14596   2.323   1.266  12.899
 4637SOL    HW114597   2.273   1.267  12.813
 4637SOL    HW214598   2.260   1.248  12.975
 4638SOL     OW14599   2.973   1.776  11.409
 4638SOL    HW114600   2.913   1.714  11.459
 4638SOL    HW214601   3.004   1.732  11.324
 4639SOL     OW14602   2.064   0.285  12.670
 4639SOL    HW114603   1.984   0.345  12.657
 4639SOL    HW214604   2.054   0.236  12.756
 4640SOL     OW14605   3.494   1.377  11.253
 4640SOL    HW114606   3.462   1.471  11.243
 4640SOL    HW214607   3.418   1.314  11.241
 4641SOL     OW14608   2.326   1.743  11.495
 4641SOL    HW114609   2.359   1.782  11.581
 4641SOL    HW214610   2.402   1.736  11.430
 4642SOL     OW14611   3.262   0.107  11.598
 4642SOL    HW114612   3.238   0.070  11.508
 4642SOL    HW214613   3.361   0.123  11.602
 4643SOL     OW14614   2.111   1.785  12.413
 4643SOL    HW114615   2.168   1.720  12.463
 4643SOL    HW214616   2.095   1.752  12.320
 4644SOL     OW14617   2.802   1.698  12.076
 4644SOL    HW114618   2.882   1.641  12.097
 4644SOL    HW214619   2.753   1.658  11.999
 4645SOL     OW14620   2.244   0.700  11.652
 4645SOL    HW114621   2.289   0.610  11.649
 4645SOL    HW214622   2.150   0.689  11.685
 4646SOL     OW14623   3.409   0.222  12.901
 4646SOL    HW114624   3.404   0.259  12.993
 4646SOL    HW214625   3.337   0.153  12.889
 4647SOL     OW14626   2.476   0.122  11.289
 4647SOL    HW114627   2.574   0.100  11.296
 4647SOL    HW214628   2.445   0.105  11.196
 4648SOL     OW14629   2.643   0.264  12.921
 4648SOL    HW114630   2.710   0.203  12.964
 4648SOL    HW214631   2.570   0.283  12.986
 4649SOL     OW14632   2.750   1.514  12.367
 4649SOL    HW114633   2.727   1.489  12.273
 4649SOL    HW214634   2.811   1.445  12.406
 4650SOL     OW14635   3.213   0.590  12.605
 4650SOL    HW114636   3.241   0.547  12.690
 4650SOL    HW214637   3.238   0.686  12.606
 4651SOL     OW14638   2.665   1.402  12.096
 4651SOL    HW114639   2.755   1.416  12.054
 4651SOL    HW214640   2.594   1.404  12.025
 4652SOL     OW14641   2.784   0.503  12.071
 4652SOL    HW114642   2.759   0.494  11.975
 4652SOL    HW214643   2.832   0.421  12.102
 4653SOL     OW14644   2.401   0.064  11.684
 4653SOL    HW114645   2.320   0.065  11.742
 4653SOL    HW214646   2.404   0.147  11.629
 4654SOL     OW14647   3.296   1.188  11.213
 4654SOL    HW114648   3.328   1.112  11.270
 4654SOL    HW214649   3.204   1.215  11.243
 4655SOL     OW14650   2.159   0.035  11.343
 4655SOL    HW114651   2.208   0.119  11.322
 4655SOL    HW214652   2.221  -0.030  11.388
 4656SOL     OW14653   2.797   0.236  11.652
 4656SOL    HW114654   2.749   0.277  11.574
 4656SOL    HW214655   2.896   0.234  11.633
 4657SOL     OW14656   2.938   0.683  12.636
 4657SOL    HW114657   2.858   0.622  12.639
 4657SOL    HW214658   3.019   0.630  12.612
 4658SOL     OW14659   3.089   1.570  11.965
 4658SOL    HW114660   3.110   1.644  11.900
 4658SOL    HW214661   3.157   1.570  12.038
 4659SOL     OW14662   2.321   1.152  11.913
 4659SOL    HW114663   2.250   1.125  11.978
 4659SOL    HW214664   2.295   1.124  11.820
 4660SOL     OW14665   3.133   1.797  11.763
 4660SOL    HW114666   3.177   1.861  11.699
 4660SOL    HW214667   3.083   1.849  11.833
 4661SOL     OW14668   2.894   0.549  11.188
 4661SOL    HW114669   2.853   0.631  11.149
 4661SOL    HW214670   2.958   0.575  11.261
 4662SOL     OW14671   1.940   0.556  12.558
 4662SOL    HW114672   2.032   0.555  12.517
 4662SOL    HW214673   1.934   0.630  12.625
 4663SOL     OW14674   2.423   0.222  12.319
 4663SOL    HW114675   2.461   0.138  12.356
 4663SOL    HW214676   2.335   0.241  12.363
 4664SOL     OW14677   2.728   0.454  11.814
 4664SOL    HW114678   2.696   0.526  11.752
 4664SOL    HW214679   2.752   0.373  11.761
 4665SOL     OW14680   2.879   0.039  11.925
 4665SOL    HW114681   2.807   0.044  11.856
 4665SOL    HW214682   2.855  -0.030  11.994
 4666SOL     OW14683   3.291   1.173  12.039
 4666SOL    HW114684   3.236   1.089  12.032
 4666SOL    HW214685   3.317   1.202  11.947
 4667SOL     OW14686   3.328   0.590  12.164
 4667SOL    HW114687   3.298   0.495  12.171
 4667SOL    HW214688   3.401   0.606  12.230
 4668SOL     OW14689   3.719   0.833  11.549
 4668SOL    HW114690   3.761   0.769  11.613
 4668SOL    HW214691   3.681   0.782  11.471
 4669SOL     OW14692   2.350   1.385  11.346
 4669SOL    HW114693   2.263   1.370  11.393
 4669SOL    HW214694   2.333   1.411  11.251
 4670SOL     OW14695   3.526   1.280  11.829
 4670SOL    HW114696   3.625   1.288  11.843
 4670SOL    HW214697   3.481   1.364  11.860
 4671SOL     OW14698   3.252   0.575  11.250
 4671SOL    HW114699   3.198   0.554  11.331
 4671SOL    HW214700   3.343   0.534  11.259
 4672SOL     OW14701   2.389   0.256  11.500
 4672SOL    HW114702   2.416   0.197  11.425
 4672SOL    HW214703   2.389   0.351  11.469
 4673SOL     OW14704   3.616   1.223  12.760
 4673SOL    HW114705   3.707   1.184  12.747
 4673SOL    HW214706   3.624   1.319  12.784
 4674SOL     OW14707   2.926   1.347  12.512
 4674SOL    HW114708   2.846   1.324  12.567
 4674SOL    HW214709   3.009   1.321  12.561
 4675SOL     OW14710   3.454   1.629  12.797
 4675SOL    HW114711   3.481   1.663  12.707
 4675SOL    HW214712   3.533   1.591  12.843
 4676SOL     OW14713   2.973   1.195  12.272
 4676SOL    HW114714   2.933   1.239  12.353
 4676SOL    HW214715   2.932   1.232  12.189
 4677SOL     OW14716   3.500   1.099  12.251
 4677SOL    HW114717   3.505   1.180  12.310
 4677SOL    HW214718   3.414   1.101  12.200
 4678SOL     OW14719   2.777   0.089  12.574
 4678SOL    HW114720   2.802   0.069  12.479
 4678SOL    HW214721   2.849   0.145  12.616
 4679SOL     OW14722   2.842   1.116  12.891
 4679SOL    HW114723   2.743   1.122  12.901
 4679SOL    HW214724   2.865   1.036  12.835
 4680SOL     OW14725   2.567   1.050  11.540
 4680SOL    HW114726   2.553   1.057  11.639
 4680SOL    HW214727   2.651   0.999  11.522
 4681SOL     OW14728   2.272   0.813  12.423
 4681SOL    HW114729   2.358   0.825  12.473
 4681SOL    HW214730   2.230   0.726  12.450
 4682SOL     OW14731   3.136   0.386  12.434
 4682SOL    HW114732   3.157   0.460  12.498
 4682SOL    HW214733   3.047   0.403  12.391
 4683SOL     OW14734   1.926   1.564  12.503
 4683SOL    HW114735   1.880   1.646  12.469
 4683SOL    HW214736   2.024   1.583  12.512
 4684SOL     OW14737   2.229   1.100  11.673
 4684SOL    HW114738   2.222   1.183  11.617
 4684SOL    HW214739   2.233   1.020  11.613
 4685SOL     OW14740   2.428   0.537  12.037
 4685SOL    HW114741   2.440   0.603  11.963
 4685SOL    HW214742   2.474   0.571  12.120
 4686SOL     OW14743   3.114   1.348  11.560
 4686SOL    HW114744   3.164   1.425  11.600
 4686SOL    HW214745   3.019   1.350  11.592
 4687SOL     OW14746   3.134   1.445  12.314
 4687SOL    HW114747   3.181   1.458  12.401
 4687SOL    HW214748   3.068   1.371  12.323
 4688SOL     OW14749   3.444   0.639  11.644
 4688SOL    HW114750   3.413   0.700  11.717
 4688SOL    HW214751   3.494   0.691  11.575
 4689SOL     OW14752   2.216   1.510  12.501
 4689SOL    HW114753   2.195   1.466  12.414
 4689SOL    HW214754   2.313   1.536  12.504
 4690SOL     OW14755   2.264   0.751  12.770
 4690SOL    HW114756   2.332   0.806  12.723
 4690SOL    HW214757   2.304   0.663  12.797
 4691SOL     OW14758   3.449   0.779  12.842
 4691SOL    HW114759   3.357   0.817  12.837
 4691SOL    HW214760   3.509   0.826  12.777
 4692SOL     OW14761   2.875   0.105  12.942
 4692SOL    HW114762   2.881   0.190  12.890
 4692SOL    HW214763   2.907   0.029  12.885
 4693SOL     OW14764   2.366   0.050  12.912
 4693SOL    HW114765   2.324  -0.007  12.842
 4693SOL    HW214766   2.300   0.119  12.944
 4694SOL     OW14767   2.435   0.870  12.201
 4694SOL    HW114768   2.479   0.959  12.192
 4694SOL    HW214769   2.372   0.870  12.278
 4695SOL     OW14770   3.222   0.862  12.217
 4695SOL    HW114771   3.147   0.862  12.151
 4695SOL    HW214772   3.259   0.770  12.226
 4696SOL     OW14773   3.071   0.525  11.447
 4696SOL    HW114774   3.084   0.441  11.501
 4696SOL    HW214775   3.042   0.599  11.507
 4697SOL     OW14776   2.169   0.213  12.403
 4697SOL    HW114777   2.146   0.250  12.493
 4697SOL    HW214778   2.139   0.118  12.397
 4698SOL     OW14779   1.899   1.310  12.454
 4698SOL    HW114780   1.952   1.261  12.522
 4698SOL    HW214781   1.921   1.408  12.459
 4699SOL     OW14782   2.594   0.634  12.236
 4699SOL    HW114783   2.653   0.608  12.160
 4699SOL    HW214784   2.566   0.730  12.225
 4700SOL     OW14785   3.590   0.935  13.026
 4700SOL    HW114786   3.544   0.928  12.937
 4700SOL    HW214787   3.528   0.979  13.092
 4701SOL     OW14788   2.169   0.063  11.790
 4701SOL    HW114789   2.158   0.157  11.823
 4701SOL    HW214790   2.164   0.000  11.867
 4702SOL     OW14791   3.484   0.367  11.546
 4702SOL    HW114792   3.486   0.291  11.610
 4702SOL    HW214793   3.436   0.444  11.586
 4703SOL     OW14794   2.885   0.766  12.138
 4703SOL    HW114795   2.900   0.787  12.234
 4703SOL    HW214796   2.855   0.671  12.129
 4704SOL     OW14797   2.842   1.573  12.872
 4704SOL    HW114798   2.822   1.617  12.784
 4704SOL    HW214799   2.881   1.482  12.856
 4705SOL     OW14800   3.721   1.518  12.777
 4705SOL    HW114801   3.735   1.545  12.682
 4705SOL    HW214802   3.804   1.540  12.830
 4706SOL     OW14803   2.212   0.898  12.976
 4706SOL    HW114804   2.288   0.942  13.024
 4706SOL    HW214805   2.247   0.851  12.894
 4707SOL     OW14806   3.402   0.274  11.297
 4707SOL    HW114807   3.341   0.199  11.320
 4707SOL    HW214808   3.424   0.326  11.380
 4708SOL     OW14809   3.165   0.838  11.214
 4708SOL    HW114810   3.199   0.745  11.229
 4708SOL    HW214811   3.183   0.865  11.119
 4709SOL     OW14812   2.930   1.333  12.021
 4709SOL    HW114813   2.937   1.249  11.966
 4709SOL    HW214814   2.992   1.402  11.985
 4710SOL     OW14815   2.181   0.810  12.121
 4710SOL    HW114816   2.274   0.846  12.126
 4710SOL    HW214817   2.175   0.725  12.173
 4711SOL     OW14818   2.201   0.509  12.178
 4711SOL    HW114819   2.149   0.426  12.161
 4711SOL    HW214820   2.278   0.514  12.114
 4712SOL     OW14821   3.000   0.380  12.850
 4712SOL    HW114822   2.955   0.443  12.914
 4712SOL    HW214823   3.093   0.411  12.833
 4713SOL     OW14824   3.022   0.207  12.649
 4713SOL    HW114825   3.022   0.271  12.726
 4713SOL    HW214826   3.050   0.255  12.566
 4714SOL     OW14827   1.870   1.326  11.372
 4714SOL    HW114828   1.777   1.347  11.341
 4714SOL    HW214829   1.880   1.227  11.385
 4715SOL     OW14830   1.950   1.801  12.099
 4715SOL    HW114831   1.908   1.715  12.072
 4715SOL    HW214832   2.044   1.804  12.065
 4716SOL     OW14833   2.366   1.568  12.082
 4716SOL    HW114834   2.432   1.642  12.091
 4716SOL    HW214835   2.410   1.489  12.040
 4717SOL     OW14836   2.864   0.796  12.410
 4717SOL    HW114837   2.905   0.764  12.496
 4717SOL    HW214838   2.768   0.769  12.407
 4718SOL     OW14839   1.902   0.544  12.286
 4718SOL    HW114840   1.987   0.511  12.245
 4718SOL    HW214841   1.915   0.559  12.384
 4719SOL     OW14842   2.051   0.520  12.894
 4719SOL    HW114843   2.110   0.480  12.824
 4719SOL    HW214844   1.993   0.591  12.853
 4720SOL     OW14845   3.231   0.950  12.832
 4720SOL    HW114846   3.270   1.039  12.852
 4720SOL    HW214847   3.241   0.930  12.735
 4721SOL     OW14848   2.677   0.572  11.497
 4721SOL    HW114849   2.684   0.483  11.451
 4721SOL    HW214850   2.583   0.606  11.489
 4722SOL     OW14851   3.519   0.604  12.378
 4722SOL    HW114852   3.481   0.535  12.440
 4722SOL    HW214853   3.601   0.568  12.334
 4723SOL     OW14854   2.114   1.564  12.916
 4723SOL    HW114855   2.084   1.621  12.992
 4723SOL    HW214856   2.107   1.467  12.942
 4724SOL     OW14857   2.533   0.464  12.441
 4724SOL    HW114858   2.499   0.375  12.411
 4724SOL    HW214859   2.559   0.518  12.361
 4725SOL     OW14860   2.792   1.678  12.637
 4725SOL    HW114861   2.768   1.660  12.542
 4725SOL    HW214862   2.822   1.772  12.647
 4726SOL     OW14863   2.335   0.500  11.363
 4726SOL    HW114864   2.396   0.580  11.367
 4726SOL    HW214865   2.240   0.531  11.370
 4727SOL     OW14866   2.021   1.137  12.638
 4727SOL    HW114867   2.043   1.076  12.714
 4727SOL    HW214868   2.031   1.088  12.552
 4728SOL     OW14869   3.209   1.059  12.406
 4728SOL    HW114870   3.233   0.996  12.332
 4728SOL    HW214871   3.119   1.099  12.388
 4729SOL     OW14872   3.164   0.855  11.481
 4729SOL    HW114873   3.078   0.824  11.523
 4729SOL    HW214874   3.160   0.841  11.382
 4730SOL     OW14875   3.621   1.747  12.326
 4730SOL    HW114876   3.682   1.777  12.253
 4730SOL    HW214877   3.583   1.658  12.304
 4731SOL     OW14878   3.114   1.731  12.300
 4731SOL    HW114879   3.198   1.736  12.246
 4731SOL    HW214880   3.091   1.635  12.318
 4732SOL     OW14881   1.945   1.258  12.194
 4732SOL    HW114882   1.940   1.257  12.294
 4732SOL    HW214883   1.862   1.217  12.156
 4733SOL     OW14884   2.550   1.662  12.888
 4733SOL    HW114885   2.494   1.743  12.897
 4733SOL    HW214886   2.602   1.666  12.802
 4734SOL     OW14887   3.588   0.135  11.695
 4734SOL    HW114888   3.661   0.118  11.628
 4734SOL    HW214889   3.557   0.048  11.733
 4735SOL     OW14890   3.250   1.573  11.649
 4735SOL    HW114891   3.317   1.585  11.575
 4735SOL    HW214892   3.210   1.662  11.672
 4736SOL     OW14893   1.992   1.794  13.023
 4736SOL    HW114894   1.951   1.720  13.076
 4736SOL    HW214895   2.056   1.845  13.081
 4737SOL     OW14896   3.142   0.927  11.844
 4737SOL    HW114897   3.202   0.846  11.846
 4737SOL    HW214898   3.182   0.996  11.784
 4738SOL     OW14899   2.692   1.273  12.594
 4738SOL    HW114900   2.687   1.306  12.689
 4738SOL    HW214901   2.606   1.292  12.548
 4739SOL     OW14902   2.534   1.616  11.326
 4739SOL    HW114903   2.543   1.626  11.227
 4739SOL    HW214904   2.494   1.527  11.347
 4740SOL     OW14905   3.512   1.720  12.566
 4740SOL    HW114906   3.565   1.730  12.482
 4740SOL    HW214907   3.485   1.810  12.600
 4741SOL     OW14908   3.703   0.175  12.135
 4741SOL    HW114909   3.742   0.090  12.099
 4741SOL    HW214910   3.605   0.177  12.116
 4742SOL     OW14911   2.125   0.326  11.892
 4742SOL    HW114912   2.046   0.377  11.858
 4742SOL    HW214913   2.116   0.311  11.990
 4743SOL     OW14914   3.056   1.612  11.203
 4743SOL    HW114915   3.062   1.519  11.240
 4743SOL    HW214916   2.997   1.612  11.123
 4744SOL     OW14917   2.684   1.002  12.544
 4744SOL    HW114918   2.724   1.001  12.452
 4744SOL    HW214919   2.694   1.094  12.584
 4745SOL     OW14920   2.778   0.910  11.463
 4745SOL    HW114921   2.841   0.948  11.395
 4745SOL    HW214922   2.818   0.827  11.502
 4746SOL     OW14923   3.366   1.607  11.216
 4746SOL    HW114924   3.274   1.644  11.223
 4746SOL    HW214925   3.404   1.627  11.126
 4747SOL     OW14926   2.234   1.288  12.662
 4747SOL    HW114927   2.221   1.381  12.628
 4747SOL    HW214928   2.150   1.236  12.649
 4748SOL     OW14929   3.476   1.292  12.461
 4748SOL    HW114930   3.536   1.295  12.541
 4748SOL    HW214931   3.401   1.356  12.474
 4749SOL     OW14932   2.901   1.098  11.868
 4749SOL    HW114933   2.831   1.051  11.922
 4749SOL    HW214934   2.960   1.030  11.825
 4750SOL     OW14935   2.876   0.236  12.143
 4750SOL    HW114936   2.868   0.200  12.050
 4750SOL    HW214937   2.874   0.160  12.208
 4751SOL     OW14938   2.452   1.487  11.663
 4751SOL    HW114939   2.494   1.429  11.593
 4751SOL    HW214940   2.408   1.566  11.619
 4752SOL     OW14941   3.571   0.385  12.553
 4752SOL    HW114942   3.644   0.454  12.557
 4752SOL    HW214943   3.599   0.310  12.494
 4753SOL     OW14944   2.117   1.348  11.462
 4753SOL    HW114945   2.021   1.349  11.435
 4753SOL    HW214946   2.129   1.401  11.546
 4754SOL     OW14947   1.967   1.013  12.898
 4754SOL    HW114948   1.890   0.980  12.952
 4754SOL    HW214949   2.052   0.983  12.940
 4755SOL     OW14950   2.534   0.203  12.661
 4755SOL    HW114951   2.624   0.187  12.621
 4755SOL    HW214952   2.542   0.208  12.760
 4756SOL     OW14953   1.937   0.345  11.205
 4756SOL    HW114954   1.845   0.317  11.176
 4756SOL    HW214955   1.968   0.422  11.149
 4757SOL     OW14956   3.302   0.856  12.570
 4757SOL    HW114957   3.245   0.908  12.507
 4757SOL    HW214958   3.398   0.868  12.546
 4758SOL     OW14959   1.934   0.166  11.490
 4758SOL    HW114960   1.917   0.249  11.436
 4758SOL    HW214961   2.024   0.129  11.468
 4759SOL     OW14962   3.045   1.335  11.291
 4759SOL    HW114963   2.946   1.324  11.293
 4759SOL    HW214964   3.079   1.350  11.384
 4760SOL     OW14965   2.475   0.842  12.603
 4760SOL    HW114966   2.531   0.923  12.586
 4760SOL    HW214967   2.534   0.762  12.606
 4761SOL     OW14968   3.355   1.767  12.131
 4761SOL    HW114969   3.388   1.831  12.062
 4761SOL    HW214970   3.421   1.761  12.206
 4762SOL     OW14971   2.578   0.565  12.880
 4762SOL    HW114972   2.597   0.630  12.954
 4762SOL    HW214973   2.638   0.485  12.889
 4763SOL     OW14974   3.312   1.220  12.805
 4763SOL    HW114975   3.303   1.210  12.904
 4763SOL    HW214976   3.408   1.213  12.779
 4764SOL     OW14977   2.252   1.741  12.732
 4764SOL    HW114978   2.161   1.782  12.730
 4764SOL    HW214979   2.245   1.647  12.764
 4765SOL     OW14980   3.536   0.883  12.426
 4765SOL    HW114981   3.509   0.794  12.389
 4765SOL    HW214982   3.537   0.951  12.353
 4766SOL     OW14983   3.087   0.325  11.621
 4766SOL    HW114984   3.152   0.251  11.610
 4766SOL    HW214985   3.107   0.375  11.705
 4767SOL     OW14986   2.456   0.745  11.824
 4767SOL    HW114987   2.506   0.830  11.805
 4767SOL    HW214988   2.368   0.747  11.776
 4768SOL     OW14989   3.639   0.342  12.814
 4768SOL    HW114990   3.622   0.373  12.720
 4768SOL    HW214991   3.555   0.305  12.852
 4769SOL     OW14992   3.592   0.934  12.689
 4769SOL    HW114993   3.630   1.025  12.704
 4769SOL    HW214994   3.584   0.917  12.590
 4770SOL     OW14995   2.721   1.374  11.188
 4770SOL    HW114996   2.675   1.389  11.276
 4770SOL    HW214997   2.765   1.459  11.158
 4771SOL     OW14998   2.523   1.790  12.125
 4771SOL    HW114999   2.477   1.878  12.112
 4771SOL    HW215000   2.622   1.802  12.118
 4772SOL     OW15001   2.721   0.956  12.033
 4772SOL    HW115002   2.775   0.887  12.081
 4772SOL    HW215003   2.689   1.025  12.099
 4773SOL     OW15004   2.945   0.984  11.259
 4773SOL    HW115005   2.922   1.037  11.177
 4773SOL    HW215006   3.026   0.928  11.240
 4774SOL     OW15007   3.723   1.569  12.023
 4774SOL    HW115008   3.652   1.557  11.953
 4774SOL    HW215009   3.724   1.490  12.083
 4775SOL     OW15010   2.083   1.314  13.016
 4775SOL    HW115011   2.018   1.241  12.995
 4775SOL    HW215012   2.087   1.328  13.114
 4776SOL     OW15013   1.941   1.240  11.825
 4776SOL    HW115014   1.940   1.193  11.913
 4776SOL    HW215015   2.023   1.212  11.774
 4777SOL     OW15016   2.534   1.391  12.796
 4777SOL    HW115017   2.456   1.341  12.834
 4777SOL    HW215018   2.531   1.486  12.827
 4778SOL     OW15019   3.686   0.192  12.399
 4778SOL    HW115020   3.682   0.102  12.443
 4778SOL    HW215021   3.689   0.181  12.300
 4779SOL     OW15022   2.290   0.424  11.692
 4779SOL    HW115023   2.320   0.352  11.630
 4779SOL    HW215024   2.251   0.384  11.775
 4780SOL     OW15025   3.567   1.487  12.276
 4780SOL    HW115026   3.474   1.462  12.249
 4780SOL    HW215027   3.593   1.437  12.358
 4781SOL     OW15028   2.179   0.547  12.452
 4781SOL    HW115029   2.217   0.488  12.524
 4781SOL    HW215030   2.219   0.521  12.364
 4782SOL     OW15031   2.674   1.586  11.859
 4782SOL    HW115032   2.706   1.596  11.765
 4782SOL    HW215033   2.595   1.524  11.861
 4783SOL     OW15034   3.286   0.214  12.284
 4783SOL    HW115035   3.338   0.149  12.339
 4783SOL    HW215036   3.237   0.277  12.345
 4784SOL     OW15037   2.863   0.034  12.326
 4784SOL    HW115038   2.800  -0.038  12.295
 4784SOL    HW215039   2.956  -0.002  12.326
 4785SOL     OW15040   2.632   1.330  11.473
 4785SOL    HW115041   2.586   1.243  11.490
 4785SOL    HW215042   2.723   1.327  11.514
 4786SOL     OW15043   2.480   1.567  12.456
 4786SOL    HW115044   2.475   1.649  12.513
 4786SOL    HW215045   2.569   1.564  12.411
 4787SOL     OW15046   3.214   0.052  11.340
 4787SOL    HW115047   3.249   0.011  11.256
 4787SOL    HW215048   3.124   0.014  11.360
 4788SOL     OW15049   3.162   0.453  11.863
 4788SOL    HW115050   3.103   0.533  11.867
 4788SOL    HW215051   3.177   0.418  11.956
 4789SOL     OW15052   3.455   0.221  12.054
 4789SOL    HW115053   3.371   0.220  12.108
 4789SOL    HW215054   3.457   0.304  11.998
 4790SOL     OW15055   1.901   1.077  11.472
 4790SOL    HW115056   2.000   1.066  11.463
 4790SOL    HW215057   1.861   0.991  11.504
 4791SOL     OW15058   2.737   1.646  11.509
 4791SOL    HW115059   2.660   1.611  11.455
 4791SOL    HW215060   2.705   1.717  11.571
 4792SOL     OW15061   2.092   0.628  13.147
 4792SOL    HW115062   1.999   0.626  13.184
 4792SOL    HW215063   2.093   0.589  13.055
 4793SOL     OW15064   2.087   0.275  14.030
 4793SOL    HW115065   2.122   0.258  14.122
 4793SOL    HW215066   1.999   0.230  14.018
 4794SOL     OW15067   1.881   0.368  13.681
 4794SOL    HW115068   1.799   0.411  13.720
 4794SOL    HW215069   1.853   0.295  13.618
 4795SOL     OW15070   3.417   1.511  13.737
 4795SOL    HW115071   3.360   1.495  13.818
 4795SOL    HW215072   3.358   1.521  13.657
 4796SOL     OW15073   2.997   0.703  13.751
 4796SOL    HW115074   3.054   0.781  13.726
 4796SOL    HW215075   2.937   0.729  13.827
 4797SOL     OW15076   3.617   0.607  13.265
 4797SOL    HW115077   3.605   0.594  13.166
 4797SOL    HW215078   3.587   0.526  13.314
 4798SOL     OW15079   2.547   1.012  13.699
 4798SOL    HW115080   2.616   0.996  13.769
 4798SOL    HW215081   2.474   1.069  13.737
 4799SOL     OW15082   3.465   0.447  13.771
 4799SOL    HW115083   3.391   0.493  13.721
 4799SOL    HW215084   3.516   0.515  13.824
 4800SOL     OW15085   2.093   1.713  13.517
 4800SOL    HW115086   2.127   1.790  13.571
 4800SOL    HW215087   2.137   1.713  13.427
 4801SOL     OW15088   2.092   1.434  13.572
 4801SOL    HW115089   2.066   1.530  13.572
 4801SOL    HW215090   2.021   1.380  13.617
 4802SOL     OW15091   2.102   1.091  13.920
 4802SOL    HW115092   2.116   1.007  13.972
 4802SOL    HW215093   2.047   1.155  13.975
 4803SOL     OW15094   2.468   0.964  13.157
 4803SOL    HW115095   2.475   1.048  13.103
 4803SOL    HW215096   2.514   0.977  13.245
 4804SOL     OW15097   1.984   0.643  13.597
 4804SOL    HW115098   1.939   0.555  13.614
 4804SOL    HW215099   1.983   0.697  13.681
 4805SOL     OW15100   3.704   1.767  13.393
 4805SOL    HW115101   3.758   1.738  13.473
 4805SOL    HW215102   3.734   1.857  13.364
 4806SOL     OW15103   1.889   1.596  13.151
 4806SOL    HW115104   1.870   1.500  13.172
 4806SOL    HW215105   1.856   1.654  13.226
 4807SOL     OW15106   3.551   0.922  13.646
 4807SOL    HW115107   3.646   0.893  13.654
 4807SOL    HW215108   3.543   0.987  13.571
 4808SOL     OW15109   3.503   1.108  13.466
 4808SOL    HW115110   3.589   1.110  13.414
 4808SOL    HW215111   3.517   1.155  13.554
 4809SOL     OW15112   2.475   1.365  13.760
 4809SOL    HW115113   2.426   1.278  13.769
 4809SOL    HW215114   2.452   1.408  13.673
 4810SOL     OW15115   2.671   0.004  13.536
 4810SOL    HW115116   2.711   0.095  13.527
 4810SOL    HW215117   2.571   0.012  13.542
 4811SOL     OW15118   3.387   0.999  13.224
 4811SOL    HW115119   3.324   0.923  13.237
 4811SOL    HW215120   3.435   1.017  13.310
 4812SOL     OW15121   3.529   1.714  13.606
 4812SOL    HW115122   3.488   1.691  13.518
 4812SOL    HW215123   3.511   1.640  13.671
 4813SOL     OW15124   2.460   0.729  13.304
 4813SOL    HW115125   2.484   0.798  13.236
 4813SOL    HW215126   2.382   0.762  13.358
 4814SOL     OW15127   3.143   0.345  13.978
 4814SOL    HW115128   3.057   0.295  13.965
 4814SOL    HW215129   3.205   0.291  14.034
 4815SOL     OW15130   3.438   1.662  13.341
 4815SOL    HW115131   3.527   1.708  13.344
 4815SOL    HW215132   3.417   1.638  13.246
 4816SOL     OW15133   2.903   0.701  13.463
 4816SOL    HW115134   2.929   0.697  13.559
 4816SOL    HW215135   2.818   0.650  13.449
 4817SOL     OW15136   1.938   0.811  13.823
 4817SOL    HW115137   2.037   0.799  13.832
 4817SOL    HW215138   1.914   0.906  13.844
 4818SOL     OW15139   2.727   0.348  13.229
 4818SOL    HW115140   2.786   0.411  13.180
 4818SOL    HW215141   2.746   0.254  13.200
 4819SOL     OW15142   3.224   1.144  13.579
 4819SOL    HW115143   3.307   1.115  13.531
 4819SOL    HW215144   3.175   1.211  13.523
 4820SOL     OW15145   2.870   1.456  13.511
 4820SOL    HW115146   2.824   1.528  13.459
 4820SOL    HW215147   2.866   1.476  13.609
 4821SOL     OW15148   2.213   1.801  13.887
 4821SOL    HW115149   2.263   1.715  13.893
 4821SOL    HW215150   2.278   1.878  13.884
 4822SOL     OW15151   3.657   1.066  13.907
 4822SOL    HW115152   3.595   1.051  13.831
 4822SOL    HW215153   3.605   1.077  13.992
 4823SOL     OW15154   2.183   0.943  13.276
 4823SOL    HW115155   2.265   0.982  13.234
 4823SOL    HW215156   2.156   0.861  13.227
 4824SOL     OW15157   3.320   0.735  13.762
 4824SOL    HW115158   3.315   0.670  13.837
 4824SOL    HW215159   3.400   0.794  13.775
 4825SOL     OW15160   2.973   1.776  13.271
 4825SOL    HW115161   2.913   1.714  13.321
 4825SOL    HW215162   3.004   1.732  13.186
 4826SOL     OW15163   3.494   1.377  13.115
 4826SOL    HW115164   3.462   1.471  13.105
 4826SOL    HW215165   3.418   1.314  13.103
 4827SOL     OW15166   2.326   1.743  13.357
 4827SOL    HW115167   2.359   1.782  13.443
 4827SOL    HW215168   2.402   1.736  13.292
 4828SOL     OW15169   3.262   0.107  13.460
 4828SOL    HW115170   3.238   0.070  13.370
 4828SOL    HW215171   3.361   0.123  13.464
 4829SOL     OW15172   2.802   1.698  13.938
 4829SOL    HW115173   2.882   1.641  13.959
 4829SOL    HW215174   2.753   1.658  13.861
 4830SOL     OW15175   2.244   0.700  13.514
 4830SOL    HW115176   2.289   0.610  13.511
 4830SOL    HW215177   2.150   0.689  13.547
 4831SOL     OW15178   2.476   0.122  13.151
 4831SOL    HW115179   2.574   0.100  13.158
 4831SOL    HW215180   2.445   0.105  13.058
 4832SOL     OW15181   2.401   0.064  13.546
 4832SOL    HW115182   2.320   0.065  13.604
 4832SOL    HW215183   2.404   0.147  13.491
 4833SOL     OW15184   3.296   1.188  13.075
 4833SOL    HW115185   3.328   1.112  13.132
 4833SOL    HW215186   3.204   1.215  13.105
 4834SOL     OW15187   2.159   0.035  13.205
 4834SOL    HW115188   2.208   0.119  13.184
 4834SOL    HW215189   2.221  -0.030  13.250
 4835SOL     OW15190   2.797   0.236  13.514
 4835SOL    HW115191   2.749   0.277  13.436
 4835SOL    HW215192   2.896   0.234  13.495
 4836SOL     OW15193   2.321   1.152  13.775
 4836SOL    HW115194   2.250   1.125  13.840
 4836SOL    HW215195   2.295   1.124  13.682
 4837SOL     OW15196   3.133   1.797  13.625
 4837SOL    HW115197   3.177   1.861  13.561
 4837SOL    HW215198   3.083   1.849  13.695
 4838SOL     OW15199   2.894   0.549  13.050
 4838SOL    HW115200   2.853   0.631  13.011
 4838SOL    HW215201   2.958   0.575  13.123
 4839SOL     OW15202   2.728   0.454  13.676
 4839SOL    HW115203   2.696   0.526  13.614
 4839SOL    HW215204   2.752   0.373  13.623
 4840SOL     OW15205   2.879   0.039  13.787
 4840SOL    HW115206   2.807   0.044  13.718
 4840SOL    HW215207   2.855  -0.030  13.856
 4841SOL     OW15208   3.719   0.833  13.411
 4841SOL    HW115209   3.761   0.769  13.475
 4841SOL    HW215210   3.681   0.782  13.333
 4842SOL     OW15211   2.350   1.385  13.208
 4842SOL    HW115212   2.263   1.370  13.255
 4842SOL    HW215213   2.333   1.411  13.113
 4843SOL     OW15214   3.526   1.280  13.691
 4843SOL    HW115215   3.625   1.288  13.705
 4843SOL    HW215216   3.481   1.364  13.722
 4844SOL     OW15217   3.252   0.575  13.112
 4844SOL    HW115218   3.198   0.554  13.193
 4844SOL    HW215219   3.343   0.534  13.121
 4845SOL     OW15220   2.389   0.256  13.362
 4845SOL    HW115221   2.416   0.197  13.287
 4845SOL    HW215222   2.389   0.351  13.331
 4846SOL     OW15223   2.567   1.050  13.402
 4846SOL    HW115224   2.553   1.057  13.501
 4846SOL    HW215225   2.651   0.999  13.384
 4847SOL     OW15226   2.229   1.100  13.535
 4847SOL    HW115227   2.222   1.183  13.479
 4847SOL    HW215228   2.233   1.020  13.475
 4848SOL     OW15229   2.428   0.537  13.899
 4848SOL    HW115230   2.440   0.603  13.825
 4848SOL    HW215231   2.474   0.571  13.982
 4849SOL     OW15232   3.114   1.348  13.422
 4849SOL    HW115233   3.164   1.425  13.462
 4849SOL    HW215234   3.019   1.350  13.454
 4850SOL     OW15235   3.444   0.639  13.506
 4850SOL    HW115236   3.413   0.700  13.579
 4850SOL    HW215237   3.494   0.691  13.437
 4851SOL     OW15238   3.071   0.525  13.309
 4851SOL    HW115239   3.084   0.441  13.363
 4851SOL    HW215240   3.042   0.599  13.369
 4852SOL     OW15241   2.169   0.063  13.652
 4852SOL    HW115242   2.158   0.157  13.685
 4852SOL    HW215243   2.164   0.000  13.729
 4853SOL     OW15244   3.484   0.367  13.408
 4853SOL    HW115245   3.486   0.291  13.472
 4853SOL    HW215246   3.436   0.444  13.448
 4854SOL     OW15247   3.402   0.274  13.159
 4854SOL    HW115248   3.341   0.199  13.182
 4854SOL    HW215249   3.424   0.326  13.242
 4855SOL     OW15250   3.165   0.838  13.076
 4855SOL    HW115251   3.199   0.745  13.091
 4855SOL    HW215252   3.183   0.865  12.981
 4856SOL     OW15253   1.870   1.326  13.234
 4856SOL    HW115254   1.777   1.347  13.203
 4856SOL    HW215255   1.880   1.227  13.247
 4857SOL     OW15256   2.677   0.572  13.359
 4857SOL    HW115257   2.684   0.483  13.313
 4857SOL    HW215258   2.583   0.606  13.351
 4858SOL     OW15259   2.335   0.500  13.225
 4858SOL    HW115260   2.396   0.580  13.229
 4858SOL    HW215261   2.240   0.531  13.232
 4859SOL     OW15262   3.164   0.855  13.343
 4859SOL    HW115263   3.078   0.824  13.385
 4859SOL    HW215264   3.160   0.841  13.244
 4860SOL     OW15265   3.588   0.135  13.557
 4860SOL    HW115266   3.661   0.118  13.490
 4860SOL    HW215267   3.557   0.048  13.595
 4861SOL     OW15268   3.250   1.573  13.511
 4861SOL    HW115269   3.317   1.585  13.437
 4861SOL    HW215270   3.210   1.662  13.534
 4862SOL     OW15271   3.142   0.927  13.706
 4862SOL    HW115272   3.202   0.846  13.708
 4862SOL    HW215273   3.182   0.996  13.646
 4863SOL     OW15274   2.534   1.616  13.188
 4863SOL    HW115275   2.543   1.626  13.089
 4863SOL    HW215276   2.494   1.527  13.209
 4864SOL     OW15277   3.703   0.175  13.997
 4864SOL    HW115278   3.742   0.090  13.961
 4864SOL    HW215279   3.605   0.177  13.978
 4865SOL     OW15280   2.125   0.326  13.754
 4865SOL    HW115281   2.046   0.377  13.720
 4865SOL    HW215282   2.116   0.311  13.852
 4866SOL     OW15283   3.056   1.612  13.065
 4866SOL    HW115284   3.062   1.519  13.102
 4866SOL    HW215285   2.997   1.612  12.985
 4867SOL     OW15286   2.778   0.910  13.325
 4867SOL    HW115287   2.841   0.948  13.257
 4867SOL    HW215288   2.818   0.827  13.364
 4868SOL     OW15289   3.366   1.607  13.078
 4868SOL    HW115290   3.274   1.644  13.085
 4868SOL    HW215291   3.404   1.627  12.988
 4869SOL     OW15292   2.901   1.098  13.730
 4869SOL    HW115293   2.831   1.051  13.784
 4869SOL    HW215294   2.960   1.030  13.687
 4870SOL     OW15295   2.452   1.487  13.525
 4870SOL    HW115296   2.494   1.429  13.455
 4870SOL    HW215297   2.408   1.566  13.481
 4871SOL     OW15298   2.117   1.348  13.324
 4871SOL    HW115299   2.021   1.349  13.297
 4871SOL    HW215300   2.129   1.401  13.408
 4872SOL     OW15301   1.937   0.345  13.067
 4872SOL    HW115302   1.845   0.317  13.038
 4872SOL    HW215303   1.968   0.422  13.011
 4873SOL     OW15304   1.934   0.166  13.352
 4873SOL    HW115305   1.917   0.249  13.298
 4873SOL    HW215306   2.024   0.129  13.330
 4874SOL     OW15307   3.045   1.335  13.153
 4874SOL    HW115308   2.946   1.324  13.155
 4874SOL    HW215309   3.079   1.350  13.246
 4875SOL     OW15310   3.087   0.325  13.483
 4875SOL    HW115311   3.152   0.251  13.472
 4875SOL    HW215312   3.107   0.375  13.567
 4876SOL     OW15313   2.456   0.745  13.686
 4876SOL    HW115314   2.506   0.830  13.667
 4876SOL    HW215315   2.368   0.747  13.638
 4877SOL     OW15316   2.721   1.374  13.050
 4877SOL    HW115317   2.675   1.389  13.138
 4877SOL    HW215318   2.765   1.459  13.020
 4878SOL     OW15319   2.523   1.790  13.987
 4878SOL    HW115320   2.477   1.878  13.974
 4878SOL    HW215321   2.622   1.802  13.980
 4879SOL     OW15322   2.721   0.956  13.895
 4879SOL    HW115323   2.775   0.887  13.943
 4879SOL    HW215324   2.689   1.025  13.961
 4880SOL     OW15325   2.945   0.984  13.121
 4880SOL    HW115326   2.922   1.037  13.039
 4880SOL    HW215327   3.026   0.928  13.102
 4881SOL     OW15328   1.941   1.240  13.687
 4881SOL    HW115329   1.940   1.193  13.775
 4881SOL    HW215330   2.023   1.212  13.636
 4882SOL     OW15331   2.290   0.424  13.554
 4882SOL    HW115332   2.320   0.352  13.492
 4882SOL    HW215333   2.251   0.384  13.637
 4883SOL     OW15334   3.567   1.487  14.138
 4883SOL    HW115335   3.474   1.462  14.111
 4883SOL    HW215336   3.593   1.437  14.220
 4884SOL     OW15337   2.674   1.586  13.721
 4884SOL    HW115338   2.706   1.596  13.627
 4884SOL    HW215339   2.595   1.524  13.723
 4885SOL     OW15340   2.632   1.330  13.335
 4885SOL    HW115341   2.586   1.243  13.352
 4885SOL    HW215342   2.723   1.327  13.376
 4886SOL     OW15343   3.214   0.052  13.202
 4886SOL    HW115344   3.249   0.011  13.118
 4886SOL    HW215345   3.124   0.014  13.222
 4887SOL     OW15346   3.162   0.453  13.725
 4887SOL    HW115347   3.103   0.533  13.729
 4887SOL    HW215348   3.177   0.418  13.818
 4888SOL     OW15349   1.901   1.077  13.334
 4888SOL    HW115350   2.000   1.066  13.325
 4888SOL    HW215351   1.861   0.991  13.366
 4889SOL     OW15352   2.737   1.646  13.371
 4889SOL    HW115353   2.660   1.611  13.317
 4889SOL    HW215354   2.705   1.717  13.433
 4890SOL     OW15355   2.092   2.490   0.113
 4890SOL    HW115356   1.999   2.488   0.150
 4890SOL    HW215357   2.093   2.451   0.021
 4891SOL     OW15358   1.881   2.230   0.647
 4891SOL    HW115359   1.799   2.273   0.686
 4891SOL    HW215360   1.853   2.157   0.584
 4892SOL     OW15361   2.431   3.137   1.165
 4892SOL    HW115362   2.338   3.130   1.128
 4892SOL    HW215363   2.442   3.226   1.209
 4893SOL     OW15364   3.417   3.373   0.703
 4893SOL    HW115365   3.360   3.357   0.784
 4893SOL    HW215366   3.358   3.383   0.623
 4894SOL     OW15367   2.997   2.565   0.717
 4894SOL    HW115368   3.054   2.643   0.692
 4894SOL    HW215369   2.937   2.591   0.793
 4895SOL     OW15370   3.617   2.469   0.231
 4895SOL    HW115371   3.605   2.456   0.132
 4895SOL    HW215372   3.587   2.388   0.280
 4896SOL     OW15373   2.630   3.006   1.023
 4896SOL    HW115374   2.552   3.023   1.083
 4896SOL    HW215375   2.664   3.093   0.987
 4897SOL     OW15376   2.712   2.660   1.823
 4897SOL    HW115377   2.708   2.736   1.888
 4897SOL    HW215378   2.734   2.696   1.732
 4898SOL     OW15379   2.547   2.874   0.665
 4898SOL    HW115380   2.616   2.858   0.735
 4898SOL    HW215381   2.474   2.931   0.703
 4899SOL     OW15382   2.548   3.023   1.803
 4899SOL    HW115383   2.608   3.102   1.817
 4899SOL    HW215384   2.462   3.054   1.762
 4900SOL     OW15385   2.197   3.297   1.061
 4900SOL    HW115386   2.119   3.266   1.008
 4900SOL    HW215387   2.255   3.355   1.004
 4901SOL     OW15388   3.322   3.367   1.339
 4901SOL    HW115389   3.346   3.461   1.365
 4901SOL    HW215390   3.306   3.313   1.421
 4902SOL     OW15391   2.300   2.254   1.499
 4902SOL    HW115392   2.382   2.198   1.508
 4902SOL    HW215393   2.219   2.196   1.503
 4903SOL     OW15394   3.465   2.309   0.737
 4903SOL    HW115395   3.391   2.355   0.687
 4903SOL    HW215396   3.516   2.377   0.790
 4904SOL     OW15397   2.093   3.575   0.483
 4904SOL    HW115398   2.127   3.652   0.537
 4904SOL    HW215399   2.137   3.575   0.393
 4905SOL     OW15400   2.989   3.203   1.690
 4905SOL    HW115401   3.036   3.203   1.778
 4905SOL    HW215402   2.941   3.116   1.679
 4906SOL     OW15403   2.092   3.296   0.538
 4906SOL    HW115404   2.066   3.392   0.538
 4906SOL    HW215405   2.021   3.242   0.583
 4907SOL     OW15406   2.102   2.953   0.886
 4907SOL    HW115407   2.116   2.869   0.938
 4907SOL    HW215408   2.047   3.017   0.941
 4908SOL     OW15409   2.482   3.648   1.439
 4908SOL    HW115410   2.390   3.631   1.474
 4908SOL    HW215411   2.510   3.740   1.465
 4909SOL     OW15412   2.468   2.826   0.123
 4909SOL    HW115413   2.475   2.910   0.069
 4909SOL    HW215414   2.514   2.839   0.211
 4910SOL     OW15415   3.456   1.976   1.480
 4910SOL    HW115416   3.438   2.043   1.408
 4910SOL    HW215417   3.453   2.022   1.569
 4911SOL     OW15418   1.984   2.505   0.563
 4911SOL    HW115419   1.939   2.417   0.580
 4911SOL    HW215420   1.983   2.559   0.647
 4912SOL     OW15421   3.704   3.629   0.359
 4912SOL    HW115422   3.758   3.600   0.439
 4912SOL    HW215423   3.734   3.719   0.330
 4913SOL     OW15424   1.889   3.458   0.117
 4913SOL    HW115425   1.870   3.362   0.138
 4913SOL    HW215426   1.856   3.516   0.192
 4914SOL     OW15427   3.551   2.784   0.612
 4914SOL    HW115428   3.646   2.755   0.620
 4914SOL    HW215429   3.543   2.849   0.537
 4915SOL     OW15430   3.503   2.970   0.432
 4915SOL    HW115431   3.589   2.972   0.380
 4915SOL    HW215432   3.517   3.017   0.520
 4916SOL     OW15433   1.975   2.599   1.597
 4916SOL    HW115434   2.063   2.586   1.642
 4916SOL    HW215435   1.962   2.696   1.575
 4917SOL     OW15436   2.475   3.227   0.726
 4917SOL    HW115437   2.426   3.140   0.735
 4917SOL    HW215438   2.452   3.270   0.639
 4918SOL     OW15439   3.155   3.090   1.423
 4918SOL    HW115440   3.192   3.017   1.365
 4918SOL    HW215441   3.207   3.095   1.508
 4919SOL     OW15442   2.671   1.866   0.502
 4919SOL    HW115443   2.711   1.957   0.493
 4919SOL    HW215444   2.571   1.874   0.508
 4920SOL     OW15445   2.059   2.838   1.264
 4920SOL    HW115446   2.148   2.793   1.250
 4920SOL    HW215447   1.986   2.773   1.245
 4921SOL     OW15448   3.387   2.861   0.190
 4921SOL    HW115449   3.324   2.785   0.203
 4921SOL    HW215450   3.435   2.879   0.276
 4922SOL     OW15451   3.049   3.654   1.616
 4922SOL    HW115452   3.073   3.714   1.540
 4922SOL    HW215453   3.056   3.559   1.586
 4923SOL     OW15454   3.328   3.279   0.953
 4923SOL    HW115455   3.269   3.285   1.033
 4923SOL    HW215456   3.313   3.191   0.907
 4924SOL     OW15457   3.529   3.576   0.572
 4924SOL    HW115458   3.488   3.553   0.484
 4924SOL    HW215459   3.511   3.502   0.637
 4925SOL     OW15460   2.460   2.591   0.270
 4925SOL    HW115461   2.484   2.660   0.202
 4925SOL    HW215462   2.382   2.624   0.324
 4926SOL     OW15463   3.143   2.207   0.944
 4926SOL    HW115464   3.057   2.157   0.931
 4926SOL    HW215465   3.205   2.153   1.000
 4927SOL     OW15466   3.438   3.524   0.307
 4927SOL    HW115467   3.527   3.570   0.310
 4927SOL    HW215468   3.417   3.500   0.212
 4928SOL     OW15469   2.669   2.467   1.465
 4928SOL    HW115470   2.622   2.464   1.554
 4928SOL    HW215471   2.618   2.412   1.399
 4929SOL     OW15472   3.256   2.331   1.674
 4929SOL    HW115473   3.236   2.374   1.762
 4929SOL    HW215474   3.334   2.269   1.683
 4930SOL     OW15475   2.835   2.752   1.572
 4930SOL    HW115476   2.881   2.668   1.543
 4930SOL    HW215477   2.779   2.786   1.497
 4931SOL     OW15478   2.853   2.272   1.242
 4931SOL    HW115479   2.776   2.306   1.296
 4931SOL    HW215480   2.819   2.221   1.163
 4932SOL     OW15481   2.903   2.563   0.429
 4932SOL    HW115482   2.929   2.559   0.525
 4932SOL    HW215483   2.818   2.512   0.415
 4933SOL     OW15484   1.938   2.673   0.789
 4933SOL    HW115485   2.037   2.661   0.798
 4933SOL    HW215486   1.914   2.768   0.810
 4934SOL     OW15487   1.992   3.683   1.571
 4934SOL    HW115488   1.982   3.668   1.670
 4934SOL    HW215489   1.906   3.719   1.535
 4935SOL     OW15490   2.727   2.210   0.195
 4935SOL    HW115491   2.786   2.273   0.146
 4935SOL    HW215492   2.746   2.116   0.166
 4936SOL     OW15493   3.581   2.447   1.831
 4936SOL    HW115494   3.555   2.536   1.795
 4936SOL    HW215495   3.579   2.379   1.758
 4937SOL     OW15496   3.224   3.006   0.545
 4937SOL    HW115497   3.307   2.977   0.497
 4937SOL    HW215498   3.175   3.073   0.489
 4938SOL     OW15499   2.412   2.058   0.885
 4938SOL    HW115500   2.407   2.053   0.985
 4938SOL    HW215501   2.414   2.154   0.856
 4939SOL     OW15502   2.870   3.318   0.477
 4939SOL    HW115503   2.824   3.390   0.425
 4939SOL    HW215504   2.866   3.338   0.575
 4940SOL     OW15505   2.213   3.663   0.853
 4940SOL    HW115506   2.263   3.577   0.859
 4940SOL    HW215507   2.278   3.740   0.850
 4941SOL     OW15508   3.657   2.928   0.873
 4941SOL    HW115509   3.595   2.913   0.797
 4941SOL    HW215510   3.605   2.939   0.958
 4942SOL     OW15511   3.089   3.412   1.506
 4942SOL    HW115512   3.095   3.335   1.570
 4942SOL    HW215513   3.037   3.386   1.426
 4943SOL     OW15514   2.183   2.805   0.242
 4943SOL    HW115515   2.265   2.844   0.200
 4943SOL    HW215516   2.156   2.723   0.193
 4944SOL     OW15517   3.320   2.597   0.728
 4944SOL    HW115518   3.315   2.532   0.803
 4944SOL    HW215519   3.400   2.656   0.741
 4945SOL     OW15520   2.323   3.128   1.727
 4945SOL    HW115521   2.273   3.129   1.641
 4945SOL    HW215522   2.260   3.110   1.803
 4946SOL     OW15523   2.973   3.638   0.237
 4946SOL    HW115524   2.913   3.576   0.287
 4946SOL    HW215525   3.004   3.594   0.152
 4947SOL     OW15526   3.494   3.239   0.081
 4947SOL    HW115527   3.462   3.333   0.071
 4947SOL    HW215528   3.418   3.176   0.069
 4948SOL     OW15529   2.326   3.605   0.323
 4948SOL    HW115530   2.359   3.644   0.409
 4948SOL    HW215531   2.402   3.598   0.258
 4949SOL     OW15532   3.262   1.969   0.426
 4949SOL    HW115533   3.238   1.932   0.336
 4949SOL    HW215534   3.361   1.985   0.430
 4950SOL     OW15535   2.111   3.647   1.241
 4950SOL    HW115536   2.168   3.582   1.291
 4950SOL    HW215537   2.095   3.614   1.148
 4951SOL     OW15538   2.802   3.560   0.904
 4951SOL    HW115539   2.882   3.503   0.925
 4951SOL    HW215540   2.753   3.520   0.827
 4952SOL     OW15541   2.244   2.562   0.480
 4952SOL    HW115542   2.289   2.472   0.477
 4952SOL    HW215543   2.150   2.551   0.513
 4953SOL     OW15544   3.409   2.084   1.729
 4953SOL    HW115545   3.404   2.121   1.821
 4953SOL    HW215546   3.337   2.015   1.717
 4954SOL     OW15547   2.643   2.126   1.749
 4954SOL    HW115548   2.710   2.065   1.792
 4954SOL    HW215549   2.570   2.145   1.814
 4955SOL     OW15550   2.750   3.376   1.195
 4955SOL    HW115551   2.727   3.351   1.101
 4955SOL    HW215552   2.811   3.307   1.234
 4956SOL     OW15553   3.213   2.452   1.433
 4956SOL    HW115554   3.241   2.409   1.518
 4956SOL    HW215555   3.238   2.548   1.434
 4957SOL     OW15556   2.665   3.264   0.924
 4957SOL    HW115557   2.755   3.278   0.882
 4957SOL    HW215558   2.594   3.266   0.853
 4958SOL     OW15559   2.784   2.365   0.899
 4958SOL    HW115560   2.759   2.356   0.803
 4958SOL    HW215561   2.832   2.283   0.930
 4959SOL     OW15562   2.401   1.926   0.512
 4959SOL    HW115563   2.320   1.927   0.570
 4959SOL    HW215564   2.404   2.009   0.457
 4960SOL     OW15565   3.296   3.050   0.041
 4960SOL    HW115566   3.328   2.974   0.098
 4960SOL    HW215567   3.204   3.077   0.071
 4961SOL     OW15568   2.797   2.098   0.480
 4961SOL    HW115569   2.749   2.139   0.402
 4961SOL    HW215570   2.896   2.096   0.461
 4962SOL     OW15571   2.938   2.545   1.464
 4962SOL    HW115572   2.858   2.484   1.467
 4962SOL    HW215573   3.019   2.492   1.440
 4963SOL     OW15574   3.089   3.432   0.793
 4963SOL    HW115575   3.110   3.506   0.728
 4963SOL    HW215576   3.157   3.432   0.866
 4964SOL     OW15577   2.321   3.014   0.741
 4964SOL    HW115578   2.250   2.987   0.806
 4964SOL    HW215579   2.295   2.986   0.648
 4965SOL     OW15580   3.133   3.659   0.591
 4965SOL    HW115581   3.177   3.723   0.527
 4965SOL    HW215582   3.083   3.711   0.661
 4966SOL     OW15583   2.894   2.411   0.016
 4966SOL    HW115584   2.853   2.493  -0.023
 4966SOL    HW215585   2.958   2.437   0.089
 4967SOL     OW15586   1.940   2.418   1.386
 4967SOL    HW115587   2.032   2.417   1.345
 4967SOL    HW215588   1.934   2.492   1.453
 4968SOL     OW15589   2.423   2.084   1.147
 4968SOL    HW115590   2.461   2.000   1.184
 4968SOL    HW215591   2.335   2.103   1.191
 4969SOL     OW15592   2.728   2.316   0.642
 4969SOL    HW115593   2.696   2.388   0.580
 4969SOL    HW215594   2.752   2.235   0.589
 4970SOL     OW15595   2.879   1.901   0.753
 4970SOL    HW115596   2.807   1.906   0.684
 4970SOL    HW215597   2.855   1.832   0.822
 4971SOL     OW15598   3.291   3.035   0.867
 4971SOL    HW115599   3.236   2.951   0.860
 4971SOL    HW215600   3.317   3.064   0.775
 4972SOL     OW15601   3.328   2.452   0.992
 4972SOL    HW115602   3.298   2.357   0.999
 4972SOL    HW215603   3.401   2.468   1.058
 4973SOL     OW15604   3.719   2.695   0.377
 4973SOL    HW115605   3.761   2.631   0.441
 4973SOL    HW215606   3.681   2.644   0.299
 4974SOL     OW15607   2.350   3.247   0.174
 4974SOL    HW115608   2.263   3.232   0.221
 4974SOL    HW215609   2.333   3.273   0.079
 4975SOL     OW15610   3.526   3.142   0.657
 4975SOL    HW115611   3.625   3.150   0.671
 4975SOL    HW215612   3.481   3.226   0.688
 4976SOL     OW15613   3.252   2.437   0.078
 4976SOL    HW115614   3.198   2.416   0.159
 4976SOL    HW215615   3.343   2.396   0.087
 4977SOL     OW15616   2.389   2.118   0.328
 4977SOL    HW115617   2.416   2.059   0.253
 4977SOL    HW215618   2.389   2.213   0.297
 4978SOL     OW15619   3.616   3.085   1.588
 4978SOL    HW115620   3.707   3.046   1.575
 4978SOL    HW215621   3.624   3.181   1.612
 4979SOL     OW15622   2.926   3.209   1.340
 4979SOL    HW115623   2.846   3.186   1.395
 4979SOL    HW215624   3.009   3.183   1.389
 4980SOL     OW15625   3.454   3.491   1.625
 4980SOL    HW115626   3.481   3.525   1.535
 4980SOL    HW215627   3.533   3.453   1.671
 4981SOL     OW15628   2.973   3.057   1.100
 4981SOL    HW115629   2.933   3.101   1.181
 4981SOL    HW215630   2.932   3.094   1.017
 4982SOL     OW15631   3.500   2.961   1.079
 4982SOL    HW115632   3.505   3.042   1.138
 4982SOL    HW215633   3.414   2.963   1.028
 4983SOL     OW15634   2.777   1.951   1.402
 4983SOL    HW115635   2.802   1.931   1.307
 4983SOL    HW215636   2.849   2.007   1.444
 4984SOL     OW15637   2.842   2.978   1.719
 4984SOL    HW115638   2.743   2.984   1.729
 4984SOL    HW215639   2.865   2.898   1.663
 4985SOL     OW15640   2.567   2.912   0.368
 4985SOL    HW115641   2.553   2.919   0.467
 4985SOL    HW215642   2.651   2.861   0.350
 4986SOL     OW15643   2.272   2.675   1.251
 4986SOL    HW115644   2.358   2.687   1.301
 4986SOL    HW215645   2.230   2.588   1.278
 4987SOL     OW15646   3.136   2.248   1.262
 4987SOL    HW115647   3.157   2.322   1.326
 4987SOL    HW215648   3.047   2.265   1.219
 4988SOL     OW15649   1.926   3.426   1.331
 4988SOL    HW115650   1.880   3.508   1.297
 4988SOL    HW215651   2.024   3.445   1.340
 4989SOL     OW15652   2.229   2.962   0.501
 4989SOL    HW115653   2.222   3.045   0.445
 4989SOL    HW215654   2.233   2.882   0.441
 4990SOL     OW15655   2.428   2.399   0.865
 4990SOL    HW115656   2.440   2.465   0.791
 4990SOL    HW215657   2.474   2.433   0.948
 4991SOL     OW15658   3.114   3.210   0.388
 4991SOL    HW115659   3.164   3.287   0.428
 4991SOL    HW215660   3.019   3.212   0.420
 4992SOL     OW15661   3.134   3.307   1.142
 4992SOL    HW115662   3.181   3.320   1.229
 4992SOL    HW215663   3.068   3.233   1.151
 4993SOL     OW15664   3.444   2.501   0.472
 4993SOL    HW115665   3.413   2.562   0.545
 4993SOL    HW215666   3.494   2.553   0.403
 4994SOL     OW15667   2.216   3.372   1.329
 4994SOL    HW115668   2.195   3.328   1.242
 4994SOL    HW215669   2.313   3.398   1.332
 4995SOL     OW15670   2.264   2.613   1.598
 4995SOL    HW115671   2.332   2.668   1.551
 4995SOL    HW215672   2.304   2.525   1.625
 4996SOL     OW15673   3.449   2.641   1.670
 4996SOL    HW115674   3.357   2.679   1.665
 4996SOL    HW215675   3.509   2.688   1.605
 4997SOL     OW15676   2.875   1.967   1.770
 4997SOL    HW115677   2.881   2.052   1.718
 4997SOL    HW215678   2.907   1.891   1.713
 4998SOL     OW15679   2.366   1.912   1.740
 4998SOL    HW115680   2.324   1.855   1.670
 4998SOL    HW215681   2.300   1.981   1.772
 4999SOL     OW15682   2.435   2.732   1.029
 4999SOL    HW115683   2.479   2.821   1.020
 4999SOL    HW215684   2.372   2.732   1.106
 5000SOL     OW15685   3.222   2.724   1.045
 5000SOL    HW115686   3.147   2.724   0.979
 5000SOL    HW215687   3.259   2.632   1.054
 5001SOL     OW15688   3.071   2.387   0.275
 5001SOL    HW115689   3.084   2.303   0.329
 5001SOL    HW215690   3.042   2.461   0.335
 5002SOL     OW15691   1.899   3.172   1.282
 5002SOL    HW115692   1.952   3.123   1.350
 5002SOL    HW215693   1.921   3.270   1.287
 5003SOL     OW15694   2.594   2.496   1.064
 5003SOL    HW115695   2.653   2.470   0.988
 5003SOL    HW215696   2.566   2.592   1.053
 5004SOL     OW15697   3.590   2.797   1.854
 5004SOL    HW115698   3.544   2.790   1.765
 5004SOL    HW215699   3.528   2.841   1.920
 5005SOL     OW15700   2.169   1.925   0.618
 5005SOL    HW115701   2.158   2.019   0.651
 5005SOL    HW215702   2.164   1.862   0.695
 5006SOL     OW15703   3.484   2.229   0.374
 5006SOL    HW115704   3.486   2.153   0.438
 5006SOL    HW215705   3.436   2.306   0.414
 5007SOL     OW15706   2.885   2.628   0.966
 5007SOL    HW115707   2.900   2.649   1.062
 5007SOL    HW215708   2.855   2.533   0.957
 5008SOL     OW15709   2.842   3.435   1.700
 5008SOL    HW115710   2.822   3.479   1.612
 5008SOL    HW215711   2.881   3.344   1.684
 5009SOL     OW15712   3.721   3.380   1.605
 5009SOL    HW115713   3.735   3.407   1.510
 5009SOL    HW215714   3.804   3.402   1.658
 5010SOL     OW15715   2.212   2.760   1.804
 5010SOL    HW115716   2.288   2.804   1.852
 5010SOL    HW215717   2.247   2.713   1.722
 5011SOL     OW15718   3.402   2.136   0.125
 5011SOL    HW115719   3.341   2.061   0.148
 5011SOL    HW215720   3.424   2.188   0.208
 5012SOL     OW15721   3.165   2.700   0.042
 5012SOL    HW115722   3.199   2.607   0.057
 5012SOL    HW215723   3.183   2.727  -0.053
 5013SOL     OW15724   2.930   3.195   0.849
 5013SOL    HW115725   2.937   3.111   0.794
 5013SOL    HW215726   2.992   3.264   0.813
 5014SOL     OW15727   2.181   2.672   0.949
 5014SOL    HW115728   2.274   2.708   0.954
 5014SOL    HW215729   2.175   2.587   1.001
 5015SOL     OW15730   2.201   2.371   1.006
 5015SOL    HW115731   2.149   2.288   0.989
 5015SOL    HW215732   2.278   2.376   0.942
 5016SOL     OW15733   3.000   2.242   1.678
 5016SOL    HW115734   2.955   2.305   1.742
 5016SOL    HW215735   3.093   2.273   1.661
 5017SOL     OW15736   3.022   2.069   1.477
 5017SOL    HW115737   3.022   2.133   1.554
 5017SOL    HW215738   3.050   2.117   1.394
 5018SOL     OW15739   1.870   3.188   0.200
 5018SOL    HW115740   1.777   3.209   0.169
 5018SOL    HW215741   1.880   3.089   0.213
 5019SOL     OW15742   1.950   3.663   0.927
 5019SOL    HW115743   1.908   3.577   0.900
 5019SOL    HW215744   2.044   3.666   0.893
 5020SOL     OW15745   2.366   3.430   0.910
 5020SOL    HW115746   2.432   3.504   0.919
 5020SOL    HW215747   2.410   3.351   0.868
 5021SOL     OW15748   2.864   2.658   1.238
 5021SOL    HW115749   2.905   2.626   1.324
 5021SOL    HW215750   2.768   2.631   1.235
 5022SOL     OW15751   1.902   2.406   1.114
 5022SOL    HW115752   1.987   2.373   1.073
 5022SOL    HW215753   1.915   2.421   1.212
 5023SOL     OW15754   2.051   2.382   1.722
 5023SOL    HW115755   2.110   2.342   1.652
 5023SOL    HW215756   1.993   2.453   1.681
 5024SOL     OW15757   3.231   2.812   1.660
 5024SOL    HW115758   3.270   2.901   1.680
 5024SOL    HW215759   3.241   2.792   1.563
 5025SOL     OW15760   2.677   2.434   0.325
 5025SOL    HW115761   2.684   2.345   0.279
 5025SOL    HW215762   2.583   2.468   0.317
 5026SOL     OW15763   3.519   2.466   1.206
 5026SOL    HW115764   3.481   2.397   1.268
 5026SOL    HW215765   3.601   2.430   1.162
 5027SOL     OW15766   2.114   3.426   1.744
 5027SOL    HW115767   2.084   3.483   1.820
 5027SOL    HW215768   2.107   3.329   1.770
 5028SOL     OW15769   2.533   2.326   1.269
 5028SOL    HW115770   2.499   2.237   1.239
 5028SOL    HW215771   2.559   2.380   1.189
 5029SOL     OW15772   2.792   3.540   1.465
 5029SOL    HW115773   2.768   3.522   1.370
 5029SOL    HW215774   2.822   3.634   1.475
 5030SOL     OW15775   2.335   2.362   0.191
 5030SOL    HW115776   2.396   2.442   0.195
 5030SOL    HW215777   2.240   2.393   0.198
 5031SOL     OW15778   2.021   2.999   1.466
 5031SOL    HW115779   2.043   2.938   1.542
 5031SOL    HW215780   2.031   2.950   1.380
 5032SOL     OW15781   3.209   2.921   1.234
 5032SOL    HW115782   3.233   2.858   1.160
 5032SOL    HW215783   3.119   2.961   1.216
 5033SOL     OW15784   3.164   2.717   0.309
 5033SOL    HW115785   3.078   2.686   0.351
 5033SOL    HW215786   3.160   2.703   0.210
 5034SOL     OW15787   3.621   3.609   1.154
 5034SOL    HW115788   3.682   3.639   1.081
 5034SOL    HW215789   3.583   3.520   1.132
 5035SOL     OW15790   3.114   3.593   1.128
 5035SOL    HW115791   3.198   3.598   1.074
 5035SOL    HW215792   3.091   3.497   1.146
 5036SOL     OW15793   1.945   3.120   1.022
 5036SOL    HW115794   1.940   3.119   1.122
 5036SOL    HW215795   1.862   3.079   0.984
 5037SOL     OW15796   2.550   3.524   1.716
 5037SOL    HW115797   2.494   3.605   1.725
 5037SOL    HW215798   2.602   3.528   1.630
 5038SOL     OW15799   2.765   1.948   0.133
 5038SOL    HW115800   2.816   1.949   0.047
 5038SOL    HW215801   2.821   1.906   0.204
 5039SOL     OW15802   3.588   1.997   0.523
 5039SOL    HW115803   3.661   1.980   0.456
 5039SOL    HW215804   3.557   1.910   0.561
 5040SOL     OW15805   3.250   3.435   0.477
 5040SOL    HW115806   3.317   3.447   0.403
 5040SOL    HW215807   3.210   3.524   0.500
 5041SOL     OW15808   1.992   3.656   1.851
 5041SOL    HW115809   1.951   3.582   1.904
 5041SOL    HW215810   2.056   3.707   1.909
 5042SOL     OW15811   3.142   2.789   0.672
 5042SOL    HW115812   3.202   2.708   0.674
 5042SOL    HW215813   3.182   2.858   0.612
 5043SOL     OW15814   2.692   3.135   1.422
 5043SOL    HW115815   2.687   3.168   1.517
 5043SOL    HW215816   2.606   3.154   1.376
 5044SOL     OW15817   2.534   3.478   0.154
 5044SOL    HW115818   2.543   3.488   0.055
 5044SOL    HW215819   2.494   3.389   0.175
 5045SOL     OW15820   3.512   3.582   1.394
 5045SOL    HW115821   3.565   3.592   1.310
 5045SOL    HW215822   3.485   3.672   1.428
 5046SOL     OW15823   3.703   2.037   0.963
 5046SOL    HW115824   3.742   1.952   0.927
 5046SOL    HW215825   3.605   2.039   0.944
 5047SOL     OW15826   3.056   3.474   0.031
 5047SOL    HW115827   3.062   3.381   0.068
 5047SOL    HW215828   2.997   3.474  -0.049
 5048SOL     OW15829   2.684   2.864   1.372
 5048SOL    HW115830   2.724   2.863   1.280
 5048SOL    HW215831   2.694   2.956   1.412
 5049SOL     OW15832   2.778   2.772   0.291
 5049SOL    HW115833   2.841   2.810   0.223
 5049SOL    HW215834   2.818   2.689   0.330
 5050SOL     OW15835   3.366   3.469   0.044
 5050SOL    HW115836   3.274   3.506   0.051
 5050SOL    HW215837   3.404   3.489  -0.046
 5051SOL     OW15838   2.234   3.150   1.490
 5051SOL    HW115839   2.221   3.243   1.456
 5051SOL    HW215840   2.150   3.098   1.477
 5052SOL     OW15841   3.476   3.154   1.289
 5052SOL    HW115842   3.536   3.157   1.369
 5052SOL    HW215843   3.401   3.218   1.302
 5053SOL     OW15844   2.901   2.960   0.696
 5053SOL    HW115845   2.831   2.913   0.750
 5053SOL    HW215846   2.960   2.892   0.653
 5054SOL     OW15847   2.876   2.098   0.971
 5054SOL    HW115848   2.868   2.062   0.878
 5054SOL    HW215849   2.874   2.022   1.036
 5055SOL     OW15850   2.452   3.349   0.491
 5055SOL    HW115851   2.494   3.291   0.421
 5055SOL    HW215852   2.408   3.428   0.447
 5056SOL     OW15853   3.571   2.247   1.381
 5056SOL    HW115854   3.644   2.316   1.385
 5056SOL    HW215855   3.599   2.172   1.322
 5057SOL     OW15856   2.117   3.210   0.290
 5057SOL    HW115857   2.021   3.211   0.263
 5057SOL    HW215858   2.129   3.263   0.374
 5058SOL     OW15859   1.967   2.875   1.726
 5058SOL    HW115860   1.890   2.842   1.780
 5058SOL    HW215861   2.052   2.845   1.768
 5059SOL     OW15862   2.534   2.065   1.489
 5059SOL    HW115863   2.624   2.049   1.449
 5059SOL    HW215864   2.542   2.070   1.588
 5060SOL     OW15865   1.937   2.207   0.033
 5060SOL    HW115866   1.845   2.179   0.004
 5060SOL    HW215867   1.968   2.284  -0.023
 5061SOL     OW15868   3.302   2.718   1.398
 5061SOL    HW115869   3.245   2.770   1.335
 5061SOL    HW215870   3.398   2.730   1.374
 5062SOL     OW15871   3.045   3.197   0.119
 5062SOL    HW115872   2.946   3.186   0.121
 5062SOL    HW215873   3.079   3.212   0.212
 5063SOL     OW15874   2.475   2.704   1.431
 5063SOL    HW115875   2.531   2.785   1.414
 5063SOL    HW215876   2.534   2.624   1.434
 5064SOL     OW15877   3.355   3.629   0.959
 5064SOL    HW115878   3.388   3.693   0.890
 5064SOL    HW215879   3.421   3.623   1.034
 5065SOL     OW15880   2.578   2.427   1.708
 5065SOL    HW115881   2.597   2.492   1.782
 5065SOL    HW215882   2.638   2.347   1.717
 5066SOL     OW15883   3.312   3.082   1.633
 5066SOL    HW115884   3.303   3.072   1.732
 5066SOL    HW215885   3.408   3.075   1.607
 5067SOL     OW15886   2.252   3.603   1.560
 5067SOL    HW115887   2.161   3.644   1.558
 5067SOL    HW215888   2.245   3.509   1.592
 5068SOL     OW15889   3.536   2.745   1.254
 5068SOL    HW115890   3.509   2.656   1.217
 5068SOL    HW215891   3.537   2.813   1.181
 5069SOL     OW15892   3.087   2.187   0.449
 5069SOL    HW115893   3.152   2.113   0.438
 5069SOL    HW215894   3.107   2.237   0.533
 5070SOL     OW15895   2.456   2.607   0.652
 5070SOL    HW115896   2.506   2.692   0.633
 5070SOL    HW215897   2.368   2.609   0.604
 5071SOL     OW15898   3.639   2.204   1.642
 5071SOL    HW115899   3.622   2.235   1.548
 5071SOL    HW215900   3.555   2.167   1.680
 5072SOL     OW15901   3.592   2.796   1.517
 5072SOL    HW115902   3.630   2.887   1.532
 5072SOL    HW215903   3.584   2.779   1.418
 5073SOL     OW15904   2.721   3.236   0.016
 5073SOL    HW115905   2.675   3.251   0.104
 5073SOL    HW215906   2.765   3.321  -0.014
 5074SOL     OW15907   2.523   3.652   0.953
 5074SOL    HW115908   2.477   3.740   0.940
 5074SOL    HW215909   2.622   3.664   0.946
 5075SOL     OW15910   2.721   2.818   0.861
 5075SOL    HW115911   2.775   2.749   0.909
 5075SOL    HW215912   2.689   2.887   0.927
 5076SOL     OW15913   2.945   2.846   0.087
 5076SOL    HW115914   2.922   2.899   0.005
 5076SOL    HW215915   3.026   2.790   0.068
 5077SOL     OW15916   3.723   3.431   0.851
 5077SOL    HW115917   3.652   3.419   0.781
 5077SOL    HW215918   3.724   3.352   0.911
 5078SOL     OW15919   2.083   3.176   1.844
 5078SOL    HW115920   2.018   3.103   1.823
 5078SOL    HW215921   2.087   3.190   1.942
 5079SOL     OW15922   1.941   3.102   0.653
 5079SOL    HW115923   1.940   3.055   0.741
 5079SOL    HW215924   2.023   3.074   0.602
 5080SOL     OW15925   2.534   3.253   1.624
 5080SOL    HW115926   2.456   3.203   1.662
 5080SOL    HW215927   2.531   3.348   1.655
 5081SOL     OW15928   3.686   2.054   1.227
 5081SOL    HW115929   3.682   1.964   1.271
 5081SOL    HW215930   3.689   2.043   1.128
 5082SOL     OW15931   2.290   2.286   0.520
 5082SOL    HW115932   2.320   2.214   0.458
 5082SOL    HW215933   2.251   2.246   0.603
 5083SOL     OW15934   3.567   3.349   1.104
 5083SOL    HW115935   3.474   3.324   1.077
 5083SOL    HW215936   3.593   3.299   1.186
 5084SOL     OW15937   2.179   2.409   1.280
 5084SOL    HW115938   2.217   2.350   1.352
 5084SOL    HW215939   2.219   2.383   1.192
 5085SOL     OW15940   2.674   3.448   0.687
 5085SOL    HW115941   2.706   3.458   0.593
 5085SOL    HW215942   2.595   3.386   0.689
 5086SOL     OW15943   3.286   2.076   1.112
 5086SOL    HW115944   3.338   2.011   1.167
 5086SOL    HW215945   3.237   2.139   1.173
 5087SOL     OW15946   2.863   1.896   1.154
 5087SOL    HW115947   2.800   1.824   1.123
 5087SOL    HW215948   2.956   1.860   1.154
 5088SOL     OW15949   2.632   3.192   0.301
 5088SOL    HW115950   2.586   3.105   0.318
 5088SOL    HW215951   2.723   3.189   0.342
 5089SOL     OW15952   2.480   3.429   1.284
 5089SOL    HW115953   2.475   3.511   1.341
 5089SOL    HW215954   2.569   3.426   1.239
 5090SOL     OW15955   3.214   1.914   0.168
 5090SOL    HW115956   3.249   1.873   0.084
 5090SOL    HW215957   3.124   1.876   0.188
 5091SOL     OW15958   3.162   2.315   0.691
 5091SOL    HW115959   3.103   2.395   0.695
 5091SOL    HW215960   3.177   2.280   0.784
 5092SOL     OW15961   3.455   2.083   0.882
 5092SOL    HW115962   3.371   2.082   0.936
 5092SOL    HW215963   3.457   2.166   0.826
 5093SOL     OW15964   1.901   2.939   0.300
 5093SOL    HW115965   2.000   2.928   0.291
 5093SOL    HW215966   1.861   2.853   0.332
 5094SOL     OW15967   2.737   3.508   0.337
 5094SOL    HW115968   2.660   3.473   0.283
 5094SOL    HW215969   2.705   3.579   0.399
 5095SOL     OW15970   2.092   2.490   1.975
 5095SOL    HW115971   1.999   2.488   2.012
 5095SOL    HW215972   2.093   2.451   1.883
 5096SOL     OW15973   1.881   2.230   2.509
 5096SOL    HW115974   1.799   2.273   2.548
 5096SOL    HW215975   1.853   2.157   2.446
 5097SOL     OW15976   2.431   3.137   3.027
 5097SOL    HW115977   2.338   3.130   2.990
 5097SOL    HW215978   2.442   3.226   3.071
 5098SOL     OW15979   3.417   3.373   2.565
 5098SOL    HW115980   3.360   3.357   2.646
 5098SOL    HW215981   3.358   3.383   2.485
 5099SOL     OW15982   2.997   2.565   2.579
 5099SOL    HW115983   3.054   2.643   2.554
 5099SOL    HW215984   2.937   2.591   2.655
 5100SOL     OW15985   3.617   2.469   2.093
 5100SOL    HW115986   3.605   2.456   1.994
 5100SOL    HW215987   3.587   2.388   2.142
 5101SOL     OW15988   2.630   3.006   2.885
 5101SOL    HW115989   2.552   3.023   2.945
 5101SOL    HW215990   2.664   3.093   2.849
 5102SOL     OW15991   2.712   2.660   3.685
 5102SOL    HW115992   2.708   2.736   3.750
 5102SOL    HW215993   2.734   2.696   3.594
 5103SOL     OW15994   2.547   2.874   2.527
 5103SOL    HW115995   2.616   2.858   2.597
 5103SOL    HW215996   2.474   2.931   2.565
 5104SOL     OW15997   2.548   3.023   3.665
 5104SOL    HW115998   2.608   3.102   3.679
 5104SOL    HW215999   2.462   3.054   3.624
 5105SOL     OW16000   2.197   3.297   2.923
 5105SOL    HW116001   2.119   3.266   2.870
 5105SOL    HW216002   2.255   3.355   2.866
 5106SOL     OW16003   3.322   3.367   3.201
 5106SOL    HW116004   3.346   3.461   3.227
 5106SOL    HW216005   3.306   3.313   3.283
 5107SOL     OW16006   2.300   2.254   3.361
 5107SOL    HW116007   2.382   2.198   3.370
 5107SOL    HW216008   2.219   2.196   3.365
 5108SOL     OW16009   3.465   2.309   2.599
 5108SOL    HW116010   3.391   2.355   2.549
 5108SOL    HW216011   3.516   2.377   2.652
 5109SOL     OW16012   2.093   3.575   2.345
 5109SOL    HW116013   2.127   3.652   2.399
 5109SOL    HW216014   2.137   3.575   2.255
 5110SOL     OW16015   2.989   3.203   3.552
 5110SOL    HW116016   3.036   3.203   3.640
 5110SOL    HW216017   2.941   3.116   3.541
 5111SOL     OW16018   2.092   3.296   2.400
 5111SOL    HW116019   2.066   3.392   2.400
 5111SOL    HW216020   2.021   3.242   2.445
 5112SOL     OW16021   2.102   2.953   2.748
 5112SOL    HW116022   2.116   2.869   2.800
 5112SOL    HW216023   2.047   3.017   2.803
 5113SOL     OW16024   2.482   3.648   3.301
 5113SOL    HW116025   2.390   3.631   3.336
 5113SOL    HW216026   2.510   3.740   3.327
 5114SOL     OW16027   2.468   2.826   1.985
 5114SOL    HW116028   2.475   2.910   1.931
 5114SOL    HW216029   2.514   2.839   2.073
 5115SOL     OW16030   3.456   1.976   3.342
 5115SOL    HW116031   3.438   2.043   3.270
 5115SOL    HW216032   3.453   2.022   3.431
 5116SOL     OW16033   1.984   2.505   2.425
 5116SOL    HW116034   1.939   2.417   2.442
 5116SOL    HW216035   1.983   2.559   2.509
 5117SOL     OW16036   3.704   3.629   2.221
 5117SOL    HW116037   3.758   3.600   2.301
 5117SOL    HW216038   3.734   3.719   2.192
 5118SOL     OW16039   1.889   3.458   1.979
 5118SOL    HW116040   1.870   3.362   2.000
 5118SOL    HW216041   1.856   3.516   2.054
 5119SOL     OW16042   3.551   2.784   2.474
 5119SOL    HW116043   3.646   2.755   2.482
 5119SOL    HW216044   3.543   2.849   2.399
 5120SOL     OW16045   3.503   2.970   2.294
 5120SOL    HW116046   3.589   2.972   2.242
 5120SOL    HW216047   3.517   3.017   2.382
 5121SOL     OW16048   1.975   2.599   3.459
 5121SOL    HW116049   2.063   2.586   3.504
 5121SOL    HW216050   1.962   2.696   3.437
 5122SOL     OW16051   2.475   3.227   2.588
 5122SOL    HW116052   2.426   3.140   2.597
 5122SOL    HW216053   2.452   3.270   2.501
 5123SOL     OW16054   3.155   3.090   3.285
 5123SOL    HW116055   3.192   3.017   3.227
 5123SOL    HW216056   3.207   3.095   3.370
 5124SOL     OW16057   2.671   1.866   2.364
 5124SOL    HW116058   2.711   1.957   2.355
 5124SOL    HW216059   2.571   1.874   2.370
 5125SOL     OW16060   2.059   2.838   3.126
 5125SOL    HW116061   2.148   2.793   3.112
 5125SOL    HW216062   1.986   2.773   3.107
 5126SOL     OW16063   3.387   2.861   2.052
 5126SOL    HW116064   3.324   2.785   2.065
 5126SOL    HW216065   3.435   2.879   2.138
 5127SOL     OW16066   3.049   3.654   3.478
 5127SOL    HW116067   3.073   3.714   3.402
 5127SOL    HW216068   3.056   3.559   3.448
 5128SOL     OW16069   3.328   3.279   2.815
 5128SOL    HW116070   3.269   3.285   2.895
 5128SOL    HW216071   3.313   3.191   2.769
 5129SOL     OW16072   3.529   3.576   2.434
 5129SOL    HW116073   3.488   3.553   2.346
 5129SOL    HW216074   3.511   3.502   2.499
 5130SOL     OW16075   2.460   2.591   2.132
 5130SOL    HW116076   2.484   2.660   2.064
 5130SOL    HW216077   2.382   2.624   2.186
 5131SOL     OW16078   3.143   2.207   2.806
 5131SOL    HW116079   3.057   2.157   2.793
 5131SOL    HW216080   3.205   2.153   2.862
 5132SOL     OW16081   3.438   3.524   2.169
 5132SOL    HW116082   3.527   3.570   2.172
 5132SOL    HW216083   3.417   3.500   2.074
 5133SOL     OW16084   2.669   2.467   3.327
 5133SOL    HW116085   2.622   2.464   3.416
 5133SOL    HW216086   2.618   2.412   3.261
 5134SOL     OW16087   3.256   2.331   3.536
 5134SOL    HW116088   3.236   2.374   3.624
 5134SOL    HW216089   3.334   2.269   3.545
 5135SOL     OW16090   2.835   2.752   3.434
 5135SOL    HW116091   2.881   2.668   3.405
 5135SOL    HW216092   2.779   2.786   3.359
 5136SOL     OW16093   2.853   2.272   3.104
 5136SOL    HW116094   2.776   2.306   3.158
 5136SOL    HW216095   2.819   2.221   3.025
 5137SOL     OW16096   2.903   2.563   2.291
 5137SOL    HW116097   2.929   2.559   2.387
 5137SOL    HW216098   2.818   2.512   2.277
 5138SOL     OW16099   1.938   2.673   2.651
 5138SOL    HW116100   2.037   2.661   2.660
 5138SOL    HW216101   1.914   2.768   2.672
 5139SOL     OW16102   1.992   3.683   3.433
 5139SOL    HW116103   1.982   3.668   3.532
 5139SOL    HW216104   1.906   3.719   3.397
 5140SOL     OW16105   2.727   2.210   2.057
 5140SOL    HW116106   2.786   2.273   2.008
 5140SOL    HW216107   2.746   2.116   2.028
 5141SOL     OW16108   3.581   2.447   3.693
 5141SOL    HW116109   3.555   2.536   3.657
 5141SOL    HW216110   3.579   2.379   3.620
 5142SOL     OW16111   3.224   3.006   2.407
 5142SOL    HW116112   3.307   2.977   2.359
 5142SOL    HW216113   3.175   3.073   2.351
 5143SOL     OW16114   2.412   2.058   2.747
 5143SOL    HW116115   2.407   2.053   2.847
 5143SOL    HW216116   2.414   2.154   2.718
 5144SOL     OW16117   2.870   3.318   2.339
 5144SOL    HW116118   2.824   3.390   2.287
 5144SOL    HW216119   2.866   3.338   2.437
 5145SOL     OW16120   2.213   3.663   2.715
 5145SOL    HW116121   2.263   3.577   2.721
 5145SOL    HW216122   2.278   3.740   2.712
 5146SOL     OW16123   3.657   2.928   2.735
 5146SOL    HW116124   3.595   2.913   2.659
 5146SOL    HW216125   3.605   2.939   2.820
 5147SOL     OW16126   3.089   3.412   3.368
 5147SOL    HW116127   3.095   3.335   3.432
 5147SOL    HW216128   3.037   3.386   3.288
 5148SOL     OW16129   2.183   2.805   2.104
 5148SOL    HW116130   2.265   2.844   2.062
 5148SOL    HW216131   2.156   2.723   2.055
 5149SOL     OW16132   3.320   2.597   2.590
 5149SOL    HW116133   3.315   2.532   2.665
 5149SOL    HW216134   3.400   2.656   2.603
 5150SOL     OW16135   2.323   3.128   3.589
 5150SOL    HW116136   2.273   3.129   3.503
 5150SOL    HW216137   2.260   3.110   3.665
 5151SOL     OW16138   2.973   3.638   2.099
 5151SOL    HW116139   2.913   3.576   2.149
 5151SOL    HW216140   3.004   3.594   2.014
 5152SOL     OW16141   3.494   3.239   1.943
 5152SOL    HW116142   3.462   3.333   1.933
 5152SOL    HW216143   3.418   3.176   1.931
 5153SOL     OW16144   2.326   3.605   2.185
 5153SOL    HW116145   2.359   3.644   2.271
 5153SOL    HW216146   2.402   3.598   2.120
 5154SOL     OW16147   3.262   1.969   2.288
 5154SOL    HW116148   3.238   1.932   2.198
 5154SOL    HW216149   3.361   1.985   2.292
 5155SOL     OW16150   2.111   3.647   3.103
 5155SOL    HW116151   2.168   3.582   3.153
 5155SOL    HW216152   2.095   3.614   3.010
 5156SOL     OW16153   2.802   3.560   2.766
 5156SOL    HW116154   2.882   3.503   2.787
 5156SOL    HW216155   2.753   3.520   2.689
 5157SOL     OW16156   2.244   2.562   2.342
 5157SOL    HW116157   2.289   2.472   2.339
 5157SOL    HW216158   2.150   2.551   2.375
 5158SOL     OW16159   3.409   2.084   3.591
 5158SOL    HW116160   3.404   2.121   3.683
 5158SOL    HW216161   3.337   2.015   3.579
 5159SOL     OW16162   2.476   1.984   1.979
 5159SOL    HW116163   2.574   1.962   1.986
 5159SOL    HW216164   2.445   1.967   1.886
 5160SOL     OW16165   2.643   2.126   3.611
 5160SOL    HW116166   2.710   2.065   3.654
 5160SOL    HW216167   2.570   2.145   3.676
 5161SOL     OW16168   2.750   3.376   3.057
 5161SOL    HW116169   2.727   3.351   2.963
 5161SOL    HW216170   2.811   3.307   3.096
 5162SOL     OW16171   3.213   2.452   3.295
 5162SOL    HW116172   3.241   2.409   3.380
 5162SOL    HW216173   3.238   2.548   3.296
 5163SOL     OW16174   2.665   3.264   2.786
 5163SOL    HW116175   2.755   3.278   2.744
 5163SOL    HW216176   2.594   3.266   2.715
 5164SOL     OW16177   2.784   2.365   2.761
 5164SOL    HW116178   2.759   2.356   2.665
 5164SOL    HW216179   2.832   2.283   2.792
 5165SOL     OW16180   2.401   1.926   2.374
 5165SOL    HW116181   2.320   1.927   2.432
 5165SOL    HW216182   2.404   2.009   2.319
 5166SOL     OW16183   3.296   3.050   1.903
 5166SOL    HW116184   3.328   2.974   1.960
 5166SOL    HW216185   3.204   3.077   1.933
 5167SOL     OW16186   2.797   2.098   2.342
 5167SOL    HW116187   2.749   2.139   2.264
 5167SOL    HW216188   2.896   2.096   2.323
 5168SOL     OW16189   2.938   2.545   3.326
 5168SOL    HW116190   2.858   2.484   3.329
 5168SOL    HW216191   3.019   2.492   3.302
 5169SOL     OW16192   3.089   3.432   2.655
 5169SOL    HW116193   3.110   3.506   2.590
 5169SOL    HW216194   3.157   3.432   2.728
 5170SOL     OW16195   2.321   3.014   2.603
 5170SOL    HW116196   2.250   2.987   2.668
 5170SOL    HW216197   2.295   2.986   2.510
 5171SOL     OW16198   3.133   3.659   2.453
 5171SOL    HW116199   3.177   3.723   2.389
 5171SOL    HW216200   3.083   3.711   2.523
 5172SOL     OW16201   2.894   2.411   1.878
 5172SOL    HW116202   2.853   2.493   1.839
 5172SOL    HW216203   2.958   2.437   1.951
 5173SOL     OW16204   1.940   2.418   3.248
 5173SOL    HW116205   2.032   2.417   3.207
 5173SOL    HW216206   1.934   2.492   3.315
 5174SOL     OW16207   2.423   2.084   3.009
 5174SOL    HW116208   2.461   2.000   3.046
 5174SOL    HW216209   2.335   2.103   3.053
 5175SOL     OW16210   2.728   2.316   2.504
 5175SOL    HW116211   2.696   2.388   2.442
 5175SOL    HW216212   2.752   2.235   2.451
 5176SOL     OW16213   2.879   1.901   2.615
 5176SOL    HW116214   2.807   1.906   2.546
 5176SOL    HW216215   2.855   1.832   2.684
 5177SOL     OW16216   3.291   3.035   2.729
 5177SOL    HW116217   3.236   2.951   2.722
 5177SOL    HW216218   3.317   3.064   2.637
 5178SOL     OW16219   3.328   2.452   2.854
 5178SOL    HW116220   3.298   2.357   2.861
 5178SOL    HW216221   3.401   2.468   2.920
 5179SOL     OW16222   3.719   2.695   2.239
 5179SOL    HW116223   3.761   2.631   2.303
 5179SOL    HW216224   3.681   2.644   2.161
 5180SOL     OW16225   2.350   3.247   2.036
 5180SOL    HW116226   2.263   3.232   2.083
 5180SOL    HW216227   2.333   3.273   1.941
 5181SOL     OW16228   3.526   3.142   2.519
 5181SOL    HW116229   3.625   3.150   2.533
 5181SOL    HW216230   3.481   3.226   2.550
 5182SOL     OW16231   3.252   2.437   1.940
 5182SOL    HW116232   3.198   2.416   2.021
 5182SOL    HW216233   3.343   2.396   1.949
 5183SOL     OW16234   2.389   2.118   2.190
 5183SOL    HW116235   2.416   2.059   2.115
 5183SOL    HW216236   2.389   2.213   2.159
 5184SOL     OW16237   3.616   3.085   3.450
 5184SOL    HW116238   3.707   3.046   3.437
 5184SOL    HW216239   3.624   3.181   3.474
 5185SOL     OW16240   2.926   3.209   3.202
 5185SOL    HW116241   2.846   3.186   3.257
 5185SOL    HW216242   3.009   3.183   3.251
 5186SOL     OW16243   3.454   3.491   3.487
 5186SOL    HW116244   3.481   3.525   3.397
 5186SOL    HW216245   3.533   3.453   3.533
 5187SOL     OW16246   2.973   3.057   2.962
 5187SOL    HW116247   2.933   3.101   3.043
 5187SOL    HW216248   2.932   3.094   2.879
 5188SOL     OW16249   3.500   2.961   2.941
 5188SOL    HW116250   3.505   3.042   3.000
 5188SOL    HW216251   3.414   2.963   2.890
 5189SOL     OW16252   2.777   1.951   3.264
 5189SOL    HW116253   2.802   1.931   3.169
 5189SOL    HW216254   2.849   2.007   3.306
 5190SOL     OW16255   2.842   2.978   3.581
 5190SOL    HW116256   2.743   2.984   3.591
 5190SOL    HW216257   2.865   2.898   3.525
 5191SOL     OW16258   2.567   2.912   2.230
 5191SOL    HW116259   2.553   2.919   2.329
 5191SOL    HW216260   2.651   2.861   2.212
 5192SOL     OW16261   2.272   2.675   3.113
 5192SOL    HW116262   2.358   2.687   3.163
 5192SOL    HW216263   2.230   2.588   3.140
 5193SOL     OW16264   3.136   2.248   3.124
 5193SOL    HW116265   3.157   2.322   3.188
 5193SOL    HW216266   3.047   2.265   3.081
 5194SOL     OW16267   1.926   3.426   3.193
 5194SOL    HW116268   1.880   3.508   3.159
 5194SOL    HW216269   2.024   3.445   3.202
 5195SOL     OW16270   2.229   2.962   2.363
 5195SOL    HW116271   2.222   3.045   2.307
 5195SOL    HW216272   2.233   2.882   2.303
 5196SOL     OW16273   2.428   2.399   2.727
 5196SOL    HW116274   2.440   2.465   2.653
 5196SOL    HW216275   2.474   2.433   2.810
 5197SOL     OW16276   3.114   3.210   2.250
 5197SOL    HW116277   3.164   3.287   2.290
 5197SOL    HW216278   3.019   3.212   2.282
 5198SOL     OW16279   3.134   3.307   3.004
 5198SOL    HW116280   3.181   3.320   3.091
 5198SOL    HW216281   3.068   3.233   3.013
 5199SOL     OW16282   3.444   2.501   2.334
 5199SOL    HW116283   3.413   2.562   2.407
 5199SOL    HW216284   3.494   2.553   2.265
 5200SOL     OW16285   2.216   3.372   3.191
 5200SOL    HW116286   2.195   3.328   3.104
 5200SOL    HW216287   2.313   3.398   3.194
 5201SOL     OW16288   2.264   2.613   3.460
 5201SOL    HW116289   2.332   2.668   3.413
 5201SOL    HW216290   2.304   2.525   3.487
 5202SOL     OW16291   3.449   2.641   3.532
 5202SOL    HW116292   3.357   2.679   3.527
 5202SOL    HW216293   3.509   2.688   3.467
 5203SOL     OW16294   2.875   1.967   3.632
 5203SOL    HW116295   2.881   2.052   3.580
 5203SOL    HW216296   2.907   1.891   3.575
 5204SOL     OW16297   2.366   1.912   3.602
 5204SOL    HW116298   2.324   1.855   3.532
 5204SOL    HW216299   2.300   1.981   3.634
 5205SOL     OW16300   2.435   2.732   2.891
 5205SOL    HW116301   2.479   2.821   2.882
 5205SOL    HW216302   2.372   2.732   2.968
 5206SOL     OW16303   3.222   2.724   2.907
 5206SOL    HW116304   3.147   2.724   2.841
 5206SOL    HW216305   3.259   2.632   2.916
 5207SOL     OW16306   3.071   2.387   2.137
 5207SOL    HW116307   3.084   2.303   2.191
 5207SOL    HW216308   3.042   2.461   2.197
 5208SOL     OW16309   1.899   3.172   3.144
 5208SOL    HW116310   1.952   3.123   3.212
 5208SOL    HW216311   1.921   3.270   3.149
 5209SOL     OW16312   2.594   2.496   2.926
 5209SOL    HW116313   2.653   2.470   2.850
 5209SOL    HW216314   2.566   2.592   2.915
 5210SOL     OW16315   3.590   2.797   3.716
 5210SOL    HW116316   3.544   2.790   3.627
 5210SOL    HW216317   3.528   2.841   3.782
 5211SOL     OW16318   2.169   1.925   2.480
 5211SOL    HW116319   2.158   2.019   2.513
 5211SOL    HW216320   2.164   1.862   2.557
 5212SOL     OW16321   3.484   2.229   2.236
 5212SOL    HW116322   3.486   2.153   2.300
 5212SOL    HW216323   3.436   2.306   2.276
 5213SOL     OW16324   2.885   2.628   2.828
 5213SOL    HW116325   2.900   2.649   2.924
 5213SOL    HW216326   2.855   2.533   2.819
 5214SOL     OW16327   2.842   3.435   3.562
 5214SOL    HW116328   2.822   3.479   3.474
 5214SOL    HW216329   2.881   3.344   3.546
 5215SOL     OW16330   3.721   3.380   3.467
 5215SOL    HW116331   3.735   3.407   3.372
 5215SOL    HW216332   3.804   3.402   3.520
 5216SOL     OW16333   2.212   2.760   3.666
 5216SOL    HW116334   2.288   2.804   3.714
 5216SOL    HW216335   2.247   2.713   3.584
 5217SOL     OW16336   3.402   2.136   1.987
 5217SOL    HW116337   3.341   2.061   2.010
 5217SOL    HW216338   3.424   2.188   2.070
 5218SOL     OW16339   3.165   2.700   1.904
 5218SOL    HW116340   3.199   2.607   1.919
 5218SOL    HW216341   3.183   2.727   1.809
 5219SOL     OW16342   2.930   3.195   2.711
 5219SOL    HW116343   2.937   3.111   2.656
 5219SOL    HW216344   2.992   3.264   2.675
 5220SOL     OW16345   2.181   2.672   2.811
 5220SOL    HW116346   2.274   2.708   2.816
 5220SOL    HW216347   2.175   2.587   2.863
 5221SOL     OW16348   2.201   2.371   2.868
 5221SOL    HW116349   2.149   2.288   2.851
 5221SOL    HW216350   2.278   2.376   2.804
 5222SOL     OW16351   3.000   2.242   3.540
 5222SOL    HW116352   2.955   2.305   3.604
 5222SOL    HW216353   3.093   2.273   3.523
 5223SOL     OW16354   3.022   2.069   3.339
 5223SOL    HW116355   3.022   2.133   3.416
 5223SOL    HW216356   3.050   2.117   3.256
 5224SOL     OW16357   1.870   3.188   2.062
 5224SOL    HW116358   1.777   3.209   2.031
 5224SOL    HW216359   1.880   3.089   2.075
 5225SOL     OW16360   1.950   3.663   2.789
 5225SOL    HW116361   1.908   3.577   2.762
 5225SOL    HW216362   2.044   3.666   2.755
 5226SOL     OW16363   2.366   3.430   2.772
 5226SOL    HW116364   2.432   3.504   2.781
 5226SOL    HW216365   2.410   3.351   2.730
 5227SOL     OW16366   2.864   2.658   3.100
 5227SOL    HW116367   2.905   2.626   3.186
 5227SOL    HW216368   2.768   2.631   3.097
 5228SOL     OW16369   1.902   2.406   2.976
 5228SOL    HW116370   1.987   2.373   2.935
 5228SOL    HW216371   1.915   2.421   3.074
 5229SOL     OW16372   2.051   2.382   3.584
 5229SOL    HW116373   2.110   2.342   3.514
 5229SOL    HW216374   1.993   2.453   3.543
 5230SOL     OW16375   3.231   2.812   3.522
 5230SOL    HW116376   3.270   2.901   3.542
 5230SOL    HW216377   3.241   2.792   3.425
 5231SOL     OW16378   2.677   2.434   2.187
 5231SOL    HW116379   2.684   2.345   2.141
 5231SOL    HW216380   2.583   2.468   2.179
 5232SOL     OW16381   3.519   2.466   3.068
 5232SOL    HW116382   3.481   2.397   3.130
 5232SOL    HW216383   3.601   2.430   3.024
 5233SOL     OW16384   2.114   3.426   3.606
 5233SOL    HW116385   2.084   3.483   3.682
 5233SOL    HW216386   2.107   3.329   3.632
 5234SOL     OW16387   2.533   2.326   3.131
 5234SOL    HW116388   2.499   2.237   3.101
 5234SOL    HW216389   2.559   2.380   3.051
 5235SOL     OW16390   2.792   3.540   3.327
 5235SOL    HW116391   2.768   3.522   3.232
 5235SOL    HW216392   2.822   3.634   3.337
 5236SOL     OW16393   2.335   2.362   2.053
 5236SOL    HW116394   2.396   2.442   2.057
 5236SOL    HW216395   2.240   2.393   2.060
 5237SOL     OW16396   2.021   2.999   3.328
 5237SOL    HW116397   2.043   2.938   3.404
 5237SOL    HW216398   2.031   2.950   3.242
 5238SOL     OW16399   3.209   2.921   3.096
 5238SOL    HW116400   3.233   2.858   3.022
 5238SOL    HW216401   3.119   2.961   3.078
 5239SOL     OW16402   3.164   2.717   2.171
 5239SOL    HW116403   3.078   2.686   2.213
 5239SOL    HW216404   3.160   2.703   2.072
 5240SOL     OW16405   3.621   3.609   3.016
 5240SOL    HW116406   3.682   3.639   2.943
 5240SOL    HW216407   3.583   3.520   2.994
 5241SOL     OW16408   3.114   3.593   2.990
 5241SOL    HW116409   3.198   3.598   2.936
 5241SOL    HW216410   3.091   3.497   3.008
 5242SOL     OW16411   1.945   3.120   2.884
 5242SOL    HW116412   1.940   3.119   2.984
 5242SOL    HW216413   1.862   3.079   2.846
 5243SOL     OW16414   2.550   3.524   3.578
 5243SOL    HW116415   2.494   3.605   3.587
 5243SOL    HW216416   2.602   3.528   3.492
 5244SOL     OW16417   3.588   1.997   2.385
 5244SOL    HW116418   3.661   1.980   2.318
 5244SOL    HW216419   3.557   1.910   2.423
 5245SOL     OW16420   3.250   3.435   2.339
 5245SOL    HW116421   3.317   3.447   2.265
 5245SOL    HW216422   3.210   3.524   2.362
 5246SOL     OW16423   1.992   3.656   3.713
 5246SOL    HW116424   1.951   3.582   3.766
 5246SOL    HW216425   2.056   3.707   3.771
 5247SOL     OW16426   3.142   2.789   2.534
 5247SOL    HW116427   3.202   2.708   2.536
 5247SOL    HW216428   3.182   2.858   2.474
 5248SOL     OW16429   2.692   3.135   3.284
 5248SOL    HW116430   2.687   3.168   3.379
 5248SOL    HW216431   2.606   3.154   3.238
 5249SOL     OW16432   2.534   3.478   2.016
 5249SOL    HW116433   2.543   3.488   1.917
 5249SOL    HW216434   2.494   3.389   2.037
 5250SOL     OW16435   3.512   3.582   3.256
 5250SOL    HW116436   3.565   3.592   3.172
 5250SOL    HW216437   3.485   3.672   3.290
 5251SOL     OW16438   3.703   2.037   2.825
 5251SOL    HW116439   3.742   1.952   2.789
 5251SOL    HW216440   3.605   2.039   2.806
 5252SOL     OW16441   3.056   3.474   1.893
 5252SOL    HW116442   3.062   3.381   1.930
 5252SOL    HW216443   2.997   3.474   1.813
 5253SOL     OW16444   2.684   2.864   3.234
 5253SOL    HW116445   2.724   2.863   3.142
 5253SOL    HW216446   2.694   2.956   3.274
 5254SOL     OW16447   2.778   2.772   2.153
 5254SOL    HW116448   2.841   2.810   2.085
 5254SOL    HW216449   2.818   2.689   2.192
 5255SOL     OW16450   3.366   3.469   1.906
 5255SOL    HW116451   3.274   3.506   1.913
 5255SOL    HW216452   3.404   3.489   1.816
 5256SOL     OW16453   2.234   3.150   3.352
 5256SOL    HW116454   2.221   3.243   3.318
 5256SOL    HW216455   2.150   3.098   3.339
 5257SOL     OW16456   3.476   3.154   3.151
 5257SOL    HW116457   3.536   3.157   3.231
 5257SOL    HW216458   3.401   3.218   3.164
 5258SOL     OW16459   2.901   2.960   2.558
 5258SOL    HW116460   2.831   2.913   2.612
 5258SOL    HW216461   2.960   2.892   2.515
 5259SOL     OW16462   2.876   2.098   2.833
 5259SOL    HW116463   2.868   2.062   2.740
 5259SOL    HW216464   2.874   2.022   2.898
 5260SOL     OW16465   2.452   3.349   2.353
 5260SOL    HW116466   2.494   3.291   2.283
 5260SOL    HW216467   2.408   3.428   2.309
 5261SOL     OW16468   3.571   2.247   3.243
 5261SOL    HW116469   3.644   2.316   3.247
 5261SOL    HW216470   3.599   2.172   3.184
 5262SOL     OW16471   2.117   3.210   2.152
 5262SOL    HW116472   2.021   3.211   2.125
 5262SOL    HW216473   2.129   3.263   2.236
 5263SOL     OW16474   1.967   2.875   3.588
 5263SOL    HW116475   1.890   2.842   3.642
 5263SOL    HW216476   2.052   2.845   3.630
 5264SOL     OW16477   2.534   2.065   3.351
 5264SOL    HW116478   2.624   2.049   3.311
 5264SOL    HW216479   2.542   2.070   3.450
 5265SOL     OW16480   1.937   2.207   1.895
 5265SOL    HW116481   1.845   2.179   1.866
 5265SOL    HW216482   1.968   2.284   1.839
 5266SOL     OW16483   3.302   2.718   3.260
 5266SOL    HW116484   3.245   2.770   3.197
 5266SOL    HW216485   3.398   2.730   3.236
 5267SOL     OW16486   3.045   3.197   1.981
 5267SOL    HW116487   2.946   3.186   1.983
 5267SOL    HW216488   3.079   3.212   2.074
 5268SOL     OW16489   2.475   2.704   3.293
 5268SOL    HW116490   2.531   2.785   3.276
 5268SOL    HW216491   2.534   2.624   3.296
 5269SOL     OW16492   3.355   3.629   2.821
 5269SOL    HW116493   3.388   3.693   2.752
 5269SOL    HW216494   3.421   3.623   2.896
 5270SOL     OW16495   2.578   2.427   3.570
 5270SOL    HW116496   2.597   2.492   3.644
 5270SOL    HW216497   2.638   2.347   3.579
 5271SOL     OW16498   3.312   3.082   3.495
 5271SOL    HW116499   3.303   3.072   3.594
 5271SOL    HW216500   3.408   3.075   3.469
 5272SOL     OW16501   2.252   3.603   3.422
 5272SOL    HW116502   2.161   3.644   3.420
 5272SOL    HW216503   2.245   3.509   3.454
 5273SOL     OW16504   3.536   2.745   3.116
 5273SOL    HW116505   3.509   2.656   3.079
 5273SOL    HW216506   3.537   2.813   3.043
 5274SOL     OW16507   3.087   2.187   2.311
 5274SOL    HW116508   3.152   2.113   2.300
 5274SOL    HW216509   3.107   2.237   2.395
 5275SOL     OW16510   2.456   2.607   2.514
 5275SOL    HW116511   2.506   2.692   2.495
 5275SOL    HW216512   2.368   2.609   2.466
 5276SOL     OW16513   3.639   2.204   3.504
 5276SOL    HW116514   3.622   2.235   3.410
 5276SOL    HW216515   3.555   2.167   3.542
 5277SOL     OW16516   3.592   2.796   3.379
 5277SOL    HW116517   3.630   2.887   3.394
 5277SOL    HW216518   3.584   2.779   3.280
 5278SOL     OW16519   2.721   3.236   1.878
 5278SOL    HW116520   2.675   3.251   1.966
 5278SOL    HW216521   2.765   3.321   1.848
 5279SOL     OW16522   2.523   3.652   2.815
 5279SOL    HW116523   2.477   3.740   2.802
 5279SOL    HW216524   2.622   3.664   2.808
 5280SOL     OW16525   2.721   2.818   2.723
 5280SOL    HW116526   2.775   2.749   2.771
 5280SOL    HW216527   2.689   2.887   2.789
 5281SOL     OW16528   2.945   2.846   1.949
 5281SOL    HW116529   2.922   2.899   1.867
 5281SOL    HW216530   3.026   2.790   1.930
 5282SOL     OW16531   3.723   3.431   2.713
 5282SOL    HW116532   3.652   3.419   2.643
 5282SOL    HW216533   3.724   3.352   2.773
 5283SOL     OW16534   2.083   3.176   3.706
 5283SOL    HW116535   2.018   3.103   3.685
 5283SOL    HW216536   2.087   3.190   3.804
 5284SOL     OW16537   1.941   3.102   2.515
 5284SOL    HW116538   1.940   3.055   2.603
 5284SOL    HW216539   2.023   3.074   2.464
 5285SOL     OW16540   2.534   3.253   3.486
 5285SOL    HW116541   2.456   3.203   3.524
 5285SOL    HW216542   2.531   3.348   3.517
 5286SOL     OW16543   3.686   2.054   3.089
 5286SOL    HW116544   3.682   1.964   3.133
 5286SOL    HW216545   3.689   2.043   2.990
 5287SOL     OW16546   2.290   2.286   2.382
 5287SOL    HW116547   2.320   2.214   2.320
 5287SOL    HW216548   2.251   2.246   2.465
 5288SOL     OW16549   3.567   3.349   2.966
 5288SOL    HW116550   3.474   3.324   2.939
 5288SOL    HW216551   3.593   3.299   3.048
 5289SOL     OW16552   2.179   2.409   3.142
 5289SOL    HW116553   2.217   2.350   3.214
 5289SOL    HW216554   2.219   2.383   3.054
 5290SOL     OW16555   2.674   3.448   2.549
 5290SOL    HW116556   2.706   3.458   2.455
 5290SOL    HW216557   2.595   3.386   2.551
 5291SOL     OW16558   3.286   2.076   2.974
 5291SOL    HW116559   3.338   2.011   3.029
 5291SOL    HW216560   3.237   2.139   3.035
 5292SOL     OW16561   2.863   1.896   3.016
 5292SOL    HW116562   2.800   1.824   2.985
 5292SOL    HW216563   2.956   1.860   3.016
 5293SOL     OW16564   2.632   3.192   2.163
 5293SOL    HW116565   2.586   3.105   2.180
 5293SOL    HW216566   2.723   3.189   2.204
 5294SOL     OW16567   2.480   3.429   3.146
 5294SOL    HW116568   2.475   3.511   3.203
 5294SOL    HW216569   2.569   3.426   3.101
 5295SOL     OW16570   3.214   1.914   2.030
 5295SOL    HW116571   3.249   1.873   1.946
 5295SOL    HW216572   3.124   1.876   2.050
 5296SOL     OW16573   3.162   2.315   2.553
 5296SOL    HW116574   3.103   2.395   2.557
 5296SOL    HW216575   3.177   2.280   2.646
 5297SOL     OW16576   3.455   2.083   2.744
 5297SOL    HW116577   3.371   2.082   2.798
 5297SOL    HW216578   3.457   2.166   2.688
 5298SOL     OW16579   1.901   2.939   2.162
 5298SOL    HW116580   2.000   2.928   2.153
 5298SOL    HW216581   1.861   2.853   2.194
 5299SOL     OW16582   2.737   3.508   2.199
 5299SOL    HW116583   2.660   3.473   2.145
 5299SOL    HW216584   2.705   3.579   2.261
 5300SOL     OW16585   2.092   2.490   3.837
 5300SOL    HW116586   1.999   2.488   3.874
 5300SOL    HW216587   2.093   2.451   3.745
 5301SOL     OW16588   1.881   2.230   4.371
 5301SOL    HW116589   1.799   2.273   4.410
 5301SOL    HW216590   1.853   2.157   4.308
 5302SOL     OW16591   2.431   3.137   4.889
 5302SOL    HW116592   2.338   3.130   4.852
 5302SOL    HW216593   2.442   3.226   4.933
 5303SOL     OW16594   3.417   3.373   4.427
 5303SOL    HW116595   3.360   3.357   4.508
 5303SOL    HW216596   3.358   3.383   4.347
 5304SOL     OW16597   2.997   2.565   4.441
 5304SOL    HW116598   3.054   2.643   4.416
 5304SOL    HW216599   2.937   2.591   4.517
 5305SOL     OW16600   3.617   2.469   3.955
 5305SOL    HW116601   3.605   2.456   3.856
 5305SOL    HW216602   3.587   2.388   4.004
 5306SOL     OW16603   2.630   3.006   4.747
 5306SOL    HW116604   2.552   3.023   4.807
 5306SOL    HW216605   2.664   3.093   4.711
 5307SOL     OW16606   2.712   2.660   5.547
 5307SOL    HW116607   2.708   2.736   5.612
 5307SOL    HW216608   2.734   2.696   5.456
 5308SOL     OW16609   2.547   2.874   4.389
 5308SOL    HW116610   2.616   2.858   4.459
 5308SOL    HW216611   2.474   2.931   4.427
 5309SOL     OW16612   2.548   3.023   5.527
 5309SOL    HW116613   2.608   3.102   5.541
 5309SOL    HW216614   2.462   3.054   5.486
 5310SOL     OW16615   2.197   3.297   4.785
 5310SOL    HW116616   2.119   3.266   4.732
 5310SOL    HW216617   2.255   3.355   4.728
 5311SOL     OW16618   3.322   3.367   5.063
 5311SOL    HW116619   3.346   3.461   5.089
 5311SOL    HW216620   3.306   3.313   5.145
 5312SOL     OW16621   2.300   2.254   5.223
 5312SOL    HW116622   2.382   2.198   5.232
 5312SOL    HW216623   2.219   2.196   5.227
 5313SOL     OW16624   3.465   2.309   4.461
 5313SOL    HW116625   3.391   2.355   4.411
 5313SOL    HW216626   3.516   2.377   4.514
 5314SOL     OW16627   2.093   3.575   4.207
 5314SOL    HW116628   2.127   3.652   4.261
 5314SOL    HW216629   2.137   3.575   4.117
 5315SOL     OW16630   2.989   3.203   5.414
 5315SOL    HW116631   3.036   3.203   5.502
 5315SOL    HW216632   2.941   3.116   5.403
 5316SOL     OW16633   2.092   3.296   4.262
 5316SOL    HW116634   2.066   3.392   4.262
 5316SOL    HW216635   2.021   3.242   4.307
 5317SOL     OW16636   2.102   2.953   4.610
 5317SOL    HW116637   2.116   2.869   4.662
 5317SOL    HW216638   2.047   3.017   4.665
 5318SOL     OW16639   2.482   3.648   5.163
 5318SOL    HW116640   2.390   3.631   5.198
 5318SOL    HW216641   2.510   3.740   5.189
 5319SOL     OW16642   2.468   2.826   3.847
 5319SOL    HW116643   2.475   2.910   3.793
 5319SOL    HW216644   2.514   2.839   3.935
 5320SOL     OW16645   3.456   1.976   5.204
 5320SOL    HW116646   3.438   2.043   5.132
 5320SOL    HW216647   3.453   2.022   5.293
 5321SOL     OW16648   1.984   2.505   4.287
 5321SOL    HW116649   1.939   2.417   4.304
 5321SOL    HW216650   1.983   2.559   4.371
 5322SOL     OW16651   3.704   3.629   4.083
 5322SOL    HW116652   3.758   3.600   4.163
 5322SOL    HW216653   3.734   3.719   4.054
 5323SOL     OW16654   1.889   3.458   3.841
 5323SOL    HW116655   1.870   3.362   3.862
 5323SOL    HW216656   1.856   3.516   3.916
 5324SOL     OW16657   3.551   2.784   4.336
 5324SOL    HW116658   3.646   2.755   4.344
 5324SOL    HW216659   3.543   2.849   4.261
 5325SOL     OW16660   3.503   2.970   4.156
 5325SOL    HW116661   3.589   2.972   4.104
 5325SOL    HW216662   3.517   3.017   4.244
 5326SOL     OW16663   1.975   2.599   5.321
 5326SOL    HW116664   2.063   2.586   5.366
 5326SOL    HW216665   1.962   2.696   5.299
 5327SOL     OW16666   2.475   3.227   4.450
 5327SOL    HW116667   2.426   3.140   4.459
 5327SOL    HW216668   2.452   3.270   4.363
 5328SOL     OW16669   3.155   3.090   5.147
 5328SOL    HW116670   3.192   3.017   5.089
 5328SOL    HW216671   3.207   3.095   5.232
 5329SOL     OW16672   2.671   1.866   4.226
 5329SOL    HW116673   2.711   1.957   4.217
 5329SOL    HW216674   2.571   1.874   4.232
 5330SOL     OW16675   2.059   2.838   4.988
 5330SOL    HW116676   2.148   2.793   4.974
 5330SOL    HW216677   1.986   2.773   4.969
 5331SOL     OW16678   3.387   2.861   3.914
 5331SOL    HW116679   3.324   2.785   3.927
 5331SOL    HW216680   3.435   2.879   4.000
 5332SOL     OW16681   3.049   3.654   5.340
 5332SOL    HW116682   3.073   3.714   5.264
 5332SOL    HW216683   3.056   3.559   5.310
 5333SOL     OW16684   3.328   3.279   4.677
 5333SOL    HW116685   3.269   3.285   4.757
 5333SOL    HW216686   3.313   3.191   4.631
 5334SOL     OW16687   3.529   3.576   4.296
 5334SOL    HW116688   3.488   3.553   4.208
 5334SOL    HW216689   3.511   3.502   4.361
 5335SOL     OW16690   2.460   2.591   3.994
 5335SOL    HW116691   2.484   2.660   3.926
 5335SOL    HW216692   2.382   2.624   4.048
 5336SOL     OW16693   3.143   2.207   4.668
 5336SOL    HW116694   3.057   2.157   4.655
 5336SOL    HW216695   3.205   2.153   4.724
 5337SOL     OW16696   3.438   3.524   4.031
 5337SOL    HW116697   3.527   3.570   4.034
 5337SOL    HW216698   3.417   3.500   3.936
 5338SOL     OW16699   2.669   2.467   5.189
 5338SOL    HW116700   2.622   2.464   5.278
 5338SOL    HW216701   2.618   2.412   5.123
 5339SOL     OW16702   3.256   2.331   5.398
 5339SOL    HW116703   3.236   2.374   5.486
 5339SOL    HW216704   3.334   2.269   5.407
 5340SOL     OW16705   2.835   2.752   5.296
 5340SOL    HW116706   2.881   2.668   5.267
 5340SOL    HW216707   2.779   2.786   5.221
 5341SOL     OW16708   2.853   2.272   4.966
 5341SOL    HW116709   2.776   2.306   5.020
 5341SOL    HW216710   2.819   2.221   4.887
 5342SOL     OW16711   2.903   2.563   4.153
 5342SOL    HW116712   2.929   2.559   4.249
 5342SOL    HW216713   2.818   2.512   4.139
 5343SOL     OW16714   1.938   2.673   4.513
 5343SOL    HW116715   2.037   2.661   4.522
 5343SOL    HW216716   1.914   2.768   4.534
 5344SOL     OW16717   1.992   3.683   5.295
 5344SOL    HW116718   1.982   3.668   5.394
 5344SOL    HW216719   1.906   3.719   5.259
 5345SOL     OW16720   2.727   2.210   3.919
 5345SOL    HW116721   2.786   2.273   3.870
 5345SOL    HW216722   2.746   2.116   3.890
 5346SOL     OW16723   3.581   2.447   5.555
 5346SOL    HW116724   3.555   2.536   5.519
 5346SOL    HW216725   3.579   2.379   5.482
 5347SOL     OW16726   3.224   3.006   4.269
 5347SOL    HW116727   3.307   2.977   4.221
 5347SOL    HW216728   3.175   3.073   4.213
 5348SOL     OW16729   2.412   2.058   4.609
 5348SOL    HW116730   2.407   2.053   4.709
 5348SOL    HW216731   2.414   2.154   4.580
 5349SOL     OW16732   2.870   3.318   4.201
 5349SOL    HW116733   2.824   3.390   4.149
 5349SOL    HW216734   2.866   3.338   4.299
 5350SOL     OW16735   2.213   3.663   4.577
 5350SOL    HW116736   2.263   3.577   4.583
 5350SOL    HW216737   2.278   3.740   4.574
 5351SOL     OW16738   3.657   2.928   4.597
 5351SOL    HW116739   3.595   2.913   4.521
 5351SOL    HW216740   3.605   2.939   4.682
 5352SOL     OW16741   3.089   3.412   5.230
 5352SOL    HW116742   3.095   3.335   5.294
 5352SOL    HW216743   3.037   3.386   5.150
 5353SOL     OW16744   2.183   2.805   3.966
 5353SOL    HW116745   2.265   2.844   3.924
 5353SOL    HW216746   2.156   2.723   3.917
 5354SOL     OW16747   3.320   2.597   4.452
 5354SOL    HW116748   3.315   2.532   4.527
 5354SOL    HW216749   3.400   2.656   4.465
 5355SOL     OW16750   2.323   3.128   5.451
 5355SOL    HW116751   2.273   3.129   5.365
 5355SOL    HW216752   2.260   3.110   5.527
 5356SOL     OW16753   2.973   3.638   3.961
 5356SOL    HW116754   2.913   3.576   4.011
 5356SOL    HW216755   3.004   3.594   3.876
 5357SOL     OW16756   3.494   3.239   3.805
 5357SOL    HW116757   3.462   3.333   3.795
 5357SOL    HW216758   3.418   3.176   3.793
 5358SOL     OW16759   2.326   3.605   4.047
 5358SOL    HW116760   2.359   3.644   4.133
 5358SOL    HW216761   2.402   3.598   3.982
 5359SOL     OW16762   3.262   1.969   4.150
 5359SOL    HW116763   3.238   1.932   4.060
 5359SOL    HW216764   3.361   1.985   4.154
 5360SOL     OW16765   2.111   3.647   4.965
 5360SOL    HW116766   2.168   3.582   5.015
 5360SOL    HW216767   2.095   3.614   4.872
 5361SOL     OW16768   2.802   3.560   4.628
 5361SOL    HW116769   2.882   3.503   4.649
 5361SOL    HW216770   2.753   3.520   4.551
 5362SOL     OW16771   2.244   2.562   4.204
 5362SOL    HW116772   2.289   2.472   4.201
 5362SOL    HW216773   2.150   2.551   4.237
 5363SOL     OW16774   3.409   2.084   5.453
 5363SOL    HW116775   3.404   2.121   5.545
 5363SOL    HW216776   3.337   2.015   5.441
 5364SOL     OW16777   2.476   1.984   3.841
 5364SOL    HW116778   2.574   1.962   3.848
 5364SOL    HW216779   2.445   1.967   3.748
 5365SOL     OW16780   2.643   2.126   5.473
 5365SOL    HW116781   2.710   2.065   5.516
 5365SOL    HW216782   2.570   2.145   5.538
 5366SOL     OW16783   2.750   3.376   4.919
 5366SOL    HW116784   2.727   3.351   4.825
 5366SOL    HW216785   2.811   3.307   4.958
 5367SOL     OW16786   3.213   2.452   5.157
 5367SOL    HW116787   3.241   2.409   5.242
 5367SOL    HW216788   3.238   2.548   5.158
 5368SOL     OW16789   2.665   3.264   4.648
 5368SOL    HW116790   2.755   3.278   4.606
 5368SOL    HW216791   2.594   3.266   4.577
 5369SOL     OW16792   2.784   2.365   4.623
 5369SOL    HW116793   2.759   2.356   4.527
 5369SOL    HW216794   2.832   2.283   4.654
 5370SOL     OW16795   2.401   1.926   4.236
 5370SOL    HW116796   2.320   1.927   4.294
 5370SOL    HW216797   2.404   2.009   4.181
 5371SOL     OW16798   3.296   3.050   3.765
 5371SOL    HW116799   3.328   2.974   3.822
 5371SOL    HW216800   3.204   3.077   3.795
 5372SOL     OW16801   2.797   2.098   4.204
 5372SOL    HW116802   2.749   2.139   4.126
 5372SOL    HW216803   2.896   2.096   4.185
 5373SOL     OW16804   2.938   2.545   5.188
 5373SOL    HW116805   2.858   2.484   5.191
 5373SOL    HW216806   3.019   2.492   5.164
 5374SOL     OW16807   3.089   3.432   4.517
 5374SOL    HW116808   3.110   3.506   4.452
 5374SOL    HW216809   3.157   3.432   4.590
 5375SOL     OW16810   2.321   3.014   4.465
 5375SOL    HW116811   2.250   2.987   4.530
 5375SOL    HW216812   2.295   2.986   4.372
 5376SOL     OW16813   3.133   3.659   4.315
 5376SOL    HW116814   3.177   3.723   4.251
 5376SOL    HW216815   3.083   3.711   4.385
 5377SOL     OW16816   2.894   2.411   3.740
 5377SOL    HW116817   2.853   2.493   3.701
 5377SOL    HW216818   2.958   2.437   3.813
 5378SOL     OW16819   1.940   2.418   5.110
 5378SOL    HW116820   2.032   2.417   5.069
 5378SOL    HW216821   1.934   2.492   5.177
 5379SOL     OW16822   2.423   2.084   4.871
 5379SOL    HW116823   2.461   2.000   4.908
 5379SOL    HW216824   2.335   2.103   4.915
 5380SOL     OW16825   2.728   2.316   4.366
 5380SOL    HW116826   2.696   2.388   4.304
 5380SOL    HW216827   2.752   2.235   4.313
 5381SOL     OW16828   2.879   1.901   4.477
 5381SOL    HW116829   2.807   1.906   4.408
 5381SOL    HW216830   2.855   1.832   4.546
 5382SOL     OW16831   3.291   3.035   4.591
 5382SOL    HW116832   3.236   2.951   4.584
 5382SOL    HW216833   3.317   3.064   4.499
 5383SOL     OW16834   3.328   2.452   4.716
 5383SOL    HW116835   3.298   2.357   4.723
 5383SOL    HW216836   3.401   2.468   4.782
 5384SOL     OW16837   3.719   2.695   4.101
 5384SOL    HW116838   3.761   2.631   4.165
 5384SOL    HW216839   3.681   2.644   4.023
 5385SOL     OW16840   2.350   3.247   3.898
 5385SOL    HW116841   2.263   3.232   3.945
 5385SOL    HW216842   2.333   3.273   3.803
 5386SOL     OW16843   3.526   3.142   4.381
 5386SOL    HW116844   3.625   3.150   4.395
 5386SOL    HW216845   3.481   3.226   4.412
 5387SOL     OW16846   3.252   2.437   3.802
 5387SOL    HW116847   3.198   2.416   3.883
 5387SOL    HW216848   3.343   2.396   3.811
 5388SOL     OW16849   2.389   2.118   4.052
 5388SOL    HW116850   2.416   2.059   3.977
 5388SOL    HW216851   2.389   2.213   4.021
 5389SOL     OW16852   3.616   3.085   5.312
 5389SOL    HW116853   3.707   3.046   5.299
 5389SOL    HW216854   3.624   3.181   5.336
 5390SOL     OW16855   2.926   3.209   5.064
 5390SOL    HW116856   2.846   3.186   5.119
 5390SOL    HW216857   3.009   3.183   5.113
 5391SOL     OW16858   3.454   3.491   5.349
 5391SOL    HW116859   3.481   3.525   5.259
 5391SOL    HW216860   3.533   3.453   5.395
 5392SOL     OW16861   2.973   3.057   4.824
 5392SOL    HW116862   2.933   3.101   4.905
 5392SOL    HW216863   2.932   3.094   4.741
 5393SOL     OW16864   3.500   2.961   4.803
 5393SOL    HW116865   3.505   3.042   4.862
 5393SOL    HW216866   3.414   2.963   4.752
 5394SOL     OW16867   2.777   1.951   5.126
 5394SOL    HW116868   2.802   1.931   5.031
 5394SOL    HW216869   2.849   2.007   5.168
 5395SOL     OW16870   2.842   2.978   5.443
 5395SOL    HW116871   2.743   2.984   5.453
 5395SOL    HW216872   2.865   2.898   5.387
 5396SOL     OW16873   2.567   2.912   4.092
 5396SOL    HW116874   2.553   2.919   4.191
 5396SOL    HW216875   2.651   2.861   4.074
 5397SOL     OW16876   2.272   2.675   4.975
 5397SOL    HW116877   2.358   2.687   5.025
 5397SOL    HW216878   2.230   2.588   5.002
 5398SOL     OW16879   3.136   2.248   4.986
 5398SOL    HW116880   3.157   2.322   5.050
 5398SOL    HW216881   3.047   2.265   4.943
 5399SOL     OW16882   1.926   3.426   5.055
 5399SOL    HW116883   1.880   3.508   5.021
 5399SOL    HW216884   2.024   3.445   5.064
 5400SOL     OW16885   2.229   2.962   4.225
 5400SOL    HW116886   2.222   3.045   4.169
 5400SOL    HW216887   2.233   2.882   4.165
 5401SOL     OW16888   2.428   2.399   4.589
 5401SOL    HW116889   2.440   2.465   4.515
 5401SOL    HW216890   2.474   2.433   4.672
 5402SOL     OW16891   3.114   3.210   4.112
 5402SOL    HW116892   3.164   3.287   4.152
 5402SOL    HW216893   3.019   3.212   4.144
 5403SOL     OW16894   3.134   3.307   4.866
 5403SOL    HW116895   3.181   3.320   4.953
 5403SOL    HW216896   3.068   3.233   4.875
 5404SOL     OW16897   3.444   2.501   4.196
 5404SOL    HW116898   3.413   2.562   4.269
 5404SOL    HW216899   3.494   2.553   4.127
 5405SOL     OW16900   2.216   3.372   5.053
 5405SOL    HW116901   2.195   3.328   4.966
 5405SOL    HW216902   2.313   3.398   5.056
 5406SOL     OW16903   2.264   2.613   5.322
 5406SOL    HW116904   2.332   2.668   5.275
 5406SOL    HW216905   2.304   2.525   5.349
 5407SOL     OW16906   3.449   2.641   5.394
 5407SOL    HW116907   3.357   2.679   5.389
 5407SOL    HW216908   3.509   2.688   5.329
 5408SOL     OW16909   2.875   1.967   5.494
 5408SOL    HW116910   2.881   2.052   5.442
 5408SOL    HW216911   2.907   1.891   5.437
 5409SOL     OW16912   2.366   1.912   5.464
 5409SOL    HW116913   2.324   1.855   5.394
 5409SOL    HW216914   2.300   1.981   5.496
 5410SOL     OW16915   2.435   2.732   4.753
 5410SOL    HW116916   2.479   2.821   4.744
 5410SOL    HW216917   2.372   2.732   4.830
 5411SOL     OW16918   3.222   2.724   4.769
 5411SOL    HW116919   3.147   2.724   4.703
 5411SOL    HW216920   3.259   2.632   4.778
 5412SOL     OW16921   3.071   2.387   3.999
 5412SOL    HW116922   3.084   2.303   4.053
 5412SOL    HW216923   3.042   2.461   4.059
 5413SOL     OW16924   1.899   3.172   5.006
 5413SOL    HW116925   1.952   3.123   5.074
 5413SOL    HW216926   1.921   3.270   5.011
 5414SOL     OW16927   2.594   2.496   4.788
 5414SOL    HW116928   2.653   2.470   4.712
 5414SOL    HW216929   2.566   2.592   4.777
 5415SOL     OW16930   3.590   2.797   5.578
 5415SOL    HW116931   3.544   2.790   5.489
 5415SOL    HW216932   3.528   2.841   5.644
 5416SOL     OW16933   2.169   1.925   4.342
 5416SOL    HW116934   2.158   2.019   4.375
 5416SOL    HW216935   2.164   1.862   4.419
 5417SOL     OW16936   3.484   2.229   4.098
 5417SOL    HW116937   3.486   2.153   4.162
 5417SOL    HW216938   3.436   2.306   4.138
 5418SOL     OW16939   2.885   2.628   4.690
 5418SOL    HW116940   2.900   2.649   4.786
 5418SOL    HW216941   2.855   2.533   4.681
 5419SOL     OW16942   2.842   3.435   5.424
 5419SOL    HW116943   2.822   3.479   5.336
 5419SOL    HW216944   2.881   3.344   5.408
 5420SOL     OW16945   3.721   3.380   5.329
 5420SOL    HW116946   3.735   3.407   5.234
 5420SOL    HW216947   3.804   3.402   5.382
 5421SOL     OW16948   2.212   2.760   5.528
 5421SOL    HW116949   2.288   2.804   5.576
 5421SOL    HW216950   2.247   2.713   5.446
 5422SOL     OW16951   3.402   2.136   3.849
 5422SOL    HW116952   3.341   2.061   3.872
 5422SOL    HW216953   3.424   2.188   3.932
 5423SOL     OW16954   3.165   2.700   3.766
 5423SOL    HW116955   3.199   2.607   3.781
 5423SOL    HW216956   3.183   2.727   3.671
 5424SOL     OW16957   2.930   3.195   4.573
 5424SOL    HW116958   2.937   3.111   4.518
 5424SOL    HW216959   2.992   3.264   4.537
 5425SOL     OW16960   2.181   2.672   4.673
 5425SOL    HW116961   2.274   2.708   4.678
 5425SOL    HW216962   2.175   2.587   4.725
 5426SOL     OW16963   2.201   2.371   4.730
 5426SOL    HW116964   2.149   2.288   4.713
 5426SOL    HW216965   2.278   2.376   4.666
 5427SOL     OW16966   3.000   2.242   5.402
 5427SOL    HW116967   2.955   2.305   5.466
 5427SOL    HW216968   3.093   2.273   5.385
 5428SOL     OW16969   3.022   2.069   5.201
 5428SOL    HW116970   3.022   2.133   5.278
 5428SOL    HW216971   3.050   2.117   5.118
 5429SOL     OW16972   1.870   3.188   3.924
 5429SOL    HW116973   1.777   3.209   3.893
 5429SOL    HW216974   1.880   3.089   3.937
 5430SOL     OW16975   1.950   3.663   4.651
 5430SOL    HW116976   1.908   3.577   4.624
 5430SOL    HW216977   2.044   3.666   4.617
 5431SOL     OW16978   2.366   3.430   4.634
 5431SOL    HW116979   2.432   3.504   4.643
 5431SOL    HW216980   2.410   3.351   4.592
 5432SOL     OW16981   2.864   2.658   4.962
 5432SOL    HW116982   2.905   2.626   5.048
 5432SOL    HW216983   2.768   2.631   4.959
 5433SOL     OW16984   1.902   2.406   4.838
 5433SOL    HW116985   1.987   2.373   4.797
 5433SOL    HW216986   1.915   2.421   4.936
 5434SOL     OW16987   2.051   2.382   5.446
 5434SOL    HW116988   2.110   2.342   5.376
 5434SOL    HW216989   1.993   2.453   5.405
 5435SOL     OW16990   3.231   2.812   5.384
 5435SOL    HW116991   3.270   2.901   5.404
 5435SOL    HW216992   3.241   2.792   5.287
 5436SOL     OW16993   2.677   2.434   4.049
 5436SOL    HW116994   2.684   2.345   4.003
 5436SOL    HW216995   2.583   2.468   4.041
 5437SOL     OW16996   3.519   2.466   4.930
 5437SOL    HW116997   3.481   2.397   4.992
 5437SOL    HW216998   3.601   2.430   4.886
 5438SOL     OW16999   2.114   3.426   5.468
 5438SOL    HW117000   2.084   3.483   5.544
 5438SOL    HW217001   2.107   3.329   5.494
 5439SOL     OW17002   2.533   2.326   4.993
 5439SOL    HW117003   2.499   2.237   4.963
 5439SOL    HW217004   2.559   2.380   4.913
 5440SOL     OW17005   2.792   3.540   5.189
 5440SOL    HW117006   2.768   3.522   5.094
 5440SOL    HW217007   2.822   3.634   5.199
 5441SOL     OW17008   2.335   2.362   3.915
 5441SOL    HW117009   2.396   2.442   3.919
 5441SOL    HW217010   2.240   2.393   3.922
 5442SOL     OW17011   2.021   2.999   5.190
 5442SOL    HW117012   2.043   2.938   5.266
 5442SOL    HW217013   2.031   2.950   5.104
 5443SOL     OW17014   3.209   2.921   4.958
 5443SOL    HW117015   3.233   2.858   4.884
 5443SOL    HW217016   3.119   2.961   4.940
 5444SOL     OW17017   3.164   2.717   4.033
 5444SOL    HW117018   3.078   2.686   4.075
 5444SOL    HW217019   3.160   2.703   3.934
 5445SOL     OW17020   3.621   3.609   4.878
 5445SOL    HW117021   3.682   3.639   4.805
 5445SOL    HW217022   3.583   3.520   4.856
 5446SOL     OW17023   3.114   3.593   4.852
 5446SOL    HW117024   3.198   3.598   4.798
 5446SOL    HW217025   3.091   3.497   4.870
 5447SOL     OW17026   1.945   3.120   4.746
 5447SOL    HW117027   1.940   3.119   4.846
 5447SOL    HW217028   1.862   3.079   4.708
 5448SOL     OW17029   2.550   3.524   5.440
 5448SOL    HW117030   2.494   3.605   5.449
 5448SOL    HW217031   2.602   3.528   5.354
 5449SOL     OW17032   3.588   1.997   4.247
 5449SOL    HW117033   3.661   1.980   4.180
 5449SOL    HW217034   3.557   1.910   4.285
 5450SOL     OW17035   3.250   3.435   4.201
 5450SOL    HW117036   3.317   3.447   4.127
 5450SOL    HW217037   3.210   3.524   4.224
 5451SOL     OW17038   1.992   3.656   5.575
 5451SOL    HW117039   1.951   3.582   5.628
 5451SOL    HW217040   2.056   3.707   5.633
 5452SOL     OW17041   3.142   2.789   4.396
 5452SOL    HW117042   3.202   2.708   4.398
 5452SOL    HW217043   3.182   2.858   4.336
 5453SOL     OW17044   2.692   3.135   5.146
 5453SOL    HW117045   2.687   3.168   5.241
 5453SOL    HW217046   2.606   3.154   5.100
 5454SOL     OW17047   2.534   3.478   3.878
 5454SOL    HW117048   2.543   3.488   3.779
 5454SOL    HW217049   2.494   3.389   3.899
 5455SOL     OW17050   3.512   3.582   5.118
 5455SOL    HW117051   3.565   3.592   5.034
 5455SOL    HW217052   3.485   3.672   5.152
 5456SOL     OW17053   3.703   2.037   4.687
 5456SOL    HW117054   3.742   1.952   4.651
 5456SOL    HW217055   3.605   2.039   4.668
 5457SOL     OW17056   3.056   3.474   3.755
 5457SOL    HW117057   3.062   3.381   3.792
 5457SOL    HW217058   2.997   3.474   3.675
 5458SOL     OW17059   2.684   2.864   5.096
 5458SOL    HW117060   2.724   2.863   5.004
 5458SOL    HW217061   2.694   2.956   5.136
 5459SOL     OW17062   2.778   2.772   4.015
 5459SOL    HW117063   2.841   2.810   3.947
 5459SOL    HW217064   2.818   2.689   4.054
 5460SOL     OW17065   3.366   3.469   3.768
 5460SOL    HW117066   3.274   3.506   3.775
 5460SOL    HW217067   3.404   3.489   3.678
 5461SOL     OW17068   2.234   3.150   5.214
 5461SOL    HW117069   2.221   3.243   5.180
 5461SOL    HW217070   2.150   3.098   5.201
 5462SOL     OW17071   3.476   3.154   5.013
 5462SOL    HW117072   3.536   3.157   5.093
 5462SOL    HW217073   3.401   3.218   5.026
 5463SOL     OW17074   2.901   2.960   4.420
 5463SOL    HW117075   2.831   2.913   4.474
 5463SOL    HW217076   2.960   2.892   4.377
 5464SOL     OW17077   2.876   2.098   4.695
 5464SOL    HW117078   2.868   2.062   4.602
 5464SOL    HW217079   2.874   2.022   4.760
 5465SOL     OW17080   2.452   3.349   4.215
 5465SOL    HW117081   2.494   3.291   4.145
 5465SOL    HW217082   2.408   3.428   4.171
 5466SOL     OW17083   3.571   2.247   5.105
 5466SOL    HW117084   3.644   2.316   5.109
 5466SOL    HW217085   3.599   2.172   5.046
 5467SOL     OW17086   2.117   3.210   4.014
 5467SOL    HW117087   2.021   3.211   3.987
 5467SOL    HW217088   2.129   3.263   4.098
 5468SOL     OW17089   1.967   2.875   5.450
 5468SOL    HW117090   1.890   2.842   5.504
 5468SOL    HW217091   2.052   2.845   5.492
 5469SOL     OW17092   2.534   2.065   5.213
 5469SOL    HW117093   2.624   2.049   5.173
 5469SOL    HW217094   2.542   2.070   5.312
 5470SOL     OW17095   1.937   2.207   3.757
 5470SOL    HW117096   1.845   2.179   3.728
 5470SOL    HW217097   1.968   2.284   3.701
 5471SOL     OW17098   3.302   2.718   5.122
 5471SOL    HW117099   3.245   2.770   5.059
 5471SOL    HW217100   3.398   2.730   5.098
 5472SOL     OW17101   3.045   3.197   3.843
 5472SOL    HW117102   2.946   3.186   3.845
 5472SOL    HW217103   3.079   3.212   3.936
 5473SOL     OW17104   2.475   2.704   5.155
 5473SOL    HW117105   2.531   2.785   5.138
 5473SOL    HW217106   2.534   2.624   5.158
 5474SOL     OW17107   3.355   3.629   4.683
 5474SOL    HW117108   3.388   3.693   4.614
 5474SOL    HW217109   3.421   3.623   4.758
 5475SOL     OW17110   2.578   2.427   5.432
 5475SOL    HW117111   2.597   2.492   5.506
 5475SOL    HW217112   2.638   2.347   5.441
 5476SOL     OW17113   3.312   3.082   5.357
 5476SOL    HW117114   3.303   3.072   5.456
 5476SOL    HW217115   3.408   3.075   5.331
 5477SOL     OW17116   2.252   3.603   5.284
 5477SOL    HW117117   2.161   3.644   5.282
 5477SOL    HW217118   2.245   3.509   5.316
 5478SOL     OW17119   3.536   2.745   4.978
 5478SOL    HW117120   3.509   2.656   4.941
 5478SOL    HW217121   3.537   2.813   4.905
 5479SOL     OW17122   3.087   2.187   4.173
 5479SOL    HW117123   3.152   2.113   4.162
 5479SOL    HW217124   3.107   2.237   4.257
 5480SOL     OW17125   2.456   2.607   4.376
 5480SOL    HW117126   2.506   2.692   4.357
 5480SOL    HW217127   2.368   2.609   4.328
 5481SOL     OW17128   3.639   2.204   5.366
 5481SOL    HW117129   3.622   2.235   5.272
 5481SOL    HW217130   3.555   2.167   5.404
 5482SOL     OW17131   3.592   2.796   5.241
 5482SOL    HW117132   3.630   2.887   5.256
 5482SOL    HW217133   3.584   2.779   5.142
 5483SOL     OW17134   2.721   3.236   3.740
 5483SOL    HW117135   2.675   3.251   3.828
 5483SOL    HW217136   2.765   3.321   3.710
 5484SOL     OW17137   2.523   3.652   4.677
 5484SOL    HW117138   2.477   3.740   4.664
 5484SOL    HW217139   2.622   3.664   4.670
 5485SOL     OW17140   2.721   2.818   4.585
 5485SOL    HW117141   2.775   2.749   4.633
 5485SOL    HW217142   2.689   2.887   4.651
 5486SOL     OW17143   2.945   2.846   3.811
 5486SOL    HW117144   2.922   2.899   3.729
 5486SOL    HW217145   3.026   2.790   3.792
 5487SOL     OW17146   3.723   3.431   4.575
 5487SOL    HW117147   3.652   3.419   4.505
 5487SOL    HW217148   3.724   3.352   4.635
 5488SOL     OW17149   2.083   3.176   5.568
 5488SOL    HW117150   2.018   3.103   5.547
 5488SOL    HW217151   2.087   3.190   5.666
 5489SOL     OW17152   1.941   3.102   4.377
 5489SOL    HW117153   1.940   3.055   4.465
 5489SOL    HW217154   2.023   3.074   4.326
 5490SOL     OW17155   2.534   3.253   5.348
 5490SOL    HW117156   2.456   3.203   5.386
 5490SOL    HW217157   2.531   3.348   5.379
 5491SOL     OW17158   3.686   2.054   4.951
 5491SOL    HW117159   3.682   1.964   4.995
 5491SOL    HW217160   3.689   2.043   4.852
 5492SOL     OW17161   2.290   2.286   4.244
 5492SOL    HW117162   2.320   2.214   4.182
 5492SOL    HW217163   2.251   2.246   4.327
 5493SOL     OW17164   3.567   3.349   4.828
 5493SOL    HW117165   3.474   3.324   4.801
 5493SOL    HW217166   3.593   3.299   4.910
 5494SOL     OW17167   2.179   2.409   5.004
 5494SOL    HW117168   2.217   2.350   5.076
 5494SOL    HW217169   2.219   2.383   4.916
 5495SOL     OW17170   2.674   3.448   4.411
 5495SOL    HW117171   2.706   3.458   4.317
 5495SOL    HW217172   2.595   3.386   4.413
 5496SOL     OW17173   3.286   2.076   4.836
 5496SOL    HW117174   3.338   2.011   4.891
 5496SOL    HW217175   3.237   2.139   4.897
 5497SOL     OW17176   2.863   1.896   4.878
 5497SOL    HW117177   2.800   1.824   4.847
 5497SOL    HW217178   2.956   1.860   4.878
 5498SOL     OW17179   2.632   3.192   4.025
 5498SOL    HW117180   2.586   3.105   4.042
 5498SOL    HW217181   2.723   3.189   4.066
 5499SOL     OW17182   2.480   3.429   5.008
 5499SOL    HW117183   2.475   3.511   5.065
 5499SOL    HW217184   2.569   3.426   4.963
 5500SOL     OW17185   3.214   1.914   3.892
 5500SOL    HW117186   3.249   1.873   3.808
 5500SOL    HW217187   3.124   1.876   3.912
 5501SOL     OW17188   3.162   2.315   4.415
 5501SOL    HW117189   3.103   2.395   4.419
 5501SOL    HW217190   3.177   2.280   4.508
 5502SOL     OW17191   3.455   2.083   4.606
 5502SOL    HW117192   3.371   2.082   4.660
 5502SOL    HW217193   3.457   2.166   4.550
 5503SOL     OW17194   1.901   2.939   4.024
 5503SOL    HW117195   2.000   2.928   4.015
 5503SOL    HW217196   1.861   2.853   4.056
 5504SOL     OW17197   2.737   3.508   4.061
 5504SOL    HW117198   2.660   3.473   4.007
 5504SOL    HW217199   2.705   3.579   4.123
 5505SOL     OW17200   2.092   2.490   5.699
 5505SOL    HW117201   1.999   2.488   5.736
 5505SOL    HW217202   2.093   2.451   5.607
 5506SOL     OW17203   1.881   2.230   6.233
 5506SOL    HW117204   1.799   2.273   6.272
 5506SOL    HW217205   1.853   2.157   6.170
 5507SOL     OW17206   2.431   3.137   6.751
 5507SOL    HW117207   2.338   3.130   6.714
 5507SOL    HW217208   2.442   3.226   6.795
 5508SOL     OW17209   3.417   3.373   6.289
 5508SOL    HW117210   3.360   3.357   6.370
 5508SOL    HW217211   3.358   3.383   6.209
 5509SOL     OW17212   2.997   2.565   6.303
 5509SOL    HW117213   3.054   2.643   6.278
 5509SOL    HW217214   2.937   2.591   6.379
 5510SOL     OW17215   3.617   2.469   5.817
 5510SOL    HW117216   3.605   2.456   5.718
 5510SOL    HW217217   3.587   2.388   5.866
 5511SOL     OW17218   2.630   3.006   6.609
 5511SOL    HW117219   2.552   3.023   6.669
 5511SOL    HW217220   2.664   3.093   6.573
 5512SOL     OW17221   2.547   2.874   6.251
 5512SOL    HW117222   2.616   2.858   6.321
 5512SOL    HW217223   2.474   2.931   6.289
 5513SOL     OW17224   2.548   3.023   7.389
 5513SOL    HW117225   2.608   3.102   7.403
 5513SOL    HW217226   2.462   3.054   7.348
 5514SOL     OW17227   2.197   3.297   6.647
 5514SOL    HW117228   2.119   3.266   6.594
 5514SOL    HW217229   2.255   3.355   6.590
 5515SOL     OW17230   3.322   3.367   6.925
 5515SOL    HW117231   3.346   3.461   6.951
 5515SOL    HW217232   3.306   3.313   7.007
 5516SOL     OW17233   3.465   2.309   6.323
 5516SOL    HW117234   3.391   2.355   6.273
 5516SOL    HW217235   3.516   2.377   6.376
 5517SOL     OW17236   2.093   3.575   6.069
 5517SOL    HW117237   2.127   3.652   6.123
 5517SOL    HW217238   2.137   3.575   5.979
 5518SOL     OW17239   2.989   3.203   7.276
 5518SOL    HW117240   3.036   3.203   7.364
 5518SOL    HW217241   2.941   3.116   7.265
 5519SOL     OW17242   2.092   3.296   6.124
 5519SOL    HW117243   2.066   3.392   6.124
 5519SOL    HW217244   2.021   3.242   6.169
 5520SOL     OW17245   2.102   2.953   6.472
 5520SOL    HW117246   2.116   2.869   6.524
 5520SOL    HW217247   2.047   3.017   6.527
 5521SOL     OW17248   2.482   3.648   7.025
 5521SOL    HW117249   2.390   3.631   7.060
 5521SOL    HW217250   2.510   3.740   7.051
 5522SOL     OW17251   2.468   2.826   5.709
 5522SOL    HW117252   2.475   2.910   5.655
 5522SOL    HW217253   2.514   2.839   5.797
 5523SOL     OW17254   3.456   1.976   7.066
 5523SOL    HW117255   3.438   2.043   6.994
 5523SOL    HW217256   3.453   2.022   7.155
 5524SOL     OW17257   3.704   3.629   5.945
 5524SOL    HW117258   3.758   3.600   6.025
 5524SOL    HW217259   3.734   3.719   5.916
 5525SOL     OW17260   1.889   3.458   5.703
 5525SOL    HW117261   1.870   3.362   5.724
 5525SOL    HW217262   1.856   3.516   5.778
 5526SOL     OW17263   3.551   2.784   6.198
 5526SOL    HW117264   3.646   2.755   6.206
 5526SOL    HW217265   3.543   2.849   6.123
 5527SOL     OW17266   3.503   2.970   6.018
 5527SOL    HW117267   3.589   2.972   5.966
 5527SOL    HW217268   3.517   3.017   6.106
 5528SOL     OW17269   2.475   3.227   6.312
 5528SOL    HW117270   2.426   3.140   6.321
 5528SOL    HW217271   2.452   3.270   6.225
 5529SOL     OW17272   3.155   3.090   7.009
 5529SOL    HW117273   3.192   3.017   6.951
 5529SOL    HW217274   3.207   3.095   7.094
 5530SOL     OW17275   2.059   2.838   6.850
 5530SOL    HW117276   2.148   2.793   6.836
 5530SOL    HW217277   1.986   2.773   6.831
 5531SOL     OW17278   3.387   2.861   5.776
 5531SOL    HW117279   3.324   2.785   5.789
 5531SOL    HW217280   3.435   2.879   5.862
 5532SOL     OW17281   3.049   3.654   7.202
 5532SOL    HW117282   3.073   3.714   7.126
 5532SOL    HW217283   3.056   3.559   7.172
 5533SOL     OW17284   2.179   2.113   7.387
 5533SOL    HW117285   2.250   2.184   7.393
 5533SOL    HW217286   2.091   2.152   7.415
 5534SOL     OW17287   3.328   3.279   6.539
 5534SOL    HW117288   3.269   3.285   6.619
 5534SOL    HW217289   3.313   3.191   6.493
 5535SOL     OW17290   3.529   3.576   6.158
 5535SOL    HW117291   3.488   3.553   6.070
 5535SOL    HW217292   3.511   3.502   6.223
 5536SOL     OW17293   2.460   2.591   5.856
 5536SOL    HW117294   2.484   2.660   5.788
 5536SOL    HW217295   2.382   2.624   5.910
 5537SOL     OW17296   3.143   2.207   6.530
 5537SOL    HW117297   3.057   2.157   6.517
 5537SOL    HW217298   3.205   2.153   6.586
 5538SOL     OW17299   3.438   3.524   5.893
 5538SOL    HW117300   3.527   3.570   5.896
 5538SOL    HW217301   3.417   3.500   5.798
 5539SOL     OW17302   3.256   2.331   7.260
 5539SOL    HW117303   3.236   2.374   7.348
 5539SOL    HW217304   3.334   2.269   7.269
 5540SOL     OW17305   2.835   2.752   7.158
 5540SOL    HW117306   2.881   2.668   7.129
 5540SOL    HW217307   2.779   2.786   7.083
 5541SOL     OW17308   2.903   2.563   6.015
 5541SOL    HW117309   2.929   2.559   6.111
 5541SOL    HW217310   2.818   2.512   6.001
 5542SOL     OW17311   1.992   3.683   7.157
 5542SOL    HW117312   1.982   3.668   7.256
 5542SOL    HW217313   1.906   3.719   7.121
 5543SOL     OW17314   2.727   2.210   5.781
 5543SOL    HW117315   2.786   2.273   5.732
 5543SOL    HW217316   2.746   2.116   5.752
 5544SOL     OW17317   3.581   2.447   7.417
 5544SOL    HW117318   3.555   2.536   7.381
 5544SOL    HW217319   3.579   2.379   7.344
 5545SOL     OW17320   3.224   3.006   6.131
 5545SOL    HW117321   3.307   2.977   6.083
 5545SOL    HW217322   3.175   3.073   6.075
 5546SOL     OW17323   2.870   3.318   6.063
 5546SOL    HW117324   2.824   3.390   6.011
 5546SOL    HW217325   2.866   3.338   6.161
 5547SOL     OW17326   2.213   3.663   6.439
 5547SOL    HW117327   2.263   3.577   6.445
 5547SOL    HW217328   2.278   3.740   6.436
 5548SOL     OW17329   3.657   2.928   6.459
 5548SOL    HW117330   3.595   2.913   6.383
 5548SOL    HW217331   3.605   2.939   6.544
 5549SOL     OW17332   3.089   3.412   7.092
 5549SOL    HW117333   3.095   3.335   7.156
 5549SOL    HW217334   3.037   3.386   7.012
 5550SOL     OW17335   2.183   2.805   5.828
 5550SOL    HW117336   2.265   2.844   5.786
 5550SOL    HW217337   2.156   2.723   5.779
 5551SOL     OW17338   3.320   2.597   6.314
 5551SOL    HW117339   3.315   2.532   6.389
 5551SOL    HW217340   3.400   2.656   6.327
 5552SOL     OW17341   2.323   3.128   7.313
 5552SOL    HW117342   2.273   3.129   7.227
 5552SOL    HW217343   2.260   3.110   7.389
 5553SOL     OW17344   2.973   3.638   5.823
 5553SOL    HW117345   2.913   3.576   5.873
 5553SOL    HW217346   3.004   3.594   5.738
 5554SOL     OW17347   3.494   3.239   5.667
 5554SOL    HW117348   3.462   3.333   5.657
 5554SOL    HW217349   3.418   3.176   5.655
 5555SOL     OW17350   2.326   3.605   5.909
 5555SOL    HW117351   2.359   3.644   5.995
 5555SOL    HW217352   2.402   3.598   5.844
 5556SOL     OW17353   3.262   1.969   6.012
 5556SOL    HW117354   3.238   1.932   5.922
 5556SOL    HW217355   3.361   1.985   6.016
 5557SOL     OW17356   2.111   3.647   6.827
 5557SOL    HW117357   2.168   3.582   6.877
 5557SOL    HW217358   2.095   3.614   6.734
 5558SOL     OW17359   2.802   3.560   6.490
 5558SOL    HW117360   2.882   3.503   6.511
 5558SOL    HW217361   2.753   3.520   6.413
 5559SOL     OW17362   3.409   2.084   7.315
 5559SOL    HW117363   3.404   2.121   7.407
 5559SOL    HW217364   3.337   2.015   7.303
 5560SOL     OW17365   2.476   1.984   5.703
 5560SOL    HW117366   2.574   1.962   5.710
 5560SOL    HW217367   2.445   1.967   5.610
 5561SOL     OW17368   2.750   3.376   6.781
 5561SOL    HW117369   2.727   3.351   6.687
 5561SOL    HW217370   2.811   3.307   6.820
 5562SOL     OW17371   3.213   2.452   7.019
 5562SOL    HW117372   3.241   2.409   7.104
 5562SOL    HW217373   3.238   2.548   7.020
 5563SOL     OW17374   2.665   3.264   6.510
 5563SOL    HW117375   2.755   3.278   6.468
 5563SOL    HW217376   2.594   3.266   6.439
 5564SOL     OW17377   2.401   1.926   6.098
 5564SOL    HW117378   2.320   1.927   6.156
 5564SOL    HW217379   2.404   2.009   6.043
 5565SOL     OW17380   3.296   3.050   5.627
 5565SOL    HW117381   3.328   2.974   5.684
 5565SOL    HW217382   3.204   3.077   5.657
 5566SOL     OW17383   2.938   2.545   7.050
 5566SOL    HW117384   2.858   2.484   7.053
 5566SOL    HW217385   3.019   2.492   7.026
 5567SOL     OW17386   3.089   3.432   6.379
 5567SOL    HW117387   3.110   3.506   6.314
 5567SOL    HW217388   3.157   3.432   6.452
 5568SOL     OW17389   2.321   3.014   6.327
 5568SOL    HW117390   2.250   2.987   6.392
 5568SOL    HW217391   2.295   2.986   6.234
 5569SOL     OW17392   3.133   3.659   6.177
 5569SOL    HW117393   3.177   3.723   6.113
 5569SOL    HW217394   3.083   3.711   6.247
 5570SOL     OW17395   2.894   2.411   5.602
 5570SOL    HW117396   2.853   2.493   5.563
 5570SOL    HW217397   2.958   2.437   5.675
 5571SOL     OW17398   3.291   3.035   6.453
 5571SOL    HW117399   3.236   2.951   6.446
 5571SOL    HW217400   3.317   3.064   6.361
 5572SOL     OW17401   3.328   2.452   6.578
 5572SOL    HW117402   3.298   2.357   6.585
 5572SOL    HW217403   3.401   2.468   6.644
 5573SOL     OW17404   3.719   2.695   5.963
 5573SOL    HW117405   3.761   2.631   6.027
 5573SOL    HW217406   3.681   2.644   5.885
 5574SOL     OW17407   2.350   3.247   5.760
 5574SOL    HW117408   2.263   3.232   5.807
 5574SOL    HW217409   2.333   3.273   5.665
 5575SOL     OW17410   3.526   3.142   6.243
 5575SOL    HW117411   3.625   3.150   6.257
 5575SOL    HW217412   3.481   3.226   6.274
 5576SOL     OW17413   3.252   2.437   5.664
 5576SOL    HW117414   3.198   2.416   5.745
 5576SOL    HW217415   3.343   2.396   5.673
 5577SOL     OW17416   2.389   2.118   5.914
 5577SOL    HW117417   2.416   2.059   5.839
 5577SOL    HW217418   2.389   2.213   5.883
 5578SOL     OW17419   3.616   3.085   7.174
 5578SOL    HW117420   3.707   3.046   7.161
 5578SOL    HW217421   3.624   3.181   7.198
 5579SOL     OW17422   2.926   3.209   6.926
 5579SOL    HW117423   2.846   3.186   6.981
 5579SOL    HW217424   3.009   3.183   6.975
 5580SOL     OW17425   3.454   3.491   7.211
 5580SOL    HW117426   3.481   3.525   7.121
 5580SOL    HW217427   3.533   3.453   7.257
 5581SOL     OW17428   2.973   3.057   6.686
 5581SOL    HW117429   2.933   3.101   6.767
 5581SOL    HW217430   2.932   3.094   6.603
 5582SOL     OW17431   3.500   2.961   6.665
 5582SOL    HW117432   3.505   3.042   6.724
 5582SOL    HW217433   3.414   2.963   6.614
 5583SOL     OW17434   2.842   2.978   7.305
 5583SOL    HW117435   2.743   2.984   7.315
 5583SOL    HW217436   2.865   2.898   7.249
 5584SOL     OW17437   2.567   2.912   5.954
 5584SOL    HW117438   2.553   2.919   6.053
 5584SOL    HW217439   2.651   2.861   5.936
 5585SOL     OW17440   3.136   2.248   6.848
 5585SOL    HW117441   3.157   2.322   6.912
 5585SOL    HW217442   3.047   2.265   6.805
 5586SOL     OW17443   1.926   3.426   6.917
 5586SOL    HW117444   1.880   3.508   6.883
 5586SOL    HW217445   2.024   3.445   6.926
 5587SOL     OW17446   2.229   2.962   6.087
 5587SOL    HW117447   2.222   3.045   6.031
 5587SOL    HW217448   2.233   2.882   6.027
 5588SOL     OW17449   3.114   3.210   5.974
 5588SOL    HW117450   3.164   3.287   6.014
 5588SOL    HW217451   3.019   3.212   6.006
 5589SOL     OW17452   3.134   3.307   6.728
 5589SOL    HW117453   3.181   3.320   6.815
 5589SOL    HW217454   3.068   3.233   6.737
 5590SOL     OW17455   3.444   2.501   6.058
 5590SOL    HW117456   3.413   2.562   6.131
 5590SOL    HW217457   3.494   2.553   5.989
 5591SOL     OW17458   2.216   3.372   6.915
 5591SOL    HW117459   2.195   3.328   6.828
 5591SOL    HW217460   2.313   3.398   6.918
 5592SOL     OW17461   3.449   2.641   7.256
 5592SOL    HW117462   3.357   2.679   7.251
 5592SOL    HW217463   3.509   2.688   7.191
 5593SOL     OW17464   2.366   1.912   7.326
 5593SOL    HW117465   2.324   1.855   7.256
 5593SOL    HW217466   2.300   1.981   7.358
 5594SOL     OW17467   3.222   2.724   6.631
 5594SOL    HW117468   3.147   2.724   6.565
 5594SOL    HW217469   3.259   2.632   6.640
 5595SOL     OW17470   3.071   2.387   5.861
 5595SOL    HW117471   3.084   2.303   5.915
 5595SOL    HW217472   3.042   2.461   5.921
 5596SOL     OW17473   2.169   2.075   6.817
 5596SOL    HW117474   2.146   2.112   6.907
 5596SOL    HW217475   2.139   1.980   6.811
 5597SOL     OW17476   1.899   3.172   6.868
 5597SOL    HW117477   1.952   3.123   6.936
 5597SOL    HW217478   1.921   3.270   6.873
 5598SOL     OW17479   3.590   2.797   7.440
 5598SOL    HW117480   3.544   2.790   7.351
 5598SOL    HW217481   3.528   2.841   7.506
 5599SOL     OW17482   3.484   2.229   5.960
 5599SOL    HW117483   3.486   2.153   6.024
 5599SOL    HW217484   3.436   2.306   6.000
 5600SOL     OW17485   2.885   2.628   6.552
 5600SOL    HW117486   2.900   2.649   6.648
 5600SOL    HW217487   2.855   2.533   6.543
 5601SOL     OW17488   2.842   3.435   7.286
 5601SOL    HW117489   2.822   3.479   7.198
 5601SOL    HW217490   2.881   3.344   7.270
 5602SOL     OW17491   3.721   3.380   7.191
 5602SOL    HW117492   3.735   3.407   7.096
 5602SOL    HW217493   3.804   3.402   7.244
 5603SOL     OW17494   3.402   2.136   5.711
 5603SOL    HW117495   3.341   2.061   5.734
 5603SOL    HW217496   3.424   2.188   5.794
 5604SOL     OW17497   3.165   2.700   5.628
 5604SOL    HW117498   3.199   2.607   5.643
 5604SOL    HW217499   3.183   2.727   5.533
 5605SOL     OW17500   2.930   3.195   6.435
 5605SOL    HW117501   2.937   3.111   6.380
 5605SOL    HW217502   2.992   3.264   6.399
 5606SOL     OW17503   3.000   2.242   7.264
 5606SOL    HW117504   2.955   2.305   7.328
 5606SOL    HW217505   3.093   2.273   7.247
 5607SOL     OW17506   3.022   2.069   7.063
 5607SOL    HW117507   3.022   2.133   7.140
 5607SOL    HW217508   3.050   2.117   6.980
 5608SOL     OW17509   1.870   3.188   5.786
 5608SOL    HW117510   1.777   3.209   5.755
 5608SOL    HW217511   1.880   3.089   5.799
 5609SOL     OW17512   1.950   3.663   6.513
 5609SOL    HW117513   1.908   3.577   6.486
 5609SOL    HW217514   2.044   3.666   6.479
 5610SOL     OW17515   2.366   3.430   6.496
 5610SOL    HW117516   2.432   3.504   6.505
 5610SOL    HW217517   2.410   3.351   6.454
 5611SOL     OW17518   2.864   2.658   6.824
 5611SOL    HW117519   2.905   2.626   6.910
 5611SOL    HW217520   2.768   2.631   6.821
 5612SOL     OW17521   3.231   2.812   7.246
 5612SOL    HW117522   3.270   2.901   7.266
 5612SOL    HW217523   3.241   2.792   7.149
 5613SOL     OW17524   3.519   2.466   6.792
 5613SOL    HW117525   3.481   2.397   6.854
 5613SOL    HW217526   3.601   2.430   6.748
 5614SOL     OW17527   2.114   3.426   7.330
 5614SOL    HW117528   2.084   3.483   7.406
 5614SOL    HW217529   2.107   3.329   7.356
 5615SOL     OW17530   2.792   3.540   7.051
 5615SOL    HW117531   2.768   3.522   6.956
 5615SOL    HW217532   2.822   3.634   7.061
 5616SOL     OW17533   2.335   2.362   5.777
 5616SOL    HW117534   2.396   2.442   5.781
 5616SOL    HW217535   2.240   2.393   5.784
 5617SOL     OW17536   2.021   2.999   7.052
 5617SOL    HW117537   2.043   2.938   7.128
 5617SOL    HW217538   2.031   2.950   6.966
 5618SOL     OW17539   3.209   2.921   6.820
 5618SOL    HW117540   3.233   2.858   6.746
 5618SOL    HW217541   3.119   2.961   6.802
 5619SOL     OW17542   3.164   2.717   5.895
 5619SOL    HW117543   3.078   2.686   5.937
 5619SOL    HW217544   3.160   2.703   5.796
 5620SOL     OW17545   3.621   3.609   6.740
 5620SOL    HW117546   3.682   3.639   6.667
 5620SOL    HW217547   3.583   3.520   6.718
 5621SOL     OW17548   3.114   3.593   6.714
 5621SOL    HW117549   3.198   3.598   6.660
 5621SOL    HW217550   3.091   3.497   6.732
 5622SOL     OW17551   1.945   3.120   6.608
 5622SOL    HW117552   1.940   3.119   6.708
 5622SOL    HW217553   1.862   3.079   6.570
 5623SOL     OW17554   2.550   3.524   7.302
 5623SOL    HW117555   2.494   3.605   7.311
 5623SOL    HW217556   2.602   3.528   7.216
 5624SOL     OW17557   3.588   1.997   6.109
 5624SOL    HW117558   3.661   1.980   6.042
 5624SOL    HW217559   3.557   1.910   6.147
 5625SOL     OW17560   3.250   3.435   6.063
 5625SOL    HW117561   3.317   3.447   5.989
 5625SOL    HW217562   3.210   3.524   6.086
 5626SOL     OW17563   1.992   3.656   7.437
 5626SOL    HW117564   1.951   3.582   7.490
 5626SOL    HW217565   2.056   3.707   7.495
 5627SOL     OW17566   3.142   2.789   6.258
 5627SOL    HW117567   3.202   2.708   6.260
 5627SOL    HW217568   3.182   2.858   6.198
 5628SOL     OW17569   2.692   3.135   7.008
 5628SOL    HW117570   2.687   3.168   7.103
 5628SOL    HW217571   2.606   3.154   6.962
 5629SOL     OW17572   2.534   3.478   5.740
 5629SOL    HW117573   2.543   3.488   5.641
 5629SOL    HW217574   2.494   3.389   5.761
 5630SOL     OW17575   3.512   3.582   6.980
 5630SOL    HW117576   3.565   3.592   6.896
 5630SOL    HW217577   3.485   3.672   7.014
 5631SOL     OW17578   3.703   2.037   6.549
 5631SOL    HW117579   3.742   1.952   6.513
 5631SOL    HW217580   3.605   2.039   6.530
 5632SOL     OW17581   3.056   3.474   5.617
 5632SOL    HW117582   3.062   3.381   5.654
 5632SOL    HW217583   2.997   3.474   5.537
 5633SOL     OW17584   2.684   2.864   6.958
 5633SOL    HW117585   2.724   2.863   6.866
 5633SOL    HW217586   2.694   2.956   6.998
 5634SOL     OW17587   2.778   2.772   5.877
 5634SOL    HW117588   2.841   2.810   5.809
 5634SOL    HW217589   2.818   2.689   5.916
 5635SOL     OW17590   3.366   3.469   5.630
 5635SOL    HW117591   3.274   3.506   5.637
 5635SOL    HW217592   3.404   3.489   5.540
 5636SOL     OW17593   2.234   3.150   7.076
 5636SOL    HW117594   2.221   3.243   7.042
 5636SOL    HW217595   2.150   3.098   7.063
 5637SOL     OW17596   3.476   3.154   6.875
 5637SOL    HW117597   3.536   3.157   6.955
 5637SOL    HW217598   3.401   3.218   6.888
 5638SOL     OW17599   2.901   2.960   6.282
 5638SOL    HW117600   2.831   2.913   6.336
 5638SOL    HW217601   2.960   2.892   6.239
 5639SOL     OW17602   2.452   3.349   6.077
 5639SOL    HW117603   2.494   3.291   6.007
 5639SOL    HW217604   2.408   3.428   6.033
 5640SOL     OW17605   3.571   2.247   6.967
 5640SOL    HW117606   3.644   2.316   6.971
 5640SOL    HW217607   3.599   2.172   6.908
 5641SOL     OW17608   2.117   3.210   5.876
 5641SOL    HW117609   2.021   3.211   5.849
 5641SOL    HW217610   2.129   3.263   5.960
 5642SOL     OW17611   1.967   2.875   7.312
 5642SOL    HW117612   1.890   2.842   7.366
 5642SOL    HW217613   2.052   2.845   7.354
 5643SOL     OW17614   1.937   2.207   5.619
 5643SOL    HW117615   1.845   2.179   5.590
 5643SOL    HW217616   1.968   2.284   5.563
 5644SOL     OW17617   3.302   2.718   6.984
 5644SOL    HW117618   3.245   2.770   6.921
 5644SOL    HW217619   3.398   2.730   6.960
 5645SOL     OW17620   3.045   3.197   5.705
 5645SOL    HW117621   2.946   3.186   5.707
 5645SOL    HW217622   3.079   3.212   5.798
 5646SOL     OW17623   2.475   2.704   7.017
 5646SOL    HW117624   2.531   2.785   7.000
 5646SOL    HW217625   2.534   2.624   7.020
 5647SOL     OW17626   3.355   3.629   6.545
 5647SOL    HW117627   3.388   3.693   6.476
 5647SOL    HW217628   3.421   3.623   6.620
 5648SOL     OW17629   3.312   3.082   7.219
 5648SOL    HW117630   3.303   3.072   7.318
 5648SOL    HW217631   3.408   3.075   7.193
 5649SOL     OW17632   2.252   3.603   7.146
 5649SOL    HW117633   2.161   3.644   7.144
 5649SOL    HW217634   2.245   3.509   7.178
 5650SOL     OW17635   3.536   2.745   6.840
 5650SOL    HW117636   3.509   2.656   6.803
 5650SOL    HW217637   3.537   2.813   6.767
 5651SOL     OW17638   3.087   2.187   6.035
 5651SOL    HW117639   3.152   2.113   6.024
 5651SOL    HW217640   3.107   2.237   6.119
 5652SOL     OW17641   3.639   2.204   7.228
 5652SOL    HW117642   3.622   2.235   7.134
 5652SOL    HW217643   3.555   2.167   7.266
 5653SOL     OW17644   3.592   2.796   7.103
 5653SOL    HW117645   3.630   2.887   7.118
 5653SOL    HW217646   3.584   2.779   7.004
 5654SOL     OW17647   2.721   3.236   5.602
 5654SOL    HW117648   2.675   3.251   5.690
 5654SOL    HW217649   2.765   3.321   5.572
 5655SOL     OW17650   2.523   3.652   6.539
 5655SOL    HW117651   2.477   3.740   6.526
 5655SOL    HW217652   2.622   3.664   6.532
 5656SOL     OW17653   2.721   2.818   6.447
 5656SOL    HW117654   2.775   2.749   6.495
 5656SOL    HW217655   2.689   2.887   6.513
 5657SOL     OW17656   2.945   2.846   5.673
 5657SOL    HW117657   2.922   2.899   5.591
 5657SOL    HW217658   3.026   2.790   5.654
 5658SOL     OW17659   3.723   3.431   6.437
 5658SOL    HW117660   3.652   3.419   6.367
 5658SOL    HW217661   3.724   3.352   6.497
 5659SOL     OW17662   2.083   3.176   7.430
 5659SOL    HW117663   2.018   3.103   7.409
 5659SOL    HW217664   2.087   3.190   7.528
 5660SOL     OW17665   1.941   3.102   6.239
 5660SOL    HW117666   1.940   3.055   6.327
 5660SOL    HW217667   2.023   3.074   6.188
 5661SOL     OW17668   2.534   3.253   7.210
 5661SOL    HW117669   2.456   3.203   7.248
 5661SOL    HW217670   2.531   3.348   7.241
 5662SOL     OW17671   3.686   2.054   6.813
 5662SOL    HW117672   3.682   1.964   6.857
 5662SOL    HW217673   3.689   2.043   6.714
 5663SOL     OW17674   3.567   3.349   6.690
 5663SOL    HW117675   3.474   3.324   6.663
 5663SOL    HW217676   3.593   3.299   6.772
 5664SOL     OW17677   2.674   3.448   6.273
 5664SOL    HW117678   2.706   3.458   6.179
 5664SOL    HW217679   2.595   3.386   6.275
 5665SOL     OW17680   3.286   2.076   6.698
 5665SOL    HW117681   3.338   2.011   6.753
 5665SOL    HW217682   3.237   2.139   6.759
 5666SOL     OW17683   2.863   1.896   6.740
 5666SOL    HW117684   2.800   1.824   6.709
 5666SOL    HW217685   2.956   1.860   6.740
 5667SOL     OW17686   2.632   3.192   5.887
 5667SOL    HW117687   2.586   3.105   5.904
 5667SOL    HW217688   2.723   3.189   5.928
 5668SOL     OW17689   2.480   3.429   6.870
 5668SOL    HW117690   2.475   3.511   6.927
 5668SOL    HW217691   2.569   3.426   6.825
 5669SOL     OW17692   3.214   1.914   5.754
 5669SOL    HW117693   3.249   1.873   5.670
 5669SOL    HW217694   3.124   1.876   5.774
 5670SOL     OW17695   3.162   2.315   6.277
 5670SOL    HW117696   3.103   2.395   6.281
 5670SOL    HW217697   3.177   2.280   6.370
 5671SOL     OW17698   3.455   2.083   6.468
 5671SOL    HW117699   3.371   2.082   6.522
 5671SOL    HW217700   3.457   2.166   6.412
 5672SOL     OW17701   1.901   2.939   5.886
 5672SOL    HW117702   2.000   2.928   5.877
 5672SOL    HW217703   1.861   2.853   5.918
 5673SOL     OW17704   2.737   3.508   5.923
 5673SOL    HW117705   2.660   3.473   5.869
 5673SOL    HW217706   2.705   3.579   5.985
 5674SOL     OW17707   1.881   2.230   8.095
 5674SOL    HW117708   1.799   2.273   8.134
 5674SOL    HW217709   1.853   2.157   8.032
 5675SOL     OW17710   2.431   3.137   8.613
 5675SOL    HW117711   2.338   3.130   8.576
 5675SOL    HW217712   2.442   3.226   8.657
 5676SOL     OW17713   3.417   3.373   8.151
 5676SOL    HW117714   3.360   3.357   8.232
 5676SOL    HW217715   3.358   3.383   8.071
 5677SOL     OW17716   2.997   2.565   8.165
 5677SOL    HW117717   3.054   2.643   8.140
 5677SOL    HW217718   2.937   2.591   8.241
 5678SOL     OW17719   3.617   2.469   7.679
 5678SOL    HW117720   3.605   2.456   7.580
 5678SOL    HW217721   3.587   2.388   7.728
 5679SOL     OW17722   2.630   3.006   8.471
 5679SOL    HW117723   2.552   3.023   8.531
 5679SOL    HW217724   2.664   3.093   8.435
 5680SOL     OW17725   2.712   2.660   9.271
 5680SOL    HW117726   2.708   2.736   9.336
 5680SOL    HW217727   2.734   2.696   9.180
 5681SOL     OW17728   2.547   2.874   8.113
 5681SOL    HW117729   2.616   2.858   8.183
 5681SOL    HW217730   2.474   2.931   8.151
 5682SOL     OW17731   2.548   3.023   9.251
 5682SOL    HW117732   2.608   3.102   9.265
 5682SOL    HW217733   2.462   3.054   9.210
 5683SOL     OW17734   2.197   3.297   8.509
 5683SOL    HW117735   2.119   3.266   8.456
 5683SOL    HW217736   2.255   3.355   8.452
 5684SOL     OW17737   3.322   3.367   8.787
 5684SOL    HW117738   3.346   3.461   8.813
 5684SOL    HW217739   3.306   3.313   8.869
 5685SOL     OW17740   2.300   2.254   8.947
 5685SOL    HW117741   2.382   2.198   8.956
 5685SOL    HW217742   2.219   2.196   8.951
 5686SOL     OW17743   3.465   2.309   8.185
 5686SOL    HW117744   3.391   2.355   8.135
 5686SOL    HW217745   3.516   2.377   8.238
 5687SOL     OW17746   2.093   3.575   7.931
 5687SOL    HW117747   2.127   3.652   7.985
 5687SOL    HW217748   2.137   3.575   7.841
 5688SOL     OW17749   2.989   3.203   9.138
 5688SOL    HW117750   3.036   3.203   9.226
 5688SOL    HW217751   2.941   3.116   9.127
 5689SOL     OW17752   2.092   3.296   7.986
 5689SOL    HW117753   2.066   3.392   7.986
 5689SOL    HW217754   2.021   3.242   8.031
 5690SOL     OW17755   2.102   2.953   8.334
 5690SOL    HW117756   2.116   2.869   8.386
 5690SOL    HW217757   2.047   3.017   8.389
 5691SOL     OW17758   2.482   3.648   8.887
 5691SOL    HW117759   2.390   3.631   8.922
 5691SOL    HW217760   2.510   3.740   8.913
 5692SOL     OW17761   3.456   1.976   8.928
 5692SOL    HW117762   3.438   2.043   8.856
 5692SOL    HW217763   3.453   2.022   9.017
 5693SOL     OW17764   3.704   3.629   7.807
 5693SOL    HW117765   3.758   3.600   7.887
 5693SOL    HW217766   3.734   3.719   7.778
 5694SOL     OW17767   1.889   3.458   7.565
 5694SOL    HW117768   1.870   3.362   7.586
 5694SOL    HW217769   1.856   3.516   7.640
 5695SOL     OW17770   3.551   2.784   8.060
 5695SOL    HW117771   3.646   2.755   8.068
 5695SOL    HW217772   3.543   2.849   7.985
 5696SOL     OW17773   3.503   2.970   7.880
 5696SOL    HW117774   3.589   2.972   7.828
 5696SOL    HW217775   3.517   3.017   7.968
 5697SOL     OW17776   1.975   2.599   9.045
 5697SOL    HW117777   2.063   2.586   9.090
 5697SOL    HW217778   1.962   2.696   9.023
 5698SOL     OW17779   2.475   3.227   8.174
 5698SOL    HW117780   2.426   3.140   8.183
 5698SOL    HW217781   2.452   3.270   8.087
 5699SOL     OW17782   3.155   3.090   8.871
 5699SOL    HW117783   3.192   3.017   8.813
 5699SOL    HW217784   3.207   3.095   8.956
 5700SOL     OW17785   2.059   2.838   8.712
 5700SOL    HW117786   2.148   2.793   8.698
 5700SOL    HW217787   1.986   2.773   8.693
 5701SOL     OW17788   3.387   2.861   7.638
 5701SOL    HW117789   3.324   2.785   7.651
 5701SOL    HW217790   3.435   2.879   7.724
 5702SOL     OW17791   3.049   3.654   9.064
 5702SOL    HW117792   3.073   3.714   8.988
 5702SOL    HW217793   3.056   3.559   9.034
 5703SOL     OW17794   2.179   2.113   9.249
 5703SOL    HW117795   2.250   2.184   9.255
 5703SOL    HW217796   2.091   2.152   9.277
 5704SOL     OW17797   3.328   3.279   8.401
 5704SOL    HW117798   3.269   3.285   8.481
 5704SOL    HW217799   3.313   3.191   8.355
 5705SOL     OW17800   3.529   3.576   8.020
 5705SOL    HW117801   3.488   3.553   7.932
 5705SOL    HW217802   3.511   3.502   8.085
 5706SOL     OW17803   3.143   2.207   8.392
 5706SOL    HW117804   3.057   2.157   8.379
 5706SOL    HW217805   3.205   2.153   8.448
 5707SOL     OW17806   3.438   3.524   7.755
 5707SOL    HW117807   3.527   3.570   7.758
 5707SOL    HW217808   3.417   3.500   7.660
 5708SOL     OW17809   2.669   2.467   8.913
 5708SOL    HW117810   2.622   2.464   9.002
 5708SOL    HW217811   2.618   2.412   8.847
 5709SOL     OW17812   3.256   2.331   9.122
 5709SOL    HW117813   3.236   2.374   9.210
 5709SOL    HW217814   3.334   2.269   9.131
 5710SOL     OW17815   2.835   2.752   9.020
 5710SOL    HW117816   2.881   2.668   8.991
 5710SOL    HW217817   2.779   2.786   8.945
 5711SOL     OW17818   2.853   2.272   8.690
 5711SOL    HW117819   2.776   2.306   8.744
 5711SOL    HW217820   2.819   2.221   8.611
 5712SOL     OW17821   2.903   2.563   7.877
 5712SOL    HW117822   2.929   2.559   7.973
 5712SOL    HW217823   2.818   2.512   7.863
 5713SOL     OW17824   1.938   2.673   8.237
 5713SOL    HW117825   2.037   2.661   8.246
 5713SOL    HW217826   1.914   2.768   8.258
 5714SOL     OW17827   1.992   3.683   9.019
 5714SOL    HW117828   1.982   3.668   9.118
 5714SOL    HW217829   1.906   3.719   8.983
 5715SOL     OW17830   3.581   2.447   9.279
 5715SOL    HW117831   3.555   2.536   9.243
 5715SOL    HW217832   3.579   2.379   9.206
 5716SOL     OW17833   3.224   3.006   7.993
 5716SOL    HW117834   3.307   2.977   7.945
 5716SOL    HW217835   3.175   3.073   7.937
 5717SOL     OW17836   2.412   2.058   8.333
 5717SOL    HW117837   2.407   2.053   8.433
 5717SOL    HW217838   2.414   2.154   8.304
 5718SOL     OW17839   2.870   3.318   7.925
 5718SOL    HW117840   2.824   3.390   7.873
 5718SOL    HW217841   2.866   3.338   8.023
 5719SOL     OW17842   2.213   3.663   8.301
 5719SOL    HW117843   2.263   3.577   8.307
 5719SOL    HW217844   2.278   3.740   8.298
 5720SOL     OW17845   3.657   2.928   8.321
 5720SOL    HW117846   3.595   2.913   8.245
 5720SOL    HW217847   3.605   2.939   8.406
 5721SOL     OW17848   3.089   3.412   8.954
 5721SOL    HW117849   3.095   3.335   9.018
 5721SOL    HW217850   3.037   3.386   8.874
 5722SOL     OW17851   3.320   2.597   8.176
 5722SOL    HW117852   3.315   2.532   8.251
 5722SOL    HW217853   3.400   2.656   8.189
 5723SOL     OW17854   2.323   3.128   9.175
 5723SOL    HW117855   2.273   3.129   9.089
 5723SOL    HW217856   2.260   3.110   9.251
 5724SOL     OW17857   2.973   3.638   7.685
 5724SOL    HW117858   2.913   3.576   7.735
 5724SOL    HW217859   3.004   3.594   7.600
 5725SOL     OW17860   3.494   3.239   7.529
 5725SOL    HW117861   3.462   3.333   7.519
 5725SOL    HW217862   3.418   3.176   7.517
 5726SOL     OW17863   2.326   3.605   7.771
 5726SOL    HW117864   2.359   3.644   7.857
 5726SOL    HW217865   2.402   3.598   7.706
 5727SOL     OW17866   3.262   1.969   7.874
 5727SOL    HW117867   3.238   1.932   7.784
 5727SOL    HW217868   3.361   1.985   7.878
 5728SOL     OW17869   2.111   3.647   8.689
 5728SOL    HW117870   2.168   3.582   8.739
 5728SOL    HW217871   2.095   3.614   8.596
 5729SOL     OW17872   2.802   3.560   8.352
 5729SOL    HW117873   2.882   3.503   8.373
 5729SOL    HW217874   2.753   3.520   8.275
 5730SOL     OW17875   3.409   2.084   9.177
 5730SOL    HW117876   3.404   2.121   9.269
 5730SOL    HW217877   3.337   2.015   9.165
 5731SOL     OW17878   2.643   2.126   9.197
 5731SOL    HW117879   2.710   2.065   9.240
 5731SOL    HW217880   2.570   2.145   9.262
 5732SOL     OW17881   2.750   3.376   8.643
 5732SOL    HW117882   2.727   3.351   8.549
 5732SOL    HW217883   2.811   3.307   8.682
 5733SOL     OW17884   3.213   2.452   8.881
 5733SOL    HW117885   3.241   2.409   8.966
 5733SOL    HW217886   3.238   2.548   8.882
 5734SOL     OW17887   2.665   3.264   8.372
 5734SOL    HW117888   2.755   3.278   8.330
 5734SOL    HW217889   2.594   3.266   8.301
 5735SOL     OW17890   2.784   2.365   8.347
 5735SOL    HW117891   2.759   2.356   8.251
 5735SOL    HW217892   2.832   2.283   8.378
 5736SOL     OW17893   2.401   1.926   7.960
 5736SOL    HW117894   2.320   1.927   8.018
 5736SOL    HW217895   2.404   2.009   7.905
 5737SOL     OW17896   3.296   3.050   7.489
 5737SOL    HW117897   3.328   2.974   7.546
 5737SOL    HW217898   3.204   3.077   7.519
 5738SOL     OW17899   2.797   2.098   7.928
 5738SOL    HW117900   2.749   2.139   7.850
 5738SOL    HW217901   2.896   2.096   7.909
 5739SOL     OW17902   2.938   2.545   8.912
 5739SOL    HW117903   2.858   2.484   8.915
 5739SOL    HW217904   3.019   2.492   8.888
 5740SOL     OW17905   3.089   3.432   8.241
 5740SOL    HW117906   3.110   3.506   8.176
 5740SOL    HW217907   3.157   3.432   8.314
 5741SOL     OW17908   2.321   3.014   8.189
 5741SOL    HW117909   2.250   2.987   8.254
 5741SOL    HW217910   2.295   2.986   8.096
 5742SOL     OW17911   3.133   3.659   8.039
 5742SOL    HW117912   3.177   3.723   7.975
 5742SOL    HW217913   3.083   3.711   8.109
 5743SOL     OW17914   2.894   2.411   7.464
 5743SOL    HW117915   2.853   2.493   7.425
 5743SOL    HW217916   2.958   2.437   7.537
 5744SOL     OW17917   1.940   2.418   8.834
 5744SOL    HW117918   2.032   2.417   8.793
 5744SOL    HW217919   1.934   2.492   8.901
 5745SOL     OW17920   2.423   2.084   8.595
 5745SOL    HW117921   2.461   2.000   8.632
 5745SOL    HW217922   2.335   2.103   8.639
 5746SOL     OW17923   2.728   2.316   8.090
 5746SOL    HW117924   2.696   2.388   8.028
 5746SOL    HW217925   2.752   2.235   8.037
 5747SOL     OW17926   2.879   1.901   8.201
 5747SOL    HW117927   2.807   1.906   8.132
 5747SOL    HW217928   2.855   1.832   8.270
 5748SOL     OW17929   3.291   3.035   8.315
 5748SOL    HW117930   3.236   2.951   8.308
 5748SOL    HW217931   3.317   3.064   8.223
 5749SOL     OW17932   3.328   2.452   8.440
 5749SOL    HW117933   3.298   2.357   8.447
 5749SOL    HW217934   3.401   2.468   8.506
 5750SOL     OW17935   3.719   2.695   7.825
 5750SOL    HW117936   3.761   2.631   7.889
 5750SOL    HW217937   3.681   2.644   7.747
 5751SOL     OW17938   2.350   3.247   7.622
 5751SOL    HW117939   2.263   3.232   7.669
 5751SOL    HW217940   2.333   3.273   7.527
 5752SOL     OW17941   3.526   3.142   8.105
 5752SOL    HW117942   3.625   3.150   8.119
 5752SOL    HW217943   3.481   3.226   8.136
 5753SOL     OW17944   3.252   2.437   7.526
 5753SOL    HW117945   3.198   2.416   7.607
 5753SOL    HW217946   3.343   2.396   7.535
 5754SOL     OW17947   2.389   2.118   7.776
 5754SOL    HW117948   2.416   2.059   7.701
 5754SOL    HW217949   2.389   2.213   7.745
 5755SOL     OW17950   3.616   3.085   9.036
 5755SOL    HW117951   3.707   3.046   9.023
 5755SOL    HW217952   3.624   3.181   9.060
 5756SOL     OW17953   2.926   3.209   8.788
 5756SOL    HW117954   2.846   3.186   8.843
 5756SOL    HW217955   3.009   3.183   8.837
 5757SOL     OW17956   3.454   3.491   9.073
 5757SOL    HW117957   3.481   3.525   8.983
 5757SOL    HW217958   3.533   3.453   9.119
 5758SOL     OW17959   2.973   3.057   8.548
 5758SOL    HW117960   2.933   3.101   8.629
 5758SOL    HW217961   2.932   3.094   8.465
 5759SOL     OW17962   3.500   2.961   8.527
 5759SOL    HW117963   3.505   3.042   8.586
 5759SOL    HW217964   3.414   2.963   8.476
 5760SOL     OW17965   2.777   1.951   8.850
 5760SOL    HW117966   2.802   1.931   8.755
 5760SOL    HW217967   2.849   2.007   8.892
 5761SOL     OW17968   2.842   2.978   9.167
 5761SOL    HW117969   2.743   2.984   9.177
 5761SOL    HW217970   2.865   2.898   9.111
 5762SOL     OW17971   2.567   2.912   7.816
 5762SOL    HW117972   2.553   2.919   7.915
 5762SOL    HW217973   2.651   2.861   7.798
 5763SOL     OW17974   2.272   2.675   8.699
 5763SOL    HW117975   2.358   2.687   8.749
 5763SOL    HW217976   2.230   2.588   8.726
 5764SOL     OW17977   3.136   2.248   8.710
 5764SOL    HW117978   3.157   2.322   8.774
 5764SOL    HW217979   3.047   2.265   8.667
 5765SOL     OW17980   1.926   3.426   8.779
 5765SOL    HW117981   1.880   3.508   8.745
 5765SOL    HW217982   2.024   3.445   8.788
 5766SOL     OW17983   2.229   2.962   7.949
 5766SOL    HW117984   2.222   3.045   7.893
 5766SOL    HW217985   2.233   2.882   7.889
 5767SOL     OW17986   2.428   2.399   8.313
 5767SOL    HW117987   2.440   2.465   8.239
 5767SOL    HW217988   2.474   2.433   8.396
 5768SOL     OW17989   3.114   3.210   7.836
 5768SOL    HW117990   3.164   3.287   7.876
 5768SOL    HW217991   3.019   3.212   7.868
 5769SOL     OW17992   3.134   3.307   8.590
 5769SOL    HW117993   3.181   3.320   8.677
 5769SOL    HW217994   3.068   3.233   8.599
 5770SOL     OW17995   3.444   2.501   7.920
 5770SOL    HW117996   3.413   2.562   7.993
 5770SOL    HW217997   3.494   2.553   7.851
 5771SOL     OW17998   2.216   3.372   8.777
 5771SOL    HW117999   2.195   3.328   8.690
 5771SOL    HW218000   2.313   3.398   8.780
 5772SOL     OW18001   2.264   2.613   9.046
 5772SOL    HW118002   2.332   2.668   8.999
 5772SOL    HW218003   2.304   2.525   9.073
 5773SOL     OW18004   3.449   2.641   9.118
 5773SOL    HW118005   3.357   2.679   9.113
 5773SOL    HW218006   3.509   2.688   9.053
 5774SOL     OW18007   2.875   1.967   9.218
 5774SOL    HW118008   2.881   2.052   9.166
 5774SOL    HW218009   2.907   1.891   9.161
 5775SOL     OW18010   2.366   1.912   9.188
 5775SOL    HW118011   2.324   1.855   9.118
 5775SOL    HW218012   2.300   1.981   9.220
 5776SOL     OW18013   2.435   2.732   8.477
 5776SOL    HW118014   2.479   2.821   8.468
 5776SOL    HW218015   2.372   2.732   8.554
 5777SOL     OW18016   3.222   2.724   8.493
 5777SOL    HW118017   3.147   2.724   8.427
 5777SOL    HW218018   3.259   2.632   8.502
 5778SOL     OW18019   3.071   2.387   7.723
 5778SOL    HW118020   3.084   2.303   7.777
 5778SOL    HW218021   3.042   2.461   7.783
 5779SOL     OW18022   2.169   2.075   8.679
 5779SOL    HW118023   2.146   2.112   8.769
 5779SOL    HW218024   2.139   1.980   8.673
 5780SOL     OW18025   1.899   3.172   8.730
 5780SOL    HW118026   1.952   3.123   8.798
 5780SOL    HW218027   1.921   3.270   8.735
 5781SOL     OW18028   2.594   2.496   8.512
 5781SOL    HW118029   2.653   2.470   8.436
 5781SOL    HW218030   2.566   2.592   8.501
 5782SOL     OW18031   3.590   2.797   9.302
 5782SOL    HW118032   3.544   2.790   9.213
 5782SOL    HW218033   3.528   2.841   9.368
 5783SOL     OW18034   3.484   2.229   7.822
 5783SOL    HW118035   3.486   2.153   7.886
 5783SOL    HW218036   3.436   2.306   7.862
 5784SOL     OW18037   2.885   2.628   8.414
 5784SOL    HW118038   2.900   2.649   8.510
 5784SOL    HW218039   2.855   2.533   8.405
 5785SOL     OW18040   2.842   3.435   9.148
 5785SOL    HW118041   2.822   3.479   9.060
 5785SOL    HW218042   2.881   3.344   9.132
 5786SOL     OW18043   3.721   3.380   9.053
 5786SOL    HW118044   3.735   3.407   8.958
 5786SOL    HW218045   3.804   3.402   9.106
 5787SOL     OW18046   2.212   2.760   9.252
 5787SOL    HW118047   2.288   2.804   9.300
 5787SOL    HW218048   2.247   2.713   9.170
 5788SOL     OW18049   3.402   2.136   7.573
 5788SOL    HW118050   3.341   2.061   7.596
 5788SOL    HW218051   3.424   2.188   7.656
 5789SOL     OW18052   3.165   2.700   7.490
 5789SOL    HW118053   3.199   2.607   7.505
 5789SOL    HW218054   3.183   2.727   7.395
 5790SOL     OW18055   2.930   3.195   8.297
 5790SOL    HW118056   2.937   3.111   8.242
 5790SOL    HW218057   2.992   3.264   8.261
 5791SOL     OW18058   2.181   2.672   8.397
 5791SOL    HW118059   2.274   2.708   8.402
 5791SOL    HW218060   2.175   2.587   8.449
 5792SOL     OW18061   2.201   2.371   8.454
 5792SOL    HW118062   2.149   2.288   8.437
 5792SOL    HW218063   2.278   2.376   8.390
 5793SOL     OW18064   3.000   2.242   9.126
 5793SOL    HW118065   2.955   2.305   9.190
 5793SOL    HW218066   3.093   2.273   9.109
 5794SOL     OW18067   3.022   2.069   8.925
 5794SOL    HW118068   3.022   2.133   9.002
 5794SOL    HW218069   3.050   2.117   8.842
 5795SOL     OW18070   1.870   3.188   7.648
 5795SOL    HW118071   1.777   3.209   7.617
 5795SOL    HW218072   1.880   3.089   7.661
 5796SOL     OW18073   1.950   3.663   8.375
 5796SOL    HW118074   1.908   3.577   8.348
 5796SOL    HW218075   2.044   3.666   8.341
 5797SOL     OW18076   2.366   3.430   8.358
 5797SOL    HW118077   2.432   3.504   8.367
 5797SOL    HW218078   2.410   3.351   8.316
 5798SOL     OW18079   2.864   2.658   8.686
 5798SOL    HW118080   2.905   2.626   8.772
 5798SOL    HW218081   2.768   2.631   8.683
 5799SOL     OW18082   1.902   2.406   8.562
 5799SOL    HW118083   1.987   2.373   8.521
 5799SOL    HW218084   1.915   2.421   8.660
 5800SOL     OW18085   2.051   2.382   9.170
 5800SOL    HW118086   2.110   2.342   9.100
 5800SOL    HW218087   1.993   2.453   9.129
 5801SOL     OW18088   3.231   2.812   9.108
 5801SOL    HW118089   3.270   2.901   9.128
 5801SOL    HW218090   3.241   2.792   9.011
 5802SOL     OW18091   3.519   2.466   8.654
 5802SOL    HW118092   3.481   2.397   8.716
 5802SOL    HW218093   3.601   2.430   8.610
 5803SOL     OW18094   2.114   3.426   9.192
 5803SOL    HW118095   2.084   3.483   9.268
 5803SOL    HW218096   2.107   3.329   9.218
 5804SOL     OW18097   2.533   2.326   8.717
 5804SOL    HW118098   2.499   2.237   8.687
 5804SOL    HW218099   2.559   2.380   8.637
 5805SOL     OW18100   2.792   3.540   8.913
 5805SOL    HW118101   2.768   3.522   8.818
 5805SOL    HW218102   2.822   3.634   8.923
 5806SOL     OW18103   2.335   2.362   7.639
 5806SOL    HW118104   2.396   2.442   7.643
 5806SOL    HW218105   2.240   2.393   7.646
 5807SOL     OW18106   2.021   2.999   8.914
 5807SOL    HW118107   2.043   2.938   8.990
 5807SOL    HW218108   2.031   2.950   8.828
 5808SOL     OW18109   3.209   2.921   8.682
 5808SOL    HW118110   3.233   2.858   8.608
 5808SOL    HW218111   3.119   2.961   8.664
 5809SOL     OW18112   3.164   2.717   7.757
 5809SOL    HW118113   3.078   2.686   7.799
 5809SOL    HW218114   3.160   2.703   7.658
 5810SOL     OW18115   3.621   3.609   8.602
 5810SOL    HW118116   3.682   3.639   8.529
 5810SOL    HW218117   3.583   3.520   8.580
 5811SOL     OW18118   3.114   3.593   8.576
 5811SOL    HW118119   3.198   3.598   8.522
 5811SOL    HW218120   3.091   3.497   8.594
 5812SOL     OW18121   1.945   3.120   8.470
 5812SOL    HW118122   1.940   3.119   8.570
 5812SOL    HW218123   1.862   3.079   8.432
 5813SOL     OW18124   2.550   3.524   9.164
 5813SOL    HW118125   2.494   3.605   9.173
 5813SOL    HW218126   2.602   3.528   9.078
 5814SOL     OW18127   3.588   1.997   7.971
 5814SOL    HW118128   3.661   1.980   7.904
 5814SOL    HW218129   3.557   1.910   8.009
 5815SOL     OW18130   3.250   3.435   7.925
 5815SOL    HW118131   3.317   3.447   7.851
 5815SOL    HW218132   3.210   3.524   7.948
 5816SOL     OW18133   1.992   3.656   9.299
 5816SOL    HW118134   1.951   3.582   9.352
 5816SOL    HW218135   2.056   3.707   9.357
 5817SOL     OW18136   3.142   2.789   8.120
 5817SOL    HW118137   3.202   2.708   8.122
 5817SOL    HW218138   3.182   2.858   8.060
 5818SOL     OW18139   2.692   3.135   8.870
 5818SOL    HW118140   2.687   3.168   8.965
 5818SOL    HW218141   2.606   3.154   8.824
 5819SOL     OW18142   2.534   3.478   7.602
 5819SOL    HW118143   2.543   3.488   7.503
 5819SOL    HW218144   2.494   3.389   7.623
 5820SOL     OW18145   3.512   3.582   8.842
 5820SOL    HW118146   3.565   3.592   8.758
 5820SOL    HW218147   3.485   3.672   8.876
 5821SOL     OW18148   3.703   2.037   8.411
 5821SOL    HW118149   3.742   1.952   8.375
 5821SOL    HW218150   3.605   2.039   8.392
 5822SOL     OW18151   3.056   3.474   7.479
 5822SOL    HW118152   3.062   3.381   7.516
 5822SOL    HW218153   2.997   3.474   7.399
 5823SOL     OW18154   2.684   2.864   8.820
 5823SOL    HW118155   2.724   2.863   8.728
 5823SOL    HW218156   2.694   2.956   8.860
 5824SOL     OW18157   2.778   2.772   7.739
 5824SOL    HW118158   2.841   2.810   7.671
 5824SOL    HW218159   2.818   2.689   7.778
 5825SOL     OW18160   3.366   3.469   7.492
 5825SOL    HW118161   3.274   3.506   7.499
 5825SOL    HW218162   3.404   3.489   7.402
 5826SOL     OW18163   2.234   3.150   8.938
 5826SOL    HW118164   2.221   3.243   8.904
 5826SOL    HW218165   2.150   3.098   8.925
 5827SOL     OW18166   3.476   3.154   8.737
 5827SOL    HW118167   3.536   3.157   8.817
 5827SOL    HW218168   3.401   3.218   8.750
 5828SOL     OW18169   2.901   2.960   8.144
 5828SOL    HW118170   2.831   2.913   8.198
 5828SOL    HW218171   2.960   2.892   8.101
 5829SOL     OW18172   2.876   2.098   8.419
 5829SOL    HW118173   2.868   2.062   8.326
 5829SOL    HW218174   2.874   2.022   8.484
 5830SOL     OW18175   2.452   3.349   7.939
 5830SOL    HW118176   2.494   3.291   7.869
 5830SOL    HW218177   2.408   3.428   7.895
 5831SOL     OW18178   3.571   2.247   8.829
 5831SOL    HW118179   3.644   2.316   8.833
 5831SOL    HW218180   3.599   2.172   8.770
 5832SOL     OW18181   2.117   3.210   7.738
 5832SOL    HW118182   2.021   3.211   7.711
 5832SOL    HW218183   2.129   3.263   7.822
 5833SOL     OW18184   1.967   2.875   9.174
 5833SOL    HW118185   1.890   2.842   9.228
 5833SOL    HW218186   2.052   2.845   9.216
 5834SOL     OW18187   2.534   2.065   8.937
 5834SOL    HW118188   2.624   2.049   8.897
 5834SOL    HW218189   2.542   2.070   9.036
 5835SOL     OW18190   3.302   2.718   8.846
 5835SOL    HW118191   3.245   2.770   8.783
 5835SOL    HW218192   3.398   2.730   8.822
 5836SOL     OW18193   3.045   3.197   7.567
 5836SOL    HW118194   2.946   3.186   7.569
 5836SOL    HW218195   3.079   3.212   7.660
 5837SOL     OW18196   2.475   2.704   8.879
 5837SOL    HW118197   2.531   2.785   8.862
 5837SOL    HW218198   2.534   2.624   8.882
 5838SOL     OW18199   3.355   3.629   8.407
 5838SOL    HW118200   3.388   3.693   8.338
 5838SOL    HW218201   3.421   3.623   8.482
 5839SOL     OW18202   2.578   2.427   9.156
 5839SOL    HW118203   2.597   2.492   9.230
 5839SOL    HW218204   2.638   2.347   9.165
 5840SOL     OW18205   3.312   3.082   9.081
 5840SOL    HW118206   3.303   3.072   9.180
 5840SOL    HW218207   3.408   3.075   9.055
 5841SOL     OW18208   2.252   3.603   9.008
 5841SOL    HW118209   2.161   3.644   9.006
 5841SOL    HW218210   2.245   3.509   9.040
 5842SOL     OW18211   3.536   2.745   8.702
 5842SOL    HW118212   3.509   2.656   8.665
 5842SOL    HW218213   3.537   2.813   8.629
 5843SOL     OW18214   3.087   2.187   7.897
 5843SOL    HW118215   3.152   2.113   7.886
 5843SOL    HW218216   3.107   2.237   7.981
 5844SOL     OW18217   2.456   2.607   8.100
 5844SOL    HW118218   2.506   2.692   8.081
 5844SOL    HW218219   2.368   2.609   8.052
 5845SOL     OW18220   3.639   2.204   9.090
 5845SOL    HW118221   3.622   2.235   8.996
 5845SOL    HW218222   3.555   2.167   9.128
 5846SOL     OW18223   3.592   2.796   8.965
 5846SOL    HW118224   3.630   2.887   8.980
 5846SOL    HW218225   3.584   2.779   8.866
 5847SOL     OW18226   2.721   3.236   7.464
 5847SOL    HW118227   2.675   3.251   7.552
 5847SOL    HW218228   2.765   3.321   7.434
 5848SOL     OW18229   2.523   3.652   8.401
 5848SOL    HW118230   2.477   3.740   8.388
 5848SOL    HW218231   2.622   3.664   8.394
 5849SOL     OW18232   2.721   2.818   8.309
 5849SOL    HW118233   2.775   2.749   8.357
 5849SOL    HW218234   2.689   2.887   8.375
 5850SOL     OW18235   2.945   2.846   7.535
 5850SOL    HW118236   2.922   2.899   7.453
 5850SOL    HW218237   3.026   2.790   7.516
 5851SOL     OW18238   3.723   3.431   8.299
 5851SOL    HW118239   3.652   3.419   8.229
 5851SOL    HW218240   3.724   3.352   8.359
 5852SOL     OW18241   2.083   3.176   9.292
 5852SOL    HW118242   2.018   3.103   9.271
 5852SOL    HW218243   2.087   3.190   9.390
 5853SOL     OW18244   1.941   3.102   8.101
 5853SOL    HW118245   1.940   3.055   8.189
 5853SOL    HW218246   2.023   3.074   8.050
 5854SOL     OW18247   2.534   3.253   9.072
 5854SOL    HW118248   2.456   3.203   9.110
 5854SOL    HW218249   2.531   3.348   9.103
 5855SOL     OW18250   3.686   2.054   8.675
 5855SOL    HW118251   3.682   1.964   8.719
 5855SOL    HW218252   3.689   2.043   8.576
 5856SOL     OW18253   2.290   2.286   7.968
 5856SOL    HW118254   2.320   2.214   7.906
 5856SOL    HW218255   2.251   2.246   8.051
 5857SOL     OW18256   3.567   3.349   8.552
 5857SOL    HW118257   3.474   3.324   8.525
 5857SOL    HW218258   3.593   3.299   8.634
 5858SOL     OW18259   2.179   2.409   8.728
 5858SOL    HW118260   2.217   2.350   8.800
 5858SOL    HW218261   2.219   2.383   8.640
 5859SOL     OW18262   2.674   3.448   8.135
 5859SOL    HW118263   2.706   3.458   8.041
 5859SOL    HW218264   2.595   3.386   8.137
 5860SOL     OW18265   3.286   2.076   8.560
 5860SOL    HW118266   3.338   2.011   8.615
 5860SOL    HW218267   3.237   2.139   8.621
 5861SOL     OW18268   2.863   1.896   8.602
 5861SOL    HW118269   2.800   1.824   8.571
 5861SOL    HW218270   2.956   1.860   8.602
 5862SOL     OW18271   2.632   3.192   7.749
 5862SOL    HW118272   2.586   3.105   7.766
 5862SOL    HW218273   2.723   3.189   7.790
 5863SOL     OW18274   2.480   3.429   8.732
 5863SOL    HW118275   2.475   3.511   8.789
 5863SOL    HW218276   2.569   3.426   8.687
 5864SOL     OW18277   3.214   1.914   7.616
 5864SOL    HW118278   3.249   1.873   7.532
 5864SOL    HW218279   3.124   1.876   7.636
 5865SOL     OW18280   3.162   2.315   8.139
 5865SOL    HW118281   3.103   2.395   8.143
 5865SOL    HW218282   3.177   2.280   8.232
 5866SOL     OW18283   3.455   2.083   8.330
 5866SOL    HW118284   3.371   2.082   8.384
 5866SOL    HW218285   3.457   2.166   8.274
 5867SOL     OW18286   1.901   2.939   7.748
 5867SOL    HW118287   2.000   2.928   7.739
 5867SOL    HW218288   1.861   2.853   7.780
 5868SOL     OW18289   2.737   3.508   7.785
 5868SOL    HW118290   2.660   3.473   7.731
 5868SOL    HW218291   2.705   3.579   7.847
 5869SOL     OW18292   2.092   2.490   9.423
 5869SOL    HW118293   1.999   2.488   9.460
 5869SOL    HW218294   2.093   2.451   9.331
 5870SOL     OW18295   1.881   2.230   9.957
 5870SOL    HW118296   1.799   2.273   9.996
 5870SOL    HW218297   1.853   2.157   9.894
 5871SOL     OW18298   2.431   3.137  10.475
 5871SOL    HW118299   2.338   3.130  10.438
 5871SOL    HW218300   2.442   3.226  10.519
 5872SOL     OW18301   3.417   3.373  10.013
 5872SOL    HW118302   3.360   3.357  10.094
 5872SOL    HW218303   3.358   3.383   9.933
 5873SOL     OW18304   2.997   2.565  10.027
 5873SOL    HW118305   3.054   2.643  10.002
 5873SOL    HW218306   2.937   2.591  10.103
 5874SOL     OW18307   3.617   2.469   9.541
 5874SOL    HW118308   3.605   2.456   9.442
 5874SOL    HW218309   3.587   2.388   9.590
 5875SOL     OW18310   2.630   3.006  10.333
 5875SOL    HW118311   2.552   3.023  10.393
 5875SOL    HW218312   2.664   3.093  10.297
 5876SOL     OW18313   2.712   2.660  11.133
 5876SOL    HW118314   2.708   2.736  11.198
 5876SOL    HW218315   2.734   2.696  11.042
 5877SOL     OW18316   2.547   2.874   9.975
 5877SOL    HW118317   2.616   2.858  10.045
 5877SOL    HW218318   2.474   2.931  10.013
 5878SOL     OW18319   2.548   3.023  11.113
 5878SOL    HW118320   2.608   3.102  11.127
 5878SOL    HW218321   2.462   3.054  11.072
 5879SOL     OW18322   2.197   3.297  10.371
 5879SOL    HW118323   2.119   3.266  10.318
 5879SOL    HW218324   2.255   3.355  10.314
 5880SOL     OW18325   3.322   3.367  10.649
 5880SOL    HW118326   3.346   3.461  10.675
 5880SOL    HW218327   3.306   3.313  10.731
 5881SOL     OW18328   2.300   2.254  10.809
 5881SOL    HW118329   2.382   2.198  10.818
 5881SOL    HW218330   2.219   2.196  10.813
 5882SOL     OW18331   3.465   2.309  10.047
 5882SOL    HW118332   3.391   2.355   9.997
 5882SOL    HW218333   3.516   2.377  10.100
 5883SOL     OW18334   2.093   3.575   9.793
 5883SOL    HW118335   2.127   3.652   9.847
 5883SOL    HW218336   2.137   3.575   9.703
 5884SOL     OW18337   2.989   3.203  11.000
 5884SOL    HW118338   3.036   3.203  11.088
 5884SOL    HW218339   2.941   3.116  10.989
 5885SOL     OW18340   2.092   3.296   9.848
 5885SOL    HW118341   2.066   3.392   9.848
 5885SOL    HW218342   2.021   3.242   9.893
 5886SOL     OW18343   2.102   2.953  10.196
 5886SOL    HW118344   2.116   2.869  10.248
 5886SOL    HW218345   2.047   3.017  10.251
 5887SOL     OW18346   2.482   3.648  10.749
 5887SOL    HW118347   2.390   3.631  10.784
 5887SOL    HW218348   2.510   3.740  10.775
 5888SOL     OW18349   2.468   2.826   9.433
 5888SOL    HW118350   2.475   2.910   9.379
 5888SOL    HW218351   2.514   2.839   9.521
 5889SOL     OW18352   3.456   1.976  10.790
 5889SOL    HW118353   3.438   2.043  10.718
 5889SOL    HW218354   3.453   2.022  10.879
 5890SOL     OW18355   1.984   2.505   9.873
 5890SOL    HW118356   1.939   2.417   9.890
 5890SOL    HW218357   1.983   2.559   9.957
 5891SOL     OW18358   3.704   3.629   9.669
 5891SOL    HW118359   3.758   3.600   9.749
 5891SOL    HW218360   3.734   3.719   9.640
 5892SOL     OW18361   1.889   3.458   9.427
 5892SOL    HW118362   1.870   3.362   9.448
 5892SOL    HW218363   1.856   3.516   9.502
 5893SOL     OW18364   3.551   2.784   9.922
 5893SOL    HW118365   3.646   2.755   9.930
 5893SOL    HW218366   3.543   2.849   9.847
 5894SOL     OW18367   3.503   2.970   9.742
 5894SOL    HW118368   3.589   2.972   9.690
 5894SOL    HW218369   3.517   3.017   9.830
 5895SOL     OW18370   1.975   2.599  10.907
 5895SOL    HW118371   2.063   2.586  10.952
 5895SOL    HW218372   1.962   2.696  10.885
 5896SOL     OW18373   2.475   3.227  10.036
 5896SOL    HW118374   2.426   3.140  10.045
 5896SOL    HW218375   2.452   3.270   9.949
 5897SOL     OW18376   3.155   3.090  10.733
 5897SOL    HW118377   3.192   3.017  10.675
 5897SOL    HW218378   3.207   3.095  10.818
 5898SOL     OW18379   2.671   1.866   9.812
 5898SOL    HW118380   2.711   1.957   9.803
 5898SOL    HW218381   2.571   1.874   9.818
 5899SOL     OW18382   2.059   2.838  10.574
 5899SOL    HW118383   2.148   2.793  10.560
 5899SOL    HW218384   1.986   2.773  10.555
 5900SOL     OW18385   3.387   2.861   9.500
 5900SOL    HW118386   3.324   2.785   9.513
 5900SOL    HW218387   3.435   2.879   9.586
 5901SOL     OW18388   3.049   3.654  10.926
 5901SOL    HW118389   3.073   3.714  10.850
 5901SOL    HW218390   3.056   3.559  10.896
 5902SOL     OW18391   2.179   2.113  11.111
 5902SOL    HW118392   2.250   2.184  11.117
 5902SOL    HW218393   2.091   2.152  11.139
 5903SOL     OW18394   3.328   3.279  10.263
 5903SOL    HW118395   3.269   3.285  10.343
 5903SOL    HW218396   3.313   3.191  10.217
 5904SOL     OW18397   3.529   3.576   9.882
 5904SOL    HW118398   3.488   3.553   9.794
 5904SOL    HW218399   3.511   3.502   9.947
 5905SOL     OW18400   2.460   2.591   9.580
 5905SOL    HW118401   2.484   2.660   9.512
 5905SOL    HW218402   2.382   2.624   9.634
 5906SOL     OW18403   3.143   2.207  10.254
 5906SOL    HW118404   3.057   2.157  10.241
 5906SOL    HW218405   3.205   2.153  10.310
 5907SOL     OW18406   3.438   3.524   9.617
 5907SOL    HW118407   3.527   3.570   9.620
 5907SOL    HW218408   3.417   3.500   9.522
 5908SOL     OW18409   2.669   2.467  10.775
 5908SOL    HW118410   2.622   2.464  10.864
 5908SOL    HW218411   2.618   2.412  10.709
 5909SOL     OW18412   3.256   2.331  10.984
 5909SOL    HW118413   3.236   2.374  11.072
 5909SOL    HW218414   3.334   2.269  10.993
 5910SOL     OW18415   2.835   2.752  10.882
 5910SOL    HW118416   2.881   2.668  10.853
 5910SOL    HW218417   2.779   2.786  10.807
 5911SOL     OW18418   2.853   2.272  10.552
 5911SOL    HW118419   2.776   2.306  10.606
 5911SOL    HW218420   2.819   2.221  10.473
 5912SOL     OW18421   2.903   2.563   9.739
 5912SOL    HW118422   2.929   2.559   9.835
 5912SOL    HW218423   2.818   2.512   9.725
 5913SOL     OW18424   1.938   2.673  10.099
 5913SOL    HW118425   2.037   2.661  10.108
 5913SOL    HW218426   1.914   2.768  10.120
 5914SOL     OW18427   1.992   3.683  10.881
 5914SOL    HW118428   1.982   3.668  10.980
 5914SOL    HW218429   1.906   3.719  10.845
 5915SOL     OW18430   2.727   2.210   9.505
 5915SOL    HW118431   2.786   2.273   9.456
 5915SOL    HW218432   2.746   2.116   9.476
 5916SOL     OW18433   3.581   2.447  11.141
 5916SOL    HW118434   3.555   2.536  11.105
 5916SOL    HW218435   3.579   2.379  11.068
 5917SOL     OW18436   3.224   3.006   9.855
 5917SOL    HW118437   3.307   2.977   9.807
 5917SOL    HW218438   3.175   3.073   9.799
 5918SOL     OW18439   2.412   2.058  10.195
 5918SOL    HW118440   2.407   2.053  10.295
 5918SOL    HW218441   2.414   2.154  10.166
 5919SOL     OW18442   2.870   3.318   9.787
 5919SOL    HW118443   2.824   3.390   9.735
 5919SOL    HW218444   2.866   3.338   9.885
 5920SOL     OW18445   2.213   3.663  10.163
 5920SOL    HW118446   2.263   3.577  10.169
 5920SOL    HW218447   2.278   3.740  10.160
 5921SOL     OW18448   3.657   2.928  10.183
 5921SOL    HW118449   3.595   2.913  10.107
 5921SOL    HW218450   3.605   2.939  10.268
 5922SOL     OW18451   3.089   3.412  10.816
 5922SOL    HW118452   3.095   3.335  10.880
 5922SOL    HW218453   3.037   3.386  10.736
 5923SOL     OW18454   2.183   2.805   9.552
 5923SOL    HW118455   2.265   2.844   9.510
 5923SOL    HW218456   2.156   2.723   9.503
 5924SOL     OW18457   3.320   2.597  10.038
 5924SOL    HW118458   3.315   2.532  10.113
 5924SOL    HW218459   3.400   2.656  10.051
 5925SOL     OW18460   2.323   3.128  11.037
 5925SOL    HW118461   2.273   3.129  10.951
 5925SOL    HW218462   2.260   3.110  11.113
 5926SOL     OW18463   2.973   3.638   9.547
 5926SOL    HW118464   2.913   3.576   9.597
 5926SOL    HW218465   3.004   3.594   9.462
 5927SOL     OW18466   3.494   3.239   9.391
 5927SOL    HW118467   3.462   3.333   9.381
 5927SOL    HW218468   3.418   3.176   9.379
 5928SOL     OW18469   2.326   3.605   9.633
 5928SOL    HW118470   2.359   3.644   9.719
 5928SOL    HW218471   2.402   3.598   9.568
 5929SOL     OW18472   3.262   1.969   9.736
 5929SOL    HW118473   3.238   1.932   9.646
 5929SOL    HW218474   3.361   1.985   9.740
 5930SOL     OW18475   2.111   3.647  10.551
 5930SOL    HW118476   2.168   3.582  10.601
 5930SOL    HW218477   2.095   3.614  10.458
 5931SOL     OW18478   2.802   3.560  10.214
 5931SOL    HW118479   2.882   3.503  10.235
 5931SOL    HW218480   2.753   3.520  10.137
 5932SOL     OW18481   2.244   2.562   9.790
 5932SOL    HW118482   2.289   2.472   9.787
 5932SOL    HW218483   2.150   2.551   9.823
 5933SOL     OW18484   3.409   2.084  11.039
 5933SOL    HW118485   3.404   2.121  11.131
 5933SOL    HW218486   3.337   2.015  11.027
 5934SOL     OW18487   2.476   1.984   9.427
 5934SOL    HW118488   2.574   1.962   9.434
 5934SOL    HW218489   2.445   1.967   9.334
 5935SOL     OW18490   2.643   2.126  11.059
 5935SOL    HW118491   2.710   2.065  11.102
 5935SOL    HW218492   2.570   2.145  11.124
 5936SOL     OW18493   2.750   3.376  10.505
 5936SOL    HW118494   2.727   3.351  10.411
 5936SOL    HW218495   2.811   3.307  10.544
 5937SOL     OW18496   3.213   2.452  10.743
 5937SOL    HW118497   3.241   2.409  10.828
 5937SOL    HW218498   3.238   2.548  10.744
 5938SOL     OW18499   2.665   3.264  10.234
 5938SOL    HW118500   2.755   3.278  10.192
 5938SOL    HW218501   2.594   3.266  10.163
 5939SOL     OW18502   2.784   2.365  10.209
 5939SOL    HW118503   2.759   2.356  10.113
 5939SOL    HW218504   2.832   2.283  10.240
 5940SOL     OW18505   2.401   1.926   9.822
 5940SOL    HW118506   2.320   1.927   9.880
 5940SOL    HW218507   2.404   2.009   9.767
 5941SOL     OW18508   3.296   3.050   9.351
 5941SOL    HW118509   3.328   2.974   9.408
 5941SOL    HW218510   3.204   3.077   9.381
 5942SOL     OW18511   2.797   2.098   9.790
 5942SOL    HW118512   2.749   2.139   9.712
 5942SOL    HW218513   2.896   2.096   9.771
 5943SOL     OW18514   2.938   2.545  10.774
 5943SOL    HW118515   2.858   2.484  10.777
 5943SOL    HW218516   3.019   2.492  10.750
 5944SOL     OW18517   3.089   3.432  10.103
 5944SOL    HW118518   3.110   3.506  10.038
 5944SOL    HW218519   3.157   3.432  10.176
 5945SOL     OW18520   2.321   3.014  10.051
 5945SOL    HW118521   2.250   2.987  10.116
 5945SOL    HW218522   2.295   2.986   9.958
 5946SOL     OW18523   3.133   3.659   9.901
 5946SOL    HW118524   3.177   3.723   9.837
 5946SOL    HW218525   3.083   3.711   9.971
 5947SOL     OW18526   2.894   2.411   9.326
 5947SOL    HW118527   2.853   2.493   9.287
 5947SOL    HW218528   2.958   2.437   9.399
 5948SOL     OW18529   1.940   2.418  10.696
 5948SOL    HW118530   2.032   2.417  10.655
 5948SOL    HW218531   1.934   2.492  10.763
 5949SOL     OW18532   2.423   2.084  10.457
 5949SOL    HW118533   2.461   2.000  10.494
 5949SOL    HW218534   2.335   2.103  10.501
 5950SOL     OW18535   2.728   2.316   9.952
 5950SOL    HW118536   2.696   2.388   9.890
 5950SOL    HW218537   2.752   2.235   9.899
 5951SOL     OW18538   2.879   1.901  10.063
 5951SOL    HW118539   2.807   1.906   9.994
 5951SOL    HW218540   2.855   1.832  10.132
 5952SOL     OW18541   3.291   3.035  10.177
 5952SOL    HW118542   3.236   2.951  10.170
 5952SOL    HW218543   3.317   3.064  10.085
 5953SOL     OW18544   3.328   2.452  10.302
 5953SOL    HW118545   3.298   2.357  10.309
 5953SOL    HW218546   3.401   2.468  10.368
 5954SOL     OW18547   3.719   2.695   9.687
 5954SOL    HW118548   3.761   2.631   9.751
 5954SOL    HW218549   3.681   2.644   9.609
 5955SOL     OW18550   2.350   3.247   9.484
 5955SOL    HW118551   2.263   3.232   9.531
 5955SOL    HW218552   2.333   3.273   9.389
 5956SOL     OW18553   3.526   3.142   9.967
 5956SOL    HW118554   3.625   3.150   9.981
 5956SOL    HW218555   3.481   3.226   9.998
 5957SOL     OW18556   3.252   2.437   9.388
 5957SOL    HW118557   3.198   2.416   9.469
 5957SOL    HW218558   3.343   2.396   9.397
 5958SOL     OW18559   2.389   2.118   9.638
 5958SOL    HW118560   2.416   2.059   9.563
 5958SOL    HW218561   2.389   2.213   9.607
 5959SOL     OW18562   3.616   3.085  10.898
 5959SOL    HW118563   3.707   3.046  10.885
 5959SOL    HW218564   3.624   3.181  10.922
 5960SOL     OW18565   2.926   3.209  10.650
 5960SOL    HW118566   2.846   3.186  10.705
 5960SOL    HW218567   3.009   3.183  10.699
 5961SOL     OW18568   3.454   3.491  10.935
 5961SOL    HW118569   3.481   3.525  10.845
 5961SOL    HW218570   3.533   3.453  10.981
 5962SOL     OW18571   2.973   3.057  10.410
 5962SOL    HW118572   2.933   3.101  10.491
 5962SOL    HW218573   2.932   3.094  10.327
 5963SOL     OW18574   3.500   2.961  10.389
 5963SOL    HW118575   3.505   3.042  10.448
 5963SOL    HW218576   3.414   2.963  10.338
 5964SOL     OW18577   2.777   1.951  10.712
 5964SOL    HW118578   2.802   1.931  10.617
 5964SOL    HW218579   2.849   2.007  10.754
 5965SOL     OW18580   2.842   2.978  11.029
 5965SOL    HW118581   2.743   2.984  11.039
 5965SOL    HW218582   2.865   2.898  10.973
 5966SOL     OW18583   2.567   2.912   9.678
 5966SOL    HW118584   2.553   2.919   9.777
 5966SOL    HW218585   2.651   2.861   9.660
 5967SOL     OW18586   2.272   2.675  10.561
 5967SOL    HW118587   2.358   2.687  10.611
 5967SOL    HW218588   2.230   2.588  10.588
 5968SOL     OW18589   3.136   2.248  10.572
 5968SOL    HW118590   3.157   2.322  10.636
 5968SOL    HW218591   3.047   2.265  10.529
 5969SOL     OW18592   1.926   3.426  10.641
 5969SOL    HW118593   1.880   3.508  10.607
 5969SOL    HW218594   2.024   3.445  10.650
 5970SOL     OW18595   2.229   2.962   9.811
 5970SOL    HW118596   2.222   3.045   9.755
 5970SOL    HW218597   2.233   2.882   9.751
 5971SOL     OW18598   2.428   2.399  10.175
 5971SOL    HW118599   2.440   2.465  10.101
 5971SOL    HW218600   2.474   2.433  10.258
 5972SOL     OW18601   3.114   3.210   9.698
 5972SOL    HW118602   3.164   3.287   9.738
 5972SOL    HW218603   3.019   3.212   9.730
 5973SOL     OW18604   3.134   3.307  10.452
 5973SOL    HW118605   3.181   3.320  10.539
 5973SOL    HW218606   3.068   3.233  10.461
 5974SOL     OW18607   3.444   2.501   9.782
 5974SOL    HW118608   3.413   2.562   9.855
 5974SOL    HW218609   3.494   2.553   9.713
 5975SOL     OW18610   2.216   3.372  10.639
 5975SOL    HW118611   2.195   3.328  10.552
 5975SOL    HW218612   2.313   3.398  10.642
 5976SOL     OW18613   2.264   2.613  10.908
 5976SOL    HW118614   2.332   2.668  10.861
 5976SOL    HW218615   2.304   2.525  10.935
 5977SOL     OW18616   3.449   2.641  10.980
 5977SOL    HW118617   3.357   2.679  10.975
 5977SOL    HW218618   3.509   2.688  10.915
 5978SOL     OW18619   2.875   1.967  11.080
 5978SOL    HW118620   2.881   2.052  11.028
 5978SOL    HW218621   2.907   1.891  11.023
 5979SOL     OW18622   2.366   1.912  11.050
 5979SOL    HW118623   2.324   1.855  10.980
 5979SOL    HW218624   2.300   1.981  11.082
 5980SOL     OW18625   2.435   2.732  10.339
 5980SOL    HW118626   2.479   2.821  10.330
 5980SOL    HW218627   2.372   2.732  10.416
 5981SOL     OW18628   3.222   2.724  10.355
 5981SOL    HW118629   3.147   2.724  10.289
 5981SOL    HW218630   3.259   2.632  10.364
 5982SOL     OW18631   3.071   2.387   9.585
 5982SOL    HW118632   3.084   2.303   9.639
 5982SOL    HW218633   3.042   2.461   9.645
 5983SOL     OW18634   1.899   3.172  10.592
 5983SOL    HW118635   1.952   3.123  10.660
 5983SOL    HW218636   1.921   3.270  10.597
 5984SOL     OW18637   2.594   2.496  10.374
 5984SOL    HW118638   2.653   2.470  10.298
 5984SOL    HW218639   2.566   2.592  10.363
 5985SOL     OW18640   3.590   2.797  11.164
 5985SOL    HW118641   3.544   2.790  11.075
 5985SOL    HW218642   3.528   2.841  11.230
 5986SOL     OW18643   3.484   2.229   9.684
 5986SOL    HW118644   3.486   2.153   9.748
 5986SOL    HW218645   3.436   2.306   9.724
 5987SOL     OW18646   2.885   2.628  10.276
 5987SOL    HW118647   2.900   2.649  10.372
 5987SOL    HW218648   2.855   2.533  10.267
 5988SOL     OW18649   2.842   3.435  11.010
 5988SOL    HW118650   2.822   3.479  10.922
 5988SOL    HW218651   2.881   3.344  10.994
 5989SOL     OW18652   3.721   3.380  10.915
 5989SOL    HW118653   3.735   3.407  10.820
 5989SOL    HW218654   3.804   3.402  10.968
 5990SOL     OW18655   2.212   2.760  11.114
 5990SOL    HW118656   2.288   2.804  11.162
 5990SOL    HW218657   2.247   2.713  11.032
 5991SOL     OW18658   3.402   2.136   9.435
 5991SOL    HW118659   3.341   2.061   9.458
 5991SOL    HW218660   3.424   2.188   9.518
 5992SOL     OW18661   3.165   2.700   9.352
 5992SOL    HW118662   3.199   2.607   9.367
 5992SOL    HW218663   3.183   2.727   9.257
 5993SOL     OW18664   2.930   3.195  10.159
 5993SOL    HW118665   2.937   3.111  10.104
 5993SOL    HW218666   2.992   3.264  10.123
 5994SOL     OW18667   2.181   2.672  10.259
 5994SOL    HW118668   2.274   2.708  10.264
 5994SOL    HW218669   2.175   2.587  10.311
 5995SOL     OW18670   2.201   2.371  10.316
 5995SOL    HW118671   2.149   2.288  10.299
 5995SOL    HW218672   2.278   2.376  10.252
 5996SOL     OW18673   3.000   2.242  10.988
 5996SOL    HW118674   2.955   2.305  11.052
 5996SOL    HW218675   3.093   2.273  10.971
 5997SOL     OW18676   3.022   2.069  10.787
 5997SOL    HW118677   3.022   2.133  10.864
 5997SOL    HW218678   3.050   2.117  10.704
 5998SOL     OW18679   1.870   3.188   9.510
 5998SOL    HW118680   1.777   3.209   9.479
 5998SOL    HW218681   1.880   3.089   9.523
 5999SOL     OW18682   1.950   3.663  10.237
 5999SOL    HW118683   1.908   3.577  10.210
 5999SOL    HW218684   2.044   3.666  10.203
 6000SOL     OW18685   2.366   3.430  10.220
 6000SOL    HW118686   2.432   3.504  10.229
 6000SOL    HW218687   2.410   3.351  10.178
 6001SOL     OW18688   2.864   2.658  10.548
 6001SOL    HW118689   2.905   2.626  10.634
 6001SOL    HW218690   2.768   2.631  10.545
 6002SOL     OW18691   1.902   2.406  10.424
 6002SOL    HW118692   1.987   2.373  10.383
 6002SOL    HW218693   1.915   2.421  10.522
 6003SOL     OW18694   2.051   2.382  11.032
 6003SOL    HW118695   2.110   2.342  10.962
 6003SOL    HW218696   1.993   2.453  10.991
 6004SOL     OW18697   3.231   2.812  10.970
 6004SOL    HW118698   3.270   2.901  10.990
 6004SOL    HW218699   3.241   2.792  10.873
 6005SOL     OW18700   2.677   2.434   9.635
 6005SOL    HW118701   2.684   2.345   9.589
 6005SOL    HW218702   2.583   2.468   9.627
 6006SOL     OW18703   3.519   2.466  10.516
 6006SOL    HW118704   3.481   2.397  10.578
 6006SOL    HW218705   3.601   2.430  10.472
 6007SOL     OW18706   2.114   3.426  11.054
 6007SOL    HW118707   2.084   3.483  11.130
 6007SOL    HW218708   2.107   3.329  11.080
 6008SOL     OW18709   2.533   2.326  10.579
 6008SOL    HW118710   2.499   2.237  10.549
 6008SOL    HW218711   2.559   2.380  10.499
 6009SOL     OW18712   2.792   3.540  10.775
 6009SOL    HW118713   2.768   3.522  10.680
 6009SOL    HW218714   2.822   3.634  10.785
 6010SOL     OW18715   2.335   2.362   9.501
 6010SOL    HW118716   2.396   2.442   9.505
 6010SOL    HW218717   2.240   2.393   9.508
 6011SOL     OW18718   2.021   2.999  10.776
 6011SOL    HW118719   2.043   2.938  10.852
 6011SOL    HW218720   2.031   2.950  10.690
 6012SOL     OW18721   3.209   2.921  10.544
 6012SOL    HW118722   3.233   2.858  10.470
 6012SOL    HW218723   3.119   2.961  10.526
 6013SOL     OW18724   3.164   2.717   9.619
 6013SOL    HW118725   3.078   2.686   9.661
 6013SOL    HW218726   3.160   2.703   9.520
 6014SOL     OW18727   3.621   3.609  10.464
 6014SOL    HW118728   3.682   3.639  10.391
 6014SOL    HW218729   3.583   3.520  10.442
 6015SOL     OW18730   3.114   3.593  10.438
 6015SOL    HW118731   3.198   3.598  10.384
 6015SOL    HW218732   3.091   3.497  10.456
 6016SOL     OW18733   1.945   3.120  10.332
 6016SOL    HW118734   1.940   3.119  10.432
 6016SOL    HW218735   1.862   3.079  10.294
 6017SOL     OW18736   2.550   3.524  11.026
 6017SOL    HW118737   2.494   3.605  11.035
 6017SOL    HW218738   2.602   3.528  10.940
 6018SOL     OW18739   3.588   1.997   9.833
 6018SOL    HW118740   3.661   1.980   9.766
 6018SOL    HW218741   3.557   1.910   9.871
 6019SOL     OW18742   3.250   3.435   9.787
 6019SOL    HW118743   3.317   3.447   9.713
 6019SOL    HW218744   3.210   3.524   9.810
 6020SOL     OW18745   1.992   3.656  11.161
 6020SOL    HW118746   1.951   3.582  11.214
 6020SOL    HW218747   2.056   3.707  11.219
 6021SOL     OW18748   3.142   2.789   9.982
 6021SOL    HW118749   3.202   2.708   9.984
 6021SOL    HW218750   3.182   2.858   9.922
 6022SOL     OW18751   2.692   3.135  10.732
 6022SOL    HW118752   2.687   3.168  10.827
 6022SOL    HW218753   2.606   3.154  10.686
 6023SOL     OW18754   2.534   3.478   9.464
 6023SOL    HW118755   2.543   3.488   9.365
 6023SOL    HW218756   2.494   3.389   9.485
 6024SOL     OW18757   3.512   3.582  10.704
 6024SOL    HW118758   3.565   3.592  10.620
 6024SOL    HW218759   3.485   3.672  10.738
 6025SOL     OW18760   3.703   2.037  10.273
 6025SOL    HW118761   3.742   1.952  10.237
 6025SOL    HW218762   3.605   2.039  10.254
 6026SOL     OW18763   3.056   3.474   9.341
 6026SOL    HW118764   3.062   3.381   9.378
 6026SOL    HW218765   2.997   3.474   9.261
 6027SOL     OW18766   2.684   2.864  10.682
 6027SOL    HW118767   2.724   2.863  10.590
 6027SOL    HW218768   2.694   2.956  10.722
 6028SOL     OW18769   2.778   2.772   9.601
 6028SOL    HW118770   2.841   2.810   9.533
 6028SOL    HW218771   2.818   2.689   9.640
 6029SOL     OW18772   3.366   3.469   9.354
 6029SOL    HW118773   3.274   3.506   9.361
 6029SOL    HW218774   3.404   3.489   9.264
 6030SOL     OW18775   2.234   3.150  10.800
 6030SOL    HW118776   2.221   3.243  10.766
 6030SOL    HW218777   2.150   3.098  10.787
 6031SOL     OW18778   3.476   3.154  10.599
 6031SOL    HW118779   3.536   3.157  10.679
 6031SOL    HW218780   3.401   3.218  10.612
 6032SOL     OW18781   2.901   2.960  10.006
 6032SOL    HW118782   2.831   2.913  10.060
 6032SOL    HW218783   2.960   2.892   9.963
 6033SOL     OW18784   2.876   2.098  10.281
 6033SOL    HW118785   2.868   2.062  10.188
 6033SOL    HW218786   2.874   2.022  10.346
 6034SOL     OW18787   2.452   3.349   9.801
 6034SOL    HW118788   2.494   3.291   9.731
 6034SOL    HW218789   2.408   3.428   9.757
 6035SOL     OW18790   3.571   2.247  10.691
 6035SOL    HW118791   3.644   2.316  10.695
 6035SOL    HW218792   3.599   2.172  10.632
 6036SOL     OW18793   2.117   3.210   9.600
 6036SOL    HW118794   2.021   3.211   9.573
 6036SOL    HW218795   2.129   3.263   9.684
 6037SOL     OW18796   1.967   2.875  11.036
 6037SOL    HW118797   1.890   2.842  11.090
 6037SOL    HW218798   2.052   2.845  11.078
 6038SOL     OW18799   2.534   2.065  10.799
 6038SOL    HW118800   2.624   2.049  10.759
 6038SOL    HW218801   2.542   2.070  10.898
 6039SOL     OW18802   3.302   2.718  10.708
 6039SOL    HW118803   3.245   2.770  10.645
 6039SOL    HW218804   3.398   2.730  10.684
 6040SOL     OW18805   3.045   3.197   9.429
 6040SOL    HW118806   2.946   3.186   9.431
 6040SOL    HW218807   3.079   3.212   9.522
 6041SOL     OW18808   2.475   2.704  10.741
 6041SOL    HW118809   2.531   2.785  10.724
 6041SOL    HW218810   2.534   2.624  10.744
 6042SOL     OW18811   3.355   3.629  10.269
 6042SOL    HW118812   3.388   3.693  10.200
 6042SOL    HW218813   3.421   3.623  10.344
 6043SOL     OW18814   2.578   2.427  11.018
 6043SOL    HW118815   2.597   2.492  11.092
 6043SOL    HW218816   2.638   2.347  11.027
 6044SOL     OW18817   3.312   3.082  10.943
 6044SOL    HW118818   3.303   3.072  11.042
 6044SOL    HW218819   3.408   3.075  10.917
 6045SOL     OW18820   2.252   3.603  10.870
 6045SOL    HW118821   2.161   3.644  10.868
 6045SOL    HW218822   2.245   3.509  10.902
 6046SOL     OW18823   3.536   2.745  10.564
 6046SOL    HW118824   3.509   2.656  10.527
 6046SOL    HW218825   3.537   2.813  10.491
 6047SOL     OW18826   3.087   2.187   9.759
 6047SOL    HW118827   3.152   2.113   9.748
 6047SOL    HW218828   3.107   2.237   9.843
 6048SOL     OW18829   2.456   2.607   9.962
 6048SOL    HW118830   2.506   2.692   9.943
 6048SOL    HW218831   2.368   2.609   9.914
 6049SOL     OW18832   3.639   2.204  10.952
 6049SOL    HW118833   3.622   2.235  10.858
 6049SOL    HW218834   3.555   2.167  10.990
 6050SOL     OW18835   3.592   2.796  10.827
 6050SOL    HW118836   3.630   2.887  10.842
 6050SOL    HW218837   3.584   2.779  10.728
 6051SOL     OW18838   2.721   3.236   9.326
 6051SOL    HW118839   2.675   3.251   9.414
 6051SOL    HW218840   2.765   3.321   9.296
 6052SOL     OW18841   2.523   3.652  10.263
 6052SOL    HW118842   2.477   3.740  10.250
 6052SOL    HW218843   2.622   3.664  10.256
 6053SOL     OW18844   2.721   2.818  10.171
 6053SOL    HW118845   2.775   2.749  10.219
 6053SOL    HW218846   2.689   2.887  10.237
 6054SOL     OW18847   2.945   2.846   9.397
 6054SOL    HW118848   2.922   2.899   9.315
 6054SOL    HW218849   3.026   2.790   9.378
 6055SOL     OW18850   3.723   3.431  10.161
 6055SOL    HW118851   3.652   3.419  10.091
 6055SOL    HW218852   3.724   3.352  10.221
 6056SOL     OW18853   2.083   3.176  11.154
 6056SOL    HW118854   2.018   3.103  11.133
 6056SOL    HW218855   2.087   3.190  11.252
 6057SOL     OW18856   1.941   3.102   9.963
 6057SOL    HW118857   1.940   3.055  10.051
 6057SOL    HW218858   2.023   3.074   9.912
 6058SOL     OW18859   2.534   3.253  10.934
 6058SOL    HW118860   2.456   3.203  10.972
 6058SOL    HW218861   2.531   3.348  10.965
 6059SOL     OW18862   3.686   2.054  10.537
 6059SOL    HW118863   3.682   1.964  10.581
 6059SOL    HW218864   3.689   2.043  10.438
 6060SOL     OW18865   2.290   2.286   9.830
 6060SOL    HW118866   2.320   2.214   9.768
 6060SOL    HW218867   2.251   2.246   9.913
 6061SOL     OW18868   3.567   3.349  10.414
 6061SOL    HW118869   3.474   3.324  10.387
 6061SOL    HW218870   3.593   3.299  10.496
 6062SOL     OW18871   2.179   2.409  10.590
 6062SOL    HW118872   2.217   2.350  10.662
 6062SOL    HW218873   2.219   2.383  10.502
 6063SOL     OW18874   2.674   3.448   9.997
 6063SOL    HW118875   2.706   3.458   9.903
 6063SOL    HW218876   2.595   3.386   9.999
 6064SOL     OW18877   3.286   2.076  10.422
 6064SOL    HW118878   3.338   2.011  10.477
 6064SOL    HW218879   3.237   2.139  10.483
 6065SOL     OW18880   2.863   1.896  10.464
 6065SOL    HW118881   2.800   1.824  10.433
 6065SOL    HW218882   2.956   1.860  10.464
 6066SOL     OW18883   2.632   3.192   9.611
 6066SOL    HW118884   2.586   3.105   9.628
 6066SOL    HW218885   2.723   3.189   9.652
 6067SOL     OW18886   2.480   3.429  10.594
 6067SOL    HW118887   2.475   3.511  10.651
 6067SOL    HW218888   2.569   3.426  10.549
 6068SOL     OW18889   3.214   1.914   9.478
 6068SOL    HW118890   3.249   1.873   9.394
 6068SOL    HW218891   3.124   1.876   9.498
 6069SOL     OW18892   3.162   2.315  10.001
 6069SOL    HW118893   3.103   2.395  10.005
 6069SOL    HW218894   3.177   2.280  10.094
 6070SOL     OW18895   3.455   2.083  10.192
 6070SOL    HW118896   3.371   2.082  10.246
 6070SOL    HW218897   3.457   2.166  10.136
 6071SOL     OW18898   1.901   2.939   9.610
 6071SOL    HW118899   2.000   2.928   9.601
 6071SOL    HW218900   1.861   2.853   9.642
 6072SOL     OW18901   2.737   3.508   9.647
 6072SOL    HW118902   2.660   3.473   9.593
 6072SOL    HW218903   2.705   3.579   9.709
 6073SOL     OW18904   2.092   2.490  11.285
 6073SOL    HW118905   1.999   2.488  11.322
 6073SOL    HW218906   2.093   2.451  11.193
 6074SOL     OW18907   1.881   2.230  11.819
 6074SOL    HW118908   1.799   2.273  11.858
 6074SOL    HW218909   1.853   2.157  11.756
 6075SOL     OW18910   2.431   3.137  12.337
 6075SOL    HW118911   2.338   3.130  12.300
 6075SOL    HW218912   2.442   3.226  12.381
 6076SOL     OW18913   3.417   3.373  11.875
 6076SOL    HW118914   3.360   3.357  11.956
 6076SOL    HW218915   3.358   3.383  11.795
 6077SOL     OW18916   2.997   2.565  11.889
 6077SOL    HW118917   3.054   2.643  11.864
 6077SOL    HW218918   2.937   2.591  11.965
 6078SOL     OW18919   3.617   2.469  11.403
 6078SOL    HW118920   3.605   2.456  11.304
 6078SOL    HW218921   3.587   2.388  11.452
 6079SOL     OW18922   2.630   3.006  12.195
 6079SOL    HW118923   2.552   3.023  12.255
 6079SOL    HW218924   2.664   3.093  12.159
 6080SOL     OW18925   2.712   2.660  12.995
 6080SOL    HW118926   2.708   2.736  13.060
 6080SOL    HW218927   2.734   2.696  12.904
 6081SOL     OW18928   2.547   2.874  11.837
 6081SOL    HW118929   2.616   2.858  11.907
 6081SOL    HW218930   2.474   2.931  11.875
 6082SOL     OW18931   2.548   3.023  12.975
 6082SOL    HW118932   2.608   3.102  12.989
 6082SOL    HW218933   2.462   3.054  12.934
 6083SOL     OW18934   2.197   3.297  12.233
 6083SOL    HW118935   2.119   3.266  12.180
 6083SOL    HW218936   2.255   3.355  12.176
 6084SOL     OW18937   3.322   3.367  12.511
 6084SOL    HW118938   3.346   3.461  12.537
 6084SOL    HW218939   3.306   3.313  12.593
 6085SOL     OW18940   2.300   2.254  12.671
 6085SOL    HW118941   2.382   2.198  12.680
 6085SOL    HW218942   2.219   2.196  12.675
 6086SOL     OW18943   3.465   2.309  11.909
 6086SOL    HW118944   3.391   2.355  11.859
 6086SOL    HW218945   3.516   2.377  11.962
 6087SOL     OW18946   2.093   3.575  11.655
 6087SOL    HW118947   2.127   3.652  11.709
 6087SOL    HW218948   2.137   3.575  11.565
 6088SOL     OW18949   2.989   3.203  12.862
 6088SOL    HW118950   3.036   3.203  12.950
 6088SOL    HW218951   2.941   3.116  12.851
 6089SOL     OW18952   2.092   3.296  11.710
 6089SOL    HW118953   2.066   3.392  11.710
 6089SOL    HW218954   2.021   3.242  11.755
 6090SOL     OW18955   2.102   2.953  12.058
 6090SOL    HW118956   2.116   2.869  12.110
 6090SOL    HW218957   2.047   3.017  12.113
 6091SOL     OW18958   2.482   3.648  12.611
 6091SOL    HW118959   2.390   3.631  12.646
 6091SOL    HW218960   2.510   3.740  12.637
 6092SOL     OW18961   2.468   2.826  11.295
 6092SOL    HW118962   2.475   2.910  11.241
 6092SOL    HW218963   2.514   2.839  11.383
 6093SOL     OW18964   3.456   1.976  12.652
 6093SOL    HW118965   3.438   2.043  12.580
 6093SOL    HW218966   3.453   2.022  12.741
 6094SOL     OW18967   1.984   2.505  11.735
 6094SOL    HW118968   1.939   2.417  11.752
 6094SOL    HW218969   1.983   2.559  11.819
 6095SOL     OW18970   3.704   3.629  11.531
 6095SOL    HW118971   3.758   3.600  11.611
 6095SOL    HW218972   3.734   3.719  11.502
 6096SOL     OW18973   1.889   3.458  11.289
 6096SOL    HW118974   1.870   3.362  11.310
 6096SOL    HW218975   1.856   3.516  11.364
 6097SOL     OW18976   3.551   2.784  11.784
 6097SOL    HW118977   3.646   2.755  11.792
 6097SOL    HW218978   3.543   2.849  11.709
 6098SOL     OW18979   3.503   2.970  11.604
 6098SOL    HW118980   3.589   2.972  11.552
 6098SOL    HW218981   3.517   3.017  11.692
 6099SOL     OW18982   1.975   2.599  12.769
 6099SOL    HW118983   2.063   2.586  12.814
 6099SOL    HW218984   1.962   2.696  12.747
 6100SOL     OW18985   2.475   3.227  11.898
 6100SOL    HW118986   2.426   3.140  11.907
 6100SOL    HW218987   2.452   3.270  11.811
 6101SOL     OW18988   3.155   3.090  12.595
 6101SOL    HW118989   3.192   3.017  12.537
 6101SOL    HW218990   3.207   3.095  12.680
 6102SOL     OW18991   2.671   1.866  11.674
 6102SOL    HW118992   2.711   1.957  11.665
 6102SOL    HW218993   2.571   1.874  11.680
 6103SOL     OW18994   2.059   2.838  12.436
 6103SOL    HW118995   2.148   2.793  12.422
 6103SOL    HW218996   1.986   2.773  12.417
 6104SOL     OW18997   3.387   2.861  11.362
 6104SOL    HW118998   3.324   2.785  11.375
 6104SOL    HW218999   3.435   2.879  11.448
 6105SOL     OW19000   3.049   3.654  12.788
 6105SOL    HW119001   3.073   3.714  12.712
 6105SOL    HW219002   3.056   3.559  12.758
 6106SOL     OW19003   2.179   2.113  12.973
 6106SOL    HW119004   2.250   2.184  12.979
 6106SOL    HW219005   2.091   2.152  13.001
 6107SOL     OW19006   3.328   3.279  12.125
 6107SOL    HW119007   3.269   3.285  12.205
 6107SOL    HW219008   3.313   3.191  12.079
 6108SOL     OW19009   3.529   3.576  11.744
 6108SOL    HW119010   3.488   3.553  11.656
 6108SOL    HW219011   3.511   3.502  11.809
 6109SOL     OW19012   2.460   2.591  11.442
 6109SOL    HW119013   2.484   2.660  11.374
 6109SOL    HW219014   2.382   2.624  11.496
 6110SOL     OW19015   3.143   2.207  12.116
 6110SOL    HW119016   3.057   2.157  12.103
 6110SOL    HW219017   3.205   2.153  12.172
 6111SOL     OW19018   3.438   3.524  11.479
 6111SOL    HW119019   3.527   3.570  11.482
 6111SOL    HW219020   3.417   3.500  11.384
 6112SOL     OW19021   2.669   2.467  12.637
 6112SOL    HW119022   2.622   2.464  12.726
 6112SOL    HW219023   2.618   2.412  12.571
 6113SOL     OW19024   3.256   2.331  12.846
 6113SOL    HW119025   3.236   2.374  12.934
 6113SOL    HW219026   3.334   2.269  12.855
 6114SOL     OW19027   2.835   2.752  12.744
 6114SOL    HW119028   2.881   2.668  12.715
 6114SOL    HW219029   2.779   2.786  12.669
 6115SOL     OW19030   2.853   2.272  12.414
 6115SOL    HW119031   2.776   2.306  12.468
 6115SOL    HW219032   2.819   2.221  12.335
 6116SOL     OW19033   2.903   2.563  11.601
 6116SOL    HW119034   2.929   2.559  11.697
 6116SOL    HW219035   2.818   2.512  11.587
 6117SOL     OW19036   1.938   2.673  11.961
 6117SOL    HW119037   2.037   2.661  11.970
 6117SOL    HW219038   1.914   2.768  11.982
 6118SOL     OW19039   1.992   3.683  12.743
 6118SOL    HW119040   1.982   3.668  12.842
 6118SOL    HW219041   1.906   3.719  12.707
 6119SOL     OW19042   2.727   2.210  11.367
 6119SOL    HW119043   2.786   2.273  11.318
 6119SOL    HW219044   2.746   2.116  11.338
 6120SOL     OW19045   3.581   2.447  13.003
 6120SOL    HW119046   3.555   2.536  12.967
 6120SOL    HW219047   3.579   2.379  12.930
 6121SOL     OW19048   3.224   3.006  11.717
 6121SOL    HW119049   3.307   2.977  11.669
 6121SOL    HW219050   3.175   3.073  11.661
 6122SOL     OW19051   2.412   2.058  12.057
 6122SOL    HW119052   2.407   2.053  12.157
 6122SOL    HW219053   2.414   2.154  12.028
 6123SOL     OW19054   2.870   3.318  11.649
 6123SOL    HW119055   2.824   3.390  11.597
 6123SOL    HW219056   2.866   3.338  11.747
 6124SOL     OW19057   2.213   3.663  12.025
 6124SOL    HW119058   2.263   3.577  12.031
 6124SOL    HW219059   2.278   3.740  12.022
 6125SOL     OW19060   3.657   2.928  12.045
 6125SOL    HW119061   3.595   2.913  11.969
 6125SOL    HW219062   3.605   2.939  12.130
 6126SOL     OW19063   3.089   3.412  12.678
 6126SOL    HW119064   3.095   3.335  12.742
 6126SOL    HW219065   3.037   3.386  12.598
 6127SOL     OW19066   2.183   2.805  11.414
 6127SOL    HW119067   2.265   2.844  11.372
 6127SOL    HW219068   2.156   2.723  11.365
 6128SOL     OW19069   3.320   2.597  11.900
 6128SOL    HW119070   3.315   2.532  11.975
 6128SOL    HW219071   3.400   2.656  11.913
 6129SOL     OW19072   2.323   3.128  12.899
 6129SOL    HW119073   2.273   3.129  12.813
 6129SOL    HW219074   2.260   3.110  12.975
 6130SOL     OW19075   2.973   3.638  11.409
 6130SOL    HW119076   2.913   3.576  11.459
 6130SOL    HW219077   3.004   3.594  11.324
 6131SOL     OW19078   3.494   3.239  11.253
 6131SOL    HW119079   3.462   3.333  11.243
 6131SOL    HW219080   3.418   3.176  11.241
 6132SOL     OW19081   2.326   3.605  11.495
 6132SOL    HW119082   2.359   3.644  11.581
 6132SOL    HW219083   2.402   3.598  11.430
 6133SOL     OW19084   3.262   1.969  11.598
 6133SOL    HW119085   3.238   1.932  11.508
 6133SOL    HW219086   3.361   1.985  11.602
 6134SOL     OW19087   2.111   3.647  12.413
 6134SOL    HW119088   2.168   3.582  12.463
 6134SOL    HW219089   2.095   3.614  12.320
 6135SOL     OW19090   2.802   3.560  12.076
 6135SOL    HW119091   2.882   3.503  12.097
 6135SOL    HW219092   2.753   3.520  11.999
 6136SOL     OW19093   2.244   2.562  11.652
 6136SOL    HW119094   2.289   2.472  11.649
 6136SOL    HW219095   2.150   2.551  11.685
 6137SOL     OW19096   3.409   2.084  12.901
 6137SOL    HW119097   3.404   2.121  12.993
 6137SOL    HW219098   3.337   2.015  12.889
 6138SOL     OW19099   2.476   1.984  11.289
 6138SOL    HW119100   2.574   1.962  11.296
 6138SOL    HW219101   2.445   1.967  11.196
 6139SOL     OW19102   2.643   2.126  12.921
 6139SOL    HW119103   2.710   2.065  12.964
 6139SOL    HW219104   2.570   2.145  12.986
 6140SOL     OW19105   2.750   3.376  12.367
 6140SOL    HW119106   2.727   3.351  12.273
 6140SOL    HW219107   2.811   3.307  12.406
 6141SOL     OW19108   3.213   2.452  12.605
 6141SOL    HW119109   3.241   2.409  12.690
 6141SOL    HW219110   3.238   2.548  12.606
 6142SOL     OW19111   2.665   3.264  12.096
 6142SOL    HW119112   2.755   3.278  12.054
 6142SOL    HW219113   2.594   3.266  12.025
 6143SOL     OW19114   2.784   2.365  12.071
 6143SOL    HW119115   2.759   2.356  11.975
 6143SOL    HW219116   2.832   2.283  12.102
 6144SOL     OW19117   2.401   1.926  11.684
 6144SOL    HW119118   2.320   1.927  11.742
 6144SOL    HW219119   2.404   2.009  11.629
 6145SOL     OW19120   3.296   3.050  11.213
 6145SOL    HW119121   3.328   2.974  11.270
 6145SOL    HW219122   3.204   3.077  11.243
 6146SOL     OW19123   2.797   2.098  11.652
 6146SOL    HW119124   2.749   2.139  11.574
 6146SOL    HW219125   2.896   2.096  11.633
 6147SOL     OW19126   2.938   2.545  12.636
 6147SOL    HW119127   2.858   2.484  12.639
 6147SOL    HW219128   3.019   2.492  12.612
 6148SOL     OW19129   3.089   3.432  11.965
 6148SOL    HW119130   3.110   3.506  11.900
 6148SOL    HW219131   3.157   3.432  12.038
 6149SOL     OW19132   2.321   3.014  11.913
 6149SOL    HW119133   2.250   2.987  11.978
 6149SOL    HW219134   2.295   2.986  11.820
 6150SOL     OW19135   3.133   3.659  11.763
 6150SOL    HW119136   3.177   3.723  11.699
 6150SOL    HW219137   3.083   3.711  11.833
 6151SOL     OW19138   2.894   2.411  11.188
 6151SOL    HW119139   2.853   2.493  11.149
 6151SOL    HW219140   2.958   2.437  11.261
 6152SOL     OW19141   1.940   2.418  12.558
 6152SOL    HW119142   2.032   2.417  12.517
 6152SOL    HW219143   1.934   2.492  12.625
 6153SOL     OW19144   2.423   2.084  12.319
 6153SOL    HW119145   2.461   2.000  12.356
 6153SOL    HW219146   2.335   2.103  12.363
 6154SOL     OW19147   2.728   2.316  11.814
 6154SOL    HW119148   2.696   2.388  11.752
 6154SOL    HW219149   2.752   2.235  11.761
 6155SOL     OW19150   2.879   1.901  11.925
 6155SOL    HW119151   2.807   1.906  11.856
 6155SOL    HW219152   2.855   1.832  11.994
 6156SOL     OW19153   3.291   3.035  12.039
 6156SOL    HW119154   3.236   2.951  12.032
 6156SOL    HW219155   3.317   3.064  11.947
 6157SOL     OW19156   3.328   2.452  12.164
 6157SOL    HW119157   3.298   2.357  12.171
 6157SOL    HW219158   3.401   2.468  12.230
 6158SOL     OW19159   3.719   2.695  11.549
 6158SOL    HW119160   3.761   2.631  11.613
 6158SOL    HW219161   3.681   2.644  11.471
 6159SOL     OW19162   2.350   3.247  11.346
 6159SOL    HW119163   2.263   3.232  11.393
 6159SOL    HW219164   2.333   3.273  11.251
 6160SOL     OW19165   3.526   3.142  11.829
 6160SOL    HW119166   3.625   3.150  11.843
 6160SOL    HW219167   3.481   3.226  11.860
 6161SOL     OW19168   3.252   2.437  11.250
 6161SOL    HW119169   3.198   2.416  11.331
 6161SOL    HW219170   3.343   2.396  11.259
 6162SOL     OW19171   2.389   2.118  11.500
 6162SOL    HW119172   2.416   2.059  11.425
 6162SOL    HW219173   2.389   2.213  11.469
 6163SOL     OW19174   3.616   3.085  12.760
 6163SOL    HW119175   3.707   3.046  12.747
 6163SOL    HW219176   3.624   3.181  12.784
 6164SOL     OW19177   2.926   3.209  12.512
 6164SOL    HW119178   2.846   3.186  12.567
 6164SOL    HW219179   3.009   3.183  12.561
 6165SOL     OW19180   3.454   3.491  12.797
 6165SOL    HW119181   3.481   3.525  12.707
 6165SOL    HW219182   3.533   3.453  12.843
 6166SOL     OW19183   2.973   3.057  12.272
 6166SOL    HW119184   2.933   3.101  12.353
 6166SOL    HW219185   2.932   3.094  12.189
 6167SOL     OW19186   3.500   2.961  12.251
 6167SOL    HW119187   3.505   3.042  12.310
 6167SOL    HW219188   3.414   2.963  12.200
 6168SOL     OW19189   2.777   1.951  12.574
 6168SOL    HW119190   2.802   1.931  12.479
 6168SOL    HW219191   2.849   2.007  12.616
 6169SOL     OW19192   2.842   2.978  12.891
 6169SOL    HW119193   2.743   2.984  12.901
 6169SOL    HW219194   2.865   2.898  12.835
 6170SOL     OW19195   2.567   2.912  11.540
 6170SOL    HW119196   2.553   2.919  11.639
 6170SOL    HW219197   2.651   2.861  11.522
 6171SOL     OW19198   2.272   2.675  12.423
 6171SOL    HW119199   2.358   2.687  12.473
 6171SOL    HW219200   2.230   2.588  12.450
 6172SOL     OW19201   3.136   2.248  12.434
 6172SOL    HW119202   3.157   2.322  12.498
 6172SOL    HW219203   3.047   2.265  12.391
 6173SOL     OW19204   1.926   3.426  12.503
 6173SOL    HW119205   1.880   3.508  12.469
 6173SOL    HW219206   2.024   3.445  12.512
 6174SOL     OW19207   2.229   2.962  11.673
 6174SOL    HW119208   2.222   3.045  11.617
 6174SOL    HW219209   2.233   2.882  11.613
 6175SOL     OW19210   2.428   2.399  12.037
 6175SOL    HW119211   2.440   2.465  11.963
 6175SOL    HW219212   2.474   2.433  12.120
 6176SOL     OW19213   3.114   3.210  11.560
 6176SOL    HW119214   3.164   3.287  11.600
 6176SOL    HW219215   3.019   3.212  11.592
 6177SOL     OW19216   3.134   3.307  12.314
 6177SOL    HW119217   3.181   3.320  12.401
 6177SOL    HW219218   3.068   3.233  12.323
 6178SOL     OW19219   3.444   2.501  11.644
 6178SOL    HW119220   3.413   2.562  11.717
 6178SOL    HW219221   3.494   2.553  11.575
 6179SOL     OW19222   2.216   3.372  12.501
 6179SOL    HW119223   2.195   3.328  12.414
 6179SOL    HW219224   2.313   3.398  12.504
 6180SOL     OW19225   2.264   2.613  12.770
 6180SOL    HW119226   2.332   2.668  12.723
 6180SOL    HW219227   2.304   2.525  12.797
 6181SOL     OW19228   3.449   2.641  12.842
 6181SOL    HW119229   3.357   2.679  12.837
 6181SOL    HW219230   3.509   2.688  12.777
 6182SOL     OW19231   2.875   1.967  12.942
 6182SOL    HW119232   2.881   2.052  12.890
 6182SOL    HW219233   2.907   1.891  12.885
 6183SOL     OW19234   2.366   1.912  12.912
 6183SOL    HW119235   2.324   1.855  12.842
 6183SOL    HW219236   2.300   1.981  12.944
 6184SOL     OW19237   2.435   2.732  12.201
 6184SOL    HW119238   2.479   2.821  12.192
 6184SOL    HW219239   2.372   2.732  12.278
 6185SOL     OW19240   3.222   2.724  12.217
 6185SOL    HW119241   3.147   2.724  12.151
 6185SOL    HW219242   3.259   2.632  12.226
 6186SOL     OW19243   3.071   2.387  11.447
 6186SOL    HW119244   3.084   2.303  11.501
 6186SOL    HW219245   3.042   2.461  11.507
 6187SOL     OW19246   1.899   3.172  12.454
 6187SOL    HW119247   1.952   3.123  12.522
 6187SOL    HW219248   1.921   3.270  12.459
 6188SOL     OW19249   2.594   2.496  12.236
 6188SOL    HW119250   2.653   2.470  12.160
 6188SOL    HW219251   2.566   2.592  12.225
 6189SOL     OW19252   3.590   2.797  13.026
 6189SOL    HW119253   3.544   2.790  12.937
 6189SOL    HW219254   3.528   2.841  13.092
 6190SOL     OW19255   3.484   2.229  11.546
 6190SOL    HW119256   3.486   2.153  11.610
 6190SOL    HW219257   3.436   2.306  11.586
 6191SOL     OW19258   2.885   2.628  12.138
 6191SOL    HW119259   2.900   2.649  12.234
 6191SOL    HW219260   2.855   2.533  12.129
 6192SOL     OW19261   2.842   3.435  12.872
 6192SOL    HW119262   2.822   3.479  12.784
 6192SOL    HW219263   2.881   3.344  12.856
 6193SOL     OW19264   3.721   3.380  12.777
 6193SOL    HW119265   3.735   3.407  12.682
 6193SOL    HW219266   3.804   3.402  12.830
 6194SOL     OW19267   2.212   2.760  12.976
 6194SOL    HW119268   2.288   2.804  13.024
 6194SOL    HW219269   2.247   2.713  12.894
 6195SOL     OW19270   3.402   2.136  11.297
 6195SOL    HW119271   3.341   2.061  11.320
 6195SOL    HW219272   3.424   2.188  11.380
 6196SOL     OW19273   3.165   2.700  11.214
 6196SOL    HW119274   3.199   2.607  11.229
 6196SOL    HW219275   3.183   2.727  11.119
 6197SOL     OW19276   2.930   3.195  12.021
 6197SOL    HW119277   2.937   3.111  11.966
 6197SOL    HW219278   2.992   3.264  11.985
 6198SOL     OW19279   2.181   2.672  12.121
 6198SOL    HW119280   2.274   2.708  12.126
 6198SOL    HW219281   2.175   2.587  12.173
 6199SOL     OW19282   2.201   2.371  12.178
 6199SOL    HW119283   2.149   2.288  12.161
 6199SOL    HW219284   2.278   2.376  12.114
 6200SOL     OW19285   3.000   2.242  12.850
 6200SOL    HW119286   2.955   2.305  12.914
 6200SOL    HW219287   3.093   2.273  12.833
 6201SOL     OW19288   3.022   2.069  12.649
 6201SOL    HW119289   3.022   2.133  12.726
 6201SOL    HW219290   3.050   2.117  12.566
 6202SOL     OW19291   1.870   3.188  11.372
 6202SOL    HW119292   1.777   3.209  11.341
 6202SOL    HW219293   1.880   3.089  11.385
 6203SOL     OW19294   1.950   3.663  12.099
 6203SOL    HW119295   1.908   3.577  12.072
 6203SOL    HW219296   2.044   3.666  12.065
 6204SOL     OW19297   2.366   3.430  12.082
 6204SOL    HW119298   2.432   3.504  12.091
 6204SOL    HW219299   2.410   3.351  12.040
 6205SOL     OW19300   2.864   2.658  12.410
 6205SOL    HW119301   2.905   2.626  12.496
 6205SOL    HW219302   2.768   2.631  12.407
 6206SOL     OW19303   1.902   2.406  12.286
 6206SOL    HW119304   1.987   2.373  12.245
 6206SOL    HW219305   1.915   2.421  12.384
 6207SOL     OW19306   2.051   2.382  12.894
 6207SOL    HW119307   2.110   2.342  12.824
 6207SOL    HW219308   1.993   2.453  12.853
 6208SOL     OW19309   3.231   2.812  12.832
 6208SOL    HW119310   3.270   2.901  12.852
 6208SOL    HW219311   3.241   2.792  12.735
 6209SOL     OW19312   2.677   2.434  11.497
 6209SOL    HW119313   2.684   2.345  11.451
 6209SOL    HW219314   2.583   2.468  11.489
 6210SOL     OW19315   3.519   2.466  12.378
 6210SOL    HW119316   3.481   2.397  12.440
 6210SOL    HW219317   3.601   2.430  12.334
 6211SOL     OW19318   2.114   3.426  12.916
 6211SOL    HW119319   2.084   3.483  12.992
 6211SOL    HW219320   2.107   3.329  12.942
 6212SOL     OW19321   2.533   2.326  12.441
 6212SOL    HW119322   2.499   2.237  12.411
 6212SOL    HW219323   2.559   2.380  12.361
 6213SOL     OW19324   2.792   3.540  12.637
 6213SOL    HW119325   2.768   3.522  12.542
 6213SOL    HW219326   2.822   3.634  12.647
 6214SOL     OW19327   2.335   2.362  11.363
 6214SOL    HW119328   2.396   2.442  11.367
 6214SOL    HW219329   2.240   2.393  11.370
 6215SOL     OW19330   2.021   2.999  12.638
 6215SOL    HW119331   2.043   2.938  12.714
 6215SOL    HW219332   2.031   2.950  12.552
 6216SOL     OW19333   3.209   2.921  12.406
 6216SOL    HW119334   3.233   2.858  12.332
 6216SOL    HW219335   3.119   2.961  12.388
 6217SOL     OW19336   3.164   2.717  11.481
 6217SOL    HW119337   3.078   2.686  11.523
 6217SOL    HW219338   3.160   2.703  11.382
 6218SOL     OW19339   3.621   3.609  12.326
 6218SOL    HW119340   3.682   3.639  12.253
 6218SOL    HW219341   3.583   3.520  12.304
 6219SOL     OW19342   3.114   3.593  12.300
 6219SOL    HW119343   3.198   3.598  12.246
 6219SOL    HW219344   3.091   3.497  12.318
 6220SOL     OW19345   1.945   3.120  12.194
 6220SOL    HW119346   1.940   3.119  12.294
 6220SOL    HW219347   1.862   3.079  12.156
 6221SOL     OW19348   2.550   3.524  12.888
 6221SOL    HW119349   2.494   3.605  12.897
 6221SOL    HW219350   2.602   3.528  12.802
 6222SOL     OW19351   3.588   1.997  11.695
 6222SOL    HW119352   3.661   1.980  11.628
 6222SOL    HW219353   3.557   1.910  11.733
 6223SOL     OW19354   3.250   3.435  11.649
 6223SOL    HW119355   3.317   3.447  11.575
 6223SOL    HW219356   3.210   3.524  11.672
 6224SOL     OW19357   1.992   3.656  13.023
 6224SOL    HW119358   1.951   3.582  13.076
 6224SOL    HW219359   2.056   3.707  13.081
 6225SOL     OW19360   3.142   2.789  11.844
 6225SOL    HW119361   3.202   2.708  11.846
 6225SOL    HW219362   3.182   2.858  11.784
 6226SOL     OW19363   2.692   3.135  12.594
 6226SOL    HW119364   2.687   3.168  12.689
 6226SOL    HW219365   2.606   3.154  12.548
 6227SOL     OW19366   2.534   3.478  11.326
 6227SOL    HW119367   2.543   3.488  11.227
 6227SOL    HW219368   2.494   3.389  11.347
 6228SOL     OW19369   3.512   3.582  12.566
 6228SOL    HW119370   3.565   3.592  12.482
 6228SOL    HW219371   3.485   3.672  12.600
 6229SOL     OW19372   3.703   2.037  12.135
 6229SOL    HW119373   3.742   1.952  12.099
 6229SOL    HW219374   3.605   2.039  12.116
 6230SOL     OW19375   3.056   3.474  11.203
 6230SOL    HW119376   3.062   3.381  11.240
 6230SOL    HW219377   2.997   3.474  11.123
 6231SOL     OW19378   2.684   2.864  12.544
 6231SOL    HW119379   2.724   2.863  12.452
 6231SOL    HW219380   2.694   2.956  12.584
 6232SOL     OW19381   2.778   2.772  11.463
 6232SOL    HW119382   2.841   2.810  11.395
 6232SOL    HW219383   2.818   2.689  11.502
 6233SOL     OW19384   3.366   3.469  11.216
 6233SOL    HW119385   3.274   3.506  11.223
 6233SOL    HW219386   3.404   3.489  11.126
 6234SOL     OW19387   2.234   3.150  12.662
 6234SOL    HW119388   2.221   3.243  12.628
 6234SOL    HW219389   2.150   3.098  12.649
 6235SOL     OW19390   3.476   3.154  12.461
 6235SOL    HW119391   3.536   3.157  12.541
 6235SOL    HW219392   3.401   3.218  12.474
 6236SOL     OW19393   2.901   2.960  11.868
 6236SOL    HW119394   2.831   2.913  11.922
 6236SOL    HW219395   2.960   2.892  11.825
 6237SOL     OW19396   2.876   2.098  12.143
 6237SOL    HW119397   2.868   2.062  12.050
 6237SOL    HW219398   2.874   2.022  12.208
 6238SOL     OW19399   2.452   3.349  11.663
 6238SOL    HW119400   2.494   3.291  11.593
 6238SOL    HW219401   2.408   3.428  11.619
 6239SOL     OW19402   3.571   2.247  12.553
 6239SOL    HW119403   3.644   2.316  12.557
 6239SOL    HW219404   3.599   2.172  12.494
 6240SOL     OW19405   2.117   3.210  11.462
 6240SOL    HW119406   2.021   3.211  11.435
 6240SOL    HW219407   2.129   3.263  11.546
 6241SOL     OW19408   1.967   2.875  12.898
 6241SOL    HW119409   1.890   2.842  12.952
 6241SOL    HW219410   2.052   2.845  12.940
 6242SOL     OW19411   2.534   2.065  12.661
 6242SOL    HW119412   2.624   2.049  12.621
 6242SOL    HW219413   2.542   2.070  12.760
 6243SOL     OW19414   3.302   2.718  12.570
 6243SOL    HW119415   3.245   2.770  12.507
 6243SOL    HW219416   3.398   2.730  12.546
 6244SOL     OW19417   3.045   3.197  11.291
 6244SOL    HW119418   2.946   3.186  11.293
 6244SOL    HW219419   3.079   3.212  11.384
 6245SOL     OW19420   2.475   2.704  12.603
 6245SOL    HW119421   2.531   2.785  12.586
 6245SOL    HW219422   2.534   2.624  12.606
 6246SOL     OW19423   3.355   3.629  12.131
 6246SOL    HW119424   3.388   3.693  12.062
 6246SOL    HW219425   3.421   3.623  12.206
 6247SOL     OW19426   2.578   2.427  12.880
 6247SOL    HW119427   2.597   2.492  12.954
 6247SOL    HW219428   2.638   2.347  12.889
 6248SOL     OW19429   3.312   3.082  12.805
 6248SOL    HW119430   3.303   3.072  12.904
 6248SOL    HW219431   3.408   3.075  12.779
 6249SOL     OW19432   2.252   3.603  12.732
 6249SOL    HW119433   2.161   3.644  12.730
 6249SOL    HW219434   2.245   3.509  12.764
 6250SOL     OW19435   3.536   2.745  12.426
 6250SOL    HW119436   3.509   2.656  12.389
 6250SOL    HW219437   3.537   2.813  12.353
 6251SOL     OW19438   3.087   2.187  11.621
 6251SOL    HW119439   3.152   2.113  11.610
 6251SOL    HW219440   3.107   2.237  11.705
 6252SOL     OW19441   2.456   2.607  11.824
 6252SOL    HW119442   2.506   2.692  11.805
 6252SOL    HW219443   2.368   2.609  11.776
 6253SOL     OW19444   3.639   2.204  12.814
 6253SOL    HW119445   3.622   2.235  12.720
 6253SOL    HW219446   3.555   2.167  12.852
 6254SOL     OW19447   3.592   2.796  12.689
 6254SOL    HW119448   3.630   2.887  12.704
 6254SOL    HW219449   3.584   2.779  12.590
 6255SOL     OW19450   2.721   3.236  11.188
 6255SOL    HW119451   2.675   3.251  11.276
 6255SOL    HW219452   2.765   3.321  11.158
 6256SOL     OW19453   2.523   3.652  12.125
 6256SOL    HW119454   2.477   3.740  12.112
 6256SOL    HW219455   2.622   3.664  12.118
 6257SOL     OW19456   2.721   2.818  12.033
 6257SOL    HW119457   2.775   2.749  12.081
 6257SOL    HW219458   2.689   2.887  12.099
 6258SOL     OW19459   2.945   2.846  11.259
 6258SOL    HW119460   2.922   2.899  11.177
 6258SOL    HW219461   3.026   2.790  11.240
 6259SOL     OW19462   3.723   3.431  12.023
 6259SOL    HW119463   3.652   3.419  11.953
 6259SOL    HW219464   3.724   3.352  12.083
 6260SOL     OW19465   2.083   3.176  13.016
 6260SOL    HW119466   2.018   3.103  12.995
 6260SOL    HW219467   2.087   3.190  13.114
 6261SOL     OW19468   1.941   3.102  11.825
 6261SOL    HW119469   1.940   3.055  11.913
 6261SOL    HW219470   2.023   3.074  11.774
 6262SOL     OW19471   2.534   3.253  12.796
 6262SOL    HW119472   2.456   3.203  12.834
 6262SOL    HW219473   2.531   3.348  12.827
 6263SOL     OW19474   3.686   2.054  12.399
 6263SOL    HW119475   3.682   1.964  12.443
 6263SOL    HW219476   3.689   2.043  12.300
 6264SOL     OW19477   2.290   2.286  11.692
 6264SOL    HW119478   2.320   2.214  11.630
 6264SOL    HW219479   2.251   2.246  11.775
 6265SOL     OW19480   3.567   3.349  12.276
 6265SOL    HW119481   3.474   3.324  12.249
 6265SOL    HW219482   3.593   3.299  12.358
 6266SOL     OW19483   2.179   2.409  12.452
 6266SOL    HW119484   2.217   2.350  12.524
 6266SOL    HW219485   2.219   2.383  12.364
 6267SOL     OW19486   2.674   3.448  11.859
 6267SOL    HW119487   2.706   3.458  11.765
 6267SOL    HW219488   2.595   3.386  11.861
 6268SOL     OW19489   3.286   2.076  12.284
 6268SOL    HW119490   3.338   2.011  12.339
 6268SOL    HW219491   3.237   2.139  12.345
 6269SOL     OW19492   2.863   1.896  12.326
 6269SOL    HW119493   2.800   1.824  12.295
 6269SOL    HW219494   2.956   1.860  12.326
 6270SOL     OW19495   2.632   3.192  11.473
 6270SOL    HW119496   2.586   3.105  11.490
 6270SOL    HW219497   2.723   3.189  11.514
 6271SOL     OW19498   2.480   3.429  12.456
 6271SOL    HW119499   2.475   3.511  12.513
 6271SOL    HW219500   2.569   3.426  12.411
 6272SOL     OW19501   3.214   1.914  11.340
 6272SOL    HW119502   3.249   1.873  11.256
 6272SOL    HW219503   3.124   1.876  11.360
 6273SOL     OW19504   3.162   2.315  11.863
 6273SOL    HW119505   3.103   2.395  11.867
 6273SOL    HW219506   3.177   2.280  11.956
 6274SOL     OW19507   3.455   2.083  12.054
 6274SOL    HW119508   3.371   2.082  12.108
 6274SOL    HW219509   3.457   2.166  11.998
 6275SOL     OW19510   1.901   2.939  11.472
 6275SOL    HW119511   2.000   2.928  11.463
 6275SOL    HW219512   1.861   2.853  11.504
 6276SOL     OW19513   2.737   3.508  11.509
 6276SOL    HW119514   2.660   3.473  11.455
 6276SOL    HW219515   2.705   3.579  11.571
 6277SOL     OW19516   2.092   2.490  13.147
 6277SOL    HW119517   1.999   2.488  13.184
 6277SOL    HW219518   2.093   2.451  13.055
 6278SOL     OW19519   1.881   2.230  13.681
 6278SOL    HW119520   1.799   2.273  13.720
 6278SOL    HW219521   1.853   2.157  13.618
 6279SOL     OW19522   3.417   3.373  13.737
 6279SOL    HW119523   3.360   3.357  13.818
 6279SOL    HW219524   3.358   3.383  13.657
 6280SOL     OW19525   2.997   2.565  13.751
 6280SOL    HW119526   3.054   2.643  13.726
 6280SOL    HW219527   2.937   2.591  13.827
 6281SOL     OW19528   3.617   2.469  13.265
 6281SOL    HW119529   3.605   2.456  13.166
 6281SOL    HW219530   3.587   2.388  13.314
 6282SOL     OW19531   2.547   2.874  13.699
 6282SOL    HW119532   2.616   2.858  13.769
 6282SOL    HW219533   2.474   2.931  13.737
 6283SOL     OW19534   3.465   2.309  13.771
 6283SOL    HW119535   3.391   2.355  13.721
 6283SOL    HW219536   3.516   2.377  13.824
 6284SOL     OW19537   2.093   3.575  13.517
 6284SOL    HW119538   2.127   3.652  13.571
 6284SOL    HW219539   2.137   3.575  13.427
 6285SOL     OW19540   2.092   3.296  13.572
 6285SOL    HW119541   2.066   3.392  13.572
 6285SOL    HW219542   2.021   3.242  13.617
 6286SOL     OW19543   2.102   2.953  13.920
 6286SOL    HW119544   2.116   2.869  13.972
 6286SOL    HW219545   2.047   3.017  13.975
 6287SOL     OW19546   2.468   2.826  13.157
 6287SOL    HW119547   2.475   2.910  13.103
 6287SOL    HW219548   2.514   2.839  13.245
 6288SOL     OW19549   1.984   2.505  13.597
 6288SOL    HW119550   1.939   2.417  13.614
 6288SOL    HW219551   1.983   2.559  13.681
 6289SOL     OW19552   3.704   3.629  13.393
 6289SOL    HW119553   3.758   3.600  13.473
 6289SOL    HW219554   3.734   3.719  13.364
 6290SOL     OW19555   1.889   3.458  13.151
 6290SOL    HW119556   1.870   3.362  13.172
 6290SOL    HW219557   1.856   3.516  13.226
 6291SOL     OW19558   3.551   2.784  13.646
 6291SOL    HW119559   3.646   2.755  13.654
 6291SOL    HW219560   3.543   2.849  13.571
 6292SOL     OW19561   3.503   2.970  13.466
 6292SOL    HW119562   3.589   2.972  13.414
 6292SOL    HW219563   3.517   3.017  13.554
 6293SOL     OW19564   2.475   3.227  13.760
 6293SOL    HW119565   2.426   3.140  13.769
 6293SOL    HW219566   2.452   3.270  13.673
 6294SOL     OW19567   2.671   1.866  13.536
 6294SOL    HW119568   2.711   1.957  13.527
 6294SOL    HW219569   2.571   1.874  13.542
 6295SOL     OW19570   3.387   2.861  13.224
 6295SOL    HW119571   3.324   2.785  13.237
 6295SOL    HW219572   3.435   2.879  13.310
 6296SOL     OW19573   3.529   3.576  13.606
 6296SOL    HW119574   3.488   3.553  13.518
 6296SOL    HW219575   3.511   3.502  13.671
 6297SOL     OW19576   2.460   2.591  13.304
 6297SOL    HW119577   2.484   2.660  13.236
 6297SOL    HW219578   2.382   2.624  13.358
 6298SOL     OW19579   3.143   2.207  13.978
 6298SOL    HW119580   3.057   2.157  13.965
 6298SOL    HW219581   3.205   2.153  14.034
 6299SOL     OW19582   3.438   3.524  13.341
 6299SOL    HW119583   3.527   3.570  13.344
 6299SOL    HW219584   3.417   3.500  13.246
 6300SOL     OW19585   2.903   2.563  13.463
 6300SOL    HW119586   2.929   2.559  13.559
 6300SOL    HW219587   2.818   2.512  13.449
 6301SOL     OW19588   1.938   2.673  13.823
 6301SOL    HW119589   2.037   2.661  13.832
 6301SOL    HW219590   1.914   2.768  13.844
 6302SOL     OW19591   2.727   2.210  13.229
 6302SOL    HW119592   2.786   2.273  13.180
 6302SOL    HW219593   2.746   2.116  13.200
 6303SOL     OW19594   3.224   3.006  13.579
 6303SOL    HW119595   3.307   2.977  13.531
 6303SOL    HW219596   3.175   3.073  13.523
 6304SOL     OW19597   2.870   3.318  13.511
 6304SOL    HW119598   2.824   3.390  13.459
 6304SOL    HW219599   2.866   3.338  13.609
 6305SOL     OW19600   2.213   3.663  13.887
 6305SOL    HW119601   2.263   3.577  13.893
 6305SOL    HW219602   2.278   3.740  13.884
 6306SOL     OW19603   3.657   2.928  13.907
 6306SOL    HW119604   3.595   2.913  13.831
 6306SOL    HW219605   3.605   2.939  13.992
 6307SOL     OW19606   2.183   2.805  13.276
 6307SOL    HW119607   2.265   2.844  13.234
 6307SOL    HW219608   2.156   2.723  13.227
 6308SOL     OW19609   3.320   2.597  13.762
 6308SOL    HW119610   3.315   2.532  13.837
 6308SOL    HW219611   3.400   2.656  13.775
 6309SOL     OW19612   2.973   3.638  13.271
 6309SOL    HW119613   2.913   3.576  13.321
 6309SOL    HW219614   3.004   3.594  13.186
 6310SOL     OW19615   3.494   3.239  13.115
 6310SOL    HW119616   3.462   3.333  13.105
 6310SOL    HW219617   3.418   3.176  13.103
 6311SOL     OW19618   2.326   3.605  13.357
 6311SOL    HW119619   2.359   3.644  13.443
 6311SOL    HW219620   2.402   3.598  13.292
 6312SOL     OW19621   3.262   1.969  13.460
 6312SOL    HW119622   3.238   1.932  13.370
 6312SOL    HW219623   3.361   1.985  13.464
 6313SOL     OW19624   2.802   3.560  13.938
 6313SOL    HW119625   2.882   3.503  13.959
 6313SOL    HW219626   2.753   3.520  13.861
 6314SOL     OW19627   2.244   2.562  13.514
 6314SOL    HW119628   2.289   2.472  13.511
 6314SOL    HW219629   2.150   2.551  13.547
 6315SOL     OW19630   2.476   1.984  13.151
 6315SOL    HW119631   2.574   1.962  13.158
 6315SOL    HW219632   2.445   1.967  13.058
 6316SOL     OW19633   2.401   1.926  13.546
 6316SOL    HW119634   2.320   1.927  13.604
 6316SOL    HW219635   2.404   2.009  13.491
 6317SOL     OW19636   3.296   3.050  13.075
 6317SOL    HW119637   3.328   2.974  13.132
 6317SOL    HW219638   3.204   3.077  13.105
 6318SOL     OW19639   2.797   2.098  13.514
 6318SOL    HW119640   2.749   2.139  13.436
 6318SOL    HW219641   2.896   2.096  13.495
 6319SOL     OW19642   2.321   3.014  13.775
 6319SOL    HW119643   2.250   2.987  13.840
 6319SOL    HW219644   2.295   2.986  13.682
 6320SOL     OW19645   3.133   3.659  13.625
 6320SOL    HW119646   3.177   3.723  13.561
 6320SOL    HW219647   3.083   3.711  13.695
 6321SOL     OW19648   2.894   2.411  13.050
 6321SOL    HW119649   2.853   2.493  13.011
 6321SOL    HW219650   2.958   2.437  13.123
 6322SOL     OW19651   2.728   2.316  13.676
 6322SOL    HW119652   2.696   2.388  13.614
 6322SOL    HW219653   2.752   2.235  13.623
 6323SOL     OW19654   2.879   1.901  13.787
 6323SOL    HW119655   2.807   1.906  13.718
 6323SOL    HW219656   2.855   1.832  13.856
 6324SOL     OW19657   3.719   2.695  13.411
 6324SOL    HW119658   3.761   2.631  13.475
 6324SOL    HW219659   3.681   2.644  13.333
 6325SOL     OW19660   2.350   3.247  13.208
 6325SOL    HW119661   2.263   3.232  13.255
 6325SOL    HW219662   2.333   3.273  13.113
 6326SOL     OW19663   3.526   3.142  13.691
 6326SOL    HW119664   3.625   3.150  13.705
 6326SOL    HW219665   3.481   3.226  13.722
 6327SOL     OW19666   3.252   2.437  13.112
 6327SOL    HW119667   3.198   2.416  13.193
 6327SOL    HW219668   3.343   2.396  13.121
 6328SOL     OW19669   2.389   2.118  13.362
 6328SOL    HW119670   2.416   2.059  13.287
 6328SOL    HW219671   2.389   2.213  13.331
 6329SOL     OW19672   2.567   2.912  13.402
 6329SOL    HW119673   2.553   2.919  13.501
 6329SOL    HW219674   2.651   2.861  13.384
 6330SOL     OW19675   2.229   2.962  13.535
 6330SOL    HW119676   2.222   3.045  13.479
 6330SOL    HW219677   2.233   2.882  13.475
 6331SOL     OW19678   2.428   2.399  13.899
 6331SOL    HW119679   2.440   2.465  13.825
 6331SOL    HW219680   2.474   2.433  13.982
 6332SOL     OW19681   3.114   3.210  13.422
 6332SOL    HW119682   3.164   3.287  13.462
 6332SOL    HW219683   3.019   3.212  13.454
 6333SOL     OW19684   3.444   2.501  13.506
 6333SOL    HW119685   3.413   2.562  13.579
 6333SOL    HW219686   3.494   2.553  13.437
 6334SOL     OW19687   3.071   2.387  13.309
 6334SOL    HW119688   3.084   2.303  13.363
 6334SOL    HW219689   3.042   2.461  13.369
 6335SOL     OW19690   3.484   2.229  13.408
 6335SOL    HW119691   3.486   2.153  13.472
 6335SOL    HW219692   3.436   2.306  13.448
 6336SOL     OW19693   3.402   2.136  13.159
 6336SOL    HW119694   3.341   2.061  13.182
 6336SOL    HW219695   3.424   2.188  13.242
 6337SOL     OW19696   3.165   2.700  13.076
 6337SOL    HW119697   3.199   2.607  13.091
 6337SOL    HW219698   3.183   2.727  12.981
 6338SOL     OW19699   1.870   3.188  13.234
 6338SOL    HW119700   1.777   3.209  13.203
 6338SOL    HW219701   1.880   3.089  13.247
 6339SOL     OW19702   2.677   2.434  13.359
 6339SOL    HW119703   2.684   2.345  13.313
 6339SOL    HW219704   2.583   2.468  13.351
 6340SOL     OW19705   2.335   2.362  13.225
 6340SOL    HW119706   2.396   2.442  13.229
 6340SOL    HW219707   2.240   2.393  13.232
 6341SOL     OW19708   3.164   2.717  13.343
 6341SOL    HW119709   3.078   2.686  13.385
 6341SOL    HW219710   3.160   2.703  13.244
 6342SOL     OW19711   3.588   1.997  13.557
 6342SOL    HW119712   3.661   1.980  13.490
 6342SOL    HW219713   3.557   1.910  13.595
 6343SOL     OW19714   3.250   3.435  13.511
 6343SOL    HW119715   3.317   3.447  13.437
 6343SOL    HW219716   3.210   3.524  13.534
 6344SOL     OW19717   3.142   2.789  13.706
 6344SOL    HW119718   3.202   2.708  13.708
 6344SOL    HW219719   3.182   2.858  13.646
 6345SOL     OW19720   2.534   3.478  13.188
 6345SOL    HW119721   2.543   3.488  13.089
 6345SOL    HW219722   2.494   3.389  13.209
 6346SOL     OW19723   3.703   2.037  13.997
 6346SOL    HW119724   3.742   1.952  13.961
 6346SOL    HW219725   3.605   2.039  13.978
 6347SOL     OW19726   2.125   2.188  13.754
 6347SOL    HW119727   2.046   2.239  13.720
 6347SOL    HW219728   2.116   2.173  13.852
 6348SOL     OW19729   3.056   3.474  13.065
 6348SOL    HW119730   3.062   3.381  13.102
 6348SOL    HW219731   2.997   3.474  12.985
 6349SOL     OW19732   2.778   2.772  13.325
 6349SOL    HW119733   2.841   2.810  13.257
 6349SOL    HW219734   2.818   2.689  13.364
 6350SOL     OW19735   3.366   3.469  13.078
 6350SOL    HW119736   3.274   3.506  13.085
 6350SOL    HW219737   3.404   3.489  12.988
 6351SOL     OW19738   2.901   2.960  13.730
 6351SOL    HW119739   2.831   2.913  13.784
 6351SOL    HW219740   2.960   2.892  13.687
 6352SOL     OW19741   2.452   3.349  13.525
 6352SOL    HW119742   2.494   3.291  13.455
 6352SOL    HW219743   2.408   3.428  13.481
 6353SOL     OW19744   2.117   3.210  13.324
 6353SOL    HW119745   2.021   3.211  13.297
 6353SOL    HW219746   2.129   3.263  13.408
 6354SOL     OW19747   3.045   3.197  13.153
 6354SOL    HW119748   2.946   3.186  13.155
 6354SOL    HW219749   3.079   3.212  13.246
 6355SOL     OW19750   3.087   2.187  13.483
 6355SOL    HW119751   3.152   2.113  13.472
 6355SOL    HW219752   3.107   2.237  13.567
 6356SOL     OW19753   2.456   2.607  13.686
 6356SOL    HW119754   2.506   2.692  13.667
 6356SOL    HW219755   2.368   2.609  13.638
 6357SOL     OW19756   2.721   3.236  13.050
 6357SOL    HW119757   2.675   3.251  13.138
 6357SOL    HW219758   2.765   3.321  13.020
 6358SOL     OW19759   2.523   3.652  13.987
 6358SOL    HW119760   2.477   3.740  13.974
 6358SOL    HW219761   2.622   3.664  13.980
 6359SOL     OW19762   2.721   2.818  13.895
 6359SOL    HW119763   2.775   2.749  13.943
 6359SOL    HW219764   2.689   2.887  13.961
 6360SOL     OW19765   2.945   2.846  13.121
 6360SOL    HW119766   2.922   2.899  13.039
 6360SOL    HW219767   3.026   2.790  13.102
 6361SOL     OW19768   1.941   3.102  13.687
 6361SOL    HW119769   1.940   3.055  13.775
 6361SOL    HW219770   2.023   3.074  13.636
 6362SOL     OW19771   2.290   2.286  13.554
 6362SOL    HW119772   2.320   2.214  13.492
 6362SOL    HW219773   2.251   2.246  13.637
 6363SOL     OW19774   3.567   3.349  14.138
 6363SOL    HW119775   3.474   3.324  14.111
 6363SOL    HW219776   3.593   3.299  14.220
 6364SOL     OW19777   2.674   3.448  13.721
 6364SOL    HW119778   2.706   3.458  13.627
 6364SOL    HW219779   2.595   3.386  13.723
 6365SOL     OW19780   2.632   3.192  13.335
 6365SOL    HW119781   2.586   3.105  13.352
 6365SOL    HW219782   2.723   3.189  13.376
 6366SOL     OW19783   3.214   1.914  13.202
 6366SOL    HW119784   3.249   1.873  13.118
 6366SOL    HW219785   3.124   1.876  13.222
 6367SOL     OW19786   3.162   2.315  13.725
 6367SOL    HW119787   3.103   2.395  13.729
 6367SOL    HW219788   3.177   2.280  13.818
 6368SOL     OW19789   1.901   2.939  13.334
 6368SOL    HW119790   2.000   2.928  13.325
 6368SOL    HW219791   1.861   2.853  13.366
 6369SOL     OW19792   2.737   3.508  13.371
 6369SOL    HW119793   2.660   3.473  13.317
 6369SOL    HW219794   2.705   3.579  13.433
 6370SOL     OW19795   2.087   3.999   0.996
 6370SOL    HW119796   2.122   3.982   1.088
 6370SOL    HW219797   1.999   3.954   0.984
 6371SOL     OW19798   1.881   4.092   0.647
 6371SOL    HW119799   1.799   4.135   0.686
 6371SOL    HW219800   1.853   4.019   0.584
 6372SOL     OW19801   3.617   4.331   0.231
 6372SOL    HW119802   3.605   4.318   0.132
 6372SOL    HW219803   3.587   4.250   0.280
 6373SOL     OW19804   2.300   4.116   1.499
 6373SOL    HW119805   2.382   4.060   1.508
 6373SOL    HW219806   2.219   4.058   1.503
 6374SOL     OW19807   3.456   3.838   1.480
 6374SOL    HW119808   3.438   3.905   1.408
 6374SOL    HW219809   3.453   3.884   1.569
 6375SOL     OW19810   2.671   3.728   0.502
 6375SOL    HW119811   2.711   3.819   0.493
 6375SOL    HW219812   2.571   3.736   0.508
 6376SOL     OW19813   3.143   4.069   0.944
 6376SOL    HW119814   3.057   4.019   0.931
 6376SOL    HW219815   3.205   4.015   1.000
 6377SOL     OW19816   2.412   3.920   0.885
 6377SOL    HW119817   2.407   3.915   0.985
 6377SOL    HW219818   2.414   4.016   0.856
 6378SOL     OW19819   2.064   4.009   1.498
 6378SOL    HW119820   1.984   4.069   1.485
 6378SOL    HW219821   2.054   3.960   1.584
 6379SOL     OW19822   3.262   3.831   0.426
 6379SOL    HW119823   3.238   3.794   0.336
 6379SOL    HW219824   3.361   3.847   0.430
 6380SOL     OW19825   3.409   3.946   1.729
 6380SOL    HW119826   3.404   3.983   1.821
 6380SOL    HW219827   3.337   3.877   1.717
 6381SOL     OW19828   2.643   3.988   1.749
 6381SOL    HW119829   2.710   3.927   1.792
 6381SOL    HW219830   2.570   4.007   1.814
 6382SOL     OW19831   2.401   3.788   0.512
 6382SOL    HW119832   2.320   3.789   0.570
 6382SOL    HW219833   2.404   3.871   0.457
 6383SOL     OW19834   2.159   3.759   0.171
 6383SOL    HW119835   2.208   3.843   0.150
 6383SOL    HW219836   2.221   3.694   0.216
 6384SOL     OW19837   2.423   3.946   1.147
 6384SOL    HW119838   2.461   3.862   1.184
 6384SOL    HW219839   2.335   3.965   1.191
 6385SOL     OW19840   2.879   3.763   0.753
 6385SOL    HW119841   2.807   3.768   0.684
 6385SOL    HW219842   2.855   3.694   0.822
 6386SOL     OW19843   2.777   3.813   1.402
 6386SOL    HW119844   2.802   3.793   1.307
 6386SOL    HW219845   2.849   3.869   1.444
 6387SOL     OW19846   3.136   4.110   1.262
 6387SOL    HW119847   3.157   4.184   1.326
 6387SOL    HW219848   3.047   4.127   1.219
 6388SOL     OW19849   2.366   3.774   1.740
 6388SOL    HW119850   2.324   3.717   1.670
 6388SOL    HW219851   2.300   3.843   1.772
 6389SOL     OW19852   2.169   3.937   1.231
 6389SOL    HW119853   2.146   3.974   1.321
 6389SOL    HW219854   2.139   3.842   1.225
 6390SOL     OW19855   3.402   3.998   0.125
 6390SOL    HW119856   3.341   3.923   0.148
 6390SOL    HW219857   3.424   4.050   0.208
 6391SOL     OW19858   3.022   3.931   1.477
 6391SOL    HW119859   3.022   3.995   1.554
 6391SOL    HW219860   3.050   3.979   1.394
 6392SOL     OW19861   2.765   3.810   0.133
 6392SOL    HW119862   2.816   3.811   0.047
 6392SOL    HW219863   2.821   3.768   0.204
 6393SOL     OW19864   3.588   3.859   0.523
 6393SOL    HW119865   3.661   3.842   0.456
 6393SOL    HW219866   3.557   3.772   0.561
 6394SOL     OW19867   3.703   3.899   0.963
 6394SOL    HW119868   3.742   3.814   0.927
 6394SOL    HW219869   3.605   3.901   0.944
 6395SOL     OW19870   2.534   3.927   1.489
 6395SOL    HW119871   2.624   3.911   1.449
 6395SOL    HW219872   2.542   3.932   1.588
 6396SOL     OW19873   1.934   3.890   0.318
 6396SOL    HW119874   1.917   3.973   0.264
 6396SOL    HW219875   2.024   3.853   0.296
 6397SOL     OW19876   3.087   4.049   0.449
 6397SOL    HW119877   3.152   3.975   0.438
 6397SOL    HW219878   3.107   4.099   0.533
 6398SOL     OW19879   3.639   4.066   1.642
 6398SOL    HW119880   3.622   4.097   1.548
 6398SOL    HW219881   3.555   4.029   1.680
 6399SOL     OW19882   3.686   3.916   1.227
 6399SOL    HW119883   3.682   3.826   1.271
 6399SOL    HW219884   3.689   3.905   1.128
 6400SOL     OW19885   3.286   3.938   1.112
 6400SOL    HW119886   3.338   3.873   1.167
 6400SOL    HW219887   3.237   4.001   1.173
 6401SOL     OW19888   2.863   3.758   1.154
 6401SOL    HW119889   2.800   3.686   1.123
 6401SOL    HW219890   2.956   3.722   1.154
 6402SOL     OW19891   3.214   3.776   0.168
 6402SOL    HW119892   3.249   3.735   0.084
 6402SOL    HW219893   3.124   3.738   0.188
 6403SOL     OW19894   3.162   4.177   0.691
 6403SOL    HW119895   3.103   4.257   0.695
 6403SOL    HW219896   3.177   4.142   0.784
 6404SOL     OW19897   3.455   3.945   0.882
 6404SOL    HW119898   3.371   3.944   0.936
 6404SOL    HW219899   3.457   4.028   0.826
 6405SOL     OW19900   2.087   3.999   2.858
 6405SOL    HW119901   2.122   3.982   2.950
 6405SOL    HW219902   1.999   3.954   2.846
 6406SOL     OW19903   1.881   4.092   2.509
 6406SOL    HW119904   1.799   4.135   2.548
 6406SOL    HW219905   1.853   4.019   2.446
 6407SOL     OW19906   3.617   4.331   2.093
 6407SOL    HW119907   3.605   4.318   1.994
 6407SOL    HW219908   3.587   4.250   2.142
 6408SOL     OW19909   2.300   4.116   3.361
 6408SOL    HW119910   2.382   4.060   3.370
 6408SOL    HW219911   2.219   4.058   3.365
 6409SOL     OW19912   3.456   3.838   3.342
 6409SOL    HW119913   3.438   3.905   3.270
 6409SOL    HW219914   3.453   3.884   3.431
 6410SOL     OW19915   2.671   3.728   2.364
 6410SOL    HW119916   2.711   3.819   2.355
 6410SOL    HW219917   2.571   3.736   2.370
 6411SOL     OW19918   3.143   4.069   2.806
 6411SOL    HW119919   3.057   4.019   2.793
 6411SOL    HW219920   3.205   4.015   2.862
 6412SOL     OW19921   2.412   3.920   2.747
 6412SOL    HW119922   2.407   3.915   2.847
 6412SOL    HW219923   2.414   4.016   2.718
 6413SOL     OW19924   2.064   4.009   3.360
 6413SOL    HW119925   1.984   4.069   3.347
 6413SOL    HW219926   2.054   3.960   3.446
 6414SOL     OW19927   3.262   3.831   2.288
 6414SOL    HW119928   3.238   3.794   2.198
 6414SOL    HW219929   3.361   3.847   2.292
 6415SOL     OW19930   3.409   3.946   3.591
 6415SOL    HW119931   3.404   3.983   3.683
 6415SOL    HW219932   3.337   3.877   3.579
 6416SOL     OW19933   2.476   3.846   1.979
 6416SOL    HW119934   2.574   3.824   1.986
 6416SOL    HW219935   2.445   3.829   1.886
 6417SOL     OW19936   2.643   3.988   3.611
 6417SOL    HW119937   2.710   3.927   3.654
 6417SOL    HW219938   2.570   4.007   3.676
 6418SOL     OW19939   2.401   3.788   2.374
 6418SOL    HW119940   2.320   3.789   2.432
 6418SOL    HW219941   2.404   3.871   2.319
 6419SOL     OW19942   2.159   3.759   2.033
 6419SOL    HW119943   2.208   3.843   2.012
 6419SOL    HW219944   2.221   3.694   2.078
 6420SOL     OW19945   2.423   3.946   3.009
 6420SOL    HW119946   2.461   3.862   3.046
 6420SOL    HW219947   2.335   3.965   3.053
 6421SOL     OW19948   2.879   3.763   2.615
 6421SOL    HW119949   2.807   3.768   2.546
 6421SOL    HW219950   2.855   3.694   2.684
 6422SOL     OW19951   2.777   3.813   3.264
 6422SOL    HW119952   2.802   3.793   3.169
 6422SOL    HW219953   2.849   3.869   3.306
 6423SOL     OW19954   3.136   4.110   3.124
 6423SOL    HW119955   3.157   4.184   3.188
 6423SOL    HW219956   3.047   4.127   3.081
 6424SOL     OW19957   2.366   3.774   3.602
 6424SOL    HW119958   2.324   3.717   3.532
 6424SOL    HW219959   2.300   3.843   3.634
 6425SOL     OW19960   2.169   3.937   3.093
 6425SOL    HW119961   2.146   3.974   3.183
 6425SOL    HW219962   2.139   3.842   3.087
 6426SOL     OW19963   3.402   3.998   1.987
 6426SOL    HW119964   3.341   3.923   2.010
 6426SOL    HW219965   3.424   4.050   2.070
 6427SOL     OW19966   3.022   3.931   3.339
 6427SOL    HW119967   3.022   3.995   3.416
 6427SOL    HW219968   3.050   3.979   3.256
 6428SOL     OW19969   2.765   3.810   1.995
 6428SOL    HW119970   2.816   3.811   1.909
 6428SOL    HW219971   2.821   3.768   2.066
 6429SOL     OW19972   3.588   3.859   2.385
 6429SOL    HW119973   3.661   3.842   2.318
 6429SOL    HW219974   3.557   3.772   2.423
 6430SOL     OW19975   3.703   3.899   2.825
 6430SOL    HW119976   3.742   3.814   2.789
 6430SOL    HW219977   3.605   3.901   2.806
 6431SOL     OW19978   2.534   3.927   3.351
 6431SOL    HW119979   2.624   3.911   3.311
 6431SOL    HW219980   2.542   3.932   3.450
 6432SOL     OW19981   1.937   4.069   1.895
 6432SOL    HW119982   1.845   4.041   1.866
 6432SOL    HW219983   1.968   4.146   1.839
 6433SOL     OW19984   1.934   3.890   2.180
 6433SOL    HW119985   1.917   3.973   2.126
 6433SOL    HW219986   2.024   3.853   2.158
 6434SOL     OW19987   3.087   4.049   2.311
 6434SOL    HW119988   3.152   3.975   2.300
 6434SOL    HW219989   3.107   4.099   2.395
 6435SOL     OW19990   3.639   4.066   3.504
 6435SOL    HW119991   3.622   4.097   3.410
 6435SOL    HW219992   3.555   4.029   3.542
 6436SOL     OW19993   3.686   3.916   3.089
 6436SOL    HW119994   3.682   3.826   3.133
 6436SOL    HW219995   3.689   3.905   2.990
 6437SOL     OW19996   3.286   3.938   2.974
 6437SOL    HW119997   3.338   3.873   3.029
 6437SOL    HW219998   3.237   4.001   3.035
 6438SOL     OW19999   2.863   3.758   3.016
 6438SOL    HW120000   2.800   3.686   2.985
 6438SOL    HW220001   2.956   3.722   3.016
 6439SOL     OW20002   3.214   3.776   2.030
 6439SOL    HW120003   3.249   3.735   1.946
 6439SOL    HW220004   3.124   3.738   2.050
 6440SOL     OW20005   3.162   4.177   2.553
 6440SOL    HW120006   3.103   4.257   2.557
 6440SOL    HW220007   3.177   4.142   2.646
 6441SOL     OW20008   3.455   3.945   2.744
 6441SOL    HW120009   3.371   3.944   2.798
 6441SOL    HW220010   3.457   4.028   2.688
 6442SOL     OW20011   2.087   3.999   4.720
 6442SOL    HW120012   2.122   3.982   4.812
 6442SOL    HW220013   1.999   3.954   4.708
 6443SOL     OW20014   1.881   4.092   4.371
 6443SOL    HW120015   1.799   4.135   4.410
 6443SOL    HW220016   1.853   4.019   4.308
 6444SOL     OW20017   3.617   4.331   3.955
 6444SOL    HW120018   3.605   4.318   3.856
 6444SOL    HW220019   3.587   4.250   4.004
 6445SOL     OW20020   2.300   4.116   5.223
 6445SOL    HW120021   2.382   4.060   5.232
 6445SOL    HW220022   2.219   4.058   5.227
 6446SOL     OW20023   3.456   3.838   5.204
 6446SOL    HW120024   3.438   3.905   5.132
 6446SOL    HW220025   3.453   3.884   5.293
 6447SOL     OW20026   2.671   3.728   4.226
 6447SOL    HW120027   2.711   3.819   4.217
 6447SOL    HW220028   2.571   3.736   4.232
 6448SOL     OW20029   3.143   4.069   4.668
 6448SOL    HW120030   3.057   4.019   4.655
 6448SOL    HW220031   3.205   4.015   4.724
 6449SOL     OW20032   2.412   3.920   4.609
 6449SOL    HW120033   2.407   3.915   4.709
 6449SOL    HW220034   2.414   4.016   4.580
 6450SOL     OW20035   2.064   4.009   5.222
 6450SOL    HW120036   1.984   4.069   5.209
 6450SOL    HW220037   2.054   3.960   5.308
 6451SOL     OW20038   3.262   3.831   4.150
 6451SOL    HW120039   3.238   3.794   4.060
 6451SOL    HW220040   3.361   3.847   4.154
 6452SOL     OW20041   3.409   3.946   5.453
 6452SOL    HW120042   3.404   3.983   5.545
 6452SOL    HW220043   3.337   3.877   5.441
 6453SOL     OW20044   2.476   3.846   3.841
 6453SOL    HW120045   2.574   3.824   3.848
 6453SOL    HW220046   2.445   3.829   3.748
 6454SOL     OW20047   2.643   3.988   5.473
 6454SOL    HW120048   2.710   3.927   5.516
 6454SOL    HW220049   2.570   4.007   5.538
 6455SOL     OW20050   2.401   3.788   4.236
 6455SOL    HW120051   2.320   3.789   4.294
 6455SOL    HW220052   2.404   3.871   4.181
 6456SOL     OW20053   2.159   3.759   3.895
 6456SOL    HW120054   2.208   3.843   3.874
 6456SOL    HW220055   2.221   3.694   3.940
 6457SOL     OW20056   2.423   3.946   4.871
 6457SOL    HW120057   2.461   3.862   4.908
 6457SOL    HW220058   2.335   3.965   4.915
 6458SOL     OW20059   2.879   3.763   4.477
 6458SOL    HW120060   2.807   3.768   4.408
 6458SOL    HW220061   2.855   3.694   4.546
 6459SOL     OW20062   2.777   3.813   5.126
 6459SOL    HW120063   2.802   3.793   5.031
 6459SOL    HW220064   2.849   3.869   5.168
 6460SOL     OW20065   3.136   4.110   4.986
 6460SOL    HW120066   3.157   4.184   5.050
 6460SOL    HW220067   3.047   4.127   4.943
 6461SOL     OW20068   2.366   3.774   5.464
 6461SOL    HW120069   2.324   3.717   5.394
 6461SOL    HW220070   2.300   3.843   5.496
 6462SOL     OW20071   2.169   3.937   4.955
 6462SOL    HW120072   2.146   3.974   5.045
 6462SOL    HW220073   2.139   3.842   4.949
 6463SOL     OW20074   3.402   3.998   3.849
 6463SOL    HW120075   3.341   3.923   3.872
 6463SOL    HW220076   3.424   4.050   3.932
 6464SOL     OW20077   3.022   3.931   5.201
 6464SOL    HW120078   3.022   3.995   5.278
 6464SOL    HW220079   3.050   3.979   5.118
 6465SOL     OW20080   2.765   3.810   3.857
 6465SOL    HW120081   2.816   3.811   3.771
 6465SOL    HW220082   2.821   3.768   3.928
 6466SOL     OW20083   3.588   3.859   4.247
 6466SOL    HW120084   3.661   3.842   4.180
 6466SOL    HW220085   3.557   3.772   4.285
 6467SOL     OW20086   3.703   3.899   4.687
 6467SOL    HW120087   3.742   3.814   4.651
 6467SOL    HW220088   3.605   3.901   4.668
 6468SOL     OW20089   2.534   3.927   5.213
 6468SOL    HW120090   2.624   3.911   5.173
 6468SOL    HW220091   2.542   3.932   5.312
 6469SOL     OW20092   1.937   4.069   3.757
 6469SOL    HW120093   1.845   4.041   3.728
 6469SOL    HW220094   1.968   4.146   3.701
 6470SOL     OW20095   1.934   3.890   4.042
 6470SOL    HW120096   1.917   3.973   3.988
 6470SOL    HW220097   2.024   3.853   4.020
 6471SOL     OW20098   3.087   4.049   4.173
 6471SOL    HW120099   3.152   3.975   4.162
 6471SOL    HW220100   3.107   4.099   4.257
 6472SOL     OW20101   3.639   4.066   5.366
 6472SOL    HW120102   3.622   4.097   5.272
 6472SOL    HW220103   3.555   4.029   5.404
 6473SOL     OW20104   3.686   3.916   4.951
 6473SOL    HW120105   3.682   3.826   4.995
 6473SOL    HW220106   3.689   3.905   4.852
 6474SOL     OW20107   3.286   3.938   4.836
 6474SOL    HW120108   3.338   3.873   4.891
 6474SOL    HW220109   3.237   4.001   4.897
 6475SOL     OW20110   2.863   3.758   4.878
 6475SOL    HW120111   2.800   3.686   4.847
 6475SOL    HW220112   2.956   3.722   4.878
 6476SOL     OW20113   3.214   3.776   3.892
 6476SOL    HW120114   3.249   3.735   3.808
 6476SOL    HW220115   3.124   3.738   3.912
 6477SOL     OW20116   3.162   4.177   4.415
 6477SOL    HW120117   3.103   4.257   4.419
 6477SOL    HW220118   3.177   4.142   4.508
 6478SOL     OW20119   3.455   3.945   4.606
 6478SOL    HW120120   3.371   3.944   4.660
 6478SOL    HW220121   3.457   4.028   4.550
 6479SOL     OW20122   2.087   3.999   6.582
 6479SOL    HW120123   2.122   3.982   6.674
 6479SOL    HW220124   1.999   3.954   6.570
 6480SOL     OW20125   1.881   4.092   6.233
 6480SOL    HW120126   1.799   4.135   6.272
 6480SOL    HW220127   1.853   4.019   6.170
 6481SOL     OW20128   3.617   4.331   5.817
 6481SOL    HW120129   3.605   4.318   5.718
 6481SOL    HW220130   3.587   4.250   5.866
 6482SOL     OW20131   2.300   4.116   7.085
 6482SOL    HW120132   2.382   4.060   7.094
 6482SOL    HW220133   2.219   4.058   7.089
 6483SOL     OW20134   3.456   3.838   7.066
 6483SOL    HW120135   3.438   3.905   6.994
 6483SOL    HW220136   3.453   3.884   7.155
 6484SOL     OW20137   2.671   3.728   6.088
 6484SOL    HW120138   2.711   3.819   6.079
 6484SOL    HW220139   2.571   3.736   6.094
 6485SOL     OW20140   3.143   4.069   6.530
 6485SOL    HW120141   3.057   4.019   6.517
 6485SOL    HW220142   3.205   4.015   6.586
 6486SOL     OW20143   2.412   3.920   6.471
 6486SOL    HW120144   2.407   3.915   6.571
 6486SOL    HW220145   2.414   4.016   6.442
 6487SOL     OW20146   2.064   4.009   7.084
 6487SOL    HW120147   1.984   4.069   7.071
 6487SOL    HW220148   2.054   3.960   7.170
 6488SOL     OW20149   3.262   3.831   6.012
 6488SOL    HW120150   3.238   3.794   5.922
 6488SOL    HW220151   3.361   3.847   6.016
 6489SOL     OW20152   3.409   3.946   7.315
 6489SOL    HW120153   3.404   3.983   7.407
 6489SOL    HW220154   3.337   3.877   7.303
 6490SOL     OW20155   2.476   3.846   5.703
 6490SOL    HW120156   2.574   3.824   5.710
 6490SOL    HW220157   2.445   3.829   5.610
 6491SOL     OW20158   2.643   3.988   7.335
 6491SOL    HW120159   2.710   3.927   7.378
 6491SOL    HW220160   2.570   4.007   7.400
 6492SOL     OW20161   2.401   3.788   6.098
 6492SOL    HW120162   2.320   3.789   6.156
 6492SOL    HW220163   2.404   3.871   6.043
 6493SOL     OW20164   2.159   3.759   5.757
 6493SOL    HW120165   2.208   3.843   5.736
 6493SOL    HW220166   2.221   3.694   5.802
 6494SOL     OW20167   2.423   3.946   6.733
 6494SOL    HW120168   2.461   3.862   6.770
 6494SOL    HW220169   2.335   3.965   6.777
 6495SOL     OW20170   2.879   3.763   6.339
 6495SOL    HW120171   2.807   3.768   6.270
 6495SOL    HW220172   2.855   3.694   6.408
 6496SOL     OW20173   2.777   3.813   6.988
 6496SOL    HW120174   2.802   3.793   6.893
 6496SOL    HW220175   2.849   3.869   7.030
 6497SOL     OW20176   3.136   4.110   6.848
 6497SOL    HW120177   3.157   4.184   6.912
 6497SOL    HW220178   3.047   4.127   6.805
 6498SOL     OW20179   2.366   3.774   7.326
 6498SOL    HW120180   2.324   3.717   7.256
 6498SOL    HW220181   2.300   3.843   7.358
 6499SOL     OW20182   2.169   3.937   6.817
 6499SOL    HW120183   2.146   3.974   6.907
 6499SOL    HW220184   2.139   3.842   6.811
 6500SOL     OW20185   3.402   3.998   5.711
 6500SOL    HW120186   3.341   3.923   5.734
 6500SOL    HW220187   3.424   4.050   5.794
 6501SOL     OW20188   3.022   3.931   7.063
 6501SOL    HW120189   3.022   3.995   7.140
 6501SOL    HW220190   3.050   3.979   6.980
 6502SOL     OW20191   2.765   3.810   5.719
 6502SOL    HW120192   2.816   3.811   5.633
 6502SOL    HW220193   2.821   3.768   5.790
 6503SOL     OW20194   3.588   3.859   6.109
 6503SOL    HW120195   3.661   3.842   6.042
 6503SOL    HW220196   3.557   3.772   6.147
 6504SOL     OW20197   3.703   3.899   6.549
 6504SOL    HW120198   3.742   3.814   6.513
 6504SOL    HW220199   3.605   3.901   6.530
 6505SOL     OW20200   2.534   3.927   7.075
 6505SOL    HW120201   2.624   3.911   7.035
 6505SOL    HW220202   2.542   3.932   7.174
 6506SOL     OW20203   1.937   4.069   5.619
 6506SOL    HW120204   1.845   4.041   5.590
 6506SOL    HW220205   1.968   4.146   5.563
 6507SOL     OW20206   1.934   3.890   5.904
 6507SOL    HW120207   1.917   3.973   5.850
 6507SOL    HW220208   2.024   3.853   5.882
 6508SOL     OW20209   3.087   4.049   6.035
 6508SOL    HW120210   3.152   3.975   6.024
 6508SOL    HW220211   3.107   4.099   6.119
 6509SOL     OW20212   3.639   4.066   7.228
 6509SOL    HW120213   3.622   4.097   7.134
 6509SOL    HW220214   3.555   4.029   7.266
 6510SOL     OW20215   3.686   3.916   6.813
 6510SOL    HW120216   3.682   3.826   6.857
 6510SOL    HW220217   3.689   3.905   6.714
 6511SOL     OW20218   3.286   3.938   6.698
 6511SOL    HW120219   3.338   3.873   6.753
 6511SOL    HW220220   3.237   4.001   6.759
 6512SOL     OW20221   2.863   3.758   6.740
 6512SOL    HW120222   2.800   3.686   6.709
 6512SOL    HW220223   2.956   3.722   6.740
 6513SOL     OW20224   3.214   3.776   5.754
 6513SOL    HW120225   3.249   3.735   5.670
 6513SOL    HW220226   3.124   3.738   5.774
 6514SOL     OW20227   3.162   4.177   6.277
 6514SOL    HW120228   3.103   4.257   6.281
 6514SOL    HW220229   3.177   4.142   6.370
 6515SOL     OW20230   3.455   3.945   6.468
 6515SOL    HW120231   3.371   3.944   6.522
 6515SOL    HW220232   3.457   4.028   6.412
 6516SOL     OW20233   2.087   3.999   8.444
 6516SOL    HW120234   2.122   3.982   8.536
 6516SOL    HW220235   1.999   3.954   8.432
 6517SOL     OW20236   1.881   4.092   8.095
 6517SOL    HW120237   1.799   4.135   8.134
 6517SOL    HW220238   1.853   4.019   8.032
 6518SOL     OW20239   3.617   4.331   7.679
 6518SOL    HW120240   3.605   4.318   7.580
 6518SOL    HW220241   3.587   4.250   7.728
 6519SOL     OW20242   2.300   4.116   8.947
 6519SOL    HW120243   2.382   4.060   8.956
 6519SOL    HW220244   2.219   4.058   8.951
 6520SOL     OW20245   3.456   3.838   8.928
 6520SOL    HW120246   3.438   3.905   8.856
 6520SOL    HW220247   3.453   3.884   9.017
 6521SOL     OW20248   2.671   3.728   7.950
 6521SOL    HW120249   2.711   3.819   7.941
 6521SOL    HW220250   2.571   3.736   7.956
 6522SOL     OW20251   3.143   4.069   8.392
 6522SOL    HW120252   3.057   4.019   8.379
 6522SOL    HW220253   3.205   4.015   8.448
 6523SOL     OW20254   2.412   3.920   8.333
 6523SOL    HW120255   2.407   3.915   8.433
 6523SOL    HW220256   2.414   4.016   8.304
 6524SOL     OW20257   2.064   4.009   8.946
 6524SOL    HW120258   1.984   4.069   8.933
 6524SOL    HW220259   2.054   3.960   9.032
 6525SOL     OW20260   3.262   3.831   7.874
 6525SOL    HW120261   3.238   3.794   7.784
 6525SOL    HW220262   3.361   3.847   7.878
 6526SOL     OW20263   3.409   3.946   9.177
 6526SOL    HW120264   3.404   3.983   9.269
 6526SOL    HW220265   3.337   3.877   9.165
 6527SOL     OW20266   2.476   3.846   7.565
 6527SOL    HW120267   2.574   3.824   7.572
 6527SOL    HW220268   2.445   3.829   7.472
 6528SOL     OW20269   2.643   3.988   9.197
 6528SOL    HW120270   2.710   3.927   9.240
 6528SOL    HW220271   2.570   4.007   9.262
 6529SOL     OW20272   2.401   3.788   7.960
 6529SOL    HW120273   2.320   3.789   8.018
 6529SOL    HW220274   2.404   3.871   7.905
 6530SOL     OW20275   2.159   3.759   7.619
 6530SOL    HW120276   2.208   3.843   7.598
 6530SOL    HW220277   2.221   3.694   7.664
 6531SOL     OW20278   2.423   3.946   8.595
 6531SOL    HW120279   2.461   3.862   8.632
 6531SOL    HW220280   2.335   3.965   8.639
 6532SOL     OW20281   2.879   3.763   8.201
 6532SOL    HW120282   2.807   3.768   8.132
 6532SOL    HW220283   2.855   3.694   8.270
 6533SOL     OW20284   2.777   3.813   8.850
 6533SOL    HW120285   2.802   3.793   8.755
 6533SOL    HW220286   2.849   3.869   8.892
 6534SOL     OW20287   3.136   4.110   8.710
 6534SOL    HW120288   3.157   4.184   8.774
 6534SOL    HW220289   3.047   4.127   8.667
 6535SOL     OW20290   2.366   3.774   9.188
 6535SOL    HW120291   2.324   3.717   9.118
 6535SOL    HW220292   2.300   3.843   9.220
 6536SOL     OW20293   2.169   3.937   8.679
 6536SOL    HW120294   2.146   3.974   8.769
 6536SOL    HW220295   2.139   3.842   8.673
 6537SOL     OW20296   3.402   3.998   7.573
 6537SOL    HW120297   3.341   3.923   7.596
 6537SOL    HW220298   3.424   4.050   7.656
 6538SOL     OW20299   3.022   3.931   8.925
 6538SOL    HW120300   3.022   3.995   9.002
 6538SOL    HW220301   3.050   3.979   8.842
 6539SOL     OW20302   2.765   3.810   7.581
 6539SOL    HW120303   2.816   3.811   7.495
 6539SOL    HW220304   2.821   3.768   7.652
 6540SOL     OW20305   3.588   3.859   7.971
 6540SOL    HW120306   3.661   3.842   7.904
 6540SOL    HW220307   3.557   3.772   8.009
 6541SOL     OW20308   3.703   3.899   8.411
 6541SOL    HW120309   3.742   3.814   8.375
 6541SOL    HW220310   3.605   3.901   8.392
 6542SOL     OW20311   2.534   3.927   8.937
 6542SOL    HW120312   2.624   3.911   8.897
 6542SOL    HW220313   2.542   3.932   9.036
 6543SOL     OW20314   1.937   4.069   7.481
 6543SOL    HW120315   1.845   4.041   7.452
 6543SOL    HW220316   1.968   4.146   7.425
 6544SOL     OW20317   1.934   3.890   7.766
 6544SOL    HW120318   1.917   3.973   7.712
 6544SOL    HW220319   2.024   3.853   7.744
 6545SOL     OW20320   3.087   4.049   7.897
 6545SOL    HW120321   3.152   3.975   7.886
 6545SOL    HW220322   3.107   4.099   7.981
 6546SOL     OW20323   3.639   4.066   9.090
 6546SOL    HW120324   3.622   4.097   8.996
 6546SOL    HW220325   3.555   4.029   9.128
 6547SOL     OW20326   3.686   3.916   8.675
 6547SOL    HW120327   3.682   3.826   8.719
 6547SOL    HW220328   3.689   3.905   8.576
 6548SOL     OW20329   3.286   3.938   8.560
 6548SOL    HW120330   3.338   3.873   8.615
 6548SOL    HW220331   3.237   4.001   8.621
 6549SOL     OW20332   2.863   3.758   8.602
 6549SOL    HW120333   2.800   3.686   8.571
 6549SOL    HW220334   2.956   3.722   8.602
 6550SOL     OW20335   3.214   3.776   7.616
 6550SOL    HW120336   3.249   3.735   7.532
 6550SOL    HW220337   3.124   3.738   7.636
 6551SOL     OW20338   3.162   4.177   8.139
 6551SOL    HW120339   3.103   4.257   8.143
 6551SOL    HW220340   3.177   4.142   8.232
 6552SOL     OW20341   3.455   3.945   8.330
 6552SOL    HW120342   3.371   3.944   8.384
 6552SOL    HW220343   3.457   4.028   8.274
 6553SOL     OW20344   2.087   3.999  10.306
 6553SOL    HW120345   2.122   3.982  10.398
 6553SOL    HW220346   1.999   3.954  10.294
 6554SOL     OW20347   1.881   4.092   9.957
 6554SOL    HW120348   1.799   4.135   9.996
 6554SOL    HW220349   1.853   4.019   9.894
 6555SOL     OW20350   3.617   4.331   9.541
 6555SOL    HW120351   3.605   4.318   9.442
 6555SOL    HW220352   3.587   4.250   9.590
 6556SOL     OW20353   2.300   4.116  10.809
 6556SOL    HW120354   2.382   4.060  10.818
 6556SOL    HW220355   2.219   4.058  10.813
 6557SOL     OW20356   3.456   3.838  10.790
 6557SOL    HW120357   3.438   3.905  10.718
 6557SOL    HW220358   3.453   3.884  10.879
 6558SOL     OW20359   2.671   3.728   9.812
 6558SOL    HW120360   2.711   3.819   9.803
 6558SOL    HW220361   2.571   3.736   9.818
 6559SOL     OW20362   3.143   4.069  10.254
 6559SOL    HW120363   3.057   4.019  10.241
 6559SOL    HW220364   3.205   4.015  10.310
 6560SOL     OW20365   2.412   3.920  10.195
 6560SOL    HW120366   2.407   3.915  10.295
 6560SOL    HW220367   2.414   4.016  10.166
 6561SOL     OW20368   2.064   4.009  10.808
 6561SOL    HW120369   1.984   4.069  10.795
 6561SOL    HW220370   2.054   3.960  10.894
 6562SOL     OW20371   3.262   3.831   9.736
 6562SOL    HW120372   3.238   3.794   9.646
 6562SOL    HW220373   3.361   3.847   9.740
 6563SOL     OW20374   3.409   3.946  11.039
 6563SOL    HW120375   3.404   3.983  11.131
 6563SOL    HW220376   3.337   3.877  11.027
 6564SOL     OW20377   2.476   3.846   9.427
 6564SOL    HW120378   2.574   3.824   9.434
 6564SOL    HW220379   2.445   3.829   9.334
 6565SOL     OW20380   2.643   3.988  11.059
 6565SOL    HW120381   2.710   3.927  11.102
 6565SOL    HW220382   2.570   4.007  11.124
 6566SOL     OW20383   2.401   3.788   9.822
 6566SOL    HW120384   2.320   3.789   9.880
 6566SOL    HW220385   2.404   3.871   9.767
 6567SOL     OW20386   2.159   3.759   9.481
 6567SOL    HW120387   2.208   3.843   9.460
 6567SOL    HW220388   2.221   3.694   9.526
 6568SOL     OW20389   2.423   3.946  10.457
 6568SOL    HW120390   2.461   3.862  10.494
 6568SOL    HW220391   2.335   3.965  10.501
 6569SOL     OW20392   2.879   3.763  10.063
 6569SOL    HW120393   2.807   3.768   9.994
 6569SOL    HW220394   2.855   3.694  10.132
 6570SOL     OW20395   2.777   3.813  10.712
 6570SOL    HW120396   2.802   3.793  10.617
 6570SOL    HW220397   2.849   3.869  10.754
 6571SOL     OW20398   3.136   4.110  10.572
 6571SOL    HW120399   3.157   4.184  10.636
 6571SOL    HW220400   3.047   4.127  10.529
 6572SOL     OW20401   2.366   3.774  11.050
 6572SOL    HW120402   2.324   3.717  10.980
 6572SOL    HW220403   2.300   3.843  11.082
 6573SOL     OW20404   2.169   3.937  10.541
 6573SOL    HW120405   2.146   3.974  10.631
 6573SOL    HW220406   2.139   3.842  10.535
 6574SOL     OW20407   3.402   3.998   9.435
 6574SOL    HW120408   3.341   3.923   9.458
 6574SOL    HW220409   3.424   4.050   9.518
 6575SOL     OW20410   3.022   3.931  10.787
 6575SOL    HW120411   3.022   3.995  10.864
 6575SOL    HW220412   3.050   3.979  10.704
 6576SOL     OW20413   2.765   3.810   9.443
 6576SOL    HW120414   2.816   3.811   9.357
 6576SOL    HW220415   2.821   3.768   9.514
 6577SOL     OW20416   3.588   3.859   9.833
 6577SOL    HW120417   3.661   3.842   9.766
 6577SOL    HW220418   3.557   3.772   9.871
 6578SOL     OW20419   3.703   3.899  10.273
 6578SOL    HW120420   3.742   3.814  10.237
 6578SOL    HW220421   3.605   3.901  10.254
 6579SOL     OW20422   2.534   3.927  10.799
 6579SOL    HW120423   2.624   3.911  10.759
 6579SOL    HW220424   2.542   3.932  10.898
 6580SOL     OW20425   1.937   4.069   9.343
 6580SOL    HW120426   1.845   4.041   9.314
 6580SOL    HW220427   1.968   4.146   9.287
 6581SOL     OW20428   1.934   3.890   9.628
 6581SOL    HW120429   1.917   3.973   9.574
 6581SOL    HW220430   2.024   3.853   9.606
 6582SOL     OW20431   3.087   4.049   9.759
 6582SOL    HW120432   3.152   3.975   9.748
 6582SOL    HW220433   3.107   4.099   9.843
 6583SOL     OW20434   3.639   4.066  10.952
 6583SOL    HW120435   3.622   4.097  10.858
 6583SOL    HW220436   3.555   4.029  10.990
 6584SOL     OW20437   3.686   3.916  10.537
 6584SOL    HW120438   3.682   3.826  10.581
 6584SOL    HW220439   3.689   3.905  10.438
 6585SOL     OW20440   3.286   3.938  10.422
 6585SOL    HW120441   3.338   3.873  10.477
 6585SOL    HW220442   3.237   4.001  10.483
 6586SOL     OW20443   2.863   3.758  10.464
 6586SOL    HW120444   2.800   3.686  10.433
 6586SOL    HW220445   2.956   3.722  10.464
 6587SOL     OW20446   3.214   3.776   9.478
 6587SOL    HW120447   3.249   3.735   9.394
 6587SOL    HW220448   3.124   3.738   9.498
 6588SOL     OW20449   3.162   4.177  10.001
 6588SOL    HW120450   3.103   4.257  10.005
 6588SOL    HW220451   3.177   4.142  10.094
 6589SOL     OW20452   3.455   3.945  10.192
 6589SOL    HW120453   3.371   3.944  10.246
 6589SOL    HW220454   3.457   4.028  10.136
 6590SOL     OW20455   2.087   3.999  12.168
 6590SOL    HW120456   2.122   3.982  12.260
 6590SOL    HW220457   1.999   3.954  12.156
 6591SOL     OW20458   1.881   4.092  11.819
 6591SOL    HW120459   1.799   4.135  11.858
 6591SOL    HW220460   1.853   4.019  11.756
 6592SOL     OW20461   3.617   4.331  11.403
 6592SOL    HW120462   3.605   4.318  11.304
 6592SOL    HW220463   3.587   4.250  11.452
 6593SOL     OW20464   2.300   4.116  12.671
 6593SOL    HW120465   2.382   4.060  12.680
 6593SOL    HW220466   2.219   4.058  12.675
 6594SOL     OW20467   3.456   3.838  12.652
 6594SOL    HW120468   3.438   3.905  12.580
 6594SOL    HW220469   3.453   3.884  12.741
 6595SOL     OW20470   2.671   3.728  11.674
 6595SOL    HW120471   2.711   3.819  11.665
 6595SOL    HW220472   2.571   3.736  11.680
 6596SOL     OW20473   3.143   4.069  12.116
 6596SOL    HW120474   3.057   4.019  12.103
 6596SOL    HW220475   3.205   4.015  12.172
 6597SOL     OW20476   2.412   3.920  12.057
 6597SOL    HW120477   2.407   3.915  12.157
 6597SOL    HW220478   2.414   4.016  12.028
 6598SOL     OW20479   2.064   4.009  12.670
 6598SOL    HW120480   1.984   4.069  12.657
 6598SOL    HW220481   2.054   3.960  12.756
 6599SOL     OW20482   3.262   3.831  11.598
 6599SOL    HW120483   3.238   3.794  11.508
 6599SOL    HW220484   3.361   3.847  11.602
 6600SOL     OW20485   3.409   3.946  12.901
 6600SOL    HW120486   3.404   3.983  12.993
 6600SOL    HW220487   3.337   3.877  12.889
 6601SOL     OW20488   2.476   3.846  11.289
 6601SOL    HW120489   2.574   3.824  11.296
 6601SOL    HW220490   2.445   3.829  11.196
 6602SOL     OW20491   2.643   3.988  12.921
 6602SOL    HW120492   2.710   3.927  12.964
 6602SOL    HW220493   2.570   4.007  12.986
 6603SOL     OW20494   2.401   3.788  11.684
 6603SOL    HW120495   2.320   3.789  11.742
 6603SOL    HW220496   2.404   3.871  11.629
 6604SOL     OW20497   2.159   3.759  11.343
 6604SOL    HW120498   2.208   3.843  11.322
 6604SOL    HW220499   2.221   3.694  11.388
 6605SOL     OW20500   2.423   3.946  12.319
 6605SOL    HW120501   2.461   3.862  12.356
 6605SOL    HW220502   2.335   3.965  12.363
 6606SOL     OW20503   2.879   3.763  11.925
 6606SOL    HW120504   2.807   3.768  11.856
 6606SOL    HW220505   2.855   3.694  11.994
 6607SOL     OW20506   2.777   3.813  12.574
 6607SOL    HW120507   2.802   3.793  12.479
 6607SOL    HW220508   2.849   3.869  12.616
 6608SOL     OW20509   3.136   4.110  12.434
 6608SOL    HW120510   3.157   4.184  12.498
 6608SOL    HW220511   3.047   4.127  12.391
 6609SOL     OW20512   2.366   3.774  12.912
 6609SOL    HW120513   2.324   3.717  12.842
 6609SOL    HW220514   2.300   3.843  12.944
 6610SOL     OW20515   2.169   3.937  12.403
 6610SOL    HW120516   2.146   3.974  12.493
 6610SOL    HW220517   2.139   3.842  12.397
 6611SOL     OW20518   3.402   3.998  11.297
 6611SOL    HW120519   3.341   3.923  11.320
 6611SOL    HW220520   3.424   4.050  11.380
 6612SOL     OW20521   3.022   3.931  12.649
 6612SOL    HW120522   3.022   3.995  12.726
 6612SOL    HW220523   3.050   3.979  12.566
 6613SOL     OW20524   2.765   3.810  11.305
 6613SOL    HW120525   2.816   3.811  11.219
 6613SOL    HW220526   2.821   3.768  11.376
 6614SOL     OW20527   3.588   3.859  11.695
 6614SOL    HW120528   3.661   3.842  11.628
 6614SOL    HW220529   3.557   3.772  11.733
 6615SOL     OW20530   3.703   3.899  12.135
 6615SOL    HW120531   3.742   3.814  12.099
 6615SOL    HW220532   3.605   3.901  12.116
 6616SOL     OW20533   2.534   3.927  12.661
 6616SOL    HW120534   2.624   3.911  12.621
 6616SOL    HW220535   2.542   3.932  12.760
 6617SOL     OW20536   1.937   4.069  11.205
 6617SOL    HW120537   1.845   4.041  11.176
 6617SOL    HW220538   1.968   4.146  11.149
 6618SOL     OW20539   1.934   3.890  11.490
 6618SOL    HW120540   1.917   3.973  11.436
 6618SOL    HW220541   2.024   3.853  11.468
 6619SOL     OW20542   3.087   4.049  11.621
 6619SOL    HW120543   3.152   3.975  11.610
 6619SOL    HW220544   3.107   4.099  11.705
 6620SOL     OW20545   3.639   4.066  12.814
 6620SOL    HW120546   3.622   4.097  12.720
 6620SOL    HW220547   3.555   4.029  12.852
 6621SOL     OW20548   3.686   3.916  12.399
 6621SOL    HW120549   3.682   3.826  12.443
 6621SOL    HW220550   3.689   3.905  12.300
 6622SOL     OW20551   3.286   3.938  12.284
 6622SOL    HW120552   3.338   3.873  12.339
 6622SOL    HW220553   3.237   4.001  12.345
 6623SOL     OW20554   2.863   3.758  12.326
 6623SOL    HW120555   2.800   3.686  12.295
 6623SOL    HW220556   2.956   3.722  12.326
 6624SOL     OW20557   3.214   3.776  11.340
 6624SOL    HW120558   3.249   3.735  11.256
 6624SOL    HW220559   3.124   3.738  11.360
 6625SOL     OW20560   3.162   4.177  11.863
 6625SOL    HW120561   3.103   4.257  11.867
 6625SOL    HW220562   3.177   4.142  11.956
 6626SOL     OW20563   3.455   3.945  12.054
 6626SOL    HW120564   3.371   3.944  12.108
 6626SOL    HW220565   3.457   4.028  11.998
 6627SOL     OW20566   1.881   4.092  13.681
 6627SOL    HW120567   1.799   4.135  13.720
 6627SOL    HW220568   1.853   4.019  13.618
 6628SOL     OW20569   3.617   4.331  13.265
 6628SOL    HW120570   3.605   4.318  13.166
 6628SOL    HW220571   3.587   4.250  13.314
 6629SOL     OW20572   3.465   4.171  13.771
 6629SOL    HW120573   3.391   4.217  13.721
 6629SOL    HW220574   3.516   4.239  13.824
 6630SOL     OW20575   2.671   3.728  13.536
 6630SOL    HW120576   2.711   3.819  13.527
 6630SOL    HW220577   2.571   3.736  13.542
 6631SOL     OW20578   3.262   3.831  13.460
 6631SOL    HW120579   3.238   3.794  13.370
 6631SOL    HW220580   3.361   3.847  13.464
 6632SOL     OW20581   2.476   3.846  13.151
 6632SOL    HW120582   2.574   3.824  13.158
 6632SOL    HW220583   2.445   3.829  13.058
 6633SOL     OW20584   2.401   3.788  13.546
 6633SOL    HW120585   2.320   3.789  13.604
 6633SOL    HW220586   2.404   3.871  13.491
 6634SOL     OW20587   2.159   3.759  13.205
 6634SOL    HW120588   2.208   3.843  13.184
 6634SOL    HW220589   2.221   3.694  13.250
 6635SOL     OW20590   2.879   3.763  13.787
 6635SOL    HW120591   2.807   3.768  13.718
 6635SOL    HW220592   2.855   3.694  13.856
 6636SOL     OW20593   3.402   3.998  13.159
 6636SOL    HW120594   3.341   3.923  13.182
 6636SOL    HW220595   3.424   4.050  13.242
 6637SOL     OW20596   2.765   3.810  13.167
 6637SOL    HW120597   2.816   3.811  13.081
 6637SOL    HW220598   2.821   3.768  13.238
 6638SOL     OW20599   3.588   3.859  13.557
 6638SOL    HW120600   3.661   3.842  13.490
 6638SOL    HW220601   3.557   3.772  13.595
 6639SOL     OW20602   3.703   3.899  13.997
 6639SOL    HW120603   3.742   3.814  13.961
 6639SOL    HW220604   3.605   3.901  13.978
 6640SOL     OW20605   1.937   4.069  13.067
 6640SOL    HW120606   1.845   4.041  13.038
 6640SOL    HW220607   1.968   4.146  13.011
 6641SOL     OW20608   1.934   3.890  13.352
 6641SOL    HW120609   1.917   3.973  13.298
 6641SOL    HW220610   2.024   3.853  13.330
 6642SOL     OW20611   3.087   4.049  13.483
 6642SOL    HW120612   3.152   3.975  13.472
 6642SOL    HW220613   3.107   4.099  13.567
 6643SOL     OW20614   3.214   3.776  13.202
 6643SOL    HW120615   3.249   3.735  13.118
 6643SOL    HW220616   3.124   3.738  13.222
 6644SOL     OW20617   3.162   4.177  13.725
 6644SOL    HW120618   3.103   4.257  13.729
 6644SOL    HW220619   3.177   4.142  13.818
 6645SOL     OW20620   3.954   0.628   0.113
 6645SOL    HW120621   3.861   0.626   0.150
 6645SOL    HW220622   3.955   0.589   0.021
 6646SOL     OW20623   3.949   0.275   0.996
 6646SOL    HW120624   3.984   0.258   1.088
 6646SOL    HW220625   3.861   0.230   0.984
 6647SOL     OW20626   3.743   0.368   0.647
 6647SOL    HW120627   3.661   0.411   0.686
 6647SOL    HW220628   3.715   0.295   0.584
 6648SOL     OW20629   4.059   1.435   1.061
 6648SOL    HW120630   3.981   1.404   1.008
 6648SOL    HW220631   4.117   1.493   1.004
 6649SOL     OW20632   3.955   1.713   0.483
 6649SOL    HW120633   3.989   1.790   0.537
 6649SOL    HW220634   3.999   1.713   0.393
 6650SOL     OW20635   3.954   1.434   0.538
 6650SOL    HW120636   3.928   1.530   0.538
 6650SOL    HW220637   3.883   1.380   0.583
 6651SOL     OW20638   3.846   0.643   0.563
 6651SOL    HW120639   3.801   0.555   0.580
 6651SOL    HW220640   3.845   0.697   0.647
 6652SOL     OW20641   3.751   1.596   0.117
 6652SOL    HW120642   3.732   1.500   0.138
 6652SOL    HW220643   3.718   1.654   0.192
 6653SOL     OW20644   3.837   0.737   1.597
 6653SOL    HW120645   3.925   0.724   1.642
 6653SOL    HW220646   3.824   0.834   1.575
 6654SOL     OW20647   3.800   0.811   0.789
 6654SOL    HW120648   3.899   0.799   0.798
 6654SOL    HW220649   3.776   0.906   0.810
 6655SOL     OW20650   3.854   1.821   1.571
 6655SOL    HW120651   3.844   1.806   1.670
 6655SOL    HW220652   3.768   1.857   1.535
 6656SOL     OW20653   3.926   0.285   1.498
 6656SOL    HW120654   3.846   0.345   1.485
 6656SOL    HW220655   3.916   0.236   1.584
 6657SOL     OW20656   3.802   0.556   1.386
 6657SOL    HW120657   3.894   0.555   1.345
 6657SOL    HW220658   3.796   0.630   1.453
 6658SOL     OW20659   3.788   1.564   1.331
 6658SOL    HW120660   3.742   1.646   1.297
 6658SOL    HW220661   3.886   1.583   1.340
 6659SOL     OW20662   4.091   1.100   0.501
 6659SOL    HW120663   4.084   1.183   0.445
 6659SOL    HW220664   4.095   1.020   0.441
 6660SOL     OW20665   4.031   0.213   1.231
 6660SOL    HW120666   4.008   0.250   1.321
 6660SOL    HW220667   4.001   0.118   1.225
 6661SOL     OW20668   3.761   1.310   1.282
 6661SOL    HW120669   3.814   1.261   1.350
 6661SOL    HW220670   3.783   1.408   1.287
 6662SOL     OW20671   3.732   1.326   0.200
 6662SOL    HW120672   3.639   1.347   0.169
 6662SOL    HW220673   3.742   1.227   0.213
 6663SOL     OW20674   3.812   1.801   0.927
 6663SOL    HW120675   3.770   1.715   0.900
 6663SOL    HW220676   3.906   1.804   0.893
 6664SOL     OW20677   4.228   1.568   0.910
 6664SOL    HW120678   4.294   1.642   0.919
 6664SOL    HW220679   4.272   1.489   0.868
 6665SOL     OW20680   3.764   0.544   1.114
 6665SOL    HW120681   3.849   0.511   1.073
 6665SOL    HW220682   3.777   0.559   1.212
 6666SOL     OW20683   3.913   0.520   1.722
 6666SOL    HW120684   3.972   0.480   1.652
 6666SOL    HW220685   3.855   0.591   1.681
 6667SOL     OW20686   3.976   1.564   1.744
 6667SOL    HW120687   3.946   1.621   1.820
 6667SOL    HW220688   3.969   1.467   1.770
 6668SOL     OW20689   3.883   1.137   1.466
 6668SOL    HW120690   3.905   1.076   1.542
 6668SOL    HW220691   3.893   1.088   1.380
 6669SOL     OW20692   3.807   1.258   1.022
 6669SOL    HW120693   3.802   1.257   1.122
 6669SOL    HW220694   3.724   1.217   0.984
 6670SOL     OW20695   3.854   1.794   1.851
 6670SOL    HW120696   3.813   1.720   1.904
 6670SOL    HW220697   3.918   1.845   1.909
 6671SOL     OW20698   3.799   0.345   0.033
 6671SOL    HW120699   3.707   0.317   0.004
 6671SOL    HW220700   3.830   0.422  -0.023
 6672SOL     OW20701   3.796   0.166   0.318
 6672SOL    HW120702   3.779   0.249   0.264
 6672SOL    HW220703   3.886   0.129   0.296
 6673SOL     OW20704   3.803   1.240   0.653
 6673SOL    HW120705   3.802   1.193   0.741
 6673SOL    HW220706   3.885   1.212   0.602
 6674SOL     OW20707   3.763   1.077   0.300
 6674SOL    HW120708   3.862   1.066   0.291
 6674SOL    HW220709   3.723   0.991   0.332
 6675SOL     OW20710   3.954   0.628   1.975
 6675SOL    HW120711   3.861   0.626   2.012
 6675SOL    HW220712   3.955   0.589   1.883
 6676SOL     OW20713   3.949   0.275   2.858
 6676SOL    HW120714   3.984   0.258   2.950
 6676SOL    HW220715   3.861   0.230   2.846
 6677SOL     OW20716   3.743   0.368   2.509
 6677SOL    HW120717   3.661   0.411   2.548
 6677SOL    HW220718   3.715   0.295   2.446
 6678SOL     OW20719   4.059   1.435   2.923
 6678SOL    HW120720   3.981   1.404   2.870
 6678SOL    HW220721   4.117   1.493   2.866
 6679SOL     OW20722   3.955   1.713   2.345
 6679SOL    HW120723   3.989   1.790   2.399
 6679SOL    HW220724   3.999   1.713   2.255
 6680SOL     OW20725   3.954   1.434   2.400
 6680SOL    HW120726   3.928   1.530   2.400
 6680SOL    HW220727   3.883   1.380   2.445
 6681SOL     OW20728   3.846   0.643   2.425
 6681SOL    HW120729   3.801   0.555   2.442
 6681SOL    HW220730   3.845   0.697   2.509
 6682SOL     OW20731   3.751   1.596   1.979
 6682SOL    HW120732   3.732   1.500   2.000
 6682SOL    HW220733   3.718   1.654   2.054
 6683SOL     OW20734   3.837   0.737   3.459
 6683SOL    HW120735   3.925   0.724   3.504
 6683SOL    HW220736   3.824   0.834   3.437
 6684SOL     OW20737   3.800   0.811   2.651
 6684SOL    HW120738   3.899   0.799   2.660
 6684SOL    HW220739   3.776   0.906   2.672
 6685SOL     OW20740   3.854   1.821   3.433
 6685SOL    HW120741   3.844   1.806   3.532
 6685SOL    HW220742   3.768   1.857   3.397
 6686SOL     OW20743   3.926   0.285   3.360
 6686SOL    HW120744   3.846   0.345   3.347
 6686SOL    HW220745   3.916   0.236   3.446
 6687SOL     OW20746   3.802   0.556   3.248
 6687SOL    HW120747   3.894   0.555   3.207
 6687SOL    HW220748   3.796   0.630   3.315
 6688SOL     OW20749   4.251   0.256   2.190
 6688SOL    HW120750   4.278   0.197   2.115
 6688SOL    HW220751   4.251   0.351   2.159
 6689SOL     OW20752   3.788   1.564   3.193
 6689SOL    HW120753   3.742   1.646   3.159
 6689SOL    HW220754   3.886   1.583   3.202
 6690SOL     OW20755   4.091   1.100   2.363
 6690SOL    HW120756   4.084   1.183   2.307
 6690SOL    HW220757   4.095   1.020   2.303
 6691SOL     OW20758   4.031   0.213   3.093
 6691SOL    HW120759   4.008   0.250   3.183
 6691SOL    HW220760   4.001   0.118   3.087
 6692SOL     OW20761   3.761   1.310   3.144
 6692SOL    HW120762   3.814   1.261   3.212
 6692SOL    HW220763   3.783   1.408   3.149
 6693SOL     OW20764   3.732   1.326   2.062
 6693SOL    HW120765   3.639   1.347   2.031
 6693SOL    HW220766   3.742   1.227   2.075
 6694SOL     OW20767   3.812   1.801   2.789
 6694SOL    HW120768   3.770   1.715   2.762
 6694SOL    HW220769   3.906   1.804   2.755
 6695SOL     OW20770   4.228   1.568   2.772
 6695SOL    HW120771   4.294   1.642   2.781
 6695SOL    HW220772   4.272   1.489   2.730
 6696SOL     OW20773   3.764   0.544   2.976
 6696SOL    HW120774   3.849   0.511   2.935
 6696SOL    HW220775   3.777   0.559   3.074
 6697SOL     OW20776   3.913   0.520   3.584
 6697SOL    HW120777   3.972   0.480   3.514
 6697SOL    HW220778   3.855   0.591   3.543
 6698SOL     OW20779   3.976   1.564   3.606
 6698SOL    HW120780   3.946   1.621   3.682
 6698SOL    HW220781   3.969   1.467   3.632
 6699SOL     OW20782   3.883   1.137   3.328
 6699SOL    HW120783   3.905   1.076   3.404
 6699SOL    HW220784   3.893   1.088   3.242
 6700SOL     OW20785   3.807   1.258   2.884
 6700SOL    HW120786   3.802   1.257   2.984
 6700SOL    HW220787   3.724   1.217   2.846
 6701SOL     OW20788   3.854   1.794   3.713
 6701SOL    HW120789   3.813   1.720   3.766
 6701SOL    HW220790   3.918   1.845   3.771
 6702SOL     OW20791   3.799   0.345   1.895
 6702SOL    HW120792   3.707   0.317   1.866
 6702SOL    HW220793   3.830   0.422   1.839
 6703SOL     OW20794   3.796   0.166   2.180
 6703SOL    HW120795   3.779   0.249   2.126
 6703SOL    HW220796   3.886   0.129   2.158
 6704SOL     OW20797   3.803   1.240   2.515
 6704SOL    HW120798   3.802   1.193   2.603
 6704SOL    HW220799   3.885   1.212   2.464
 6705SOL     OW20800   3.763   1.077   2.162
 6705SOL    HW120801   3.862   1.066   2.153
 6705SOL    HW220802   3.723   0.991   2.194
 6706SOL     OW20803   3.954   0.628   3.837
 6706SOL    HW120804   3.861   0.626   3.874
 6706SOL    HW220805   3.955   0.589   3.745
 6707SOL     OW20806   3.949   0.275   4.720
 6707SOL    HW120807   3.984   0.258   4.812
 6707SOL    HW220808   3.861   0.230   4.708
 6708SOL     OW20809   3.743   0.368   4.371
 6708SOL    HW120810   3.661   0.411   4.410
 6708SOL    HW220811   3.715   0.295   4.308
 6709SOL     OW20812   4.059   1.435   4.785
 6709SOL    HW120813   3.981   1.404   4.732
 6709SOL    HW220814   4.117   1.493   4.728
 6710SOL     OW20815   3.955   1.713   4.207
 6710SOL    HW120816   3.989   1.790   4.261
 6710SOL    HW220817   3.999   1.713   4.117
 6711SOL     OW20818   3.954   1.434   4.262
 6711SOL    HW120819   3.928   1.530   4.262
 6711SOL    HW220820   3.883   1.380   4.307
 6712SOL     OW20821   3.846   0.643   4.287
 6712SOL    HW120822   3.801   0.555   4.304
 6712SOL    HW220823   3.845   0.697   4.371
 6713SOL     OW20824   3.751   1.596   3.841
 6713SOL    HW120825   3.732   1.500   3.862
 6713SOL    HW220826   3.718   1.654   3.916
 6714SOL     OW20827   3.837   0.737   5.321
 6714SOL    HW120828   3.925   0.724   5.366
 6714SOL    HW220829   3.824   0.834   5.299
 6715SOL     OW20830   3.800   0.811   4.513
 6715SOL    HW120831   3.899   0.799   4.522
 6715SOL    HW220832   3.776   0.906   4.534
 6716SOL     OW20833   3.854   1.821   5.295
 6716SOL    HW120834   3.844   1.806   5.394
 6716SOL    HW220835   3.768   1.857   5.259
 6717SOL     OW20836   3.926   0.285   5.222
 6717SOL    HW120837   3.846   0.345   5.209
 6717SOL    HW220838   3.916   0.236   5.308
 6718SOL     OW20839   3.802   0.556   5.110
 6718SOL    HW120840   3.894   0.555   5.069
 6718SOL    HW220841   3.796   0.630   5.177
 6719SOL     OW20842   4.251   0.256   4.052
 6719SOL    HW120843   4.278   0.197   3.977
 6719SOL    HW220844   4.251   0.351   4.021
 6720SOL     OW20845   3.788   1.564   5.055
 6720SOL    HW120846   3.742   1.646   5.021
 6720SOL    HW220847   3.886   1.583   5.064
 6721SOL     OW20848   4.091   1.100   4.225
 6721SOL    HW120849   4.084   1.183   4.169
 6721SOL    HW220850   4.095   1.020   4.165
 6722SOL     OW20851   4.031   0.213   4.955
 6722SOL    HW120852   4.008   0.250   5.045
 6722SOL    HW220853   4.001   0.118   4.949
 6723SOL     OW20854   3.761   1.310   5.006
 6723SOL    HW120855   3.814   1.261   5.074
 6723SOL    HW220856   3.783   1.408   5.011
 6724SOL     OW20857   3.732   1.326   3.924
 6724SOL    HW120858   3.639   1.347   3.893
 6724SOL    HW220859   3.742   1.227   3.937
 6725SOL     OW20860   3.812   1.801   4.651
 6725SOL    HW120861   3.770   1.715   4.624
 6725SOL    HW220862   3.906   1.804   4.617
 6726SOL     OW20863   4.228   1.568   4.634
 6726SOL    HW120864   4.294   1.642   4.643
 6726SOL    HW220865   4.272   1.489   4.592
 6727SOL     OW20866   3.764   0.544   4.838
 6727SOL    HW120867   3.849   0.511   4.797
 6727SOL    HW220868   3.777   0.559   4.936
 6728SOL     OW20869   3.913   0.520   5.446
 6728SOL    HW120870   3.972   0.480   5.376
 6728SOL    HW220871   3.855   0.591   5.405
 6729SOL     OW20872   3.976   1.564   5.468
 6729SOL    HW120873   3.946   1.621   5.544
 6729SOL    HW220874   3.969   1.467   5.494
 6730SOL     OW20875   3.883   1.137   5.190
 6730SOL    HW120876   3.905   1.076   5.266
 6730SOL    HW220877   3.893   1.088   5.104
 6731SOL     OW20878   3.807   1.258   4.746
 6731SOL    HW120879   3.802   1.257   4.846
 6731SOL    HW220880   3.724   1.217   4.708
 6732SOL     OW20881   3.854   1.794   5.575
 6732SOL    HW120882   3.813   1.720   5.628
 6732SOL    HW220883   3.918   1.845   5.633
 6733SOL     OW20884   3.799   0.345   3.757
 6733SOL    HW120885   3.707   0.317   3.728
 6733SOL    HW220886   3.830   0.422   3.701
 6734SOL     OW20887   3.796   0.166   4.042
 6734SOL    HW120888   3.779   0.249   3.988
 6734SOL    HW220889   3.886   0.129   4.020
 6735SOL     OW20890   3.803   1.240   4.377
 6735SOL    HW120891   3.802   1.193   4.465
 6735SOL    HW220892   3.885   1.212   4.326
 6736SOL     OW20893   3.763   1.077   4.024
 6736SOL    HW120894   3.862   1.066   4.015
 6736SOL    HW220895   3.723   0.991   4.056
 6737SOL     OW20896   3.954   0.628   5.699
 6737SOL    HW120897   3.861   0.626   5.736
 6737SOL    HW220898   3.955   0.589   5.607
 6738SOL     OW20899   3.949   0.275   6.582
 6738SOL    HW120900   3.984   0.258   6.674
 6738SOL    HW220901   3.861   0.230   6.570
 6739SOL     OW20902   3.743   0.368   6.233
 6739SOL    HW120903   3.661   0.411   6.272
 6739SOL    HW220904   3.715   0.295   6.170
 6740SOL     OW20905   4.059   1.435   6.647
 6740SOL    HW120906   3.981   1.404   6.594
 6740SOL    HW220907   4.117   1.493   6.590
 6741SOL     OW20908   3.955   1.713   6.069
 6741SOL    HW120909   3.989   1.790   6.123
 6741SOL    HW220910   3.999   1.713   5.979
 6742SOL     OW20911   3.954   1.434   6.124
 6742SOL    HW120912   3.928   1.530   6.124
 6742SOL    HW220913   3.883   1.380   6.169
 6743SOL     OW20914   3.846   0.643   6.149
 6743SOL    HW120915   3.801   0.555   6.166
 6743SOL    HW220916   3.845   0.697   6.233
 6744SOL     OW20917   3.751   1.596   5.703
 6744SOL    HW120918   3.732   1.500   5.724
 6744SOL    HW220919   3.718   1.654   5.778
 6745SOL     OW20920   3.837   0.737   7.183
 6745SOL    HW120921   3.925   0.724   7.228
 6745SOL    HW220922   3.824   0.834   7.161
 6746SOL     OW20923   3.800   0.811   6.375
 6746SOL    HW120924   3.899   0.799   6.384
 6746SOL    HW220925   3.776   0.906   6.396
 6747SOL     OW20926   3.854   1.821   7.157
 6747SOL    HW120927   3.844   1.806   7.256
 6747SOL    HW220928   3.768   1.857   7.121
 6748SOL     OW20929   3.926   0.285   7.084
 6748SOL    HW120930   3.846   0.345   7.071
 6748SOL    HW220931   3.916   0.236   7.170
 6749SOL     OW20932   3.802   0.556   6.972
 6749SOL    HW120933   3.894   0.555   6.931
 6749SOL    HW220934   3.796   0.630   7.039
 6750SOL     OW20935   4.251   0.256   5.914
 6750SOL    HW120936   4.278   0.197   5.839
 6750SOL    HW220937   4.251   0.351   5.883
 6751SOL     OW20938   3.788   1.564   6.917
 6751SOL    HW120939   3.742   1.646   6.883
 6751SOL    HW220940   3.886   1.583   6.926
 6752SOL     OW20941   4.091   1.100   6.087
 6752SOL    HW120942   4.084   1.183   6.031
 6752SOL    HW220943   4.095   1.020   6.027
 6753SOL     OW20944   4.031   0.213   6.817
 6753SOL    HW120945   4.008   0.250   6.907
 6753SOL    HW220946   4.001   0.118   6.811
 6754SOL     OW20947   3.761   1.310   6.868
 6754SOL    HW120948   3.814   1.261   6.936
 6754SOL    HW220949   3.783   1.408   6.873
 6755SOL     OW20950   3.732   1.326   5.786
 6755SOL    HW120951   3.639   1.347   5.755
 6755SOL    HW220952   3.742   1.227   5.799
 6756SOL     OW20953   3.812   1.801   6.513
 6756SOL    HW120954   3.770   1.715   6.486
 6756SOL    HW220955   3.906   1.804   6.479
 6757SOL     OW20956   4.228   1.568   6.496
 6757SOL    HW120957   4.294   1.642   6.505
 6757SOL    HW220958   4.272   1.489   6.454
 6758SOL     OW20959   3.764   0.544   6.700
 6758SOL    HW120960   3.849   0.511   6.659
 6758SOL    HW220961   3.777   0.559   6.798
 6759SOL     OW20962   3.913   0.520   7.308
 6759SOL    HW120963   3.972   0.480   7.238
 6759SOL    HW220964   3.855   0.591   7.267
 6760SOL     OW20965   3.976   1.564   7.330
 6760SOL    HW120966   3.946   1.621   7.406
 6760SOL    HW220967   3.969   1.467   7.356
 6761SOL     OW20968   3.883   1.137   7.052
 6761SOL    HW120969   3.905   1.076   7.128
 6761SOL    HW220970   3.893   1.088   6.966
 6762SOL     OW20971   3.807   1.258   6.608
 6762SOL    HW120972   3.802   1.257   6.708
 6762SOL    HW220973   3.724   1.217   6.570
 6763SOL     OW20974   3.854   1.794   7.437
 6763SOL    HW120975   3.813   1.720   7.490
 6763SOL    HW220976   3.918   1.845   7.495
 6764SOL     OW20977   3.799   0.345   5.619
 6764SOL    HW120978   3.707   0.317   5.590
 6764SOL    HW220979   3.830   0.422   5.563
 6765SOL     OW20980   3.796   0.166   5.904
 6765SOL    HW120981   3.779   0.249   5.850
 6765SOL    HW220982   3.886   0.129   5.882
 6766SOL     OW20983   3.803   1.240   6.239
 6766SOL    HW120984   3.802   1.193   6.327
 6766SOL    HW220985   3.885   1.212   6.188
 6767SOL     OW20986   3.763   1.077   5.886
 6767SOL    HW120987   3.862   1.066   5.877
 6767SOL    HW220988   3.723   0.991   5.918
 6768SOL     OW20989   3.954   0.628   7.561
 6768SOL    HW120990   3.861   0.626   7.598
 6768SOL    HW220991   3.955   0.589   7.469
 6769SOL     OW20992   3.949   0.275   8.444
 6769SOL    HW120993   3.984   0.258   8.536
 6769SOL    HW220994   3.861   0.230   8.432
 6770SOL     OW20995   3.743   0.368   8.095
 6770SOL    HW120996   3.661   0.411   8.134
 6770SOL    HW220997   3.715   0.295   8.032
 6771SOL     OW20998   4.059   1.435   8.509
 6771SOL    HW120999   3.981   1.404   8.456
 6771SOL    HW221000   4.117   1.493   8.452
 6772SOL     OW21001   3.955   1.713   7.931
 6772SOL    HW121002   3.989   1.790   7.985
 6772SOL    HW221003   3.999   1.713   7.841
 6773SOL     OW21004   3.954   1.434   7.986
 6773SOL    HW121005   3.928   1.530   7.986
 6773SOL    HW221006   3.883   1.380   8.031
 6774SOL     OW21007   3.846   0.643   8.011
 6774SOL    HW121008   3.801   0.555   8.028
 6774SOL    HW221009   3.845   0.697   8.095
 6775SOL     OW21010   3.751   1.596   7.565
 6775SOL    HW121011   3.732   1.500   7.586
 6775SOL    HW221012   3.718   1.654   7.640
 6776SOL     OW21013   3.837   0.737   9.045
 6776SOL    HW121014   3.925   0.724   9.090
 6776SOL    HW221015   3.824   0.834   9.023
 6777SOL     OW21016   3.800   0.811   8.237
 6777SOL    HW121017   3.899   0.799   8.246
 6777SOL    HW221018   3.776   0.906   8.258
 6778SOL     OW21019   3.854   1.821   9.019
 6778SOL    HW121020   3.844   1.806   9.118
 6778SOL    HW221021   3.768   1.857   8.983
 6779SOL     OW21022   3.926   0.285   8.946
 6779SOL    HW121023   3.846   0.345   8.933
 6779SOL    HW221024   3.916   0.236   9.032
 6780SOL     OW21025   3.802   0.556   8.834
 6780SOL    HW121026   3.894   0.555   8.793
 6780SOL    HW221027   3.796   0.630   8.901
 6781SOL     OW21028   4.251   0.256   7.776
 6781SOL    HW121029   4.278   0.197   7.701
 6781SOL    HW221030   4.251   0.351   7.745
 6782SOL     OW21031   3.788   1.564   8.779
 6782SOL    HW121032   3.742   1.646   8.745
 6782SOL    HW221033   3.886   1.583   8.788
 6783SOL     OW21034   4.091   1.100   7.949
 6783SOL    HW121035   4.084   1.183   7.893
 6783SOL    HW221036   4.095   1.020   7.889
 6784SOL     OW21037   4.031   0.213   8.679
 6784SOL    HW121038   4.008   0.250   8.769
 6784SOL    HW221039   4.001   0.118   8.673
 6785SOL     OW21040   3.761   1.310   8.730
 6785SOL    HW121041   3.814   1.261   8.798
 6785SOL    HW221042   3.783   1.408   8.735
 6786SOL     OW21043   3.732   1.326   7.648
 6786SOL    HW121044   3.639   1.347   7.617
 6786SOL    HW221045   3.742   1.227   7.661
 6787SOL     OW21046   3.812   1.801   8.375
 6787SOL    HW121047   3.770   1.715   8.348
 6787SOL    HW221048   3.906   1.804   8.341
 6788SOL     OW21049   4.228   1.568   8.358
 6788SOL    HW121050   4.294   1.642   8.367
 6788SOL    HW221051   4.272   1.489   8.316
 6789SOL     OW21052   3.764   0.544   8.562
 6789SOL    HW121053   3.849   0.511   8.521
 6789SOL    HW221054   3.777   0.559   8.660
 6790SOL     OW21055   3.913   0.520   9.170
 6790SOL    HW121056   3.972   0.480   9.100
 6790SOL    HW221057   3.855   0.591   9.129
 6791SOL     OW21058   3.976   1.564   9.192
 6791SOL    HW121059   3.946   1.621   9.268
 6791SOL    HW221060   3.969   1.467   9.218
 6792SOL     OW21061   3.883   1.137   8.914
 6792SOL    HW121062   3.905   1.076   8.990
 6792SOL    HW221063   3.893   1.088   8.828
 6793SOL     OW21064   3.807   1.258   8.470
 6793SOL    HW121065   3.802   1.257   8.570
 6793SOL    HW221066   3.724   1.217   8.432
 6794SOL     OW21067   3.854   1.794   9.299
 6794SOL    HW121068   3.813   1.720   9.352
 6794SOL    HW221069   3.918   1.845   9.357
 6795SOL     OW21070   3.799   0.345   7.481
 6795SOL    HW121071   3.707   0.317   7.452
 6795SOL    HW221072   3.830   0.422   7.425
 6796SOL     OW21073   3.796   0.166   7.766
 6796SOL    HW121074   3.779   0.249   7.712
 6796SOL    HW221075   3.886   0.129   7.744
 6797SOL     OW21076   3.803   1.240   8.101
 6797SOL    HW121077   3.802   1.193   8.189
 6797SOL    HW221078   3.885   1.212   8.050
 6798SOL     OW21079   3.763   1.077   7.748
 6798SOL    HW121080   3.862   1.066   7.739
 6798SOL    HW221081   3.723   0.991   7.780
 6799SOL     OW21082   3.954   0.628   9.423
 6799SOL    HW121083   3.861   0.626   9.460
 6799SOL    HW221084   3.955   0.589   9.331
 6800SOL     OW21085   3.949   0.275  10.306
 6800SOL    HW121086   3.984   0.258  10.398
 6800SOL    HW221087   3.861   0.230  10.294
 6801SOL     OW21088   3.743   0.368   9.957
 6801SOL    HW121089   3.661   0.411   9.996
 6801SOL    HW221090   3.715   0.295   9.894
 6802SOL     OW21091   4.059   1.435  10.371
 6802SOL    HW121092   3.981   1.404  10.318
 6802SOL    HW221093   4.117   1.493  10.314
 6803SOL     OW21094   3.955   1.713   9.793
 6803SOL    HW121095   3.989   1.790   9.847
 6803SOL    HW221096   3.999   1.713   9.703
 6804SOL     OW21097   3.954   1.434   9.848
 6804SOL    HW121098   3.928   1.530   9.848
 6804SOL    HW221099   3.883   1.380   9.893
 6805SOL     OW21100   3.846   0.643   9.873
 6805SOL    HW121101   3.801   0.555   9.890
 6805SOL    HW221102   3.845   0.697   9.957
 6806SOL     OW21103   3.751   1.596   9.427
 6806SOL    HW121104   3.732   1.500   9.448
 6806SOL    HW221105   3.718   1.654   9.502
 6807SOL     OW21106   3.837   0.737  10.907
 6807SOL    HW121107   3.925   0.724  10.952
 6807SOL    HW221108   3.824   0.834  10.885
 6808SOL     OW21109   3.800   0.811  10.099
 6808SOL    HW121110   3.899   0.799  10.108
 6808SOL    HW221111   3.776   0.906  10.120
 6809SOL     OW21112   3.854   1.821  10.881
 6809SOL    HW121113   3.844   1.806  10.980
 6809SOL    HW221114   3.768   1.857  10.845
 6810SOL     OW21115   3.926   0.285  10.808
 6810SOL    HW121116   3.846   0.345  10.795
 6810SOL    HW221117   3.916   0.236  10.894
 6811SOL     OW21118   3.802   0.556  10.696
 6811SOL    HW121119   3.894   0.555  10.655
 6811SOL    HW221120   3.796   0.630  10.763
 6812SOL     OW21121   4.251   0.256   9.638
 6812SOL    HW121122   4.278   0.197   9.563
 6812SOL    HW221123   4.251   0.351   9.607
 6813SOL     OW21124   3.788   1.564  10.641
 6813SOL    HW121125   3.742   1.646  10.607
 6813SOL    HW221126   3.886   1.583  10.650
 6814SOL     OW21127   4.091   1.100   9.811
 6814SOL    HW121128   4.084   1.183   9.755
 6814SOL    HW221129   4.095   1.020   9.751
 6815SOL     OW21130   4.031   0.213  10.541
 6815SOL    HW121131   4.008   0.250  10.631
 6815SOL    HW221132   4.001   0.118  10.535
 6816SOL     OW21133   3.761   1.310  10.592
 6816SOL    HW121134   3.814   1.261  10.660
 6816SOL    HW221135   3.783   1.408  10.597
 6817SOL     OW21136   3.732   1.326   9.510
 6817SOL    HW121137   3.639   1.347   9.479
 6817SOL    HW221138   3.742   1.227   9.523
 6818SOL     OW21139   3.812   1.801  10.237
 6818SOL    HW121140   3.770   1.715  10.210
 6818SOL    HW221141   3.906   1.804  10.203
 6819SOL     OW21142   4.228   1.568  10.220
 6819SOL    HW121143   4.294   1.642  10.229
 6819SOL    HW221144   4.272   1.489  10.178
 6820SOL     OW21145   3.764   0.544  10.424
 6820SOL    HW121146   3.849   0.511  10.383
 6820SOL    HW221147   3.777   0.559  10.522
 6821SOL     OW21148   3.913   0.520  11.032
 6821SOL    HW121149   3.972   0.480  10.962
 6821SOL    HW221150   3.855   0.591  10.991
 6822SOL     OW21151   3.976   1.564  11.054
 6822SOL    HW121152   3.946   1.621  11.130
 6822SOL    HW221153   3.969   1.467  11.080
 6823SOL     OW21154   3.883   1.137  10.776
 6823SOL    HW121155   3.905   1.076  10.852
 6823SOL    HW221156   3.893   1.088  10.690
 6824SOL     OW21157   3.807   1.258  10.332
 6824SOL    HW121158   3.802   1.257  10.432
 6824SOL    HW221159   3.724   1.217  10.294
 6825SOL     OW21160   3.854   1.794  11.161
 6825SOL    HW121161   3.813   1.720  11.214
 6825SOL    HW221162   3.918   1.845  11.219
 6826SOL     OW21163   3.799   0.345   9.343
 6826SOL    HW121164   3.707   0.317   9.314
 6826SOL    HW221165   3.830   0.422   9.287
 6827SOL     OW21166   3.796   0.166   9.628
 6827SOL    HW121167   3.779   0.249   9.574
 6827SOL    HW221168   3.886   0.129   9.606
 6828SOL     OW21169   3.803   1.240   9.963
 6828SOL    HW121170   3.802   1.193  10.051
 6828SOL    HW221171   3.885   1.212   9.912
 6829SOL     OW21172   3.763   1.077   9.610
 6829SOL    HW121173   3.862   1.066   9.601
 6829SOL    HW221174   3.723   0.991   9.642
 6830SOL     OW21175   3.954   0.628  11.285
 6830SOL    HW121176   3.861   0.626  11.322
 6830SOL    HW221177   3.955   0.589  11.193
 6831SOL     OW21178   3.949   0.275  12.168
 6831SOL    HW121179   3.984   0.258  12.260
 6831SOL    HW221180   3.861   0.230  12.156
 6832SOL     OW21181   3.743   0.368  11.819
 6832SOL    HW121182   3.661   0.411  11.858
 6832SOL    HW221183   3.715   0.295  11.756
 6833SOL     OW21184   4.059   1.435  12.233
 6833SOL    HW121185   3.981   1.404  12.180
 6833SOL    HW221186   4.117   1.493  12.176
 6834SOL     OW21187   3.955   1.713  11.655
 6834SOL    HW121188   3.989   1.790  11.709
 6834SOL    HW221189   3.999   1.713  11.565
 6835SOL     OW21190   3.954   1.434  11.710
 6835SOL    HW121191   3.928   1.530  11.710
 6835SOL    HW221192   3.883   1.380  11.755
 6836SOL     OW21193   3.846   0.643  11.735
 6836SOL    HW121194   3.801   0.555  11.752
 6836SOL    HW221195   3.845   0.697  11.819
 6837SOL     OW21196   3.751   1.596  11.289
 6837SOL    HW121197   3.732   1.500  11.310
 6837SOL    HW221198   3.718   1.654  11.364
 6838SOL     OW21199   3.837   0.737  12.769
 6838SOL    HW121200   3.925   0.724  12.814
 6838SOL    HW221201   3.824   0.834  12.747
 6839SOL     OW21202   3.800   0.811  11.961
 6839SOL    HW121203   3.899   0.799  11.970
 6839SOL    HW221204   3.776   0.906  11.982
 6840SOL     OW21205   3.854   1.821  12.743
 6840SOL    HW121206   3.844   1.806  12.842
 6840SOL    HW221207   3.768   1.857  12.707
 6841SOL     OW21208   3.926   0.285  12.670
 6841SOL    HW121209   3.846   0.345  12.657
 6841SOL    HW221210   3.916   0.236  12.756
 6842SOL     OW21211   3.802   0.556  12.558
 6842SOL    HW121212   3.894   0.555  12.517
 6842SOL    HW221213   3.796   0.630  12.625
 6843SOL     OW21214   4.251   0.256  11.500
 6843SOL    HW121215   4.278   0.197  11.425
 6843SOL    HW221216   4.251   0.351  11.469
 6844SOL     OW21217   3.788   1.564  12.503
 6844SOL    HW121218   3.742   1.646  12.469
 6844SOL    HW221219   3.886   1.583  12.512
 6845SOL     OW21220   4.091   1.100  11.673
 6845SOL    HW121221   4.084   1.183  11.617
 6845SOL    HW221222   4.095   1.020  11.613
 6846SOL     OW21223   4.031   0.213  12.403
 6846SOL    HW121224   4.008   0.250  12.493
 6846SOL    HW221225   4.001   0.118  12.397
 6847SOL     OW21226   3.761   1.310  12.454
 6847SOL    HW121227   3.814   1.261  12.522
 6847SOL    HW221228   3.783   1.408  12.459
 6848SOL     OW21229   3.732   1.326  11.372
 6848SOL    HW121230   3.639   1.347  11.341
 6848SOL    HW221231   3.742   1.227  11.385
 6849SOL     OW21232   3.812   1.801  12.099
 6849SOL    HW121233   3.770   1.715  12.072
 6849SOL    HW221234   3.906   1.804  12.065
 6850SOL     OW21235   4.228   1.568  12.082
 6850SOL    HW121236   4.294   1.642  12.091
 6850SOL    HW221237   4.272   1.489  12.040
 6851SOL     OW21238   3.764   0.544  12.286
 6851SOL    HW121239   3.849   0.511  12.245
 6851SOL    HW221240   3.777   0.559  12.384
 6852SOL     OW21241   3.913   0.520  12.894
 6852SOL    HW121242   3.972   0.480  12.824
 6852SOL    HW221243   3.855   0.591  12.853
 6853SOL     OW21244   3.976   1.564  12.916
 6853SOL    HW121245   3.946   1.621  12.992
 6853SOL    HW221246   3.969   1.467  12.942
 6854SOL     OW21247   3.883   1.137  12.638
 6854SOL    HW121248   3.905   1.076  12.714
 6854SOL    HW221249   3.893   1.088  12.552
 6855SOL     OW21250   3.807   1.258  12.194
 6855SOL    HW121251   3.802   1.257  12.294
 6855SOL    HW221252   3.724   1.217  12.156
 6856SOL     OW21253   3.854   1.794  13.023
 6856SOL    HW121254   3.813   1.720  13.076
 6856SOL    HW221255   3.918   1.845  13.081
 6857SOL     OW21256   3.799   0.345  11.205
 6857SOL    HW121257   3.707   0.317  11.176
 6857SOL    HW221258   3.830   0.422  11.149
 6858SOL     OW21259   3.796   0.166  11.490
 6858SOL    HW121260   3.779   0.249  11.436
 6858SOL    HW221261   3.886   0.129  11.468
 6859SOL     OW21262   3.803   1.240  11.825
 6859SOL    HW121263   3.802   1.193  11.913
 6859SOL    HW221264   3.885   1.212  11.774
 6860SOL     OW21265   3.763   1.077  11.472
 6860SOL    HW121266   3.862   1.066  11.463
 6860SOL    HW221267   3.723   0.991  11.504
 6861SOL     OW21268   3.954   0.628  13.147
 6861SOL    HW121269   3.861   0.626  13.184
 6861SOL    HW221270   3.955   0.589  13.055
 6862SOL     OW21271   3.743   0.368  13.681
 6862SOL    HW121272   3.661   0.411  13.720
 6862SOL    HW221273   3.715   0.295  13.618
 6863SOL     OW21274   3.955   1.713  13.517
 6863SOL    HW121275   3.989   1.790  13.571
 6863SOL    HW221276   3.999   1.713  13.427
 6864SOL     OW21277   3.954   1.434  13.572
 6864SOL    HW121278   3.928   1.530  13.572
 6864SOL    HW221279   3.883   1.380  13.617
 6865SOL     OW21280   3.964   1.091  13.920
 6865SOL    HW121281   3.978   1.007  13.972
 6865SOL    HW221282   3.909   1.155  13.975
 6866SOL     OW21283   3.846   0.643  13.597
 6866SOL    HW121284   3.801   0.555  13.614
 6866SOL    HW221285   3.845   0.697  13.681
 6867SOL     OW21286   3.751   1.596  13.151
 6867SOL    HW121287   3.732   1.500  13.172
 6867SOL    HW221288   3.718   1.654  13.226
 6868SOL     OW21289   3.800   0.811  13.823
 6868SOL    HW121290   3.899   0.799  13.832
 6868SOL    HW221291   3.776   0.906  13.844
 6869SOL     OW21292   4.075   1.801  13.887
 6869SOL    HW121293   4.125   1.715  13.893
 6869SOL    HW221294   4.140   1.878  13.884
 6870SOL     OW21295   4.251   0.256  13.362
 6870SOL    HW121296   4.278   0.197  13.287
 6870SOL    HW221297   4.251   0.351  13.331
 6871SOL     OW21298   4.091   1.100  13.535
 6871SOL    HW121299   4.084   1.183  13.479
 6871SOL    HW221300   4.095   1.020  13.475
 6872SOL     OW21301   3.732   1.326  13.234
 6872SOL    HW121302   3.639   1.347  13.203
 6872SOL    HW221303   3.742   1.227  13.247
 6873SOL     OW21304   4.228   1.568  13.944
 6873SOL    HW121305   4.294   1.642  13.953
 6873SOL    HW221306   4.272   1.489  13.902
 6874SOL     OW21307   3.799   0.345  13.067
 6874SOL    HW121308   3.707   0.317  13.038
 6874SOL    HW221309   3.830   0.422  13.011
 6875SOL     OW21310   3.796   0.166  13.352
 6875SOL    HW121311   3.779   0.249  13.298
 6875SOL    HW221312   3.886   0.129  13.330
 6876SOL     OW21313   3.803   1.240  13.687
 6876SOL    HW121314   3.802   1.193  13.775
 6876SOL    HW221315   3.885   1.212  13.636
 6877SOL     OW21316   3.763   1.077  13.334
 6877SOL    HW121317   3.862   1.066  13.325
 6877SOL    HW221318   3.723   0.991  13.366
 6878SOL     OW21319   3.954   2.490   0.113
 6878SOL    HW121320   3.861   2.488   0.150
 6878SOL    HW221321   3.955   2.451   0.021
 6879SOL     OW21322   3.949   2.137   0.996
 6879SOL    HW121323   3.984   2.120   1.088
 6879SOL    HW221324   3.861   2.092   0.984
 6880SOL     OW21325   3.743   2.230   0.647
 6880SOL    HW121326   3.661   2.273   0.686
 6880SOL    HW221327   3.715   2.157   0.584
 6881SOL     OW21328   4.059   3.297   1.061
 6881SOL    HW121329   3.981   3.266   1.008
 6881SOL    HW221330   4.117   3.355   1.004
 6882SOL     OW21331   3.955   3.575   0.483
 6882SOL    HW121332   3.989   3.652   0.537
 6882SOL    HW221333   3.999   3.575   0.393
 6883SOL     OW21334   3.954   3.296   0.538
 6883SOL    HW121335   3.928   3.392   0.538
 6883SOL    HW221336   3.883   3.242   0.583
 6884SOL     OW21337   3.846   2.505   0.563
 6884SOL    HW121338   3.801   2.417   0.580
 6884SOL    HW221339   3.845   2.559   0.647
 6885SOL     OW21340   3.751   3.458   0.117
 6885SOL    HW121341   3.732   3.362   0.138
 6885SOL    HW221342   3.718   3.516   0.192
 6886SOL     OW21343   3.837   2.599   1.597
 6886SOL    HW121344   3.925   2.586   1.642
 6886SOL    HW221345   3.824   2.696   1.575
 6887SOL     OW21346   3.800   2.673   0.789
 6887SOL    HW121347   3.899   2.661   0.798
 6887SOL    HW221348   3.776   2.768   0.810
 6888SOL     OW21349   3.854   3.683   1.571
 6888SOL    HW121350   3.844   3.668   1.670
 6888SOL    HW221351   3.768   3.719   1.535
 6889SOL     OW21352   3.926   2.147   1.498
 6889SOL    HW121353   3.846   2.207   1.485
 6889SOL    HW221354   3.916   2.098   1.584
 6890SOL     OW21355   3.802   2.418   1.386
 6890SOL    HW121356   3.894   2.417   1.345
 6890SOL    HW221357   3.796   2.492   1.453
 6891SOL     OW21358   3.788   3.426   1.331
 6891SOL    HW121359   3.742   3.508   1.297
 6891SOL    HW221360   3.886   3.445   1.340
 6892SOL     OW21361   4.091   2.962   0.501
 6892SOL    HW121362   4.084   3.045   0.445
 6892SOL    HW221363   4.095   2.882   0.441
 6893SOL     OW21364   4.031   2.075   1.231
 6893SOL    HW121365   4.008   2.112   1.321
 6893SOL    HW221366   4.001   1.980   1.225
 6894SOL     OW21367   3.761   3.172   1.282
 6894SOL    HW121368   3.814   3.123   1.350
 6894SOL    HW221369   3.783   3.270   1.287
 6895SOL     OW21370   4.031   1.925   0.618
 6895SOL    HW121371   4.020   2.019   0.651
 6895SOL    HW221372   4.026   1.862   0.695
 6896SOL     OW21373   3.732   3.188   0.200
 6896SOL    HW121374   3.639   3.209   0.169
 6896SOL    HW221375   3.742   3.089   0.213
 6897SOL     OW21376   3.812   3.663   0.927
 6897SOL    HW121377   3.770   3.577   0.900
 6897SOL    HW221378   3.906   3.666   0.893
 6898SOL     OW21379   4.228   3.430   0.910
 6898SOL    HW121380   4.294   3.504   0.919
 6898SOL    HW221381   4.272   3.351   0.868
 6899SOL     OW21382   3.764   2.406   1.114
 6899SOL    HW121383   3.849   2.373   1.073
 6899SOL    HW221384   3.777   2.421   1.212
 6900SOL     OW21385   3.913   2.382   1.722
 6900SOL    HW121386   3.972   2.342   1.652
 6900SOL    HW221387   3.855   2.453   1.681
 6901SOL     OW21388   3.976   3.426   1.744
 6901SOL    HW121389   3.946   3.483   1.820
 6901SOL    HW221390   3.969   3.329   1.770
 6902SOL     OW21391   3.883   2.999   1.466
 6902SOL    HW121392   3.905   2.938   1.542
 6902SOL    HW221393   3.893   2.950   1.380
 6903SOL     OW21394   3.807   3.120   1.022
 6903SOL    HW121395   3.802   3.119   1.122
 6903SOL    HW221396   3.724   3.079   0.984
 6904SOL     OW21397   3.854   3.656   1.851
 6904SOL    HW121398   3.813   3.582   1.904
 6904SOL    HW221399   3.918   3.707   1.909
 6905SOL     OW21400   3.799   2.207   0.033
 6905SOL    HW121401   3.707   2.179   0.004
 6905SOL    HW221402   3.830   2.284  -0.023
 6906SOL     OW21403   3.796   2.028   0.318
 6906SOL    HW121404   3.779   2.111   0.264
 6906SOL    HW221405   3.886   1.991   0.296
 6907SOL     OW21406   3.803   3.102   0.653
 6907SOL    HW121407   3.802   3.055   0.741
 6907SOL    HW221408   3.885   3.074   0.602
 6908SOL     OW21409   3.763   2.939   0.300
 6908SOL    HW121410   3.862   2.928   0.291
 6908SOL    HW221411   3.723   2.853   0.332
 6909SOL     OW21412   3.954   2.490   1.975
 6909SOL    HW121413   3.861   2.488   2.012
 6909SOL    HW221414   3.955   2.451   1.883
 6910SOL     OW21415   3.949   2.137   2.858
 6910SOL    HW121416   3.984   2.120   2.950
 6910SOL    HW221417   3.861   2.092   2.846
 6911SOL     OW21418   3.743   2.230   2.509
 6911SOL    HW121419   3.661   2.273   2.548
 6911SOL    HW221420   3.715   2.157   2.446
 6912SOL     OW21421   4.059   3.297   2.923
 6912SOL    HW121422   3.981   3.266   2.870
 6912SOL    HW221423   4.117   3.355   2.866
 6913SOL     OW21424   3.955   3.575   2.345
 6913SOL    HW121425   3.989   3.652   2.399
 6913SOL    HW221426   3.999   3.575   2.255
 6914SOL     OW21427   3.954   3.296   2.400
 6914SOL    HW121428   3.928   3.392   2.400
 6914SOL    HW221429   3.883   3.242   2.445
 6915SOL     OW21430   3.846   2.505   2.425
 6915SOL    HW121431   3.801   2.417   2.442
 6915SOL    HW221432   3.845   2.559   2.509
 6916SOL     OW21433   3.751   3.458   1.979
 6916SOL    HW121434   3.732   3.362   2.000
 6916SOL    HW221435   3.718   3.516   2.054
 6917SOL     OW21436   3.837   2.599   3.459
 6917SOL    HW121437   3.925   2.586   3.504
 6917SOL    HW221438   3.824   2.696   3.437
 6918SOL     OW21439   3.800   2.673   2.651
 6918SOL    HW121440   3.899   2.661   2.660
 6918SOL    HW221441   3.776   2.768   2.672
 6919SOL     OW21442   3.854   3.683   3.433
 6919SOL    HW121443   3.844   3.668   3.532
 6919SOL    HW221444   3.768   3.719   3.397
 6920SOL     OW21445   3.926   2.147   3.360
 6920SOL    HW121446   3.846   2.207   3.347
 6920SOL    HW221447   3.916   2.098   3.446
 6921SOL     OW21448   4.021   1.897   2.033
 6921SOL    HW121449   4.070   1.981   2.012
 6921SOL    HW221450   4.083   1.832   2.078
 6922SOL     OW21451   3.802   2.418   3.248
 6922SOL    HW121452   3.894   2.417   3.207
 6922SOL    HW221453   3.796   2.492   3.315
 6923SOL     OW21454   4.251   2.118   2.190
 6923SOL    HW121455   4.278   2.059   2.115
 6923SOL    HW221456   4.251   2.213   2.159
 6924SOL     OW21457   3.788   3.426   3.193
 6924SOL    HW121458   3.742   3.508   3.159
 6924SOL    HW221459   3.886   3.445   3.202
 6925SOL     OW21460   4.091   2.962   2.363
 6925SOL    HW121461   4.084   3.045   2.307
 6925SOL    HW221462   4.095   2.882   2.303
 6926SOL     OW21463   4.031   2.075   3.093
 6926SOL    HW121464   4.008   2.112   3.183
 6926SOL    HW221465   4.001   1.980   3.087
 6927SOL     OW21466   3.761   3.172   3.144
 6927SOL    HW121467   3.814   3.123   3.212
 6927SOL    HW221468   3.783   3.270   3.149
 6928SOL     OW21469   4.031   1.925   2.480
 6928SOL    HW121470   4.020   2.019   2.513
 6928SOL    HW221471   4.026   1.862   2.557
 6929SOL     OW21472   3.732   3.188   2.062
 6929SOL    HW121473   3.639   3.209   2.031
 6929SOL    HW221474   3.742   3.089   2.075
 6930SOL     OW21475   3.812   3.663   2.789
 6930SOL    HW121476   3.770   3.577   2.762
 6930SOL    HW221477   3.906   3.666   2.755
 6931SOL     OW21478   4.228   3.430   2.772
 6931SOL    HW121479   4.294   3.504   2.781
 6931SOL    HW221480   4.272   3.351   2.730
 6932SOL     OW21481   3.764   2.406   2.976
 6932SOL    HW121482   3.849   2.373   2.935
 6932SOL    HW221483   3.777   2.421   3.074
 6933SOL     OW21484   3.913   2.382   3.584
 6933SOL    HW121485   3.972   2.342   3.514
 6933SOL    HW221486   3.855   2.453   3.543
 6934SOL     OW21487   3.976   3.426   3.606
 6934SOL    HW121488   3.946   3.483   3.682
 6934SOL    HW221489   3.969   3.329   3.632
 6935SOL     OW21490   3.883   2.999   3.328
 6935SOL    HW121491   3.905   2.938   3.404
 6935SOL    HW221492   3.893   2.950   3.242
 6936SOL     OW21493   3.807   3.120   2.884
 6936SOL    HW121494   3.802   3.119   2.984
 6936SOL    HW221495   3.724   3.079   2.846
 6937SOL     OW21496   3.854   3.656   3.713
 6937SOL    HW121497   3.813   3.582   3.766
 6937SOL    HW221498   3.918   3.707   3.771
 6938SOL     OW21499   3.799   2.207   1.895
 6938SOL    HW121500   3.707   2.179   1.866
 6938SOL    HW221501   3.830   2.284   1.839
 6939SOL     OW21502   3.796   2.028   2.180
 6939SOL    HW121503   3.779   2.111   2.126
 6939SOL    HW221504   3.886   1.991   2.158
 6940SOL     OW21505   3.803   3.102   2.515
 6940SOL    HW121506   3.802   3.055   2.603
 6940SOL    HW221507   3.885   3.074   2.464
 6941SOL     OW21508   3.763   2.939   2.162
 6941SOL    HW121509   3.862   2.928   2.153
 6941SOL    HW221510   3.723   2.853   2.194
 6942SOL     OW21511   3.954   2.490   3.837
 6942SOL    HW121512   3.861   2.488   3.874
 6942SOL    HW221513   3.955   2.451   3.745
 6943SOL     OW21514   3.949   2.137   4.720
 6943SOL    HW121515   3.984   2.120   4.812
 6943SOL    HW221516   3.861   2.092   4.708
 6944SOL     OW21517   3.743   2.230   4.371
 6944SOL    HW121518   3.661   2.273   4.410
 6944SOL    HW221519   3.715   2.157   4.308
 6945SOL     OW21520   4.059   3.297   4.785
 6945SOL    HW121521   3.981   3.266   4.732
 6945SOL    HW221522   4.117   3.355   4.728
 6946SOL     OW21523   3.955   3.575   4.207
 6946SOL    HW121524   3.989   3.652   4.261
 6946SOL    HW221525   3.999   3.575   4.117
 6947SOL     OW21526   3.954   3.296   4.262
 6947SOL    HW121527   3.928   3.392   4.262
 6947SOL    HW221528   3.883   3.242   4.307
 6948SOL     OW21529   3.846   2.505   4.287
 6948SOL    HW121530   3.801   2.417   4.304
 6948SOL    HW221531   3.845   2.559   4.371
 6949SOL     OW21532   3.751   3.458   3.841
 6949SOL    HW121533   3.732   3.362   3.862
 6949SOL    HW221534   3.718   3.516   3.916
 6950SOL     OW21535   3.837   2.599   5.321
 6950SOL    HW121536   3.925   2.586   5.366
 6950SOL    HW221537   3.824   2.696   5.299
 6951SOL     OW21538   3.800   2.673   4.513
 6951SOL    HW121539   3.899   2.661   4.522
 6951SOL    HW221540   3.776   2.768   4.534
 6952SOL     OW21541   3.854   3.683   5.295
 6952SOL    HW121542   3.844   3.668   5.394
 6952SOL    HW221543   3.768   3.719   5.259
 6953SOL     OW21544   3.926   2.147   5.222
 6953SOL    HW121545   3.846   2.207   5.209
 6953SOL    HW221546   3.916   2.098   5.308
 6954SOL     OW21547   4.021   1.897   3.895
 6954SOL    HW121548   4.070   1.981   3.874
 6954SOL    HW221549   4.083   1.832   3.940
 6955SOL     OW21550   3.802   2.418   5.110
 6955SOL    HW121551   3.894   2.417   5.069
 6955SOL    HW221552   3.796   2.492   5.177
 6956SOL     OW21553   4.251   2.118   4.052
 6956SOL    HW121554   4.278   2.059   3.977
 6956SOL    HW221555   4.251   2.213   4.021
 6957SOL     OW21556   3.788   3.426   5.055
 6957SOL    HW121557   3.742   3.508   5.021
 6957SOL    HW221558   3.886   3.445   5.064
 6958SOL     OW21559   4.091   2.962   4.225
 6958SOL    HW121560   4.084   3.045   4.169
 6958SOL    HW221561   4.095   2.882   4.165
 6959SOL     OW21562   4.031   2.075   4.955
 6959SOL    HW121563   4.008   2.112   5.045
 6959SOL    HW221564   4.001   1.980   4.949
 6960SOL     OW21565   3.761   3.172   5.006
 6960SOL    HW121566   3.814   3.123   5.074
 6960SOL    HW221567   3.783   3.270   5.011
 6961SOL     OW21568   4.031   1.925   4.342
 6961SOL    HW121569   4.020   2.019   4.375
 6961SOL    HW221570   4.026   1.862   4.419
 6962SOL     OW21571   3.732   3.188   3.924
 6962SOL    HW121572   3.639   3.209   3.893
 6962SOL    HW221573   3.742   3.089   3.937
 6963SOL     OW21574   3.812   3.663   4.651
 6963SOL    HW121575   3.770   3.577   4.624
 6963SOL    HW221576   3.906   3.666   4.617
 6964SOL     OW21577   4.228   3.430   4.634
 6964SOL    HW121578   4.294   3.504   4.643
 6964SOL    HW221579   4.272   3.351   4.592
 6965SOL     OW21580   3.764   2.406   4.838
 6965SOL    HW121581   3.849   2.373   4.797
 6965SOL    HW221582   3.777   2.421   4.936
 6966SOL     OW21583   3.913   2.382   5.446
 6966SOL    HW121584   3.972   2.342   5.376
 6966SOL    HW221585   3.855   2.453   5.405
 6967SOL     OW21586   3.976   3.426   5.468
 6967SOL    HW121587   3.946   3.483   5.544
 6967SOL    HW221588   3.969   3.329   5.494
 6968SOL     OW21589   3.883   2.999   5.190
 6968SOL    HW121590   3.905   2.938   5.266
 6968SOL    HW221591   3.893   2.950   5.104
 6969SOL     OW21592   3.807   3.120   4.746
 6969SOL    HW121593   3.802   3.119   4.846
 6969SOL    HW221594   3.724   3.079   4.708
 6970SOL     OW21595   3.854   3.656   5.575
 6970SOL    HW121596   3.813   3.582   5.628
 6970SOL    HW221597   3.918   3.707   5.633
 6971SOL     OW21598   3.799   2.207   3.757
 6971SOL    HW121599   3.707   2.179   3.728
 6971SOL    HW221600   3.830   2.284   3.701
 6972SOL     OW21601   3.796   2.028   4.042
 6972SOL    HW121602   3.779   2.111   3.988
 6972SOL    HW221603   3.886   1.991   4.020
 6973SOL     OW21604   3.803   3.102   4.377
 6973SOL    HW121605   3.802   3.055   4.465
 6973SOL    HW221606   3.885   3.074   4.326
 6974SOL     OW21607   3.763   2.939   4.024
 6974SOL    HW121608   3.862   2.928   4.015
 6974SOL    HW221609   3.723   2.853   4.056
 6975SOL     OW21610   3.954   2.490   5.699
 6975SOL    HW121611   3.861   2.488   5.736
 6975SOL    HW221612   3.955   2.451   5.607
 6976SOL     OW21613   3.949   2.137   6.582
 6976SOL    HW121614   3.984   2.120   6.674
 6976SOL    HW221615   3.861   2.092   6.570
 6977SOL     OW21616   3.743   2.230   6.233
 6977SOL    HW121617   3.661   2.273   6.272
 6977SOL    HW221618   3.715   2.157   6.170
 6978SOL     OW21619   4.059   3.297   6.647
 6978SOL    HW121620   3.981   3.266   6.594
 6978SOL    HW221621   4.117   3.355   6.590
 6979SOL     OW21622   3.955   3.575   6.069
 6979SOL    HW121623   3.989   3.652   6.123
 6979SOL    HW221624   3.999   3.575   5.979
 6980SOL     OW21625   3.954   3.296   6.124
 6980SOL    HW121626   3.928   3.392   6.124
 6980SOL    HW221627   3.883   3.242   6.169
 6981SOL     OW21628   3.846   2.505   6.149
 6981SOL    HW121629   3.801   2.417   6.166
 6981SOL    HW221630   3.845   2.559   6.233
 6982SOL     OW21631   3.751   3.458   5.703
 6982SOL    HW121632   3.732   3.362   5.724
 6982SOL    HW221633   3.718   3.516   5.778
 6983SOL     OW21634   3.837   2.599   7.183
 6983SOL    HW121635   3.925   2.586   7.228
 6983SOL    HW221636   3.824   2.696   7.161
 6984SOL     OW21637   3.800   2.673   6.375
 6984SOL    HW121638   3.899   2.661   6.384
 6984SOL    HW221639   3.776   2.768   6.396
 6985SOL     OW21640   3.854   3.683   7.157
 6985SOL    HW121641   3.844   3.668   7.256
 6985SOL    HW221642   3.768   3.719   7.121
 6986SOL     OW21643   3.926   2.147   7.084
 6986SOL    HW121644   3.846   2.207   7.071
 6986SOL    HW221645   3.916   2.098   7.170
 6987SOL     OW21646   4.021   1.897   5.757
 6987SOL    HW121647   4.070   1.981   5.736
 6987SOL    HW221648   4.083   1.832   5.802
 6988SOL     OW21649   3.802   2.418   6.972
 6988SOL    HW121650   3.894   2.417   6.931
 6988SOL    HW221651   3.796   2.492   7.039
 6989SOL     OW21652   4.251   2.118   5.914
 6989SOL    HW121653   4.278   2.059   5.839
 6989SOL    HW221654   4.251   2.213   5.883
 6990SOL     OW21655   3.788   3.426   6.917
 6990SOL    HW121656   3.742   3.508   6.883
 6990SOL    HW221657   3.886   3.445   6.926
 6991SOL     OW21658   4.091   2.962   6.087
 6991SOL    HW121659   4.084   3.045   6.031
 6991SOL    HW221660   4.095   2.882   6.027
 6992SOL     OW21661   4.031   2.075   6.817
 6992SOL    HW121662   4.008   2.112   6.907
 6992SOL    HW221663   4.001   1.980   6.811
 6993SOL     OW21664   3.761   3.172   6.868
 6993SOL    HW121665   3.814   3.123   6.936
 6993SOL    HW221666   3.783   3.270   6.873
 6994SOL     OW21667   4.031   1.925   6.204
 6994SOL    HW121668   4.020   2.019   6.237
 6994SOL    HW221669   4.026   1.862   6.281
 6995SOL     OW21670   3.732   3.188   5.786
 6995SOL    HW121671   3.639   3.209   5.755
 6995SOL    HW221672   3.742   3.089   5.799
 6996SOL     OW21673   3.812   3.663   6.513
 6996SOL    HW121674   3.770   3.577   6.486
 6996SOL    HW221675   3.906   3.666   6.479
 6997SOL     OW21676   4.228   3.430   6.496
 6997SOL    HW121677   4.294   3.504   6.505
 6997SOL    HW221678   4.272   3.351   6.454
 6998SOL     OW21679   3.764   2.406   6.700
 6998SOL    HW121680   3.849   2.373   6.659
 6998SOL    HW221681   3.777   2.421   6.798
 6999SOL     OW21682   3.913   2.382   7.308
 6999SOL    HW121683   3.972   2.342   7.238
 6999SOL    HW221684   3.855   2.453   7.267
 7000SOL     OW21685   3.976   3.426   7.330
 7000SOL    HW121686   3.946   3.483   7.406
 7000SOL    HW221687   3.969   3.329   7.356
 7001SOL     OW21688   3.883   2.999   7.052
 7001SOL    HW121689   3.905   2.938   7.128
 7001SOL    HW221690   3.893   2.950   6.966
 7002SOL     OW21691   3.807   3.120   6.608
 7002SOL    HW121692   3.802   3.119   6.708
 7002SOL    HW221693   3.724   3.079   6.570
 7003SOL     OW21694   3.854   3.656   7.437
 7003SOL    HW121695   3.813   3.582   7.490
 7003SOL    HW221696   3.918   3.707   7.495
 7004SOL     OW21697   3.799   2.207   5.619
 7004SOL    HW121698   3.707   2.179   5.590
 7004SOL    HW221699   3.830   2.284   5.563
 7005SOL     OW21700   3.796   2.028   5.904
 7005SOL    HW121701   3.779   2.111   5.850
 7005SOL    HW221702   3.886   1.991   5.882
 7006SOL     OW21703   3.803   3.102   6.239
 7006SOL    HW121704   3.802   3.055   6.327
 7006SOL    HW221705   3.885   3.074   6.188
 7007SOL     OW21706   3.763   2.939   5.886
 7007SOL    HW121707   3.862   2.928   5.877
 7007SOL    HW221708   3.723   2.853   5.918
 7008SOL     OW21709   3.954   2.490   7.561
 7008SOL    HW121710   3.861   2.488   7.598
 7008SOL    HW221711   3.955   2.451   7.469
 7009SOL     OW21712   3.949   2.137   8.444
 7009SOL    HW121713   3.984   2.120   8.536
 7009SOL    HW221714   3.861   2.092   8.432
 7010SOL     OW21715   3.743   2.230   8.095
 7010SOL    HW121716   3.661   2.273   8.134
 7010SOL    HW221717   3.715   2.157   8.032
 7011SOL     OW21718   4.059   3.297   8.509
 7011SOL    HW121719   3.981   3.266   8.456
 7011SOL    HW221720   4.117   3.355   8.452
 7012SOL     OW21721   3.955   3.575   7.931
 7012SOL    HW121722   3.989   3.652   7.985
 7012SOL    HW221723   3.999   3.575   7.841
 7013SOL     OW21724   3.954   3.296   7.986
 7013SOL    HW121725   3.928   3.392   7.986
 7013SOL    HW221726   3.883   3.242   8.031
 7014SOL     OW21727   3.846   2.505   8.011
 7014SOL    HW121728   3.801   2.417   8.028
 7014SOL    HW221729   3.845   2.559   8.095
 7015SOL     OW21730   3.751   3.458   7.565
 7015SOL    HW121731   3.732   3.362   7.586
 7015SOL    HW221732   3.718   3.516   7.640
 7016SOL     OW21733   3.837   2.599   9.045
 7016SOL    HW121734   3.925   2.586   9.090
 7016SOL    HW221735   3.824   2.696   9.023
 7017SOL     OW21736   3.800   2.673   8.237
 7017SOL    HW121737   3.899   2.661   8.246
 7017SOL    HW221738   3.776   2.768   8.258
 7018SOL     OW21739   3.854   3.683   9.019
 7018SOL    HW121740   3.844   3.668   9.118
 7018SOL    HW221741   3.768   3.719   8.983
 7019SOL     OW21742   3.926   2.147   8.946
 7019SOL    HW121743   3.846   2.207   8.933
 7019SOL    HW221744   3.916   2.098   9.032
 7020SOL     OW21745   4.021   1.897   7.619
 7020SOL    HW121746   4.070   1.981   7.598
 7020SOL    HW221747   4.083   1.832   7.664
 7021SOL     OW21748   3.802   2.418   8.834
 7021SOL    HW121749   3.894   2.417   8.793
 7021SOL    HW221750   3.796   2.492   8.901
 7022SOL     OW21751   4.251   2.118   7.776
 7022SOL    HW121752   4.278   2.059   7.701
 7022SOL    HW221753   4.251   2.213   7.745
 7023SOL     OW21754   3.788   3.426   8.779
 7023SOL    HW121755   3.742   3.508   8.745
 7023SOL    HW221756   3.886   3.445   8.788
 7024SOL     OW21757   4.091   2.962   7.949
 7024SOL    HW121758   4.084   3.045   7.893
 7024SOL    HW221759   4.095   2.882   7.889
 7025SOL     OW21760   4.031   2.075   8.679
 7025SOL    HW121761   4.008   2.112   8.769
 7025SOL    HW221762   4.001   1.980   8.673
 7026SOL     OW21763   3.761   3.172   8.730
 7026SOL    HW121764   3.814   3.123   8.798
 7026SOL    HW221765   3.783   3.270   8.735
 7027SOL     OW21766   4.031   1.925   8.066
 7027SOL    HW121767   4.020   2.019   8.099
 7027SOL    HW221768   4.026   1.862   8.143
 7028SOL     OW21769   3.732   3.188   7.648
 7028SOL    HW121770   3.639   3.209   7.617
 7028SOL    HW221771   3.742   3.089   7.661
 7029SOL     OW21772   3.812   3.663   8.375
 7029SOL    HW121773   3.770   3.577   8.348
 7029SOL    HW221774   3.906   3.666   8.341
 7030SOL     OW21775   4.228   3.430   8.358
 7030SOL    HW121776   4.294   3.504   8.367
 7030SOL    HW221777   4.272   3.351   8.316
 7031SOL     OW21778   3.764   2.406   8.562
 7031SOL    HW121779   3.849   2.373   8.521
 7031SOL    HW221780   3.777   2.421   8.660
 7032SOL     OW21781   3.913   2.382   9.170
 7032SOL    HW121782   3.972   2.342   9.100
 7032SOL    HW221783   3.855   2.453   9.129
 7033SOL     OW21784   3.976   3.426   9.192
 7033SOL    HW121785   3.946   3.483   9.268
 7033SOL    HW221786   3.969   3.329   9.218
 7034SOL     OW21787   3.883   2.999   8.914
 7034SOL    HW121788   3.905   2.938   8.990
 7034SOL    HW221789   3.893   2.950   8.828
 7035SOL     OW21790   3.807   3.120   8.470
 7035SOL    HW121791   3.802   3.119   8.570
 7035SOL    HW221792   3.724   3.079   8.432
 7036SOL     OW21793   3.854   3.656   9.299
 7036SOL    HW121794   3.813   3.582   9.352
 7036SOL    HW221795   3.918   3.707   9.357
 7037SOL     OW21796   3.799   2.207   7.481
 7037SOL    HW121797   3.707   2.179   7.452
 7037SOL    HW221798   3.830   2.284   7.425
 7038SOL     OW21799   3.796   2.028   7.766
 7038SOL    HW121800   3.779   2.111   7.712
 7038SOL    HW221801   3.886   1.991   7.744
 7039SOL     OW21802   3.803   3.102   8.101
 7039SOL    HW121803   3.802   3.055   8.189
 7039SOL    HW221804   3.885   3.074   8.050
 7040SOL     OW21805   3.763   2.939   7.748
 7040SOL    HW121806   3.862   2.928   7.739
 7040SOL    HW221807   3.723   2.853   7.780
 7041SOL     OW21808   3.954   2.490   9.423
 7041SOL    HW121809   3.861   2.488   9.460
 7041SOL    HW221810   3.955   2.451   9.331
 7042SOL     OW21811   3.949   2.137  10.306
 7042SOL    HW121812   3.984   2.120  10.398
 7042SOL    HW221813   3.861   2.092  10.294
 7043SOL     OW21814   3.743   2.230   9.957
 7043SOL    HW121815   3.661   2.273   9.996
 7043SOL    HW221816   3.715   2.157   9.894
 7044SOL     OW21817   4.059   3.297  10.371
 7044SOL    HW121818   3.981   3.266  10.318
 7044SOL    HW221819   4.117   3.355  10.314
 7045SOL     OW21820   3.955   3.575   9.793
 7045SOL    HW121821   3.989   3.652   9.847
 7045SOL    HW221822   3.999   3.575   9.703
 7046SOL     OW21823   3.954   3.296   9.848
 7046SOL    HW121824   3.928   3.392   9.848
 7046SOL    HW221825   3.883   3.242   9.893
 7047SOL     OW21826   3.846   2.505   9.873
 7047SOL    HW121827   3.801   2.417   9.890
 7047SOL    HW221828   3.845   2.559   9.957
 7048SOL     OW21829   3.751   3.458   9.427
 7048SOL    HW121830   3.732   3.362   9.448
 7048SOL    HW221831   3.718   3.516   9.502
 7049SOL     OW21832   3.837   2.599  10.907
 7049SOL    HW121833   3.925   2.586  10.952
 7049SOL    HW221834   3.824   2.696  10.885
 7050SOL     OW21835   3.800   2.673  10.099
 7050SOL    HW121836   3.899   2.661  10.108
 7050SOL    HW221837   3.776   2.768  10.120
 7051SOL     OW21838   3.854   3.683  10.881
 7051SOL    HW121839   3.844   3.668  10.980
 7051SOL    HW221840   3.768   3.719  10.845
 7052SOL     OW21841   3.926   2.147  10.808
 7052SOL    HW121842   3.846   2.207  10.795
 7052SOL    HW221843   3.916   2.098  10.894
 7053SOL     OW21844   4.021   1.897   9.481
 7053SOL    HW121845   4.070   1.981   9.460
 7053SOL    HW221846   4.083   1.832   9.526
 7054SOL     OW21847   3.802   2.418  10.696
 7054SOL    HW121848   3.894   2.417  10.655
 7054SOL    HW221849   3.796   2.492  10.763
 7055SOL     OW21850   4.251   2.118   9.638
 7055SOL    HW121851   4.278   2.059   9.563
 7055SOL    HW221852   4.251   2.213   9.607
 7056SOL     OW21853   3.788   3.426  10.641
 7056SOL    HW121854   3.742   3.508  10.607
 7056SOL    HW221855   3.886   3.445  10.650
 7057SOL     OW21856   4.091   2.962   9.811
 7057SOL    HW121857   4.084   3.045   9.755
 7057SOL    HW221858   4.095   2.882   9.751
 7058SOL     OW21859   4.031   2.075  10.541
 7058SOL    HW121860   4.008   2.112  10.631
 7058SOL    HW221861   4.001   1.980  10.535
 7059SOL     OW21862   3.761   3.172  10.592
 7059SOL    HW121863   3.814   3.123  10.660
 7059SOL    HW221864   3.783   3.270  10.597
 7060SOL     OW21865   4.031   1.925   9.928
 7060SOL    HW121866   4.020   2.019   9.961
 7060SOL    HW221867   4.026   1.862  10.005
 7061SOL     OW21868   3.732   3.188   9.510
 7061SOL    HW121869   3.639   3.209   9.479
 7061SOL    HW221870   3.742   3.089   9.523
 7062SOL     OW21871   3.812   3.663  10.237
 7062SOL    HW121872   3.770   3.577  10.210
 7062SOL    HW221873   3.906   3.666  10.203
 7063SOL     OW21874   4.228   3.430  10.220
 7063SOL    HW121875   4.294   3.504  10.229
 7063SOL    HW221876   4.272   3.351  10.178
 7064SOL     OW21877   3.764   2.406  10.424
 7064SOL    HW121878   3.849   2.373  10.383
 7064SOL    HW221879   3.777   2.421  10.522
 7065SOL     OW21880   3.913   2.382  11.032
 7065SOL    HW121881   3.972   2.342  10.962
 7065SOL    HW221882   3.855   2.453  10.991
 7066SOL     OW21883   3.976   3.426  11.054
 7066SOL    HW121884   3.946   3.483  11.130
 7066SOL    HW221885   3.969   3.329  11.080
 7067SOL     OW21886   3.883   2.999  10.776
 7067SOL    HW121887   3.905   2.938  10.852
 7067SOL    HW221888   3.893   2.950  10.690
 7068SOL     OW21889   3.807   3.120  10.332
 7068SOL    HW121890   3.802   3.119  10.432
 7068SOL    HW221891   3.724   3.079  10.294
 7069SOL     OW21892   3.854   3.656  11.161
 7069SOL    HW121893   3.813   3.582  11.214
 7069SOL    HW221894   3.918   3.707  11.219
 7070SOL     OW21895   3.799   2.207   9.343
 7070SOL    HW121896   3.707   2.179   9.314
 7070SOL    HW221897   3.830   2.284   9.287
 7071SOL     OW21898   3.796   2.028   9.628
 7071SOL    HW121899   3.779   2.111   9.574
 7071SOL    HW221900   3.886   1.991   9.606
 7072SOL     OW21901   3.803   3.102   9.963
 7072SOL    HW121902   3.802   3.055  10.051
 7072SOL    HW221903   3.885   3.074   9.912
 7073SOL     OW21904   3.763   2.939   9.610
 7073SOL    HW121905   3.862   2.928   9.601
 7073SOL    HW221906   3.723   2.853   9.642
 7074SOL     OW21907   3.954   2.490  11.285
 7074SOL    HW121908   3.861   2.488  11.322
 7074SOL    HW221909   3.955   2.451  11.193
 7075SOL     OW21910   3.949   2.137  12.168
 7075SOL    HW121911   3.984   2.120  12.260
 7075SOL    HW221912   3.861   2.092  12.156
 7076SOL     OW21913   3.743   2.230  11.819
 7076SOL    HW121914   3.661   2.273  11.858
 7076SOL    HW221915   3.715   2.157  11.756
 7077SOL     OW21916   4.059   3.297  12.233
 7077SOL    HW121917   3.981   3.266  12.180
 7077SOL    HW221918   4.117   3.355  12.176
 7078SOL     OW21919   3.955   3.575  11.655
 7078SOL    HW121920   3.989   3.652  11.709
 7078SOL    HW221921   3.999   3.575  11.565
 7079SOL     OW21922   3.954   3.296  11.710
 7079SOL    HW121923   3.928   3.392  11.710
 7079SOL    HW221924   3.883   3.242  11.755
 7080SOL     OW21925   3.846   2.505  11.735
 7080SOL    HW121926   3.801   2.417  11.752
 7080SOL    HW221927   3.845   2.559  11.819
 7081SOL     OW21928   3.751   3.458  11.289
 7081SOL    HW121929   3.732   3.362  11.310
 7081SOL    HW221930   3.718   3.516  11.364
 7082SOL     OW21931   3.837   2.599  12.769
 7082SOL    HW121932   3.925   2.586  12.814
 7082SOL    HW221933   3.824   2.696  12.747
 7083SOL     OW21934   3.800   2.673  11.961
 7083SOL    HW121935   3.899   2.661  11.970
 7083SOL    HW221936   3.776   2.768  11.982
 7084SOL     OW21937   3.854   3.683  12.743
 7084SOL    HW121938   3.844   3.668  12.842
 7084SOL    HW221939   3.768   3.719  12.707
 7085SOL     OW21940   3.926   2.147  12.670
 7085SOL    HW121941   3.846   2.207  12.657
 7085SOL    HW221942   3.916   2.098  12.756
 7086SOL     OW21943   4.021   1.897  11.343
 7086SOL    HW121944   4.070   1.981  11.322
 7086SOL    HW221945   4.083   1.832  11.388
 7087SOL     OW21946   3.802   2.418  12.558
 7087SOL    HW121947   3.894   2.417  12.517
 7087SOL    HW221948   3.796   2.492  12.625
 7088SOL     OW21949   4.251   2.118  11.500
 7088SOL    HW121950   4.278   2.059  11.425
 7088SOL    HW221951   4.251   2.213  11.469
 7089SOL     OW21952   3.788   3.426  12.503
 7089SOL    HW121953   3.742   3.508  12.469
 7089SOL    HW221954   3.886   3.445  12.512
 7090SOL     OW21955   4.091   2.962  11.673
 7090SOL    HW121956   4.084   3.045  11.617
 7090SOL    HW221957   4.095   2.882  11.613
 7091SOL     OW21958   4.031   2.075  12.403
 7091SOL    HW121959   4.008   2.112  12.493
 7091SOL    HW221960   4.001   1.980  12.397
 7092SOL     OW21961   3.761   3.172  12.454
 7092SOL    HW121962   3.814   3.123  12.522
 7092SOL    HW221963   3.783   3.270  12.459
 7093SOL     OW21964   4.031   1.925  11.790
 7093SOL    HW121965   4.020   2.019  11.823
 7093SOL    HW221966   4.026   1.862  11.867
 7094SOL     OW21967   3.732   3.188  11.372
 7094SOL    HW121968   3.639   3.209  11.341
 7094SOL    HW221969   3.742   3.089  11.385
 7095SOL     OW21970   3.812   3.663  12.099
 7095SOL    HW121971   3.770   3.577  12.072
 7095SOL    HW221972   3.906   3.666  12.065
 7096SOL     OW21973   4.228   3.430  12.082
 7096SOL    HW121974   4.294   3.504  12.091
 7096SOL    HW221975   4.272   3.351  12.040
 7097SOL     OW21976   3.764   2.406  12.286
 7097SOL    HW121977   3.849   2.373  12.245
 7097SOL    HW221978   3.777   2.421  12.384
 7098SOL     OW21979   3.913   2.382  12.894
 7098SOL    HW121980   3.972   2.342  12.824
 7098SOL    HW221981   3.855   2.453  12.853
 7099SOL     OW21982   3.976   3.426  12.916
 7099SOL    HW121983   3.946   3.483  12.992
 7099SOL    HW221984   3.969   3.329  12.942
 7100SOL     OW21985   3.883   2.999  12.638
 7100SOL    HW121986   3.905   2.938  12.714
 7100SOL    HW221987   3.893   2.950  12.552
 7101SOL     OW21988   3.807   3.120  12.194
 7101SOL    HW121989   3.802   3.119  12.294
 7101SOL    HW221990   3.724   3.079  12.156
 7102SOL     OW21991   3.854   3.656  13.023
 7102SOL    HW121992   3.813   3.582  13.076
 7102SOL    HW221993   3.918   3.707  13.081
 7103SOL     OW21994   3.799   2.207  11.205
 7103SOL    HW121995   3.707   2.179  11.176
 7103SOL    HW221996   3.830   2.284  11.149
 7104SOL     OW21997   3.796   2.028  11.490
 7104SOL    HW121998   3.779   2.111  11.436
 7104SOL    HW221999   3.886   1.991  11.468
 7105SOL     OW22000   3.803   3.102  11.825
 7105SOL    HW122001   3.802   3.055  11.913
 7105SOL    HW222002   3.885   3.074  11.774
 7106SOL     OW22003   3.763   2.939  11.472
 7106SOL    HW122004   3.862   2.928  11.463
 7106SOL    HW222005   3.723   2.853  11.504
 7107SOL     OW22006   3.954   2.490  13.147
 7107SOL    HW122007   3.861   2.488  13.184
 7107SOL    HW222008   3.955   2.451  13.055
 7108SOL     OW22009   3.743   2.230  13.681
 7108SOL    HW122010   3.661   2.273  13.720
 7108SOL    HW222011   3.715   2.157  13.618
 7109SOL     OW22012   3.955   3.575  13.517
 7109SOL    HW122013   3.989   3.652  13.571
 7109SOL    HW222014   3.999   3.575  13.427
 7110SOL     OW22015   3.954   3.296  13.572
 7110SOL    HW122016   3.928   3.392  13.572
 7110SOL    HW222017   3.883   3.242  13.617
 7111SOL     OW22018   3.964   2.953  13.920
 7111SOL    HW122019   3.978   2.869  13.972
 7111SOL    HW222020   3.909   3.017  13.975
 7112SOL     OW22021   3.846   2.505  13.597
 7112SOL    HW122022   3.801   2.417  13.614
 7112SOL    HW222023   3.845   2.559  13.681
 7113SOL     OW22024   3.751   3.458  13.151
 7113SOL    HW122025   3.732   3.362  13.172
 7113SOL    HW222026   3.718   3.516  13.226
 7114SOL     OW22027   3.800   2.673  13.823
 7114SOL    HW122028   3.899   2.661  13.832
 7114SOL    HW222029   3.776   2.768  13.844
 7115SOL     OW22030   4.075   3.663  13.887
 7115SOL    HW122031   4.125   3.577  13.893
 7115SOL    HW222032   4.140   3.740  13.884
 7116SOL     OW22033   4.021   1.897  13.205
 7116SOL    HW122034   4.070   1.981  13.184
 7116SOL    HW222035   4.083   1.832  13.250
 7117SOL     OW22036   4.251   2.118  13.362
 7117SOL    HW122037   4.278   2.059  13.287
 7117SOL    HW222038   4.251   2.213  13.331
 7118SOL     OW22039   4.091   2.962  13.535
 7118SOL    HW122040   4.084   3.045  13.479
 7118SOL    HW222041   4.095   2.882  13.475
 7119SOL     OW22042   4.031   1.925  13.652
 7119SOL    HW122043   4.020   2.019  13.685
 7119SOL    HW222044   4.026   1.862  13.729
 7120SOL     OW22045   3.732   3.188  13.234
 7120SOL    HW122046   3.639   3.209  13.203
 7120SOL    HW222047   3.742   3.089  13.247
 7121SOL     OW22048   4.228   3.430  13.944
 7121SOL    HW122049   4.294   3.504  13.953
 7121SOL    HW222050   4.272   3.351  13.902
 7122SOL     OW22051   3.799   2.207  13.067
 7122SOL    HW122052   3.707   2.179  13.038
 7122SOL    HW222053   3.830   2.284  13.011
 7123SOL     OW22054   3.796   2.028  13.352
 7123SOL    HW122055   3.779   2.111  13.298
 7123SOL    HW222056   3.886   1.991  13.330
 7124SOL     OW22057   3.803   3.102  13.687
 7124SOL    HW122058   3.802   3.055  13.775
 7124SOL    HW222059   3.885   3.074  13.636
 7125SOL     OW22060   3.763   2.939  13.334
 7125SOL    HW122061   3.862   2.928  13.325
 7125SOL    HW222062   3.723   2.853  13.366
 7126SOL     OW22063   3.949   3.999   0.996
 7126SOL    HW122064   3.984   3.982   1.088
 7126SOL    HW222065   3.861   3.954   0.984
 7127SOL     OW22066   3.743   4.092   0.647
 7127SOL    HW122067   3.661   4.135   0.686
 7127SOL    HW222068   3.715   4.019   0.584
 7128SOL     OW22069   3.926   4.009   1.498
 7128SOL    HW122070   3.846   4.069   1.485
 7128SOL    HW222071   3.916   3.960   1.584
 7129SOL     OW22072   4.021   3.759   0.171
 7129SOL    HW122073   4.070   3.843   0.150
 7129SOL    HW222074   4.083   3.694   0.216
 7130SOL     OW22075   4.031   3.937   1.231
 7130SOL    HW122076   4.008   3.974   1.321
 7130SOL    HW222077   4.001   3.842   1.225
 7131SOL     OW22078   4.031   3.787   0.618
 7131SOL    HW122079   4.020   3.881   0.651
 7131SOL    HW222080   4.026   3.724   0.695
 7132SOL     OW22081   3.796   3.890   0.318
 7132SOL    HW122082   3.779   3.973   0.264
 7132SOL    HW222083   3.886   3.853   0.296
 7133SOL     OW22084   3.949   3.999   2.858
 7133SOL    HW122085   3.984   3.982   2.950
 7133SOL    HW222086   3.861   3.954   2.846
 7134SOL     OW22087   3.743   4.092   2.509
 7134SOL    HW122088   3.661   4.135   2.548
 7134SOL    HW222089   3.715   4.019   2.446
 7135SOL     OW22090   3.926   4.009   3.360
 7135SOL    HW122091   3.846   4.069   3.347
 7135SOL    HW222092   3.916   3.960   3.446
 7136SOL     OW22093   4.021   3.759   2.033
 7136SOL    HW122094   4.070   3.843   2.012
 7136SOL    HW222095   4.083   3.694   2.078
 7137SOL     OW22096   4.031   3.937   3.093
 7137SOL    HW122097   4.008   3.974   3.183
 7137SOL    HW222098   4.001   3.842   3.087
 7138SOL     OW22099   4.031   3.787   2.480
 7138SOL    HW122100   4.020   3.881   2.513
 7138SOL    HW222101   4.026   3.724   2.557
 7139SOL     OW22102   3.799   4.069   1.895
 7139SOL    HW122103   3.707   4.041   1.866
 7139SOL    HW222104   3.830   4.146   1.839
 7140SOL     OW22105   3.796   3.890   2.180
 7140SOL    HW122106   3.779   3.973   2.126
 7140SOL    HW222107   3.886   3.853   2.158
 7141SOL     OW22108   3.949   3.999   4.720
 7141SOL    HW122109   3.984   3.982   4.812
 7141SOL    HW222110   3.861   3.954   4.708
 7142SOL     OW22111   3.743   4.092   4.371
 7142SOL    HW122112   3.661   4.135   4.410
 7142SOL    HW222113   3.715   4.019   4.308
 7143SOL     OW22114   3.926   4.009   5.222
 7143SOL    HW122115   3.846   4.069   5.209
 7143SOL    HW222116   3.916   3.960   5.308
 7144SOL     OW22117   4.021   3.759   3.895
 7144SOL    HW122118   4.070   3.843   3.874
 7144SOL    HW222119   4.083   3.694   3.940
 7145SOL     OW22120   4.031   3.937   4.955
 7145SOL    HW122121   4.008   3.974   5.045
 7145SOL    HW222122   4.001   3.842   4.949
 7146SOL     OW22123   4.031   3.787   4.342
 7146SOL    HW122124   4.020   3.881   4.375
 7146SOL    HW222125   4.026   3.724   4.419
 7147SOL     OW22126   3.799   4.069   3.757
 7147SOL    HW122127   3.707   4.041   3.728
 7147SOL    HW222128   3.830   4.146   3.701
 7148SOL     OW22129   3.796   3.890   4.042
 7148SOL    HW122130   3.779   3.973   3.988
 7148SOL    HW222131   3.886   3.853   4.020
 7149SOL     OW22132   3.949   3.999   6.582
 7149SOL    HW122133   3.984   3.982   6.674
 7149SOL    HW222134   3.861   3.954   6.570
 7150SOL     OW22135   3.743   4.092   6.233
 7150SOL    HW122136   3.661   4.135   6.272
 7150SOL    HW222137   3.715   4.019   6.170
 7151SOL     OW22138   3.926   4.009   7.084
 7151SOL    HW122139   3.846   4.069   7.071
 7151SOL    HW222140   3.916   3.960   7.170
 7152SOL     OW22141   4.021   3.759   5.757
 7152SOL    HW122142   4.070   3.843   5.736
 7152SOL    HW222143   4.083   3.694   5.802
 7153SOL     OW22144   4.031   3.937   6.817
 7153SOL    HW122145   4.008   3.974   6.907
 7153SOL    HW222146   4.001   3.842   6.811
 7154SOL     OW22147   4.031   3.787   6.204
 7154SOL    HW122148   4.020   3.881   6.237
 7154SOL    HW222149   4.026   3.724   6.281
 7155SOL     OW22150   3.799   4.069   5.619
 7155SOL    HW122151   3.707   4.041   5.590
 7155SOL    HW222152   3.830   4.146   5.563
 7156SOL     OW22153   3.796   3.890   5.904
 7156SOL    HW122154   3.779   3.973   5.850
 7156SOL    HW222155   3.886   3.853   5.882
 7157SOL     OW22156   3.949   3.999   8.444
 7157SOL    HW122157   3.984   3.982   8.536
 7157SOL    HW222158   3.861   3.954   8.432
 7158SOL     OW22159   3.743   4.092   8.095
 7158SOL    HW122160   3.661   4.135   8.134
 7158SOL    HW222161   3.715   4.019   8.032
 7159SOL     OW22162   3.926   4.009   8.946
 7159SOL    HW122163   3.846   4.069   8.933
 7159SOL    HW222164   3.916   3.960   9.032
 7160SOL     OW22165   4.021   3.759   7.619
 7160SOL    HW122166   4.070   3.843   7.598
 7160SOL    HW222167   4.083   3.694   7.664
 7161SOL     OW22168   4.031   3.937   8.679
 7161SOL    HW122169   4.008   3.974   8.769
 7161SOL    HW222170   4.001   3.842   8.673
 7162SOL     OW22171   4.031   3.787   8.066
 7162SOL    HW122172   4.020   3.881   8.099
 7162SOL    HW222173   4.026   3.724   8.143
 7163SOL     OW22174   3.799   4.069   7.481
 7163SOL    HW122175   3.707   4.041   7.452
 7163SOL    HW222176   3.830   4.146   7.425
 7164SOL     OW22177   3.796   3.890   7.766
 7164SOL    HW122178   3.779   3.973   7.712
 7164SOL    HW222179   3.886   3.853   7.744
 7165SOL     OW22180   3.949   3.999  10.306
 7165SOL    HW122181   3.984   3.982  10.398
 7165SOL    HW222182   3.861   3.954  10.294
 7166SOL     OW22183   3.743   4.092   9.957
 7166SOL    HW122184   3.661   4.135   9.996
 7166SOL    HW222185   3.715   4.019   9.894
 7167SOL     OW22186   3.926   4.009  10.808
 7167SOL    HW122187   3.846   4.069  10.795
 7167SOL    HW222188   3.916   3.960  10.894
 7168SOL     OW22189   4.021   3.759   9.481
 7168SOL    HW122190   4.070   3.843   9.460
 7168SOL    HW222191   4.083   3.694   9.526
 7169SOL     OW22192   4.031   3.937  10.541
 7169SOL    HW122193   4.008   3.974  10.631
 7169SOL    HW222194   4.001   3.842  10.535
 7170SOL     OW22195   4.031   3.787   9.928
 7170SOL    HW122196   4.020   3.881   9.961
 7170SOL    HW222197   4.026   3.724  10.005
 7171SOL     OW22198   3.799   4.069   9.343
 7171SOL    HW122199   3.707   4.041   9.314
 7171SOL    HW222200   3.830   4.146   9.287
 7172SOL     OW22201   3.796   3.890   9.628
 7172SOL    HW122202   3.779   3.973   9.574
 7172SOL    HW222203   3.886   3.853   9.606
 7173SOL     OW22204   3.949   3.999  12.168
 7173SOL    HW122205   3.984   3.982  12.260
 7173SOL    HW222206   3.861   3.954  12.156
 7174SOL     OW22207   3.743   4.092  11.819
 7174SOL    HW122208   3.661   4.135  11.858
 7174SOL    HW222209   3.715   4.019  11.756
 7175SOL     OW22210   3.926   4.009  12.670
 7175SOL    HW122211   3.846   4.069  12.657
 7175SOL    HW222212   3.916   3.960  12.756
 7176SOL     OW22213   4.021   3.759  11.343
 7176SOL    HW122214   4.070   3.843  11.322
 7176SOL    HW222215   4.083   3.694  11.388
 7177SOL     OW22216   4.031   3.937  12.403
 7177SOL    HW122217   4.008   3.974  12.493
 7177SOL    HW222218   4.001   3.842  12.397
 7178SOL     OW22219   4.031   3.787  11.790
 7178SOL    HW122220   4.020   3.881  11.823
 7178SOL    HW222221   4.026   3.724  11.867
 7179SOL     OW22222   3.799   4.069  11.205
 7179SOL    HW122223   3.707   4.041  11.176
 7179SOL    HW222224   3.830   4.146  11.149
 7180SOL     OW22225   3.796   3.890  11.490
 7180SOL    HW122226   3.779   3.973  11.436
 7180SOL    HW222227   3.886   3.853  11.468
 7181SOL     OW22228   3.743   4.092  13.681
 7181SOL    HW122229   3.661   4.135  13.720
 7181SOL    HW222230   3.715   4.019  13.618
 7182SOL     OW22231   4.021   3.759  13.205
 7182SOL    HW122232   4.070   3.843  13.184
 7182SOL    HW222233   4.083   3.694  13.250
 7183SOL     OW22234   4.031   3.787  13.652
 7183SOL    HW122235   4.020   3.881  13.685
 7183SOL    HW222236   4.026   3.724  13.729
 7184SOL     OW22237   3.799   4.069  13.067
 7184SOL    HW122238   3.707   4.041  13.038
 7184SOL    HW222239   3.830   4.146  13.011
 7185SOL     OW22240   3.796   3.890  13.352
 7185SOL    HW122241   3.779   3.973  13.298
 7185SOL    HW222242   3.886   3.853  13.330
   4.00000   4.00000  13.90000
